 Entering Gaussian System, Link 0=g16
 Initial command:
 /sw/apps/gaussian-16.0/g16/l1.exe "/tmp/Gau-114861.inp" -scrdir="/tmp/"
 Entering Link 1 = /sw/apps/gaussian-16.0/g16/l1.exe PID=    114862.
  
 Copyright (c) 1988,1990,1992,1993,1995,1998,2003,2009,2016,
            Gaussian, Inc.  All Rights Reserved.
  
 This is part of the Gaussian(R) 16 program.  It is based on
 the Gaussian(R) 09 system (copyright 2009, Gaussian, Inc.),
 the Gaussian(R) 03 system (copyright 2003, Gaussian, Inc.),
 the Gaussian(R) 98 system (copyright 1998, Gaussian, Inc.),
 the Gaussian(R) 94 system (copyright 1995, Gaussian, Inc.),
 the Gaussian 92(TM) system (copyright 1992, Gaussian, Inc.),
 the Gaussian 90(TM) system (copyright 1990, Gaussian, Inc.),
 the Gaussian 88(TM) system (copyright 1988, Gaussian, Inc.),
 the Gaussian 86(TM) system (copyright 1986, Carnegie Mellon
 University), and the Gaussian 82(TM) system (copyright 1983,
 Carnegie Mellon University). Gaussian is a federally registered
 trademark of Gaussian, Inc.
  
 This software contains proprietary and confidential information,
 including trade secrets, belonging to Gaussian, Inc.
  
 This software is provided under written license and may be
 used, copied, transmitted, or stored only in accord with that
 written license.
  
 The following legend is applicable only to US Government
 contracts under FAR:
  
                    RESTRICTED RIGHTS LEGEND
  
 Use, reproduction and disclosure by the US Government is
 subject to restrictions as set forth in subparagraphs (a)
 and (c) of the Commercial Computer Software - Restricted
 Rights clause in FAR 52.227-19.
  
 Gaussian, Inc.
 340 Quinnipiac St., Bldg. 40, Wallingford CT 06492
  
  
 ---------------------------------------------------------------
 Warning -- This program may not be used in any manner that
 competes with the business of Gaussian, Inc. or will provide
 assistance to any competitor of Gaussian, Inc.  The licensee
 of this program is prohibited from giving any competitor of
 Gaussian, Inc. access to this program.  By using this program,
 the user acknowledges that Gaussian, Inc. is engaged in the
 business of creating and licensing software in the field of
 computational chemistry and represents and warrants to the
 licensee that it is not a competitor of Gaussian, Inc. and that
 it will not use this program in any manner prohibited above.
 ---------------------------------------------------------------
  

 Cite this work as:
 Gaussian 16, Revision A.03,
 M. J. Frisch, G. W. Trucks, H. B. Schlegel, G. E. Scuseria, 
 M. A. Robb, J. R. Cheeseman, G. Scalmani, V. Barone, 
 G. A. Petersson, H. Nakatsuji, X. Li, M. Caricato, A. V. Marenich, 
 J. Bloino, B. G. Janesko, R. Gomperts, B. Mennucci, H. P. Hratchian, 
 J. V. Ortiz, A. F. Izmaylov, J. L. Sonnenberg, D. Williams-Young, 
 F. Ding, F. Lipparini, F. Egidi, J. Goings, B. Peng, A. Petrone, 
 T. Henderson, D. Ranasinghe, V. G. Zakrzewski, J. Gao, N. Rega, 
 G. Zheng, W. Liang, M. Hada, M. Ehara, K. Toyota, R. Fukuda, 
 J. Hasegawa, M. Ishida, T. Nakajima, Y. Honda, O. Kitao, H. Nakai, 
 T. Vreven, K. Throssell, J. A. Montgomery, Jr., J. E. Peralta, 
 F. Ogliaro, M. J. Bearpark, J. J. Heyd, E. N. Brothers, K. N. Kudin, 
 V. N. Staroverov, T. A. Keith, R. Kobayashi, J. Normand, 
 K. Raghavachari, A. P. Rendell, J. C. Burant, S. S. Iyengar, 
 J. Tomasi, M. Cossi, J. M. Millam, M. Klene, C. Adamo, R. Cammi, 
 J. W. Ochterski, R. L. Martin, K. Morokuma, O. Farkas, 
 J. B. Foresman, and D. J. Fox, Gaussian, Inc., Wallingford CT, 2016.
 
 ******************************************
 Gaussian 16:  ES64L-G16RevA.03 25-Dec-2016
                 4-Sep-2021 
 ******************************************
 %nproc=24
 Will use up to   24 processors via shared memory.
 %mem=175gb
 -----------------------------------
 #p cam-b3lyp/Def2SVP td=(nstates=5)
 -----------------------------------
 1/38=1,172=1/1;
 2/12=2,17=6,18=5,40=1/2;
 3/5=43,7=101,11=9,25=1,30=1,74=-40/1,2,3,8;
 4//1;
 5/5=2,38=5/2;
 8/6=1,10=1,108=5/1;
 9/41=5,42=1,70=2/14;
 6/7=2,8=2,9=2,10=2/1;
 99/5=1,9=1/99;
 Leave Link    1 at Sat Sep  4 01:16:32 2021, MaxMem= 23488102400 cpu:               0.7 elap:               0.0
 (Enter /sw/apps/gaussian-16.0/g16/l101.exe)
 --------------------------------
 TDDFT excited states in gaussian
 --------------------------------
 Symbolic Z-matrix:
 Charge =  0 Multiplicity = 1
 Mg                    0.        0.        0. 
 C                    -0.217    -2.218     2.801 
 C                    -1.255     2.442     2.026 
 C                    -0.245     1.85     -2.564 
 C                     0.146    -2.824    -2.037 
 N                    -0.617    -0.009     2.126 
 C                    -0.594    -0.908     3.105 
 C                    -0.936    -0.309     4.502 
 C                    -1.773     0.964     4.032 
 C                    -1.155     1.168     2.66 
 C                    -3.263     0.685     3.863 
 C                     0.345     0.11      5.299 
 C                     0.124     0.397     6.787 
 H                     1.168     0.033     7.733 
 N                    -0.185     1.961    -0.152 
 C                    -0.703     2.8       0.777 
 C                    -0.62      4.156     0.193 
 C                    -0.187     4.015    -1.225 
 C                    -0.214     2.583    -1.38 
 C                    -0.887     5.406     0.974 
 C                     0.181     5.013    -2.277 
 O                     0.303     4.69     -3.508 
 C                     0.31      6.414    -1.837 
 N                    -0.265    -0.413    -2.029 
 C                    -0.279     0.569    -2.937 
 C                    -0.196     0.024    -4.332 
 C                     0.124    -1.533    -4.18 
 C                     0.086    -1.632    -2.635 
 C                    -1.451     0.205    -5.197 
 C                     1.373    -2.07     -4.923 
 C                     2.626    -1.49     -4.306 
 N                     0.15     -2.144     0.303 
 C                     0.173    -3.136    -0.688 
 C                     0.173    -4.438     0.004 
 C                     0.133    -4.111     1.358 
 C                     0.083    -2.695     1.502 
 C                     0.149    -5.715    -0.623 
 C                     0.096    -4.629     2.716 
 O                     0.208    -5.747     3.221 
 C                    -0.255    -3.428     3.701 
 C                     0.717    -3.482     4.848 
 O                     1.931    -3.255     4.669 
 O                     0.038    -3.556     6.003 
 C                     0.943    -3.583     7.183 
 H                    -1.859     3.22      2.497 
 H                    -0.218     2.453    -3.474 
 H                     0.276    -3.747    -2.605 
 H                    -1.554    -0.949     5.132 
 H                    -1.585     1.831     4.665 
 H                    -3.484    -0.377     3.969 
 H                    -3.511     1.027     2.858 
 H                    -3.852     1.301     4.543 
 H                     0.669     1.096     4.966 
 H                     1.13     -0.639     5.189 
 H                    -0.844     0.026     7.125 
 H                     0.062     1.477     6.921 
 H                    -1.344     5.186     1.938 
 H                    -1.651     5.963     0.432 
 H                     0.007     6.02      1.084 
 H                    -0.635     6.744    -1.405 
 H                     0.665     6.97     -2.704 
 H                     1.048     6.466    -1.036 
 H                     0.608     0.501    -4.891 
 H                    -0.692    -2.156    -4.547 
 H                    -1.267     0.74     -6.129 
 H                    -2.204     0.714    -4.596 
 H                    -1.967    -0.72     -5.453 
 H                     1.356    -1.759    -5.967 
 H                     1.452    -3.157    -4.902 
 H                     2.714    -0.522    -4.798 
 H                     3.487    -2.121    -4.529 
 H                     2.495    -1.303    -3.24 
 H                     0.867    -6.333    -0.084 
 H                     0.404    -5.642    -1.68 
 H                    -0.891    -5.999    -0.463 
 H                    -1.283    -3.581     4.028 
 H                     0.698    -4.478     7.755 
 H                     0.833    -2.619     7.68 
 H                     2.       -3.754     6.976 
 Mg                    10.51887   0.93946   0.7971 
 C                     10.6054   0.69269  -2.7821 
 C                     9.93296  -2.4201    0.86536 
 C                     9.98999   1.1955    3.91514 
 C                     9.97133   4.35934   0.40933 
 N                     10.31746  -0.56046  -0.81595 
 C                     10.43062  -0.54864  -2.13557 
 C                     10.43242  -1.95455  -2.79358 
 C                     9.65251  -2.75937  -1.64342 
 C                     10.01398  -1.88447  -0.44484 
 C                     8.14241  -2.73804  -1.8122 
 C                     11.88312  -2.51434  -3.00359 
 C                     11.97398  -3.73877  -3.91698 
 H                     13.14119  -3.8754   -4.78383 
 N                     10.51944  -0.4462    2.21784 
 C                     10.28447  -1.76653   2.06687 
 C                     10.38019  -2.34887   3.41441 
 C                     10.52781  -1.23956   4.39541 
 C                     10.32617  -0.09433   3.53061 
 C                     10.40841  -3.82937   3.66093 
 C                     10.79232  -1.21411   5.87039 
 O                     10.64445  -0.14559   6.56266 
 C                     11.13909  -2.49833   6.4965 
 N                     9.83932   2.50202   1.98831 
 C                     9.75047   2.36569   3.32302 
 C                     9.50491   3.69698   3.99217 
 C                     9.68899   4.79521   2.84431 
 C                     9.93199   3.86203   1.63787 
 C                     8.13438   3.86988   4.6465 
 C                     10.71079   5.93303   3.11627 
 C                     12.11301   5.36935   3.15387 
 N                     10.50297   2.33492  -0.85229 
 C                     10.22551   3.71839  -0.79648 
 C                     10.22148   4.21806  -2.18671 
 C                     10.47613   3.07715  -2.96258 
 C                     10.6081   1.94265  -2.11702 
 C                     9.95509   5.55734  -2.58856 
 C                     10.65276   2.57271  -4.30535 
 O                     10.73381   3.08369  -5.42163 
 C                     10.61878   0.98434  -4.25702 
 C                     11.78048   0.47018  -5.06237 
 O                     12.94887   0.68268  -4.69315 
 O                     11.32287  -0.36761  -6.01057 
 C                     12.43914  -0.91232  -6.82852 
 H                     9.52164  -3.42196   0.99177 
 H                     9.90548   1.35959   4.9919 
 H                     9.90556   5.43127   0.21109 
 H                     9.88752  -2.01958  -3.72773 
 H                     10.05558  -3.76115  -1.51961 
 H                     7.83591  -2.08363  -2.61466 
 H                     7.74572  -2.38978  -0.86753 
 H                     7.76315  -3.75577  -1.94151 
 H                     12.23649  -2.95526  -2.0626 
 H                     12.5397  -1.74596  -3.36292 
 H                     11.05081  -3.89665  -4.48775 
 H                     12.05927  -4.63167  -3.29291 
 H                     10.11615  -4.39188   2.76563 
 H                     9.6191   -4.04749   4.38845 
 H                     11.36434  -4.1712    4.06345 
 H                     10.33508  -3.21088   6.32826 
 H                     11.37905  -2.26181   7.53494 
 H                     12.02712  -2.90227   5.99766 
 H                     10.23429   3.87817   4.77209 
 H                     8.75153   5.33356   2.64136 
 H                     8.19298   4.12387   5.72173 
 H                     7.56941   2.95869   4.50126 
 H                     7.49202   4.61643   4.18257 
 H                     10.52904   6.37875   4.09732 
 H                     10.66961   6.73422   2.38592 
 H                     12.20124   4.99534   4.17828 
 H                     12.84492   6.14937   2.95406 
 H                     12.21008   4.51035   2.47982 
 H                     10.68621   5.80634  -3.34616 
 H                     10.00589   6.24301  -1.74533 
 H                     8.93557   5.44802  -2.96789 
 H                     9.66115   0.66445  -4.66954 
 H                     12.21195  -0.68073  -7.87372 
 H                     12.51613  -1.98136  -6.55471 
 H                     13.41363  -0.45151  -6.71679 
 
 ITRead=  0  0  0  0  0  0  0  0  0  0  0  0  0  0  0  0  0  0  0  0
 ITRead=  0  0  0  0  0  0  0  0  0  0  0  0  0  0  0  0  0  0  0  0
 ITRead=  0  0  0  0  0  0  0  0  0  0  0  0  0  0  0  0  0  0  0  0
 ITRead=  0  0  0  0  0  0  0  0  0  0  0  0  0  0  0  0  0  0  0  0
 ITRead=  0  0  0  0  0  0  0  0  0  0  0  0  0  0  0  0  0  0  0  0
 ITRead=  0  0  0  0  0  0  0  0  0  0  0  0  0  0  0  0  0  0  0  0
 ITRead=  0  0  0  0  0  0  0  0  0  0  0  0  0  0  0  0  0  0  0  0
 ITRead=  0  0  0  0  0  0  0  0  0  0  0  0  0  0  0  0  0  0
 MicOpt= -1 -1 -1 -1 -1 -1 -1 -1 -1 -1 -1 -1 -1 -1 -1 -1 -1 -1 -1 -1
 MicOpt= -1 -1 -1 -1 -1 -1 -1 -1 -1 -1 -1 -1 -1 -1 -1 -1 -1 -1 -1 -1
 MicOpt= -1 -1 -1 -1 -1 -1 -1 -1 -1 -1 -1 -1 -1 -1 -1 -1 -1 -1 -1 -1
 MicOpt= -1 -1 -1 -1 -1 -1 -1 -1 -1 -1 -1 -1 -1 -1 -1 -1 -1 -1 -1 -1
 MicOpt= -1 -1 -1 -1 -1 -1 -1 -1 -1 -1 -1 -1 -1 -1 -1 -1 -1 -1 -1 -1
 MicOpt= -1 -1 -1 -1 -1 -1 -1 -1 -1 -1 -1 -1 -1 -1 -1 -1 -1 -1 -1 -1
 MicOpt= -1 -1 -1 -1 -1 -1 -1 -1 -1 -1 -1 -1 -1 -1 -1 -1 -1 -1 -1 -1
 MicOpt= -1 -1 -1 -1 -1 -1 -1 -1 -1 -1 -1 -1 -1 -1 -1 -1 -1 -1
 NAtoms=    158 NQM=      158 NQMF=       0 NMMI=      0 NMMIF=      0
                NMic=       0 NMicF=      0.
                    Isotopes and Nuclear Properties:
 (Nuclear quadrupole moments (NQMom) in fm**2, nuclear magnetic moments (NMagM)
  in nuclear magnetons)

  Atom         1           2           3           4           5           6           7           8           9          10
 IAtWgt=          24          12          12          12          12          14          12          12          12          12
 AtmWgt=  23.9850450  12.0000000  12.0000000  12.0000000  12.0000000  14.0030740  12.0000000  12.0000000  12.0000000  12.0000000
 NucSpn=           0           0           0           0           0           2           0           0           0           0
 AtZEff=  -0.0000000  -0.0000000  -0.0000000  -0.0000000  -0.0000000  -0.0000000  -0.0000000  -0.0000000  -0.0000000  -0.0000000
 NQMom=    0.0000000   0.0000000   0.0000000   0.0000000   0.0000000   2.0440000   0.0000000   0.0000000   0.0000000   0.0000000
 NMagM=    0.0000000   0.0000000   0.0000000   0.0000000   0.0000000   0.4037610   0.0000000   0.0000000   0.0000000   0.0000000
 AtZNuc=  12.0000000   6.0000000   6.0000000   6.0000000   6.0000000   7.0000000   6.0000000   6.0000000   6.0000000   6.0000000

  Atom        11          12          13          14          15          16          17          18          19          20
 IAtWgt=          12          12          12           1          14          12          12          12          12          12
 AtmWgt=  12.0000000  12.0000000  12.0000000   1.0078250  14.0030740  12.0000000  12.0000000  12.0000000  12.0000000  12.0000000
 NucSpn=           0           0           0           1           2           0           0           0           0           0
 AtZEff=  -0.0000000  -0.0000000  -0.0000000  -0.0000000  -0.0000000  -0.0000000  -0.0000000  -0.0000000  -0.0000000  -0.0000000
 NQMom=    0.0000000   0.0000000   0.0000000   0.0000000   2.0440000   0.0000000   0.0000000   0.0000000   0.0000000   0.0000000
 NMagM=    0.0000000   0.0000000   0.0000000   2.7928460   0.4037610   0.0000000   0.0000000   0.0000000   0.0000000   0.0000000
 AtZNuc=   6.0000000   6.0000000   6.0000000   1.0000000   7.0000000   6.0000000   6.0000000   6.0000000   6.0000000   6.0000000

  Atom        21          22          23          24          25          26          27          28          29          30
 IAtWgt=          12          16          12          14          12          12          12          12          12          12
 AtmWgt=  12.0000000  15.9949146  12.0000000  14.0030740  12.0000000  12.0000000  12.0000000  12.0000000  12.0000000  12.0000000
 NucSpn=           0           0           0           2           0           0           0           0           0           0
 AtZEff=  -0.0000000  -0.0000000  -0.0000000  -0.0000000  -0.0000000  -0.0000000  -0.0000000  -0.0000000  -0.0000000  -0.0000000
 NQMom=    0.0000000   0.0000000   0.0000000   2.0440000   0.0000000   0.0000000   0.0000000   0.0000000   0.0000000   0.0000000
 NMagM=    0.0000000   0.0000000   0.0000000   0.4037610   0.0000000   0.0000000   0.0000000   0.0000000   0.0000000   0.0000000
 AtZNuc=   6.0000000   8.0000000   6.0000000   7.0000000   6.0000000   6.0000000   6.0000000   6.0000000   6.0000000   6.0000000

  Atom        31          32          33          34          35          36          37          38          39          40
 IAtWgt=          12          14          12          12          12          12          12          12          16          12
 AtmWgt=  12.0000000  14.0030740  12.0000000  12.0000000  12.0000000  12.0000000  12.0000000  12.0000000  15.9949146  12.0000000
 NucSpn=           0           2           0           0           0           0           0           0           0           0
 AtZEff=  -0.0000000  -0.0000000  -0.0000000  -0.0000000  -0.0000000  -0.0000000  -0.0000000  -0.0000000  -0.0000000  -0.0000000
 NQMom=    0.0000000   2.0440000   0.0000000   0.0000000   0.0000000   0.0000000   0.0000000   0.0000000   0.0000000   0.0000000
 NMagM=    0.0000000   0.4037610   0.0000000   0.0000000   0.0000000   0.0000000   0.0000000   0.0000000   0.0000000   0.0000000
 AtZNuc=   6.0000000   7.0000000   6.0000000   6.0000000   6.0000000   6.0000000   6.0000000   6.0000000   8.0000000   6.0000000

  Atom        41          42          43          44          45          46          47          48          49          50
 IAtWgt=          12          16          16          12           1           1           1           1           1           1
 AtmWgt=  12.0000000  15.9949146  15.9949146  12.0000000   1.0078250   1.0078250   1.0078250   1.0078250   1.0078250   1.0078250
 NucSpn=           0           0           0           0           1           1           1           1           1           1
 AtZEff=  -0.0000000  -0.0000000  -0.0000000  -0.0000000  -0.0000000  -0.0000000  -0.0000000  -0.0000000  -0.0000000  -0.0000000
 NQMom=    0.0000000   0.0000000   0.0000000   0.0000000   0.0000000   0.0000000   0.0000000   0.0000000   0.0000000   0.0000000
 NMagM=    0.0000000   0.0000000   0.0000000   0.0000000   2.7928460   2.7928460   2.7928460   2.7928460   2.7928460   2.7928460
 AtZNuc=   6.0000000   8.0000000   8.0000000   6.0000000   1.0000000   1.0000000   1.0000000   1.0000000   1.0000000   1.0000000

  Atom        51          52          53          54          55          56          57          58          59          60
 IAtWgt=           1           1           1           1           1           1           1           1           1           1
 AtmWgt=   1.0078250   1.0078250   1.0078250   1.0078250   1.0078250   1.0078250   1.0078250   1.0078250   1.0078250   1.0078250
 NucSpn=           1           1           1           1           1           1           1           1           1           1
 AtZEff=  -0.0000000  -0.0000000  -0.0000000  -0.0000000  -0.0000000  -0.0000000  -0.0000000  -0.0000000  -0.0000000  -0.0000000
 NQMom=    0.0000000   0.0000000   0.0000000   0.0000000   0.0000000   0.0000000   0.0000000   0.0000000   0.0000000   0.0000000
 NMagM=    2.7928460   2.7928460   2.7928460   2.7928460   2.7928460   2.7928460   2.7928460   2.7928460   2.7928460   2.7928460
 AtZNuc=   1.0000000   1.0000000   1.0000000   1.0000000   1.0000000   1.0000000   1.0000000   1.0000000   1.0000000   1.0000000

  Atom        61          62          63          64          65          66          67          68          69          70
 IAtWgt=           1           1           1           1           1           1           1           1           1           1
 AtmWgt=   1.0078250   1.0078250   1.0078250   1.0078250   1.0078250   1.0078250   1.0078250   1.0078250   1.0078250   1.0078250
 NucSpn=           1           1           1           1           1           1           1           1           1           1
 AtZEff=  -0.0000000  -0.0000000  -0.0000000  -0.0000000  -0.0000000  -0.0000000  -0.0000000  -0.0000000  -0.0000000  -0.0000000
 NQMom=    0.0000000   0.0000000   0.0000000   0.0000000   0.0000000   0.0000000   0.0000000   0.0000000   0.0000000   0.0000000
 NMagM=    2.7928460   2.7928460   2.7928460   2.7928460   2.7928460   2.7928460   2.7928460   2.7928460   2.7928460   2.7928460
 AtZNuc=   1.0000000   1.0000000   1.0000000   1.0000000   1.0000000   1.0000000   1.0000000   1.0000000   1.0000000   1.0000000

  Atom        71          72          73          74          75          76          77          78          79          80
 IAtWgt=           1           1           1           1           1           1           1           1           1          24
 AtmWgt=   1.0078250   1.0078250   1.0078250   1.0078250   1.0078250   1.0078250   1.0078250   1.0078250   1.0078250  23.9850450
 NucSpn=           1           1           1           1           1           1           1           1           1           0
 AtZEff=  -0.0000000  -0.0000000  -0.0000000  -0.0000000  -0.0000000  -0.0000000  -0.0000000  -0.0000000  -0.0000000  -0.0000000
 NQMom=    0.0000000   0.0000000   0.0000000   0.0000000   0.0000000   0.0000000   0.0000000   0.0000000   0.0000000   0.0000000
 NMagM=    2.7928460   2.7928460   2.7928460   2.7928460   2.7928460   2.7928460   2.7928460   2.7928460   2.7928460   0.0000000
 AtZNuc=   1.0000000   1.0000000   1.0000000   1.0000000   1.0000000   1.0000000   1.0000000   1.0000000   1.0000000  12.0000000

  Atom        81          82          83          84          85          86          87          88          89          90
 IAtWgt=          12          12          12          12          14          12          12          12          12          12
 AtmWgt=  12.0000000  12.0000000  12.0000000  12.0000000  14.0030740  12.0000000  12.0000000  12.0000000  12.0000000  12.0000000
 NucSpn=           0           0           0           0           2           0           0           0           0           0
 AtZEff=  -0.0000000  -0.0000000  -0.0000000  -0.0000000  -0.0000000  -0.0000000  -0.0000000  -0.0000000  -0.0000000  -0.0000000
 NQMom=    0.0000000   0.0000000   0.0000000   0.0000000   2.0440000   0.0000000   0.0000000   0.0000000   0.0000000   0.0000000
 NMagM=    0.0000000   0.0000000   0.0000000   0.0000000   0.4037610   0.0000000   0.0000000   0.0000000   0.0000000   0.0000000
 AtZNuc=   6.0000000   6.0000000   6.0000000   6.0000000   7.0000000   6.0000000   6.0000000   6.0000000   6.0000000   6.0000000

  Atom        91          92          93          94          95          96          97          98          99         100
 IAtWgt=          12          12           1          14          12          12          12          12          12          12
 AtmWgt=  12.0000000  12.0000000   1.0078250  14.0030740  12.0000000  12.0000000  12.0000000  12.0000000  12.0000000  12.0000000
 NucSpn=           0           0           1           2           0           0           0           0           0           0
 AtZEff=  -0.0000000  -0.0000000  -0.0000000  -0.0000000  -0.0000000  -0.0000000  -0.0000000  -0.0000000  -0.0000000  -0.0000000
 NQMom=    0.0000000   0.0000000   0.0000000   2.0440000   0.0000000   0.0000000   0.0000000   0.0000000   0.0000000   0.0000000
 NMagM=    0.0000000   0.0000000   2.7928460   0.4037610   0.0000000   0.0000000   0.0000000   0.0000000   0.0000000   0.0000000
 AtZNuc=   6.0000000   6.0000000   1.0000000   7.0000000   6.0000000   6.0000000   6.0000000   6.0000000   6.0000000   6.0000000

  Atom       101         102         103         104         105         106         107         108         109         110
 IAtWgt=          16          12          14          12          12          12          12          12          12          12
 AtmWgt=  15.9949146  12.0000000  14.0030740  12.0000000  12.0000000  12.0000000  12.0000000  12.0000000  12.0000000  12.0000000
 NucSpn=           0           0           2           0           0           0           0           0           0           0
 AtZEff=  -0.0000000  -0.0000000  -0.0000000  -0.0000000  -0.0000000  -0.0000000  -0.0000000  -0.0000000  -0.0000000  -0.0000000
 NQMom=    0.0000000   0.0000000   2.0440000   0.0000000   0.0000000   0.0000000   0.0000000   0.0000000   0.0000000   0.0000000
 NMagM=    0.0000000   0.0000000   0.4037610   0.0000000   0.0000000   0.0000000   0.0000000   0.0000000   0.0000000   0.0000000
 AtZNuc=   8.0000000   6.0000000   7.0000000   6.0000000   6.0000000   6.0000000   6.0000000   6.0000000   6.0000000   6.0000000

  Atom       111         112         113         114         115         116         117         118         119         120
 IAtWgt=          14          12          12          12          12          12          12          16          12          12
 AtmWgt=  14.0030740  12.0000000  12.0000000  12.0000000  12.0000000  12.0000000  12.0000000  15.9949146  12.0000000  12.0000000
 NucSpn=           2           0           0           0           0           0           0           0           0           0
 AtZEff=  -0.0000000  -0.0000000  -0.0000000  -0.0000000  -0.0000000  -0.0000000  -0.0000000  -0.0000000  -0.0000000  -0.0000000
 NQMom=    2.0440000   0.0000000   0.0000000   0.0000000   0.0000000   0.0000000   0.0000000   0.0000000   0.0000000   0.0000000
 NMagM=    0.4037610   0.0000000   0.0000000   0.0000000   0.0000000   0.0000000   0.0000000   0.0000000   0.0000000   0.0000000
 AtZNuc=   7.0000000   6.0000000   6.0000000   6.0000000   6.0000000   6.0000000   6.0000000   8.0000000   6.0000000   6.0000000

  Atom       121         122         123         124         125         126         127         128         129         130
 IAtWgt=          16          16          12           1           1           1           1           1           1           1
 AtmWgt=  15.9949146  15.9949146  12.0000000   1.0078250   1.0078250   1.0078250   1.0078250   1.0078250   1.0078250   1.0078250
 NucSpn=           0           0           0           1           1           1           1           1           1           1
 AtZEff=  -0.0000000  -0.0000000  -0.0000000  -0.0000000  -0.0000000  -0.0000000  -0.0000000  -0.0000000  -0.0000000  -0.0000000
 NQMom=    0.0000000   0.0000000   0.0000000   0.0000000   0.0000000   0.0000000   0.0000000   0.0000000   0.0000000   0.0000000
 NMagM=    0.0000000   0.0000000   0.0000000   2.7928460   2.7928460   2.7928460   2.7928460   2.7928460   2.7928460   2.7928460
 AtZNuc=   8.0000000   8.0000000   6.0000000   1.0000000   1.0000000   1.0000000   1.0000000   1.0000000   1.0000000   1.0000000

  Atom       131         132         133         134         135         136         137         138         139         140
 IAtWgt=           1           1           1           1           1           1           1           1           1           1
 AtmWgt=   1.0078250   1.0078250   1.0078250   1.0078250   1.0078250   1.0078250   1.0078250   1.0078250   1.0078250   1.0078250
 NucSpn=           1           1           1           1           1           1           1           1           1           1
 AtZEff=  -0.0000000  -0.0000000  -0.0000000  -0.0000000  -0.0000000  -0.0000000  -0.0000000  -0.0000000  -0.0000000  -0.0000000
 NQMom=    0.0000000   0.0000000   0.0000000   0.0000000   0.0000000   0.0000000   0.0000000   0.0000000   0.0000000   0.0000000
 NMagM=    2.7928460   2.7928460   2.7928460   2.7928460   2.7928460   2.7928460   2.7928460   2.7928460   2.7928460   2.7928460
 AtZNuc=   1.0000000   1.0000000   1.0000000   1.0000000   1.0000000   1.0000000   1.0000000   1.0000000   1.0000000   1.0000000

  Atom       141         142         143         144         145         146         147         148         149         150
 IAtWgt=           1           1           1           1           1           1           1           1           1           1
 AtmWgt=   1.0078250   1.0078250   1.0078250   1.0078250   1.0078250   1.0078250   1.0078250   1.0078250   1.0078250   1.0078250
 NucSpn=           1           1           1           1           1           1           1           1           1           1
 AtZEff=  -0.0000000  -0.0000000  -0.0000000  -0.0000000  -0.0000000  -0.0000000  -0.0000000  -0.0000000  -0.0000000  -0.0000000
 NQMom=    0.0000000   0.0000000   0.0000000   0.0000000   0.0000000   0.0000000   0.0000000   0.0000000   0.0000000   0.0000000
 NMagM=    2.7928460   2.7928460   2.7928460   2.7928460   2.7928460   2.7928460   2.7928460   2.7928460   2.7928460   2.7928460
 AtZNuc=   1.0000000   1.0000000   1.0000000   1.0000000   1.0000000   1.0000000   1.0000000   1.0000000   1.0000000   1.0000000

  Atom       151         152         153         154         155         156         157         158
 IAtWgt=           1           1           1           1           1           1           1           1
 AtmWgt=   1.0078250   1.0078250   1.0078250   1.0078250   1.0078250   1.0078250   1.0078250   1.0078250
 NucSpn=           1           1           1           1           1           1           1           1
 AtZEff=  -0.0000000  -0.0000000  -0.0000000  -0.0000000  -0.0000000  -0.0000000  -0.0000000  -0.0000000
 NQMom=    0.0000000   0.0000000   0.0000000   0.0000000   0.0000000   0.0000000   0.0000000   0.0000000
 NMagM=    2.7928460   2.7928460   2.7928460   2.7928460   2.7928460   2.7928460   2.7928460   2.7928460
 AtZNuc=   1.0000000   1.0000000   1.0000000   1.0000000   1.0000000   1.0000000   1.0000000   1.0000000
 Leave Link  101 at Sat Sep  4 01:16:32 2021, MaxMem= 23488102400 cpu:               3.3 elap:               0.2
 (Enter /sw/apps/gaussian-16.0/g16/l202.exe)
 Stoichiometry    C68H72Mg2N8O8
 Framework group  C1[X(C68H72Mg2N8O8)]
 Deg. of freedom   468
 Full point group                 C1      NOp   1
 Largest Abelian subgroup         C1      NOp   1
 Largest concise Abelian subgroup C1      NOp   1
                         Standard orientation:                         
 ---------------------------------------------------------------------
 Center     Atomic      Atomic             Coordinates (Angstroms)
 Number     Number       Type             X           Y           Z
 ---------------------------------------------------------------------
      1         12           0        5.060820   -1.261762    0.144392
      2          6           0        5.993367    1.877341   -1.300807
      3          6           0        6.323218   -0.108276    3.097169
      4          6           0        4.663440   -4.176887    1.327929
      5          6           0        4.928908   -2.545357   -3.092990
      6          7           0        6.009851    0.658976    0.701846
      7          6           0        6.253892    1.802429    0.069288
      8          6           0        6.742474    2.939787    1.015373
      9          6           0        7.332915    2.047639    2.197511
     10          6           0        6.481271    0.804165    2.012041
     11          6           0        8.798628    1.672472    2.004024
     12          6           0        5.566099    3.845159    1.513543
     13          6           0        5.988473    5.162423    2.170636
     14          1           0        5.162673    6.343040    1.966811
     15          7           0        4.981135   -1.884078    2.017685
     16          6           0        5.537541   -1.281126    3.095714
     17          6           0        5.198444   -2.130297    4.257869
     18          6           0        4.562143   -3.374226    3.742258
     19          6           0        4.736107   -3.204255    2.322320
     20          6           0        5.435554   -1.715072    5.677418
     21          6           0        3.911401   -4.537276    4.421951
     22          8           0        3.631871   -5.619003    3.800418
     23          6           0        3.687331   -4.408759    5.873267
     24          7           0        5.042213   -3.158167   -0.727925
     25          6           0        4.790829   -4.250782    0.001446
     26          6           0        4.549744   -5.446482   -0.871549
     27          6           0        4.448516   -4.890299   -2.364923
     28          6           0        4.747377   -3.397438   -2.081520
     29          6           0        5.617357   -6.547487   -0.808293
     30          6           0        3.169789   -5.247873   -3.163307
     31          6           0        1.972344   -4.556180   -2.551110
     32          7           0        5.221246   -0.460227   -1.866292
     33          6           0        5.158094   -1.179802   -3.068331
     34          6           0        5.426842   -0.224130   -4.158529
     35          6           0        5.645454    0.989544   -3.509646
     36          6           0        5.547060    0.798375   -2.101788
     37          6           0        5.502901   -0.539987   -5.543767
     38          6           0        5.963605    2.398325   -3.676897
     39          8           0        6.070256    3.154413   -4.643567
     40          6           0        6.321866    3.004117   -2.248440
     41          6           0        5.561716    4.293630   -2.097981
     42          8           0        4.316357    4.296503   -2.017739
     43          8           0        6.422368    5.288912   -1.834860
     44          6           0        5.729922    6.591457   -1.644989
     45          1           0        6.897185    0.054473    4.011508
     46          1           0        4.417248   -5.178262    1.687199
     47          1           0        4.821005   -2.856110   -4.133779
     48          1           0        7.526735    3.572055    0.598724
     49          1           0        7.146602    2.492211    3.174939
     50          1           0        9.160204    1.972536    1.020589
     51          1           0        8.837888    0.588118    2.109518
     52          1           0        9.411205    2.074448    2.811453
     53          1           0        5.076108    3.364272    2.360134
     54          1           0        4.869701    4.054699    0.700863
     55          1           0        7.035935    5.389766    1.970518
     56          1           0        5.940707    5.035302    3.252190
     57          1           0        6.065489   -0.828300    5.735415
     58          1           0        6.029142   -2.500921    6.144112
     59          1           0        4.503696   -1.582549    6.227337
     60          1           0        4.642980   -4.245473    6.371885
     61          1           0        3.132488   -5.297532    6.171733
     62          1           0        3.087679   -3.517497    6.060399
     63          1           0        3.614422   -5.939540   -0.609841
     64          1           0        5.263522   -5.252099   -2.992251
     65          1           0        5.222028   -7.525418   -0.532482
     66          1           0        6.390692   -6.227348   -0.110616
     67          1           0        6.192857   -6.679293   -1.724177
     68          1           0        2.980224   -6.319658   -3.115471
     69          1           0        3.226799   -4.967782   -4.215234
     70          1           0        1.689978   -5.228863   -1.742037
     71          1           0        1.169022   -4.467238   -3.283213
     72          1           0        2.250411   -3.603225   -2.100509
     73          1           0        4.961235    0.248225   -6.066538
     74          1           0        5.073503   -1.520007   -5.750599
     75          1           0        6.581631   -0.515873   -5.697442
     76          1           0        7.400047    3.160601   -2.235766
     77          1           0        6.170198    7.295035   -2.351650
     78          1           0        5.801820    6.828767   -0.583424
     79          1           0        4.681777    6.628248   -1.943948
     80         12           0       -5.226444    1.240613    0.418057
     81          6           0       -5.859947   -2.110615   -0.698635
     82          6           0       -4.236672    1.955446   -2.766902
     83          6           0       -4.235326    4.066624    1.466288
     84          6           0       -5.164949   -0.003747    3.672827
     85          7           0       -5.109124   -0.000866   -1.408750
     86          6           0       -5.434668   -1.244559   -1.727485
     87          6           0       -5.373356   -1.556188   -3.246923
     88          6           0       -4.326577   -0.419308   -3.683524
     89          6           0       -4.592338    0.596568   -2.574438
     90          6           0       -2.877334   -0.865783   -3.585042
     91          6           0       -6.760751   -1.361458   -3.953475
     92          6           0       -6.849816   -1.941755   -5.366659
     93          1           0       -8.116698   -2.523319   -5.801707
     94          7           0       -4.830389    2.912207   -0.575658
     95          6           0       -4.465532    3.022232   -1.870281
     96          6           0       -4.271313    4.460162   -2.112731
     97          6           0       -4.391030    5.175359   -0.813161
     98          6           0       -4.471315    4.052393    0.099303
     99          6           0       -4.080695    5.035324   -3.486158
    100          6           0       -4.414782    6.629307   -0.450324
    101          8           0       -4.286828    7.022746    0.762801
    102          6           0       -4.498476    7.582306   -1.566690
    103          7           0       -4.556622    1.901035    2.272118
    104          6           0       -4.237445    3.191773    2.472247
    105          6           0       -4.049209    3.485661    3.941461
    106          6           0       -4.547380    2.174180    4.709199
    107          6           0       -4.867924    1.276120    3.494246
    108          6           0       -2.621901    3.818062    4.375852
    109          6           0       -5.641362    2.367080    5.794862
    110          6           0       -6.940783    2.790494    5.148647
    111          7           0       -5.645620   -0.654709    1.366790
    112          6           0       -5.531558   -0.965090    2.739649
    113          6           0       -5.812522   -2.408171    2.884566
    114          6           0       -6.049852   -2.845405    1.572698
    115          6           0       -5.905731   -1.756190    0.671411
    116          6           0       -5.777947   -3.144208    4.102422
    117          6           0       -6.379091   -3.982933    0.744253
    118          8           0       -6.700473   -5.150784    0.960092
    119          6           0       -6.146583   -3.584507   -0.776801
    120          6           0       -7.352632   -4.023066   -1.561407
    121          8           0       -8.462965   -3.501093   -1.358132
    122          8           0       -6.956710   -4.825708   -2.566093
    123          6           0       -8.116617   -5.277853   -3.379721
    124          1           0       -3.692633    2.226135   -3.672239
    125          1           0       -3.998294    5.043668    1.893699
    126          1           0       -5.261748   -0.447486    4.665996
    127          1           0       -4.982790   -2.536012   -3.494276
    128          1           0       -4.580635    0.000013   -4.653566
    129          1           0       -2.785688   -1.837807   -3.123623
    130          1           0       -2.378076   -0.114567   -2.987157
    131          1           0       -2.404115   -0.830121   -4.570499
    132          1           0       -6.901642   -0.296439   -4.178478
    133          1           0       -7.554523   -1.756687   -3.349866
    134          1           0       -6.018826   -2.623302   -5.585513
    135          1           0       -6.724886   -1.127558   -6.084631
    136          1           0       -3.871351    4.251825   -4.224874
    137          1           0       -3.163721    5.633841   -3.457736
    138          1           0       -4.910745    5.674833   -3.793918
    139          1           0       -3.652297    7.433029   -2.233146
    140          1           0       -4.594174    8.566570   -1.104148
    141          1           0       -5.400218    7.361214   -2.148572
    142          1           0       -4.659393    4.326004    4.249030
    143          1           0       -3.726847    1.684601    5.254066
    144          1           0       -2.536122    4.799910    4.878525
    145          1           0       -1.982199    3.779978    3.504139
    146          1           0       -2.157680    3.086666    5.035211
    147          1           0       -5.358495    3.170979    6.478888
    148          1           0       -5.815621    1.480128    6.394830
    149          1           0       -6.816559    3.870985    5.029519
    150          1           0       -7.783959    2.559175    5.796407
    151          1           0       -7.041285    2.357762    4.146504
    152          1           0       -6.646509   -3.789262    4.101113
    153          1           0       -5.774047   -2.483116    4.966541
    154          1           0       -4.827497   -3.671512    3.984704
    155          1           0       -5.236740   -4.084539   -1.111034
    156          1           0       -8.090931   -6.371869   -3.392387
    157          1           0       -8.018942   -4.760412   -4.352583
    158          1           0       -9.108571   -5.094161   -2.983811
 ---------------------------------------------------------------------
 Rotational constants (GHZ):           0.0206864           0.0112491           0.0101580
 Leave Link  202 at Sat Sep  4 01:16:32 2021, MaxMem= 23488102400 cpu:               0.2 elap:               0.0
 (Enter /sw/apps/gaussian-16.0/g16/l301.exe)
 Standard basis: def2SVP (5D, 7F)
 Ernie: Thresh=  0.10000D-02 Tol=  0.10000D-05 Strict=F.
 There are  1658 symmetry adapted cartesian basis functions of A   symmetry.
 There are  1572 symmetry adapted basis functions of A   symmetry.
  1572 basis functions,  2678 primitive gaussians,  1658 cartesian basis functions
   312 alpha electrons      312 beta electrons
       nuclear repulsion energy     14930.2383775205 Hartrees.
 IExCor=20419 DFT=T Ex+Corr=CAM-B3LYP ExCW=0 ScaHFX=  1.000000
 ScaDFX=  1.000000  1.000000  1.000000  0.810000 ScalE2=  1.000000  1.000000
 IRadAn=      5 IRanWt=     -1 IRanGd=            0 ICorTp=0 IEmpDi=  4
 HFx  wShort=  0.000000 wLong=  0.330000 cFull=  0.190000 cShort=  0.000000 cLong=  0.460000
 DFx  wShort=  0.000000 wLong=  0.330000 cFull=  0.190000 cShort=  0.000000 cLong=  0.460000
 NAtoms=  158 NActive=  158 NUniq=  158 SFac= 1.00D+00 NAtFMM=   60 NAOKFM=T Big=T
 Integral buffers will be    131072 words long.
 Raffenetti 1 integral format.
 Two-electron integral symmetry is turned on.
 Leave Link  301 at Sat Sep  4 01:16:32 2021, MaxMem= 23488102400 cpu:               1.3 elap:               0.1
 (Enter /sw/apps/gaussian-16.0/g16/l302.exe)
 NPDir=0 NMtPBC=     1 NCelOv=     1 NCel=       1 NClECP=     1 NCelD=      1
         NCelK=      1 NCelE2=     1 NClLst=     1 CellRange=     0.0.
 One-electron integrals computed using PRISM.
 One-electron integral symmetry used in STVInt
   1 Symmetry operations used in ECPInt.
 ECPInt:  NShTT=  271216 NPrTT=  987664 LenC2=  137549 LenP2D=  287059.
 LDataN:  DoStor=T MaxTD1= 4 Len=   56
 NBasis=  1572 RedAO= T EigKep=  3.36D-04  NBF=  1572
 NBsUse=  1572 1.00D-06 EigRej= -1.00D+00 NBFU=  1572
 Precomputing XC quadrature grid using
 IXCGrd= 4 IRadAn=           5 IRanWt=          -1 IRanGd=           0 AccXCQ= 0.00D+00.
 Generated NRdTot=       0 NPtTot=           0 NUsed=           0 NTot=          32
 NSgBfM=  1137  1115  1122  1135  1137 MxSgAt=   158 MxSgA2=   158.
 Leave Link  302 at Sat Sep  4 01:16:38 2021, MaxMem= 23488102400 cpu:             124.8 elap:               5.2
 (Enter /sw/apps/gaussian-16.0/g16/l303.exe)
 DipDrv:  MaxL=1.
 Leave Link  303 at Sat Sep  4 01:16:38 2021, MaxMem= 23488102400 cpu:               9.5 elap:               0.4
 (Enter /sw/apps/gaussian-16.0/g16/l308.exe)
 Leave Link  308 at Sat Sep  4 01:16:39 2021, MaxMem= 23488102400 cpu:              14.7 elap:               0.7
 (Enter /sw/apps/gaussian-16.0/g16/l401.exe)
 ExpMin= 3.36D-02 ExpMax= 4.95D+03 ExpMxC= 7.45D+02 IAcc=3 IRadAn=         5 AccDes= 0.00D+00
 Harris functional with IExCor=20419 and IRadAn=       5 diagonalized for initial guess.
 HarFok:  IExCor=20419 AccDes= 0.00D+00 IRadAn=         5 IDoV= 1 UseB2=F ITyADJ=14
 ICtDFT=  3500011 ScaDFX=  1.000000  1.000000  1.000000  1.000000
 FoFCou: FMM=F IPFlag=           0 FMFlag=      100000 FMFlg1=        2001
         NFxFlg=           0 DoJE=T BraDBF=F KetDBF=T FulRan=T
         wScrn=  0.000000 ICntrl=       500 IOpCl=  0 I1Cent=   200000004 NGrid=           0
         NMat0=    1 NMatS0=      1 NMatT0=    0 NMatD0=    1 NMtDS0=    0 NMtDT0=    0
 Petite list used in FoFCou.
 Harris En= -3918.65800320439    
 JPrj=0 DoOrth=F DoCkMO=F.
 Leave Link  401 at Sat Sep  4 01:16:46 2021, MaxMem= 23488102400 cpu:             178.4 elap:               7.5
 (Enter /sw/apps/gaussian-16.0/g16/l502.exe)
 Integral symmetry usage will be decided dynamically.
 Closed shell SCF:
 Using DIIS extrapolation, IDIIS=  1040.
 NGot= 23488102400 LenX= 23482547354 LenY= 23479796732
 Requested convergence on RMS density matrix=1.00D-08 within 128 cycles.
 Requested convergence on MAX density matrix=1.00D-06.
 Requested convergence on             energy=1.00D-06.
 No special actions if energy rises.
 Fock matrices will be formed incrementally for  20 cycles.

 Cycle   1  Pass 1  IDiag  1:
 FoFJK:  IHMeth= 1 ICntrl=       0 DoSepK=T KAlg= 0 I1Cent=           0 FoldK=F
 IRaf=         1 NMat=       1 IRICut=       1 DoRegI=T DoRafI=F ISym2E= 0 IDoP0=0 IntGTp=1.
 FoFCou: FMM=T IPFlag=           0 FMFlag=      100000 FMFlg1=        2001
         NFxFlg=           0 DoJE=T BraDBF=F KetDBF=F FulRan=T
         wScrn=  0.000000 ICntrl=       500 IOpCl=  0 I1Cent=           0 NGrid=           0
         NMat0=    1 NMatS0=      1 NMatT0=    0 NMatD0=    1 NMtDS0=    0 NMtDT0=    0
 Symmetry not used in FoFCou.
 FMM levels:  10  Number of levels for PrismC:   9
 E= -4068.95026220042    
 DIIS: error= 2.04D-02 at cycle   1 NSaved=   1.
 NSaved= 1 IEnMin= 1 EnMin= -4068.95026220042     IErMin= 1 ErrMin= 2.04D-02
 ErrMax= 2.04D-02  0.00D+00 EMaxC= 1.00D-01 BMatC= 1.69D+00 BMatP= 1.69D+00
 IDIUse=3 WtCom= 7.96D-01 WtEn= 2.04D-01
 Coeff-Com:  0.100D+01
 Coeff-En:   0.100D+01
 Coeff:      0.100D+01
 Gap=     0.120 Goal=   None    Shift=    0.000
 GapD=    0.120 DampG=1.000 DampE=0.500 DampFc=0.5000 IDamp=-1.
 Damping current iteration by 5.00D-01
 RMSDP=1.57D-03 MaxDP=1.35D-01              OVMax= 1.96D-01

 Cycle   2  Pass 1  IDiag  1:
 RMSU=  7.68D-04    CP:  9.82D-01
 E= -4069.33930916305     Delta-E=       -0.389046962635 Rises=F Damp=T
 DIIS: error= 1.27D-02 at cycle   2 NSaved=   2.
 NSaved= 2 IEnMin= 2 EnMin= -4069.33930916305     IErMin= 2 ErrMin= 1.27D-02
 ErrMax= 1.27D-02  0.00D+00 EMaxC= 1.00D-01 BMatC= 3.06D-01 BMatP= 1.69D+00
 IDIUse=3 WtCom= 8.73D-01 WtEn= 1.27D-01
 Coeff-Com: -0.214D+00 0.121D+01
 Coeff-En:   0.000D+00 0.100D+01
 Coeff:     -0.187D+00 0.119D+01
 Gap=     0.134 Goal=   None    Shift=    0.000
 RMSDP=7.62D-04 MaxDP=9.47D-02 DE=-3.89D-01 OVMax= 1.82D-01

 Cycle   3  Pass 1  IDiag  1:
 RMSU=  7.29D-04    CP:  9.68D-01  1.24D+00
 E= -4069.63081417262     Delta-E=       -0.291505009565 Rises=F Damp=F
 DIIS: error= 1.56D-02 at cycle   3 NSaved=   3.
 NSaved= 3 IEnMin= 3 EnMin= -4069.63081417262     IErMin= 2 ErrMin= 1.27D-02
 ErrMax= 1.56D-02  0.00D+00 EMaxC= 1.00D-01 BMatC= 2.00D-01 BMatP= 3.06D-01
 IDIUse=3 WtCom= 8.44D-01 WtEn= 1.56D-01
 Coeff-Com: -0.267D+00 0.650D+00 0.617D+00
 Coeff-En:   0.000D+00 0.000D+00 0.100D+01
 Coeff:     -0.225D+00 0.549D+00 0.677D+00
 Gap=     0.121 Goal=   None    Shift=    0.000
 RMSDP=5.01D-04 MaxDP=4.69D-02 DE=-2.92D-01 OVMax= 1.32D-01

 Cycle   4  Pass 1  IDiag  1:
 RMSU=  2.62D-04    CP:  9.65D-01  1.55D+00  5.11D-01
 E= -4069.76734776287     Delta-E=       -0.136533590252 Rises=F Damp=F
 DIIS: error= 7.19D-03 at cycle   4 NSaved=   4.
 NSaved= 4 IEnMin= 4 EnMin= -4069.76734776287     IErMin= 4 ErrMin= 7.19D-03
 ErrMax= 7.19D-03  0.00D+00 EMaxC= 1.00D-01 BMatC= 4.89D-02 BMatP= 2.00D-01
 IDIUse=3 WtCom= 9.28D-01 WtEn= 7.19D-02
 Coeff-Com: -0.108D+00 0.224D+00 0.407D+00 0.477D+00
 Coeff-En:   0.000D+00 0.000D+00 0.214D+00 0.786D+00
 Coeff:     -0.100D+00 0.208D+00 0.393D+00 0.499D+00
 Gap=     0.121 Goal=   None    Shift=    0.000
 RMSDP=1.93D-04 MaxDP=2.05D-02 DE=-1.37D-01 OVMax= 5.42D-02

 Cycle   5  Pass 1  IDiag  1:
 RMSU=  7.29D-05    CP:  9.64D-01  1.49D+00  6.90D-01  5.59D-01
 E= -4069.81091580707     Delta-E=       -0.043568044199 Rises=F Damp=F
 DIIS: error= 8.14D-04 at cycle   5 NSaved=   5.
 NSaved= 5 IEnMin= 5 EnMin= -4069.81091580707     IErMin= 5 ErrMin= 8.14D-04
 ErrMax= 8.14D-04  0.00D+00 EMaxC= 1.00D-01 BMatC= 1.03D-03 BMatP= 4.89D-02
 IDIUse=3 WtCom= 9.92D-01 WtEn= 8.14D-03
 Coeff-Com: -0.340D-01 0.665D-01 0.158D+00 0.243D+00 0.566D+00
 Coeff-En:   0.000D+00 0.000D+00 0.000D+00 0.000D+00 0.100D+01
 Coeff:     -0.337D-01 0.660D-01 0.157D+00 0.241D+00 0.570D+00
 Gap=     0.120 Goal=   None    Shift=    0.000
 RMSDP=3.72D-05 MaxDP=4.05D-03 DE=-4.36D-02 OVMax= 1.29D-02

 Cycle   6  Pass 1  IDiag  1:
 RMSU=  2.85D-05    CP:  9.64D-01  1.50D+00  6.83D-01  6.26D-01  7.89D-01
 E= -4069.81176886265     Delta-E=       -0.000853055579 Rises=F Damp=F
 DIIS: error= 2.49D-04 at cycle   6 NSaved=   6.
 NSaved= 6 IEnMin= 6 EnMin= -4069.81176886265     IErMin= 6 ErrMin= 2.49D-04
 ErrMax= 2.49D-04  0.00D+00 EMaxC= 1.00D-01 BMatC= 1.57D-04 BMatP= 1.03D-03
 IDIUse=3 WtCom= 9.98D-01 WtEn= 2.49D-03
 Coeff-Com:  0.264D-02-0.737D-02 0.888D-02 0.369D-01 0.308D+00 0.651D+00
 Coeff-En:   0.000D+00 0.000D+00 0.000D+00 0.000D+00 0.883D-01 0.912D+00
 Coeff:      0.263D-02-0.735D-02 0.885D-02 0.368D-01 0.308D+00 0.651D+00
 Gap=     0.121 Goal=   None    Shift=    0.000
 RMSDP=1.42D-05 MaxDP=1.25D-03 DE=-8.53D-04 OVMax= 6.09D-03

 Cycle   7  Pass 1  IDiag  1:
 RMSU=  9.80D-06    CP:  9.64D-01  1.50D+00  6.89D-01  6.27D-01  8.78D-01
                    CP:  7.64D-01
 E= -4069.81193088111     Delta-E=       -0.000162018463 Rises=F Damp=F
 DIIS: error= 7.15D-05 at cycle   7 NSaved=   7.
 NSaved= 7 IEnMin= 7 EnMin= -4069.81193088111     IErMin= 7 ErrMin= 7.15D-05
 ErrMax= 7.15D-05  0.00D+00 EMaxC= 1.00D-01 BMatC= 1.62D-05 BMatP= 1.57D-04
 IDIUse=1 WtCom= 1.00D+00 WtEn= 0.00D+00
 Coeff-Com:  0.432D-02-0.937D-02-0.927D-02-0.525D-02 0.930D-01 0.312D+00
 Coeff-Com:  0.614D+00
 Coeff:      0.432D-02-0.937D-02-0.927D-02-0.525D-02 0.930D-01 0.312D+00
 Coeff:      0.614D+00
 Gap=     0.121 Goal=   None    Shift=    0.000
 RMSDP=6.10D-06 MaxDP=1.12D-03 DE=-1.62D-04 OVMax= 3.03D-03

 Cycle   8  Pass 1  IDiag  1:
 RMSU=  4.44D-06    CP:  9.64D-01  1.50D+00  6.89D-01  6.31D-01  8.87D-01
                    CP:  8.92D-01  8.59D-01
 E= -4069.81195096678     Delta-E=       -0.000020085667 Rises=F Damp=F
 DIIS: error= 4.20D-05 at cycle   8 NSaved=   8.
 NSaved= 8 IEnMin= 8 EnMin= -4069.81195096678     IErMin= 8 ErrMin= 4.20D-05
 ErrMax= 4.20D-05  0.00D+00 EMaxC= 1.00D-01 BMatC= 4.25D-06 BMatP= 1.62D-05
 IDIUse=1 WtCom= 1.00D+00 WtEn= 0.00D+00
 Coeff-Com:  0.204D-02-0.402D-02-0.751D-02-0.121D-01-0.155D-01 0.313D-01
 Coeff-Com:  0.363D+00 0.643D+00
 Coeff:      0.204D-02-0.402D-02-0.751D-02-0.121D-01-0.155D-01 0.313D-01
 Coeff:      0.363D+00 0.643D+00
 Gap=     0.121 Goal=   None    Shift=    0.000
 RMSDP=3.08D-06 MaxDP=2.86D-04 DE=-2.01D-05 OVMax= 1.25D-03

 Cycle   9  Pass 1  IDiag  1:
 RMSU=  1.84D-06    CP:  9.64D-01  1.50D+00  6.90D-01  6.32D-01  9.03D-01
                    CP:  9.16D-01  1.06D+00  9.05D-01
 E= -4069.81195776523     Delta-E=       -0.000006798458 Rises=F Damp=F
 DIIS: error= 2.02D-05 at cycle   9 NSaved=   9.
 NSaved= 9 IEnMin= 9 EnMin= -4069.81195776523     IErMin= 9 ErrMin= 2.02D-05
 ErrMax= 2.02D-05  0.00D+00 EMaxC= 1.00D-01 BMatC= 6.21D-07 BMatP= 4.25D-06
 IDIUse=1 WtCom= 1.00D+00 WtEn= 0.00D+00
 Coeff-Com:  0.445D-03-0.738D-03-0.257D-02-0.584D-02-0.223D-01-0.354D-01
 Coeff-Com:  0.112D+00 0.327D+00 0.627D+00
 Coeff:      0.445D-03-0.738D-03-0.257D-02-0.584D-02-0.223D-01-0.354D-01
 Coeff:      0.112D+00 0.327D+00 0.627D+00
 Gap=     0.121 Goal=   None    Shift=    0.000
 RMSDP=1.36D-06 MaxDP=1.50D-04 DE=-6.80D-06 OVMax= 7.62D-04

 Cycle  10  Pass 1  IDiag  1:
 RMSU=  9.12D-07    CP:  9.64D-01  1.50D+00  6.90D-01  6.33D-01  9.06D-01
                    CP:  9.31D-01  1.10D+00  1.08D+00  1.02D+00
 E= -4069.81195918791     Delta-E=       -0.000001422675 Rises=F Damp=F
 DIIS: error= 1.11D-05 at cycle  10 NSaved=  10.
 NSaved=10 IEnMin=10 EnMin= -4069.81195918791     IErMin=10 ErrMin= 1.11D-05
 ErrMax= 1.11D-05  0.00D+00 EMaxC= 1.00D-01 BMatC= 1.65D-07 BMatP= 6.21D-07
 IDIUse=1 WtCom= 1.00D+00 WtEn= 0.00D+00
 Coeff-Com: -0.420D-03 0.878D-03 0.122D-02 0.115D-02-0.409D-02-0.301D-01
 Coeff-Com: -0.516D-01-0.722D-01 0.283D+00 0.872D+00
 Coeff:     -0.420D-03 0.878D-03 0.122D-02 0.115D-02-0.409D-02-0.301D-01
 Coeff:     -0.516D-01-0.722D-01 0.283D+00 0.872D+00
 Gap=     0.121 Goal=   None    Shift=    0.000
 RMSDP=1.16D-06 MaxDP=1.23D-04 DE=-1.42D-06 OVMax= 5.70D-04

 Cycle  11  Pass 1  IDiag  1:
 RMSU=  4.84D-07    CP:  9.64D-01  1.50D+00  6.90D-01  6.33D-01  9.08D-01
                    CP:  9.41D-01  1.15D+00  1.18D+00  1.35D+00  1.34D+00
 E= -4069.81195990162     Delta-E=       -0.000000713706 Rises=F Damp=F
 DIIS: error= 3.74D-06 at cycle  11 NSaved=  11.
 NSaved=11 IEnMin=11 EnMin= -4069.81195990162     IErMin=11 ErrMin= 3.74D-06
 ErrMax= 3.74D-06  0.00D+00 EMaxC= 1.00D-01 BMatC= 5.03D-08 BMatP= 1.65D-07
 IDIUse=1 WtCom= 1.00D+00 WtEn= 0.00D+00
 Coeff-Com: -0.312D-03 0.606D-03 0.127D-02 0.208D-02 0.434D-02-0.799D-02
 Coeff-Com: -0.476D-01-0.130D+00-0.179D-03 0.432D+00 0.745D+00
 Coeff:     -0.312D-03 0.606D-03 0.127D-02 0.208D-02 0.434D-02-0.799D-02
 Coeff:     -0.476D-01-0.130D+00-0.179D-03 0.432D+00 0.745D+00
 Gap=     0.121 Goal=   None    Shift=    0.000
 RMSDP=6.41D-07 MaxDP=4.83D-05 DE=-7.14D-07 OVMax= 3.37D-04

 Cycle  12  Pass 1  IDiag  1:
 RMSU=  2.48D-07    CP:  9.64D-01  1.50D+00  6.90D-01  6.33D-01  9.09D-01
                    CP:  9.44D-01  1.18D+00  1.25D+00  1.52D+00  1.71D+00
                    CP:  1.22D+00
 E= -4069.81196013119     Delta-E=       -0.000000229578 Rises=F Damp=F
 DIIS: error= 2.43D-06 at cycle  12 NSaved=  12.
 NSaved=12 IEnMin=12 EnMin= -4069.81196013119     IErMin=12 ErrMin= 2.43D-06
 ErrMax= 2.43D-06  0.00D+00 EMaxC= 1.00D-01 BMatC= 1.22D-08 BMatP= 5.03D-08
 IDIUse=1 WtCom= 1.00D+00 WtEn= 0.00D+00
 Coeff-Com:  0.122D-04-0.397D-04 0.122D-03 0.424D-03 0.303D-02 0.438D-02
 Coeff-Com:  0.397D-02-0.321D-01-0.613D-01-0.103D+00 0.238D+00 0.946D+00
 Coeff:      0.122D-04-0.397D-04 0.122D-03 0.424D-03 0.303D-02 0.438D-02
 Coeff:      0.397D-02-0.321D-01-0.613D-01-0.103D+00 0.238D+00 0.946D+00
 Gap=     0.121 Goal=   None    Shift=    0.000
 RMSDP=4.21D-07 MaxDP=2.70D-05 DE=-2.30D-07 OVMax= 2.37D-04

 Cycle  13  Pass 1  IDiag  1:
 RMSU=  1.56D-07    CP:  9.64D-01  1.50D+00  6.90D-01  6.33D-01  9.09D-01
                    CP:  9.44D-01  1.18D+00  1.27D+00  1.63D+00  1.93D+00
                    CP:  1.63D+00  1.31D+00
 E= -4069.81196021373     Delta-E=       -0.000000082538 Rises=F Damp=F
 DIIS: error= 1.45D-06 at cycle  13 NSaved=  13.
 NSaved=13 IEnMin=13 EnMin= -4069.81196021373     IErMin=13 ErrMin= 1.45D-06
 ErrMax= 1.45D-06  0.00D+00 EMaxC= 1.00D-01 BMatC= 6.96D-09 BMatP= 1.22D-08
 IDIUse=1 WtCom= 1.00D+00 WtEn= 0.00D+00
 Coeff-Com:  0.117D-03-0.239D-03-0.365D-03-0.459D-03 0.446D-03 0.512D-02
 Coeff-Com:  0.209D-01 0.211D-01-0.367D-01-0.240D+00-0.148D+00 0.614D+00
 Coeff-Com:  0.764D+00
 Coeff:      0.117D-03-0.239D-03-0.365D-03-0.459D-03 0.446D-03 0.512D-02
 Coeff:      0.209D-01 0.211D-01-0.367D-01-0.240D+00-0.148D+00 0.614D+00
 Coeff:      0.764D+00
 Gap=     0.121 Goal=   None    Shift=    0.000
 RMSDP=3.06D-07 MaxDP=1.79D-05 DE=-8.25D-08 OVMax= 1.64D-04

 Cycle  14  Pass 1  IDiag  1:
 RMSU=  7.32D-08    CP:  9.64D-01  1.50D+00  6.90D-01  6.33D-01  9.10D-01
                    CP:  9.45D-01  1.19D+00  1.29D+00  1.70D+00  2.11D+00
                    CP:  1.89D+00  1.81D+00  1.06D+00
 E= -4069.81196024380     Delta-E=       -0.000000030064 Rises=F Damp=F
 DIIS: error= 7.84D-07 at cycle  14 NSaved=  14.
 NSaved=14 IEnMin=14 EnMin= -4069.81196024380     IErMin=14 ErrMin= 7.84D-07
 ErrMax= 7.84D-07  0.00D+00 EMaxC= 1.00D-01 BMatC= 1.11D-09 BMatP= 6.96D-09
 IDIUse=1 WtCom= 1.00D+00 WtEn= 0.00D+00
 Coeff-Com:  0.643D-04-0.127D-03-0.238D-03-0.378D-03-0.517D-03 0.139D-02
 Coeff-Com:  0.116D-01 0.182D-01 0.132D-02-0.978D-01-0.138D+00 0.109D+00
 Coeff-Com:  0.399D+00 0.697D+00
 Coeff:      0.643D-04-0.127D-03-0.238D-03-0.378D-03-0.517D-03 0.139D-02
 Coeff:      0.116D-01 0.182D-01 0.132D-02-0.978D-01-0.138D+00 0.109D+00
 Coeff:      0.399D+00 0.697D+00
 Gap=     0.121 Goal=   None    Shift=    0.000
 RMSDP=9.31D-08 MaxDP=5.81D-06 DE=-3.01D-08 OVMax= 5.97D-05

 Cycle  15  Pass 1  IDiag  1:
 RMSU=  3.81D-08    CP:  9.64D-01  1.50D+00  6.90D-01  6.33D-01  9.09D-01
                    CP:  9.44D-01  1.19D+00  1.30D+00  1.71D+00  2.15D+00
                    CP:  1.99D+00  1.95D+00  1.30D+00  9.82D-01
 E= -4069.81196024709     Delta-E=       -0.000000003292 Rises=F Damp=F
 DIIS: error= 4.61D-07 at cycle  15 NSaved=  15.
 NSaved=15 IEnMin=15 EnMin= -4069.81196024709     IErMin=15 ErrMin= 4.61D-07
 ErrMax= 4.61D-07  0.00D+00 EMaxC= 1.00D-01 BMatC= 2.63D-10 BMatP= 1.11D-09
 IDIUse=1 WtCom= 1.00D+00 WtEn= 0.00D+00
 Coeff-Com:  0.758D-05-0.133D-04-0.403D-04-0.936D-04-0.331D-03-0.420D-03
 Coeff-Com:  0.168D-02 0.325D-02 0.893D-02-0.185D-02-0.376D-01-0.668D-01
 Coeff-Com:  0.345D-01 0.343D+00 0.716D+00
 Coeff:      0.758D-05-0.133D-04-0.403D-04-0.936D-04-0.331D-03-0.420D-03
 Coeff:      0.168D-02 0.325D-02 0.893D-02-0.185D-02-0.376D-01-0.668D-01
 Coeff:      0.345D-01 0.343D+00 0.716D+00
 Gap=     0.121 Goal=   None    Shift=    0.000
 RMSDP=4.10D-08 MaxDP=2.41D-06 DE=-3.29D-09 OVMax= 2.48D-05

 Cycle  16  Pass 1  IDiag  1:
 RMSU=  1.86D-08    CP:  9.64D-01  1.50D+00  6.90D-01  6.33D-01  9.10D-01
                    CP:  9.44D-01  1.19D+00  1.30D+00  1.71D+00  2.16D+00
                    CP:  2.02D+00  2.02D+00  1.37D+00  1.22D+00  1.10D+00
 E= -4069.81196024832     Delta-E=       -0.000000001233 Rises=F Damp=F
 DIIS: error= 2.34D-07 at cycle  16 NSaved=  16.
 NSaved=16 IEnMin=16 EnMin= -4069.81196024832     IErMin=16 ErrMin= 2.34D-07
 ErrMax= 2.34D-07  0.00D+00 EMaxC= 1.00D-01 BMatC= 7.82D-11 BMatP= 2.63D-10
 IDIUse=1 WtCom= 1.00D+00 WtEn= 0.00D+00
 Coeff-Com: -0.134D-04 0.272D-04 0.442D-04 0.497D-04-0.359D-04-0.635D-03
 Coeff-Com: -0.207D-02-0.394D-02 0.566D-02 0.246D-01 0.175D-01-0.662D-01
 Coeff-Com: -0.893D-01 0.292D-02 0.381D+00 0.730D+00
 Coeff:     -0.134D-04 0.272D-04 0.442D-04 0.497D-04-0.359D-04-0.635D-03
 Coeff:     -0.207D-02-0.394D-02 0.566D-02 0.246D-01 0.175D-01-0.662D-01
 Coeff:     -0.893D-01 0.292D-02 0.381D+00 0.730D+00
 Gap=     0.121 Goal=   None    Shift=    0.000
 RMSDP=2.28D-08 MaxDP=1.55D-06 DE=-1.23D-09 OVMax= 1.67D-05

 Cycle  17  Pass 1  IDiag  1:
 RMSU=  1.16D-08    CP:  9.64D-01  1.50D+00  6.90D-01  6.33D-01  9.10D-01
                    CP:  9.45D-01  1.19D+00  1.30D+00  1.72D+00  2.17D+00
                    CP:  2.03D+00  2.04D+00  1.42D+00  1.31D+00  1.40D+00
                    CP:  1.16D+00
 E= -4069.81196024832     Delta-E=        0.000000000000 Rises=F Damp=F
 DIIS: error= 1.12D-07 at cycle  17 NSaved=  17.
 NSaved=17 IEnMin=16 EnMin= -4069.81196024832     IErMin=17 ErrMin= 1.12D-07
 ErrMax= 1.12D-07  0.00D+00 EMaxC= 1.00D-01 BMatC= 2.36D-11 BMatP= 7.82D-11
 IDIUse=1 WtCom= 1.00D+00 WtEn= 0.00D+00
 Coeff-Com: -0.876D-05 0.172D-04 0.337D-04 0.491D-04 0.806D-04-0.206D-03
 Coeff-Com: -0.137D-02-0.323D-02 0.125D-02 0.123D-01 0.198D-01-0.152D-01
 Coeff-Com: -0.538D-01-0.938D-01-0.164D-01 0.382D+00 0.769D+00
 Coeff:     -0.876D-05 0.172D-04 0.337D-04 0.491D-04 0.806D-04-0.206D-03
 Coeff:     -0.137D-02-0.323D-02 0.125D-02 0.123D-01 0.198D-01-0.152D-01
 Coeff:     -0.538D-01-0.938D-01-0.164D-01 0.382D+00 0.769D+00
 Gap=     0.121 Goal=   None    Shift=    0.000
 RMSDP=1.39D-08 MaxDP=8.58D-07 DE= 0.00D+00 OVMax= 8.47D-06

 Cycle  18  Pass 1  IDiag  1:
 RMSU=  5.54D-09    CP:  9.64D-01  1.50D+00  6.90D-01  6.33D-01  9.09D-01
                    CP:  9.45D-01  1.19D+00  1.30D+00  1.72D+00  2.17D+00
                    CP:  2.04D+00  2.05D+00  1.44D+00  1.38D+00  1.57D+00
                    CP:  1.57D+00  1.27D+00
 E= -4069.81196024851     Delta-E=       -0.000000000189 Rises=F Damp=F
 DIIS: error= 7.41D-08 at cycle  18 NSaved=  18.
 NSaved=18 IEnMin=18 EnMin= -4069.81196024851     IErMin=18 ErrMin= 7.41D-08
 ErrMax= 7.41D-08  0.00D+00 EMaxC= 1.00D-01 BMatC= 7.39D-12 BMatP= 2.36D-11
 IDIUse=1 WtCom= 1.00D+00 WtEn= 0.00D+00
 Coeff-Com:  0.256D-06-0.864D-06 0.206D-05 0.750D-05 0.684D-04 0.133D-03
 Coeff-Com:  0.126D-03-0.460D-03-0.106D-02-0.352D-02 0.406D-02 0.174D-01
 Coeff-Com:  0.653D-02-0.489D-01-0.155D+00-0.651D-01 0.373D+00 0.873D+00
 Coeff:      0.256D-06-0.864D-06 0.206D-05 0.750D-05 0.684D-04 0.133D-03
 Coeff:      0.126D-03-0.460D-03-0.106D-02-0.352D-02 0.406D-02 0.174D-01
 Coeff:      0.653D-02-0.489D-01-0.155D+00-0.651D-01 0.373D+00 0.873D+00
 Gap=     0.121 Goal=   None    Shift=    0.000
 RMSDP=1.05D-08 MaxDP=8.74D-07 DE=-1.89D-10 OVMax= 7.08D-06

 Cycle  19  Pass 1  IDiag  1:
 RMSU=  3.26D-09    CP:  9.64D-01  1.50D+00  6.90D-01  6.33D-01  9.09D-01
                    CP:  9.45D-01  1.19D+00  1.30D+00  1.72D+00  2.17D+00
                    CP:  2.04D+00  2.06D+00  1.45D+00  1.42D+00  1.70D+00
                    CP:  1.84D+00  1.76D+00  1.17D+00
 E= -4069.81196024835     Delta-E=        0.000000000164 Rises=F Damp=F
 DIIS: error= 3.52D-08 at cycle  19 NSaved=  19.
 NSaved=19 IEnMin=18 EnMin= -4069.81196024851     IErMin=19 ErrMin= 3.52D-08
 ErrMax= 3.52D-08  0.00D+00 EMaxC= 1.00D-01 BMatC= 3.04D-12 BMatP= 7.39D-12
 IDIUse=1 WtCom= 1.00D+00 WtEn= 0.00D+00
 Coeff-Com:  0.343D-05-0.696D-05-0.114D-04-0.138D-04 0.186D-04 0.162D-03
 Coeff-Com:  0.623D-03 0.871D-03-0.102D-02-0.730D-02-0.488D-02 0.172D-01
 Coeff-Com:  0.250D-01 0.399D-02-0.101D+00-0.197D+00-0.711D-01 0.569D+00
 Coeff-Com:  0.765D+00
 Coeff:      0.343D-05-0.696D-05-0.114D-04-0.138D-04 0.186D-04 0.162D-03
 Coeff:      0.623D-03 0.871D-03-0.102D-02-0.730D-02-0.488D-02 0.172D-01
 Coeff:      0.250D-01 0.399D-02-0.101D+00-0.197D+00-0.711D-01 0.569D+00
 Coeff:      0.765D+00
 Gap=     0.121 Goal=   None    Shift=    0.000
 RMSDP=7.17D-09 MaxDP=4.31D-07 DE= 1.64D-10 OVMax= 4.02D-06

 SCF Done:  E(RCAM-B3LYP) =  -4069.81196025     A.U. after   19 cycles
            NFock= 19  Conv=0.72D-08     -V/T= 2.0102
 KE= 4.028801243465D+03 PE=-3.934151688193D+04 EE= 1.631266530070D+04
 Leave Link  502 at Sat Sep  4 01:26:34 2021, MaxMem= 23488102400 cpu:           13499.6 elap:             587.8
 (Enter /sw/apps/gaussian-16.0/g16/l801.exe)
 DoSCS=F DFT=T ScalE2(SS,OS)=  1.000000  1.000000
 ExpMin= 3.36D-02 ExpMax= 4.95D+03 ExpMxC= 7.45D+02 IAcc=3 IRadAn=         5 AccDes= 0.00D+00
 HarFok:  IExCor=  205 AccDes= 0.00D+00 IRadAn=         5 IDoV=-2 UseB2=F ITyADJ=14
 ICtDFT= 12500011 ScaDFX=  1.000000  1.000000  1.000000  1.000000
 GSVD:  LWork=       -9588 too small for GESVD, short by       45590 words or       45590 for optimal perf.
 Largest valence mixing into a core orbital is  2.03D-04
 Largest core mixing into a valence orbital is  5.23D-05
 Range of M.O.s used for correlation:    95  1572
 NBasis=  1572 NAE=   312 NBE=   312 NFC=    94 NFV=     0
 NROrb=   1478 NOA=   218 NOB=   218 NVA=  1260 NVB=  1260
 Leave Link  801 at Sat Sep  4 01:26:34 2021, MaxMem= 23488102400 cpu:               8.3 elap:               0.4
 (Enter /sw/apps/gaussian-16.0/g16/l914.exe)
 RHF ground state
 Two-electron integrals replicated using symmetry.
 MDV= 23488102400 DFT=T DoStab=F Mixed=T DoRPA=T DoScal=F NonHer=T
 Making orbital integer symmetry assigments:
 Orbital symmetries:
       Occupied  (A) (A) (A) (A) (A) (A) (A) (A) (A) (A) (A) (A)
                 (A) (A) (A) (A) (A) (A) (A) (A) (A) (A) (A) (A)
                 (A) (A) (A) (A) (A) (A) (A) (A) (A) (A) (A) (A)
                 (A) (A) (A) (A) (A) (A) (A) (A) (A) (A) (A) (A)
                 (A) (A) (A) (A) (A) (A) (A) (A) (A) (A) (A) (A)
                 (A) (A) (A) (A) (A) (A) (A) (A) (A) (A) (A) (A)
                 (A) (A) (A) (A) (A) (A) (A) (A) (A) (A) (A) (A)
                 (A) (A) (A) (A) (A) (A) (A) (A) (A) (A) (A) (A)
                 (A) (A) (A) (A) (A) (A) (A) (A) (A) (A) (A) (A)
                 (A) (A) (A) (A) (A) (A) (A) (A) (A) (A) (A) (A)
                 (A) (A) (A) (A) (A) (A) (A) (A) (A) (A) (A) (A)
                 (A) (A) (A) (A) (A) (A) (A) (A) (A) (A) (A) (A)
                 (A) (A) (A) (A) (A) (A) (A) (A) (A) (A) (A) (A)
                 (A) (A) (A) (A) (A) (A) (A) (A) (A) (A) (A) (A)
                 (A) (A) (A) (A) (A) (A) (A) (A) (A) (A) (A) (A)
                 (A) (A) (A) (A) (A) (A) (A) (A) (A) (A) (A) (A)
                 (A) (A) (A) (A) (A) (A) (A) (A) (A) (A) (A) (A)
                 (A) (A) (A) (A) (A) (A) (A) (A) (A) (A) (A) (A)
                 (A) (A) (A) (A) (A) (A) (A) (A) (A) (A) (A) (A)
                 (A) (A) (A) (A) (A) (A) (A) (A) (A) (A) (A) (A)
                 (A) (A) (A) (A) (A) (A) (A) (A) (A) (A) (A) (A)
                 (A) (A) (A) (A) (A) (A) (A) (A) (A) (A) (A) (A)
                 (A) (A) (A) (A) (A) (A) (A) (A) (A) (A) (A) (A)
                 (A) (A) (A) (A) (A) (A) (A) (A) (A) (A) (A) (A)
                 (A) (A) (A) (A) (A) (A) (A) (A) (A) (A) (A) (A)
                 (A) (A) (A) (A) (A) (A) (A) (A) (A) (A) (A) (A)
       Virtual   (A) (A) (A) (A) (A) (A) (A) (A) (A) (A) (A) (A)
                 (A) (A) (A) (A) (A) (A) (A) (A) (A) (A) (A) (A)
                 (A) (A) (A) (A) (A) (A) (A) (A) (A) (A) (A) (A)
                 (A) (A) (A) (A) (A) (A) (A) (A) (A) (A) (A) (A)
                 (A) (A) (A) (A) (A) (A) (A) (A) (A) (A) (A) (A)
                 (A) (A) (A) (A) (A) (A) (A) (A) (A) (A) (A) (A)
                 (A) (A) (A) (A) (A) (A) (A) (A) (A) (A) (A) (A)
                 (A) (A) (A) (A) (A) (A) (A) (A) (A) (A) (A) (A)
                 (A) (A) (A) (A) (A) (A) (A) (A) (A) (A) (A) (A)
                 (A) (A) (A) (A) (A) (A) (A) (A) (A) (A) (A) (A)
                 (A) (A) (A) (A) (A) (A) (A) (A) (A) (A) (A) (A)
                 (A) (A) (A) (A) (A) (A) (A) (A) (A) (A) (A) (A)
                 (A) (A) (A) (A) (A) (A) (A) (A) (A) (A) (A) (A)
                 (A) (A) (A) (A) (A) (A) (A) (A) (A) (A) (A) (A)
                 (A) (A) (A) (A) (A) (A) (A) (A) (A) (A) (A) (A)
                 (A) (A) (A) (A) (A) (A) (A) (A) (A) (A) (A) (A)
                 (A) (A) (A) (A) (A) (A) (A) (A) (A) (A) (A) (A)
                 (A) (A) (A) (A) (A) (A) (A) (A) (A) (A) (A) (A)
                 (A) (A) (A) (A) (A) (A) (A) (A) (A) (A) (A) (A)
                 (A) (A) (A) (A) (A) (A) (A) (A) (A) (A) (A) (A)
                 (A) (A) (A) (A) (A) (A) (A) (A) (A) (A) (A) (A)
                 (A) (A) (A) (A) (A) (A) (A) (A) (A) (A) (A) (A)
                 (A) (A) (A) (A) (A) (A) (A) (A) (A) (A) (A) (A)
                 (A) (A) (A) (A) (A) (A) (A) (A) (A) (A) (A) (A)
                 (A) (A) (A) (A) (A) (A) (A) (A) (A) (A) (A) (A)
                 (A) (A) (A) (A) (A) (A) (A) (A) (A) (A) (A) (A)
                 (A) (A) (A) (A) (A) (A) (A) (A) (A) (A) (A) (A)
                 (A) (A) (A) (A) (A) (A) (A) (A) (A) (A) (A) (A)
                 (A) (A) (A) (A) (A) (A) (A) (A) (A) (A) (A) (A)
                 (A) (A) (A) (A) (A) (A) (A) (A) (A) (A) (A) (A)
                 (A) (A) (A) (A) (A) (A) (A) (A) (A) (A) (A) (A)
                 (A) (A) (A) (A) (A) (A) (A) (A) (A) (A) (A) (A)
                 (A) (A) (A) (A) (A) (A) (A) (A) (A) (A) (A) (A)
                 (A) (A) (A) (A) (A) (A) (A) (A) (A) (A) (A) (A)
                 (A) (A) (A) (A) (A) (A) (A) (A) (A) (A) (A) (A)
                 (A) (A) (A) (A) (A) (A) (A) (A) (A) (A) (A) (A)
                 (A) (A) (A) (A) (A) (A) (A) (A) (A) (A) (A) (A)
                 (A) (A) (A) (A) (A) (A) (A) (A) (A) (A) (A) (A)
                 (A) (A) (A) (A) (A) (A) (A) (A) (A) (A) (A) (A)
                 (A) (A) (A) (A) (A) (A) (A) (A) (A) (A) (A) (A)
                 (A) (A) (A) (A) (A) (A) (A) (A) (A) (A) (A) (A)
                 (A) (A) (A) (A) (A) (A) (A) (A) (A) (A) (A) (A)
                 (A) (A) (A) (A) (A) (A) (A) (A) (A) (A) (A) (A)
                 (A) (A) (A) (A) (A) (A) (A) (A) (A) (A) (A) (A)
                 (A) (A) (A) (A) (A) (A) (A) (A) (A) (A) (A) (A)
                 (A) (A) (A) (A) (A) (A) (A) (A) (A) (A) (A) (A)
                 (A) (A) (A) (A) (A) (A) (A) (A) (A) (A) (A) (A)
                 (A) (A) (A) (A) (A) (A) (A) (A) (A) (A) (A) (A)
                 (A) (A) (A) (A) (A) (A) (A) (A) (A) (A) (A) (A)
                 (A) (A) (A) (A) (A) (A) (A) (A) (A) (A) (A) (A)
                 (A) (A) (A) (A) (A) (A) (A) (A) (A) (A) (A) (A)
                 (A) (A) (A) (A) (A) (A) (A) (A) (A) (A) (A) (A)
                 (A) (A) (A) (A) (A) (A) (A) (A) (A) (A) (A) (A)
                 (A) (A) (A) (A) (A) (A) (A) (A) (A) (A) (A) (A)
                 (A) (A) (A) (A) (A) (A) (A) (A) (A) (A) (A) (A)
                 (A) (A) (A) (A) (A) (A) (A) (A) (A) (A) (A) (A)
                 (A) (A) (A) (A) (A) (A) (A) (A) (A) (A) (A) (A)
                 (A) (A) (A) (A) (A) (A) (A) (A) (A) (A) (A) (A)
                 (A) (A) (A) (A) (A) (A) (A) (A) (A) (A) (A) (A)
                 (A) (A) (A) (A) (A) (A) (A) (A) (A) (A) (A) (A)
                 (A) (A) (A) (A) (A) (A) (A) (A) (A) (A) (A) (A)
                 (A) (A) (A) (A) (A) (A) (A) (A) (A) (A) (A) (A)
                 (A) (A) (A) (A) (A) (A) (A) (A) (A) (A) (A) (A)
                 (A) (A) (A) (A) (A) (A) (A) (A) (A) (A) (A) (A)
                 (A) (A) (A) (A) (A) (A) (A) (A) (A) (A) (A) (A)
                 (A) (A) (A) (A) (A) (A) (A) (A) (A) (A) (A) (A)
                 (A) (A) (A) (A) (A) (A) (A) (A) (A) (A) (A) (A)
                 (A) (A) (A) (A) (A) (A) (A) (A) (A) (A) (A) (A)
                 (A) (A) (A) (A) (A) (A) (A) (A) (A) (A) (A) (A)
                 (A) (A) (A) (A) (A) (A) (A) (A) (A) (A) (A) (A)
                 (A) (A) (A) (A) (A) (A) (A) (A) (A) (A) (A) (A)
                 (A) (A) (A) (A) (A) (A) (A) (A) (A) (A) (A) (A)
                 (A) (A) (A) (A) (A) (A) (A) (A) (A) (A) (A) (A)
                 (A) (A) (A) (A) (A) (A) (A) (A) (A) (A) (A) (A)
                 (A) (A) (A) (A) (A) (A) (A) (A) (A) (A) (A) (A)
                 (A) (A) (A) (A) (A) (A) (A) (A) (A) (A) (A) (A)
                 (A) (A) (A) (A) (A) (A) (A) (A) (A) (A) (A) (A)
                 (A) (A) (A) (A) (A) (A) (A) (A) (A) (A) (A) (A)
                 (A) (A) (A) (A) (A) (A) (A) (A) (A) (A) (A) (A)
                 (A) (A) (A) (A) (A) (A) (A) (A) (A) (A) (A) (A)
                 (A) (A) (A) (A) (A) (A) (A) (A) (A) (A) (A) (A)
                 (A) (A) (A) (A) (A) (A) (A) (A) (A) (A) (A) (A)
                 (A) (A) (A) (A) (A) (A) (A) (A) (A) (A) (A) (A)
                 (A) (A) (A) (A) (A) (A) (A) (A) (A) (A) (A) (A)
                 (A) (A) (A) (A) (A) (A) (A) (A) (A) (A) (A) (A)
                 (A) (A) (A) (A) (A) (A) (A) (A) (A) (A) (A) (A)
                 (A) (A) (A) (A) (A) (A) (A) (A) (A) (A) (A) (A)
                 (A) (A) (A) (A) (A) (A) (A) (A) (A) (A) (A) (A)
                 (A) (A) (A) (A) (A) (A) (A) (A) (A) (A) (A) (A)
                 (A) (A) (A) (A) (A) (A) (A) (A) (A) (A) (A) (A)
                 (A) (A) (A) (A) (A) (A) (A) (A) (A) (A) (A) (A)
                 (A) (A) (A) (A) (A) (A) (A) (A) (A) (A) (A) (A)
                 (A) (A) (A) (A) (A) (A) (A) (A) (A) (A) (A) (A)
                 (A) (A) (A) (A) (A) (A) (A) (A) (A) (A) (A) (A)
                 (A) (A) (A) (A) (A) (A) (A) (A) (A) (A) (A) (A)
                 (A) (A) (A) (A) (A) (A) (A) (A) (A) (A) (A) (A)
                 (A) (A) (A) (A) (A) (A) (A) (A) (A) (A) (A) (A)
                 (A) (A) (A) (A) (A) (A) (A) (A) (A) (A) (A) (A)
                 (A) (A) (A) (A) (A) (A) (A) (A) (A) (A) (A) (A)
                 (A) (A) (A) (A) (A) (A) (A) (A) (A) (A) (A) (A)
                 (A) (A) (A) (A) (A) (A) (A) (A) (A) (A) (A) (A)
                 (A) (A) (A) (A) (A) (A) (A) (A) (A) (A) (A) (A)
                 (A) (A) (A) (A) (A) (A) (A) (A) (A) (A) (A) (A)
                 (A) (A) (A) (A) (A) (A) (A) (A) (A) (A) (A) (A)
                 (A) (A) (A) (A) (A) (A) (A) (A) (A) (A) (A) (A)
    20 initial guesses have been made.
 Convergence on wavefunction:    0.001000000000000
 Davidson Disk Diagonalization:  ConvIn= 1.00D-03 SkipCon=T Conv= 1.00D-03.
 Max sub-space:  2000 roots to seek:    20 dimension of matrix:       549360
 Iteration     1 Dimension    20 NMult     0 NNew     20
 CISAX will form    20 AO SS matrices at one time.
 NMat=    20 NSing=    20 JSym2X= 0.
 FoFJK:  IHMeth= 1 ICntrl=       0 DoSepK=T KAlg= 0 I1Cent=           0 FoldK=F
 IRaf=         1 NMat=      40 IRICut=       1 DoRegI=T DoRafI=F ISym2E= 0 IDoP0=3 IntGTp=3.
 FoFCou: FMM=T IPFlag=           0 FMFlag=      100000 FMFlg1=        2001
         NFxFlg=           0 DoJE=F BraDBF=F KetDBF=F FulRan=T
         wScrn=  0.000000 ICntrl=       500 IOpCl=  0 I1Cent=           0 NGrid=           0
         NMat0=   20 NMatS0=     20 NMatT0=    0 NMatD0=   20 NMtDS0=    0 NMtDT0=    0
 Symmetry not used in FoFCou.
 FMM levels:  10  Number of levels for PrismC:   9
 New state      2 was old state      7
 New state      3 was old state      6
 New state      5 was old state      2
 Excitation Energies [eV] at current iteration:
 Root      1 :     2.481885084971485
 Root      2 :     2.609391889241053
 Root      3 :     2.620457428673630
 Root      4 :     2.627728334703786
 Root      5 :     2.653314269965121
 Root      6 :     2.721652740582358
 Root      7 :     3.269648552340134
 Root      8 :     3.425057394256003
 Root      9 :     3.633391684686667
 Root     10 :     3.673325185080846
 Root     11 :     3.729896494556280
 Root     12 :     3.757572992950167
 Root     13 :     4.280029952580768
 Root     14 :     4.332174670944118
 Root     15 :     4.386603829434209
 Root     16 :     4.556371128541378
 Root     17 :     4.705182503756518
 Root     18 :     4.737635908645246
 Root     19 :     4.854710010324932
 Root     20 :     4.865655322335098
 Iteration     2 Dimension    30 NMult    20 NNew     10
 CISAX will form    10 AO SS matrices at one time.
 NMat=    10 NSing=    10 JSym2X= 0.
 New state      1 was old state      5
 Root      1 not converged, maximum delta is    0.222908720771580
 New state      2 was old state      3
 Root      2 not converged, maximum delta is    0.158564888701189
 New state      3 was old state      2
 Root      3 not converged, maximum delta is    0.191614862445813
 New state      4 was old state      1
 Root      4 not converged, maximum delta is    0.002252229107234
 New state      5 was old state      4
 Root      5 not converged, maximum delta is    0.004485320093401
 Excitation Energies [eV] at current iteration:
 Root      1 :     1.786039402102887   Change is   -0.867274867862235
 Root      2 :     2.225865631253764   Change is   -0.394591797419866
 Root      3 :     2.239449468858208   Change is   -0.369942420382845
 Root      4 :     2.481464779975019   Change is   -0.000420304996466
 Root      5 :     2.627182393872971   Change is   -0.000545940830814
 Iteration     3 Dimension    40 NMult    30 NNew     10
 CISAX will form    10 AO SS matrices at one time.
 NMat=    10 NSing=    10 JSym2X= 0.
 Root      1 not converged, maximum delta is    0.053740076456885
 Root      2 not converged, maximum delta is    0.169551373019198
 Root      3 not converged, maximum delta is    0.167928206403222
 No map to state      4
 New state      5 was old state      4
 Root      5 has converged.
 Excitation Energies [eV] at current iteration:
 Root      1 :     1.680319328342143   Change is   -0.105720073760744
 Root      2 :     2.127972460055516   Change is   -0.097893171198248
 Root      3 :     2.199593922572641   Change is   -0.039855546285567
 Root      4 :     2.422527732364712
 Root      5 :     2.481462437081650   Change is   -0.000002342893369
 Iteration     4 Dimension    48 NMult    40 NNew      8
 CISAX will form     8 AO SS matrices at one time.
 NMat=     8 NSing=     8 JSym2X= 0.
 Root      1 not converged, maximum delta is    0.010055670110820
 New state      2 was old state      4
 Root      2 not converged, maximum delta is    0.356878179266183
 Root      3 not converged, maximum delta is    0.429448537498563
 New state      4 was old state      2
 Root      4 not converged, maximum delta is    0.463498710879999
 Root      5 has converged.
 Excitation Energies [eV] at current iteration:
 Root      1 :     1.663661352910808   Change is   -0.016657975431335
 Root      2 :     1.760495359582852   Change is   -0.662032372781860
 Root      3 :     2.188952696643771   Change is   -0.010641225928870
 Root      4 :     2.196502827603412   Change is    0.068530367547896
 Root      5 :     2.481462342421848   Change is   -0.000000094659803
 Iteration     5 Dimension    56 NMult    48 NNew      8
 CISAX will form     8 AO SS matrices at one time.
 NMat=     8 NSing=     8 JSym2X= 0.
 Root      1 not converged, maximum delta is    0.003771338260824
 Root      2 not converged, maximum delta is    0.030591005642094
 Root      3 not converged, maximum delta is    0.127121861304532
 Root      4 not converged, maximum delta is    0.125978181323192
 Root      5 has converged.
 Excitation Energies [eV] at current iteration:
 Root      1 :     1.661926925322606   Change is   -0.001734427588202
 Root      2 :     1.701813464310279   Change is   -0.058681895272574
 Root      3 :     2.186129954781399   Change is   -0.002822741862372
 Root      4 :     2.194119536062171   Change is   -0.002383291541241
 Root      5 :     2.481462340760180   Change is   -0.000000001661667
 Iteration     6 Dimension    64 NMult    56 NNew      8
 CISAX will form     8 AO SS matrices at one time.
 NMat=     8 NSing=     8 JSym2X= 0.
 Root      1 not converged, maximum delta is    0.001298079708638
 Root      2 not converged, maximum delta is    0.007762766667228
 Root      3 not converged, maximum delta is    0.013218668332620
 Root      4 not converged, maximum delta is    0.013335333572958
 Root      5 has converged.
 Excitation Energies [eV] at current iteration:
 Root      1 :     1.661680021593596   Change is   -0.000246903729010
 Root      2 :     1.693101597215185   Change is   -0.008711867095094
 Root      3 :     2.185717467387307   Change is   -0.000412487394092
 Root      4 :     2.193884671619966   Change is   -0.000234864442205
 Root      5 :     2.481462339791598   Change is   -0.000000000968582
 Iteration     7 Dimension    72 NMult    64 NNew      8
 CISAX will form     8 AO SS matrices at one time.
 NMat=     8 NSing=     8 JSym2X= 0.
 Root      1 has converged.
 Root      2 not converged, maximum delta is    0.001668416690386
 Root      3 not converged, maximum delta is    0.001533140252678
 Root      4 not converged, maximum delta is    0.001602079220992
 Root      5 has converged.
[...]
 Alpha virt. eigenvalues --    1.84395   1.84617   1.84770   1.84920   1.85042
 Alpha virt. eigenvalues --    1.85208   1.85225   1.85461   1.85480   1.85605
 Alpha virt. eigenvalues --    1.85815   1.86019   1.86312   1.86492   1.86519
 Alpha virt. eigenvalues --    1.86735   1.86760   1.86910   1.86975   1.87124
 Alpha virt. eigenvalues --    1.87395   1.87594   1.87631   1.87823   1.87864
 Alpha virt. eigenvalues --    1.87994   1.88106   1.88295   1.88497   1.88701
 Alpha virt. eigenvalues --    1.88789   1.89058   1.89082   1.89155   1.89593
 Alpha virt. eigenvalues --    1.89704   1.89788   1.89998   1.90075   1.90315
 Alpha virt. eigenvalues --    1.90702   1.90993   1.91306   1.91402   1.91491
 Alpha virt. eigenvalues --    1.91721   1.92101   1.92295   1.92594   1.92756
 Alpha virt. eigenvalues --    1.92934   1.93258   1.93290   1.93588   1.94229
 Alpha virt. eigenvalues --    1.94384   1.94652   1.94918   1.95429   1.95650
 Alpha virt. eigenvalues --    1.95681   1.95910   1.95948   1.96099   1.96145
 Alpha virt. eigenvalues --    1.96275   1.96541   1.96575   1.96859   1.97062
 Alpha virt. eigenvalues --    1.97397   1.97614   1.97779   1.97892   1.98122
 Alpha virt. eigenvalues --    1.98275   1.98437   1.98627   1.99095   1.99177
 Alpha virt. eigenvalues --    1.99780   2.00063   2.00606   2.00823   2.00948
 Alpha virt. eigenvalues --    2.01208   2.01441   2.01584   2.01623   2.01670
 Alpha virt. eigenvalues --    2.01719   2.01930   2.02745   2.02811   2.03198
 Alpha virt. eigenvalues --    2.03208   2.03356   2.03433   2.03491   2.03628
 Alpha virt. eigenvalues --    2.03990   2.04125   2.04914   2.05091   2.05471
 Alpha virt. eigenvalues --    2.05743   2.06037   2.06396   2.06850   2.07122
 Alpha virt. eigenvalues --    2.07135   2.07447   2.08552   2.08665   2.08934
 Alpha virt. eigenvalues --    2.09117   2.09545   2.09726   2.10729   2.11102
 Alpha virt. eigenvalues --    2.11129   2.11503   2.11519   2.11632   2.11684
 Alpha virt. eigenvalues --    2.12007   2.12422   2.12570   2.12760   2.12782
 Alpha virt. eigenvalues --    2.12916   2.12978   2.13734   2.13753   2.14095
 Alpha virt. eigenvalues --    2.14320   2.15288   2.15511   2.15877   2.16188
 Alpha virt. eigenvalues --    2.16472   2.16688   2.16701   2.17280   2.17373
 Alpha virt. eigenvalues --    2.17665   2.17729   2.18007   2.18050   2.18089
 Alpha virt. eigenvalues --    2.18275   2.18777   2.18822   2.19337   2.19594
 Alpha virt. eigenvalues --    2.19939   2.19998   2.20147   2.20337   2.20560
 Alpha virt. eigenvalues --    2.21101   2.21241   2.21622   2.21680   2.21876
 Alpha virt. eigenvalues --    2.21974   2.22631   2.22824   2.23255   2.23426
 Alpha virt. eigenvalues --    2.24342   2.24499   2.24906   2.25102   2.26247
 Alpha virt. eigenvalues --    2.26550   2.26732   2.27047   2.27107   2.27310
 Alpha virt. eigenvalues --    2.28093   2.28439   2.29222   2.29551   2.29686
 Alpha virt. eigenvalues --    2.29995   2.30413   2.30725   2.30916   2.31033
 Alpha virt. eigenvalues --    2.31127   2.31289   2.32078   2.32338   2.33088
 Alpha virt. eigenvalues --    2.33353   2.33408   2.33563   2.34093   2.34216
 Alpha virt. eigenvalues --    2.35316   2.35384   2.35752   2.36043   2.36302
 Alpha virt. eigenvalues --    2.36461   2.36521   2.36573   2.37596   2.37750
 Alpha virt. eigenvalues --    2.38218   2.38493   2.38820   2.38902   2.39563
 Alpha virt. eigenvalues --    2.39773   2.40134   2.40328   2.40439   2.40937
 Alpha virt. eigenvalues --    2.41229   2.41311   2.41637   2.41775   2.41981
 Alpha virt. eigenvalues --    2.42225   2.42889   2.42899   2.43122   2.43478
 Alpha virt. eigenvalues --    2.44085   2.44127   2.44681   2.44858   2.44917
 Alpha virt. eigenvalues --    2.45092   2.45484   2.45676   2.46255   2.46405
 Alpha virt. eigenvalues --    2.46419   2.46608   2.46745   2.46904   2.47192
 Alpha virt. eigenvalues --    2.47452   2.47664   2.47975   2.49268   2.49482
 Alpha virt. eigenvalues --    2.49955   2.50011   2.50495   2.50571   2.51071
 Alpha virt. eigenvalues --    2.51363   2.51729   2.51840   2.52399   2.52480
 Alpha virt. eigenvalues --    2.52762   2.53279   2.53870   2.54068   2.54114
 Alpha virt. eigenvalues --    2.54381   2.54730   2.54883   2.55471   2.55759
 Alpha virt. eigenvalues --    2.57817   2.58184   2.58598   2.58998   2.60150
 Alpha virt. eigenvalues --    2.60397   2.60575   2.61031   2.61664   2.61923
 Alpha virt. eigenvalues --    2.62489   2.62526   2.62900   2.63211   2.63891
 Alpha virt. eigenvalues --    2.64193   2.64339   2.64461   2.65027   2.65177
 Alpha virt. eigenvalues --    2.65748   2.65955   2.66718   2.66862   2.66894
 Alpha virt. eigenvalues --    2.67164   2.67855   2.68065   2.68808   2.68906
 Alpha virt. eigenvalues --    2.68968   2.69116   2.69329   2.69676   2.69940
 Alpha virt. eigenvalues --    2.70214   2.70923   2.71151   2.71970   2.71997
 Alpha virt. eigenvalues --    2.72562   2.72591   2.72767   2.72816   2.73218
 Alpha virt. eigenvalues --    2.73347   2.73458   2.73526   2.74446   2.74586
 Alpha virt. eigenvalues --    2.74917   2.75141   2.76533   2.76589   2.77151
 Alpha virt. eigenvalues --    2.77164   2.77415   2.77707   2.78160   2.78396
 Alpha virt. eigenvalues --    2.78673   2.78761   2.79084   2.79242   2.80298
 Alpha virt. eigenvalues --    2.80378   2.80530   2.80770   2.81039   2.81240
 Alpha virt. eigenvalues --    2.81876   2.82078   2.82283   2.82407   2.83683
 Alpha virt. eigenvalues --    2.83721   2.83953   2.83977   2.84480   2.84604
 Alpha virt. eigenvalues --    2.84825   2.84940   2.85622   2.85775   2.86713
 Alpha virt. eigenvalues --    2.86937   2.87226   2.87544   2.88114   2.88340
 Alpha virt. eigenvalues --    2.88437   2.88677   2.88873   2.88948   2.90447
 Alpha virt. eigenvalues --    2.90722   2.91124   2.91134   2.93104   2.93411
 Alpha virt. eigenvalues --    2.93847   2.94146   2.94511   2.94636   2.95332
 Alpha virt. eigenvalues --    2.95556   2.95884   2.96137   2.96378   2.96426
 Alpha virt. eigenvalues --    2.96914   2.97117   2.97772   2.98123   2.98164
 Alpha virt. eigenvalues --    2.98287   2.98433   2.98524   2.98661   2.98832
 Alpha virt. eigenvalues --    2.98859   2.99002   2.99527   2.99867   2.99975
 Alpha virt. eigenvalues --    3.00076   3.00166   3.00409   3.00445   3.01073
 Alpha virt. eigenvalues --    3.01928   3.01951   3.01996   3.02206   3.02679
 Alpha virt. eigenvalues --    3.02895   3.02931   3.03287   3.03428   3.03785
 Alpha virt. eigenvalues --    3.04071   3.04162   3.04359   3.04479   3.04501
 Alpha virt. eigenvalues --    3.04788   3.05259   3.05442   3.06071   3.06209
 Alpha virt. eigenvalues --    3.06766   3.07012   3.08013   3.08103   3.09367
 Alpha virt. eigenvalues --    3.09409   3.09664   3.10401   3.10508   3.10828
 Alpha virt. eigenvalues --    3.11297   3.11501   3.11901   3.11906   3.12109
 Alpha virt. eigenvalues --    3.12378   3.13236   3.13586   3.13728   3.13757
 Alpha virt. eigenvalues --    3.14028   3.14522   3.15856   3.16004   3.17194
 Alpha virt. eigenvalues --    3.17596   3.17961   3.18044   3.19077   3.19118
 Alpha virt. eigenvalues --    3.22232   3.22650   3.23883   3.24522   3.24595
 Alpha virt. eigenvalues --    3.25264   3.26441   3.26740   3.27474   3.27563
 Alpha virt. eigenvalues --    3.29024   3.29269   3.31461   3.31466   3.33270
 Alpha virt. eigenvalues --    3.33363   3.40295   3.40558   3.42782   3.42911
 Alpha virt. eigenvalues --    3.48587   3.48776   3.49968   3.50369   3.50925
 Alpha virt. eigenvalues --    3.51424   3.56499   3.57089   3.59046   3.59412
 Alpha virt. eigenvalues --    3.62594   3.62773   3.66165   3.66204   3.67113
 Alpha virt. eigenvalues --    3.67585   3.73191   3.74073   3.75974   3.76738
          Condensed to atoms (all electrons):
 Mulliken charges:
               1
     1  Mg   0.838725
     2  C   -0.002972
     3  C   -0.094078
     4  C   -0.045656
     5  C   -0.064276
     6  N   -0.256872
     7  C   -0.052395
     8  C   -0.014069
     9  C   -0.087034
    10  C    0.046542
    11  C    0.104763
    12  C    0.053455
    13  C   -0.072210
    14  H    0.037068
    15  N   -0.433237
    16  C    0.168625
    17  C   -0.177022
    18  C   -0.003709
    19  C    0.148911
    20  C    0.110158
    21  C    0.012594
    22  O   -0.248766
    23  C    0.062380
    24  N   -0.341124
    25  C    0.041285
    26  C   -0.028443
    27  C   -0.023883
    28  C    0.074685
    29  C    0.076021
    30  C    0.035183
    31  C   -0.004626
    32  N   -0.310238
    33  C    0.079961
    34  C   -0.170747
    35  C    0.008064
    36  C    0.082572
    37  C    0.127575
    38  C    0.045445
    39  O   -0.189182
    40  C   -0.005038
    41  C    0.212718
    42  O   -0.257659
    43  O   -0.304631
    44  C    0.157832
    45  H   -0.017329
    46  H   -0.016249
    47  H   -0.041998
    48  H    0.000946
    49  H   -0.003813
    50  H    0.025500
    51  H    0.016473
    52  H    0.016905
    53  H    0.011255
    54  H    0.044121
    55  H    0.017778
    56  H    0.018081
    57  H    0.006016
    58  H    0.027204
    59  H    0.039536
    60  H    0.037383
    61  H    0.036383
    62  H    0.031188
    63  H    0.017216
    64  H    0.009535
    65  H    0.023843
    66  H    0.012630
    67  H    0.004788
    68  H    0.007098
    69  H    0.003977
    70  H    0.010300
    71  H    0.016261
    72  H    0.028658
    73  H    0.046294
    74  H    0.008625
    75  H    0.046302
    76  H    0.035326
    77  H    0.042822
    78  H    0.047017
    79  H    0.053231
    80  Mg   0.837969
    81  C   -0.016695
    82  C   -0.086746
    83  C   -0.044982
    84  C   -0.065245
    85  N   -0.254512
    86  C   -0.049980
    87  C   -0.015075
    88  C   -0.090440
    89  C    0.045339
    90  C    0.113728
    91  C    0.062555
    92  C   -0.077642
    93  H    0.034296
    94  N   -0.423843
    95  C    0.162777
    96  C   -0.172376
    97  C   -0.007565
    98  C    0.152719
    99  C    0.098508
   100  C    0.016032
   101  O   -0.253853
   102  C    0.061001
   103  N   -0.349956
   104  C    0.037654
   105  C   -0.019793
   106  C   -0.034481
   107  C    0.088668
   108  C    0.073813
   109  C    0.034929
   110  C   -0.007547
   111  N   -0.323978
   112  C    0.078132
   113  C   -0.163479
   114  C    0.002257
   115  C    0.095908
   116  C    0.131432
   117  C    0.042264
   118  O   -0.188459
   119  C    0.000913
   120  C    0.211235
   121  O   -0.251177
   122  O   -0.305703
   123  C    0.152133
   124  H   -0.017348
   125  H   -0.015954
   126  H   -0.041395
   127  H   -0.001244
   128  H   -0.004219
   129  H    0.021655
   130  H    0.016883
   131  H    0.016667
   132  H    0.013969
   133  H    0.037404
   134  H    0.020420
   135  H    0.019787
   136  H    0.009711
   137  H    0.029082
   138  H    0.039163
   139  H    0.039651
   140  H    0.035681
   141  H    0.033568
   142  H    0.014046
   143  H    0.011244
   144  H    0.024260
   145  H    0.012938
   146  H    0.004069
   147  H    0.005409
   148  H    0.003178
   149  H    0.010759
   150  H    0.017541
   151  H    0.030607
   152  H    0.045574
   153  H    0.007705
   154  H    0.047152
   155  H    0.034907
   156  H    0.043531
   157  H    0.049429
   158  H    0.053434
 Sum of Mulliken charges =  -0.00000
 Mulliken charges with hydrogens summed into heavy atoms:
               1
     1  Mg   0.838725
     2  C   -0.002972
     3  C   -0.111407
     4  C   -0.061904
     5  C   -0.106274
     6  N   -0.256872
     7  C   -0.052395
     8  C   -0.013122
     9  C   -0.090847
    10  C    0.046542
    11  C    0.163641
    12  C    0.108830
    13  C    0.000717
    15  N   -0.433237
    16  C    0.168625
    17  C   -0.177022
    18  C   -0.003709
    19  C    0.148911
    20  C    0.182914
    21  C    0.012594
    22  O   -0.248766
    23  C    0.167334
    24  N   -0.341124
    25  C    0.041285
    26  C   -0.011226
    27  C   -0.014348
    28  C    0.074685
    29  C    0.117282
    30  C    0.046258
    31  C    0.050593
    32  N   -0.310238
    33  C    0.079961
    34  C   -0.170747
    35  C    0.008064
    36  C    0.082572
    37  C    0.228797
    38  C    0.045445
    39  O   -0.189182
    40  C    0.030288
    41  C    0.212718
    42  O   -0.257659
    43  O   -0.304631
    44  C    0.300902
    80  Mg   0.837969
    81  C   -0.016695
    82  C   -0.104094
    83  C   -0.060936
    84  C   -0.106640
    85  N   -0.254512
    86  C   -0.049980
    87  C   -0.016319
    88  C   -0.094659
    89  C    0.045339
    90  C    0.168933
    91  C    0.113927
    92  C   -0.003139
    94  N   -0.423843
    95  C    0.162777
    96  C   -0.172376
    97  C   -0.007565
    98  C    0.152719
    99  C    0.176463
   100  C    0.016032
   101  O   -0.253853
   102  C    0.169902
   103  N   -0.349956
   104  C    0.037654
   105  C   -0.005747
   106  C   -0.023238
   107  C    0.088668
   108  C    0.115081
   109  C    0.043515
   110  C    0.051361
   111  N   -0.323978
   112  C    0.078132
   113  C   -0.163479
   114  C    0.002257
   115  C    0.095908
   116  C    0.231863
   117  C    0.042264
   118  O   -0.188459
   119  C    0.035820
   120  C    0.211235
   121  O   -0.251177
   122  O   -0.305703
   123  C    0.298528
 Electronic spatial extent (au):  <R**2>=         115822.5429
 Charge=             -0.0000 electrons
 Dipole moment (field-independent basis, Debye):
    X=              4.6806    Y=              1.6921    Z=              0.8620  Tot=              5.0512
 Quadrupole moment (field-independent basis, Debye-Ang):
   XX=           -523.1102   YY=           -535.2060   ZZ=           -461.3088
   XY=            -17.2281   XZ=             48.4105   YZ=             29.6826
 Traceless Quadrupole moment (field-independent basis, Debye-Ang):
   XX=            -16.5685   YY=            -28.6643   ZZ=             45.2328
   XY=            -17.2281   XZ=             48.4105   YZ=             29.6826
 Octapole moment (field-independent basis, Debye-Ang**2):
  XXX=            480.6602  YYY=            162.8691  ZZZ=            196.7863  XYY=            157.9068
  XXY=            164.6471  XXZ=             80.1047  XZZ=           -177.7744  YZZ=            -92.8549
  YYZ=           -274.2362  XYZ=            109.7111
 Hexadecapole moment (field-independent basis, Debye-Ang**3):
 XXXX=         -93774.6140 YYYY=         -39351.6344 ZZZZ=         -26094.8912 XXXY=           -312.8653
 XXXZ=           2260.1561 YYYX=           1274.9845 YYYZ=            142.8680 ZZZX=            844.5860
 ZZZY=            302.3894 XXYY=         -22012.5560 XXZZ=         -18473.4763 YYZZ=         -10835.3230
 XXYZ=           1321.2029 YYXZ=            867.3440 ZZXY=           -375.7300
 N-N= 1.493023837752D+04 E-N=-3.934151687802D+04  KE= 4.028801243465D+03
 Leave Link  601 at Sat Sep  4 01:52:07 2021, MaxMem= 23488102400 cpu:              16.4 elap:               0.8
 (Enter /sw/apps/gaussian-16.0/g16/l9999.exe)
 1\1\GINC-BP1-COMPUTE00084\SP\RCAM-B3LYP TD-FC\def2SVP\C68H72Mg2N8O8\OF
 15641\04-Sep-2021\0\\#p cam-b3lyp/Def2SVP td=(nstates=5)\\TDDFT excite
 d states in gaussian\\0,1\Mg,0,0.,0.,0.\C,0,-0.217,-2.218,2.801\C,0,-1
 .255,2.442,2.026\C,0,-0.245,1.85,-2.564\C,0,0.146,-2.824,-2.037\N,0,-0
 .617,-0.009,2.126\C,0,-0.594,-0.908,3.105\C,0,-0.936,-0.309,4.502\C,0,
 -1.773,0.964,4.032\C,0,-1.155,1.168,2.66\C,0,-3.263,0.685,3.863\C,0,0.
 345,0.11,5.299\C,0,0.124,0.397,6.787\H,0,1.168,0.033,7.733\N,0,-0.185,
 1.961,-0.152\C,0,-0.703,2.8,0.777\C,0,-0.62,4.156,0.193\C,0,-0.187,4.0
 15,-1.225\C,0,-0.214,2.583,-1.38\C,0,-0.887,5.406,0.974\C,0,0.181,5.01
 3,-2.277\O,0,0.303,4.69,-3.508\C,0,0.31,6.414,-1.837\N,0,-0.265,-0.413
 ,-2.029\C,0,-0.279,0.569,-2.937\C,0,-0.196,0.024,-4.332\C,0,0.124,-1.5
 33,-4.18\C,0,0.086,-1.632,-2.635\C,0,-1.451,0.205,-5.197\C,0,1.373,-2.
 07,-4.923\C,0,2.626,-1.49,-4.306\N,0,0.15,-2.144,0.303\C,0,0.173,-3.13
 6,-0.688\C,0,0.173,-4.438,0.004\C,0,0.133,-4.111,1.358\C,0,0.083,-2.69
 5,1.502\C,0,0.149,-5.715,-0.623\C,0,0.096,-4.629,2.716\O,0,0.208,-5.74
 7,3.221\C,0,-0.255,-3.428,3.701\C,0,0.717,-3.482,4.848\O,0,1.931,-3.25
 5,4.669\O,0,0.038,-3.556,6.003\C,0,0.943,-3.583,7.183\H,0,-1.859,3.22,
 2.497\H,0,-0.218,2.453,-3.474\H,0,0.276,-3.747,-2.605\H,0,-1.554,-0.94
 9,5.132\H,0,-1.585,1.831,4.665\H,0,-3.484,-0.377,3.969\H,0,-3.511,1.02
 7,2.858\H,0,-3.852,1.301,4.543\H,0,0.669,1.096,4.966\H,0,1.13,-0.639,5
 .189\H,0,-0.844,0.026,7.125\H,0,0.062,1.477,6.921\H,0,-1.344,5.186,1.9
 38\H,0,-1.651,5.963,0.432\H,0,0.007,6.02,1.084\H,0,-0.635,6.744,-1.405
 \H,0,0.665,6.97,-2.704\H,0,1.048,6.466,-1.036\H,0,0.608,0.501,-4.891\H
 ,0,-0.692,-2.156,-4.547\H,0,-1.267,0.74,-6.129\H,0,-2.204,0.714,-4.596
 \H,0,-1.967,-0.72,-5.453\H,0,1.356,-1.759,-5.967\H,0,1.452,-3.157,-4.9
 02\H,0,2.714,-0.522,-4.798\H,0,3.487,-2.121,-4.529\H,0,2.495,-1.303,-3
 .24\H,0,0.867,-6.333,-0.084\H,0,0.404,-5.642,-1.68\H,0,-0.891,-5.999,-
 0.463\H,0,-1.283,-3.581,4.028\H,0,0.698,-4.478,7.755\H,0,0.833,-2.619,
 7.68\H,0,2.,-3.754,6.976\Mg,0,10.51887,0.93946,0.7971\C,0,10.6054,0.69
 269,-2.7821\C,0,9.93296,-2.4201,0.86536\C,0,9.98999,1.1955,3.91514\C,0
 ,9.97133,4.35934,0.40933\N,0,10.31746,-0.56046,-0.81595\C,0,10.43062,-
 0.54864,-2.13557\C,0,10.43242,-1.95455,-2.79358\C,0,9.65251,-2.75937,-
 1.64342\C,0,10.01398,-1.88447,-0.44484\C,0,8.14241,-2.73804,-1.8122\C,
 0,11.88312,-2.51434,-3.00359\C,0,11.97398,-3.73877,-3.91698\H,0,13.141
 19,-3.8754,-4.78383\N,0,10.51944,-0.4462,2.21784\C,0,10.28447,-1.76653
 ,2.06687\C,0,10.38019,-2.34887,3.41441\C,0,10.52781,-1.23956,4.39541\C
 ,0,10.32617,-0.09433,3.53061\C,0,10.40841,-3.82937,3.66093\C,0,10.7923
 2,-1.21411,5.87039\O,0,10.64445,-0.14559,6.56266\C,0,11.13909,-2.49833
 ,6.4965\N,0,9.83932,2.50202,1.98831\C,0,9.75047,2.36569,3.32302\C,0,9.
 50491,3.69698,3.99217\C,0,9.68899,4.79521,2.84431\C,0,9.93199,3.86203,
 1.63787\C,0,8.13438,3.86988,4.6465\C,0,10.71079,5.93303,3.11627\C,0,12
 .11301,5.36935,3.15387\N,0,10.50297,2.33492,-0.85229\C,0,10.22551,3.71
 839,-0.79648\C,0,10.22148,4.21806,-2.18671\C,0,10.47613,3.07715,-2.962
 58\C,0,10.6081,1.94265,-2.11702\C,0,9.95509,5.55734,-2.58856\C,0,10.65
 276,2.57271,-4.30535\O,0,10.73381,3.08369,-5.42163\C,0,10.61878,0.9843
 4,-4.25702\C,0,11.78048,0.47018,-5.06237\O,0,12.94887,0.68268,-4.69315
 \O,0,11.32287,-0.36761,-6.01057\C,0,12.43914,-0.91232,-6.82852\H,0,9.5
 2164,-3.42196,0.99177\H,0,9.90548,1.35959,4.9919\H,0,9.90556,5.43127,0
 .21109\H,0,9.88752,-2.01958,-3.72773\H,0,10.05558,-3.76115,-1.51961\H,
 0,7.83591,-2.08363,-2.61466\H,0,7.74572,-2.38978,-0.86753\H,0,7.76315,
 -3.75577,-1.94151\H,0,12.23649,-2.95526,-2.0626\H,0,12.5397,-1.74596,-
 3.36292\H,0,11.05081,-3.89665,-4.48775\H,0,12.05927,-4.63167,-3.29291\
 H,0,10.11615,-4.39188,2.76563\H,0,9.6191,-4.04749,4.38845\H,0,11.36434
 ,-4.1712,4.06345\H,0,10.33508,-3.21088,6.32826\H,0,11.37905,-2.26181,7
 .53494\H,0,12.02712,-2.90227,5.99766\H,0,10.23429,3.87817,4.77209\H,0,
 8.75153,5.33356,2.64136\H,0,8.19298,4.12387,5.72173\H,0,7.56941,2.9586
 9,4.50126\H,0,7.49202,4.61643,4.18257\H,0,10.52904,6.37875,4.09732\H,0
 ,10.66961,6.73422,2.38592\H,0,12.20124,4.99534,4.17828\H,0,12.84492,6.
 14937,2.95406\H,0,12.21008,4.51035,2.47982\H,0,10.68621,5.80634,-3.346
 16\H,0,10.00589,6.24301,-1.74533\H,0,8.93557,5.44802,-2.96789\H,0,9.66
 115,0.66445,-4.66954\H,0,12.21195,-0.68073,-7.87372\H,0,12.51613,-1.98
 136,-6.55471\H,0,13.41363,-0.45151,-6.71679\\Version=ES64L-G16RevA.03\
 State=1-A\HF=-4069.8119602\RMSD=7.173e-09\PG=C01 [X(C68H72Mg2N8O8)]\\@


 A MAN IS NEVER SO BRILLIANT AS WHEN HE TAKES THE WORDS RIGHT OUT
 OF YOUR MOUTH. -- ARNOT SHEPPARD, JR.
 Job cpu time:       0 days 13 hours 58 minutes 22.5 seconds.
 Elapsed time:       0 days  0 hours 35 minutes 35.1 seconds.
 File lengths (MBytes):  RWF=  13225 Int=      0 D2E=      0 Chk=    574 Scr=      1
 Normal termination of Gaussian 16 at Sat Sep  4 01:52:08 2021.
