 Entering Gaussian System, Link 0=g16
 Initial command:
 /sw/apps/gaussian-16.0/g16/l1.exe "/tmp/Gau-1832.inp" -scrdir="/tmp/"
 Entering Link 1 = /sw/apps/gaussian-16.0/g16/l1.exe PID=      1833.
  
 Copyright (c) 1988,1990,1992,1993,1995,1998,2003,2009,2016,
            Gaussian, Inc.  All Rights Reserved.
  
 This is part of the Gaussian(R) 16 program.  It is based on
 the Gaussian(R) 09 system (copyright 2009, Gaussian, Inc.),
 the Gaussian(R) 03 system (copyright 2003, Gaussian, Inc.),
 the Gaussian(R) 98 system (copyright 1998, Gaussian, Inc.),
 the Gaussian(R) 94 system (copyright 1995, Gaussian, Inc.),
 the Gaussian 92(TM) system (copyright 1992, Gaussian, Inc.),
 the Gaussian 90(TM) system (copyright 1990, Gaussian, Inc.),
 the Gaussian 88(TM) system (copyright 1988, Gaussian, Inc.),
 the Gaussian 86(TM) system (copyright 1986, Carnegie Mellon
 University), and the Gaussian 82(TM) system (copyright 1983,
 Carnegie Mellon University). Gaussian is a federally registered
 trademark of Gaussian, Inc.
  
 This software contains proprietary and confidential information,
 including trade secrets, belonging to Gaussian, Inc.
  
 This software is provided under written license and may be
 used, copied, transmitted, or stored only in accord with that
 written license.
  
 The following legend is applicable only to US Government
 contracts under FAR:
  
                    RESTRICTED RIGHTS LEGEND
  
 Use, reproduction and disclosure by the US Government is
 subject to restrictions as set forth in subparagraphs (a)
 and (c) of the Commercial Computer Software - Restricted
 Rights clause in FAR 52.227-19.
  
 Gaussian, Inc.
 340 Quinnipiac St., Bldg. 40, Wallingford CT 06492
  
  
 ---------------------------------------------------------------
 Warning -- This program may not be used in any manner that
 competes with the business of Gaussian, Inc. or will provide
 assistance to any competitor of Gaussian, Inc.  The licensee
 of this program is prohibited from giving any competitor of
 Gaussian, Inc. access to this program.  By using this program,
 the user acknowledges that Gaussian, Inc. is engaged in the
 business of creating and licensing software in the field of
 computational chemistry and represents and warrants to the
 licensee that it is not a competitor of Gaussian, Inc. and that
 it will not use this program in any manner prohibited above.
 ---------------------------------------------------------------
  

 Cite this work as:
 Gaussian 16, Revision A.03,
 M. J. Frisch, G. W. Trucks, H. B. Schlegel, G. E. Scuseria, 
 M. A. Robb, J. R. Cheeseman, G. Scalmani, V. Barone, 
 G. A. Petersson, H. Nakatsuji, X. Li, M. Caricato, A. V. Marenich, 
 J. Bloino, B. G. Janesko, R. Gomperts, B. Mennucci, H. P. Hratchian, 
 J. V. Ortiz, A. F. Izmaylov, J. L. Sonnenberg, D. Williams-Young, 
 F. Ding, F. Lipparini, F. Egidi, J. Goings, B. Peng, A. Petrone, 
 T. Henderson, D. Ranasinghe, V. G. Zakrzewski, J. Gao, N. Rega, 
 G. Zheng, W. Liang, M. Hada, M. Ehara, K. Toyota, R. Fukuda, 
 J. Hasegawa, M. Ishida, T. Nakajima, Y. Honda, O. Kitao, H. Nakai, 
 T. Vreven, K. Throssell, J. A. Montgomery, Jr., J. E. Peralta, 
 F. Ogliaro, M. J. Bearpark, J. J. Heyd, E. N. Brothers, K. N. Kudin, 
 V. N. Staroverov, T. A. Keith, R. Kobayashi, J. Normand, 
 K. Raghavachari, A. P. Rendell, J. C. Burant, S. S. Iyengar, 
 J. Tomasi, M. Cossi, J. M. Millam, M. Klene, C. Adamo, R. Cammi, 
 J. W. Ochterski, R. L. Martin, K. Morokuma, O. Farkas, 
 J. B. Foresman, and D. J. Fox, Gaussian, Inc., Wallingford CT, 2016.
 
 ******************************************
 Gaussian 16:  ES64L-G16RevA.03 25-Dec-2016
                 4-Sep-2021 
 ******************************************
 %nproc=24
 Will use up to   24 processors via shared memory.
 %mem=175gb
 -----------------------------------
 #p cam-b3lyp/Def2SVP td=(nstates=5)
 -----------------------------------
 1/38=1,172=1/1;
 2/12=2,17=6,18=5,40=1/2;
 3/5=43,7=101,11=9,25=1,30=1,74=-40/1,2,3,8;
 4//1;
 5/5=2,38=5/2;
 8/6=1,10=1,108=5/1;
 9/41=5,42=1,70=2/14;
 6/7=2,8=2,9=2,10=2/1;
 99/5=1,9=1/99;
 Leave Link    1 at Sat Sep  4 18:16:02 2021, MaxMem= 23488102400 cpu:               0.7 elap:               0.0
 (Enter /sw/apps/gaussian-16.0/g16/l101.exe)
 --------------------------------
 TDDFT excited states in gaussian
 --------------------------------
 Symbolic Z-matrix:
 Charge =  0 Multiplicity = 1
 Mg                    0.        0.        0. 
 C                    -0.217    -2.218     2.801 
 C                    -1.255     2.442     2.026 
 C                    -0.245     1.85     -2.564 
 C                     0.146    -2.824    -2.037 
 N                    -0.617    -0.009     2.126 
 C                    -0.594    -0.908     3.105 
 C                    -0.936    -0.309     4.502 
 C                    -1.773     0.964     4.032 
 C                    -1.155     1.168     2.66 
 C                    -3.263     0.685     3.863 
 C                     0.345     0.11      5.299 
 C                     0.124     0.397     6.787 
 H                     1.168     0.033     7.733 
 N                    -0.185     1.961    -0.152 
 C                    -0.703     2.8       0.777 
 C                    -0.62      4.156     0.193 
 C                    -0.187     4.015    -1.225 
 C                    -0.214     2.583    -1.38 
 C                    -0.887     5.406     0.974 
 C                     0.181     5.013    -2.277 
 O                     0.303     4.69     -3.508 
 C                     0.31      6.414    -1.837 
 N                    -0.265    -0.413    -2.029 
 C                    -0.279     0.569    -2.937 
 C                    -0.196     0.024    -4.332 
 C                     0.124    -1.533    -4.18 
 C                     0.086    -1.632    -2.635 
 C                    -1.451     0.205    -5.197 
 C                     1.373    -2.07     -4.923 
 C                     2.626    -1.49     -4.306 
 N                     0.15     -2.144     0.303 
 C                     0.173    -3.136    -0.688 
 C                     0.173    -4.438     0.004 
 C                     0.133    -4.111     1.358 
 C                     0.083    -2.695     1.502 
 C                     0.149    -5.715    -0.623 
 C                     0.096    -4.629     2.716 
 O                     0.208    -5.747     3.221 
 C                    -0.255    -3.428     3.701 
 C                     0.717    -3.482     4.848 
 O                     1.931    -3.255     4.669 
 O                     0.038    -3.556     6.003 
 C                     0.943    -3.583     7.183 
 H                    -1.859     3.22      2.497 
 H                    -0.218     2.453    -3.474 
 H                     0.276    -3.747    -2.605 
 H                    -1.554    -0.949     5.132 
 H                    -1.585     1.831     4.665 
 H                    -3.484    -0.377     3.969 
 H                    -3.511     1.027     2.858 
 H                    -3.852     1.301     4.543 
 H                     0.669     1.096     4.966 
 H                     1.13     -0.639     5.189 
 H                    -0.844     0.026     7.125 
 H                     0.062     1.477     6.921 
 H                    -1.344     5.186     1.938 
 H                    -1.651     5.963     0.432 
 H                     0.007     6.02      1.084 
 H                    -0.635     6.744    -1.405 
 H                     0.665     6.97     -2.704 
 H                     1.048     6.466    -1.036 
 H                     0.608     0.501    -4.891 
 H                    -0.692    -2.156    -4.547 
 H                    -1.267     0.74     -6.129 
 H                    -2.204     0.714    -4.596 
 H                    -1.967    -0.72     -5.453 
 H                     1.356    -1.759    -5.967 
 H                     1.452    -3.157    -4.902 
 H                     2.714    -0.522    -4.798 
 H                     3.487    -2.121    -4.529 
 H                     2.495    -1.303    -3.24 
 H                     0.867    -6.333    -0.084 
 H                     0.404    -5.642    -1.68 
 H                    -0.891    -5.999    -0.463 
 H                    -1.283    -3.581     4.028 
 H                     0.698    -4.478     7.755 
 H                     0.833    -2.619     7.68 
 H                     2.       -3.754     6.976 
 Mg                    31.53986   2.84372   2.38943 
 C                     30.95504   6.26526   3.30052 
 C                     30.82078   3.73262  -0.8242 
 C                     31.60598  -0.23574   1.62786 
 C                     31.09012   2.01837   5.74535 
 N                     30.97563   4.77972   1.48069 
 C                     30.84457   6.02405   1.91522 
 C                     30.65988   7.08096   0.79345 
 C                     30.06822   6.119    -0.34823 
 C                     30.68428   4.79635   0.10313 
 C                     28.55549   5.98354  -0.29666 
 C                     32.01956   7.72771   0.35183 
 C                     31.88378   8.98142  -0.51507 
 H                     32.864    10.0512  -0.35012 
 N                     31.73723   1.96166   0.62263 
 C                     31.41731   2.47539  -0.58361 
 C                     31.73203   1.42516  -1.56449 
 C                     32.10902   0.19014  -0.8247 
 C                     31.8053   0.59347   0.53367 
 C                     31.73617   1.66986  -3.04555 
 C                     32.6412  -1.13898  -1.26791 
 O                     32.67307  -2.14859  -0.47893 
 C                     33.03705  -1.249    -2.67954 
 N                     31.16448   1.11341   3.47913 
 C                     31.31638  -0.10095   2.92218 
 C                     31.26031  -1.1907    3.96606 
 C                     31.28104  -0.43643   5.3761 
 C                     31.25431   1.02631   4.88105 
 C                     30.04307  -2.11286   3.90033 
 C                     32.38727  -0.85605   6.38251 
 C                     33.74471  -0.44742   5.85738 
 N                     31.28585   3.93232   4.23834 
 C                     31.08808   3.39014   5.52715 
 C                     30.85169   4.52356   6.44471 
 C                     30.90592   5.654     5.61545 
 C                     31.1382   5.25198   4.27235 
 C                     30.57857   4.4229    7.83804 
 C                     30.8089   7.09523   5.56918 
 O                     30.70695   7.98649   6.41119 
 C                     30.71049   7.54652   4.04831 
 C                     31.67904   8.67758   3.83583 
 O                     32.90401   8.48809   3.93665 
 O                     31.01635   9.73756   3.33819 
 C                     31.93656   10.8814   3.10012 
 H                     30.39355   3.85436  -1.81996 
 H                     31.72868  -1.30456   1.43802 
 H                     31.03898   1.85098   6.82333 
 H                     29.95004   7.86683   1.02216 
 H                     30.44011   6.39717  -1.33093 
 H                     28.13743   6.46441   0.5752 
 H                     28.35596   4.92018  -0.27445 
 H                     28.11196   6.35408  -1.22526 
 H                     32.51905   7.05936  -0.3613 
 H                     32.63389   7.94274   1.20447 
 H                     30.86505   9.38734  -0.49608 
 H                     32.04074   8.70001  -1.55919 
 H                     31.25837   2.62484  -3.29681 
 H                     31.08485   0.91334  -3.49646 
 H                     32.73285   1.58467  -3.48376 
 H                     32.18353  -1.01917  -3.31291 
 H                     33.47466  -2.24375  -2.78365 
 H                     33.7984  -0.48951  -2.8896 
 H                     32.12832  -1.83508   3.89942 
 H                     30.34834  -0.59545   5.93701 
 H                     30.31018  -3.18165   3.79831 
 H                     29.41924  -1.79636   3.07499 
 H                     29.36179  -2.03936   4.7463 
 H                     32.41001  -1.94342   6.48864 
 H                     32.24981  -0.43848   7.37435 
 H                     34.00234  -1.26463   5.17702 
 H                     34.46288  -0.3701    6.67119 
 H                     33.67606   0.46935   5.26032 
 H                     31.16866   5.18661   8.32695 
 H                     30.81545   3.43168   8.21903 
 H                     29.50271   4.61728   7.84044 
 H                     29.67949   7.8501    3.86273 
 H                     31.53204   11.73671   3.6501 
 H                     32.01275   10.97974   2.0009 
 H                     32.93534   10.81601   3.51558 
 
 ITRead=  0  0  0  0  0  0  0  0  0  0  0  0  0  0  0  0  0  0  0  0
 ITRead=  0  0  0  0  0  0  0  0  0  0  0  0  0  0  0  0  0  0  0  0
 ITRead=  0  0  0  0  0  0  0  0  0  0  0  0  0  0  0  0  0  0  0  0
 ITRead=  0  0  0  0  0  0  0  0  0  0  0  0  0  0  0  0  0  0  0  0
 ITRead=  0  0  0  0  0  0  0  0  0  0  0  0  0  0  0  0  0  0  0  0
 ITRead=  0  0  0  0  0  0  0  0  0  0  0  0  0  0  0  0  0  0  0  0
 ITRead=  0  0  0  0  0  0  0  0  0  0  0  0  0  0  0  0  0  0  0  0
 ITRead=  0  0  0  0  0  0  0  0  0  0  0  0  0  0  0  0  0  0
 MicOpt= -1 -1 -1 -1 -1 -1 -1 -1 -1 -1 -1 -1 -1 -1 -1 -1 -1 -1 -1 -1
 MicOpt= -1 -1 -1 -1 -1 -1 -1 -1 -1 -1 -1 -1 -1 -1 -1 -1 -1 -1 -1 -1
 MicOpt= -1 -1 -1 -1 -1 -1 -1 -1 -1 -1 -1 -1 -1 -1 -1 -1 -1 -1 -1 -1
 MicOpt= -1 -1 -1 -1 -1 -1 -1 -1 -1 -1 -1 -1 -1 -1 -1 -1 -1 -1 -1 -1
 MicOpt= -1 -1 -1 -1 -1 -1 -1 -1 -1 -1 -1 -1 -1 -1 -1 -1 -1 -1 -1 -1
 MicOpt= -1 -1 -1 -1 -1 -1 -1 -1 -1 -1 -1 -1 -1 -1 -1 -1 -1 -1 -1 -1
 MicOpt= -1 -1 -1 -1 -1 -1 -1 -1 -1 -1 -1 -1 -1 -1 -1 -1 -1 -1 -1 -1
 MicOpt= -1 -1 -1 -1 -1 -1 -1 -1 -1 -1 -1 -1 -1 -1 -1 -1 -1 -1
 NAtoms=    158 NQM=      158 NQMF=       0 NMMI=      0 NMMIF=      0
                NMic=       0 NMicF=      0.
                    Isotopes and Nuclear Properties:
 (Nuclear quadrupole moments (NQMom) in fm**2, nuclear magnetic moments (NMagM)
  in nuclear magnetons)

  Atom         1           2           3           4           5           6           7           8           9          10
 IAtWgt=          24          12          12          12          12          14          12          12          12          12
 AtmWgt=  23.9850450  12.0000000  12.0000000  12.0000000  12.0000000  14.0030740  12.0000000  12.0000000  12.0000000  12.0000000
 NucSpn=           0           0           0           0           0           2           0           0           0           0
 AtZEff=  -0.0000000  -0.0000000  -0.0000000  -0.0000000  -0.0000000  -0.0000000  -0.0000000  -0.0000000  -0.0000000  -0.0000000
 NQMom=    0.0000000   0.0000000   0.0000000   0.0000000   0.0000000   2.0440000   0.0000000   0.0000000   0.0000000   0.0000000
 NMagM=    0.0000000   0.0000000   0.0000000   0.0000000   0.0000000   0.4037610   0.0000000   0.0000000   0.0000000   0.0000000
 AtZNuc=  12.0000000   6.0000000   6.0000000   6.0000000   6.0000000   7.0000000   6.0000000   6.0000000   6.0000000   6.0000000

  Atom        11          12          13          14          15          16          17          18          19          20
 IAtWgt=          12          12          12           1          14          12          12          12          12          12
 AtmWgt=  12.0000000  12.0000000  12.0000000   1.0078250  14.0030740  12.0000000  12.0000000  12.0000000  12.0000000  12.0000000
 NucSpn=           0           0           0           1           2           0           0           0           0           0
 AtZEff=  -0.0000000  -0.0000000  -0.0000000  -0.0000000  -0.0000000  -0.0000000  -0.0000000  -0.0000000  -0.0000000  -0.0000000
 NQMom=    0.0000000   0.0000000   0.0000000   0.0000000   2.0440000   0.0000000   0.0000000   0.0000000   0.0000000   0.0000000
 NMagM=    0.0000000   0.0000000   0.0000000   2.7928460   0.4037610   0.0000000   0.0000000   0.0000000   0.0000000   0.0000000
 AtZNuc=   6.0000000   6.0000000   6.0000000   1.0000000   7.0000000   6.0000000   6.0000000   6.0000000   6.0000000   6.0000000

  Atom        21          22          23          24          25          26          27          28          29          30
 IAtWgt=          12          16          12          14          12          12          12          12          12          12
 AtmWgt=  12.0000000  15.9949146  12.0000000  14.0030740  12.0000000  12.0000000  12.0000000  12.0000000  12.0000000  12.0000000
 NucSpn=           0           0           0           2           0           0           0           0           0           0
 AtZEff=  -0.0000000  -0.0000000  -0.0000000  -0.0000000  -0.0000000  -0.0000000  -0.0000000  -0.0000000  -0.0000000  -0.0000000
 NQMom=    0.0000000   0.0000000   0.0000000   2.0440000   0.0000000   0.0000000   0.0000000   0.0000000   0.0000000   0.0000000
 NMagM=    0.0000000   0.0000000   0.0000000   0.4037610   0.0000000   0.0000000   0.0000000   0.0000000   0.0000000   0.0000000
 AtZNuc=   6.0000000   8.0000000   6.0000000   7.0000000   6.0000000   6.0000000   6.0000000   6.0000000   6.0000000   6.0000000

  Atom        31          32          33          34          35          36          37          38          39          40
 IAtWgt=          12          14          12          12          12          12          12          12          16          12
 AtmWgt=  12.0000000  14.0030740  12.0000000  12.0000000  12.0000000  12.0000000  12.0000000  12.0000000  15.9949146  12.0000000
 NucSpn=           0           2           0           0           0           0           0           0           0           0
 AtZEff=  -0.0000000  -0.0000000  -0.0000000  -0.0000000  -0.0000000  -0.0000000  -0.0000000  -0.0000000  -0.0000000  -0.0000000
 NQMom=    0.0000000   2.0440000   0.0000000   0.0000000   0.0000000   0.0000000   0.0000000   0.0000000   0.0000000   0.0000000
 NMagM=    0.0000000   0.4037610   0.0000000   0.0000000   0.0000000   0.0000000   0.0000000   0.0000000   0.0000000   0.0000000
 AtZNuc=   6.0000000   7.0000000   6.0000000   6.0000000   6.0000000   6.0000000   6.0000000   6.0000000   8.0000000   6.0000000

  Atom        41          42          43          44          45          46          47          48          49          50
 IAtWgt=          12          16          16          12           1           1           1           1           1           1
 AtmWgt=  12.0000000  15.9949146  15.9949146  12.0000000   1.0078250   1.0078250   1.0078250   1.0078250   1.0078250   1.0078250
 NucSpn=           0           0           0           0           1           1           1           1           1           1
 AtZEff=  -0.0000000  -0.0000000  -0.0000000  -0.0000000  -0.0000000  -0.0000000  -0.0000000  -0.0000000  -0.0000000  -0.0000000
 NQMom=    0.0000000   0.0000000   0.0000000   0.0000000   0.0000000   0.0000000   0.0000000   0.0000000   0.0000000   0.0000000
 NMagM=    0.0000000   0.0000000   0.0000000   0.0000000   2.7928460   2.7928460   2.7928460   2.7928460   2.7928460   2.7928460
 AtZNuc=   6.0000000   8.0000000   8.0000000   6.0000000   1.0000000   1.0000000   1.0000000   1.0000000   1.0000000   1.0000000

  Atom        51          52          53          54          55          56          57          58          59          60
 IAtWgt=           1           1           1           1           1           1           1           1           1           1
 AtmWgt=   1.0078250   1.0078250   1.0078250   1.0078250   1.0078250   1.0078250   1.0078250   1.0078250   1.0078250   1.0078250
 NucSpn=           1           1           1           1           1           1           1           1           1           1
 AtZEff=  -0.0000000  -0.0000000  -0.0000000  -0.0000000  -0.0000000  -0.0000000  -0.0000000  -0.0000000  -0.0000000  -0.0000000
 NQMom=    0.0000000   0.0000000   0.0000000   0.0000000   0.0000000   0.0000000   0.0000000   0.0000000   0.0000000   0.0000000
 NMagM=    2.7928460   2.7928460   2.7928460   2.7928460   2.7928460   2.7928460   2.7928460   2.7928460   2.7928460   2.7928460
 AtZNuc=   1.0000000   1.0000000   1.0000000   1.0000000   1.0000000   1.0000000   1.0000000   1.0000000   1.0000000   1.0000000

  Atom        61          62          63          64          65          66          67          68          69          70
 IAtWgt=           1           1           1           1           1           1           1           1           1           1
 AtmWgt=   1.0078250   1.0078250   1.0078250   1.0078250   1.0078250   1.0078250   1.0078250   1.0078250   1.0078250   1.0078250
 NucSpn=           1           1           1           1           1           1           1           1           1           1
 AtZEff=  -0.0000000  -0.0000000  -0.0000000  -0.0000000  -0.0000000  -0.0000000  -0.0000000  -0.0000000  -0.0000000  -0.0000000
 NQMom=    0.0000000   0.0000000   0.0000000   0.0000000   0.0000000   0.0000000   0.0000000   0.0000000   0.0000000   0.0000000
 NMagM=    2.7928460   2.7928460   2.7928460   2.7928460   2.7928460   2.7928460   2.7928460   2.7928460   2.7928460   2.7928460
 AtZNuc=   1.0000000   1.0000000   1.0000000   1.0000000   1.0000000   1.0000000   1.0000000   1.0000000   1.0000000   1.0000000

  Atom        71          72          73          74          75          76          77          78          79          80
 IAtWgt=           1           1           1           1           1           1           1           1           1          24
 AtmWgt=   1.0078250   1.0078250   1.0078250   1.0078250   1.0078250   1.0078250   1.0078250   1.0078250   1.0078250  23.9850450
 NucSpn=           1           1           1           1           1           1           1           1           1           0
 AtZEff=  -0.0000000  -0.0000000  -0.0000000  -0.0000000  -0.0000000  -0.0000000  -0.0000000  -0.0000000  -0.0000000  -0.0000000
 NQMom=    0.0000000   0.0000000   0.0000000   0.0000000   0.0000000   0.0000000   0.0000000   0.0000000   0.0000000   0.0000000
 NMagM=    2.7928460   2.7928460   2.7928460   2.7928460   2.7928460   2.7928460   2.7928460   2.7928460   2.7928460   0.0000000
 AtZNuc=   1.0000000   1.0000000   1.0000000   1.0000000   1.0000000   1.0000000   1.0000000   1.0000000   1.0000000  12.0000000

  Atom        81          82          83          84          85          86          87          88          89          90
 IAtWgt=          12          12          12          12          14          12          12          12          12          12
 AtmWgt=  12.0000000  12.0000000  12.0000000  12.0000000  14.0030740  12.0000000  12.0000000  12.0000000  12.0000000  12.0000000
 NucSpn=           0           0           0           0           2           0           0           0           0           0
 AtZEff=  -0.0000000  -0.0000000  -0.0000000  -0.0000000  -0.0000000  -0.0000000  -0.0000000  -0.0000000  -0.0000000  -0.0000000
 NQMom=    0.0000000   0.0000000   0.0000000   0.0000000   2.0440000   0.0000000   0.0000000   0.0000000   0.0000000   0.0000000
 NMagM=    0.0000000   0.0000000   0.0000000   0.0000000   0.4037610   0.0000000   0.0000000   0.0000000   0.0000000   0.0000000
 AtZNuc=   6.0000000   6.0000000   6.0000000   6.0000000   7.0000000   6.0000000   6.0000000   6.0000000   6.0000000   6.0000000

  Atom        91          92          93          94          95          96          97          98          99         100
 IAtWgt=          12          12           1          14          12          12          12          12          12          12
 AtmWgt=  12.0000000  12.0000000   1.0078250  14.0030740  12.0000000  12.0000000  12.0000000  12.0000000  12.0000000  12.0000000
 NucSpn=           0           0           1           2           0           0           0           0           0           0
 AtZEff=  -0.0000000  -0.0000000  -0.0000000  -0.0000000  -0.0000000  -0.0000000  -0.0000000  -0.0000000  -0.0000000  -0.0000000
 NQMom=    0.0000000   0.0000000   0.0000000   2.0440000   0.0000000   0.0000000   0.0000000   0.0000000   0.0000000   0.0000000
 NMagM=    0.0000000   0.0000000   2.7928460   0.4037610   0.0000000   0.0000000   0.0000000   0.0000000   0.0000000   0.0000000
 AtZNuc=   6.0000000   6.0000000   1.0000000   7.0000000   6.0000000   6.0000000   6.0000000   6.0000000   6.0000000   6.0000000

  Atom       101         102         103         104         105         106         107         108         109         110
 IAtWgt=          16          12          14          12          12          12          12          12          12          12
 AtmWgt=  15.9949146  12.0000000  14.0030740  12.0000000  12.0000000  12.0000000  12.0000000  12.0000000  12.0000000  12.0000000
 NucSpn=           0           0           2           0           0           0           0           0           0           0
 AtZEff=  -0.0000000  -0.0000000  -0.0000000  -0.0000000  -0.0000000  -0.0000000  -0.0000000  -0.0000000  -0.0000000  -0.0000000
 NQMom=    0.0000000   0.0000000   2.0440000   0.0000000   0.0000000   0.0000000   0.0000000   0.0000000   0.0000000   0.0000000
 NMagM=    0.0000000   0.0000000   0.4037610   0.0000000   0.0000000   0.0000000   0.0000000   0.0000000   0.0000000   0.0000000
 AtZNuc=   8.0000000   6.0000000   7.0000000   6.0000000   6.0000000   6.0000000   6.0000000   6.0000000   6.0000000   6.0000000

  Atom       111         112         113         114         115         116         117         118         119         120
 IAtWgt=          14          12          12          12          12          12          12          16          12          12
 AtmWgt=  14.0030740  12.0000000  12.0000000  12.0000000  12.0000000  12.0000000  12.0000000  15.9949146  12.0000000  12.0000000
 NucSpn=           2           0           0           0           0           0           0           0           0           0
 AtZEff=  -0.0000000  -0.0000000  -0.0000000  -0.0000000  -0.0000000  -0.0000000  -0.0000000  -0.0000000  -0.0000000  -0.0000000
 NQMom=    2.0440000   0.0000000   0.0000000   0.0000000   0.0000000   0.0000000   0.0000000   0.0000000   0.0000000   0.0000000
 NMagM=    0.4037610   0.0000000   0.0000000   0.0000000   0.0000000   0.0000000   0.0000000   0.0000000   0.0000000   0.0000000
 AtZNuc=   7.0000000   6.0000000   6.0000000   6.0000000   6.0000000   6.0000000   6.0000000   8.0000000   6.0000000   6.0000000

  Atom       121         122         123         124         125         126         127         128         129         130
 IAtWgt=          16          16          12           1           1           1           1           1           1           1
 AtmWgt=  15.9949146  15.9949146  12.0000000   1.0078250   1.0078250   1.0078250   1.0078250   1.0078250   1.0078250   1.0078250
 NucSpn=           0           0           0           1           1           1           1           1           1           1
 AtZEff=  -0.0000000  -0.0000000  -0.0000000  -0.0000000  -0.0000000  -0.0000000  -0.0000000  -0.0000000  -0.0000000  -0.0000000
 NQMom=    0.0000000   0.0000000   0.0000000   0.0000000   0.0000000   0.0000000   0.0000000   0.0000000   0.0000000   0.0000000
 NMagM=    0.0000000   0.0000000   0.0000000   2.7928460   2.7928460   2.7928460   2.7928460   2.7928460   2.7928460   2.7928460
 AtZNuc=   8.0000000   8.0000000   6.0000000   1.0000000   1.0000000   1.0000000   1.0000000   1.0000000   1.0000000   1.0000000

  Atom       131         132         133         134         135         136         137         138         139         140
 IAtWgt=           1           1           1           1           1           1           1           1           1           1
 AtmWgt=   1.0078250   1.0078250   1.0078250   1.0078250   1.0078250   1.0078250   1.0078250   1.0078250   1.0078250   1.0078250
 NucSpn=           1           1           1           1           1           1           1           1           1           1
 AtZEff=  -0.0000000  -0.0000000  -0.0000000  -0.0000000  -0.0000000  -0.0000000  -0.0000000  -0.0000000  -0.0000000  -0.0000000
 NQMom=    0.0000000   0.0000000   0.0000000   0.0000000   0.0000000   0.0000000   0.0000000   0.0000000   0.0000000   0.0000000
 NMagM=    2.7928460   2.7928460   2.7928460   2.7928460   2.7928460   2.7928460   2.7928460   2.7928460   2.7928460   2.7928460
 AtZNuc=   1.0000000   1.0000000   1.0000000   1.0000000   1.0000000   1.0000000   1.0000000   1.0000000   1.0000000   1.0000000

  Atom       141         142         143         144         145         146         147         148         149         150
 IAtWgt=           1           1           1           1           1           1           1           1           1           1
 AtmWgt=   1.0078250   1.0078250   1.0078250   1.0078250   1.0078250   1.0078250   1.0078250   1.0078250   1.0078250   1.0078250
 NucSpn=           1           1           1           1           1           1           1           1           1           1
 AtZEff=  -0.0000000  -0.0000000  -0.0000000  -0.0000000  -0.0000000  -0.0000000  -0.0000000  -0.0000000  -0.0000000  -0.0000000
 NQMom=    0.0000000   0.0000000   0.0000000   0.0000000   0.0000000   0.0000000   0.0000000   0.0000000   0.0000000   0.0000000
 NMagM=    2.7928460   2.7928460   2.7928460   2.7928460   2.7928460   2.7928460   2.7928460   2.7928460   2.7928460   2.7928460
 AtZNuc=   1.0000000   1.0000000   1.0000000   1.0000000   1.0000000   1.0000000   1.0000000   1.0000000   1.0000000   1.0000000

  Atom       151         152         153         154         155         156         157         158
 IAtWgt=           1           1           1           1           1           1           1           1
 AtmWgt=   1.0078250   1.0078250   1.0078250   1.0078250   1.0078250   1.0078250   1.0078250   1.0078250
 NucSpn=           1           1           1           1           1           1           1           1
 AtZEff=  -0.0000000  -0.0000000  -0.0000000  -0.0000000  -0.0000000  -0.0000000  -0.0000000  -0.0000000
 NQMom=    0.0000000   0.0000000   0.0000000   0.0000000   0.0000000   0.0000000   0.0000000   0.0000000
 NMagM=    2.7928460   2.7928460   2.7928460   2.7928460   2.7928460   2.7928460   2.7928460   2.7928460
 AtZNuc=   1.0000000   1.0000000   1.0000000   1.0000000   1.0000000   1.0000000   1.0000000   1.0000000
 Leave Link  101 at Sat Sep  4 18:16:03 2021, MaxMem= 23488102400 cpu:               3.3 elap:               0.2
 (Enter /sw/apps/gaussian-16.0/g16/l202.exe)
 Stoichiometry    C68H72Mg2N8O8
 Framework group  C1[X(C68H72Mg2N8O8)]
 Deg. of freedom   468
 Full point group                 C1      NOp   1
 Largest Abelian subgroup         C1      NOp   1
 Largest concise Abelian subgroup C1      NOp   1
                         Standard orientation:                         
 ---------------------------------------------------------------------
 Center     Atomic      Atomic             Coordinates (Angstroms)
 Number     Number       Type             X           Y           Z
 ---------------------------------------------------------------------
      1         12           0       15.779633    0.624760    0.482224
      2          6           0       16.118926   -2.456458   -1.307522
      3          6           0       16.597763    2.226787   -2.417300
      4          6           0       15.931311    3.322177    2.142813
      5          6           0       16.108928   -1.217487    3.422182
      6          7           0       16.272079   -0.128860   -1.540200
      7          6           0       16.308526   -1.329286   -2.110131
      8          6           0       16.492358   -1.273815   -3.656256
      9          6           0       17.185771    0.156850   -3.776142
     10          6           0       16.625080    0.804369   -2.522241
     11          6           0       18.706288    0.108106   -3.665899
     12          6           0       15.125644   -1.313784   -4.419293
     13          6           0       15.224213   -1.591659   -5.922098
     14          1           0       14.183396   -2.385862   -6.557150
     15          7           0       15.721972    2.505259   -0.120478
     16          6           0       16.075918    2.975867   -1.340534
     17          6           0       15.854136    4.437137   -1.293787
     18          6           0       15.523117    4.802397    0.111597
     19          6           0       15.740718    3.545575    0.781242
     20          6           0       15.915580    5.317830   -2.503892
     21          6           0       15.090990    6.083783    0.751479
     22          8           0       15.080568    6.240783    2.020265
     23          6           0       14.760276    7.194294   -0.159803
     24          7           0       16.208826    1.038497    2.482787
     25          6           0       16.148912    2.287568    2.957355
     26          6           0       16.214581    2.306091    4.455782
     27          6           0       16.087169    0.784411    4.922697
     28          6           0       16.050403    0.111953    3.528165
     29          6           0       17.483062    2.921579    5.062528
     30          6           0       14.960445    0.450673    5.932415
     31          6           0       13.611116    0.629765    5.273375
     32          7           0       15.886727   -1.477977    1.009551
     33          6           0       16.045920   -2.018078    2.293927
     34          6           0       16.172560   -3.478561    2.135752
     35          6           0       16.094345   -3.686381    0.760056
     36          6           0       15.955650   -2.432676    0.098787
     37          6           0       16.394051   -4.414280    3.184468
     38          6           0       16.120410   -4.673810   -0.306791
     39          8           0       16.123265   -5.904948   -0.349003
     40          6           0       16.259784   -3.907340   -1.695649
     41          6           0       15.239521   -4.485340   -2.638140
     42          8           0       14.018528   -4.326005   -2.435272
     43          8           0       15.856302   -4.925133   -3.745707
     44          6           0       14.897096   -5.484296   -4.735360
     45          1           0       17.070419    2.822982   -3.200300
     46          1           0       15.879114    4.219180    2.763376
     47          1           0       16.129569   -1.864588    4.300981
     48          1           0       17.150281   -2.041708   -4.063566
     49          1           0       16.853684    0.697043   -4.662501
     50          1           0       19.054248   -0.888207   -3.393492
     51          1           0       18.964963    0.827428   -2.888623
     52          1           0       19.172927    0.474597   -4.580617
     53          1           0       14.698133   -0.311434   -4.443609
     54          1           0       14.449734   -2.037477   -3.962414
     55          1           0       16.210960   -1.967535   -6.194047
     56          1           0       15.140700   -0.642287   -6.451171
     57          1           0       16.341843    4.794503   -3.358862
     58          1           0       16.631824    6.109638   -2.285388
     59          1           0       14.945982    5.754906   -2.743010
     60          1           0       15.629794    7.425856   -0.775325
     61          1           0       14.386825    8.000037    0.471198
     62          1           0       13.977738    6.867503   -0.845215
     63          1           0       15.389201    2.879076    4.876330
     64          1           0       16.995140    0.428821    5.410364
     65          1           0       17.285279    3.749138    5.744241
     66          1           0       18.130164    3.235349    4.243933
     67          1           0       18.126111    2.216966    5.589241
     68          1           0       14.996505    1.133890    6.780272
     69          1           0       15.019287   -0.565477    6.322581
     70          1           0       13.428553    1.698570    5.379002
     71          1           0       12.851299    0.050125    5.798643
     72          1           0       13.657039    0.410927    4.206376
     73          1           0       15.731287   -5.256652    2.986678
     74          1           0       16.191758   -3.971516    4.159476
     75          1           0       17.451055   -4.635714    3.037614
     76          1           0       17.278840   -4.072586   -2.043990
     77          1           0       15.221344   -6.501017   -4.957567
     78          1           0       14.855432   -4.774506   -5.561718
     79          1           0       13.883775   -5.665527   -4.375255
     80         12           0      -15.949856   -0.712211    0.377533
     81          6           0      -15.857205    2.148810   -1.786955
     82          6           0      -15.169887    1.392356    2.946012
     83          6           0      -15.580776   -3.264813    2.225623
     84          6           0      -15.588461   -2.699138   -2.462745
     85          7           0      -15.586186    1.468481    0.445249
     86          6           0      -15.639132    2.461999   -0.429090
     87          6           0      -15.527507    3.877472    0.198218
     88          6           0      -14.754966    3.481512    1.549239
     89          6           0      -15.222222    2.033566    1.682602
     90          6           0      -13.242616    3.483573    1.400401
     91          6           0      -16.931365    4.508530    0.503162
     92          6           0      -16.907556    6.003918    0.827182
     93          1           0      -18.023600    6.831384    0.377501
     94          7           0      -15.933641   -0.874224    2.355425
     95          6           0      -15.614257    0.086324    3.247963
     96          6           0      -15.737111   -0.539417    4.573675
     97          6           0      -15.995007   -1.992795    4.384294
     98          6           0      -15.822019   -2.106509    2.949987
     99          6           0      -15.688946    0.246219    5.851913
    100          6           0      -16.328008   -3.099861    5.338089
    101          8           0      -16.275577   -4.331009    4.985464
    102          6           0      -16.626537   -2.704904    6.722427
    103          7           0      -15.419400   -2.681233   -0.027312
    104          6           0      -15.384010   -3.602826    0.951131
    105          6           0      -15.248653   -4.995753    0.383842
    106          6           0      -15.444508   -4.837373   -1.195437
    107          6           0      -15.576211   -3.300921   -1.281279
    108          6           0      -13.922255   -5.701989    0.663614
    109          6           0      -16.543277   -5.711664   -1.859522
    110          6           0      -17.909928   -5.267952   -1.389664
    111          7           0      -15.940874   -0.385697   -1.758198
    112          6           0      -15.748631   -1.353638   -2.768265
    113          6           0      -15.710361   -0.634921   -4.058389
    114          6           0      -15.861155    0.714374   -3.704592
    115          6           0      -15.964422    0.830420   -2.292019
    116          6           0      -15.505542   -1.228743   -5.335699
    117          6           0      -15.945783    2.067895   -4.204109
    118          8           0      -16.005592    2.579315   -5.321513
    119          6           0      -15.820099    3.068681   -2.975686
    120          6           0      -16.911131    4.096595   -3.100498
    121          8           0      -18.105768    3.765548   -3.001139
    122          8           0      -16.361683    5.324791   -3.098707
    123          6           0      -17.405029    6.378832   -3.209434
    124          1           0      -14.706230    1.922766    3.778221
    125          1           0      -15.555651   -4.188621    2.808221
    126          1           0      -15.577221   -3.256443   -3.401873
    127          1           0      -14.937400    4.582887   -0.374438
    128          1           0      -15.103292    4.073694    2.391480
    129          1           0      -12.938870    3.636504    0.375461
    130          1           0      -12.911027    2.515659    1.752864
    131          1           0      -12.798243    4.219144    2.076999
    132          1           0      -17.300840    4.115053    1.458881
    133          1           0      -17.615080    4.324209   -0.302565
    134          1           0      -15.951427    6.468876    0.557785
    135          1           0      -16.968410    6.125059    1.911450
    136          1           0      -15.323108    1.266596    5.683377
    137          1           0      -14.922347   -0.216426    6.482902
    138          1           0      -16.640429    0.237353    6.387877
    139          1           0      -15.774885   -2.170996    7.137285
    140          1           0      -16.927508   -3.623444    7.229940
    141          1           0      -17.465258   -1.999893    6.711964
    142          1           0      -16.022514   -5.647591    0.770305
    143          1           0      -14.532230   -5.105943   -1.748117
    144          1           0      -14.045085   -6.672985    1.179509
    145          1           0      -13.298276   -5.037825    1.246760
    146          1           0      -13.304577   -5.888777   -0.213195
    147          1           0      -16.433468   -6.754947   -1.553490
    148          1           0      -16.516108   -5.689562   -2.943856
    149          1           0      -18.022806   -5.787473   -0.433394
    150          1           0      -18.676771   -5.574370   -2.098249
    151          1           0      -17.924933   -4.191374   -1.183711
    152          1           0      -16.214560   -0.767948   -6.010572
    153          1           0      -15.635497   -2.308303   -5.297709
    154          1           0      -14.464999   -0.946697   -5.517314
    155          1           0      -14.827285    3.518083   -3.019506
    156          1           0      -17.144194    6.996994   -4.074020
    157          1           0      -17.431097    6.878197   -2.222664
    158          1           0      -18.409175    6.064751   -3.469220
 ---------------------------------------------------------------------
 Rotational constants (GHZ):           0.0202653           0.0016342           0.0016198
 Leave Link  202 at Sat Sep  4 18:16:03 2021, MaxMem= 23488102400 cpu:               0.3 elap:               0.0
 (Enter /sw/apps/gaussian-16.0/g16/l301.exe)
 Standard basis: def2SVP (5D, 7F)
 Ernie: Thresh=  0.10000D-02 Tol=  0.10000D-05 Strict=F.
 There are  1658 symmetry adapted cartesian basis functions of A   symmetry.
 There are  1572 symmetry adapted basis functions of A   symmetry.
  1572 basis functions,  2678 primitive gaussians,  1658 cartesian basis functions
   312 alpha electrons      312 beta electrons
       nuclear repulsion energy     12305.5178611077 Hartrees.
 IExCor=20419 DFT=T Ex+Corr=CAM-B3LYP ExCW=0 ScaHFX=  1.000000
 ScaDFX=  1.000000  1.000000  1.000000  0.810000 ScalE2=  1.000000  1.000000
 IRadAn=      5 IRanWt=     -1 IRanGd=            0 ICorTp=0 IEmpDi=  4
 HFx  wShort=  0.000000 wLong=  0.330000 cFull=  0.190000 cShort=  0.000000 cLong=  0.460000
 DFx  wShort=  0.000000 wLong=  0.330000 cFull=  0.190000 cShort=  0.000000 cLong=  0.460000
 NAtoms=  158 NActive=  158 NUniq=  158 SFac= 1.00D+00 NAtFMM=   60 NAOKFM=T Big=T
 Integral buffers will be    131072 words long.
 Raffenetti 1 integral format.
 Two-electron integral symmetry is turned on.
 Leave Link  301 at Sat Sep  4 18:16:03 2021, MaxMem= 23488102400 cpu:               1.5 elap:               0.1
 (Enter /sw/apps/gaussian-16.0/g16/l302.exe)
 NPDir=0 NMtPBC=     1 NCelOv=     1 NCel=       1 NClECP=     1 NCelD=      1
         NCelK=      1 NCelE2=     1 NClLst=     1 CellRange=     0.0.
 One-electron integrals computed using PRISM.
 One-electron integral symmetry used in STVInt
   1 Symmetry operations used in ECPInt.
 ECPInt:  NShTT=  271216 NPrTT=  987664 LenC2=  103957 LenP2D=  239866.
 LDataN:  DoStor=T MaxTD1= 4 Len=   56
 NBasis=  1572 RedAO= T EigKep=  3.36D-04  NBF=  1572
 NBsUse=  1572 1.00D-06 EigRej= -1.00D+00 NBFU=  1572
 Precomputing XC quadrature grid using
 IXCGrd= 4 IRadAn=           5 IRanWt=          -1 IRanGd=           0 AccXCQ= 0.00D+00.
 Generated NRdTot=       0 NPtTot=           0 NUsed=           0 NTot=          32
 NSgBfM=   812   812   812   812   812 MxSgAt=   158 MxSgA2=    79.
 Leave Link  302 at Sat Sep  4 18:16:07 2021, MaxMem= 23488102400 cpu:              97.2 elap:               4.1
 (Enter /sw/apps/gaussian-16.0/g16/l303.exe)
 DipDrv:  MaxL=1.
 Leave Link  303 at Sat Sep  4 18:16:07 2021, MaxMem= 23488102400 cpu:               7.6 elap:               0.4
 (Enter /sw/apps/gaussian-16.0/g16/l308.exe)
 Leave Link  308 at Sat Sep  4 18:16:08 2021, MaxMem= 23488102400 cpu:              18.0 elap:               0.8
 (Enter /sw/apps/gaussian-16.0/g16/l401.exe)
 ExpMin= 3.36D-02 ExpMax= 4.95D+03 ExpMxC= 7.45D+02 IAcc=3 IRadAn=         5 AccDes= 0.00D+00
 Harris functional with IExCor=20419 and IRadAn=       5 diagonalized for initial guess.
 HarFok:  IExCor=20419 AccDes= 0.00D+00 IRadAn=         5 IDoV= 1 UseB2=F ITyADJ=14
 ICtDFT=  3500011 ScaDFX=  1.000000  1.000000  1.000000  1.000000
 FoFCou: FMM=F IPFlag=           0 FMFlag=      100000 FMFlg1=        2001
         NFxFlg=           0 DoJE=T BraDBF=F KetDBF=T FulRan=T
         wScrn=  0.000000 ICntrl=       500 IOpCl=  0 I1Cent=   200000004 NGrid=           0
         NMat0=    1 NMatS0=      1 NMatT0=    0 NMatD0=    1 NMtDS0=    0 NMtDT0=    0
 Petite list used in FoFCou.
 Harris En= -3918.65801405824    
 JPrj=0 DoOrth=F DoCkMO=F.
 Leave Link  401 at Sat Sep  4 18:16:15 2021, MaxMem= 23488102400 cpu:             160.1 elap:               6.7
 (Enter /sw/apps/gaussian-16.0/g16/l502.exe)
 Integral symmetry usage will be decided dynamically.
 Closed shell SCF:
 Using DIIS extrapolation, IDIIS=  1040.
 NGot= 23488102400 LenX= 23482547354 LenY= 23479796732
 Requested convergence on RMS density matrix=1.00D-08 within 128 cycles.
 Requested convergence on MAX density matrix=1.00D-06.
 Requested convergence on             energy=1.00D-06.
 No special actions if energy rises.
 Fock matrices will be formed incrementally for  20 cycles.

 Cycle   1  Pass 1  IDiag  1:
 FoFJK:  IHMeth= 1 ICntrl=       0 DoSepK=T KAlg= 0 I1Cent=           0 FoldK=F
 IRaf=         1 NMat=       1 IRICut=       1 DoRegI=T DoRafI=F ISym2E= 0 IDoP0=0 IntGTp=1.
 FoFCou: FMM=T IPFlag=           0 FMFlag=      100000 FMFlg1=        2001
         NFxFlg=           0 DoJE=T BraDBF=F KetDBF=F FulRan=T
         wScrn=  0.000000 ICntrl=       500 IOpCl=  0 I1Cent=           0 NGrid=           0
         NMat0=    1 NMatS0=      1 NMatT0=    0 NMatD0=    1 NMtDS0=    0 NMtDT0=    0
 Symmetry not used in FoFCou.
 FMM levels:  10  Number of levels for PrismC:   9
 E= -4068.94932474774    
 DIIS: error= 2.04D-02 at cycle   1 NSaved=   1.
 NSaved= 1 IEnMin= 1 EnMin= -4068.94932474774     IErMin= 1 ErrMin= 2.04D-02
 ErrMax= 2.04D-02  0.00D+00 EMaxC= 1.00D-01 BMatC= 1.69D+00 BMatP= 1.69D+00
 IDIUse=3 WtCom= 7.96D-01 WtEn= 2.04D-01
 Coeff-Com:  0.100D+01
 Coeff-En:   0.100D+01
 Coeff:      0.100D+01
 Gap=     0.120 Goal=   None    Shift=    0.000
 GapD=    0.120 DampG=1.000 DampE=0.500 DampFc=0.5000 IDamp=-1.
 Damping current iteration by 5.00D-01
 RMSDP=1.57D-03 MaxDP=1.35D-01              OVMax= 2.03D-01

 Cycle   2  Pass 1  IDiag  1:
 RMSU=  7.69D-04    CP:  9.82D-01
 E= -4069.33824295486     Delta-E=       -0.388918207125 Rises=F Damp=T
 DIIS: error= 1.27D-02 at cycle   2 NSaved=   2.
 NSaved= 2 IEnMin= 2 EnMin= -4069.33824295486     IErMin= 2 ErrMin= 1.27D-02
 ErrMax= 1.27D-02  0.00D+00 EMaxC= 1.00D-01 BMatC= 3.07D-01 BMatP= 1.69D+00
 IDIUse=3 WtCom= 8.73D-01 WtEn= 1.27D-01
 Coeff-Com: -0.213D+00 0.121D+01
 Coeff-En:   0.000D+00 0.100D+01
 Coeff:     -0.186D+00 0.119D+01
 Gap=     0.138 Goal=   None    Shift=    0.000
 RMSDP=7.65D-04 MaxDP=9.43D-02 DE=-3.89D-01 OVMax= 1.88D-01

 Cycle   3  Pass 1  IDiag  1:
 RMSU=  7.32D-04    CP:  9.68D-01  1.24D+00
 E= -4069.62807984945     Delta-E=       -0.289836894586 Rises=F Damp=F
 DIIS: error= 1.58D-02 at cycle   3 NSaved=   3.
 NSaved= 3 IEnMin= 3 EnMin= -4069.62807984945     IErMin= 2 ErrMin= 1.27D-02
 ErrMax= 1.58D-02  0.00D+00 EMaxC= 1.00D-01 BMatC= 2.02D-01 BMatP= 3.07D-01
 IDIUse=3 WtCom= 8.42D-01 WtEn= 1.58D-01
 Coeff-Com: -0.267D+00 0.652D+00 0.616D+00
 Coeff-En:   0.000D+00 0.000D+00 0.100D+01
 Coeff:     -0.225D+00 0.549D+00 0.676D+00
 Gap=     0.125 Goal=   None    Shift=    0.000
 RMSDP=5.08D-04 MaxDP=4.88D-02 DE=-2.90D-01 OVMax= 1.42D-01

 Cycle   4  Pass 1  IDiag  1:
 RMSU=  2.65D-04    CP:  9.65D-01  1.55D+00  5.06D-01
 E= -4069.76515946240     Delta-E=       -0.137079612956 Rises=F Damp=F
 DIIS: error= 7.31D-03 at cycle   4 NSaved=   4.
 NSaved= 4 IEnMin= 4 EnMin= -4069.76515946240     IErMin= 4 ErrMin= 7.31D-03
 ErrMax= 7.31D-03  0.00D+00 EMaxC= 1.00D-01 BMatC= 5.04D-02 BMatP= 2.02D-01
 IDIUse=3 WtCom= 9.27D-01 WtEn= 7.31D-02
 Coeff-Com: -0.109D+00 0.226D+00 0.409D+00 0.474D+00
 Coeff-En:   0.000D+00 0.000D+00 0.220D+00 0.780D+00
 Coeff:     -0.101D+00 0.209D+00 0.395D+00 0.497D+00
 Gap=     0.123 Goal=   None    Shift=    0.000
 RMSDP=2.00D-04 MaxDP=2.06D-02 DE=-1.37D-01 OVMax= 6.16D-02

 Cycle   5  Pass 1  IDiag  1:
 RMSU=  7.57D-05    CP:  9.64D-01  1.49D+00  6.89D-01  5.50D-01
 E= -4069.81055878579     Delta-E=       -0.045399323382 Rises=F Damp=F
 DIIS: error= 7.89D-04 at cycle   5 NSaved=   5.
 NSaved= 5 IEnMin= 5 EnMin= -4069.81055878579     IErMin= 5 ErrMin= 7.89D-04
 ErrMax= 7.89D-04  0.00D+00 EMaxC= 1.00D-01 BMatC= 1.16D-03 BMatP= 5.04D-02
 IDIUse=3 WtCom= 9.92D-01 WtEn= 7.89D-03
 Coeff-Com: -0.357D-01 0.700D-01 0.165D+00 0.249D+00 0.552D+00
 Coeff-En:   0.000D+00 0.000D+00 0.000D+00 0.000D+00 0.100D+01
 Coeff:     -0.354D-01 0.695D-01 0.164D+00 0.247D+00 0.555D+00
 Gap=     0.123 Goal=   None    Shift=    0.000
 RMSDP=4.06D-05 MaxDP=4.17D-03 DE=-4.54D-02 OVMax= 1.64D-02

 Cycle   6  Pass 1  IDiag  1:
 RMSU=  3.01D-05    CP:  9.64D-01  1.49D+00  6.81D-01  6.21D-01  7.60D-01
 E= -4069.81155979337     Delta-E=       -0.001001007580 Rises=F Damp=F
 DIIS: error= 2.20D-04 at cycle   6 NSaved=   6.
 NSaved= 6 IEnMin= 6 EnMin= -4069.81155979337     IErMin= 6 ErrMin= 2.20D-04
 ErrMax= 2.20D-04  0.00D+00 EMaxC= 1.00D-01 BMatC= 1.75D-04 BMatP= 1.16D-03
 IDIUse=3 WtCom= 9.98D-01 WtEn= 2.20D-03
 Coeff-Com:  0.233D-02-0.681D-02 0.108D-01 0.397D-01 0.306D+00 0.648D+00
 Coeff-En:   0.000D+00 0.000D+00 0.000D+00 0.000D+00 0.102D+00 0.898D+00
 Coeff:      0.232D-02-0.679D-02 0.107D-01 0.396D-01 0.306D+00 0.648D+00
 Gap=     0.123 Goal=   None    Shift=    0.000
 RMSDP=1.57D-05 MaxDP=1.24D-03 DE=-1.00D-03 OVMax= 7.23D-03

 Cycle   7  Pass 1  IDiag  1:
 RMSU=  1.06D-05    CP:  9.64D-01  1.50D+00  6.87D-01  6.21D-01  8.60D-01
                    CP:  7.50D-01
 E= -4069.81174712318     Delta-E=       -0.000187329812 Rises=F Damp=F
 DIIS: error= 8.38D-05 at cycle   7 NSaved=   7.
 NSaved= 7 IEnMin= 7 EnMin= -4069.81174712318     IErMin= 7 ErrMin= 8.38D-05
 ErrMax= 8.38D-05  0.00D+00 EMaxC= 1.00D-01 BMatC= 2.05D-05 BMatP= 1.75D-04
 IDIUse=1 WtCom= 1.00D+00 WtEn= 0.00D+00
 Coeff-Com:  0.445D-02-0.972D-02-0.899D-02-0.388D-02 0.102D+00 0.329D+00
 Coeff-Com:  0.588D+00
 Coeff:      0.445D-02-0.972D-02-0.899D-02-0.388D-02 0.102D+00 0.329D+00
 Coeff:      0.588D+00
 Gap=     0.123 Goal=   None    Shift=    0.000
 RMSDP=6.48D-06 MaxDP=1.12D-03 DE=-1.87D-04 OVMax= 3.42D-03

 Cycle   8  Pass 1  IDiag  1:
 RMSU=  4.66D-06    CP:  9.64D-01  1.50D+00  6.88D-01  6.26D-01  8.65D-01
                    CP:  8.76D-01  8.24D-01
 E= -4069.81177256476     Delta-E=       -0.000025441579 Rises=F Damp=F
 DIIS: error= 5.01D-05 at cycle   8 NSaved=   8.
 NSaved= 8 IEnMin= 8 EnMin= -4069.81177256476     IErMin= 8 ErrMin= 5.01D-05
 ErrMax= 5.01D-05  0.00D+00 EMaxC= 1.00D-01 BMatC= 4.79D-06 BMatP= 2.05D-05
 IDIUse=1 WtCom= 1.00D+00 WtEn= 0.00D+00
 Coeff-Com:  0.214D-02-0.425D-02-0.774D-02-0.121D-01-0.119D-01 0.334D-01
 Coeff-Com:  0.345D+00 0.655D+00
 Coeff:      0.214D-02-0.425D-02-0.774D-02-0.121D-01-0.119D-01 0.334D-01
 Coeff:      0.345D+00 0.655D+00
 Gap=     0.123 Goal=   None    Shift=    0.000
 RMSDP=3.26D-06 MaxDP=3.55D-04 DE=-2.54D-05 OVMax= 1.12D-03

 Cycle   9  Pass 1  IDiag  1:
 RMSU=  1.90D-06    CP:  9.64D-01  1.50D+00  6.88D-01  6.27D-01  8.82D-01
                    CP:  9.02D-01  1.02D+00  9.39D-01
 E= -4069.81178021982     Delta-E=       -0.000007655068 Rises=F Damp=F
 DIIS: error= 1.93D-05 at cycle   9 NSaved=   9.
 NSaved= 9 IEnMin= 9 EnMin= -4069.81178021982     IErMin= 9 ErrMin= 1.93D-05
 ErrMax= 1.93D-05  0.00D+00 EMaxC= 1.00D-01 BMatC= 6.83D-07 BMatP= 4.79D-06
 IDIUse=1 WtCom= 1.00D+00 WtEn= 0.00D+00
 Coeff-Com:  0.461D-03-0.765D-03-0.266D-02-0.597D-02-0.213D-01-0.384D-01
 Coeff-Com:  0.105D+00 0.326D+00 0.639D+00
 Coeff:      0.461D-03-0.765D-03-0.266D-02-0.597D-02-0.213D-01-0.384D-01
 Coeff:      0.105D+00 0.326D+00 0.639D+00
 Gap=     0.123 Goal=   None    Shift=    0.000
 RMSDP=1.41D-06 MaxDP=1.51D-04 DE=-7.66D-06 OVMax= 7.47D-04

 Cycle  10  Pass 1  IDiag  1:
 RMSU=  9.35D-07    CP:  9.64D-01  1.50D+00  6.88D-01  6.28D-01  8.85D-01
                    CP:  9.16D-01  1.07D+00  1.10D+00  1.05D+00
 E= -4069.81178179450     Delta-E=       -0.000001574675 Rises=F Damp=F
 DIIS: error= 1.03D-05 at cycle  10 NSaved=  10.
 NSaved=10 IEnMin=10 EnMin= -4069.81178179450     IErMin=10 ErrMin= 1.03D-05
 ErrMax= 1.03D-05  0.00D+00 EMaxC= 1.00D-01 BMatC= 1.70D-07 BMatP= 6.83D-07
 IDIUse=1 WtCom= 1.00D+00 WtEn= 0.00D+00
 Coeff-Com: -0.426D-03 0.893D-03 0.123D-02 0.113D-02-0.376D-02-0.309D-01
 Coeff-Com: -0.467D-01-0.764D-01 0.256D+00 0.899D+00
 Coeff:     -0.426D-03 0.893D-03 0.123D-02 0.113D-02-0.376D-02-0.309D-01
 Coeff:     -0.467D-01-0.764D-01 0.256D+00 0.899D+00
 Gap=     0.123 Goal=   None    Shift=    0.000
 RMSDP=1.22D-06 MaxDP=1.25D-04 DE=-1.57D-06 OVMax= 6.05D-04

 Cycle  11  Pass 1  IDiag  1:
 RMSU=  5.13D-07    CP:  9.64D-01  1.50D+00  6.88D-01  6.28D-01  8.87D-01
                    CP:  9.26D-01  1.12D+00  1.22D+00  1.39D+00  1.37D+00
 E= -4069.81178257673     Delta-E=       -0.000000782225 Rises=F Damp=F
 DIIS: error= 3.92D-06 at cycle  11 NSaved=  11.
 NSaved=11 IEnMin=11 EnMin= -4069.81178257673     IErMin=11 ErrMin= 3.92D-06
 ErrMax= 3.92D-06  0.00D+00 EMaxC= 1.00D-01 BMatC= 6.04D-08 BMatP= 1.70D-07
 IDIUse=1 WtCom= 1.00D+00 WtEn= 0.00D+00
 Coeff-Com: -0.326D-03 0.633D-03 0.132D-02 0.212D-02 0.441D-02-0.831D-02
 Coeff-Com: -0.437D-01-0.132D+00-0.228D-01 0.464D+00 0.735D+00
 Coeff:     -0.326D-03 0.633D-03 0.132D-02 0.212D-02 0.441D-02-0.831D-02
 Coeff:     -0.437D-01-0.132D+00-0.228D-01 0.464D+00 0.735D+00
 Gap=     0.123 Goal=   None    Shift=    0.000
 RMSDP=6.83D-07 MaxDP=5.72D-05 DE=-7.82D-07 OVMax= 3.68D-04

 Cycle  12  Pass 1  IDiag  1:
 RMSU=  2.62D-07    CP:  9.64D-01  1.50D+00  6.88D-01  6.28D-01  8.88D-01
                    CP:  9.28D-01  1.14D+00  1.28D+00  1.56D+00  1.76D+00
                    CP:  1.20D+00
 E= -4069.81178283750     Delta-E=       -0.000000260770 Rises=F Damp=F
 DIIS: error= 2.35D-06 at cycle  12 NSaved=  12.
 NSaved=12 IEnMin=12 EnMin= -4069.81178283750     IErMin=12 ErrMin= 2.35D-06
 ErrMax= 2.35D-06  0.00D+00 EMaxC= 1.00D-01 BMatC= 1.46D-08 BMatP= 6.04D-08
 IDIUse=1 WtCom= 1.00D+00 WtEn= 0.00D+00
 Coeff-Com:  0.145D-05-0.193D-04 0.173D-03 0.501D-03 0.328D-02 0.409D-02
 Coeff-Com:  0.296D-02-0.344D-01-0.678D-01-0.777D-01 0.248D+00 0.920D+00
 Coeff:      0.145D-05-0.193D-04 0.173D-03 0.501D-03 0.328D-02 0.409D-02
 Coeff:      0.296D-02-0.344D-01-0.678D-01-0.777D-01 0.248D+00 0.920D+00
 Gap=     0.123 Goal=   None    Shift=    0.000
 RMSDP=4.37D-07 MaxDP=3.11D-05 DE=-2.61D-07 OVMax= 2.47D-04

 Cycle  13  Pass 1  IDiag  1:
 RMSU=  1.65D-07    CP:  9.64D-01  1.50D+00  6.88D-01  6.28D-01  8.88D-01
                    CP:  9.29D-01  1.14D+00  1.31D+00  1.67D+00  1.99D+00
                    CP:  1.62D+00  1.28D+00
 E= -4069.81178292872     Delta-E=       -0.000000091220 Rises=F Damp=F
 DIIS: error= 1.24D-06 at cycle  13 NSaved=  13.
 NSaved=13 IEnMin=13 EnMin= -4069.81178292872     IErMin=13 ErrMin= 1.24D-06
 ErrMax= 1.24D-06  0.00D+00 EMaxC= 1.00D-01 BMatC= 8.04D-09 BMatP= 1.46D-08
 IDIUse=1 WtCom= 1.00D+00 WtEn= 0.00D+00
 Coeff-Com:  0.120D-03-0.245D-03-0.370D-03-0.458D-03 0.559D-03 0.508D-02
 Coeff-Com:  0.198D-01 0.228D-01-0.340D-01-0.241D+00-0.156D+00 0.600D+00
 Coeff-Com:  0.784D+00
 Coeff:      0.120D-03-0.245D-03-0.370D-03-0.458D-03 0.559D-03 0.508D-02
 Coeff:      0.198D-01 0.228D-01-0.340D-01-0.241D+00-0.156D+00 0.600D+00
 Coeff:      0.784D+00
 Gap=     0.123 Goal=   None    Shift=    0.000
 RMSDP=3.37D-07 MaxDP=2.27D-05 DE=-9.12D-08 OVMax= 1.94D-04

 Cycle  14  Pass 1  IDiag  1:
 RMSU=  7.57D-08    CP:  9.64D-01  1.50D+00  6.88D-01  6.28D-01  8.89D-01
                    CP:  9.29D-01  1.15D+00  1.33D+00  1.74D+00  2.18D+00
                    CP:  1.88D+00  1.79D+00  1.09D+00
 E= -4069.81178296415     Delta-E=       -0.000000035434 Rises=F Damp=F
 DIIS: error= 6.15D-07 at cycle  14 NSaved=  14.
 NSaved=14 IEnMin=14 EnMin= -4069.81178296415     IErMin=14 ErrMin= 6.15D-07
 ErrMax= 6.15D-07  0.00D+00 EMaxC= 1.00D-01 BMatC= 1.24D-09 BMatP= 8.04D-09
 IDIUse=1 WtCom= 1.00D+00 WtEn= 0.00D+00
 Coeff-Com:  0.660D-04-0.130D-03-0.245D-03-0.385D-03-0.486D-03 0.129D-02
 Coeff-Com:  0.108D-01 0.191D-01 0.362D-02-0.991D-01-0.142D+00 0.945D-01
 Coeff-Com:  0.403D+00 0.710D+00
 Coeff:      0.660D-04-0.130D-03-0.245D-03-0.385D-03-0.486D-03 0.129D-02
 Coeff:      0.108D-01 0.191D-01 0.362D-02-0.991D-01-0.142D+00 0.945D-01
 Coeff:      0.403D+00 0.710D+00
 Gap=     0.123 Goal=   None    Shift=    0.000
 RMSDP=1.00D-07 MaxDP=6.63D-06 DE=-3.54D-08 OVMax= 5.48D-05

 Cycle  15  Pass 1  IDiag  1:
 RMSU=  3.82D-08    CP:  9.64D-01  1.50D+00  6.88D-01  6.28D-01  8.88D-01
                    CP:  9.29D-01  1.15D+00  1.34D+00  1.76D+00  2.22D+00
                    CP:  1.98D+00  1.93D+00  1.32D+00  1.03D+00
 E= -4069.81178296807     Delta-E=       -0.000000003914 Rises=F Damp=F
 DIIS: error= 3.51D-07 at cycle  15 NSaved=  15.
 NSaved=15 IEnMin=15 EnMin= -4069.81178296807     IErMin=15 ErrMin= 3.51D-07
 ErrMax= 3.51D-07  0.00D+00 EMaxC= 1.00D-01 BMatC= 2.26D-10 BMatP= 1.24D-09
 IDIUse=1 WtCom= 1.00D+00 WtEn= 0.00D+00
 Coeff-Com:  0.511D-05-0.843D-05-0.317D-04-0.805D-04-0.300D-03-0.515D-03
 Coeff-Com:  0.111D-02 0.248D-02 0.875D-02 0.198D-02-0.307D-01-0.730D-01
 Coeff-Com:  0.279D-01 0.299D+00 0.764D+00
 Coeff:      0.511D-05-0.843D-05-0.317D-04-0.805D-04-0.300D-03-0.515D-03
 Coeff:      0.111D-02 0.248D-02 0.875D-02 0.198D-02-0.307D-01-0.730D-01
 Coeff:      0.279D-01 0.299D+00 0.764D+00
 Gap=     0.123 Goal=   None    Shift=    0.000
 RMSDP=4.08D-08 MaxDP=2.71D-06 DE=-3.91D-09 OVMax= 2.64D-05

 Cycle  16  Pass 1  IDiag  1:
 RMSU=  1.86D-08    CP:  9.64D-01  1.50D+00  6.88D-01  6.28D-01  8.89D-01
                    CP:  9.29D-01  1.15D+00  1.34D+00  1.76D+00  2.23D+00
                    CP:  2.01D+00  1.99D+00  1.40D+00  1.24D+00  1.14D+00
 E= -4069.81178296899     Delta-E=       -0.000000000926 Rises=F Damp=F
 DIIS: error= 1.78D-07 at cycle  16 NSaved=  16.
 NSaved=16 IEnMin=16 EnMin= -4069.81178296899     IErMin=16 ErrMin= 1.78D-07
 ErrMax= 1.78D-07  0.00D+00 EMaxC= 1.00D-01 BMatC= 8.05D-11 BMatP= 2.26D-10
 IDIUse=1 WtCom= 1.00D+00 WtEn= 0.00D+00
 Coeff-Com: -0.142D-04 0.288D-04 0.471D-04 0.540D-04-0.259D-04-0.633D-03
 Coeff-Com: -0.199D-02-0.426D-02 0.456D-02 0.256D-01 0.206D-01-0.646D-01
 Coeff-Com: -0.838D-01-0.361D-01 0.396D+00 0.744D+00
 Coeff:     -0.142D-04 0.288D-04 0.471D-04 0.540D-04-0.259D-04-0.633D-03
 Coeff:     -0.199D-02-0.426D-02 0.456D-02 0.256D-01 0.206D-01-0.646D-01
 Coeff:     -0.838D-01-0.361D-01 0.396D+00 0.744D+00
 Gap=     0.123 Goal=   None    Shift=    0.000
 RMSDP=2.28D-08 MaxDP=1.58D-06 DE=-9.26D-10 OVMax= 1.34D-05

 Cycle  17  Pass 1  IDiag  1:
 RMSU=  1.04D-08    CP:  9.64D-01  1.50D+00  6.88D-01  6.28D-01  8.89D-01
                    CP:  9.29D-01  1.15D+00  1.34D+00  1.76D+00  2.24D+00
                    CP:  2.02D+00  2.01D+00  1.45D+00  1.34D+00  1.44D+00
                    CP:  1.25D+00
 E= -4069.81178296938     Delta-E=       -0.000000000391 Rises=F Damp=F
 DIIS: error= 1.01D-07 at cycle  17 NSaved=  17.
 NSaved=17 IEnMin=17 EnMin= -4069.81178296938     IErMin=17 ErrMin= 1.01D-07
 ErrMax= 1.01D-07  0.00D+00 EMaxC= 1.00D-01 BMatC= 1.79D-11 BMatP= 8.05D-11
 IDIUse=1 WtCom= 1.00D+00 WtEn= 0.00D+00
 Coeff-Com: -0.722D-05 0.140D-04 0.286D-04 0.427D-04 0.841D-04-0.123D-03
 Coeff-Com: -0.973D-03-0.281D-02 0.155D-03 0.927D-02 0.175D-01-0.738D-02
 Coeff-Com: -0.374D-01-0.102D+00-0.323D-01 0.299D+00 0.857D+00
 Coeff:     -0.722D-05 0.140D-04 0.286D-04 0.427D-04 0.841D-04-0.123D-03
 Coeff:     -0.973D-03-0.281D-02 0.155D-03 0.927D-02 0.175D-01-0.738D-02
 Coeff:     -0.374D-01-0.102D+00-0.323D-01 0.299D+00 0.857D+00
 Gap=     0.123 Goal=   None    Shift=    0.000
 RMSDP=1.38D-08 MaxDP=1.07D-06 DE=-3.91D-10 OVMax= 8.67D-06

 Cycle  18  Pass 1  IDiag  1:
 RMSU=  4.86D-09    CP:  9.64D-01  1.50D+00  6.88D-01  6.28D-01  8.89D-01
                    CP:  9.29D-01  1.15D+00  1.34D+00  1.77D+00  2.24D+00
                    CP:  2.02D+00  2.02D+00  1.47D+00  1.41D+00  1.62D+00
                    CP:  1.66D+00  1.39D+00
 E= -4069.81178296947     Delta-E=       -0.000000000089 Rises=F Damp=F
 DIIS: error= 5.08D-08 at cycle  18 NSaved=  18.
 NSaved=18 IEnMin=18 EnMin= -4069.81178296947     IErMin=18 ErrMin= 5.08D-08
 ErrMax= 5.08D-08  0.00D+00 EMaxC= 1.00D-01 BMatC= 6.78D-12 BMatP= 1.79D-11
 IDIUse=1 WtCom= 1.00D+00 WtEn= 0.00D+00
 Coeff-Com:  0.204D-05-0.439D-05-0.454D-05-0.169D-05 0.591D-04 0.183D-03
 Coeff-Com:  0.404D-03 0.219D-03-0.128D-02-0.617D-02-0.752D-04 0.203D-01
 Coeff-Com:  0.184D-01-0.328D-01-0.162D+00-0.187D+00 0.347D+00 0.100D+01
 Coeff:      0.204D-05-0.439D-05-0.454D-05-0.169D-05 0.591D-04 0.183D-03
 Coeff:      0.404D-03 0.219D-03-0.128D-02-0.617D-02-0.752D-04 0.203D-01
 Coeff:      0.184D-01-0.328D-01-0.162D+00-0.187D+00 0.347D+00 0.100D+01
 Gap=     0.123 Goal=   None    Shift=    0.000
 RMSDP=1.17D-08 MaxDP=8.08D-07 DE=-8.91D-11 OVMax= 7.03D-06

 Cycle  19  Pass 1  IDiag  1:
 RMSU=  2.80D-09    CP:  9.64D-01  1.50D+00  6.88D-01  6.28D-01  8.88D-01
                    CP:  9.29D-01  1.15D+00  1.34D+00  1.77D+00  2.24D+00
                    CP:  2.03D+00  2.03D+00  1.48D+00  1.46D+00  1.77D+00
                    CP:  1.99D+00  1.93D+00  1.37D+00
 E= -4069.81178296953     Delta-E=       -0.000000000060 Rises=F Damp=F
 DIIS: error= 4.08D-08 at cycle  19 NSaved=  19.
 NSaved=19 IEnMin=19 EnMin= -4069.81178296953     IErMin=19 ErrMin= 4.08D-08
 ErrMax= 4.08D-08  0.00D+00 EMaxC= 1.00D-01 BMatC= 1.50D-12 BMatP= 6.78D-12
 IDIUse=1 WtCom= 1.00D+00 WtEn= 0.00D+00
 Coeff-Com:  0.292D-05-0.589D-05-0.998D-05-0.125D-04 0.112D-04 0.121D-03
 Coeff-Com:  0.482D-03 0.804D-03-0.619D-03-0.603D-02-0.485D-02 0.123D-01
 Coeff-Com:  0.203D-01 0.109D-01-0.711D-01-0.179D+00-0.349D-01 0.503D+00
 Coeff-Com:  0.749D+00
 Coeff:      0.292D-05-0.589D-05-0.998D-05-0.125D-04 0.112D-04 0.121D-03
 Coeff:      0.482D-03 0.804D-03-0.619D-03-0.603D-02-0.485D-02 0.123D-01
 Coeff:      0.203D-01 0.109D-01-0.711D-01-0.179D+00-0.349D-01 0.503D+00
 Coeff:      0.749D+00
 Gap=     0.123 Goal=   None    Shift=    0.000
 RMSDP=4.68D-09 MaxDP=3.29D-07 DE=-6.00D-11 OVMax= 2.76D-06

 SCF Done:  E(RCAM-B3LYP) =  -4069.81178297     A.U. after   19 cycles
            NFock= 19  Conv=0.47D-08     -V/T= 2.0102
 KE= 4.028802076070D+03 PE=-3.409186277899D+04 EE= 1.368773105884D+04
 Leave Link  502 at Sat Sep  4 18:24:33 2021, MaxMem= 23488102400 cpu:           11380.4 elap:             497.8
 (Enter /sw/apps/gaussian-16.0/g16/l801.exe)
 DoSCS=F DFT=T ScalE2(SS,OS)=  1.000000  1.000000
 ExpMin= 3.36D-02 ExpMax= 4.95D+03 ExpMxC= 7.45D+02 IAcc=3 IRadAn=         5 AccDes= 0.00D+00
 HarFok:  IExCor=  205 AccDes= 0.00D+00 IRadAn=         5 IDoV=-2 UseB2=F ITyADJ=14
 ICtDFT= 12500011 ScaDFX=  1.000000  1.000000  1.000000  1.000000
 GSVD:  LWork=       -9588 too small for GESVD, short by       45590 words or       45590 for optimal perf.
 Largest valence mixing into a core orbital is  2.03D-04
 Largest core mixing into a valence orbital is  5.24D-05
 Range of M.O.s used for correlation:    95  1572
 NBasis=  1572 NAE=   312 NBE=   312 NFC=    94 NFV=     0
 NROrb=   1478 NOA=   218 NOB=   218 NVA=  1260 NVB=  1260
 Leave Link  801 at Sat Sep  4 18:24:33 2021, MaxMem= 23488102400 cpu:               9.4 elap:               0.4
 (Enter /sw/apps/gaussian-16.0/g16/l914.exe)
 RHF ground state
 Two-electron integrals replicated using symmetry.
 MDV= 23488102400 DFT=T DoStab=F Mixed=T DoRPA=T DoScal=F NonHer=T
 Making orbital integer symmetry assigments:
 Orbital symmetries:
       Occupied  (A) (A) (A) (A) (A) (A) (A) (A) (A) (A) (A) (A)
                 (A) (A) (A) (A) (A) (A) (A) (A) (A) (A) (A) (A)
                 (A) (A) (A) (A) (A) (A) (A) (A) (A) (A) (A) (A)
                 (A) (A) (A) (A) (A) (A) (A) (A) (A) (A) (A) (A)
                 (A) (A) (A) (A) (A) (A) (A) (A) (A) (A) (A) (A)
                 (A) (A) (A) (A) (A) (A) (A) (A) (A) (A) (A) (A)
                 (A) (A) (A) (A) (A) (A) (A) (A) (A) (A) (A) (A)
                 (A) (A) (A) (A) (A) (A) (A) (A) (A) (A) (A) (A)
                 (A) (A) (A) (A) (A) (A) (A) (A) (A) (A) (A) (A)
                 (A) (A) (A) (A) (A) (A) (A) (A) (A) (A) (A) (A)
                 (A) (A) (A) (A) (A) (A) (A) (A) (A) (A) (A) (A)
                 (A) (A) (A) (A) (A) (A) (A) (A) (A) (A) (A) (A)
                 (A) (A) (A) (A) (A) (A) (A) (A) (A) (A) (A) (A)
                 (A) (A) (A) (A) (A) (A) (A) (A) (A) (A) (A) (A)
                 (A) (A) (A) (A) (A) (A) (A) (A) (A) (A) (A) (A)
                 (A) (A) (A) (A) (A) (A) (A) (A) (A) (A) (A) (A)
                 (A) (A) (A) (A) (A) (A) (A) (A) (A) (A) (A) (A)
                 (A) (A) (A) (A) (A) (A) (A) (A) (A) (A) (A) (A)
                 (A) (A) (A) (A) (A) (A) (A) (A) (A) (A) (A) (A)
                 (A) (A) (A) (A) (A) (A) (A) (A) (A) (A) (A) (A)
                 (A) (A) (A) (A) (A) (A) (A) (A) (A) (A) (A) (A)
                 (A) (A) (A) (A) (A) (A) (A) (A) (A) (A) (A) (A)
                 (A) (A) (A) (A) (A) (A) (A) (A) (A) (A) (A) (A)
                 (A) (A) (A) (A) (A) (A) (A) (A) (A) (A) (A) (A)
                 (A) (A) (A) (A) (A) (A) (A) (A) (A) (A) (A) (A)
                 (A) (A) (A) (A) (A) (A) (A) (A) (A) (A) (A) (A)
       Virtual   (A) (A) (A) (A) (A) (A) (A) (A) (A) (A) (A) (A)
                 (A) (A) (A) (A) (A) (A) (A) (A) (A) (A) (A) (A)
                 (A) (A) (A) (A) (A) (A) (A) (A) (A) (A) (A) (A)
                 (A) (A) (A) (A) (A) (A) (A) (A) (A) (A) (A) (A)
                 (A) (A) (A) (A) (A) (A) (A) (A) (A) (A) (A) (A)
                 (A) (A) (A) (A) (A) (A) (A) (A) (A) (A) (A) (A)
                 (A) (A) (A) (A) (A) (A) (A) (A) (A) (A) (A) (A)
                 (A) (A) (A) (A) (A) (A) (A) (A) (A) (A) (A) (A)
                 (A) (A) (A) (A) (A) (A) (A) (A) (A) (A) (A) (A)
                 (A) (A) (A) (A) (A) (A) (A) (A) (A) (A) (A) (A)
                 (A) (A) (A) (A) (A) (A) (A) (A) (A) (A) (A) (A)
                 (A) (A) (A) (A) (A) (A) (A) (A) (A) (A) (A) (A)
                 (A) (A) (A) (A) (A) (A) (A) (A) (A) (A) (A) (A)
                 (A) (A) (A) (A) (A) (A) (A) (A) (A) (A) (A) (A)
                 (A) (A) (A) (A) (A) (A) (A) (A) (A) (A) (A) (A)
                 (A) (A) (A) (A) (A) (A) (A) (A) (A) (A) (A) (A)
                 (A) (A) (A) (A) (A) (A) (A) (A) (A) (A) (A) (A)
                 (A) (A) (A) (A) (A) (A) (A) (A) (A) (A) (A) (A)
                 (A) (A) (A) (A) (A) (A) (A) (A) (A) (A) (A) (A)
                 (A) (A) (A) (A) (A) (A) (A) (A) (A) (A) (A) (A)
                 (A) (A) (A) (A) (A) (A) (A) (A) (A) (A) (A) (A)
                 (A) (A) (A) (A) (A) (A) (A) (A) (A) (A) (A) (A)
                 (A) (A) (A) (A) (A) (A) (A) (A) (A) (A) (A) (A)
                 (A) (A) (A) (A) (A) (A) (A) (A) (A) (A) (A) (A)
                 (A) (A) (A) (A) (A) (A) (A) (A) (A) (A) (A) (A)
                 (A) (A) (A) (A) (A) (A) (A) (A) (A) (A) (A) (A)
                 (A) (A) (A) (A) (A) (A) (A) (A) (A) (A) (A) (A)
                 (A) (A) (A) (A) (A) (A) (A) (A) (A) (A) (A) (A)
                 (A) (A) (A) (A) (A) (A) (A) (A) (A) (A) (A) (A)
                 (A) (A) (A) (A) (A) (A) (A) (A) (A) (A) (A) (A)
                 (A) (A) (A) (A) (A) (A) (A) (A) (A) (A) (A) (A)
                 (A) (A) (A) (A) (A) (A) (A) (A) (A) (A) (A) (A)
                 (A) (A) (A) (A) (A) (A) (A) (A) (A) (A) (A) (A)
                 (A) (A) (A) (A) (A) (A) (A) (A) (A) (A) (A) (A)
                 (A) (A) (A) (A) (A) (A) (A) (A) (A) (A) (A) (A)
                 (A) (A) (A) (A) (A) (A) (A) (A) (A) (A) (A) (A)
                 (A) (A) (A) (A) (A) (A) (A) (A) (A) (A) (A) (A)
                 (A) (A) (A) (A) (A) (A) (A) (A) (A) (A) (A) (A)
                 (A) (A) (A) (A) (A) (A) (A) (A) (A) (A) (A) (A)
                 (A) (A) (A) (A) (A) (A) (A) (A) (A) (A) (A) (A)
                 (A) (A) (A) (A) (A) (A) (A) (A) (A) (A) (A) (A)
                 (A) (A) (A) (A) (A) (A) (A) (A) (A) (A) (A) (A)
                 (A) (A) (A) (A) (A) (A) (A) (A) (A) (A) (A) (A)
                 (A) (A) (A) (A) (A) (A) (A) (A) (A) (A) (A) (A)
                 (A) (A) (A) (A) (A) (A) (A) (A) (A) (A) (A) (A)
                 (A) (A) (A) (A) (A) (A) (A) (A) (A) (A) (A) (A)
                 (A) (A) (A) (A) (A) (A) (A) (A) (A) (A) (A) (A)
                 (A) (A) (A) (A) (A) (A) (A) (A) (A) (A) (A) (A)
                 (A) (A) (A) (A) (A) (A) (A) (A) (A) (A) (A) (A)
                 (A) (A) (A) (A) (A) (A) (A) (A) (A) (A) (A) (A)
                 (A) (A) (A) (A) (A) (A) (A) (A) (A) (A) (A) (A)
                 (A) (A) (A) (A) (A) (A) (A) (A) (A) (A) (A) (A)
                 (A) (A) (A) (A) (A) (A) (A) (A) (A) (A) (A) (A)
                 (A) (A) (A) (A) (A) (A) (A) (A) (A) (A) (A) (A)
                 (A) (A) (A) (A) (A) (A) (A) (A) (A) (A) (A) (A)
                 (A) (A) (A) (A) (A) (A) (A) (A) (A) (A) (A) (A)
                 (A) (A) (A) (A) (A) (A) (A) (A) (A) (A) (A) (A)
                 (A) (A) (A) (A) (A) (A) (A) (A) (A) (A) (A) (A)
                 (A) (A) (A) (A) (A) (A) (A) (A) (A) (A) (A) (A)
                 (A) (A) (A) (A) (A) (A) (A) (A) (A) (A) (A) (A)
                 (A) (A) (A) (A) (A) (A) (A) (A) (A) (A) (A) (A)
                 (A) (A) (A) (A) (A) (A) (A) (A) (A) (A) (A) (A)
                 (A) (A) (A) (A) (A) (A) (A) (A) (A) (A) (A) (A)
                 (A) (A) (A) (A) (A) (A) (A) (A) (A) (A) (A) (A)
                 (A) (A) (A) (A) (A) (A) (A) (A) (A) (A) (A) (A)
                 (A) (A) (A) (A) (A) (A) (A) (A) (A) (A) (A) (A)
                 (A) (A) (A) (A) (A) (A) (A) (A) (A) (A) (A) (A)
                 (A) (A) (A) (A) (A) (A) (A) (A) (A) (A) (A) (A)
                 (A) (A) (A) (A) (A) (A) (A) (A) (A) (A) (A) (A)
                 (A) (A) (A) (A) (A) (A) (A) (A) (A) (A) (A) (A)
                 (A) (A) (A) (A) (A) (A) (A) (A) (A) (A) (A) (A)
                 (A) (A) (A) (A) (A) (A) (A) (A) (A) (A) (A) (A)
                 (A) (A) (A) (A) (A) (A) (A) (A) (A) (A) (A) (A)
                 (A) (A) (A) (A) (A) (A) (A) (A) (A) (A) (A) (A)
                 (A) (A) (A) (A) (A) (A) (A) (A) (A) (A) (A) (A)
                 (A) (A) (A) (A) (A) (A) (A) (A) (A) (A) (A) (A)
                 (A) (A) (A) (A) (A) (A) (A) (A) (A) (A) (A) (A)
                 (A) (A) (A) (A) (A) (A) (A) (A) (A) (A) (A) (A)
                 (A) (A) (A) (A) (A) (A) (A) (A) (A) (A) (A) (A)
                 (A) (A) (A) (A) (A) (A) (A) (A) (A) (A) (A) (A)
                 (A) (A) (A) (A) (A) (A) (A) (A) (A) (A) (A) (A)
                 (A) (A) (A) (A) (A) (A) (A) (A) (A) (A) (A) (A)
                 (A) (A) (A) (A) (A) (A) (A) (A) (A) (A) (A) (A)
                 (A) (A) (A) (A) (A) (A) (A) (A) (A) (A) (A) (A)
                 (A) (A) (A) (A) (A) (A) (A) (A) (A) (A) (A) (A)
                 (A) (A) (A) (A) (A) (A) (A) (A) (A) (A) (A) (A)
                 (A) (A) (A) (A) (A) (A) (A) (A) (A) (A) (A) (A)
                 (A) (A) (A) (A) (A) (A) (A) (A) (A) (A) (A) (A)
                 (A) (A) (A) (A) (A) (A) (A) (A) (A) (A) (A) (A)
                 (A) (A) (A) (A) (A) (A) (A) (A) (A) (A) (A) (A)
                 (A) (A) (A) (A) (A) (A) (A) (A) (A) (A) (A) (A)
                 (A) (A) (A) (A) (A) (A) (A) (A) (A) (A) (A) (A)
                 (A) (A) (A) (A) (A) (A) (A) (A) (A) (A) (A) (A)
                 (A) (A) (A) (A) (A) (A) (A) (A) (A) (A) (A) (A)
                 (A) (A) (A) (A) (A) (A) (A) (A) (A) (A) (A) (A)
                 (A) (A) (A) (A) (A) (A) (A) (A) (A) (A) (A) (A)
                 (A) (A) (A) (A) (A) (A) (A) (A) (A) (A) (A) (A)
                 (A) (A) (A) (A) (A) (A) (A) (A) (A) (A) (A) (A)
                 (A) (A) (A) (A) (A) (A) (A) (A) (A) (A) (A) (A)
                 (A) (A) (A) (A) (A) (A) (A) (A) (A) (A) (A) (A)
                 (A) (A) (A) (A) (A) (A) (A) (A) (A) (A) (A) (A)
                 (A) (A) (A) (A) (A) (A) (A) (A) (A) (A) (A) (A)
                 (A) (A) (A) (A) (A) (A) (A) (A) (A) (A) (A) (A)
                 (A) (A) (A) (A) (A) (A) (A) (A) (A) (A) (A) (A)
                 (A) (A) (A) (A) (A) (A) (A) (A) (A) (A) (A) (A)
    20 initial guesses have been made.
 Convergence on wavefunction:    0.001000000000000
 Davidson Disk Diagonalization:  ConvIn= 1.00D-03 SkipCon=T Conv= 1.00D-03.
 Max sub-space:  2000 roots to seek:    20 dimension of matrix:       549360
 Iteration     1 Dimension    20 NMult     0 NNew     20
 CISAX will form    20 AO SS matrices at one time.
 NMat=    20 NSing=    20 JSym2X= 0.
 FoFJK:  IHMeth= 1 ICntrl=       0 DoSepK=T KAlg= 0 I1Cent=           0 FoldK=F
 IRaf=         1 NMat=      40 IRICut=       1 DoRegI=T DoRafI=F ISym2E= 0 IDoP0=3 IntGTp=3.
 FoFCou: FMM=T IPFlag=           0 FMFlag=      100000 FMFlg1=        2001
         NFxFlg=           0 DoJE=F BraDBF=F KetDBF=F FulRan=T
         wScrn=  0.000000 ICntrl=       500 IOpCl=  0 I1Cent=           0 NGrid=           0
         NMat0=   20 NMatS0=     20 NMatT0=    0 NMatD0=   20 NMtDS0=    0 NMtDT0=    0
 Symmetry not used in FoFCou.
 FMM levels:  10  Number of levels for PrismC:   9
 New state      1 was old state      8
 New state      2 was old state      5
 New state      3 was old state      1
 New state      5 was old state      2
 Excitation Energies [eV] at current iteration:
 Root      1 :     2.614489415018663
 Root      2 :     2.619233862606337
 Root      3 :     2.680801979907322
 Root      4 :     2.689820786574307
 Root      5 :     3.065682210078918
 Root      6 :     3.067467537812438
 Root      7 :     3.629094942923247
 Root      8 :     3.669214777054603
 Root      9 :     3.735598952198219
 Root     10 :     3.759178787579959
 Root     11 :     3.861349467868376
 Root     12 :     3.868969354210750
 Root     13 :     4.304191589250046
 Root     14 :     4.305898745696504
 Root     15 :     4.978200239199825
 Root     16 :     5.000038822936719
 Root     17 :     5.272486299781670
 Root     18 :     5.294330004936516
 Root     19 :     5.304515817874798
 Root     20 :     5.328263549429093
 Iteration     2 Dimension    30 NMult    20 NNew     10
 CISAX will form    10 AO SS matrices at one time.
 NMat=    10 NSing=    10 JSym2X= 0.
 New state      1 was old state      3
 Root      1 not converged, maximum delta is    0.190608145612670
 New state      2 was old state      4
 Root      2 not converged, maximum delta is    0.191826118367245
 New state      3 was old state      2
 Root      3 not converged, maximum delta is    0.067245339232920
 New state      4 was old state      1
 Root      4 not converged, maximum delta is    0.089650361549166
 Root      5 has converged.
 Excitation Energies [eV] at current iteration:
 Root      1 :     1.801522705324454   Change is   -0.879279274582868
 Root      2 :     1.807238953478254   Change is   -0.882581833096052
 Root      3 :     2.235860526303975   Change is   -0.383373336302362
 Root      4 :     2.239113470506493   Change is   -0.375375944512170
 Root      5 :     3.065676022625570   Change is   -0.000006187453348
 Iteration     3 Dimension    38 NMult    30 NNew      8
 CISAX will form     8 AO SS matrices at one time.
 NMat=     8 NSing=     8 JSym2X= 0.
 Root      1 not converged, maximum delta is    0.071824792816690
 Root      2 not converged, maximum delta is    0.072991855568677
 Root      3 not converged, maximum delta is    0.043923699148623
 Root      4 not converged, maximum delta is    0.042566992364588
 Root      5 has converged.
 Excitation Energies [eV] at current iteration:
 Root      1 :     1.694284154345522   Change is   -0.107238550978931
 Root      2 :     1.698844964433305   Change is   -0.108393989044949
 Root      3 :     2.194420984865354   Change is   -0.041439541438621
 Root      4 :     2.200212075835797   Change is   -0.038901394670696
 Root      5 :     3.065676022625623   Change is    0.000000000000054
 Iteration     4 Dimension    46 NMult    38 NNew      8
 CISAX will form     8 AO SS matrices at one time.
 NMat=     8 NSing=     8 JSym2X= 0.
 Root      1 not converged, maximum delta is    0.013378133034955
 Root      2 not converged, maximum delta is    0.013650368041900
 Root      3 not converged, maximum delta is    0.009715779080305
 Root      4 not converged, maximum delta is    0.008901516467570
 Root      5 has converged.
 Excitation Energies [eV] at current iteration:
 Root      1 :     1.677577862454716   Change is   -0.016706291890806
 Root      2 :     1.681957999186900   Change is   -0.016886965246405
 Root      3 :     2.187122300195672   Change is   -0.007298684669682
 Root      4 :     2.193435492614493   Change is   -0.006776583221304
 Root      5 :     3.065676022625436   Change is   -0.000000000000188
 Iteration     5 Dimension    54 NMult    46 NNew      8
 CISAX will form     8 AO SS matrices at one time.
 NMat=     8 NSing=     8 JSym2X= 0.
 Root      1 not converged, maximum delta is    0.002225174536165
 Root      2 not converged, maximum delta is    0.002222572654250
 Root      3 not converged, maximum delta is    0.002501225070323
 Root      4 not converged, maximum delta is    0.002388689042604
 Root      5 has converged.
 Excitation Energies [eV] at current iteration:
 Root      1 :     1.675798565898805   Change is   -0.001779296555911
 Root      2 :     1.680186096203130   Change is   -0.001771902983771
 Root      3 :     2.186276801497354   Change is   -0.000845498698318
 Root      4 :     2.192658779524493   Change is   -0.000776713090000
 Root      5 :     3.065676022625570   Change is    0.000000000000134
 Iteration     6 Dimension    62 NMult    54 NNew      8
 CISAX will form     8 AO SS matrices at one time.
 NMat=     8 NSing=     8 JSym2X= 0.
 Root      1 not converged, maximum delta is    0.001398010833618
 Root      2 not converged, maximum delta is    0.001420071917535
 Root      3 not converged, maximum delta is    0.001067975028615
 Root      4 not converged, maximum delta is    0.001016019340687
 Root      5 has converged.
 Excitation Energies [eV] at current iteration:
 Root      1 :     1.675544846302308   Change is   -0.000253719596496
 Root      2 :     1.679931230337449   Change is   -0.000254865865681
 Root      3 :     2.186148699235292   Change is   -0.000128102262062
 Root      4 :     2.192540956783194   Change is   -0.000117822741299
 Root      5 :     3.065676022625489   Change is   -0.000000000000080
 Iteration     7 Dimension    70 NMult    62 NNew      8
 CISAX will form     8 AO SS matrices at one time.
 NMat=     8 NSing=     8 JSym2X= 0.
 Root      1 has converged.
 Root      2 has converged.
 Root      3 has converged.
 Root      4 has converged.
 Root      5 has converged.
 Excitation Energies [eV] at current iteration:
 Root      1 :     1.675520694545075   Change is   -0.000024151757234
 Root      2 :     1.679907553460922   Change is   -0.000023676876526
[...]
 Alpha virt. eigenvalues --    1.83471   1.83797   1.83848   1.84061   1.84157
 Alpha virt. eigenvalues --    1.84481   1.84487   1.84742   1.84849   1.85079
 Alpha virt. eigenvalues --    1.85139   1.85303   1.85312   1.85443   1.85521
 Alpha virt. eigenvalues --    1.85854   1.85905   1.86338   1.86397   1.86593
 Alpha virt. eigenvalues --    1.86606   1.86780   1.86820   1.86995   1.87076
 Alpha virt. eigenvalues --    1.87435   1.87483   1.87718   1.87724   1.87905
 Alpha virt. eigenvalues --    1.87969   1.88077   1.88132   1.88527   1.88574
 Alpha virt. eigenvalues --    1.88862   1.88892   1.89027   1.89162   1.89614
 Alpha virt. eigenvalues --    1.89664   1.89784   1.89832   1.90143   1.90157
 Alpha virt. eigenvalues --    1.90789   1.90847   1.91381   1.91387   1.91477
 Alpha virt. eigenvalues --    1.91543   1.92134   1.92192   1.92613   1.92666
 Alpha virt. eigenvalues --    1.93019   1.93103   1.93374   1.93456   1.94262
 Alpha virt. eigenvalues --    1.94319   1.94725   1.94769   1.95510   1.95547
 Alpha virt. eigenvalues --    1.95764   1.95766   1.96001   1.96033   1.96124
 Alpha virt. eigenvalues --    1.96188   1.96434   1.96631   1.96889   1.96937
 Alpha virt. eigenvalues --    1.97486   1.97493   1.97752   1.97872   1.98118
 Alpha virt. eigenvalues --    1.98208   1.98298   1.98715   1.99024   1.99174
 Alpha virt. eigenvalues --    1.99861   1.99882   2.00677   2.00696   2.01035
 Alpha virt. eigenvalues --    2.01047   2.01460   2.01520   2.01557   2.01709
 Alpha virt. eigenvalues --    2.01758   2.01774   2.02661   2.02823   2.03094
 Alpha virt. eigenvalues --    2.03272   2.03329   2.03442   2.03470   2.03523
 Alpha virt. eigenvalues --    2.03976   2.04073   2.04929   2.04996   2.05551
 Alpha virt. eigenvalues --    2.05582   2.06116   2.06238   2.06942   2.06981
 Alpha virt. eigenvalues --    2.07221   2.07297   2.08507   2.08622   2.08954
 Alpha virt. eigenvalues --    2.09019   2.09562   2.09628   2.10813   2.10986
 Alpha virt. eigenvalues --    2.11220   2.11356   2.11480   2.11578   2.11765
 Alpha virt. eigenvalues --    2.11815   2.12414   2.12503   2.12751   2.12818
 Alpha virt. eigenvalues --    2.12842   2.12872   2.13578   2.13806   2.14172
 Alpha virt. eigenvalues --    2.14204   2.15357   2.15373   2.15963   2.16030
 Alpha virt. eigenvalues --    2.16542   2.16558   2.16791   2.17120   2.17452
 Alpha virt. eigenvalues --    2.17601   2.17741   2.17881   2.17953   2.18104
 Alpha virt. eigenvalues --    2.18362   2.18619   2.18906   2.19181   2.19678
 Alpha virt. eigenvalues --    2.19766   2.20076   2.20190   2.20248   2.20386
 Alpha virt. eigenvalues --    2.21124   2.21184   2.21706   2.21711   2.21781
 Alpha virt. eigenvalues --    2.21822   2.22649   2.22716   2.23289   2.23348
 Alpha virt. eigenvalues --    2.24367   2.24430   2.24955   2.24992   2.26336
 Alpha virt. eigenvalues --    2.26386   2.26814   2.26955   2.27139   2.27148
 Alpha virt. eigenvalues --    2.28174   2.28260   2.29304   2.29384   2.29772
 Alpha virt. eigenvalues --    2.29825   2.30492   2.30566   2.30769   2.31118
 Alpha virt. eigenvalues --    2.31147   2.31218   2.32155   2.32188   2.33171
 Alpha virt. eigenvalues --    2.33180   2.33429   2.33496   2.34087   2.34173
 Alpha virt. eigenvalues --    2.35242   2.35407   2.35833   2.35854   2.36279
 Alpha virt. eigenvalues --    2.36385   2.36396   2.36659   2.37623   2.37691
 Alpha virt. eigenvalues --    2.38292   2.38329   2.38726   2.38894   2.39612
 Alpha virt. eigenvalues --    2.39646   2.40213   2.40215   2.40521   2.40771
 Alpha virt. eigenvalues --    2.41155   2.41305   2.41639   2.41720   2.42069
 Alpha virt. eigenvalues --    2.42075   2.42768   2.42975   2.43008   2.43571
 Alpha virt. eigenvalues --    2.43920   2.44205   2.44748   2.44766   2.44930
 Alpha virt. eigenvalues --    2.44938   2.45513   2.45580   2.46228   2.46335
 Alpha virt. eigenvalues --    2.46437   2.46512   2.46739   2.46834   2.47286
 Alpha virt. eigenvalues --    2.47318   2.47747   2.47828   2.49337   2.49342
 Alpha virt. eigenvalues --    2.49834   2.50100   2.50397   2.50581   2.51155
 Alpha virt. eigenvalues --    2.51204   2.51551   2.51920   2.52333   2.52474
 Alpha virt. eigenvalues --    2.52843   2.53100   2.53909   2.53951   2.54182
 Alpha virt. eigenvalues --    2.54225   2.54744   2.54820   2.55551   2.55604
 Alpha virt. eigenvalues --    2.57897   2.58015   2.58676   2.58840   2.60233
 Alpha virt. eigenvalues --    2.60240   2.60647   2.60858   2.61743   2.61757
 Alpha virt. eigenvalues --    2.62364   2.62566   2.62988   2.63059   2.63969
 Alpha virt. eigenvalues --    2.64152   2.64274   2.64362   2.65032   2.65111
 Alpha virt. eigenvalues --    2.65792   2.65821   2.66753   2.66808   2.66942
 Alpha virt. eigenvalues --    2.66989   2.67912   2.67940   2.68751   2.68890
 Alpha virt. eigenvalues --    2.68960   2.69056   2.69421   2.69523   2.70029
 Alpha virt. eigenvalues --    2.70068   2.70996   2.71012   2.71822   2.72086
 Alpha virt. eigenvalues --    2.72419   2.72662   2.72686   2.72862   2.73217
 Alpha virt. eigenvalues --    2.73305   2.73393   2.73566   2.74434   2.74542
 Alpha virt. eigenvalues --    2.74981   2.75007   2.76448   2.76621   2.76991
 Alpha virt. eigenvalues --    2.77264   2.77488   2.77532   2.78221   2.78224
 Alpha virt. eigenvalues --    2.78616   2.78762   2.79081   2.79166   2.80192
 Alpha virt. eigenvalues --    2.80376   2.80612   2.80622   2.81074   2.81147
 Alpha virt. eigenvalues --    2.81911   2.81966   2.82258   2.82372   2.83772
 Alpha virt. eigenvalues --    2.83784   2.83799   2.83825   2.84450   2.84575
 Alpha virt. eigenvalues --    2.84809   2.84912   2.85617   2.85698   2.86581
 Alpha virt. eigenvalues --    2.87027   2.87093   2.87640   2.88162   2.88186
 Alpha virt. eigenvalues --    2.88537   2.88538   2.88793   2.88965   2.90529
 Alpha virt. eigenvalues --    2.90580   2.90990   2.91217   2.93187   2.93242
 Alpha virt. eigenvalues --    2.93691   2.94230   2.94496   2.94587   2.95392
 Alpha virt. eigenvalues --    2.95401   2.95756   2.96235   2.96295   2.96471
 Alpha virt. eigenvalues --    2.96789   2.97210   2.97850   2.97954   2.98240
 Alpha virt. eigenvalues --    2.98275   2.98395   2.98492   2.98632   2.98697
 Alpha virt. eigenvalues --    2.98842   2.98913   2.99615   2.99722   2.99933
 Alpha virt. eigenvalues --    3.00064   3.00252   3.00258   3.00494   3.00911
 Alpha virt. eigenvalues --    3.01822   3.02018   3.02035   3.02065   3.02740
 Alpha virt. eigenvalues --    3.02767   3.03011   3.03238   3.03359   3.03626
 Alpha virt. eigenvalues --    3.03972   3.04199   3.04350   3.04480   3.04577
 Alpha virt. eigenvalues --    3.04644   3.05273   3.05325   3.06084   3.06144
 Alpha virt. eigenvalues --    3.06837   3.06855   3.07843   3.08176   3.09279
 Alpha virt. eigenvalues --    3.09435   3.09726   3.10349   3.10475   3.10656
 Alpha virt. eigenvalues --    3.11359   3.11402   3.11819   3.11977   3.12203
 Alpha virt. eigenvalues --    3.12220   3.13316   3.13565   3.13608   3.13670
 Alpha virt. eigenvalues --    3.14127   3.14388   3.15908   3.15949   3.17295
 Alpha virt. eigenvalues --    3.17435   3.17800   3.18109   3.18951   3.19159
 Alpha virt. eigenvalues --    3.22340   3.22511   3.23980   3.24354   3.24708
 Alpha virt. eigenvalues --    3.25107   3.26537   3.26572   3.27311   3.27654
 Alpha virt. eigenvalues --    3.29135   3.29136   3.31295   3.31558   3.33101
 Alpha virt. eigenvalues --    3.33452   3.40172   3.40667   3.42737   3.42850
 Alpha virt. eigenvalues --    3.48612   3.48693   3.50056   3.50198   3.50753
 Alpha virt. eigenvalues --    3.51509   3.56584   3.56922   3.59133   3.59257
 Alpha virt. eigenvalues --    3.62431   3.62871   3.66036   3.66219   3.67222
 Alpha virt. eigenvalues --    3.67455   3.73307   3.73934   3.76092   3.76593
          Condensed to atoms (all electrons):
 Mulliken charges:
               1
     1  Mg   0.838703
     2  C   -0.002945
     3  C   -0.094095
     4  C   -0.045920
     5  C   -0.063959
     6  N   -0.256790
     7  C   -0.052445
     8  C   -0.014028
     9  C   -0.086990
    10  C    0.046329
    11  C    0.104808
    12  C    0.053465
    13  C   -0.071843
    14  H    0.036196
    15  N   -0.433143
    16  C    0.168431
    17  C   -0.177131
    18  C   -0.004008
    19  C    0.148736
    20  C    0.110161
    21  C    0.012274
    22  O   -0.249667
    23  C    0.062483
    24  N   -0.341143
    25  C    0.041274
    26  C   -0.028168
    27  C   -0.023956
    28  C    0.074806
    29  C    0.076174
    30  C    0.035133
    31  C   -0.004490
    32  N   -0.310461
    33  C    0.080398
    34  C   -0.169730
    35  C    0.008366
    36  C    0.082980
    37  C    0.127314
    38  C    0.046116
    39  O   -0.188432
    40  C   -0.005339
    41  C    0.212894
    42  O   -0.257106
    43  O   -0.304798
    44  C    0.157677
    45  H   -0.017572
    46  H   -0.016867
    47  H   -0.041524
    48  H    0.000952
    49  H   -0.003993
    50  H    0.025473
    51  H    0.016432
    52  H    0.016688
    53  H    0.011216
    54  H    0.044124
    55  H    0.017874
    56  H    0.017982
    57  H    0.005911
    58  H    0.026831
    59  H    0.039584
    60  H    0.037364
    61  H    0.035619
    62  H    0.031523
    63  H    0.016515
    64  H    0.009450
    65  H    0.023177
    66  H    0.012564
    67  H    0.004743
    68  H    0.006321
    69  H    0.004719
    70  H    0.008751
    71  H    0.018097
    72  H    0.029016
    73  H    0.047562
    74  H    0.009082
    75  H    0.046009
    76  H    0.035161
    77  H    0.042956
    78  H    0.046434
    79  H    0.053699
    80  Mg   0.837808
    81  C   -0.016852
    82  C   -0.087770
    83  C   -0.045472
    84  C   -0.064857
    85  N   -0.254582
    86  C   -0.049827
    87  C   -0.015097
    88  C   -0.090533
    89  C    0.045781
    90  C    0.114372
    91  C    0.062511
    92  C   -0.077886
    93  H    0.034875
    94  N   -0.423476
    95  C    0.162916
    96  C   -0.174597
    97  C   -0.007757
    98  C    0.152104
    99  C    0.099347
   100  C    0.015593
   101  O   -0.253125
   102  C    0.061192
   103  N   -0.350062
   104  C    0.037553
   105  C   -0.019869
   106  C   -0.034798
   107  C    0.088908
   108  C    0.073626
   109  C    0.034720
   110  C   -0.007679
   111  N   -0.324091
   112  C    0.078426
   113  C   -0.163142
   114  C    0.002223
   115  C    0.096201
   116  C    0.131490
   117  C    0.042364
   118  O   -0.187930
   119  C    0.000937
   120  C    0.211257
   121  O   -0.251026
   122  O   -0.305638
   123  C    0.152040
   124  H   -0.019620
   125  H   -0.015521
   126  H   -0.040454
   127  H   -0.000666
   128  H   -0.004312
   129  H    0.022448
   130  H    0.014471
   131  H    0.016308
   132  H    0.013929
   133  H    0.037667
   134  H    0.020778
   135  H    0.019610
   136  H    0.008776
   137  H    0.026214
   138  H    0.039812
   139  H    0.038292
   140  H    0.036439
   141  H    0.033882
   142  H    0.014417
   143  H    0.012456
   144  H    0.025198
   145  H    0.011682
   146  H    0.005730
   147  H    0.006306
   148  H    0.003641
   149  H    0.010951
   150  H    0.017920
   151  H    0.030082
   152  H    0.045971
   153  H    0.008522
   154  H    0.046935
   155  H    0.035006
   156  H    0.043875
   157  H    0.049503
   158  H    0.053574
 Sum of Mulliken charges =  -0.00000
 Mulliken charges with hydrogens summed into heavy atoms:
               1
     1  Mg   0.838703
     2  C   -0.002945
     3  C   -0.111667
     4  C   -0.062788
     5  C   -0.105483
     6  N   -0.256790
     7  C   -0.052445
     8  C   -0.013076
     9  C   -0.090984
    10  C    0.046329
    11  C    0.163401
    12  C    0.108804
    13  C    0.000209
    15  N   -0.433143
    16  C    0.168431
    17  C   -0.177131
    18  C   -0.004008
    19  C    0.148736
    20  C    0.182486
    21  C    0.012274
    22  O   -0.249667
    23  C    0.166989
    24  N   -0.341143
    25  C    0.041274
    26  C   -0.011653
    27  C   -0.014506
    28  C    0.074806
    29  C    0.116658
    30  C    0.046173
    31  C    0.051374
    32  N   -0.310461
    33  C    0.080398
    34  C   -0.169730
    35  C    0.008366
    36  C    0.082980
    37  C    0.229967
    38  C    0.046116
    39  O   -0.188432
    40  C    0.029822
    41  C    0.212894
    42  O   -0.257106
    43  O   -0.304798
    44  C    0.300765
    80  Mg   0.837808
    81  C   -0.016852
    82  C   -0.107391
    83  C   -0.060992
    84  C   -0.105311
    85  N   -0.254582
    86  C   -0.049827
    87  C   -0.015763
    88  C   -0.094845
    89  C    0.045781
    90  C    0.167599
    91  C    0.114107
    92  C   -0.002623
    94  N   -0.423476
    95  C    0.162916
    96  C   -0.174597
    97  C   -0.007757
    98  C    0.152104
    99  C    0.174149
   100  C    0.015593
   101  O   -0.253125
   102  C    0.169805
   103  N   -0.350062
   104  C    0.037553
   105  C   -0.005452
   106  C   -0.022342
   107  C    0.088908
   108  C    0.116237
   109  C    0.044668
   110  C    0.051274
   111  N   -0.324091
   112  C    0.078426
   113  C   -0.163142
   114  C    0.002223
   115  C    0.096201
   116  C    0.232919
   117  C    0.042364
   118  O   -0.187930
   119  C    0.035943
   120  C    0.211257
   121  O   -0.251026
   122  O   -0.305638
   123  C    0.298992
 Electronic spatial extent (au):  <R**2>=         614997.5732
 Charge=             -0.0000 electrons
 Dipole moment (field-independent basis, Debye):
    X=              3.8058    Y=              4.5877    Z=              1.2797  Tot=              6.0966
 Quadrupole moment (field-independent basis, Debye-Ang):
   XX=           -518.2563   YY=           -519.5502   ZZ=           -479.2084
   XY=             33.0008   XZ=           -106.3602   YZ=             18.7322
 Traceless Quadrupole moment (field-independent basis, Debye-Ang):
   XX=            -12.5846   YY=            -13.8786   ZZ=             26.4633
   XY=             33.0008   XZ=           -106.3602   YZ=             18.7322
 Octapole moment (field-independent basis, Debye-Ang**2):
  XXX=           2901.9354  YYY=            256.4778  ZZZ=            184.9203  XYY=           -729.8353
  XXY=           1079.9453  XXZ=            387.2625  XZZ=            724.2551  YZZ=            -92.2566
  YYZ=           -298.5848  XYZ=           -755.4482
 Hexadecapole moment (field-independent basis, Debye-Ang**3):
 XXXX=        -788598.8635 YYYY=         -36768.3615 ZZZZ=         -29357.3322 XXXY=           7951.2957
 XXXZ=         -29627.2266 YYYX=          -1272.4915 YYYZ=           -338.2085 ZZZX=          -3356.8404
 ZZZY=            947.3952 XXYY=        -137445.3446 XXZZ=        -126820.2478 YYZZ=         -11138.8868
 XXYZ=           4318.9708 YYXZ=           -198.8487 ZZXY=          -1273.1011
 N-N= 1.230551786111D+04 E-N=-3.409186277132D+04  KE= 4.028802076070D+03
 Leave Link  601 at Sat Sep  4 18:42:07 2021, MaxMem= 23488102400 cpu:              12.8 elap:               0.6
 (Enter /sw/apps/gaussian-16.0/g16/l9999.exe)
 1\1\GINC-BP1-COMPUTE00089\SP\RCAM-B3LYP TD-FC\def2SVP\C68H72Mg2N8O8\OF
 15641\04-Sep-2021\0\\#p cam-b3lyp/Def2SVP td=(nstates=5)\\TDDFT excite
 d states in gaussian\\0,1\Mg,0,0.,0.,0.\C,0,-0.217,-2.218,2.801\C,0,-1
 .255,2.442,2.026\C,0,-0.245,1.85,-2.564\C,0,0.146,-2.824,-2.037\N,0,-0
 .617,-0.009,2.126\C,0,-0.594,-0.908,3.105\C,0,-0.936,-0.309,4.502\C,0,
 -1.773,0.964,4.032\C,0,-1.155,1.168,2.66\C,0,-3.263,0.685,3.863\C,0,0.
 345,0.11,5.299\C,0,0.124,0.397,6.787\H,0,1.168,0.033,7.733\N,0,-0.185,
 1.961,-0.152\C,0,-0.703,2.8,0.777\C,0,-0.62,4.156,0.193\C,0,-0.187,4.0
 15,-1.225\C,0,-0.214,2.583,-1.38\C,0,-0.887,5.406,0.974\C,0,0.181,5.01
 3,-2.277\O,0,0.303,4.69,-3.508\C,0,0.31,6.414,-1.837\N,0,-0.265,-0.413
 ,-2.029\C,0,-0.279,0.569,-2.937\C,0,-0.196,0.024,-4.332\C,0,0.124,-1.5
 33,-4.18\C,0,0.086,-1.632,-2.635\C,0,-1.451,0.205,-5.197\C,0,1.373,-2.
 07,-4.923\C,0,2.626,-1.49,-4.306\N,0,0.15,-2.144,0.303\C,0,0.173,-3.13
 6,-0.688\C,0,0.173,-4.438,0.004\C,0,0.133,-4.111,1.358\C,0,0.083,-2.69
 5,1.502\C,0,0.149,-5.715,-0.623\C,0,0.096,-4.629,2.716\O,0,0.208,-5.74
 7,3.221\C,0,-0.255,-3.428,3.701\C,0,0.717,-3.482,4.848\O,0,1.931,-3.25
 5,4.669\O,0,0.038,-3.556,6.003\C,0,0.943,-3.583,7.183\H,0,-1.859,3.22,
 2.497\H,0,-0.218,2.453,-3.474\H,0,0.276,-3.747,-2.605\H,0,-1.554,-0.94
 9,5.132\H,0,-1.585,1.831,4.665\H,0,-3.484,-0.377,3.969\H,0,-3.511,1.02
 7,2.858\H,0,-3.852,1.301,4.543\H,0,0.669,1.096,4.966\H,0,1.13,-0.639,5
 .189\H,0,-0.844,0.026,7.125\H,0,0.062,1.477,6.921\H,0,-1.344,5.186,1.9
 38\H,0,-1.651,5.963,0.432\H,0,0.007,6.02,1.084\H,0,-0.635,6.744,-1.405
 \H,0,0.665,6.97,-2.704\H,0,1.048,6.466,-1.036\H,0,0.608,0.501,-4.891\H
 ,0,-0.692,-2.156,-4.547\H,0,-1.267,0.74,-6.129\H,0,-2.204,0.714,-4.596
 \H,0,-1.967,-0.72,-5.453\H,0,1.356,-1.759,-5.967\H,0,1.452,-3.157,-4.9
 02\H,0,2.714,-0.522,-4.798\H,0,3.487,-2.121,-4.529\H,0,2.495,-1.303,-3
 .24\H,0,0.867,-6.333,-0.084\H,0,0.404,-5.642,-1.68\H,0,-0.891,-5.999,-
 0.463\H,0,-1.283,-3.581,4.028\H,0,0.698,-4.478,7.755\H,0,0.833,-2.619,
 7.68\H,0,2.,-3.754,6.976\Mg,0,31.53986,2.84372,2.38943\C,0,30.95504,6.
 26526,3.30052\C,0,30.82078,3.73262,-0.8242\C,0,31.60598,-0.23574,1.627
 86\C,0,31.09012,2.01837,5.74535\N,0,30.97563,4.77972,1.48069\C,0,30.84
 457,6.02405,1.91522\C,0,30.65988,7.08096,0.79345\C,0,30.06822,6.119,-0
 .34823\C,0,30.68428,4.79635,0.10313\C,0,28.55549,5.98354,-0.29666\C,0,
 32.01956,7.72771,0.35183\C,0,31.88378,8.98142,-0.51507\H,0,32.864,10.0
 512,-0.35012\N,0,31.73723,1.96166,0.62263\C,0,31.41731,2.47539,-0.5836
 1\C,0,31.73203,1.42516,-1.56449\C,0,32.10902,0.19014,-0.8247\C,0,31.80
 53,0.59347,0.53367\C,0,31.73617,1.66986,-3.04555\C,0,32.6412,-1.13898,
 -1.26791\O,0,32.67307,-2.14859,-0.47893\C,0,33.03705,-1.249,-2.67954\N
 ,0,31.16448,1.11341,3.47913\C,0,31.31638,-0.10095,2.92218\C,0,31.26031
 ,-1.1907,3.96606\C,0,31.28104,-0.43643,5.3761\C,0,31.25431,1.02631,4.8
 8105\C,0,30.04307,-2.11286,3.90033\C,0,32.38727,-0.85605,6.38251\C,0,3
 3.74471,-0.44742,5.85738\N,0,31.28585,3.93232,4.23834\C,0,31.08808,3.3
 9014,5.52715\C,0,30.85169,4.52356,6.44471\C,0,30.90592,5.654,5.61545\C
 ,0,31.1382,5.25198,4.27235\C,0,30.57857,4.4229,7.83804\C,0,30.8089,7.0
 9523,5.56918\O,0,30.70695,7.98649,6.41119\C,0,30.71049,7.54652,4.04831
 \C,0,31.67904,8.67758,3.83583\O,0,32.90401,8.48809,3.93665\O,0,31.0163
 5,9.73756,3.33819\C,0,31.93656,10.8814,3.10012\H,0,30.39355,3.85436,-1
 .81996\H,0,31.72868,-1.30456,1.43802\H,0,31.03898,1.85098,6.82333\H,0,
 29.95004,7.86683,1.02216\H,0,30.44011,6.39717,-1.33093\H,0,28.13743,6.
 46441,0.5752\H,0,28.35596,4.92018,-0.27445\H,0,28.11196,6.35408,-1.225
 26\H,0,32.51905,7.05936,-0.3613\H,0,32.63389,7.94274,1.20447\H,0,30.86
 505,9.38734,-0.49608\H,0,32.04074,8.70001,-1.55919\H,0,31.25837,2.6248
 4,-3.29681\H,0,31.08485,0.91334,-3.49646\H,0,32.73285,1.58467,-3.48376
 \H,0,32.18353,-1.01917,-3.31291\H,0,33.47466,-2.24375,-2.78365\H,0,33.
 7984,-0.48951,-2.8896\H,0,32.12832,-1.83508,3.89942\H,0,30.34834,-0.59
 545,5.93701\H,0,30.31018,-3.18165,3.79831\H,0,29.41924,-1.79636,3.0749
 9\H,0,29.36179,-2.03936,4.7463\H,0,32.41001,-1.94342,6.48864\H,0,32.24
 981,-0.43848,7.37435\H,0,34.00234,-1.26463,5.17702\H,0,34.46288,-0.370
 1,6.67119\H,0,33.67606,0.46935,5.26032\H,0,31.16866,5.18661,8.32695\H,
 0,30.81545,3.43168,8.21903\H,0,29.50271,4.61728,7.84044\H,0,29.67949,7
 .8501,3.86273\H,0,31.53204,11.73671,3.6501\H,0,32.01275,10.97974,2.000
 9\H,0,32.93534,10.81601,3.51558\\Version=ES64L-G16RevA.03\State=1-A\HF
 =-4069.811783\RMSD=4.678e-09\PG=C01 [X(C68H72Mg2N8O8)]\\@


 THE PROMISED LAND ALWAYS LIES ON THE OTHER SIDE OF A WILDERNESS.

                         -- HAVELOCK ELLIS
 Job cpu time:       0 days 10 hours 12 minutes  0.8 seconds.
 Elapsed time:       0 days  0 hours 26 minutes  5.2 seconds.
 File lengths (MBytes):  RWF=  13225 Int=      0 D2E=      0 Chk=    574 Scr=      1
 Normal termination of Gaussian 16 at Sat Sep  4 18:42:08 2021.
