 Entering Gaussian System, Link 0=g16
 Initial command:
 /sw/apps/gaussian-16.0/g16/l1.exe "/tmp/Gau-216062.inp" -scrdir="/tmp/"
 Entering Link 1 = /sw/apps/gaussian-16.0/g16/l1.exe PID=    216063.
  
 Copyright (c) 1988,1990,1992,1993,1995,1998,2003,2009,2016,
            Gaussian, Inc.  All Rights Reserved.
  
 This is part of the Gaussian(R) 16 program.  It is based on
 the Gaussian(R) 09 system (copyright 2009, Gaussian, Inc.),
 the Gaussian(R) 03 system (copyright 2003, Gaussian, Inc.),
 the Gaussian(R) 98 system (copyright 1998, Gaussian, Inc.),
 the Gaussian(R) 94 system (copyright 1995, Gaussian, Inc.),
 the Gaussian 92(TM) system (copyright 1992, Gaussian, Inc.),
 the Gaussian 90(TM) system (copyright 1990, Gaussian, Inc.),
 the Gaussian 88(TM) system (copyright 1988, Gaussian, Inc.),
 the Gaussian 86(TM) system (copyright 1986, Carnegie Mellon
 University), and the Gaussian 82(TM) system (copyright 1983,
 Carnegie Mellon University). Gaussian is a federally registered
 trademark of Gaussian, Inc.
  
 This software contains proprietary and confidential information,
 including trade secrets, belonging to Gaussian, Inc.
  
 This software is provided under written license and may be
 used, copied, transmitted, or stored only in accord with that
 written license.
  
 The following legend is applicable only to US Government
 contracts under FAR:
  
                    RESTRICTED RIGHTS LEGEND
  
 Use, reproduction and disclosure by the US Government is
 subject to restrictions as set forth in subparagraphs (a)
 and (c) of the Commercial Computer Software - Restricted
 Rights clause in FAR 52.227-19.
  
 Gaussian, Inc.
 340 Quinnipiac St., Bldg. 40, Wallingford CT 06492
  
  
 ---------------------------------------------------------------
 Warning -- This program may not be used in any manner that
 competes with the business of Gaussian, Inc. or will provide
 assistance to any competitor of Gaussian, Inc.  The licensee
 of this program is prohibited from giving any competitor of
 Gaussian, Inc. access to this program.  By using this program,
 the user acknowledges that Gaussian, Inc. is engaged in the
 business of creating and licensing software in the field of
 computational chemistry and represents and warrants to the
 licensee that it is not a competitor of Gaussian, Inc. and that
 it will not use this program in any manner prohibited above.
 ---------------------------------------------------------------
  

 Cite this work as:
 Gaussian 16, Revision A.03,
 M. J. Frisch, G. W. Trucks, H. B. Schlegel, G. E. Scuseria, 
 M. A. Robb, J. R. Cheeseman, G. Scalmani, V. Barone, 
 G. A. Petersson, H. Nakatsuji, X. Li, M. Caricato, A. V. Marenich, 
 J. Bloino, B. G. Janesko, R. Gomperts, B. Mennucci, H. P. Hratchian, 
 J. V. Ortiz, A. F. Izmaylov, J. L. Sonnenberg, D. Williams-Young, 
 F. Ding, F. Lipparini, F. Egidi, J. Goings, B. Peng, A. Petrone, 
 T. Henderson, D. Ranasinghe, V. G. Zakrzewski, J. Gao, N. Rega, 
 G. Zheng, W. Liang, M. Hada, M. Ehara, K. Toyota, R. Fukuda, 
 J. Hasegawa, M. Ishida, T. Nakajima, Y. Honda, O. Kitao, H. Nakai, 
 T. Vreven, K. Throssell, J. A. Montgomery, Jr., J. E. Peralta, 
 F. Ogliaro, M. J. Bearpark, J. J. Heyd, E. N. Brothers, K. N. Kudin, 
 V. N. Staroverov, T. A. Keith, R. Kobayashi, J. Normand, 
 K. Raghavachari, A. P. Rendell, J. C. Burant, S. S. Iyengar, 
 J. Tomasi, M. Cossi, J. M. Millam, M. Klene, C. Adamo, R. Cammi, 
 J. W. Ochterski, R. L. Martin, K. Morokuma, O. Farkas, 
 J. B. Foresman, and D. J. Fox, Gaussian, Inc., Wallingford CT, 2016.
 
 ******************************************
 Gaussian 16:  ES64L-G16RevA.03 25-Dec-2016
                11-Sep-2021 
 ******************************************
 %nproc=24
 Will use up to   24 processors via shared memory.
 %mem=175gb
 -----------------------------------
 #p cam-b3lyp/Def2SVP td=(nstates=5)
 -----------------------------------
 1/38=1,172=1/1;
 2/12=2,17=6,18=5,40=1/2;
 3/5=43,7=101,11=9,25=1,30=1,74=-40/1,2,3,8;
 4//1;
 5/5=2,38=5/2;
 8/6=1,10=1,108=5/1;
 9/41=5,42=1,70=2/14;
 6/7=2,8=2,9=2,10=2/1;
 99/5=1,9=1/99;
 Leave Link    1 at Sat Sep 11 05:58:12 2021, MaxMem= 23488102400 cpu:               0.5 elap:               0.0
 (Enter /sw/apps/gaussian-16.0/g16/l101.exe)
 --------------------------------
 TDDFT excited states in gaussian
 --------------------------------
 Symbolic Z-matrix:
 Charge =  0 Multiplicity = 1
 Mg                    0.        0.        0. 
 C                    -0.217    -2.218     2.801 
 C                    -1.255     2.442     2.026 
 C                    -0.245     1.85     -2.564 
 C                     0.146    -2.824    -2.037 
 N                    -0.617    -0.009     2.126 
 C                    -0.594    -0.908     3.105 
 C                    -0.936    -0.309     4.502 
 C                    -1.773     0.964     4.032 
 C                    -1.155     1.168     2.66 
 C                    -3.263     0.685     3.863 
 C                     0.345     0.11      5.299 
 C                     0.124     0.397     6.787 
 H                     1.168     0.033     7.733 
 N                    -0.185     1.961    -0.152 
 C                    -0.703     2.8       0.777 
 C                    -0.62      4.156     0.193 
 C                    -0.187     4.015    -1.225 
 C                    -0.214     2.583    -1.38 
 C                    -0.887     5.406     0.974 
 C                     0.181     5.013    -2.277 
 O                     0.303     4.69     -3.508 
 C                     0.31      6.414    -1.837 
 N                    -0.265    -0.413    -2.029 
 C                    -0.279     0.569    -2.937 
 C                    -0.196     0.024    -4.332 
 C                     0.124    -1.533    -4.18 
 C                     0.086    -1.632    -2.635 
 C                    -1.451     0.205    -5.197 
 C                     1.373    -2.07     -4.923 
 C                     2.626    -1.49     -4.306 
 N                     0.15     -2.144     0.303 
 C                     0.173    -3.136    -0.688 
 C                     0.173    -4.438     0.004 
 C                     0.133    -4.111     1.358 
 C                     0.083    -2.695     1.502 
 C                     0.149    -5.715    -0.623 
 C                     0.096    -4.629     2.716 
 O                     0.208    -5.747     3.221 
 C                    -0.255    -3.428     3.701 
 C                     0.717    -3.482     4.848 
 O                     1.931    -3.255     4.669 
 O                     0.038    -3.556     6.003 
 C                     0.943    -3.583     7.183 
 H                    -1.859     3.22      2.497 
 H                    -0.218     2.453    -3.474 
 H                     0.276    -3.747    -2.605 
 H                    -1.554    -0.949     5.132 
 H                    -1.585     1.831     4.665 
 H                    -3.484    -0.377     3.969 
 H                    -3.511     1.027     2.858 
 H                    -3.852     1.301     4.543 
 H                     0.669     1.096     4.966 
 H                     1.13     -0.639     5.189 
 H                    -0.844     0.026     7.125 
 H                     0.062     1.477     6.921 
 H                    -1.344     5.186     1.938 
 H                    -1.651     5.963     0.432 
 H                     0.007     6.02      1.084 
 H                    -0.635     6.744    -1.405 
 H                     0.665     6.97     -2.704 
 H                     1.048     6.466    -1.036 
 H                     0.608     0.501    -4.891 
 H                    -0.692    -2.156    -4.547 
 H                    -1.267     0.74     -6.129 
 H                    -2.204     0.714    -4.596 
 H                    -1.967    -0.72     -5.453 
 H                     1.356    -1.759    -5.967 
 H                     1.452    -3.157    -4.902 
 H                     2.714    -0.522    -4.798 
 H                     3.487    -2.121    -4.529 
 H                     2.495    -1.303    -3.24 
 H                     0.867    -6.333    -0.084 
 H                     0.404    -5.642    -1.68 
 H                    -0.891    -5.999    -0.463 
 H                    -1.283    -3.581     4.028 
 H                     0.698    -4.478     7.755 
 H                     0.833    -2.619     7.68 
 H                     2.       -3.754     6.976 
 Mg                    13.13291   1.18503   0.98936 
 C                     14.15256  -1.48795  -1.17733 
 C                     14.36362   3.34662  -1.34462 
 C                     12.65908   3.53863   3.06385 
 C                     13.04052  -1.13945   3.58435 
 N                     14.10776   0.85153  -0.96785 
 C                     14.38636  -0.20546  -1.71585 
 C                     14.87213   0.13219  -3.15097 
 C                     15.43138   1.61178  -2.87366 
 C                     14.55965   1.98199  -1.67545 
 C                     16.88508   1.6326   -2.4313 
 C                     13.69769   0.14766  -4.19138 
 C                     14.13717   0.16437  -5.6571 
 H                     13.33094  -0.5626   -6.63381 
 N                     13.00654   3.14457   0.70159 
 C                     13.5467   3.85484  -0.31085 
 C                     13.18465   5.25776  -0.05608 
 C                     12.52702   5.33792   1.27652 
 C                     12.72846   3.9838    1.75176 
 C                     13.3964   6.34889  -1.06505 
 C                     11.84278   6.45274   2.00809 
 O                     11.55395   6.36332   3.25365 
 C                     11.60502   7.68778   1.24674 
 N                     13.09032   1.24596   3.06706 
 C                     12.81073   2.38785   3.71961 
 C                     12.56472   2.13121   5.18727 
 C                     12.49913   0.54065   5.34019 
 C                     12.8215   0.13308   3.88576 
 C                     13.61529   2.69149   6.1458 
 C                     11.22777  -0.05025   6.00889 
 C                     10.02682   0.16758   5.1169 
 N                     13.3385  -0.95851   1.16545 
 C                     13.29103  -1.72549   2.35017 
 C                     13.59737  -3.12179   1.97743 
 C                     13.82626  -3.06584   0.59432 
 C                     13.6932  -1.72569   0.14071 
 C                     13.68291  -4.22289   2.87542 
 C                     14.16063  -3.83402  -0.5833 
 O                     14.30498  -5.03122  -0.82745 
 C                     14.51108  -2.82621  -1.76139 
 C                     13.7711  -3.27462  -2.99178 
 O                     12.52844  -3.24243  -3.02884 
 O                     14.65139  -3.45999  -3.99233 
 C                     13.96388  -3.8947   -5.23739 
 H                     14.92027   4.10068  -1.90178 
 H                     12.38804   4.29456   3.80451 
 H                     12.93528  -1.94      4.31968 
 H                     15.66777  -0.5025   -3.52232 
 H                     15.22907   2.27398  -3.71147 
 H                     17.26895   0.63756  -2.26192 
 H                     16.90537   2.20709  -1.51446 
 H                     17.49007   2.19176  -3.15078 
 H                     13.18477   1.11658  -4.13797 
 H                     13.02942  -0.67452  -4.02386 
 H                     15.19868  -0.08651  -5.77202 
 H                     14.06191   1.18862  -6.03029 
 H                     14.04925   6.01946  -1.88276 
 H                     13.96528   7.14045  -0.56537 
 H                     12.45837   6.76784  -1.43552 
 H                     12.55369   8.07753   0.88538 
 H                     11.02735   8.33376   1.91073 
 H                     11.00743   7.44343   0.36142 
 H                     11.61783   2.55369   5.50033 
 H                     13.32028   0.15703   5.96339 
 H                     13.19236   3.37576   6.90539 
 H                     14.37586   3.19379   5.56291 
 H                     14.19398   1.94354   6.68516 
 H                     11.01646   0.46988   6.94643 
 H                     11.31224  -1.10711   6.23889 
 H                     9.72276   1.1906    5.35786 
 H                     9.2391   -0.54458   5.35432 
 H                     10.3138   0.14949   4.05909 
 H                     13.17066  -5.05046   2.40297 
 H                     13.24476  -3.98268   3.8419 
 H                     14.76804  -4.34219   2.93491 
 H                     15.59233  -2.85036  -1.9024 
 H                     14.4335  -4.83212  -5.55104 
 H                     14.0359  -3.03774  -5.93322 
 H                     12.9255  -4.19457  -5.15798 
 
 ITRead=  0  0  0  0  0  0  0  0  0  0  0  0  0  0  0  0  0  0  0  0
 ITRead=  0  0  0  0  0  0  0  0  0  0  0  0  0  0  0  0  0  0  0  0
 ITRead=  0  0  0  0  0  0  0  0  0  0  0  0  0  0  0  0  0  0  0  0
 ITRead=  0  0  0  0  0  0  0  0  0  0  0  0  0  0  0  0  0  0  0  0
 ITRead=  0  0  0  0  0  0  0  0  0  0  0  0  0  0  0  0  0  0  0  0
 ITRead=  0  0  0  0  0  0  0  0  0  0  0  0  0  0  0  0  0  0  0  0
 ITRead=  0  0  0  0  0  0  0  0  0  0  0  0  0  0  0  0  0  0  0  0
 ITRead=  0  0  0  0  0  0  0  0  0  0  0  0  0  0  0  0  0  0
 MicOpt= -1 -1 -1 -1 -1 -1 -1 -1 -1 -1 -1 -1 -1 -1 -1 -1 -1 -1 -1 -1
 MicOpt= -1 -1 -1 -1 -1 -1 -1 -1 -1 -1 -1 -1 -1 -1 -1 -1 -1 -1 -1 -1
 MicOpt= -1 -1 -1 -1 -1 -1 -1 -1 -1 -1 -1 -1 -1 -1 -1 -1 -1 -1 -1 -1
 MicOpt= -1 -1 -1 -1 -1 -1 -1 -1 -1 -1 -1 -1 -1 -1 -1 -1 -1 -1 -1 -1
 MicOpt= -1 -1 -1 -1 -1 -1 -1 -1 -1 -1 -1 -1 -1 -1 -1 -1 -1 -1 -1 -1
 MicOpt= -1 -1 -1 -1 -1 -1 -1 -1 -1 -1 -1 -1 -1 -1 -1 -1 -1 -1 -1 -1
 MicOpt= -1 -1 -1 -1 -1 -1 -1 -1 -1 -1 -1 -1 -1 -1 -1 -1 -1 -1 -1 -1
 MicOpt= -1 -1 -1 -1 -1 -1 -1 -1 -1 -1 -1 -1 -1 -1 -1 -1 -1 -1
 NAtoms=    158 NQM=      158 NQMF=       0 NMMI=      0 NMMIF=      0
                NMic=       0 NMicF=      0.
                    Isotopes and Nuclear Properties:
 (Nuclear quadrupole moments (NQMom) in fm**2, nuclear magnetic moments (NMagM)
  in nuclear magnetons)

  Atom         1           2           3           4           5           6           7           8           9          10
 IAtWgt=          24          12          12          12          12          14          12          12          12          12
 AtmWgt=  23.9850450  12.0000000  12.0000000  12.0000000  12.0000000  14.0030740  12.0000000  12.0000000  12.0000000  12.0000000
 NucSpn=           0           0           0           0           0           2           0           0           0           0
 AtZEff=  -0.0000000  -0.0000000  -0.0000000  -0.0000000  -0.0000000  -0.0000000  -0.0000000  -0.0000000  -0.0000000  -0.0000000
 NQMom=    0.0000000   0.0000000   0.0000000   0.0000000   0.0000000   2.0440000   0.0000000   0.0000000   0.0000000   0.0000000
 NMagM=    0.0000000   0.0000000   0.0000000   0.0000000   0.0000000   0.4037610   0.0000000   0.0000000   0.0000000   0.0000000
 AtZNuc=  12.0000000   6.0000000   6.0000000   6.0000000   6.0000000   7.0000000   6.0000000   6.0000000   6.0000000   6.0000000

  Atom        11          12          13          14          15          16          17          18          19          20
 IAtWgt=          12          12          12           1          14          12          12          12          12          12
 AtmWgt=  12.0000000  12.0000000  12.0000000   1.0078250  14.0030740  12.0000000  12.0000000  12.0000000  12.0000000  12.0000000
 NucSpn=           0           0           0           1           2           0           0           0           0           0
 AtZEff=  -0.0000000  -0.0000000  -0.0000000  -0.0000000  -0.0000000  -0.0000000  -0.0000000  -0.0000000  -0.0000000  -0.0000000
 NQMom=    0.0000000   0.0000000   0.0000000   0.0000000   2.0440000   0.0000000   0.0000000   0.0000000   0.0000000   0.0000000
 NMagM=    0.0000000   0.0000000   0.0000000   2.7928460   0.4037610   0.0000000   0.0000000   0.0000000   0.0000000   0.0000000
 AtZNuc=   6.0000000   6.0000000   6.0000000   1.0000000   7.0000000   6.0000000   6.0000000   6.0000000   6.0000000   6.0000000

  Atom        21          22          23          24          25          26          27          28          29          30
 IAtWgt=          12          16          12          14          12          12          12          12          12          12
 AtmWgt=  12.0000000  15.9949146  12.0000000  14.0030740  12.0000000  12.0000000  12.0000000  12.0000000  12.0000000  12.0000000
 NucSpn=           0           0           0           2           0           0           0           0           0           0
 AtZEff=  -0.0000000  -0.0000000  -0.0000000  -0.0000000  -0.0000000  -0.0000000  -0.0000000  -0.0000000  -0.0000000  -0.0000000
 NQMom=    0.0000000   0.0000000   0.0000000   2.0440000   0.0000000   0.0000000   0.0000000   0.0000000   0.0000000   0.0000000
 NMagM=    0.0000000   0.0000000   0.0000000   0.4037610   0.0000000   0.0000000   0.0000000   0.0000000   0.0000000   0.0000000
 AtZNuc=   6.0000000   8.0000000   6.0000000   7.0000000   6.0000000   6.0000000   6.0000000   6.0000000   6.0000000   6.0000000

  Atom        31          32          33          34          35          36          37          38          39          40
 IAtWgt=          12          14          12          12          12          12          12          12          16          12
 AtmWgt=  12.0000000  14.0030740  12.0000000  12.0000000  12.0000000  12.0000000  12.0000000  12.0000000  15.9949146  12.0000000
 NucSpn=           0           2           0           0           0           0           0           0           0           0
 AtZEff=  -0.0000000  -0.0000000  -0.0000000  -0.0000000  -0.0000000  -0.0000000  -0.0000000  -0.0000000  -0.0000000  -0.0000000
 NQMom=    0.0000000   2.0440000   0.0000000   0.0000000   0.0000000   0.0000000   0.0000000   0.0000000   0.0000000   0.0000000
 NMagM=    0.0000000   0.4037610   0.0000000   0.0000000   0.0000000   0.0000000   0.0000000   0.0000000   0.0000000   0.0000000
 AtZNuc=   6.0000000   7.0000000   6.0000000   6.0000000   6.0000000   6.0000000   6.0000000   6.0000000   8.0000000   6.0000000

  Atom        41          42          43          44          45          46          47          48          49          50
 IAtWgt=          12          16          16          12           1           1           1           1           1           1
 AtmWgt=  12.0000000  15.9949146  15.9949146  12.0000000   1.0078250   1.0078250   1.0078250   1.0078250   1.0078250   1.0078250
 NucSpn=           0           0           0           0           1           1           1           1           1           1
 AtZEff=  -0.0000000  -0.0000000  -0.0000000  -0.0000000  -0.0000000  -0.0000000  -0.0000000  -0.0000000  -0.0000000  -0.0000000
 NQMom=    0.0000000   0.0000000   0.0000000   0.0000000   0.0000000   0.0000000   0.0000000   0.0000000   0.0000000   0.0000000
 NMagM=    0.0000000   0.0000000   0.0000000   0.0000000   2.7928460   2.7928460   2.7928460   2.7928460   2.7928460   2.7928460
 AtZNuc=   6.0000000   8.0000000   8.0000000   6.0000000   1.0000000   1.0000000   1.0000000   1.0000000   1.0000000   1.0000000

  Atom        51          52          53          54          55          56          57          58          59          60
 IAtWgt=           1           1           1           1           1           1           1           1           1           1
 AtmWgt=   1.0078250   1.0078250   1.0078250   1.0078250   1.0078250   1.0078250   1.0078250   1.0078250   1.0078250   1.0078250
 NucSpn=           1           1           1           1           1           1           1           1           1           1
 AtZEff=  -0.0000000  -0.0000000  -0.0000000  -0.0000000  -0.0000000  -0.0000000  -0.0000000  -0.0000000  -0.0000000  -0.0000000
 NQMom=    0.0000000   0.0000000   0.0000000   0.0000000   0.0000000   0.0000000   0.0000000   0.0000000   0.0000000   0.0000000
 NMagM=    2.7928460   2.7928460   2.7928460   2.7928460   2.7928460   2.7928460   2.7928460   2.7928460   2.7928460   2.7928460
 AtZNuc=   1.0000000   1.0000000   1.0000000   1.0000000   1.0000000   1.0000000   1.0000000   1.0000000   1.0000000   1.0000000

  Atom        61          62          63          64          65          66          67          68          69          70
 IAtWgt=           1           1           1           1           1           1           1           1           1           1
 AtmWgt=   1.0078250   1.0078250   1.0078250   1.0078250   1.0078250   1.0078250   1.0078250   1.0078250   1.0078250   1.0078250
 NucSpn=           1           1           1           1           1           1           1           1           1           1
 AtZEff=  -0.0000000  -0.0000000  -0.0000000  -0.0000000  -0.0000000  -0.0000000  -0.0000000  -0.0000000  -0.0000000  -0.0000000
 NQMom=    0.0000000   0.0000000   0.0000000   0.0000000   0.0000000   0.0000000   0.0000000   0.0000000   0.0000000   0.0000000
 NMagM=    2.7928460   2.7928460   2.7928460   2.7928460   2.7928460   2.7928460   2.7928460   2.7928460   2.7928460   2.7928460
 AtZNuc=   1.0000000   1.0000000   1.0000000   1.0000000   1.0000000   1.0000000   1.0000000   1.0000000   1.0000000   1.0000000

  Atom        71          72          73          74          75          76          77          78          79          80
 IAtWgt=           1           1           1           1           1           1           1           1           1          24
 AtmWgt=   1.0078250   1.0078250   1.0078250   1.0078250   1.0078250   1.0078250   1.0078250   1.0078250   1.0078250  23.9850450
 NucSpn=           1           1           1           1           1           1           1           1           1           0
 AtZEff=  -0.0000000  -0.0000000  -0.0000000  -0.0000000  -0.0000000  -0.0000000  -0.0000000  -0.0000000  -0.0000000  -0.0000000
 NQMom=    0.0000000   0.0000000   0.0000000   0.0000000   0.0000000   0.0000000   0.0000000   0.0000000   0.0000000   0.0000000
 NMagM=    2.7928460   2.7928460   2.7928460   2.7928460   2.7928460   2.7928460   2.7928460   2.7928460   2.7928460   0.0000000
 AtZNuc=   1.0000000   1.0000000   1.0000000   1.0000000   1.0000000   1.0000000   1.0000000   1.0000000   1.0000000  12.0000000

  Atom        81          82          83          84          85          86          87          88          89          90
 IAtWgt=          12          12          12          12          14          12          12          12          12          12
 AtmWgt=  12.0000000  12.0000000  12.0000000  12.0000000  14.0030740  12.0000000  12.0000000  12.0000000  12.0000000  12.0000000
 NucSpn=           0           0           0           0           2           0           0           0           0           0
 AtZEff=  -0.0000000  -0.0000000  -0.0000000  -0.0000000  -0.0000000  -0.0000000  -0.0000000  -0.0000000  -0.0000000  -0.0000000
 NQMom=    0.0000000   0.0000000   0.0000000   0.0000000   2.0440000   0.0000000   0.0000000   0.0000000   0.0000000   0.0000000
 NMagM=    0.0000000   0.0000000   0.0000000   0.0000000   0.4037610   0.0000000   0.0000000   0.0000000   0.0000000   0.0000000
 AtZNuc=   6.0000000   6.0000000   6.0000000   6.0000000   7.0000000   6.0000000   6.0000000   6.0000000   6.0000000   6.0000000

  Atom        91          92          93          94          95          96          97          98          99         100
 IAtWgt=          12          12           1          14          12          12          12          12          12          12
 AtmWgt=  12.0000000  12.0000000   1.0078250  14.0030740  12.0000000  12.0000000  12.0000000  12.0000000  12.0000000  12.0000000
 NucSpn=           0           0           1           2           0           0           0           0           0           0
 AtZEff=  -0.0000000  -0.0000000  -0.0000000  -0.0000000  -0.0000000  -0.0000000  -0.0000000  -0.0000000  -0.0000000  -0.0000000
 NQMom=    0.0000000   0.0000000   0.0000000   2.0440000   0.0000000   0.0000000   0.0000000   0.0000000   0.0000000   0.0000000
 NMagM=    0.0000000   0.0000000   2.7928460   0.4037610   0.0000000   0.0000000   0.0000000   0.0000000   0.0000000   0.0000000
 AtZNuc=   6.0000000   6.0000000   1.0000000   7.0000000   6.0000000   6.0000000   6.0000000   6.0000000   6.0000000   6.0000000

  Atom       101         102         103         104         105         106         107         108         109         110
 IAtWgt=          16          12          14          12          12          12          12          12          12          12
 AtmWgt=  15.9949146  12.0000000  14.0030740  12.0000000  12.0000000  12.0000000  12.0000000  12.0000000  12.0000000  12.0000000
 NucSpn=           0           0           2           0           0           0           0           0           0           0
 AtZEff=  -0.0000000  -0.0000000  -0.0000000  -0.0000000  -0.0000000  -0.0000000  -0.0000000  -0.0000000  -0.0000000  -0.0000000
 NQMom=    0.0000000   0.0000000   2.0440000   0.0000000   0.0000000   0.0000000   0.0000000   0.0000000   0.0000000   0.0000000
 NMagM=    0.0000000   0.0000000   0.4037610   0.0000000   0.0000000   0.0000000   0.0000000   0.0000000   0.0000000   0.0000000
 AtZNuc=   8.0000000   6.0000000   7.0000000   6.0000000   6.0000000   6.0000000   6.0000000   6.0000000   6.0000000   6.0000000

  Atom       111         112         113         114         115         116         117         118         119         120
 IAtWgt=          14          12          12          12          12          12          12          16          12          12
 AtmWgt=  14.0030740  12.0000000  12.0000000  12.0000000  12.0000000  12.0000000  12.0000000  15.9949146  12.0000000  12.0000000
 NucSpn=           2           0           0           0           0           0           0           0           0           0
 AtZEff=  -0.0000000  -0.0000000  -0.0000000  -0.0000000  -0.0000000  -0.0000000  -0.0000000  -0.0000000  -0.0000000  -0.0000000
 NQMom=    2.0440000   0.0000000   0.0000000   0.0000000   0.0000000   0.0000000   0.0000000   0.0000000   0.0000000   0.0000000
 NMagM=    0.4037610   0.0000000   0.0000000   0.0000000   0.0000000   0.0000000   0.0000000   0.0000000   0.0000000   0.0000000
 AtZNuc=   7.0000000   6.0000000   6.0000000   6.0000000   6.0000000   6.0000000   6.0000000   8.0000000   6.0000000   6.0000000

  Atom       121         122         123         124         125         126         127         128         129         130
 IAtWgt=          16          16          12           1           1           1           1           1           1           1
 AtmWgt=  15.9949146  15.9949146  12.0000000   1.0078250   1.0078250   1.0078250   1.0078250   1.0078250   1.0078250   1.0078250
 NucSpn=           0           0           0           1           1           1           1           1           1           1
 AtZEff=  -0.0000000  -0.0000000  -0.0000000  -0.0000000  -0.0000000  -0.0000000  -0.0000000  -0.0000000  -0.0000000  -0.0000000
 NQMom=    0.0000000   0.0000000   0.0000000   0.0000000   0.0000000   0.0000000   0.0000000   0.0000000   0.0000000   0.0000000
 NMagM=    0.0000000   0.0000000   0.0000000   2.7928460   2.7928460   2.7928460   2.7928460   2.7928460   2.7928460   2.7928460
 AtZNuc=   8.0000000   8.0000000   6.0000000   1.0000000   1.0000000   1.0000000   1.0000000   1.0000000   1.0000000   1.0000000

  Atom       131         132         133         134         135         136         137         138         139         140
 IAtWgt=           1           1           1           1           1           1           1           1           1           1
 AtmWgt=   1.0078250   1.0078250   1.0078250   1.0078250   1.0078250   1.0078250   1.0078250   1.0078250   1.0078250   1.0078250
 NucSpn=           1           1           1           1           1           1           1           1           1           1
 AtZEff=  -0.0000000  -0.0000000  -0.0000000  -0.0000000  -0.0000000  -0.0000000  -0.0000000  -0.0000000  -0.0000000  -0.0000000
 NQMom=    0.0000000   0.0000000   0.0000000   0.0000000   0.0000000   0.0000000   0.0000000   0.0000000   0.0000000   0.0000000
 NMagM=    2.7928460   2.7928460   2.7928460   2.7928460   2.7928460   2.7928460   2.7928460   2.7928460   2.7928460   2.7928460
 AtZNuc=   1.0000000   1.0000000   1.0000000   1.0000000   1.0000000   1.0000000   1.0000000   1.0000000   1.0000000   1.0000000

  Atom       141         142         143         144         145         146         147         148         149         150
 IAtWgt=           1           1           1           1           1           1           1           1           1           1
 AtmWgt=   1.0078250   1.0078250   1.0078250   1.0078250   1.0078250   1.0078250   1.0078250   1.0078250   1.0078250   1.0078250
 NucSpn=           1           1           1           1           1           1           1           1           1           1
 AtZEff=  -0.0000000  -0.0000000  -0.0000000  -0.0000000  -0.0000000  -0.0000000  -0.0000000  -0.0000000  -0.0000000  -0.0000000
 NQMom=    0.0000000   0.0000000   0.0000000   0.0000000   0.0000000   0.0000000   0.0000000   0.0000000   0.0000000   0.0000000
 NMagM=    2.7928460   2.7928460   2.7928460   2.7928460   2.7928460   2.7928460   2.7928460   2.7928460   2.7928460   2.7928460
 AtZNuc=   1.0000000   1.0000000   1.0000000   1.0000000   1.0000000   1.0000000   1.0000000   1.0000000   1.0000000   1.0000000

  Atom       151         152         153         154         155         156         157         158
 IAtWgt=           1           1           1           1           1           1           1           1
 AtmWgt=   1.0078250   1.0078250   1.0078250   1.0078250   1.0078250   1.0078250   1.0078250   1.0078250
 NucSpn=           1           1           1           1           1           1           1           1
 AtZEff=  -0.0000000  -0.0000000  -0.0000000  -0.0000000  -0.0000000  -0.0000000  -0.0000000  -0.0000000
 NQMom=    0.0000000   0.0000000   0.0000000   0.0000000   0.0000000   0.0000000   0.0000000   0.0000000
 NMagM=    2.7928460   2.7928460   2.7928460   2.7928460   2.7928460   2.7928460   2.7928460   2.7928460
 AtZNuc=   1.0000000   1.0000000   1.0000000   1.0000000   1.0000000   1.0000000   1.0000000   1.0000000
 Leave Link  101 at Sat Sep 11 05:58:12 2021, MaxMem= 23488102400 cpu:               3.8 elap:               0.2
 (Enter /sw/apps/gaussian-16.0/g16/l202.exe)
 Stoichiometry    C68H72Mg2N8O8
 Framework group  C1[X(C68H72Mg2N8O8)]
 Deg. of freedom   468
 Full point group                 C1      NOp   1
 Largest Abelian subgroup         C1      NOp   1
 Largest concise Abelian subgroup C1      NOp   1
                         Standard orientation:                         
 ---------------------------------------------------------------------
 Center     Atomic      Atomic             Coordinates (Angstroms)
 Number     Number       Type             X           Y           Z
 ---------------------------------------------------------------------
      1         12           0       -6.596466    0.955828    0.376269
      2          6           0       -7.142942   -1.645253   -2.021220
      3          6           0       -7.808525   -1.178458    2.746669
      4          6           0       -6.550244    3.376894    2.423933
      5          6           0       -6.513942    3.195835   -2.292293
      6          7           0       -7.347160   -1.123208    0.254976
      7          6           0       -7.448206   -2.028413   -0.713303
      8          6           0       -7.837007   -3.445665   -0.195999
      9          6           0       -8.553350   -3.028741    1.165994
     10          6           0       -7.836495   -1.715431    1.425340
     11          6           0      -10.045087   -2.751575    1.009782
     12          6           0       -6.583898   -4.346574    0.068221
     13          6           0       -6.879357   -5.837015    0.259647
     14          1           0       -5.925220   -6.810995   -0.248619
     15          7           0       -6.636973    0.964244    2.351399
     16          6           0       -7.154715    0.004231    3.154894
     17          6           0       -6.942139    0.474318    4.540719
     18          6           0       -6.430105    1.871259    4.473845
     19          6           0       -6.544921    2.139313    3.063050
     20          6           0       -7.172449   -0.385285    5.745621
     21          6           0       -5.928346    2.818497    5.517450
     22          8           0       -5.750327    4.061778    5.278421
     23          6           0       -5.732297    2.263274    6.868869
     24          7           0       -6.758933    3.022965    0.135051
     25          6           0       -6.647790    3.850479    1.179968
     26          6           0       -6.513293    5.276652    0.735130
     27          6           0       -6.310777    5.228685   -0.848044
     28          6           0       -6.454049    3.701067   -1.058105
     29          6           0       -7.695180    6.196696    1.070794
     30          6           0       -5.056485    5.937185   -1.418306
     31          6           0       -3.808758    5.204435   -0.978589
     32          7           0       -6.612953    0.813524   -1.789493
     33          6           0       -6.594534    1.876169   -2.704435
     34          6           0       -6.727683    1.289515   -4.050606
     35          6           0       -6.831644   -0.081285   -3.822691
     36          6           0       -6.793881   -0.332636   -2.421374
     37          6           0       -6.798777    2.014985   -5.272520
     38          6           0       -6.990604   -1.390023   -4.435711
     39          8           0       -6.987729   -1.811540   -5.593212
     40          6           0       -7.320923   -2.443898   -3.288513
     41          6           0       -6.430129   -3.637999   -3.498083
     42          8           0       -5.194509   -3.548620   -3.347681
     43          8           0       -7.184976   -4.741969   -3.607618
     44          6           0       -6.361151   -5.967110   -3.787885
     45          1           0       -8.386807   -1.672857    3.529677
     46          1           0       -6.424046    4.233702    3.089058
     47          1           0       -6.411294    3.825843   -3.177734
     48          1           0       -8.536260   -3.986363   -0.834056
     49          1           0       -8.347369   -3.737641    1.967713
     50          1           0      -10.344444   -2.760924   -0.038178
     51          1           0      -10.204447   -1.763691    1.442429
     52          1           0      -10.632850   -3.442154    1.615101
     53          1           0       -6.172687   -4.111379    1.049878
     54          1           0       -5.846485   -4.224301   -0.725880
     55          1           0       -7.890048   -6.087729   -0.063703
     56          1           0       -6.875858   -6.051382    1.328400
     57          1           0       -7.704045   -1.300709    5.488811
     58          1           0       -7.860431    0.155135    6.395495
     59          1           0       -6.247445   -0.595141    6.282891
     60          1           0       -6.678201    1.862732    7.234084
     61          1           0       -5.285494    3.061795    7.460124
     62          1           0       -5.045137    1.418890    6.807420
     63          1           0       -5.644526    5.748589    1.192236
     64          1           0       -7.142324    5.690455   -1.380934
     65          1           0       -7.415911    7.071549    1.658456
     66          1           0       -8.448490    5.602712    1.587512
     67          1           0       -8.255764    6.554125    0.207424
     68          1           0       -4.985485    6.952806   -1.030466
     69          1           0       -5.053436    5.996850   -2.506737
     70          1           0       -3.623587    5.613076    0.014163
     71          1           0       -2.980399    5.425477   -1.652512
     72          1           0       -3.994491    4.136546   -0.861952
     73          1           0       -6.160570    1.485019   -5.979483
     74          1           0       -6.472399    3.046292   -5.140283
     75          1           0       -7.863840    1.938810   -5.490908
     76          1           0       -8.375755   -2.697241   -3.389850
     77          1           0       -6.702755   -6.451909   -4.702494
     78          1           0       -6.436551   -6.530841   -2.857871
     79          1           0       -5.307246   -5.809498   -4.019793
     80         12           0        6.496656   -0.889460    0.522971
     81          6           0        7.467601    1.416703   -2.049563
     82          6           0        8.018717    1.191994    2.755785
     83          6           0        6.053207   -3.110748    2.744837
     84          6           0        6.080127   -3.284459   -1.974267
     85          7           0        7.569451    1.027514    0.265002
     86          6           0        7.822390    1.838472   -0.751225
     87          6           0        8.420757    3.211857   -0.344627
     88          6           0        9.060929    2.787232    1.065593
     89          6           0        8.141786    1.616716    1.408731
     90          6           0       10.481428    2.260371    0.947437
     91          6           0        7.318970    4.314733   -0.166492
     92          6           0        7.851277    5.746427   -0.073451
     93          1           0        7.061295    6.822562   -0.665326
     94          7           0        6.523094   -0.749239    2.502419
     95          6           0        7.174074    0.171111    3.244358
     96          6           0        6.893187   -0.171211    4.647244
     97          6           0        6.158805   -1.465260    4.676327
     98          6           0        6.236497   -1.843886    3.279660
     99          6           0        7.242995    0.735040    5.791695
    100          6           0        5.507005   -2.240684    5.780898
    101          8           0        5.133780   -3.456383    5.620842
    102          6           0        5.403290   -1.565864    7.082961
    103          7           0        6.325717   -2.959491    0.432874
    104          6           0        6.083689   -3.682052    1.540680
    105          6           0        5.727488   -5.108186    1.194742
    106          6           0        5.543752   -5.131895   -0.393731
    107          6           0        5.929755   -3.671342   -0.714958
    108          6           0        6.750512   -6.167450    1.604341
    109          6           0        4.194886   -5.676757   -0.938124
    110          6           0        3.071051   -4.735898   -0.567778
    111          7           0        6.543652   -0.908749   -1.636996
    112          6           0        6.368325   -2.024914   -2.484056
    113          6           0        6.601734   -1.562449   -3.867559
    114          6           0        6.921779   -0.203732   -3.726233
    115          6           0        6.909832    0.150464   -2.350053
    116          6           0        6.554319   -2.374851   -5.035411
    117          6           0        7.277414    1.008895   -4.427483
    118          8           0        7.354932    1.337254   -5.610659
    119          6           0        7.770423    2.081876   -3.363506
    120          6           0        7.081633    3.384773   -3.664388
    121          8           0        5.848986    3.491784   -3.538918
    122          8           0        8.009303    4.343590   -3.838945
    123          6           0        7.374626    5.656946   -4.128945
    124          1           0        8.660029    1.654849    3.506370
    125          1           0        5.787695   -3.891251    3.461628
    126          1           0        5.873691   -3.947379   -2.817231
    127          1           0        9.193265    3.584648   -1.006468
    128          1           0        8.958256    3.580963    1.800993
    129          1           0       10.784817    2.147335   -0.082771
    130          1           0       10.482321    1.301717    1.449462
    131          1           0       11.167919    2.897215    1.512665
    132          1           0        6.871083    4.215637    0.830665
    133          1           0        6.586758    4.251515   -0.947836
    134          1           0        8.898334    5.818396   -0.391952
    135          1           0        7.870158    6.041964    0.978368
    136          1           0        7.922702    1.536479    5.476926
    137          1           0        7.831547    0.142464    6.500449
    138          1           0        6.361360    1.125745    6.304273
    139          1           0        6.397509   -1.292241    7.428099
    140          1           0        4.829878   -2.243522    7.718456
    141          1           0        4.848169   -0.630700    6.949095
    142          1           0        4.793617   -5.397494    1.660879
    143          1           0        6.295292   -5.770055   -0.881347
    144          1           0        6.327672   -6.952297    2.259545
    145          1           0        7.579294   -5.671182    2.091548
    146          1           0        7.241119   -6.679446    0.778274
    147          1           0        3.960159   -6.638211   -0.474791
    148          1           0        4.192092   -5.827773   -2.012450
    149          1           0        2.822827   -5.038096    0.454057
    150          1           0        2.222966   -4.870319   -1.236152
    151          1           0        3.423097   -3.698517   -0.528412
    152          1           0        6.017949   -1.809864   -5.786130
    153          1           0        6.072774   -3.329908   -4.836065
    154          1           0        7.622743   -2.488148   -5.237680
    155          1           0        8.854290    2.160889   -3.456015
    156          1           0        7.798176    6.015097   -5.072348
    157          1           0        7.549319    6.278076   -3.230376
    158          1           0        6.315239    5.662123   -4.357270
 ---------------------------------------------------------------------
 Rotational constants (GHZ):           0.0206593           0.0074761           0.0074652
 Leave Link  202 at Sat Sep 11 05:58:12 2021, MaxMem= 23488102400 cpu:               0.2 elap:               0.0
 (Enter /sw/apps/gaussian-16.0/g16/l301.exe)
 Standard basis: def2SVP (5D, 7F)
 Ernie: Thresh=  0.10000D-02 Tol=  0.10000D-05 Strict=F.
 There are  1658 symmetry adapted cartesian basis functions of A   symmetry.
 There are  1572 symmetry adapted basis functions of A   symmetry.
  1572 basis functions,  2678 primitive gaussians,  1658 cartesian basis functions
   312 alpha electrons      312 beta electrons
       nuclear repulsion energy     14183.0891141668 Hartrees.
 IExCor=20419 DFT=T Ex+Corr=CAM-B3LYP ExCW=0 ScaHFX=  1.000000
 ScaDFX=  1.000000  1.000000  1.000000  0.810000 ScalE2=  1.000000  1.000000
 IRadAn=      5 IRanWt=     -1 IRanGd=            0 ICorTp=0 IEmpDi=  4
 HFx  wShort=  0.000000 wLong=  0.330000 cFull=  0.190000 cShort=  0.000000 cLong=  0.460000
 DFx  wShort=  0.000000 wLong=  0.330000 cFull=  0.190000 cShort=  0.000000 cLong=  0.460000
 NAtoms=  158 NActive=  158 NUniq=  158 SFac= 1.00D+00 NAtFMM=   60 NAOKFM=T Big=T
 Integral buffers will be    131072 words long.
 Raffenetti 1 integral format.
 Two-electron integral symmetry is turned on.
 Leave Link  301 at Sat Sep 11 05:58:12 2021, MaxMem= 23488102400 cpu:               1.3 elap:               0.1
 (Enter /sw/apps/gaussian-16.0/g16/l302.exe)
 NPDir=0 NMtPBC=     1 NCelOv=     1 NCel=       1 NClECP=     1 NCelD=      1
         NCelK=      1 NCelE2=     1 NClLst=     1 CellRange=     0.0.
 One-electron integrals computed using PRISM.
 One-electron integral symmetry used in STVInt
   1 Symmetry operations used in ECPInt.
 ECPInt:  NShTT=  271216 NPrTT=  987664 LenC2=  114635 LenP2D=  252959.
 LDataN:  DoStor=T MaxTD1= 4 Len=   56
 NBasis=  1572 RedAO= T EigKep=  3.36D-04  NBF=  1572
 NBsUse=  1572 1.00D-06 EigRej= -1.00D+00 NBFU=  1572
 Precomputing XC quadrature grid using
 IXCGrd= 4 IRadAn=           5 IRanWt=          -1 IRanGd=           0 AccXCQ= 0.00D+00.
 Generated NRdTot=       0 NPtTot=           0 NUsed=           0 NTot=          32
 NSgBfM=   972   962   965   969   972 MxSgAt=   158 MxSgA2=   157.
 Leave Link  302 at Sat Sep 11 05:58:17 2021, MaxMem= 23488102400 cpu:             115.8 elap:               4.8
 (Enter /sw/apps/gaussian-16.0/g16/l303.exe)
 DipDrv:  MaxL=1.
 Leave Link  303 at Sat Sep 11 05:58:17 2021, MaxMem= 23488102400 cpu:               8.0 elap:               0.4
 (Enter /sw/apps/gaussian-16.0/g16/l308.exe)
 Leave Link  308 at Sat Sep 11 05:58:18 2021, MaxMem= 23488102400 cpu:              13.1 elap:               0.6
 (Enter /sw/apps/gaussian-16.0/g16/l401.exe)
 ExpMin= 3.36D-02 ExpMax= 4.95D+03 ExpMxC= 7.45D+02 IAcc=3 IRadAn=         5 AccDes= 0.00D+00
 Harris functional with IExCor=20419 and IRadAn=       5 diagonalized for initial guess.
 HarFok:  IExCor=20419 AccDes= 0.00D+00 IRadAn=         5 IDoV= 1 UseB2=F ITyADJ=14
 ICtDFT=  3500011 ScaDFX=  1.000000  1.000000  1.000000  1.000000
 FoFCou: FMM=F IPFlag=           0 FMFlag=      100000 FMFlg1=        2001
         NFxFlg=           0 DoJE=T BraDBF=F KetDBF=T FulRan=T
         wScrn=  0.000000 ICntrl=       500 IOpCl=  0 I1Cent=   200000004 NGrid=           0
         NMat0=    1 NMatS0=      1 NMatT0=    0 NMatD0=    1 NMtDS0=    0 NMtDT0=    0
 Petite list used in FoFCou.
 Harris En= -3918.65801732455    
 JPrj=0 DoOrth=F DoCkMO=F.
 Leave Link  401 at Sat Sep 11 05:58:25 2021, MaxMem= 23488102400 cpu:             166.8 elap:               7.0
 (Enter /sw/apps/gaussian-16.0/g16/l502.exe)
 Integral symmetry usage will be decided dynamically.
 Closed shell SCF:
 Using DIIS extrapolation, IDIIS=  1040.
 NGot= 23488102400 LenX= 23482547354 LenY= 23479796732
 Requested convergence on RMS density matrix=1.00D-08 within 128 cycles.
 Requested convergence on MAX density matrix=1.00D-06.
 Requested convergence on             energy=1.00D-06.
 No special actions if energy rises.
 Fock matrices will be formed incrementally for  20 cycles.

 Cycle   1  Pass 1  IDiag  1:
 FoFJK:  IHMeth= 1 ICntrl=       0 DoSepK=T KAlg= 0 I1Cent=           0 FoldK=F
 IRaf=         1 NMat=       1 IRICut=       1 DoRegI=T DoRafI=F ISym2E= 0 IDoP0=0 IntGTp=1.
 FoFCou: FMM=T IPFlag=           0 FMFlag=      100000 FMFlg1=        2001
         NFxFlg=           0 DoJE=T BraDBF=F KetDBF=F FulRan=T
         wScrn=  0.000000 ICntrl=       500 IOpCl=  0 I1Cent=           0 NGrid=           0
         NMat0=    1 NMatS0=      1 NMatT0=    0 NMatD0=    1 NMtDS0=    0 NMtDT0=    0
 Symmetry not used in FoFCou.
 FMM levels:  10  Number of levels for PrismC:   9
 E= -4068.94891092538    
 DIIS: error= 2.04D-02 at cycle   1 NSaved=   1.
 NSaved= 1 IEnMin= 1 EnMin= -4068.94891092538     IErMin= 1 ErrMin= 2.04D-02
 ErrMax= 2.04D-02  0.00D+00 EMaxC= 1.00D-01 BMatC= 1.69D+00 BMatP= 1.69D+00
 IDIUse=3 WtCom= 7.96D-01 WtEn= 2.04D-01
 Coeff-Com:  0.100D+01
 Coeff-En:   0.100D+01
 Coeff:      0.100D+01
 Gap=     0.120 Goal=   None    Shift=    0.000
 GapD=    0.120 DampG=1.000 DampE=0.500 DampFc=0.5000 IDamp=-1.
 Damping current iteration by 5.00D-01
 RMSDP=1.57D-03 MaxDP=1.35D-01              OVMax= 2.06D-01

 Cycle   2  Pass 1  IDiag  1:
 RMSU=  7.70D-04    CP:  9.82D-01
 E= -4069.33765960810     Delta-E=       -0.388748682719 Rises=F Damp=T
 DIIS: error= 1.27D-02 at cycle   2 NSaved=   2.
 NSaved= 2 IEnMin= 2 EnMin= -4069.33765960810     IErMin= 2 ErrMin= 1.27D-02
 ErrMax= 1.27D-02  0.00D+00 EMaxC= 1.00D-01 BMatC= 3.07D-01 BMatP= 1.69D+00
 IDIUse=3 WtCom= 8.73D-01 WtEn= 1.27D-01
 Coeff-Com: -0.213D+00 0.121D+01
 Coeff-En:   0.000D+00 0.100D+01
 Coeff:     -0.186D+00 0.119D+01
 Gap=     0.138 Goal=   None    Shift=    0.000
 RMSDP=7.66D-04 MaxDP=9.46D-02 DE=-3.89D-01 OVMax= 1.88D-01

 Cycle   3  Pass 1  IDiag  1:
 RMSU=  7.34D-04    CP:  9.68D-01  1.24D+00
 E= -4069.62632672707     Delta-E=       -0.288667118966 Rises=F Damp=F
 DIIS: error= 1.58D-02 at cycle   3 NSaved=   3.
 NSaved= 3 IEnMin= 3 EnMin= -4069.62632672707     IErMin= 2 ErrMin= 1.27D-02
 ErrMax= 1.58D-02  0.00D+00 EMaxC= 1.00D-01 BMatC= 2.03D-01 BMatP= 3.07D-01
 IDIUse=3 WtCom= 8.42D-01 WtEn= 1.58D-01
 Coeff-Com: -0.267D+00 0.653D+00 0.615D+00
 Coeff-En:   0.000D+00 0.000D+00 0.100D+01
 Coeff:     -0.225D+00 0.549D+00 0.676D+00
 Gap=     0.125 Goal=   None    Shift=    0.000
 RMSDP=5.12D-04 MaxDP=4.77D-02 DE=-2.89D-01 OVMax= 1.48D-01

 Cycle   4  Pass 1  IDiag  1:
 RMSU=  2.67D-04    CP:  9.65D-01  1.55D+00  5.03D-01
 E= -4069.76389306131     Delta-E=       -0.137566334241 Rises=F Damp=F
 DIIS: error= 7.38D-03 at cycle   4 NSaved=   4.
 NSaved= 4 IEnMin= 4 EnMin= -4069.76389306131     IErMin= 4 ErrMin= 7.38D-03
 ErrMax= 7.38D-03  0.00D+00 EMaxC= 1.00D-01 BMatC= 5.13D-02 BMatP= 2.03D-01
 IDIUse=3 WtCom= 9.26D-01 WtEn= 7.38D-02
 Coeff-Com: -0.109D+00 0.227D+00 0.409D+00 0.473D+00
 Coeff-En:   0.000D+00 0.000D+00 0.224D+00 0.776D+00
 Coeff:     -0.101D+00 0.210D+00 0.396D+00 0.495D+00
 Gap=     0.123 Goal=   None    Shift=    0.000
 RMSDP=2.03D-04 MaxDP=2.09D-02 DE=-1.38D-01 OVMax= 6.57D-02

 Cycle   5  Pass 1  IDiag  1:
 RMSU=  7.75D-05    CP:  9.64D-01  1.49D+00  6.88D-01  5.45D-01
 E= -4069.81037940097     Delta-E=       -0.046486339663 Rises=F Damp=F
 DIIS: error= 7.79D-04 at cycle   5 NSaved=   5.
 NSaved= 5 IEnMin= 5 EnMin= -4069.81037940097     IErMin= 5 ErrMin= 7.79D-04
 ErrMax= 7.79D-04  0.00D+00 EMaxC= 1.00D-01 BMatC= 1.24D-03 BMatP= 5.13D-02
 IDIUse=3 WtCom= 9.92D-01 WtEn= 7.79D-03
 Coeff-Com: -0.367D-01 0.722D-01 0.169D+00 0.253D+00 0.543D+00
 Coeff-En:   0.000D+00 0.000D+00 0.000D+00 0.000D+00 0.100D+01
 Coeff:     -0.364D-01 0.716D-01 0.168D+00 0.251D+00 0.547D+00
 Gap=     0.122 Goal=   None    Shift=    0.000
 RMSDP=4.27D-05 MaxDP=4.22D-03 DE=-4.65D-02 OVMax= 1.82D-02

 Cycle   6  Pass 1  IDiag  1:
 RMSU=  3.12D-05    CP:  9.64D-01  1.49D+00  6.80D-01  6.19D-01  7.43D-01
 E= -4069.81147531967     Delta-E=       -0.001095918698 Rises=F Damp=F
 DIIS: error= 2.04D-04 at cycle   6 NSaved=   6.
 NSaved= 6 IEnMin= 6 EnMin= -4069.81147531967     IErMin= 6 ErrMin= 2.04D-04
 ErrMax= 2.04D-04  0.00D+00 EMaxC= 1.00D-01 BMatC= 1.86D-04 BMatP= 1.24D-03
 IDIUse=3 WtCom= 9.98D-01 WtEn= 2.04D-03
 Coeff-Com:  0.211D-02-0.640D-02 0.120D-01 0.414D-01 0.305D+00 0.646D+00
 Coeff-En:   0.000D+00 0.000D+00 0.000D+00 0.000D+00 0.108D+00 0.892D+00
 Coeff:      0.210D-02-0.639D-02 0.120D-01 0.413D-01 0.304D+00 0.647D+00
 Gap=     0.123 Goal=   None    Shift=    0.000
 RMSDP=1.65D-05 MaxDP=1.19D-03 DE=-1.10D-03 OVMax= 7.70D-03

 Cycle   7  Pass 1  IDiag  1:
 RMSU=  1.10D-05    CP:  9.64D-01  1.50D+00  6.86D-01  6.18D-01  8.48D-01
                    CP:  7.44D-01
 E= -4069.81167792143     Delta-E=       -0.000202601761 Rises=F Damp=F
 DIIS: error= 9.05D-05 at cycle   7 NSaved=   7.
 NSaved= 7 IEnMin= 7 EnMin= -4069.81167792143     IErMin= 7 ErrMin= 9.05D-05
 ErrMax= 9.05D-05  0.00D+00 EMaxC= 1.00D-01 BMatC= 2.33D-05 BMatP= 1.86D-04
 IDIUse=1 WtCom= 1.00D+00 WtEn= 0.00D+00
 Coeff-Com:  0.452D-02-0.991D-02-0.885D-02-0.325D-02 0.105D+00 0.336D+00
 Coeff-Com:  0.576D+00
 Coeff:      0.452D-02-0.991D-02-0.885D-02-0.325D-02 0.105D+00 0.336D+00
 Coeff:      0.576D+00
 Gap=     0.123 Goal=   None    Shift=    0.000
 RMSDP=6.73D-06 MaxDP=1.12D-03 DE=-2.03D-04 OVMax= 3.51D-03

 Cycle   8  Pass 1  IDiag  1:
 RMSU=  4.79D-06    CP:  9.64D-01  1.50D+00  6.86D-01  6.23D-01  8.50D-01
                    CP:  8.70D-01  8.12D-01
 E= -4069.81170675803     Delta-E=       -0.000028836599 Rises=F Damp=F
 DIIS: error= 5.07D-05 at cycle   8 NSaved=   8.
 NSaved= 8 IEnMin= 8 EnMin= -4069.81170675803     IErMin= 8 ErrMin= 5.07D-05
 ErrMax= 5.07D-05  0.00D+00 EMaxC= 1.00D-01 BMatC= 4.96D-06 BMatP= 2.33D-05
 IDIUse=1 WtCom= 1.00D+00 WtEn= 0.00D+00
 Coeff-Com:  0.220D-02-0.436D-02-0.783D-02-0.121D-01-0.101D-01 0.344D-01
 Coeff-Com:  0.332D+00 0.666D+00
 Coeff:      0.220D-02-0.436D-02-0.783D-02-0.121D-01-0.101D-01 0.344D-01
 Coeff:      0.332D+00 0.666D+00
 Gap=     0.123 Goal=   None    Shift=    0.000
 RMSDP=3.34D-06 MaxDP=3.58D-04 DE=-2.88D-05 OVMax= 1.09D-03

 Cycle   9  Pass 1  IDiag  1:
 RMSU=  1.95D-06    CP:  9.64D-01  1.50D+00  6.87D-01  6.25D-01  8.67D-01
                    CP:  8.97D-01  1.01D+00  9.54D-01
 E= -4069.81171476026     Delta-E=       -0.000008002229 Rises=F Damp=F
 DIIS: error= 1.99D-05 at cycle   9 NSaved=   9.
 NSaved= 9 IEnMin= 9 EnMin= -4069.81171476026     IErMin= 9 ErrMin= 1.99D-05
 ErrMax= 1.99D-05  0.00D+00 EMaxC= 1.00D-01 BMatC= 7.38D-07 BMatP= 4.96D-06
 IDIUse=1 WtCom= 1.00D+00 WtEn= 0.00D+00
 Coeff-Com:  0.472D-03-0.784D-03-0.271D-02-0.608D-02-0.209D-01-0.399D-01
 Coeff-Com:  0.985D-01 0.332D+00 0.639D+00
 Coeff:      0.472D-03-0.784D-03-0.271D-02-0.608D-02-0.209D-01-0.399D-01
 Coeff:      0.985D-01 0.332D+00 0.639D+00
 Gap=     0.123 Goal=   None    Shift=    0.000
 RMSDP=1.46D-06 MaxDP=1.51D-04 DE=-8.00D-06 OVMax= 7.67D-04

 Cycle  10  Pass 1  IDiag  1:
 RMSU=  9.58D-07    CP:  9.64D-01  1.50D+00  6.87D-01  6.25D-01  8.71D-01
                    CP:  9.10D-01  1.05D+00  1.12D+00  1.06D+00
 E= -4069.81171645337     Delta-E=       -0.000001693108 Rises=F Damp=F
 DIIS: error= 9.93D-06 at cycle  10 NSaved=  10.
 NSaved=10 IEnMin=10 EnMin= -4069.81171645337     IErMin=10 ErrMin= 9.93D-06
 ErrMax= 9.93D-06  0.00D+00 EMaxC= 1.00D-01 BMatC= 1.75D-07 BMatP= 7.38D-07
 IDIUse=1 WtCom= 1.00D+00 WtEn= 0.00D+00
 Coeff-Com: -0.430D-03 0.903D-03 0.124D-02 0.110D-02-0.366D-02-0.313D-01
 Coeff-Com: -0.454D-01-0.744D-01 0.242D+00 0.910D+00
 Coeff:     -0.430D-03 0.903D-03 0.124D-02 0.110D-02-0.366D-02-0.313D-01
 Coeff:     -0.454D-01-0.744D-01 0.242D+00 0.910D+00
 Gap=     0.123 Goal=   None    Shift=    0.000
 RMSDP=1.26D-06 MaxDP=1.22D-04 DE=-1.69D-06 OVMax= 6.36D-04

 Cycle  11  Pass 1  IDiag  1:
 RMSU=  5.33D-07    CP:  9.64D-01  1.50D+00  6.87D-01  6.26D-01  8.73D-01
                    CP:  9.20D-01  1.10D+00  1.23D+00  1.40D+00  1.38D+00
 E= -4069.81171728290     Delta-E=       -0.000000829528 Rises=F Damp=F
 DIIS: error= 4.40D-06 at cycle  11 NSaved=  11.
 NSaved=11 IEnMin=11 EnMin= -4069.81171728290     IErMin=11 ErrMin= 4.40D-06
 ErrMax= 4.40D-06  0.00D+00 EMaxC= 1.00D-01 BMatC= 6.61D-08 BMatP= 1.75D-07
 IDIUse=1 WtCom= 1.00D+00 WtEn= 0.00D+00
 Coeff-Com: -0.335D-03 0.652D-03 0.136D-02 0.215D-02 0.448D-02-0.840D-02
 Coeff-Com: -0.424D-01-0.133D+00-0.343D-01 0.477D+00 0.733D+00
 Coeff:     -0.335D-03 0.652D-03 0.136D-02 0.215D-02 0.448D-02-0.840D-02
 Coeff:     -0.424D-01-0.133D+00-0.343D-01 0.477D+00 0.733D+00
 Gap=     0.123 Goal=   None    Shift=    0.000
 RMSDP=7.12D-07 MaxDP=6.47D-05 DE=-8.30D-07 OVMax= 3.94D-04

 Cycle  12  Pass 1  IDiag  1:
 RMSU=  2.70D-07    CP:  9.64D-01  1.50D+00  6.87D-01  6.26D-01  8.74D-01
                    CP:  9.23D-01  1.12D+00  1.30D+00  1.57D+00  1.78D+00
                    CP:  1.20D+00
 E= -4069.81171756461     Delta-E=       -0.000000281714 Rises=F Damp=F
 DIIS: error= 2.53D-06 at cycle  12 NSaved=  12.
 NSaved=12 IEnMin=12 EnMin= -4069.81171756461     IErMin=12 ErrMin= 2.53D-06
 ErrMax= 2.53D-06  0.00D+00 EMaxC= 1.00D-01 BMatC= 1.58D-08 BMatP= 6.61D-08
 IDIUse=1 WtCom= 1.00D+00 WtEn= 0.00D+00
 Coeff-Com: -0.235D-05-0.125D-04 0.193D-03 0.531D-03 0.340D-02 0.406D-02
 Coeff-Com:  0.272D-02-0.349D-01-0.708D-01-0.692D-01 0.248D+00 0.916D+00
 Coeff:     -0.235D-05-0.125D-04 0.193D-03 0.531D-03 0.340D-02 0.406D-02
 Coeff:      0.272D-02-0.349D-01-0.708D-01-0.692D-01 0.248D+00 0.916D+00
 Gap=     0.123 Goal=   None    Shift=    0.000
 RMSDP=4.50D-07 MaxDP=2.97D-05 DE=-2.82D-07 OVMax= 2.59D-04

 Cycle  13  Pass 1  IDiag  1:
 RMSU=  1.69D-07    CP:  9.64D-01  1.50D+00  6.87D-01  6.26D-01  8.74D-01
                    CP:  9.23D-01  1.13D+00  1.33D+00  1.68D+00  2.01D+00
                    CP:  1.61D+00  1.27D+00
 E= -4069.81171766187     Delta-E=       -0.000000097265 Rises=F Damp=F
 DIIS: error= 1.45D-06 at cycle  13 NSaved=  13.
 NSaved=13 IEnMin=13 EnMin= -4069.81171766187     IErMin=13 ErrMin= 1.45D-06
 ErrMax= 1.45D-06  0.00D+00 EMaxC= 1.00D-01 BMatC= 8.71D-09 BMatP= 1.58D-08
 IDIUse=1 WtCom= 1.00D+00 WtEn= 0.00D+00
 Coeff-Com:  0.122D-03-0.248D-03-0.374D-03-0.461D-03 0.617D-03 0.503D-02
 Coeff-Com:  0.193D-01 0.235D-01-0.318D-01-0.242D+00-0.162D+00 0.598D+00
 Coeff-Com:  0.790D+00
 Coeff:      0.122D-03-0.248D-03-0.374D-03-0.461D-03 0.617D-03 0.503D-02
 Coeff:      0.193D-01 0.235D-01-0.318D-01-0.242D+00-0.162D+00 0.598D+00
 Coeff:      0.790D+00
 Gap=     0.123 Goal=   None    Shift=    0.000
 RMSDP=3.52D-07 MaxDP=2.29D-05 DE=-9.73D-08 OVMax= 2.10D-04

 Cycle  14  Pass 1  IDiag  1:
 RMSU=  7.81D-08    CP:  9.64D-01  1.50D+00  6.87D-01  6.26D-01  8.74D-01
                    CP:  9.24D-01  1.14D+00  1.35D+00  1.75D+00  2.20D+00
                    CP:  1.87D+00  1.79D+00  1.09D+00
 E= -4069.81171770049     Delta-E=       -0.000000038614 Rises=F Damp=F
 DIIS: error= 7.01D-07 at cycle  14 NSaved=  14.
 NSaved=14 IEnMin=14 EnMin= -4069.81171770049     IErMin=14 ErrMin= 7.01D-07
 ErrMax= 7.01D-07  0.00D+00 EMaxC= 1.00D-01 BMatC= 1.32D-09 BMatP= 8.71D-09
 IDIUse=1 WtCom= 1.00D+00 WtEn= 0.00D+00
 Coeff-Com:  0.674D-04-0.133D-03-0.250D-03-0.391D-03-0.461D-03 0.124D-02
 Coeff-Com:  0.105D-01 0.195D-01 0.497D-02-0.100D+00-0.144D+00 0.934D-01
 Coeff-Com:  0.403D+00 0.713D+00
 Coeff:      0.674D-04-0.133D-03-0.250D-03-0.391D-03-0.461D-03 0.124D-02
 Coeff:      0.105D-01 0.195D-01 0.497D-02-0.100D+00-0.144D+00 0.934D-01
 Coeff:      0.403D+00 0.713D+00
 Gap=     0.123 Goal=   None    Shift=    0.000
 RMSDP=1.04D-07 MaxDP=7.19D-06 DE=-3.86D-08 OVMax= 5.71D-05

 Cycle  15  Pass 1  IDiag  1:
 RMSU=  3.88D-08    CP:  9.64D-01  1.50D+00  6.87D-01  6.26D-01  8.74D-01
                    CP:  9.24D-01  1.14D+00  1.36D+00  1.77D+00  2.24D+00
                    CP:  1.98D+00  1.93D+00  1.33D+00  1.03D+00
 E= -4069.81171770442     Delta-E=       -0.000000003929 Rises=F Damp=F
 DIIS: error= 3.39D-07 at cycle  15 NSaved=  15.
 NSaved=15 IEnMin=15 EnMin= -4069.81171770442     IErMin=15 ErrMin= 3.39D-07
 ErrMax= 3.39D-07  0.00D+00 EMaxC= 1.00D-01 BMatC= 2.36D-10 BMatP= 1.32D-09
 IDIUse=1 WtCom= 1.00D+00 WtEn= 0.00D+00
 Coeff-Com:  0.551D-05-0.920D-05-0.335D-04-0.835D-04-0.293D-03-0.538D-03
 Coeff-Com:  0.111D-02 0.257D-02 0.882D-02 0.169D-02-0.305D-01-0.719D-01
 Coeff-Com:  0.296D-01 0.299D+00 0.761D+00
 Coeff:      0.551D-05-0.920D-05-0.335D-04-0.835D-04-0.293D-03-0.538D-03
 Coeff:      0.111D-02 0.257D-02 0.882D-02 0.169D-02-0.305D-01-0.719D-01
 Coeff:      0.296D-01 0.299D+00 0.761D+00
 Gap=     0.123 Goal=   None    Shift=    0.000
 RMSDP=4.03D-08 MaxDP=2.45D-06 DE=-3.93D-09 OVMax= 2.87D-05

 Cycle  16  Pass 1  IDiag  1:
 RMSU=  1.92D-08    CP:  9.64D-01  1.50D+00  6.87D-01  6.26D-01  8.74D-01
                    CP:  9.24D-01  1.14D+00  1.36D+00  1.77D+00  2.26D+00
                    CP:  2.00D+00  1.99D+00  1.40D+00  1.24D+00  1.14D+00
 E= -4069.81171770531     Delta-E=       -0.000000000895 Rises=F Damp=F
 DIIS: error= 1.93D-07 at cycle  16 NSaved=  16.
 NSaved=16 IEnMin=16 EnMin= -4069.81171770531     IErMin=16 ErrMin= 1.93D-07
 ErrMax= 1.93D-07  0.00D+00 EMaxC= 1.00D-01 BMatC= 8.68D-11 BMatP= 2.36D-10
 IDIUse=1 WtCom= 1.00D+00 WtEn= 0.00D+00
 Coeff-Com: -0.140D-04 0.284D-04 0.459D-04 0.514D-04-0.310D-04-0.633D-03
 Coeff-Com: -0.185D-02-0.418D-02 0.417D-02 0.252D-01 0.201D-01-0.638D-01
 Coeff-Com: -0.807D-01-0.330D-01 0.401D+00 0.734D+00
 Coeff:     -0.140D-04 0.284D-04 0.459D-04 0.514D-04-0.310D-04-0.633D-03
 Coeff:     -0.185D-02-0.418D-02 0.417D-02 0.252D-01 0.201D-01-0.638D-01
 Coeff:     -0.807D-01-0.330D-01 0.401D+00 0.734D+00
 Gap=     0.123 Goal=   None    Shift=    0.000
 RMSDP=2.31D-08 MaxDP=1.60D-06 DE=-8.95D-10 OVMax= 1.23D-05

 Cycle  17  Pass 1  IDiag  1:
 RMSU=  1.07D-08    CP:  9.64D-01  1.50D+00  6.87D-01  6.26D-01  8.74D-01
                    CP:  9.24D-01  1.14D+00  1.36D+00  1.78D+00  2.26D+00
                    CP:  2.01D+00  2.01D+00  1.45D+00  1.33D+00  1.43D+00
                    CP:  1.22D+00
 E= -4069.81171770574     Delta-E=       -0.000000000429 Rises=F Damp=F
 DIIS: error= 9.55D-08 at cycle  17 NSaved=  17.
 NSaved=17 IEnMin=17 EnMin= -4069.81171770574     IErMin=17 ErrMin= 9.55D-08
 ErrMax= 9.55D-08  0.00D+00 EMaxC= 1.00D-01 BMatC= 1.89D-11 BMatP= 8.68D-11
 IDIUse=1 WtCom= 1.00D+00 WtEn= 0.00D+00
 Coeff-Com: -0.741D-05 0.144D-04 0.291D-04 0.428D-04 0.808D-04-0.134D-03
 Coeff-Com: -0.927D-03-0.283D-02 0.442D-04 0.978D-02 0.175D-01-0.848D-02
 Coeff-Com: -0.373D-01-0.998D-01-0.203D-01 0.299D+00 0.843D+00
 Coeff:     -0.741D-05 0.144D-04 0.291D-04 0.428D-04 0.808D-04-0.134D-03
 Coeff:     -0.927D-03-0.283D-02 0.442D-04 0.978D-02 0.175D-01-0.848D-02
 Coeff:     -0.373D-01-0.998D-01-0.203D-01 0.299D+00 0.843D+00
 Gap=     0.123 Goal=   None    Shift=    0.000
 RMSDP=1.36D-08 MaxDP=9.33D-07 DE=-4.29D-10 OVMax= 9.63D-06

 Cycle  18  Pass 1  IDiag  1:
 RMSU=  5.28D-09    CP:  9.64D-01  1.50D+00  6.87D-01  6.26D-01  8.74D-01
                    CP:  9.24D-01  1.14D+00  1.36D+00  1.78D+00  2.26D+00
                    CP:  2.02D+00  2.02D+00  1.46D+00  1.40D+00  1.59D+00
                    CP:  1.62D+00  1.35D+00
 E= -4069.81171770607     Delta-E=       -0.000000000327 Rises=F Damp=F
 DIIS: error= 6.75D-08 at cycle  18 NSaved=  18.
 NSaved=18 IEnMin=18 EnMin= -4069.81171770607     IErMin=18 ErrMin= 6.75D-08
 ErrMax= 6.75D-08  0.00D+00 EMaxC= 1.00D-01 BMatC= 8.06D-12 BMatP= 1.89D-11
 IDIUse=1 WtCom= 1.00D+00 WtEn= 0.00D+00
 Coeff-Com:  0.118D-05-0.270D-05-0.135D-05 0.281D-05 0.634D-04 0.159D-03
 Coeff-Com:  0.276D-03-0.563D-04-0.120D-02-0.481D-02 0.142D-02 0.178D-01
 Coeff-Com:  0.133D-01-0.407D-01-0.154D+00-0.151D+00 0.407D+00 0.912D+00
 Coeff:      0.118D-05-0.270D-05-0.135D-05 0.281D-05 0.634D-04 0.159D-03
 Coeff:      0.276D-03-0.563D-04-0.120D-02-0.481D-02 0.142D-02 0.178D-01
 Coeff:      0.133D-01-0.407D-01-0.154D+00-0.151D+00 0.407D+00 0.912D+00
 Gap=     0.123 Goal=   None    Shift=    0.000
 RMSDP=1.11D-08 MaxDP=7.09D-07 DE=-3.27D-10 OVMax= 5.95D-06

 Cycle  19  Pass 1  IDiag  1:
 RMSU=  3.15D-09    CP:  9.64D-01  1.50D+00  6.87D-01  6.26D-01  8.74D-01
                    CP:  9.24D-01  1.14D+00  1.36D+00  1.78D+00  2.26D+00
                    CP:  2.02D+00  2.02D+00  1.48D+00  1.44D+00  1.73D+00
                    CP:  1.91D+00  1.87D+00  1.22D+00
 E= -4069.81171770575     Delta-E=        0.000000000320 Rises=F Damp=F
 DIIS: error= 2.83D-08 at cycle  19 NSaved=  19.
 NSaved=19 IEnMin=18 EnMin= -4069.81171770607     IErMin=19 ErrMin= 2.83D-08
 ErrMax= 2.83D-08  0.00D+00 EMaxC= 1.00D-01 BMatC= 2.21D-12 BMatP= 8.06D-12
 IDIUse=1 WtCom= 1.00D+00 WtEn= 0.00D+00
 Coeff-Com:  0.310D-05-0.627D-05-0.103D-04-0.123D-04 0.177D-04 0.136D-03
 Coeff-Com:  0.497D-03 0.826D-03-0.656D-03-0.644D-02-0.481D-02 0.138D-01
 Coeff-Com:  0.217D-01 0.779D-02-0.855D-01-0.198D+00-0.323D-02 0.544D+00
 Coeff-Com:  0.710D+00
 Coeff:      0.310D-05-0.627D-05-0.103D-04-0.123D-04 0.177D-04 0.136D-03
 Coeff:      0.497D-03 0.826D-03-0.656D-03-0.644D-02-0.481D-02 0.138D-01
 Coeff:      0.217D-01 0.779D-02-0.855D-01-0.198D+00-0.323D-02 0.544D+00
 Coeff:      0.710D+00
 Gap=     0.123 Goal=   None    Shift=    0.000
 RMSDP=5.36D-09 MaxDP=3.81D-07 DE= 3.20D-10 OVMax= 3.83D-06

 SCF Done:  E(RCAM-B3LYP) =  -4069.81171771     A.U. after   19 cycles
            NFock= 19  Conv=0.54D-08     -V/T= 2.0102
 KE= 4.028801955134D+03 PE=-3.784768997993D+04 EE= 1.556598719292D+04
 Leave Link  502 at Sat Sep 11 06:07:16 2021, MaxMem= 23488102400 cpu:           12178.4 elap:             530.9
 (Enter /sw/apps/gaussian-16.0/g16/l801.exe)
 DoSCS=F DFT=T ScalE2(SS,OS)=  1.000000  1.000000
 ExpMin= 3.36D-02 ExpMax= 4.95D+03 ExpMxC= 7.45D+02 IAcc=3 IRadAn=         5 AccDes= 0.00D+00
 HarFok:  IExCor=  205 AccDes= 0.00D+00 IRadAn=         5 IDoV=-2 UseB2=F ITyADJ=14
 ICtDFT= 12500011 ScaDFX=  1.000000  1.000000  1.000000  1.000000
 GSVD:  LWork=       -9588 too small for GESVD, short by       45590 words or       45590 for optimal perf.
 Largest valence mixing into a core orbital is  2.03D-04
 Largest core mixing into a valence orbital is  5.24D-05
 Range of M.O.s used for correlation:    95  1572
 NBasis=  1572 NAE=   312 NBE=   312 NFC=    94 NFV=     0
 NROrb=   1478 NOA=   218 NOB=   218 NVA=  1260 NVB=  1260
 Leave Link  801 at Sat Sep 11 06:07:16 2021, MaxMem= 23488102400 cpu:               8.7 elap:               0.4
 (Enter /sw/apps/gaussian-16.0/g16/l914.exe)
 RHF ground state
 Two-electron integrals replicated using symmetry.
 MDV= 23488102400 DFT=T DoStab=F Mixed=T DoRPA=T DoScal=F NonHer=T
 Making orbital integer symmetry assigments:
 Orbital symmetries:
       Occupied  (A) (A) (A) (A) (A) (A) (A) (A) (A) (A) (A) (A)
                 (A) (A) (A) (A) (A) (A) (A) (A) (A) (A) (A) (A)
                 (A) (A) (A) (A) (A) (A) (A) (A) (A) (A) (A) (A)
                 (A) (A) (A) (A) (A) (A) (A) (A) (A) (A) (A) (A)
                 (A) (A) (A) (A) (A) (A) (A) (A) (A) (A) (A) (A)
                 (A) (A) (A) (A) (A) (A) (A) (A) (A) (A) (A) (A)
                 (A) (A) (A) (A) (A) (A) (A) (A) (A) (A) (A) (A)
                 (A) (A) (A) (A) (A) (A) (A) (A) (A) (A) (A) (A)
                 (A) (A) (A) (A) (A) (A) (A) (A) (A) (A) (A) (A)
                 (A) (A) (A) (A) (A) (A) (A) (A) (A) (A) (A) (A)
                 (A) (A) (A) (A) (A) (A) (A) (A) (A) (A) (A) (A)
                 (A) (A) (A) (A) (A) (A) (A) (A) (A) (A) (A) (A)
                 (A) (A) (A) (A) (A) (A) (A) (A) (A) (A) (A) (A)
                 (A) (A) (A) (A) (A) (A) (A) (A) (A) (A) (A) (A)
                 (A) (A) (A) (A) (A) (A) (A) (A) (A) (A) (A) (A)
                 (A) (A) (A) (A) (A) (A) (A) (A) (A) (A) (A) (A)
                 (A) (A) (A) (A) (A) (A) (A) (A) (A) (A) (A) (A)
                 (A) (A) (A) (A) (A) (A) (A) (A) (A) (A) (A) (A)
                 (A) (A) (A) (A) (A) (A) (A) (A) (A) (A) (A) (A)
                 (A) (A) (A) (A) (A) (A) (A) (A) (A) (A) (A) (A)
                 (A) (A) (A) (A) (A) (A) (A) (A) (A) (A) (A) (A)
                 (A) (A) (A) (A) (A) (A) (A) (A) (A) (A) (A) (A)
                 (A) (A) (A) (A) (A) (A) (A) (A) (A) (A) (A) (A)
                 (A) (A) (A) (A) (A) (A) (A) (A) (A) (A) (A) (A)
                 (A) (A) (A) (A) (A) (A) (A) (A) (A) (A) (A) (A)
                 (A) (A) (A) (A) (A) (A) (A) (A) (A) (A) (A) (A)
       Virtual   (A) (A) (A) (A) (A) (A) (A) (A) (A) (A) (A) (A)
                 (A) (A) (A) (A) (A) (A) (A) (A) (A) (A) (A) (A)
                 (A) (A) (A) (A) (A) (A) (A) (A) (A) (A) (A) (A)
                 (A) (A) (A) (A) (A) (A) (A) (A) (A) (A) (A) (A)
                 (A) (A) (A) (A) (A) (A) (A) (A) (A) (A) (A) (A)
                 (A) (A) (A) (A) (A) (A) (A) (A) (A) (A) (A) (A)
                 (A) (A) (A) (A) (A) (A) (A) (A) (A) (A) (A) (A)
                 (A) (A) (A) (A) (A) (A) (A) (A) (A) (A) (A) (A)
                 (A) (A) (A) (A) (A) (A) (A) (A) (A) (A) (A) (A)
                 (A) (A) (A) (A) (A) (A) (A) (A) (A) (A) (A) (A)
                 (A) (A) (A) (A) (A) (A) (A) (A) (A) (A) (A) (A)
                 (A) (A) (A) (A) (A) (A) (A) (A) (A) (A) (A) (A)
                 (A) (A) (A) (A) (A) (A) (A) (A) (A) (A) (A) (A)
                 (A) (A) (A) (A) (A) (A) (A) (A) (A) (A) (A) (A)
                 (A) (A) (A) (A) (A) (A) (A) (A) (A) (A) (A) (A)
                 (A) (A) (A) (A) (A) (A) (A) (A) (A) (A) (A) (A)
                 (A) (A) (A) (A) (A) (A) (A) (A) (A) (A) (A) (A)
                 (A) (A) (A) (A) (A) (A) (A) (A) (A) (A) (A) (A)
                 (A) (A) (A) (A) (A) (A) (A) (A) (A) (A) (A) (A)
                 (A) (A) (A) (A) (A) (A) (A) (A) (A) (A) (A) (A)
                 (A) (A) (A) (A) (A) (A) (A) (A) (A) (A) (A) (A)
                 (A) (A) (A) (A) (A) (A) (A) (A) (A) (A) (A) (A)
                 (A) (A) (A) (A) (A) (A) (A) (A) (A) (A) (A) (A)
                 (A) (A) (A) (A) (A) (A) (A) (A) (A) (A) (A) (A)
                 (A) (A) (A) (A) (A) (A) (A) (A) (A) (A) (A) (A)
                 (A) (A) (A) (A) (A) (A) (A) (A) (A) (A) (A) (A)
                 (A) (A) (A) (A) (A) (A) (A) (A) (A) (A) (A) (A)
                 (A) (A) (A) (A) (A) (A) (A) (A) (A) (A) (A) (A)
                 (A) (A) (A) (A) (A) (A) (A) (A) (A) (A) (A) (A)
                 (A) (A) (A) (A) (A) (A) (A) (A) (A) (A) (A) (A)
                 (A) (A) (A) (A) (A) (A) (A) (A) (A) (A) (A) (A)
                 (A) (A) (A) (A) (A) (A) (A) (A) (A) (A) (A) (A)
                 (A) (A) (A) (A) (A) (A) (A) (A) (A) (A) (A) (A)
                 (A) (A) (A) (A) (A) (A) (A) (A) (A) (A) (A) (A)
                 (A) (A) (A) (A) (A) (A) (A) (A) (A) (A) (A) (A)
                 (A) (A) (A) (A) (A) (A) (A) (A) (A) (A) (A) (A)
                 (A) (A) (A) (A) (A) (A) (A) (A) (A) (A) (A) (A)
                 (A) (A) (A) (A) (A) (A) (A) (A) (A) (A) (A) (A)
                 (A) (A) (A) (A) (A) (A) (A) (A) (A) (A) (A) (A)
                 (A) (A) (A) (A) (A) (A) (A) (A) (A) (A) (A) (A)
                 (A) (A) (A) (A) (A) (A) (A) (A) (A) (A) (A) (A)
                 (A) (A) (A) (A) (A) (A) (A) (A) (A) (A) (A) (A)
                 (A) (A) (A) (A) (A) (A) (A) (A) (A) (A) (A) (A)
                 (A) (A) (A) (A) (A) (A) (A) (A) (A) (A) (A) (A)
                 (A) (A) (A) (A) (A) (A) (A) (A) (A) (A) (A) (A)
                 (A) (A) (A) (A) (A) (A) (A) (A) (A) (A) (A) (A)
                 (A) (A) (A) (A) (A) (A) (A) (A) (A) (A) (A) (A)
                 (A) (A) (A) (A) (A) (A) (A) (A) (A) (A) (A) (A)
                 (A) (A) (A) (A) (A) (A) (A) (A) (A) (A) (A) (A)
                 (A) (A) (A) (A) (A) (A) (A) (A) (A) (A) (A) (A)
                 (A) (A) (A) (A) (A) (A) (A) (A) (A) (A) (A) (A)
                 (A) (A) (A) (A) (A) (A) (A) (A) (A) (A) (A) (A)
                 (A) (A) (A) (A) (A) (A) (A) (A) (A) (A) (A) (A)
                 (A) (A) (A) (A) (A) (A) (A) (A) (A) (A) (A) (A)
                 (A) (A) (A) (A) (A) (A) (A) (A) (A) (A) (A) (A)
                 (A) (A) (A) (A) (A) (A) (A) (A) (A) (A) (A) (A)
                 (A) (A) (A) (A) (A) (A) (A) (A) (A) (A) (A) (A)
                 (A) (A) (A) (A) (A) (A) (A) (A) (A) (A) (A) (A)
                 (A) (A) (A) (A) (A) (A) (A) (A) (A) (A) (A) (A)
                 (A) (A) (A) (A) (A) (A) (A) (A) (A) (A) (A) (A)
                 (A) (A) (A) (A) (A) (A) (A) (A) (A) (A) (A) (A)
                 (A) (A) (A) (A) (A) (A) (A) (A) (A) (A) (A) (A)
                 (A) (A) (A) (A) (A) (A) (A) (A) (A) (A) (A) (A)
                 (A) (A) (A) (A) (A) (A) (A) (A) (A) (A) (A) (A)
                 (A) (A) (A) (A) (A) (A) (A) (A) (A) (A) (A) (A)
                 (A) (A) (A) (A) (A) (A) (A) (A) (A) (A) (A) (A)
                 (A) (A) (A) (A) (A) (A) (A) (A) (A) (A) (A) (A)
                 (A) (A) (A) (A) (A) (A) (A) (A) (A) (A) (A) (A)
                 (A) (A) (A) (A) (A) (A) (A) (A) (A) (A) (A) (A)
                 (A) (A) (A) (A) (A) (A) (A) (A) (A) (A) (A) (A)
                 (A) (A) (A) (A) (A) (A) (A) (A) (A) (A) (A) (A)
                 (A) (A) (A) (A) (A) (A) (A) (A) (A) (A) (A) (A)
                 (A) (A) (A) (A) (A) (A) (A) (A) (A) (A) (A) (A)
                 (A) (A) (A) (A) (A) (A) (A) (A) (A) (A) (A) (A)
                 (A) (A) (A) (A) (A) (A) (A) (A) (A) (A) (A) (A)
                 (A) (A) (A) (A) (A) (A) (A) (A) (A) (A) (A) (A)
                 (A) (A) (A) (A) (A) (A) (A) (A) (A) (A) (A) (A)
                 (A) (A) (A) (A) (A) (A) (A) (A) (A) (A) (A) (A)
                 (A) (A) (A) (A) (A) (A) (A) (A) (A) (A) (A) (A)
                 (A) (A) (A) (A) (A) (A) (A) (A) (A) (A) (A) (A)
                 (A) (A) (A) (A) (A) (A) (A) (A) (A) (A) (A) (A)
                 (A) (A) (A) (A) (A) (A) (A) (A) (A) (A) (A) (A)
                 (A) (A) (A) (A) (A) (A) (A) (A) (A) (A) (A) (A)
                 (A) (A) (A) (A) (A) (A) (A) (A) (A) (A) (A) (A)
                 (A) (A) (A) (A) (A) (A) (A) (A) (A) (A) (A) (A)
                 (A) (A) (A) (A) (A) (A) (A) (A) (A) (A) (A) (A)
                 (A) (A) (A) (A) (A) (A) (A) (A) (A) (A) (A) (A)
                 (A) (A) (A) (A) (A) (A) (A) (A) (A) (A) (A) (A)
                 (A) (A) (A) (A) (A) (A) (A) (A) (A) (A) (A) (A)
                 (A) (A) (A) (A) (A) (A) (A) (A) (A) (A) (A) (A)
                 (A) (A) (A) (A) (A) (A) (A) (A) (A) (A) (A) (A)
                 (A) (A) (A) (A) (A) (A) (A) (A) (A) (A) (A) (A)
                 (A) (A) (A) (A) (A) (A) (A) (A) (A) (A) (A) (A)
                 (A) (A) (A) (A) (A) (A) (A) (A) (A) (A) (A) (A)
                 (A) (A) (A) (A) (A) (A) (A) (A) (A) (A) (A) (A)
                 (A) (A) (A) (A) (A) (A) (A) (A) (A) (A) (A) (A)
                 (A) (A) (A) (A) (A) (A) (A) (A) (A) (A) (A) (A)
                 (A) (A) (A) (A) (A) (A) (A) (A) (A) (A) (A) (A)
                 (A) (A) (A) (A) (A) (A) (A) (A) (A) (A) (A) (A)
                 (A) (A) (A) (A) (A) (A) (A) (A) (A) (A) (A) (A)
                 (A) (A) (A) (A) (A) (A) (A) (A) (A) (A) (A) (A)
                 (A) (A) (A) (A) (A) (A) (A) (A) (A) (A) (A) (A)
                 (A) (A) (A) (A) (A) (A) (A) (A) (A) (A) (A) (A)
                 (A) (A) (A) (A) (A) (A) (A) (A) (A) (A) (A) (A)
                 (A) (A) (A) (A) (A) (A) (A) (A) (A) (A) (A) (A)
    20 initial guesses have been made.
 Convergence on wavefunction:    0.001000000000000
 Davidson Disk Diagonalization:  ConvIn= 1.00D-03 SkipCon=T Conv= 1.00D-03.
 Max sub-space:  2000 roots to seek:    20 dimension of matrix:       549360
 Iteration     1 Dimension    20 NMult     0 NNew     20
 CISAX will form    20 AO SS matrices at one time.
 NMat=    20 NSing=    20 JSym2X= 0.
 FoFJK:  IHMeth= 1 ICntrl=       0 DoSepK=T KAlg= 0 I1Cent=           0 FoldK=F
 IRaf=         1 NMat=      40 IRICut=       1 DoRegI=T DoRafI=F ISym2E= 0 IDoP0=3 IntGTp=3.
 FoFCou: FMM=T IPFlag=           0 FMFlag=      100000 FMFlg1=        2001
         NFxFlg=           0 DoJE=F BraDBF=F KetDBF=F FulRan=T
         wScrn=  0.000000 ICntrl=       500 IOpCl=  0 I1Cent=           0 NGrid=           0
         NMat0=   20 NMatS0=     20 NMatT0=    0 NMatD0=   20 NMtDS0=    0 NMtDT0=    0
 Symmetry not used in FoFCou.
 FMM levels:  10  Number of levels for PrismC:   9
 New state      1 was old state      8
 New state      2 was old state      5
 New state      3 was old state      2
 New state      4 was old state      1
 New state      5 was old state      3
 Excitation Energies [eV] at current iteration:
 Root      1 :     2.613363989531007
 Root      2 :     2.618671516997003
 Root      3 :     2.660111581231382
 Root      4 :     2.709666254046742
 Root      5 :     2.710712708574044
 Root      6 :     2.728611136120322
 Root      7 :     3.510689033864130
 Root      8 :     3.521278324639418
 Root      9 :     3.625494728167088
 Root     10 :     3.667312069857250
 Root     11 :     3.738823181965779
 Root     12 :     3.760644109886496
 Root     13 :     4.286544628750564
 Root     14 :     4.320547781212282
 Root     15 :     4.635669498822914
 Root     16 :     4.636177502912944
 Root     17 :     4.928529650360602
 Root     18 :     4.935110734791070
 Root     19 :     4.957571313997144
 Root     20 :     4.969300914214881
 Iteration     2 Dimension    30 NMult    20 NNew     10
 CISAX will form    10 AO SS matrices at one time.
 NMat=    10 NSing=    10 JSym2X= 0.
 New state      1 was old state      3
 Root      1 not converged, maximum delta is    0.146376436936267
 New state      2 was old state      5
 Root      2 not converged, maximum delta is    0.152209496512262
 New state      3 was old state      2
 Root      3 not converged, maximum delta is    0.302354876352425
 New state      4 was old state      1
 Root      4 not converged, maximum delta is    0.323694407040970
 New state      5 was old state      4
 Root      5 not converged, maximum delta is    0.001383842476750
 Excitation Energies [eV] at current iteration:
 Root      1 :     1.790564112835966   Change is   -0.869547468395416
 Root      2 :     1.816659533178506   Change is   -0.894053175395538
 Root      3 :     2.234206143931806   Change is   -0.384465373065197
 Root      4 :     2.239870335688162   Change is   -0.373493653842845
 Root      5 :     2.709508520485154   Change is   -0.000157733561588
 Iteration     3 Dimension    40 NMult    30 NNew     10
 CISAX will form    10 AO SS matrices at one time.
 NMat=    10 NSing=    10 JSym2X= 0.
 Root      1 not converged, maximum delta is    0.054050928189085
 Root      2 not converged, maximum delta is    0.054940399687079
 Root      3 not converged, maximum delta is    0.084257092141218
 Root      4 not converged, maximum delta is    0.084017317176088
 Root      5 has converged.
 Excitation Energies [eV] at current iteration:
 Root      1 :     1.684132440682281   Change is   -0.106431672153685
 Root      2 :     1.707642089370827   Change is   -0.109017443807679
 Root      3 :     2.192956951861865   Change is   -0.041249192069942
 Root      4 :     2.200429332388141   Change is   -0.039441003300022
 Root      5 :     2.709507857554190   Change is   -0.000000662930964
 Iteration     4 Dimension    48 NMult    40 NNew      8
 CISAX will form     8 AO SS matrices at one time.
 NMat=     8 NSing=     8 JSym2X= 0.
 Root      1 not converged, maximum delta is    0.010478130087251
 Root      2 not converged, maximum delta is    0.010318723006128
 Root      3 not converged, maximum delta is    0.013103103493764
 Root      4 not converged, maximum delta is    0.012997933439495
 Root      5 has converged.
 Excitation Energies [eV] at current iteration:
 Root      1 :     1.667400964515488   Change is   -0.016731476166793
 Root      2 :     1.690788285192870   Change is   -0.016853804177957
 Root      3 :     2.185673224844784   Change is   -0.007283727017080
 Root      4 :     2.193574675914786   Change is   -0.006854656473355
 Root      5 :     2.709507857552855   Change is   -0.000000000001335
 Iteration     5 Dimension    56 NMult    48 NNew      8
 CISAX will form     8 AO SS matrices at one time.
 NMat=     8 NSing=     8 JSym2X= 0.
 Root      1 not converged, maximum delta is    0.001698124523924
 Root      2 not converged, maximum delta is    0.001725032669619
 Root      3 not converged, maximum delta is    0.002420073337311
 Root      4 not converged, maximum delta is    0.002302437770604
 Root      5 has converged.
 Excitation Energies [eV] at current iteration:
 Root      1 :     1.665649469143047   Change is   -0.001751495372441
 Root      2 :     1.688990810895620   Change is   -0.001797474297250
 Root      3 :     2.184828925560462   Change is   -0.000844299284322
 Root      4 :     2.192791481056628   Change is   -0.000783194858158
 Root      5 :     2.709507857549609   Change is   -0.000000000003247
 Iteration     6 Dimension    64 NMult    56 NNew      8
 CISAX will form     8 AO SS matrices at one time.
 NMat=     8 NSing=     8 JSym2X= 0.
 Root      1 not converged, maximum delta is    0.001062233428856
 Root      2 not converged, maximum delta is    0.001068588103854
 Root      3 not converged, maximum delta is    0.001024797814743
 Root      4 has converged.
 Root      5 has converged.
 Excitation Energies [eV] at current iteration:
 Root      1 :     1.665400361290904   Change is   -0.000249107852143
 Root      2 :     1.688732187415698   Change is   -0.000258623479922
 Root      3 :     2.184700522618230   Change is   -0.000128402942231
 Root      4 :     2.192672040414851   Change is   -0.000119440641777
 Root      5 :     2.709507857549184   Change is   -0.000000000000425
 Iteration     7 Dimension    70 NMult    64 NNew      6
 CISAX will form     6 AO SS matrices at one time.
 NMat=     6 NSing=     6 JSym2X= 0.
 Root      1 has converged.
 Root      2 has converged.
 Root      3 has converged.
 Root      4 has converged.
 Root      5 has converged.
 Excitation Energies [eV] at current iteration:
 Root      1 :     1.665376079495766   Change is   -0.000024281795138
[...]
 Alpha virt. eigenvalues --    1.84594   1.84618   1.84830   1.84966   1.85203
 Alpha virt. eigenvalues --    1.85282   1.85362   1.85437   1.85532   1.85624
 Alpha virt. eigenvalues --    1.85955   1.86035   1.86438   1.86528   1.86695
 Alpha virt. eigenvalues --    1.86712   1.86890   1.86947   1.87113   1.87212
 Alpha virt. eigenvalues --    1.87535   1.87613   1.87818   1.87838   1.88031
 Alpha virt. eigenvalues --    1.88063   1.88205   1.88225   1.88613   1.88693
 Alpha virt. eigenvalues --    1.88973   1.88978   1.89132   1.89297   1.89692
 Alpha virt. eigenvalues --    1.89778   1.89903   1.89919   1.90230   1.90276
 Alpha virt. eigenvalues --    1.90914   1.90941   1.91475   1.91507   1.91596
 Alpha virt. eigenvalues --    1.91631   1.92231   1.92319   1.92709   1.92780
 Alpha virt. eigenvalues --    1.93146   1.93199   1.93507   1.93559   1.94373
 Alpha virt. eigenvalues --    1.94458   1.94845   1.94856   1.95647   1.95658
 Alpha virt. eigenvalues --    1.95862   1.95888   1.96104   1.96154   1.96220
 Alpha virt. eigenvalues --    1.96327   1.96544   1.96764   1.96976   1.97058
 Alpha virt. eigenvalues --    1.97599   1.97618   1.97858   1.98009   1.98214
 Alpha virt. eigenvalues --    1.98331   1.98397   1.98822   1.99115   1.99290
 Alpha virt. eigenvalues --    1.99970   1.99975   2.00780   2.00828   2.01138
 Alpha virt. eigenvalues --    2.01155   2.01568   2.01633   2.01646   2.01843
 Alpha virt. eigenvalues --    2.01867   2.01874   2.02754   2.02944   2.03189
 Alpha virt. eigenvalues --    2.03396   2.03421   2.03560   2.03566   2.03643
 Alpha virt. eigenvalues --    2.04072   2.04194   2.05022   2.05120   2.05671
 Alpha virt. eigenvalues --    2.05673   2.06233   2.06321   2.07056   2.07073
 Alpha virt. eigenvalues --    2.07351   2.07400   2.08578   2.08737   2.09051
 Alpha virt. eigenvalues --    2.09142   2.09655   2.09746   2.10954   2.11099
 Alpha virt. eigenvalues --    2.11347   2.11455   2.11572   2.11693   2.11885
 Alpha virt. eigenvalues --    2.11902   2.12505   2.12623   2.12848   2.12918
 Alpha virt. eigenvalues --    2.12964   2.13000   2.13666   2.13917   2.14298
 Alpha virt. eigenvalues --    2.14300   2.15453   2.15496   2.16082   2.16124
 Alpha virt. eigenvalues --    2.16637   2.16688   2.16920   2.17223   2.17576
 Alpha virt. eigenvalues --    2.17692   2.17860   2.17972   2.18065   2.18242
 Alpha virt. eigenvalues --    2.18474   2.18707   2.19021   2.19276   2.19798
 Alpha virt. eigenvalues --    2.19858   2.20194   2.20291   2.20377   2.20476
 Alpha virt. eigenvalues --    2.21233   2.21324   2.21806   2.21826   2.21905
 Alpha virt. eigenvalues --    2.21915   2.22746   2.22844   2.23399   2.23485
 Alpha virt. eigenvalues --    2.24480   2.24557   2.25057   2.25138   2.26455
 Alpha virt. eigenvalues --    2.26481   2.26940   2.27050   2.27245   2.27259
 Alpha virt. eigenvalues --    2.28294   2.28351   2.29428   2.29478   2.29892
 Alpha virt. eigenvalues --    2.29920   2.30609   2.30656   2.30856   2.31242
 Alpha virt. eigenvalues --    2.31250   2.31330   2.32281   2.32281   2.33267
 Alpha virt. eigenvalues --    2.33289   2.33535   2.33627   2.34189   2.34306
 Alpha virt. eigenvalues --    2.35336   2.35522   2.35942   2.35950   2.36368
 Alpha virt. eigenvalues --    2.36505   2.36523   2.36780   2.37738   2.37835
 Alpha virt. eigenvalues --    2.38412   2.38412   2.38810   2.39005   2.39706
 Alpha virt. eigenvalues --    2.39767   2.40323   2.40350   2.40641   2.40860
 Alpha virt. eigenvalues --    2.41247   2.41421   2.41752   2.41858   2.42164
 Alpha virt. eigenvalues --    2.42193   2.42876   2.43094   2.43112   2.43668
 Alpha virt. eigenvalues --    2.44002   2.44314   2.44839   2.44885   2.45026
 Alpha virt. eigenvalues --    2.45059   2.45610   2.45712   2.46307   2.46452
 Alpha virt. eigenvalues --    2.46532   2.46636   2.46836   2.46954   2.47418
 Alpha virt. eigenvalues --    2.47424   2.47873   2.47924   2.49426   2.49465
 Alpha virt. eigenvalues --    2.49958   2.50242   2.50494   2.50720   2.51273
 Alpha virt. eigenvalues --    2.51298   2.51641   2.52038   2.52422   2.52589
 Alpha virt. eigenvalues --    2.52963   2.53191   2.53998   2.54076   2.54293
 Alpha virt. eigenvalues --    2.54294   2.54847   2.54949   2.55672   2.55695
 Alpha virt. eigenvalues --    2.58017   2.58103   2.58800   2.58931   2.60326
 Alpha virt. eigenvalues --    2.60359   2.60761   2.60943   2.61847   2.61865
 Alpha virt. eigenvalues --    2.62455   2.62686   2.63114   2.63158   2.64087
 Alpha virt. eigenvalues --    2.64239   2.64413   2.64472   2.65131   2.65239
 Alpha virt. eigenvalues --    2.65878   2.65934   2.66870   2.66948   2.67065
 Alpha virt. eigenvalues --    2.67081   2.68012   2.68069   2.68848   2.69011
 Alpha virt. eigenvalues --    2.69054   2.69175   2.69563   2.69629   2.70163
 Alpha virt. eigenvalues --    2.70178   2.71093   2.71139   2.71916   2.72204
 Alpha virt. eigenvalues --    2.72515   2.72756   2.72807   2.72968   2.73329
 Alpha virt. eigenvalues --    2.73447   2.73492   2.73678   2.74539   2.74671
 Alpha virt. eigenvalues --    2.75076   2.75130   2.76554   2.76755   2.77093
 Alpha virt. eigenvalues --    2.77391   2.77604   2.77612   2.78295   2.78330
 Alpha virt. eigenvalues --    2.78712   2.78883   2.79170   2.79287   2.80265
 Alpha virt. eigenvalues --    2.80490   2.80707   2.80737   2.81173   2.81273
 Alpha virt. eigenvalues --    2.82006   2.82087   2.82360   2.82502   2.83854
 Alpha virt. eigenvalues --    2.83903   2.83916   2.83925   2.84551   2.84707
 Alpha virt. eigenvalues --    2.84915   2.85046   2.85700   2.85817   2.86680
 Alpha virt. eigenvalues --    2.87150   2.87189   2.87751   2.88236   2.88299
 Alpha virt. eigenvalues --    2.88651   2.88674   2.88895   2.89094   2.90655
 Alpha virt. eigenvalues --    2.90684   2.91089   2.91352   2.93306   2.93334
 Alpha virt. eigenvalues --    2.93788   2.94357   2.94595   2.94714   2.95479
 Alpha virt. eigenvalues --    2.95512   2.95847   2.96346   2.96406   2.96608
 Alpha virt. eigenvalues --    2.96889   2.97323   2.97959   2.98036   2.98352
 Alpha virt. eigenvalues --    2.98364   2.98532   2.98585   2.98764   2.98808
 Alpha virt. eigenvalues --    2.98944   2.99035   2.99756   2.99834   3.00028
 Alpha virt. eigenvalues --    3.00175   3.00354   3.00370   3.00611   3.01006
 Alpha virt. eigenvalues --    3.01938   3.02112   3.02161   3.02170   3.02817
 Alpha virt. eigenvalues --    3.02866   3.03127   3.03310   3.03474   3.03727
 Alpha virt. eigenvalues --    3.04076   3.04345   3.04462   3.04622   3.04721
 Alpha virt. eigenvalues --    3.04769   3.05358   3.05445   3.06169   3.06264
 Alpha virt. eigenvalues --    3.06945   3.06951   3.07924   3.08297   3.09363
 Alpha virt. eigenvalues --    3.09547   3.09838   3.10432   3.10592   3.10745
 Alpha virt. eigenvalues --    3.11481   3.11486   3.11954   3.12089   3.12308
 Alpha virt. eigenvalues --    3.12364   3.13435   3.13658   3.13704   3.13804
 Alpha virt. eigenvalues --    3.14233   3.14480   3.16046   3.16105   3.17426
 Alpha virt. eigenvalues --    3.17537   3.17875   3.18226   3.19041   3.19284
 Alpha virt. eigenvalues --    3.22451   3.22608   3.24108   3.24454   3.24833
 Alpha virt. eigenvalues --    3.25209   3.26668   3.26674   3.27408   3.27781
 Alpha virt. eigenvalues --    3.29233   3.29247   3.31391   3.31683   3.33198
 Alpha virt. eigenvalues --    3.33579   3.40267   3.40770   3.42812   3.42964
 Alpha virt. eigenvalues --    3.48713   3.48821   3.50184   3.50296   3.50847
 Alpha virt. eigenvalues --    3.51634   3.56710   3.57016   3.59264   3.59357
 Alpha virt. eigenvalues --    3.62529   3.62999   3.66098   3.66325   3.67330
 Alpha virt. eigenvalues --    3.67552   3.73422   3.74034   3.76212   3.76695
          Condensed to atoms (all electrons):
 Mulliken charges:
               1
     1  Mg   0.839246
     2  C   -0.002960
     3  C   -0.094129
     4  C   -0.045900
     5  C   -0.063696
     6  N   -0.256756
     7  C   -0.052433
     8  C   -0.014050
     9  C   -0.086988
    10  C    0.046290
    11  C    0.104869
    12  C    0.053453
    13  C   -0.071606
    14  H    0.035662
    15  N   -0.433071
    16  C    0.168407
    17  C   -0.177256
    18  C   -0.004162
    19  C    0.148712
    20  C    0.110224
    21  C    0.012161
    22  O   -0.250005
    23  C    0.062509
    24  N   -0.341223
    25  C    0.041294
    26  C   -0.028059
    27  C   -0.024048
    28  C    0.075045
    29  C    0.076299
    30  C    0.035068
    31  C   -0.004592
    32  N   -0.310586
    33  C    0.080714
    34  C   -0.169123
    35  C    0.008382
    36  C    0.083293
    37  C    0.127180
    38  C    0.046351
    39  O   -0.188356
    40  C   -0.005460
    41  C    0.212871
    42  O   -0.256897
    43  O   -0.304835
    44  C    0.157812
    45  H   -0.017858
    46  H   -0.017130
    47  H   -0.041172
    48  H    0.000768
    49  H   -0.004111
    50  H    0.025368
    51  H    0.016393
    52  H    0.016434
    53  H    0.011463
    54  H    0.044147
    55  H    0.017733
    56  H    0.018005
    57  H    0.005810
    58  H    0.026468
    59  H    0.039540
    60  H    0.037264
    61  H    0.035047
    62  H    0.031596
    63  H    0.016447
    64  H    0.009268
    65  H    0.022862
    66  H    0.012345
    67  H    0.004622
    68  H    0.005951
    69  H    0.005091
    70  H    0.008205
    71  H    0.019667
    72  H    0.029229
    73  H    0.048179
    74  H    0.009523
    75  H    0.045716
    76  H    0.034959
    77  H    0.042802
    78  H    0.046239
    79  H    0.053479
    80  Mg   0.838329
    81  C   -0.016829
    82  C   -0.087888
    83  C   -0.045572
    84  C   -0.064557
    85  N   -0.254542
    86  C   -0.049768
    87  C   -0.015137
    88  C   -0.090470
    89  C    0.045708
    90  C    0.114441
    91  C    0.062543
    92  C   -0.077757
    93  H    0.034685
    94  N   -0.423370
    95  C    0.162846
    96  C   -0.174791
    97  C   -0.008067
    98  C    0.152089
    99  C    0.099422
   100  C    0.015355
   101  O   -0.253695
   102  C    0.061291
   103  N   -0.350142
   104  C    0.037568
   105  C   -0.019665
   106  C   -0.034906
   107  C    0.089199
   108  C    0.073816
   109  C    0.034643
   110  C   -0.007857
   111  N   -0.324264
   112  C    0.078884
   113  C   -0.162402
   114  C    0.002266
   115  C    0.096583
   116  C    0.131351
   117  C    0.042696
   118  O   -0.187675
   119  C    0.000783
   120  C    0.211228
   121  O   -0.250684
   122  O   -0.305725
   123  C    0.152093
   124  H   -0.019957
   125  H   -0.015966
   126  H   -0.039970
   127  H   -0.000778
   128  H   -0.004454
   129  H    0.022363
   130  H    0.014348
   131  H    0.016041
   132  H    0.014045
   133  H    0.037814
   134  H    0.020644
   135  H    0.019530
   136  H    0.008674
   137  H    0.025759
   138  H    0.039602
   139  H    0.038202
   140  H    0.035638
   141  H    0.033886
   142  H    0.014216
   143  H    0.012181
   144  H    0.024651
   145  H    0.011407
   146  H    0.005536
   147  H    0.005642
   148  H    0.004181
   149  H    0.010019
   150  H    0.020420
   151  H    0.030300
   152  H    0.046768
   153  H    0.009095
   154  H    0.046608
   155  H    0.034816
   156  H    0.043781
   157  H    0.049318
   158  H    0.053587
 Sum of Mulliken charges =  -0.00000
 Mulliken charges with hydrogens summed into heavy atoms:
               1
     1  Mg   0.839246
     2  C   -0.002960
     3  C   -0.111987
     4  C   -0.063030
     5  C   -0.104868
     6  N   -0.256756
     7  C   -0.052433
     8  C   -0.013281
     9  C   -0.091100
    10  C    0.046290
    11  C    0.163064
    12  C    0.109063
    13  C   -0.000206
    15  N   -0.433071
    16  C    0.168407
    17  C   -0.177256
    18  C   -0.004162
    19  C    0.148712
    20  C    0.182042
    21  C    0.012161
    22  O   -0.250005
    23  C    0.166416
    24  N   -0.341223
    25  C    0.041294
    26  C   -0.011612
    27  C   -0.014781
    28  C    0.075045
    29  C    0.116128
    30  C    0.046109
    31  C    0.052509
    32  N   -0.310586
    33  C    0.080714
    34  C   -0.169123
    35  C    0.008382
    36  C    0.083293
    37  C    0.230598
    38  C    0.046351
    39  O   -0.188356
    40  C    0.029499
    41  C    0.212871
    42  O   -0.256897
    43  O   -0.304835
    44  C    0.300332
    80  Mg   0.838329
    81  C   -0.016829
    82  C   -0.107845
    83  C   -0.061538
    84  C   -0.104527
    85  N   -0.254542
    86  C   -0.049768
    87  C   -0.015915
    88  C   -0.094925
    89  C    0.045708
    90  C    0.167192
    91  C    0.114402
    92  C   -0.002898
    94  N   -0.423370
    95  C    0.162846
    96  C   -0.174791
    97  C   -0.008067
    98  C    0.152089
    99  C    0.173457
   100  C    0.015355
   101  O   -0.253695
   102  C    0.169017
   103  N   -0.350142
   104  C    0.037568
   105  C   -0.005449
   106  C   -0.022725
   107  C    0.089199
   108  C    0.115410
   109  C    0.044466
   110  C    0.052882
   111  N   -0.324264
   112  C    0.078884
   113  C   -0.162402
   114  C    0.002266
   115  C    0.096583
   116  C    0.233822
   117  C    0.042696
   118  O   -0.187675
   119  C    0.035599
   120  C    0.211228
   121  O   -0.250684
   122  O   -0.305725
   123  C    0.298779
 Electronic spatial extent (au):  <R**2>=         154415.8540
 Charge=             -0.0000 electrons
 Dipole moment (field-independent basis, Debye):
    X=              0.0696    Y=             -0.0292    Z=              7.2307  Tot=              7.2311
 Quadrupole moment (field-independent basis, Debye-Ang):
   XX=           -452.4515   YY=           -466.2041   ZZ=           -539.8614
   XY=             29.9968   XZ=              2.7300   YZ=             -2.9396
 Traceless Quadrupole moment (field-independent basis, Debye-Ang):
   XX=             33.7208   YY=             19.9682   ZZ=            -53.6891
   XY=             29.9968   XZ=              2.7300   YZ=             -2.9396
 Octapole moment (field-independent basis, Debye-Ang**2):
  XXX=             63.7499  YYY=            -37.1558  ZZZ=            372.3138  XYY=             20.8353
  XXY=             51.5466  XXZ=            452.0734  XZZ=            -14.7999  YZZ=             36.0534
  YYZ=           -306.7462  XYZ=            328.3936
 Hexadecapole moment (field-independent basis, Debye-Ang**3):
 XXXX=        -140148.4539 YYYY=         -31588.4185 ZZZZ=         -32680.3896 XXXY=           3088.4513
 XXXZ=            376.7855 YYYX=           1297.4960 YYYZ=           -158.1069 ZZZX=            -28.4668
 ZZZY=             12.3667 XXYY=         -27644.0511 XXZZ=         -30465.1986 YYZZ=         -11259.9058
 XXYZ=           -380.3468 YYXZ=              0.7600 ZZXY=            588.3814
 N-N= 1.418308911417D+04 E-N=-3.784768997308D+04  KE= 4.028801955134D+03
 Leave Link  601 at Sat Sep 11 06:28:08 2021, MaxMem= 23488102400 cpu:              16.9 elap:               0.8
 (Enter /sw/apps/gaussian-16.0/g16/l9999.exe)
 1\1\GINC-BP1-COMPUTE00084\SP\RCAM-B3LYP TD-FC\def2SVP\C68H72Mg2N8O8\OF
 15641\11-Sep-2021\0\\#p cam-b3lyp/Def2SVP td=(nstates=5)\\TDDFT excite
 d states in gaussian\\0,1\Mg,0,0.,0.,0.\C,0,-0.217,-2.218,2.801\C,0,-1
 .255,2.442,2.026\C,0,-0.245,1.85,-2.564\C,0,0.146,-2.824,-2.037\N,0,-0
 .617,-0.009,2.126\C,0,-0.594,-0.908,3.105\C,0,-0.936,-0.309,4.502\C,0,
 -1.773,0.964,4.032\C,0,-1.155,1.168,2.66\C,0,-3.263,0.685,3.863\C,0,0.
 345,0.11,5.299\C,0,0.124,0.397,6.787\H,0,1.168,0.033,7.733\N,0,-0.185,
 1.961,-0.152\C,0,-0.703,2.8,0.777\C,0,-0.62,4.156,0.193\C,0,-0.187,4.0
 15,-1.225\C,0,-0.214,2.583,-1.38\C,0,-0.887,5.406,0.974\C,0,0.181,5.01
 3,-2.277\O,0,0.303,4.69,-3.508\C,0,0.31,6.414,-1.837\N,0,-0.265,-0.413
 ,-2.029\C,0,-0.279,0.569,-2.937\C,0,-0.196,0.024,-4.332\C,0,0.124,-1.5
 33,-4.18\C,0,0.086,-1.632,-2.635\C,0,-1.451,0.205,-5.197\C,0,1.373,-2.
 07,-4.923\C,0,2.626,-1.49,-4.306\N,0,0.15,-2.144,0.303\C,0,0.173,-3.13
 6,-0.688\C,0,0.173,-4.438,0.004\C,0,0.133,-4.111,1.358\C,0,0.083,-2.69
 5,1.502\C,0,0.149,-5.715,-0.623\C,0,0.096,-4.629,2.716\O,0,0.208,-5.74
 7,3.221\C,0,-0.255,-3.428,3.701\C,0,0.717,-3.482,4.848\O,0,1.931,-3.25
 5,4.669\O,0,0.038,-3.556,6.003\C,0,0.943,-3.583,7.183\H,0,-1.859,3.22,
 2.497\H,0,-0.218,2.453,-3.474\H,0,0.276,-3.747,-2.605\H,0,-1.554,-0.94
 9,5.132\H,0,-1.585,1.831,4.665\H,0,-3.484,-0.377,3.969\H,0,-3.511,1.02
 7,2.858\H,0,-3.852,1.301,4.543\H,0,0.669,1.096,4.966\H,0,1.13,-0.639,5
 .189\H,0,-0.844,0.026,7.125\H,0,0.062,1.477,6.921\H,0,-1.344,5.186,1.9
 38\H,0,-1.651,5.963,0.432\H,0,0.007,6.02,1.084\H,0,-0.635,6.744,-1.405
 \H,0,0.665,6.97,-2.704\H,0,1.048,6.466,-1.036\H,0,0.608,0.501,-4.891\H
 ,0,-0.692,-2.156,-4.547\H,0,-1.267,0.74,-6.129\H,0,-2.204,0.714,-4.596
 \H,0,-1.967,-0.72,-5.453\H,0,1.356,-1.759,-5.967\H,0,1.452,-3.157,-4.9
 02\H,0,2.714,-0.522,-4.798\H,0,3.487,-2.121,-4.529\H,0,2.495,-1.303,-3
 .24\H,0,0.867,-6.333,-0.084\H,0,0.404,-5.642,-1.68\H,0,-0.891,-5.999,-
 0.463\H,0,-1.283,-3.581,4.028\H,0,0.698,-4.478,7.755\H,0,0.833,-2.619,
 7.68\H,0,2.,-3.754,6.976\Mg,0,13.13291,1.18503,0.98936\C,0,14.15256,-1
 .48795,-1.17733\C,0,14.36362,3.34662,-1.34462\C,0,12.65908,3.53863,3.0
 6385\C,0,13.04052,-1.13945,3.58435\N,0,14.10776,0.85153,-0.96785\C,0,1
 4.38636,-0.20546,-1.71585\C,0,14.87213,0.13219,-3.15097\C,0,15.43138,1
 .61178,-2.87366\C,0,14.55965,1.98199,-1.67545\C,0,16.88508,1.6326,-2.4
 313\C,0,13.69769,0.14766,-4.19138\C,0,14.13717,0.16437,-5.6571\H,0,13.
 33094,-0.5626,-6.63381\N,0,13.00654,3.14457,0.70159\C,0,13.5467,3.8548
 4,-0.31085\C,0,13.18465,5.25776,-0.05608\C,0,12.52702,5.33792,1.27652\
 C,0,12.72846,3.9838,1.75176\C,0,13.3964,6.34889,-1.06505\C,0,11.84278,
 6.45274,2.00809\O,0,11.55395,6.36332,3.25365\C,0,11.60502,7.68778,1.24
 674\N,0,13.09032,1.24596,3.06706\C,0,12.81073,2.38785,3.71961\C,0,12.5
 6472,2.13121,5.18727\C,0,12.49913,0.54065,5.34019\C,0,12.8215,0.13308,
 3.88576\C,0,13.61529,2.69149,6.1458\C,0,11.22777,-0.05025,6.00889\C,0,
 10.02682,0.16758,5.1169\N,0,13.3385,-0.95851,1.16545\C,0,13.29103,-1.7
 2549,2.35017\C,0,13.59737,-3.12179,1.97743\C,0,13.82626,-3.06584,0.594
 32\C,0,13.6932,-1.72569,0.14071\C,0,13.68291,-4.22289,2.87542\C,0,14.1
 6063,-3.83402,-0.5833\O,0,14.30498,-5.03122,-0.82745\C,0,14.51108,-2.8
 2621,-1.76139\C,0,13.7711,-3.27462,-2.99178\O,0,12.52844,-3.24243,-3.0
 2884\O,0,14.65139,-3.45999,-3.99233\C,0,13.96388,-3.8947,-5.23739\H,0,
 14.92027,4.10068,-1.90178\H,0,12.38804,4.29456,3.80451\H,0,12.93528,-1
 .94,4.31968\H,0,15.66777,-0.5025,-3.52232\H,0,15.22907,2.27398,-3.7114
 7\H,0,17.26895,0.63756,-2.26192\H,0,16.90537,2.20709,-1.51446\H,0,17.4
 9007,2.19176,-3.15078\H,0,13.18477,1.11658,-4.13797\H,0,13.02942,-0.67
 452,-4.02386\H,0,15.19868,-0.08651,-5.77202\H,0,14.06191,1.18862,-6.03
 029\H,0,14.04925,6.01946,-1.88276\H,0,13.96528,7.14045,-0.56537\H,0,12
 .45837,6.76784,-1.43552\H,0,12.55369,8.07753,0.88538\H,0,11.02735,8.33
 376,1.91073\H,0,11.00743,7.44343,0.36142\H,0,11.61783,2.55369,5.50033\
 H,0,13.32028,0.15703,5.96339\H,0,13.19236,3.37576,6.90539\H,0,14.37586
 ,3.19379,5.56291\H,0,14.19398,1.94354,6.68516\H,0,11.01646,0.46988,6.9
 4643\H,0,11.31224,-1.10711,6.23889\H,0,9.72276,1.1906,5.35786\H,0,9.23
 91,-0.54458,5.35432\H,0,10.3138,0.14949,4.05909\H,0,13.17066,-5.05046,
 2.40297\H,0,13.24476,-3.98268,3.8419\H,0,14.76804,-4.34219,2.93491\H,0
 ,15.59233,-2.85036,-1.9024\H,0,14.4335,-4.83212,-5.55104\H,0,14.0359,-
 3.03774,-5.93322\H,0,12.9255,-4.19457,-5.15798\\Version=ES64L-G16RevA.
 03\State=1-A\HF=-4069.8117177\RMSD=5.361e-09\PG=C01 [X(C68H72Mg2N8O8)]
 \\@


 I DON'T PRETEND TO UNDERSTAND THE UNIVERSE --
 IT'S A GREAT DEAL BIGGER THAN I AM.
       -- ATTR. TO WILLIAM ALLINGHAM (1828-89)
 Job cpu time:       0 days 11 hours 44 minutes 17.4 seconds.
 Elapsed time:       0 days  0 hours 29 minutes 56.1 seconds.
 File lengths (MBytes):  RWF=  13225 Int=      0 D2E=      0 Chk=    574 Scr=      1
 Normal termination of Gaussian 16 at Sat Sep 11 06:28:09 2021.
