 Entering Gaussian System, Link 0=g16
 Initial command:
 /sw/apps/gaussian-16.0/g16/l1.exe "/tmp/Gau-244553.inp" -scrdir="/tmp/"
 Entering Link 1 = /sw/apps/gaussian-16.0/g16/l1.exe PID=    244554.
  
 Copyright (c) 1988,1990,1992,1993,1995,1998,2003,2009,2016,
            Gaussian, Inc.  All Rights Reserved.
  
 This is part of the Gaussian(R) 16 program.  It is based on
 the Gaussian(R) 09 system (copyright 2009, Gaussian, Inc.),
 the Gaussian(R) 03 system (copyright 2003, Gaussian, Inc.),
 the Gaussian(R) 98 system (copyright 1998, Gaussian, Inc.),
 the Gaussian(R) 94 system (copyright 1995, Gaussian, Inc.),
 the Gaussian 92(TM) system (copyright 1992, Gaussian, Inc.),
 the Gaussian 90(TM) system (copyright 1990, Gaussian, Inc.),
 the Gaussian 88(TM) system (copyright 1988, Gaussian, Inc.),
 the Gaussian 86(TM) system (copyright 1986, Carnegie Mellon
 University), and the Gaussian 82(TM) system (copyright 1983,
 Carnegie Mellon University). Gaussian is a federally registered
 trademark of Gaussian, Inc.
  
 This software contains proprietary and confidential information,
 including trade secrets, belonging to Gaussian, Inc.
  
 This software is provided under written license and may be
 used, copied, transmitted, or stored only in accord with that
 written license.
  
 The following legend is applicable only to US Government
 contracts under FAR:
  
                    RESTRICTED RIGHTS LEGEND
  
 Use, reproduction and disclosure by the US Government is
 subject to restrictions as set forth in subparagraphs (a)
 and (c) of the Commercial Computer Software - Restricted
 Rights clause in FAR 52.227-19.
  
 Gaussian, Inc.
 340 Quinnipiac St., Bldg. 40, Wallingford CT 06492
  
  
 ---------------------------------------------------------------
 Warning -- This program may not be used in any manner that
 competes with the business of Gaussian, Inc. or will provide
 assistance to any competitor of Gaussian, Inc.  The licensee
 of this program is prohibited from giving any competitor of
 Gaussian, Inc. access to this program.  By using this program,
 the user acknowledges that Gaussian, Inc. is engaged in the
 business of creating and licensing software in the field of
 computational chemistry and represents and warrants to the
 licensee that it is not a competitor of Gaussian, Inc. and that
 it will not use this program in any manner prohibited above.
 ---------------------------------------------------------------
  

 Cite this work as:
 Gaussian 16, Revision A.03,
 M. J. Frisch, G. W. Trucks, H. B. Schlegel, G. E. Scuseria, 
 M. A. Robb, J. R. Cheeseman, G. Scalmani, V. Barone, 
 G. A. Petersson, H. Nakatsuji, X. Li, M. Caricato, A. V. Marenich, 
 J. Bloino, B. G. Janesko, R. Gomperts, B. Mennucci, H. P. Hratchian, 
 J. V. Ortiz, A. F. Izmaylov, J. L. Sonnenberg, D. Williams-Young, 
 F. Ding, F. Lipparini, F. Egidi, J. Goings, B. Peng, A. Petrone, 
 T. Henderson, D. Ranasinghe, V. G. Zakrzewski, J. Gao, N. Rega, 
 G. Zheng, W. Liang, M. Hada, M. Ehara, K. Toyota, R. Fukuda, 
 J. Hasegawa, M. Ishida, T. Nakajima, Y. Honda, O. Kitao, H. Nakai, 
 T. Vreven, K. Throssell, J. A. Montgomery, Jr., J. E. Peralta, 
 F. Ogliaro, M. J. Bearpark, J. J. Heyd, E. N. Brothers, K. N. Kudin, 
 V. N. Staroverov, T. A. Keith, R. Kobayashi, J. Normand, 
 K. Raghavachari, A. P. Rendell, J. C. Burant, S. S. Iyengar, 
 J. Tomasi, M. Cossi, J. M. Millam, M. Klene, C. Adamo, R. Cammi, 
 J. W. Ochterski, R. L. Martin, K. Morokuma, O. Farkas, 
 J. B. Foresman, and D. J. Fox, Gaussian, Inc., Wallingford CT, 2016.
 
 ******************************************
 Gaussian 16:  ES64L-G16RevA.03 25-Dec-2016
                 3-Sep-2021 
 ******************************************
 %nproc=24
 Will use up to   24 processors via shared memory.
 %mem=175gb
 -----------------------------------
 #p cam-b3lyp/Def2SVP td=(nstates=5)
 -----------------------------------
 1/38=1,172=1/1;
 2/12=2,17=6,18=5,40=1/2;
 3/5=43,7=101,11=9,25=1,30=1,74=-40/1,2,3,8;
 4//1;
 5/5=2,38=5/2;
 8/6=1,10=1,108=5/1;
 9/41=5,42=1,70=2/14;
 6/7=2,8=2,9=2,10=2/1;
 99/5=1,9=1/99;
 Leave Link    1 at Fri Sep  3 18:58:59 2021, MaxMem= 23488102400 cpu:               0.8 elap:               0.0
 (Enter /sw/apps/gaussian-16.0/g16/l101.exe)
 --------------------------------
 TDDFT excited states in gaussian
 --------------------------------
 Symbolic Z-matrix:
 Charge =  0 Multiplicity = 1
 Mg                    0.        0.        0. 
 C                    -0.217    -2.218     2.801 
 C                    -1.255     2.442     2.026 
 C                    -0.245     1.85     -2.564 
 C                     0.146    -2.824    -2.037 
 N                    -0.617    -0.009     2.126 
 C                    -0.594    -0.908     3.105 
 C                    -0.936    -0.309     4.502 
 C                    -1.773     0.964     4.032 
 C                    -1.155     1.168     2.66 
 C                    -3.263     0.685     3.863 
 C                     0.345     0.11      5.299 
 C                     0.124     0.397     6.787 
 H                     1.168     0.033     7.733 
 N                    -0.185     1.961    -0.152 
 C                    -0.703     2.8       0.777 
 C                    -0.62      4.156     0.193 
 C                    -0.187     4.015    -1.225 
 C                    -0.214     2.583    -1.38 
 C                    -0.887     5.406     0.974 
 C                     0.181     5.013    -2.277 
 O                     0.303     4.69     -3.508 
 C                     0.31      6.414    -1.837 
 N                    -0.265    -0.413    -2.029 
 C                    -0.279     0.569    -2.937 
 C                    -0.196     0.024    -4.332 
 C                     0.124    -1.533    -4.18 
 C                     0.086    -1.632    -2.635 
 C                    -1.451     0.205    -5.197 
 C                     1.373    -2.07     -4.923 
 C                     2.626    -1.49     -4.306 
 N                     0.15     -2.144     0.303 
 C                     0.173    -3.136    -0.688 
 C                     0.173    -4.438     0.004 
 C                     0.133    -4.111     1.358 
 C                     0.083    -2.695     1.502 
 C                     0.149    -5.715    -0.623 
 C                     0.096    -4.629     2.716 
 O                     0.208    -5.747     3.221 
 C                    -0.255    -3.428     3.701 
 C                     0.717    -3.482     4.848 
 O                     1.931    -3.255     4.669 
 O                     0.038    -3.556     6.003 
 C                     0.943    -3.583     7.183 
 H                    -1.859     3.22      2.497 
 H                    -0.218     2.453    -3.474 
 H                     0.276    -3.747    -2.605 
 H                    -1.554    -0.949     5.132 
 H                    -1.585     1.831     4.665 
 H                    -3.484    -0.377     3.969 
 H                    -3.511     1.027     2.858 
 H                    -3.852     1.301     4.543 
 H                     0.669     1.096     4.966 
 H                     1.13     -0.639     5.189 
 H                    -0.844     0.026     7.125 
 H                     0.062     1.477     6.921 
 H                    -1.344     5.186     1.938 
 H                    -1.651     5.963     0.432 
 H                     0.007     6.02      1.084 
 H                    -0.635     6.744    -1.405 
 H                     0.665     6.97     -2.704 
 H                     1.048     6.466    -1.036 
 H                     0.608     0.501    -4.891 
 H                    -0.692    -2.156    -4.547 
 H                    -1.267     0.74     -6.129 
 H                    -2.204     0.714    -4.596 
 H                    -1.967    -0.72     -5.453 
 H                     1.356    -1.759    -5.967 
 H                     1.452    -3.157    -4.902 
 H                     2.714    -0.522    -4.798 
 H                     3.487    -2.121    -4.529 
 H                     2.495    -1.303    -3.24 
 H                     0.867    -6.333    -0.084 
 H                     0.404    -5.642    -1.68 
 H                    -0.891    -5.999    -0.463 
 H                    -1.283    -3.581     4.028 
 H                     0.698    -4.478     7.755 
 H                     0.833    -2.619     7.68 
 H                     2.       -3.754     6.976 
 Mg                    8.94221   0.79741   0.67781 
 C                     9.04727   0.32523  -2.87818 
 C                     8.33927  -2.54844   0.95409 
 C                     8.39741   1.25182   3.7704 
 C                     8.4138    4.18855   0.07226 
 N                     8.74227  -0.80021  -0.83872 
 C                     8.86277  -0.87207  -2.15579 
 C                     8.86123  -2.31664  -2.72394 
 C                     8.07099  -3.04379  -1.52993 
 C                     8.43018  -2.0968   -0.38675 
 C                     6.56197  -3.02619  -1.70851 
 C                     10.31027  -2.89523  -2.88983 
 C                     10.40009  -4.17517  -3.72375 
 H                     11.57137  -4.37152  -4.57346 
 N                     8.92806  -0.49597   2.18298 
 C                     8.68738  -1.82209   2.11408 
 C                     8.77277  -2.31882   3.49616 
 C                     8.92048  -1.1506    4.40619 
 C                     8.72931  -0.06121   3.46983 
 C                     8.79228  -3.78095   3.83558 
 C                     9.17697  -1.03349   5.87816 
 O                     9.03058   0.07719   6.50089 
 C                     9.51389  -2.2773    6.58591 
 N                     8.26387   2.43503   1.76428 
 C                     8.16698   2.38347   3.10438 
 C                     7.92434   3.75539   3.68693 
 C                     8.12019   4.77827   2.47327 
 C                     8.36522   3.76981   1.32943 
 C                     6.55109   3.97548   4.32108 
 C                     9.14611   5.92624   2.67898 
 C                     10.54529   5.35959   2.76017 
 N                     8.94235   2.08625  -1.05625 
 C                     8.67145   3.47174  -1.08928 
 C                     8.67758   3.88285  -2.50822 
 C                     8.93084   2.69417  -3.20921 
 C                     9.05251   1.61459  -2.29313 
 C                     8.42006   5.19536  -2.99516 
 C                     9.11238   2.10532  -4.5165 
 O                     9.20212   2.54457  -5.66225 
 C                     9.07025   0.52333  -4.36843 
 C                     10.23381  -0.0459   -5.13303 
 O                     11.40118   0.18405  -4.77113 
 O                     9.77728  -0.93964  -6.02924 
 C                     10.89534  -1.53995  -6.80475 
 H                     7.92229  -3.53844   1.14095 
 H                     8.30777   1.48381   4.83418 
 H                     8.35445   5.24616  -0.19346 
 H                     8.32117  -2.43789  -3.65529 
 H                     8.46839  -4.03763  -1.34093 
 H                     6.26316  -2.42223  -2.55236 
 H                     6.16181  -2.61728  -0.78998 
 H                     6.17838  -4.04828  -1.77568 
 H                     10.65624  -3.27761  -1.92089 
 H                     10.97263  -2.15404  -3.293 
 H                     9.47931  -4.36445  -4.2888 
 H                     10.4775  -5.02737  -3.0442 
 H                     8.50218  -4.3974    2.9758 
 H                     7.9979   -3.94917   4.57078 
 H                     9.74426  -4.10115   4.26439 
 H                     8.7073   -2.99532   6.45819 
 H                     9.74929  -1.97693   7.60877 
 H                     10.40265  -2.71595   6.11867 
 H                     8.65029   3.98199   4.45812 
 H                     7.18655   5.30707   2.23138 
 H                     6.60502   4.29644   5.3785 
 H                     5.98242   3.05957   4.23022 
 H                     5.91501   4.69427   3.80732 
 H                     8.96117   6.43371   3.62894 
 H                     9.11295   6.68      1.89941 
 H                     10.62601   5.05046   3.8066 
 H                     11.28216   6.12209   2.5159 
 H                     10.64182   4.45939   2.14214 
 H                     9.15658   5.39277  -3.76267 
 H                     8.46961   5.93256  -2.19651 
 H                     7.40212   5.06706  -3.37278 
 H                     8.11332   0.18249  -4.76556 
 H                     10.67507  -1.37362  -7.86376 
 H                     10.9655  -2.58996  -6.46372 
 H                     11.87146  -1.0775   -6.71659 
 
 ITRead=  0  0  0  0  0  0  0  0  0  0  0  0  0  0  0  0  0  0  0  0
 ITRead=  0  0  0  0  0  0  0  0  0  0  0  0  0  0  0  0  0  0  0  0
 ITRead=  0  0  0  0  0  0  0  0  0  0  0  0  0  0  0  0  0  0  0  0
 ITRead=  0  0  0  0  0  0  0  0  0  0  0  0  0  0  0  0  0  0  0  0
 ITRead=  0  0  0  0  0  0  0  0  0  0  0  0  0  0  0  0  0  0  0  0
 ITRead=  0  0  0  0  0  0  0  0  0  0  0  0  0  0  0  0  0  0  0  0
 ITRead=  0  0  0  0  0  0  0  0  0  0  0  0  0  0  0  0  0  0  0  0
 ITRead=  0  0  0  0  0  0  0  0  0  0  0  0  0  0  0  0  0  0
 MicOpt= -1 -1 -1 -1 -1 -1 -1 -1 -1 -1 -1 -1 -1 -1 -1 -1 -1 -1 -1 -1
 MicOpt= -1 -1 -1 -1 -1 -1 -1 -1 -1 -1 -1 -1 -1 -1 -1 -1 -1 -1 -1 -1
 MicOpt= -1 -1 -1 -1 -1 -1 -1 -1 -1 -1 -1 -1 -1 -1 -1 -1 -1 -1 -1 -1
 MicOpt= -1 -1 -1 -1 -1 -1 -1 -1 -1 -1 -1 -1 -1 -1 -1 -1 -1 -1 -1 -1
 MicOpt= -1 -1 -1 -1 -1 -1 -1 -1 -1 -1 -1 -1 -1 -1 -1 -1 -1 -1 -1 -1
 MicOpt= -1 -1 -1 -1 -1 -1 -1 -1 -1 -1 -1 -1 -1 -1 -1 -1 -1 -1 -1 -1
 MicOpt= -1 -1 -1 -1 -1 -1 -1 -1 -1 -1 -1 -1 -1 -1 -1 -1 -1 -1 -1 -1
 MicOpt= -1 -1 -1 -1 -1 -1 -1 -1 -1 -1 -1 -1 -1 -1 -1 -1 -1 -1
 NAtoms=    158 NQM=      158 NQMF=       0 NMMI=      0 NMMIF=      0
                NMic=       0 NMicF=      0.
                    Isotopes and Nuclear Properties:
 (Nuclear quadrupole moments (NQMom) in fm**2, nuclear magnetic moments (NMagM)
  in nuclear magnetons)

  Atom         1           2           3           4           5           6           7           8           9          10
 IAtWgt=          24          12          12          12          12          14          12          12          12          12
 AtmWgt=  23.9850450  12.0000000  12.0000000  12.0000000  12.0000000  14.0030740  12.0000000  12.0000000  12.0000000  12.0000000
 NucSpn=           0           0           0           0           0           2           0           0           0           0
 AtZEff=  -0.0000000  -0.0000000  -0.0000000  -0.0000000  -0.0000000  -0.0000000  -0.0000000  -0.0000000  -0.0000000  -0.0000000
 NQMom=    0.0000000   0.0000000   0.0000000   0.0000000   0.0000000   2.0440000   0.0000000   0.0000000   0.0000000   0.0000000
 NMagM=    0.0000000   0.0000000   0.0000000   0.0000000   0.0000000   0.4037610   0.0000000   0.0000000   0.0000000   0.0000000
 AtZNuc=  12.0000000   6.0000000   6.0000000   6.0000000   6.0000000   7.0000000   6.0000000   6.0000000   6.0000000   6.0000000

  Atom        11          12          13          14          15          16          17          18          19          20
 IAtWgt=          12          12          12           1          14          12          12          12          12          12
 AtmWgt=  12.0000000  12.0000000  12.0000000   1.0078250  14.0030740  12.0000000  12.0000000  12.0000000  12.0000000  12.0000000
 NucSpn=           0           0           0           1           2           0           0           0           0           0
 AtZEff=  -0.0000000  -0.0000000  -0.0000000  -0.0000000  -0.0000000  -0.0000000  -0.0000000  -0.0000000  -0.0000000  -0.0000000
 NQMom=    0.0000000   0.0000000   0.0000000   0.0000000   2.0440000   0.0000000   0.0000000   0.0000000   0.0000000   0.0000000
 NMagM=    0.0000000   0.0000000   0.0000000   2.7928460   0.4037610   0.0000000   0.0000000   0.0000000   0.0000000   0.0000000
 AtZNuc=   6.0000000   6.0000000   6.0000000   1.0000000   7.0000000   6.0000000   6.0000000   6.0000000   6.0000000   6.0000000

  Atom        21          22          23          24          25          26          27          28          29          30
 IAtWgt=          12          16          12          14          12          12          12          12          12          12
 AtmWgt=  12.0000000  15.9949146  12.0000000  14.0030740  12.0000000  12.0000000  12.0000000  12.0000000  12.0000000  12.0000000
 NucSpn=           0           0           0           2           0           0           0           0           0           0
 AtZEff=  -0.0000000  -0.0000000  -0.0000000  -0.0000000  -0.0000000  -0.0000000  -0.0000000  -0.0000000  -0.0000000  -0.0000000
 NQMom=    0.0000000   0.0000000   0.0000000   2.0440000   0.0000000   0.0000000   0.0000000   0.0000000   0.0000000   0.0000000
 NMagM=    0.0000000   0.0000000   0.0000000   0.4037610   0.0000000   0.0000000   0.0000000   0.0000000   0.0000000   0.0000000
 AtZNuc=   6.0000000   8.0000000   6.0000000   7.0000000   6.0000000   6.0000000   6.0000000   6.0000000   6.0000000   6.0000000

  Atom        31          32          33          34          35          36          37          38          39          40
 IAtWgt=          12          14          12          12          12          12          12          12          16          12
 AtmWgt=  12.0000000  14.0030740  12.0000000  12.0000000  12.0000000  12.0000000  12.0000000  12.0000000  15.9949146  12.0000000
 NucSpn=           0           2           0           0           0           0           0           0           0           0
 AtZEff=  -0.0000000  -0.0000000  -0.0000000  -0.0000000  -0.0000000  -0.0000000  -0.0000000  -0.0000000  -0.0000000  -0.0000000
 NQMom=    0.0000000   2.0440000   0.0000000   0.0000000   0.0000000   0.0000000   0.0000000   0.0000000   0.0000000   0.0000000
 NMagM=    0.0000000   0.4037610   0.0000000   0.0000000   0.0000000   0.0000000   0.0000000   0.0000000   0.0000000   0.0000000
 AtZNuc=   6.0000000   7.0000000   6.0000000   6.0000000   6.0000000   6.0000000   6.0000000   6.0000000   8.0000000   6.0000000

  Atom        41          42          43          44          45          46          47          48          49          50
 IAtWgt=          12          16          16          12           1           1           1           1           1           1
 AtmWgt=  12.0000000  15.9949146  15.9949146  12.0000000   1.0078250   1.0078250   1.0078250   1.0078250   1.0078250   1.0078250
 NucSpn=           0           0           0           0           1           1           1           1           1           1
 AtZEff=  -0.0000000  -0.0000000  -0.0000000  -0.0000000  -0.0000000  -0.0000000  -0.0000000  -0.0000000  -0.0000000  -0.0000000
 NQMom=    0.0000000   0.0000000   0.0000000   0.0000000   0.0000000   0.0000000   0.0000000   0.0000000   0.0000000   0.0000000
 NMagM=    0.0000000   0.0000000   0.0000000   0.0000000   2.7928460   2.7928460   2.7928460   2.7928460   2.7928460   2.7928460
 AtZNuc=   6.0000000   8.0000000   8.0000000   6.0000000   1.0000000   1.0000000   1.0000000   1.0000000   1.0000000   1.0000000

  Atom        51          52          53          54          55          56          57          58          59          60
 IAtWgt=           1           1           1           1           1           1           1           1           1           1
 AtmWgt=   1.0078250   1.0078250   1.0078250   1.0078250   1.0078250   1.0078250   1.0078250   1.0078250   1.0078250   1.0078250
 NucSpn=           1           1           1           1           1           1           1           1           1           1
 AtZEff=  -0.0000000  -0.0000000  -0.0000000  -0.0000000  -0.0000000  -0.0000000  -0.0000000  -0.0000000  -0.0000000  -0.0000000
 NQMom=    0.0000000   0.0000000   0.0000000   0.0000000   0.0000000   0.0000000   0.0000000   0.0000000   0.0000000   0.0000000
 NMagM=    2.7928460   2.7928460   2.7928460   2.7928460   2.7928460   2.7928460   2.7928460   2.7928460   2.7928460   2.7928460
 AtZNuc=   1.0000000   1.0000000   1.0000000   1.0000000   1.0000000   1.0000000   1.0000000   1.0000000   1.0000000   1.0000000

  Atom        61          62          63          64          65          66          67          68          69          70
 IAtWgt=           1           1           1           1           1           1           1           1           1           1
 AtmWgt=   1.0078250   1.0078250   1.0078250   1.0078250   1.0078250   1.0078250   1.0078250   1.0078250   1.0078250   1.0078250
 NucSpn=           1           1           1           1           1           1           1           1           1           1
 AtZEff=  -0.0000000  -0.0000000  -0.0000000  -0.0000000  -0.0000000  -0.0000000  -0.0000000  -0.0000000  -0.0000000  -0.0000000
 NQMom=    0.0000000   0.0000000   0.0000000   0.0000000   0.0000000   0.0000000   0.0000000   0.0000000   0.0000000   0.0000000
 NMagM=    2.7928460   2.7928460   2.7928460   2.7928460   2.7928460   2.7928460   2.7928460   2.7928460   2.7928460   2.7928460
 AtZNuc=   1.0000000   1.0000000   1.0000000   1.0000000   1.0000000   1.0000000   1.0000000   1.0000000   1.0000000   1.0000000

  Atom        71          72          73          74          75          76          77          78          79          80
 IAtWgt=           1           1           1           1           1           1           1           1           1          24
 AtmWgt=   1.0078250   1.0078250   1.0078250   1.0078250   1.0078250   1.0078250   1.0078250   1.0078250   1.0078250  23.9850450
 NucSpn=           1           1           1           1           1           1           1           1           1           0
 AtZEff=  -0.0000000  -0.0000000  -0.0000000  -0.0000000  -0.0000000  -0.0000000  -0.0000000  -0.0000000  -0.0000000  -0.0000000
 NQMom=    0.0000000   0.0000000   0.0000000   0.0000000   0.0000000   0.0000000   0.0000000   0.0000000   0.0000000   0.0000000
 NMagM=    2.7928460   2.7928460   2.7928460   2.7928460   2.7928460   2.7928460   2.7928460   2.7928460   2.7928460   0.0000000
 AtZNuc=   1.0000000   1.0000000   1.0000000   1.0000000   1.0000000   1.0000000   1.0000000   1.0000000   1.0000000  12.0000000

  Atom        81          82          83          84          85          86          87          88          89          90
 IAtWgt=          12          12          12          12          14          12          12          12          12          12
 AtmWgt=  12.0000000  12.0000000  12.0000000  12.0000000  14.0030740  12.0000000  12.0000000  12.0000000  12.0000000  12.0000000
 NucSpn=           0           0           0           0           2           0           0           0           0           0
 AtZEff=  -0.0000000  -0.0000000  -0.0000000  -0.0000000  -0.0000000  -0.0000000  -0.0000000  -0.0000000  -0.0000000  -0.0000000
 NQMom=    0.0000000   0.0000000   0.0000000   0.0000000   2.0440000   0.0000000   0.0000000   0.0000000   0.0000000   0.0000000
 NMagM=    0.0000000   0.0000000   0.0000000   0.0000000   0.4037610   0.0000000   0.0000000   0.0000000   0.0000000   0.0000000
 AtZNuc=   6.0000000   6.0000000   6.0000000   6.0000000   7.0000000   6.0000000   6.0000000   6.0000000   6.0000000   6.0000000

  Atom        91          92          93          94          95          96          97          98          99         100
 IAtWgt=          12          12           1          14          12          12          12          12          12          12
 AtmWgt=  12.0000000  12.0000000   1.0078250  14.0030740  12.0000000  12.0000000  12.0000000  12.0000000  12.0000000  12.0000000
 NucSpn=           0           0           1           2           0           0           0           0           0           0
 AtZEff=  -0.0000000  -0.0000000  -0.0000000  -0.0000000  -0.0000000  -0.0000000  -0.0000000  -0.0000000  -0.0000000  -0.0000000
 NQMom=    0.0000000   0.0000000   0.0000000   2.0440000   0.0000000   0.0000000   0.0000000   0.0000000   0.0000000   0.0000000
 NMagM=    0.0000000   0.0000000   2.7928460   0.4037610   0.0000000   0.0000000   0.0000000   0.0000000   0.0000000   0.0000000
 AtZNuc=   6.0000000   6.0000000   1.0000000   7.0000000   6.0000000   6.0000000   6.0000000   6.0000000   6.0000000   6.0000000

  Atom       101         102         103         104         105         106         107         108         109         110
 IAtWgt=          16          12          14          12          12          12          12          12          12          12
 AtmWgt=  15.9949146  12.0000000  14.0030740  12.0000000  12.0000000  12.0000000  12.0000000  12.0000000  12.0000000  12.0000000
 NucSpn=           0           0           2           0           0           0           0           0           0           0
 AtZEff=  -0.0000000  -0.0000000  -0.0000000  -0.0000000  -0.0000000  -0.0000000  -0.0000000  -0.0000000  -0.0000000  -0.0000000
 NQMom=    0.0000000   0.0000000   2.0440000   0.0000000   0.0000000   0.0000000   0.0000000   0.0000000   0.0000000   0.0000000
 NMagM=    0.0000000   0.0000000   0.4037610   0.0000000   0.0000000   0.0000000   0.0000000   0.0000000   0.0000000   0.0000000
 AtZNuc=   8.0000000   6.0000000   7.0000000   6.0000000   6.0000000   6.0000000   6.0000000   6.0000000   6.0000000   6.0000000

  Atom       111         112         113         114         115         116         117         118         119         120
 IAtWgt=          14          12          12          12          12          12          12          16          12          12
 AtmWgt=  14.0030740  12.0000000  12.0000000  12.0000000  12.0000000  12.0000000  12.0000000  15.9949146  12.0000000  12.0000000
 NucSpn=           2           0           0           0           0           0           0           0           0           0
 AtZEff=  -0.0000000  -0.0000000  -0.0000000  -0.0000000  -0.0000000  -0.0000000  -0.0000000  -0.0000000  -0.0000000  -0.0000000
 NQMom=    2.0440000   0.0000000   0.0000000   0.0000000   0.0000000   0.0000000   0.0000000   0.0000000   0.0000000   0.0000000
 NMagM=    0.4037610   0.0000000   0.0000000   0.0000000   0.0000000   0.0000000   0.0000000   0.0000000   0.0000000   0.0000000
 AtZNuc=   7.0000000   6.0000000   6.0000000   6.0000000   6.0000000   6.0000000   6.0000000   8.0000000   6.0000000   6.0000000

  Atom       121         122         123         124         125         126         127         128         129         130
 IAtWgt=          16          16          12           1           1           1           1           1           1           1
 AtmWgt=  15.9949146  15.9949146  12.0000000   1.0078250   1.0078250   1.0078250   1.0078250   1.0078250   1.0078250   1.0078250
 NucSpn=           0           0           0           1           1           1           1           1           1           1
 AtZEff=  -0.0000000  -0.0000000  -0.0000000  -0.0000000  -0.0000000  -0.0000000  -0.0000000  -0.0000000  -0.0000000  -0.0000000
 NQMom=    0.0000000   0.0000000   0.0000000   0.0000000   0.0000000   0.0000000   0.0000000   0.0000000   0.0000000   0.0000000
 NMagM=    0.0000000   0.0000000   0.0000000   2.7928460   2.7928460   2.7928460   2.7928460   2.7928460   2.7928460   2.7928460
 AtZNuc=   8.0000000   8.0000000   6.0000000   1.0000000   1.0000000   1.0000000   1.0000000   1.0000000   1.0000000   1.0000000

  Atom       131         132         133         134         135         136         137         138         139         140
 IAtWgt=           1           1           1           1           1           1           1           1           1           1
 AtmWgt=   1.0078250   1.0078250   1.0078250   1.0078250   1.0078250   1.0078250   1.0078250   1.0078250   1.0078250   1.0078250
 NucSpn=           1           1           1           1           1           1           1           1           1           1
 AtZEff=  -0.0000000  -0.0000000  -0.0000000  -0.0000000  -0.0000000  -0.0000000  -0.0000000  -0.0000000  -0.0000000  -0.0000000
 NQMom=    0.0000000   0.0000000   0.0000000   0.0000000   0.0000000   0.0000000   0.0000000   0.0000000   0.0000000   0.0000000
 NMagM=    2.7928460   2.7928460   2.7928460   2.7928460   2.7928460   2.7928460   2.7928460   2.7928460   2.7928460   2.7928460
 AtZNuc=   1.0000000   1.0000000   1.0000000   1.0000000   1.0000000   1.0000000   1.0000000   1.0000000   1.0000000   1.0000000

  Atom       141         142         143         144         145         146         147         148         149         150
 IAtWgt=           1           1           1           1           1           1           1           1           1           1
 AtmWgt=   1.0078250   1.0078250   1.0078250   1.0078250   1.0078250   1.0078250   1.0078250   1.0078250   1.0078250   1.0078250
 NucSpn=           1           1           1           1           1           1           1           1           1           1
 AtZEff=  -0.0000000  -0.0000000  -0.0000000  -0.0000000  -0.0000000  -0.0000000  -0.0000000  -0.0000000  -0.0000000  -0.0000000
 NQMom=    0.0000000   0.0000000   0.0000000   0.0000000   0.0000000   0.0000000   0.0000000   0.0000000   0.0000000   0.0000000
 NMagM=    2.7928460   2.7928460   2.7928460   2.7928460   2.7928460   2.7928460   2.7928460   2.7928460   2.7928460   2.7928460
 AtZNuc=   1.0000000   1.0000000   1.0000000   1.0000000   1.0000000   1.0000000   1.0000000   1.0000000   1.0000000   1.0000000

  Atom       151         152         153         154         155         156         157         158
 IAtWgt=           1           1           1           1           1           1           1           1
 AtmWgt=   1.0078250   1.0078250   1.0078250   1.0078250   1.0078250   1.0078250   1.0078250   1.0078250
 NucSpn=           1           1           1           1           1           1           1           1
 AtZEff=  -0.0000000  -0.0000000  -0.0000000  -0.0000000  -0.0000000  -0.0000000  -0.0000000  -0.0000000
 NQMom=    0.0000000   0.0000000   0.0000000   0.0000000   0.0000000   0.0000000   0.0000000   0.0000000
 NMagM=    2.7928460   2.7928460   2.7928460   2.7928460   2.7928460   2.7928460   2.7928460   2.7928460
 AtZNuc=   1.0000000   1.0000000   1.0000000   1.0000000   1.0000000   1.0000000   1.0000000   1.0000000
 Leave Link  101 at Fri Sep  3 18:58:59 2021, MaxMem= 23488102400 cpu:               2.9 elap:               0.1
 (Enter /sw/apps/gaussian-16.0/g16/l202.exe)
 Stoichiometry    C68H72Mg2N8O8
 Framework group  C1[X(C68H72Mg2N8O8)]
 Deg. of freedom   468
 Full point group                 C1      NOp   1
 Largest Abelian subgroup         C1      NOp   1
 Largest concise Abelian subgroup C1      NOp   1
                         Standard orientation:                         
 ---------------------------------------------------------------------
 Center     Atomic      Atomic             Coordinates (Angstroms)
 Number     Number       Type             X           Y           Z
 ---------------------------------------------------------------------
      1         12           0        4.130894   -1.586700    0.124958
      2          6           0        5.398447    1.392775   -1.400903
      3          6           0        5.585697   -0.540376    3.028717
      4          6           0        3.415509   -4.412301    1.374286
      5          6           0        3.776588   -2.902102   -3.082821
      6          7           0        5.313603    0.216553    0.625081
      7          6           0        5.678060    1.311409   -0.034945
      8          6           0        6.319001    2.398788    0.878387
      9          6           0        6.824793    1.463477    2.066396
     10          6           0        5.827437    0.327460    1.922618
     11          6           0        8.230896    0.912724    1.851812
     12          6           0        5.269832    3.446701    1.381233
     13          6           0        5.860141    4.715491    2.003374
     14          1           0        5.176389    5.982457    1.792116
     15          7           0        4.018664   -2.162022    2.011557
     16          6           0        4.666242   -1.610921    3.066174
     17          6           0        4.253996   -2.392988    4.251546
     18          6           0        3.463141   -3.560961    3.773549
     19          6           0        3.625047   -3.437960    2.347353
     20          6           0        4.569747   -1.984132    5.657565
     21          6           0        2.693667   -4.625904    4.489047
     22          8           0        2.273946   -5.677301    3.894931
     23          6           0        2.518212   -4.446066    5.941602
     24          7           0        3.867798   -3.482373   -0.708611
     25          6           0        3.504214   -4.524184    0.047313
     26          6           0        3.103610   -5.697730   -0.796633
     27          6           0        3.036681   -5.159787   -2.298595
     28          6           0        3.517114   -3.708511   -2.051102
     29          6           0        4.033800   -6.916995   -0.732221
     30          6           0        1.707376   -5.376181   -3.064455
     31          6           0        0.614364   -4.535868   -2.442928
     32          7           0        4.341590   -0.845518   -1.904156
     33          6           0        4.167065   -1.573437   -3.090051
     34          6           0        4.523719   -0.675987   -4.204255
     35          6           0        4.899262    0.514144   -3.584253
     36          6           0        4.809584    0.360868   -2.171186
     37          6           0        4.531407   -1.022971   -5.584101
     38          6           0        5.379003    1.871727   -3.785927
     39          8           0        5.553705    2.592568   -4.769472
     40          6           0        5.837880    2.455457   -2.377198
     41          6           0        5.239984    3.828917   -2.237782
     42          8           0        4.005859    3.981804   -2.133245
     43          8           0        6.218454    4.718845   -2.011581
     44          6           0        5.690175    6.097854   -1.834355
     45          1           0        6.194771   -0.431237    3.928194
     46          1           0        3.059852   -5.370665    1.758323
     47          1           0        3.609791   -3.216009   -4.114855
     48          1           0        7.163618    2.925517    0.433863
     49          1           0        6.714068    1.944223    3.038170
     50          1           0        8.604042    1.150153    0.855664
     51          1           0        8.143185   -0.166541    1.978247
     52          1           0        8.904419    1.252855    2.638866
     53          1           0        4.744717    3.042688    2.246733
     54          1           0        4.585729    3.723531    0.578305
     55          1           0        6.922589    4.812648    1.778265
     56          1           0        5.821216    4.614016    3.087988
     57          1           0        5.301807   -1.177994    5.685416
     58          1           0        5.075688   -2.826876    6.128217
     59          1           0        3.672498   -1.731696    6.222855
     60          1           0        3.497156   -4.389255    6.418037
     61          1           0        1.868236   -5.256884    6.268643
     62          1           0        2.033065   -3.486458    6.122523
     63          1           0        2.122215   -6.070962   -0.506824
     64          1           0        3.788973   -5.627240   -2.934377
     65          1           0        3.531068   -7.835755   -0.429160
     66          1           0        4.854772   -6.679218   -0.056381
     67          1           0        4.569403   -7.132624   -1.656369
     68          1           0        1.392757   -6.416675   -2.991427
     69          1           0        1.774321   -5.123435   -4.122703
     70          1           0        0.271716   -5.155713   -1.615150
     71          1           0       -0.188464   -4.364577   -3.160798
     72          1           0        1.013583   -3.615134   -2.017064
     73          1           0        4.076064   -0.185064   -6.111872
     74          1           0        3.984070   -1.948226   -5.762785
     75          1           0        5.601733   -1.130475   -5.759321
     76          1           0        6.927037    2.482347   -2.388779
     77          1           0        6.195484    6.731325   -2.563472
     78          1           0        5.812949    6.343516   -0.779375
     79          1           0        4.647573    6.254208   -2.113412
     80         12           0       -4.291903    1.573258    0.484911
     81          6           0       -5.326662   -1.626855   -0.767129
     82          6           0       -3.221260    2.295366   -2.672122
     83          6           0       -2.965845    4.212007    1.645077
     84          6           0       -4.383303    0.195662    3.684851
     85          7           0       -4.325173    0.404173   -1.392417
     86          6           0       -4.799010   -0.776484   -1.761044
     87          6           0       -4.775244   -1.029461   -3.292389
     88          6           0       -3.598093   -0.010577   -3.686186
     89          6           0       -3.739204    0.982762   -2.534650
     90          6           0       -2.213747   -0.633131   -3.613026
     91          6           0       -6.128448   -0.638653   -3.983845
     92          6           0       -6.286575   -1.144293   -5.419484
     93          1           0       -7.614431   -1.549325   -5.872481
     94          7           0       -3.695568    3.224602   -0.440300
     95          6           0       -3.319463    3.343604   -1.730902
     96          6           0       -2.952163    4.756272   -1.914299
     97          6           0       -2.984865    5.425750   -0.585600
     98          6           0       -3.201187    4.283644    0.279782
     99          6           0       -2.692556    5.360987   -3.263497
    100          6           0       -2.832270    6.855417   -0.162560
    101          8           0       -2.658102    7.179387    1.065260
    102          6           0       -2.799230    7.857358   -1.237972
    103          7           0       -3.547801    2.069554    2.361708
    104          6           0       -3.074530    3.302587    2.613816
    105          6           0       -2.852722    3.509829    4.093091
    106          6           0       -3.506628    2.237443    4.807971
    107          6           0       -3.933166    1.436437    3.558228
    108          6           0       -1.395835    3.648338    4.534335
    109          6           0       -4.569645    2.515961    5.905735
    110          6           0       -5.807820    3.120387    5.283658
    111          7           0       -4.938311   -0.295276    1.356008
    112          6           0       -4.863365   -0.674295    2.714238
    113          6           0       -5.317354   -2.077475    2.800371
    114          6           0       -5.605350   -2.427506    1.472582
    115          6           0       -5.329767   -1.327071    0.616663
    116          6           0       -5.372870   -2.862537    3.986417
    117          6           0       -6.069743   -3.481115    0.599108
    118          8           0       -6.530489   -4.609398    0.767710
    119          6           0       -5.789917   -3.050571   -0.905127
    120          6           0       -7.039887   -3.306546   -1.701720
    121          8           0       -8.078805   -2.662807   -1.471825
    122          8           0       -6.743761   -4.108561   -2.740692
    123          6           0       -7.949572   -4.382379   -3.567065
    124          1           0       -2.647982    2.535733   -3.567927
    125          1           0       -2.612258    5.134395    2.111617
    126          1           0       -4.533671   -0.274188    4.659171
    127          1           0       -4.506273   -2.038192   -3.582039
    128          1           0       -3.798962    0.476627   -4.636791
    129          1           0       -2.240888   -1.627528   -3.192818
    130          1           0       -1.627349    0.026378   -2.986753
    131          1           0       -1.739235   -0.613929   -4.598314
    132          1           0       -6.139013    0.444065   -4.163748
    133          1           0       -6.964576   -0.959642   -3.393520
    134          1           0       -5.544274   -1.911773   -5.670299
    135          1           0       -6.063481   -0.321941   -6.103584
    136          1           0       -2.579439    4.589467   -4.035087
    137          1           0       -1.709780    5.842241   -3.214465
    138          1           0       -3.438765    6.108689   -3.540602
    139          1           0       -1.977101    7.634608   -1.913945
    140          1           0       -2.775066    8.825761   -0.734495
    141          1           0       -3.720866    7.771698   -1.824376
    142          1           0       -3.356620    4.404330    4.438112
    143          1           0       -2.751783    1.629696    5.328237
    144          1           0       -1.191847    4.590673    5.076972
    145          1           0       -0.765075    3.569471    3.658862
    146          1           0       -1.024053    2.839147    5.160591
    147          1           0       -4.191691    3.250355    6.621255
    148          1           0       -4.850478    1.632385    6.469126
    149          1           0       -5.553413    4.181890    5.208954
    150          1           0       -6.673134    2.966095    5.925123
    151          1           0       -5.959599    2.745308    4.264875
    152          1           0       -6.313258   -3.396947    3.962314
    153          1           0       -5.289227   -2.243502    4.877236
    154          1           0       -4.493336   -3.495762    3.842519
    155          1           0       -4.947267   -3.642785   -1.264045
    156          1           0       -8.056752   -5.469950   -3.625286
    157          1           0       -7.789397   -3.840387   -4.518029
    158          1           0       -8.912097   -4.096535   -3.159289
 ---------------------------------------------------------------------
 Rotational constants (GHZ):           0.0209907           0.0139363           0.0124988
 Leave Link  202 at Fri Sep  3 18:58:59 2021, MaxMem= 23488102400 cpu:               0.2 elap:               0.0
 (Enter /sw/apps/gaussian-16.0/g16/l301.exe)
 Standard basis: def2SVP (5D, 7F)
 Ernie: Thresh=  0.10000D-02 Tol=  0.10000D-05 Strict=F.
 There are  1658 symmetry adapted cartesian basis functions of A   symmetry.
 There are  1572 symmetry adapted basis functions of A   symmetry.
  1572 basis functions,  2678 primitive gaussians,  1658 cartesian basis functions
   312 alpha electrons      312 beta electrons
       nuclear repulsion energy     15476.4036076765 Hartrees.
 IExCor=20419 DFT=T Ex+Corr=CAM-B3LYP ExCW=0 ScaHFX=  1.000000
 ScaDFX=  1.000000  1.000000  1.000000  0.810000 ScalE2=  1.000000  1.000000
 IRadAn=      5 IRanWt=     -1 IRanGd=            0 ICorTp=0 IEmpDi=  4
 HFx  wShort=  0.000000 wLong=  0.330000 cFull=  0.190000 cShort=  0.000000 cLong=  0.460000
 DFx  wShort=  0.000000 wLong=  0.330000 cFull=  0.190000 cShort=  0.000000 cLong=  0.460000
 NAtoms=  158 NActive=  158 NUniq=  158 SFac= 1.00D+00 NAtFMM=   60 NAOKFM=T Big=T
 Integral buffers will be    131072 words long.
 Raffenetti 1 integral format.
 Two-electron integral symmetry is turned on.
 Leave Link  301 at Fri Sep  3 18:58:59 2021, MaxMem= 23488102400 cpu:               1.3 elap:               0.1
 (Enter /sw/apps/gaussian-16.0/g16/l302.exe)
 NPDir=0 NMtPBC=     1 NCelOv=     1 NCel=       1 NClECP=     1 NCelD=      1
         NCelK=      1 NCelE2=     1 NClLst=     1 CellRange=     0.0.
 One-electron integrals computed using PRISM.
 One-electron integral symmetry used in STVInt
   1 Symmetry operations used in ECPInt.
 ECPInt:  NShTT=  271216 NPrTT=  987664 LenC2=  153624 LenP2D=  320384.
 LDataN:  DoStor=T MaxTD1= 4 Len=   56
 NBasis=  1572 RedAO= T EigKep=  3.36D-04  NBF=  1572
 NBsUse=  1572 1.00D-06 EigRej= -1.00D+00 NBFU=  1572
 Precomputing XC quadrature grid using
 IXCGrd= 4 IRadAn=           5 IRanWt=          -1 IRanGd=           0 AccXCQ= 0.00D+00.
 Generated NRdTot=       0 NPtTot=           0 NUsed=           0 NTot=          32
 NSgBfM=  1207  1182  1189  1204  1207 MxSgAt=   158 MxSgA2=   158.
 Leave Link  302 at Fri Sep  3 18:59:05 2021, MaxMem= 23488102400 cpu:             127.4 elap:               5.3
 (Enter /sw/apps/gaussian-16.0/g16/l303.exe)
 DipDrv:  MaxL=1.
 Leave Link  303 at Fri Sep  3 18:59:05 2021, MaxMem= 23488102400 cpu:              10.2 elap:               0.5
 (Enter /sw/apps/gaussian-16.0/g16/l308.exe)
 Leave Link  308 at Fri Sep  3 18:59:06 2021, MaxMem= 23488102400 cpu:              13.4 elap:               0.6
 (Enter /sw/apps/gaussian-16.0/g16/l401.exe)
 ExpMin= 3.36D-02 ExpMax= 4.95D+03 ExpMxC= 7.45D+02 IAcc=3 IRadAn=         5 AccDes= 0.00D+00
 Harris functional with IExCor=20419 and IRadAn=       5 diagonalized for initial guess.
 HarFok:  IExCor=20419 AccDes= 0.00D+00 IRadAn=         5 IDoV= 1 UseB2=F ITyADJ=14
 ICtDFT=  3500011 ScaDFX=  1.000000  1.000000  1.000000  1.000000
 FoFCou: FMM=F IPFlag=           0 FMFlag=      100000 FMFlg1=        2001
         NFxFlg=           0 DoJE=T BraDBF=F KetDBF=T FulRan=T
         wScrn=  0.000000 ICntrl=       500 IOpCl=  0 I1Cent=   200000004 NGrid=           0
         NMat0=    1 NMatS0=      1 NMatT0=    0 NMatD0=    1 NMtDS0=    0 NMtDT0=    0
 Petite list used in FoFCou.
 Harris En= -3918.65799030085    
 JPrj=0 DoOrth=F DoCkMO=F.
 Leave Link  401 at Fri Sep  3 18:59:14 2021, MaxMem= 23488102400 cpu:             182.7 elap:               7.6
 (Enter /sw/apps/gaussian-16.0/g16/l502.exe)
 Integral symmetry usage will be decided dynamically.
 Closed shell SCF:
 Using DIIS extrapolation, IDIIS=  1040.
 NGot= 23488102400 LenX= 23482547354 LenY= 23479796732
 Requested convergence on RMS density matrix=1.00D-08 within 128 cycles.
 Requested convergence on MAX density matrix=1.00D-06.
 Requested convergence on             energy=1.00D-06.
 No special actions if energy rises.
 Fock matrices will be formed incrementally for  20 cycles.

 Cycle   1  Pass 1  IDiag  1:
 FoFJK:  IHMeth= 1 ICntrl=       0 DoSepK=T KAlg= 0 I1Cent=           0 FoldK=F
 IRaf=         1 NMat=       1 IRICut=       1 DoRegI=T DoRafI=F ISym2E= 0 IDoP0=0 IntGTp=1.
 FoFCou: FMM=T IPFlag=           0 FMFlag=      100000 FMFlg1=        2001
         NFxFlg=           0 DoJE=T BraDBF=F KetDBF=F FulRan=T
         wScrn=  0.000000 ICntrl=       500 IOpCl=  0 I1Cent=           0 NGrid=           0
         NMat0=    1 NMatS0=      1 NMatT0=    0 NMatD0=    1 NMtDS0=    0 NMtDT0=    0
 Symmetry not used in FoFCou.
 FMM levels:  10  Number of levels for PrismC:   9
 E= -4068.95089127463    
 DIIS: error= 2.04D-02 at cycle   1 NSaved=   1.
 NSaved= 1 IEnMin= 1 EnMin= -4068.95089127463     IErMin= 1 ErrMin= 2.04D-02
 ErrMax= 2.04D-02  0.00D+00 EMaxC= 1.00D-01 BMatC= 1.69D+00 BMatP= 1.69D+00
 IDIUse=3 WtCom= 7.96D-01 WtEn= 2.04D-01
 Coeff-Com:  0.100D+01
 Coeff-En:   0.100D+01
 Coeff:      0.100D+01
 Gap=     0.121 Goal=   None    Shift=    0.000
 GapD=    0.121 DampG=1.000 DampE=0.500 DampFc=0.5000 IDamp=-1.
 Damping current iteration by 5.00D-01
 RMSDP=1.57D-03 MaxDP=1.35D-01              OVMax= 1.93D-01

 Cycle   2  Pass 1  IDiag  1:
 RMSU=  7.68D-04    CP:  9.82D-01
 E= -4069.33980412170     Delta-E=       -0.388912847069 Rises=F Damp=T
 DIIS: error= 1.27D-02 at cycle   2 NSaved=   2.
 NSaved= 2 IEnMin= 2 EnMin= -4069.33980412170     IErMin= 2 ErrMin= 1.27D-02
 ErrMax= 1.27D-02  0.00D+00 EMaxC= 1.00D-01 BMatC= 3.06D-01 BMatP= 1.69D+00
 IDIUse=3 WtCom= 8.73D-01 WtEn= 1.27D-01
 Coeff-Com: -0.214D+00 0.121D+01
 Coeff-En:   0.000D+00 0.100D+01
 Coeff:     -0.187D+00 0.119D+01
 Gap=     0.133 Goal=   None    Shift=    0.000
 RMSDP=7.62D-04 MaxDP=9.51D-02 DE=-3.89D-01 OVMax= 1.81D-01

 Cycle   3  Pass 1  IDiag  1:
 RMSU=  7.29D-04    CP:  9.68D-01  1.24D+00
 E= -4069.63156087173     Delta-E=       -0.291756750030 Rises=F Damp=F
 DIIS: error= 1.56D-02 at cycle   3 NSaved=   3.
 NSaved= 3 IEnMin= 3 EnMin= -4069.63156087173     IErMin= 2 ErrMin= 1.27D-02
 ErrMax= 1.56D-02  0.00D+00 EMaxC= 1.00D-01 BMatC= 2.00D-01 BMatP= 3.06D-01
 IDIUse=3 WtCom= 8.44D-01 WtEn= 1.56D-01
 Coeff-Com: -0.267D+00 0.650D+00 0.617D+00
 Coeff-En:   0.000D+00 0.000D+00 0.100D+01
 Coeff:     -0.226D+00 0.549D+00 0.677D+00
 Gap=     0.120 Goal=   None    Shift=    0.000
 RMSDP=5.00D-04 MaxDP=4.69D-02 DE=-2.92D-01 OVMax= 1.28D-01

 Cycle   4  Pass 1  IDiag  1:
 RMSU=  2.61D-04    CP:  9.65D-01  1.55D+00  5.12D-01
 E= -4069.76820849049     Delta-E=       -0.136647618761 Rises=F Damp=F
 DIIS: error= 7.13D-03 at cycle   4 NSaved=   4.
 NSaved= 4 IEnMin= 4 EnMin= -4069.76820849049     IErMin= 4 ErrMin= 7.13D-03
 ErrMax= 7.13D-03  0.00D+00 EMaxC= 1.00D-01 BMatC= 4.84D-02 BMatP= 2.00D-01
 IDIUse=3 WtCom= 9.29D-01 WtEn= 7.13D-02
 Coeff-Com: -0.108D+00 0.223D+00 0.406D+00 0.478D+00
 Coeff-En:   0.000D+00 0.000D+00 0.212D+00 0.788D+00
 Coeff:     -0.100D+00 0.207D+00 0.392D+00 0.500D+00
 Gap=     0.120 Goal=   None    Shift=    0.000
 RMSDP=1.91D-04 MaxDP=2.03D-02 DE=-1.37D-01 OVMax= 5.14D-02

 Cycle   5  Pass 1  IDiag  1:
 RMSU=  7.20D-05    CP:  9.64D-01  1.49D+00  6.90D-01  5.63D-01
 E= -4069.81119764990     Delta-E=       -0.042989159407 Rises=F Damp=F
 DIIS: error= 8.18D-04 at cycle   5 NSaved=   5.
 NSaved= 5 IEnMin= 5 EnMin= -4069.81119764990     IErMin= 5 ErrMin= 8.18D-04
 ErrMax= 8.18D-04  0.00D+00 EMaxC= 1.00D-01 BMatC= 9.83D-04 BMatP= 4.84D-02
 IDIUse=3 WtCom= 9.92D-01 WtEn= 8.18D-03
 Coeff-Com: -0.333D-01 0.651D-01 0.155D+00 0.240D+00 0.572D+00
 Coeff-En:   0.000D+00 0.000D+00 0.000D+00 0.000D+00 0.100D+01
 Coeff:     -0.331D-01 0.646D-01 0.154D+00 0.238D+00 0.576D+00
 Gap=     0.119 Goal=   None    Shift=    0.000
 RMSDP=3.59D-05 MaxDP=3.95D-03 DE=-4.30D-02 OVMax= 1.15D-02

 Cycle   6  Pass 1  IDiag  1:
 RMSU=  2.79D-05    CP:  9.64D-01  1.50D+00  6.84D-01  6.27D-01  8.00D-01
 E= -4069.81199883765     Delta-E=       -0.000801187754 Rises=F Damp=F
 DIIS: error= 2.61D-04 at cycle   6 NSaved=   6.
 NSaved= 6 IEnMin= 6 EnMin= -4069.81199883765     IErMin= 6 ErrMin= 2.61D-04
 ErrMax= 2.61D-04  0.00D+00 EMaxC= 1.00D-01 BMatC= 1.51D-04 BMatP= 9.83D-04
 IDIUse=3 WtCom= 9.97D-01 WtEn= 2.61D-03
 Coeff-Com:  0.274D-02-0.754D-02 0.824D-02 0.359D-01 0.310D+00 0.651D+00
 Coeff-En:   0.000D+00 0.000D+00 0.000D+00 0.000D+00 0.832D-01 0.917D+00
 Coeff:      0.273D-02-0.752D-02 0.822D-02 0.358D-01 0.309D+00 0.651D+00
 Gap=     0.120 Goal=   None    Shift=    0.000
 RMSDP=1.37D-05 MaxDP=1.20D-03 DE=-8.01D-04 OVMax= 5.67D-03

 Cycle   7  Pass 1  IDiag  1:
 RMSU=  9.48D-06    CP:  9.64D-01  1.50D+00  6.89D-01  6.29D-01  8.84D-01
                    CP:  7.70D-01
 E= -4069.81215249357     Delta-E=       -0.000153655918 Rises=F Damp=F
 DIIS: error= 6.89D-05 at cycle   7 NSaved=   7.
 NSaved= 7 IEnMin= 7 EnMin= -4069.81215249357     IErMin= 7 ErrMin= 6.89D-05
 ErrMax= 6.89D-05  0.00D+00 EMaxC= 1.00D-01 BMatC= 1.48D-05 BMatP= 1.51D-04
 IDIUse=1 WtCom= 1.00D+00 WtEn= 0.00D+00
 Coeff-Com:  0.427D-02-0.925D-02-0.939D-02-0.582D-02 0.896D-01 0.306D+00
 Coeff-Com:  0.625D+00
 Coeff:      0.427D-02-0.925D-02-0.939D-02-0.582D-02 0.896D-01 0.306D+00
 Coeff:      0.625D+00
 Gap=     0.120 Goal=   None    Shift=    0.000
 RMSDP=5.94D-06 MaxDP=1.11D-03 DE=-1.54D-04 OVMax= 2.84D-03

 Cycle   8  Pass 1  IDiag  1:
 RMSU=  4.32D-06    CP:  9.64D-01  1.50D+00  6.90D-01  6.33D-01  8.96D-01
                    CP:  8.97D-01  8.78D-01
 E= -4069.81217086886     Delta-E=       -0.000018375289 Rises=F Damp=F
 DIIS: error= 3.68D-05 at cycle   8 NSaved=   8.
 NSaved= 8 IEnMin= 8 EnMin= -4069.81217086886     IErMin= 8 ErrMin= 3.68D-05
 ErrMax= 3.68D-05  0.00D+00 EMaxC= 1.00D-01 BMatC= 3.94D-06 BMatP= 1.48D-05
 IDIUse=1 WtCom= 1.00D+00 WtEn= 0.00D+00
 Coeff-Com:  0.198D-02-0.390D-02-0.738D-02-0.121D-01-0.172D-01 0.299D-01
 Coeff-Com:  0.366D+00 0.643D+00
 Coeff:      0.198D-02-0.390D-02-0.738D-02-0.121D-01-0.172D-01 0.299D-01
 Coeff:      0.366D+00 0.643D+00
 Gap=     0.120 Goal=   None    Shift=    0.000
 RMSDP=2.99D-06 MaxDP=2.74D-04 DE=-1.84D-05 OVMax= 1.31D-03

 Cycle   9  Pass 1  IDiag  1:
 RMSU=  1.82D-06    CP:  9.64D-01  1.50D+00  6.90D-01  6.34D-01  9.11D-01
                    CP:  9.20D-01  1.08D+00  8.94D-01
 E= -4069.81217718493     Delta-E=       -0.000006316073 Rises=F Damp=F
 DIIS: error= 2.03D-05 at cycle   9 NSaved=   9.
 NSaved= 9 IEnMin= 9 EnMin= -4069.81217718493     IErMin= 9 ErrMin= 2.03D-05
 ErrMax= 2.03D-05  0.00D+00 EMaxC= 1.00D-01 BMatC= 6.04D-07 BMatP= 3.94D-06
 IDIUse=1 WtCom= 1.00D+00 WtEn= 0.00D+00
 Coeff-Com:  0.438D-03-0.727D-03-0.253D-02-0.579D-02-0.227D-01-0.339D-01
 Coeff-Com:  0.113D+00 0.333D+00 0.619D+00
 Coeff:      0.438D-03-0.727D-03-0.253D-02-0.579D-02-0.227D-01-0.339D-01
 Coeff:      0.113D+00 0.333D+00 0.619D+00
 Gap=     0.120 Goal=   None    Shift=    0.000
 RMSDP=1.35D-06 MaxDP=1.49D-04 DE=-6.32D-06 OVMax= 7.77D-04

 Cycle  10  Pass 1  IDiag  1:
 RMSU=  9.08D-07    CP:  9.64D-01  1.50D+00  6.90D-01  6.35D-01  9.14D-01
                    CP:  9.36D-01  1.12D+00  1.07D+00  9.95D-01
 E= -4069.81217855173     Delta-E=       -0.000001366803 Rises=F Damp=F
 DIIS: error= 1.11D-05 at cycle  10 NSaved=  10.
 NSaved=10 IEnMin=10 EnMin= -4069.81217855173     IErMin=10 ErrMin= 1.11D-05
 ErrMax= 1.11D-05  0.00D+00 EMaxC= 1.00D-01 BMatC= 1.62D-07 BMatP= 6.04D-07
 IDIUse=1 WtCom= 1.00D+00 WtEn= 0.00D+00
 Coeff-Com: -0.413D-03 0.864D-03 0.119D-02 0.112D-02-0.436D-02-0.297D-01
 Coeff-Com: -0.536D-01-0.654D-01 0.295D+00 0.855D+00
 Coeff:     -0.413D-03 0.864D-03 0.119D-02 0.112D-02-0.436D-02-0.297D-01
 Coeff:     -0.536D-01-0.654D-01 0.295D+00 0.855D+00
 Gap=     0.120 Goal=   None    Shift=    0.000
 RMSDP=1.12D-06 MaxDP=1.21D-04 DE=-1.37D-06 OVMax= 5.55D-04

 Cycle  11  Pass 1  IDiag  1:
 RMSU=  4.76D-07    CP:  9.64D-01  1.50D+00  6.90D-01  6.35D-01  9.17D-01
                    CP:  9.46D-01  1.17D+00  1.17D+00  1.33D+00  1.31D+00
 E= -4069.81217923236     Delta-E=       -0.000000680626 Rises=F Damp=F
 DIIS: error= 3.69D-06 at cycle  11 NSaved=  11.
 NSaved=11 IEnMin=11 EnMin= -4069.81217923236     IErMin=11 ErrMin= 3.69D-06
 ErrMax= 3.69D-06  0.00D+00 EMaxC= 1.00D-01 BMatC= 4.67D-08 BMatP= 1.62D-07
 IDIUse=1 WtCom= 1.00D+00 WtEn= 0.00D+00
 Coeff-Com: -0.308D-03 0.599D-03 0.125D-02 0.206D-02 0.423D-02-0.799D-02
 Coeff-Com: -0.497D-01-0.128D+00 0.930D-02 0.423D+00 0.745D+00
 Coeff:     -0.308D-03 0.599D-03 0.125D-02 0.206D-02 0.423D-02-0.799D-02
 Coeff:     -0.497D-01-0.128D+00 0.930D-02 0.423D+00 0.745D+00
 Gap=     0.120 Goal=   None    Shift=    0.000
 RMSDP=6.22D-07 MaxDP=4.53D-05 DE=-6.81D-07 OVMax= 3.36D-04

 Cycle  12  Pass 1  IDiag  1:
 RMSU=  2.44D-07    CP:  9.64D-01  1.50D+00  6.90D-01  6.35D-01  9.17D-01
                    CP:  9.49D-01  1.19D+00  1.23D+00  1.48D+00  1.67D+00
                    CP:  1.21D+00
 E= -4069.81217944865     Delta-E=       -0.000000216285 Rises=F Damp=F
 DIIS: error= 2.57D-06 at cycle  12 NSaved=  12.
 NSaved=12 IEnMin=12 EnMin= -4069.81217944865     IErMin=12 ErrMin= 2.57D-06
 ErrMax= 2.57D-06  0.00D+00 EMaxC= 1.00D-01 BMatC= 1.13D-08 BMatP= 4.67D-08
 IDIUse=1 WtCom= 1.00D+00 WtEn= 0.00D+00
 Coeff-Com:  0.117D-04-0.384D-04 0.119D-03 0.419D-03 0.296D-02 0.435D-02
 Coeff-Com:  0.348D-02-0.323D-01-0.595D-01-0.104D+00 0.238D+00 0.946D+00
 Coeff:      0.117D-04-0.384D-04 0.119D-03 0.419D-03 0.296D-02 0.435D-02
 Coeff:      0.348D-02-0.323D-01-0.595D-01-0.104D+00 0.238D+00 0.946D+00
 Gap=     0.120 Goal=   None    Shift=    0.000
 RMSDP=4.10D-07 MaxDP=2.45D-05 DE=-2.16D-07 OVMax= 2.36D-04

 Cycle  13  Pass 1  IDiag  1:
 RMSU=  1.55D-07    CP:  9.64D-01  1.50D+00  6.90D-01  6.35D-01  9.18D-01
                    CP:  9.49D-01  1.20D+00  1.26D+00  1.59D+00  1.89D+00
                    CP:  1.62D+00  1.31D+00
 E= -4069.81217952602     Delta-E=       -0.000000077376 Rises=F Damp=F
 DIIS: error= 1.47D-06 at cycle  13 NSaved=  13.
 NSaved=13 IEnMin=13 EnMin= -4069.81217952602     IErMin=13 ErrMin= 1.47D-06
 ErrMax= 1.47D-06  0.00D+00 EMaxC= 1.00D-01 BMatC= 6.75D-09 BMatP= 1.13D-08
 IDIUse=1 WtCom= 1.00D+00 WtEn= 0.00D+00
 Coeff-Com:  0.115D-03-0.235D-03-0.357D-03-0.446D-03 0.453D-03 0.518D-02
 Coeff-Com:  0.211D-01 0.198D-01-0.392D-01-0.238D+00-0.142D+00 0.625D+00
 Coeff-Com:  0.749D+00
 Coeff:      0.115D-03-0.235D-03-0.357D-03-0.446D-03 0.453D-03 0.518D-02
 Coeff:      0.211D-01 0.198D-01-0.392D-01-0.238D+00-0.142D+00 0.625D+00
 Coeff:      0.749D+00
 Gap=     0.120 Goal=   None    Shift=    0.000
 RMSDP=2.94D-07 MaxDP=1.66D-05 DE=-7.74D-08 OVMax= 1.62D-04

 Cycle  14  Pass 1  IDiag  1:
 RMSU=  7.42D-08    CP:  9.64D-01  1.50D+00  6.90D-01  6.35D-01  9.18D-01
                    CP:  9.50D-01  1.21D+00  1.28D+00  1.66D+00  2.05D+00
                    CP:  1.88D+00  1.81D+00  1.04D+00
 E= -4069.81217955450     Delta-E=       -0.000000028478 Rises=F Damp=F
 DIIS: error= 9.34D-07 at cycle  14 NSaved=  14.
 NSaved=14 IEnMin=14 EnMin= -4069.81217955450     IErMin=14 ErrMin= 9.34D-07
 ErrMax= 9.34D-07  0.00D+00 EMaxC= 1.00D-01 BMatC= 1.10D-09 BMatP= 6.75D-09
 IDIUse=1 WtCom= 1.00D+00 WtEn= 0.00D+00
 Coeff-Com:  0.654D-04-0.129D-03-0.241D-03-0.380D-03-0.517D-03 0.153D-02
 Coeff-Com:  0.121D-01 0.182D-01-0.633D-03-0.101D+00-0.139D+00 0.122D+00
 Coeff-Com:  0.399D+00 0.690D+00
 Coeff:      0.654D-04-0.129D-03-0.241D-03-0.380D-03-0.517D-03 0.153D-02
 Coeff:      0.121D-01 0.182D-01-0.633D-03-0.101D+00-0.139D+00 0.122D+00
 Coeff:      0.399D+00 0.690D+00
 Gap=     0.120 Goal=   None    Shift=    0.000
 RMSDP=9.38D-08 MaxDP=5.75D-06 DE=-2.85D-08 OVMax= 6.40D-05

 Cycle  15  Pass 1  IDiag  1:
 RMSU=  3.85D-08    CP:  9.64D-01  1.50D+00  6.90D-01  6.35D-01  9.18D-01
                    CP:  9.50D-01  1.21D+00  1.29D+00  1.67D+00  2.09D+00
                    CP:  1.98D+00  1.95D+00  1.29D+00  9.49D-01
 E= -4069.81217955836     Delta-E=       -0.000000003856 Rises=F Damp=F
 DIIS: error= 4.68D-07 at cycle  15 NSaved=  15.
 NSaved=15 IEnMin=15 EnMin= -4069.81217955836     IErMin=15 ErrMin= 4.68D-07
 ErrMax= 4.68D-07  0.00D+00 EMaxC= 1.00D-01 BMatC= 2.92D-10 BMatP= 1.10D-09
 IDIUse=1 WtCom= 1.00D+00 WtEn= 0.00D+00
 Coeff-Com:  0.101D-04-0.184D-04-0.494D-04-0.107D-03-0.354D-03-0.336D-03
 Coeff-Com:  0.218D-02 0.408D-02 0.888D-02-0.566D-02-0.427D-01-0.603D-01
 Coeff-Com:  0.409D-01 0.366D+00 0.687D+00
 Coeff:      0.101D-04-0.184D-04-0.494D-04-0.107D-03-0.354D-03-0.336D-03
 Coeff:      0.218D-02 0.408D-02 0.888D-02-0.566D-02-0.427D-01-0.603D-01
 Coeff:      0.409D-01 0.366D+00 0.687D+00
 Gap=     0.120 Goal=   None    Shift=    0.000
 RMSDP=4.03D-08 MaxDP=2.35D-06 DE=-3.86D-09 OVMax= 2.51D-05

 Cycle  16  Pass 1  IDiag  1:
 RMSU=  1.88D-08    CP:  9.64D-01  1.50D+00  6.90D-01  6.35D-01  9.18D-01
                    CP:  9.50D-01  1.21D+00  1.29D+00  1.68D+00  2.11D+00
                    CP:  2.01D+00  2.02D+00  1.35D+00  1.19D+00  1.08D+00
 E= -4069.81217955899     Delta-E=       -0.000000000637 Rises=F Damp=F
 DIIS: error= 2.04D-07 at cycle  16 NSaved=  16.
 NSaved=16 IEnMin=16 EnMin= -4069.81217955899     IErMin=16 ErrMin= 2.04D-07
 ErrMax= 2.04D-07  0.00D+00 EMaxC= 1.00D-01 BMatC= 7.82D-11 BMatP= 2.92D-10
 IDIUse=1 WtCom= 1.00D+00 WtEn= 0.00D+00
 Coeff-Com: -0.129D-04 0.263D-04 0.421D-04 0.463D-04-0.470D-04-0.636D-03
 Coeff-Com: -0.207D-02-0.368D-02 0.617D-02 0.238D-01 0.158D-01-0.665D-01
 Coeff-Com: -0.927D-01 0.212D-01 0.362D+00 0.737D+00
 Coeff:     -0.129D-04 0.263D-04 0.421D-04 0.463D-04-0.470D-04-0.636D-03
 Coeff:     -0.207D-02-0.368D-02 0.617D-02 0.238D-01 0.158D-01-0.665D-01
 Coeff:     -0.927D-01 0.212D-01 0.362D+00 0.737D+00
 Gap=     0.120 Goal=   None    Shift=    0.000
 RMSDP=2.36D-08 MaxDP=1.92D-06 DE=-6.37D-10 OVMax= 1.70D-05

 Cycle  17  Pass 1  IDiag  1:
 RMSU=  1.17D-08    CP:  9.64D-01  1.50D+00  6.90D-01  6.35D-01  9.18D-01
                    CP:  9.50D-01  1.21D+00  1.29D+00  1.68D+00  2.11D+00
                    CP:  2.02D+00  2.04D+00  1.40D+00  1.28D+00  1.38D+00
                    CP:  1.14D+00
 E= -4069.81217955923     Delta-E=       -0.000000000236 Rises=F Damp=F
 DIIS: error= 1.03D-07 at cycle  17 NSaved=  17.
 NSaved=17 IEnMin=17 EnMin= -4069.81217955923     IErMin=17 ErrMin= 1.03D-07
 ErrMax= 1.03D-07  0.00D+00 EMaxC= 1.00D-01 BMatC= 2.37D-11 BMatP= 7.82D-11
 IDIUse=1 WtCom= 1.00D+00 WtEn= 0.00D+00
 Coeff-Com: -0.891D-05 0.175D-04 0.341D-04 0.495D-04 0.782D-04-0.222D-03
 Coeff-Com: -0.147D-02-0.324D-02 0.164D-02 0.127D-01 0.200D-01-0.160D-01
 Coeff-Com: -0.575D-01-0.849D-01-0.264D-01 0.380D+00 0.776D+00
 Coeff:     -0.891D-05 0.175D-04 0.341D-04 0.495D-04 0.782D-04-0.222D-03
 Coeff:     -0.147D-02-0.324D-02 0.164D-02 0.127D-01 0.200D-01-0.160D-01
 Coeff:     -0.575D-01-0.849D-01-0.264D-01 0.380D+00 0.776D+00
 Gap=     0.120 Goal=   None    Shift=    0.000
 RMSDP=1.39D-08 MaxDP=8.39D-07 DE=-2.36D-10 OVMax= 8.42D-06

 Cycle  18  Pass 1  IDiag  1:
 RMSU=  5.53D-09    CP:  9.64D-01  1.50D+00  6.90D-01  6.35D-01  9.18D-01
                    CP:  9.50D-01  1.21D+00  1.29D+00  1.68D+00  2.11D+00
                    CP:  2.02D+00  2.05D+00  1.43D+00  1.35D+00  1.54D+00
                    CP:  1.55D+00  1.28D+00
 E= -4069.81217955944     Delta-E=       -0.000000000211 Rises=F Damp=F
 DIIS: error= 7.55D-08 at cycle  18 NSaved=  18.
 NSaved=18 IEnMin=18 EnMin= -4069.81217955944     IErMin=18 ErrMin= 7.55D-08
 ErrMax= 7.55D-08  0.00D+00 EMaxC= 1.00D-01 BMatC= 7.40D-12 BMatP= 2.37D-11
 IDIUse=1 WtCom= 1.00D+00 WtEn= 0.00D+00
 Coeff-Com:  0.598D-07-0.475D-06 0.275D-05 0.845D-05 0.691D-04 0.127D-03
 Coeff-Com:  0.822D-04-0.538D-03-0.103D-02-0.325D-02 0.448D-02 0.173D-01
 Coeff-Com:  0.491D-02-0.472D-01-0.155D+00-0.656D-01 0.365D+00 0.881D+00
 Coeff:      0.598D-07-0.475D-06 0.275D-05 0.845D-05 0.691D-04 0.127D-03
 Coeff:      0.822D-04-0.538D-03-0.103D-02-0.325D-02 0.448D-02 0.173D-01
 Coeff:      0.491D-02-0.472D-01-0.155D+00-0.656D-01 0.365D+00 0.881D+00
 Gap=     0.120 Goal=   None    Shift=    0.000
 RMSDP=1.06D-08 MaxDP=8.66D-07 DE=-2.11D-10 OVMax= 6.73D-06

 Cycle  19  Pass 1  IDiag  1:
 RMSU=  3.20D-09    CP:  9.64D-01  1.50D+00  6.90D-01  6.35D-01  9.18D-01
                    CP:  9.50D-01  1.21D+00  1.29D+00  1.68D+00  2.12D+00
                    CP:  2.03D+00  2.06D+00  1.44D+00  1.39D+00  1.67D+00
                    CP:  1.81D+00  1.78D+00  1.21D+00
 E= -4069.81217955953     Delta-E=       -0.000000000095 Rises=F Damp=F
 DIIS: error= 3.34D-08 at cycle  19 NSaved=  19.
 NSaved=19 IEnMin=19 EnMin= -4069.81217955953     IErMin=19 ErrMin= 3.34D-08
 ErrMax= 3.34D-08  0.00D+00 EMaxC= 1.00D-01 BMatC= 2.87D-12 BMatP= 7.40D-12
 IDIUse=1 WtCom= 1.00D+00 WtEn= 0.00D+00
 Coeff-Com:  0.345D-05-0.700D-05-0.114D-04-0.139D-04 0.183D-04 0.164D-03
 Coeff-Com:  0.647D-03 0.857D-03-0.110D-02-0.732D-02-0.489D-02 0.175D-01
 Coeff-Com:  0.255D-01 0.441D-02-0.952D-01-0.196D+00-0.910D-01 0.554D+00
 Coeff-Com:  0.793D+00
 Coeff:      0.345D-05-0.700D-05-0.114D-04-0.139D-04 0.183D-04 0.164D-03
 Coeff:      0.647D-03 0.857D-03-0.110D-02-0.732D-02-0.489D-02 0.175D-01
 Coeff:      0.255D-01 0.441D-02-0.952D-01-0.196D+00-0.910D-01 0.554D+00
 Coeff:      0.793D+00
 Gap=     0.120 Goal=   None    Shift=    0.000
 RMSDP=7.31D-09 MaxDP=4.07D-07 DE=-9.46D-11 OVMax= 4.14D-06

 SCF Done:  E(RCAM-B3LYP) =  -4069.81217956     A.U. after   19 cycles
            NFock= 19  Conv=0.73D-08     -V/T= 2.0102
 KE= 4.028799402729D+03 PE=-4.043390286248D+04 EE= 1.685888767251D+04
 Leave Link  502 at Fri Sep  3 19:09:49 2021, MaxMem= 23488102400 cpu:           14654.2 elap:             635.4
 (Enter /sw/apps/gaussian-16.0/g16/l801.exe)
 DoSCS=F DFT=T ScalE2(SS,OS)=  1.000000  1.000000
 ExpMin= 3.36D-02 ExpMax= 4.95D+03 ExpMxC= 7.45D+02 IAcc=3 IRadAn=         5 AccDes= 0.00D+00
 HarFok:  IExCor=  205 AccDes= 0.00D+00 IRadAn=         5 IDoV=-2 UseB2=F ITyADJ=14
 ICtDFT= 12500011 ScaDFX=  1.000000  1.000000  1.000000  1.000000
 GSVD:  LWork=       -9588 too small for GESVD, short by       45590 words or       45590 for optimal perf.
 Largest valence mixing into a core orbital is  2.03D-04
 Largest core mixing into a valence orbital is  5.22D-05
 Range of M.O.s used for correlation:    95  1572
 NBasis=  1572 NAE=   312 NBE=   312 NFC=    94 NFV=     0
 NROrb=   1478 NOA=   218 NOB=   218 NVA=  1260 NVB=  1260
 Leave Link  801 at Fri Sep  3 19:09:50 2021, MaxMem= 23488102400 cpu:               7.7 elap:               0.3
 (Enter /sw/apps/gaussian-16.0/g16/l914.exe)
 RHF ground state
 Two-electron integrals replicated using symmetry.
 MDV= 23488102400 DFT=T DoStab=F Mixed=T DoRPA=T DoScal=F NonHer=T
 Making orbital integer symmetry assigments:
 Orbital symmetries:
       Occupied  (A) (A) (A) (A) (A) (A) (A) (A) (A) (A) (A) (A)
                 (A) (A) (A) (A) (A) (A) (A) (A) (A) (A) (A) (A)
                 (A) (A) (A) (A) (A) (A) (A) (A) (A) (A) (A) (A)
                 (A) (A) (A) (A) (A) (A) (A) (A) (A) (A) (A) (A)
                 (A) (A) (A) (A) (A) (A) (A) (A) (A) (A) (A) (A)
                 (A) (A) (A) (A) (A) (A) (A) (A) (A) (A) (A) (A)
                 (A) (A) (A) (A) (A) (A) (A) (A) (A) (A) (A) (A)
                 (A) (A) (A) (A) (A) (A) (A) (A) (A) (A) (A) (A)
                 (A) (A) (A) (A) (A) (A) (A) (A) (A) (A) (A) (A)
                 (A) (A) (A) (A) (A) (A) (A) (A) (A) (A) (A) (A)
                 (A) (A) (A) (A) (A) (A) (A) (A) (A) (A) (A) (A)
                 (A) (A) (A) (A) (A) (A) (A) (A) (A) (A) (A) (A)
                 (A) (A) (A) (A) (A) (A) (A) (A) (A) (A) (A) (A)
                 (A) (A) (A) (A) (A) (A) (A) (A) (A) (A) (A) (A)
                 (A) (A) (A) (A) (A) (A) (A) (A) (A) (A) (A) (A)
                 (A) (A) (A) (A) (A) (A) (A) (A) (A) (A) (A) (A)
                 (A) (A) (A) (A) (A) (A) (A) (A) (A) (A) (A) (A)
                 (A) (A) (A) (A) (A) (A) (A) (A) (A) (A) (A) (A)
                 (A) (A) (A) (A) (A) (A) (A) (A) (A) (A) (A) (A)
                 (A) (A) (A) (A) (A) (A) (A) (A) (A) (A) (A) (A)
                 (A) (A) (A) (A) (A) (A) (A) (A) (A) (A) (A) (A)
                 (A) (A) (A) (A) (A) (A) (A) (A) (A) (A) (A) (A)
                 (A) (A) (A) (A) (A) (A) (A) (A) (A) (A) (A) (A)
                 (A) (A) (A) (A) (A) (A) (A) (A) (A) (A) (A) (A)
                 (A) (A) (A) (A) (A) (A) (A) (A) (A) (A) (A) (A)
                 (A) (A) (A) (A) (A) (A) (A) (A) (A) (A) (A) (A)
       Virtual   (A) (A) (A) (A) (A) (A) (A) (A) (A) (A) (A) (A)
                 (A) (A) (A) (A) (A) (A) (A) (A) (A) (A) (A) (A)
                 (A) (A) (A) (A) (A) (A) (A) (A) (A) (A) (A) (A)
                 (A) (A) (A) (A) (A) (A) (A) (A) (A) (A) (A) (A)
                 (A) (A) (A) (A) (A) (A) (A) (A) (A) (A) (A) (A)
                 (A) (A) (A) (A) (A) (A) (A) (A) (A) (A) (A) (A)
                 (A) (A) (A) (A) (A) (A) (A) (A) (A) (A) (A) (A)
                 (A) (A) (A) (A) (A) (A) (A) (A) (A) (A) (A) (A)
                 (A) (A) (A) (A) (A) (A) (A) (A) (A) (A) (A) (A)
                 (A) (A) (A) (A) (A) (A) (A) (A) (A) (A) (A) (A)
                 (A) (A) (A) (A) (A) (A) (A) (A) (A) (A) (A) (A)
                 (A) (A) (A) (A) (A) (A) (A) (A) (A) (A) (A) (A)
                 (A) (A) (A) (A) (A) (A) (A) (A) (A) (A) (A) (A)
                 (A) (A) (A) (A) (A) (A) (A) (A) (A) (A) (A) (A)
                 (A) (A) (A) (A) (A) (A) (A) (A) (A) (A) (A) (A)
                 (A) (A) (A) (A) (A) (A) (A) (A) (A) (A) (A) (A)
                 (A) (A) (A) (A) (A) (A) (A) (A) (A) (A) (A) (A)
                 (A) (A) (A) (A) (A) (A) (A) (A) (A) (A) (A) (A)
                 (A) (A) (A) (A) (A) (A) (A) (A) (A) (A) (A) (A)
                 (A) (A) (A) (A) (A) (A) (A) (A) (A) (A) (A) (A)
                 (A) (A) (A) (A) (A) (A) (A) (A) (A) (A) (A) (A)
                 (A) (A) (A) (A) (A) (A) (A) (A) (A) (A) (A) (A)
                 (A) (A) (A) (A) (A) (A) (A) (A) (A) (A) (A) (A)
                 (A) (A) (A) (A) (A) (A) (A) (A) (A) (A) (A) (A)
                 (A) (A) (A) (A) (A) (A) (A) (A) (A) (A) (A) (A)
                 (A) (A) (A) (A) (A) (A) (A) (A) (A) (A) (A) (A)
                 (A) (A) (A) (A) (A) (A) (A) (A) (A) (A) (A) (A)
                 (A) (A) (A) (A) (A) (A) (A) (A) (A) (A) (A) (A)
                 (A) (A) (A) (A) (A) (A) (A) (A) (A) (A) (A) (A)
                 (A) (A) (A) (A) (A) (A) (A) (A) (A) (A) (A) (A)
                 (A) (A) (A) (A) (A) (A) (A) (A) (A) (A) (A) (A)
                 (A) (A) (A) (A) (A) (A) (A) (A) (A) (A) (A) (A)
                 (A) (A) (A) (A) (A) (A) (A) (A) (A) (A) (A) (A)
                 (A) (A) (A) (A) (A) (A) (A) (A) (A) (A) (A) (A)
                 (A) (A) (A) (A) (A) (A) (A) (A) (A) (A) (A) (A)
                 (A) (A) (A) (A) (A) (A) (A) (A) (A) (A) (A) (A)
                 (A) (A) (A) (A) (A) (A) (A) (A) (A) (A) (A) (A)
                 (A) (A) (A) (A) (A) (A) (A) (A) (A) (A) (A) (A)
                 (A) (A) (A) (A) (A) (A) (A) (A) (A) (A) (A) (A)
                 (A) (A) (A) (A) (A) (A) (A) (A) (A) (A) (A) (A)
                 (A) (A) (A) (A) (A) (A) (A) (A) (A) (A) (A) (A)
                 (A) (A) (A) (A) (A) (A) (A) (A) (A) (A) (A) (A)
                 (A) (A) (A) (A) (A) (A) (A) (A) (A) (A) (A) (A)
                 (A) (A) (A) (A) (A) (A) (A) (A) (A) (A) (A) (A)
                 (A) (A) (A) (A) (A) (A) (A) (A) (A) (A) (A) (A)
                 (A) (A) (A) (A) (A) (A) (A) (A) (A) (A) (A) (A)
                 (A) (A) (A) (A) (A) (A) (A) (A) (A) (A) (A) (A)
                 (A) (A) (A) (A) (A) (A) (A) (A) (A) (A) (A) (A)
                 (A) (A) (A) (A) (A) (A) (A) (A) (A) (A) (A) (A)
                 (A) (A) (A) (A) (A) (A) (A) (A) (A) (A) (A) (A)
                 (A) (A) (A) (A) (A) (A) (A) (A) (A) (A) (A) (A)
                 (A) (A) (A) (A) (A) (A) (A) (A) (A) (A) (A) (A)
                 (A) (A) (A) (A) (A) (A) (A) (A) (A) (A) (A) (A)
                 (A) (A) (A) (A) (A) (A) (A) (A) (A) (A) (A) (A)
                 (A) (A) (A) (A) (A) (A) (A) (A) (A) (A) (A) (A)
                 (A) (A) (A) (A) (A) (A) (A) (A) (A) (A) (A) (A)
                 (A) (A) (A) (A) (A) (A) (A) (A) (A) (A) (A) (A)
                 (A) (A) (A) (A) (A) (A) (A) (A) (A) (A) (A) (A)
                 (A) (A) (A) (A) (A) (A) (A) (A) (A) (A) (A) (A)
                 (A) (A) (A) (A) (A) (A) (A) (A) (A) (A) (A) (A)
                 (A) (A) (A) (A) (A) (A) (A) (A) (A) (A) (A) (A)
                 (A) (A) (A) (A) (A) (A) (A) (A) (A) (A) (A) (A)
                 (A) (A) (A) (A) (A) (A) (A) (A) (A) (A) (A) (A)
                 (A) (A) (A) (A) (A) (A) (A) (A) (A) (A) (A) (A)
                 (A) (A) (A) (A) (A) (A) (A) (A) (A) (A) (A) (A)
                 (A) (A) (A) (A) (A) (A) (A) (A) (A) (A) (A) (A)
                 (A) (A) (A) (A) (A) (A) (A) (A) (A) (A) (A) (A)
                 (A) (A) (A) (A) (A) (A) (A) (A) (A) (A) (A) (A)
                 (A) (A) (A) (A) (A) (A) (A) (A) (A) (A) (A) (A)
                 (A) (A) (A) (A) (A) (A) (A) (A) (A) (A) (A) (A)
                 (A) (A) (A) (A) (A) (A) (A) (A) (A) (A) (A) (A)
                 (A) (A) (A) (A) (A) (A) (A) (A) (A) (A) (A) (A)
                 (A) (A) (A) (A) (A) (A) (A) (A) (A) (A) (A) (A)
                 (A) (A) (A) (A) (A) (A) (A) (A) (A) (A) (A) (A)
                 (A) (A) (A) (A) (A) (A) (A) (A) (A) (A) (A) (A)
                 (A) (A) (A) (A) (A) (A) (A) (A) (A) (A) (A) (A)
                 (A) (A) (A) (A) (A) (A) (A) (A) (A) (A) (A) (A)
                 (A) (A) (A) (A) (A) (A) (A) (A) (A) (A) (A) (A)
                 (A) (A) (A) (A) (A) (A) (A) (A) (A) (A) (A) (A)
                 (A) (A) (A) (A) (A) (A) (A) (A) (A) (A) (A) (A)
                 (A) (A) (A) (A) (A) (A) (A) (A) (A) (A) (A) (A)
                 (A) (A) (A) (A) (A) (A) (A) (A) (A) (A) (A) (A)
                 (A) (A) (A) (A) (A) (A) (A) (A) (A) (A) (A) (A)
                 (A) (A) (A) (A) (A) (A) (A) (A) (A) (A) (A) (A)
                 (A) (A) (A) (A) (A) (A) (A) (A) (A) (A) (A) (A)
                 (A) (A) (A) (A) (A) (A) (A) (A) (A) (A) (A) (A)
                 (A) (A) (A) (A) (A) (A) (A) (A) (A) (A) (A) (A)
                 (A) (A) (A) (A) (A) (A) (A) (A) (A) (A) (A) (A)
                 (A) (A) (A) (A) (A) (A) (A) (A) (A) (A) (A) (A)
                 (A) (A) (A) (A) (A) (A) (A) (A) (A) (A) (A) (A)
                 (A) (A) (A) (A) (A) (A) (A) (A) (A) (A) (A) (A)
                 (A) (A) (A) (A) (A) (A) (A) (A) (A) (A) (A) (A)
                 (A) (A) (A) (A) (A) (A) (A) (A) (A) (A) (A) (A)
                 (A) (A) (A) (A) (A) (A) (A) (A) (A) (A) (A) (A)
                 (A) (A) (A) (A) (A) (A) (A) (A) (A) (A) (A) (A)
                 (A) (A) (A) (A) (A) (A) (A) (A) (A) (A) (A) (A)
                 (A) (A) (A) (A) (A) (A) (A) (A) (A) (A) (A) (A)
                 (A) (A) (A) (A) (A) (A) (A) (A) (A) (A) (A) (A)
                 (A) (A) (A) (A) (A) (A) (A) (A) (A) (A) (A) (A)
                 (A) (A) (A) (A) (A) (A) (A) (A) (A) (A) (A) (A)
                 (A) (A) (A) (A) (A) (A) (A) (A) (A) (A) (A) (A)
                 (A) (A) (A) (A) (A) (A) (A) (A) (A) (A) (A) (A)
                 (A) (A) (A) (A) (A) (A) (A) (A) (A) (A) (A) (A)
                 (A) (A) (A) (A) (A) (A) (A) (A) (A) (A) (A) (A)
                 (A) (A) (A) (A) (A) (A) (A) (A) (A) (A) (A) (A)
    20 initial guesses have been made.
 Convergence on wavefunction:    0.001000000000000
 Davidson Disk Diagonalization:  ConvIn= 1.00D-03 SkipCon=T Conv= 1.00D-03.
 Max sub-space:  2000 roots to seek:    20 dimension of matrix:       549360
 Iteration     1 Dimension    20 NMult     0 NNew     20
 CISAX will form    20 AO SS matrices at one time.
 NMat=    20 NSing=    20 JSym2X= 0.
 FoFJK:  IHMeth= 1 ICntrl=       0 DoSepK=T KAlg= 0 I1Cent=           0 FoldK=F
 IRaf=         1 NMat=      40 IRICut=       1 DoRegI=T DoRafI=F ISym2E= 0 IDoP0=3 IntGTp=3.
 FoFCou: FMM=T IPFlag=           0 FMFlag=      100000 FMFlg1=        2001
         NFxFlg=           0 DoJE=F BraDBF=F KetDBF=F FulRan=T
         wScrn=  0.000000 ICntrl=       500 IOpCl=  0 I1Cent=           0 NGrid=           0
         NMat0=   20 NMatS0=     20 NMatT0=    0 NMatD0=   20 NMtDS0=    0 NMtDT0=    0
 Symmetry not used in FoFCou.
 FMM levels:  10  Number of levels for PrismC:   9
 New state      2 was old state      4
 New state      3 was old state      7
 New state      4 was old state      6
 New state      5 was old state      2
 Excitation Energies [eV] at current iteration:
 Root      1 :     2.342118943436594
 Root      2 :     2.539536869750589
 Root      3 :     2.602438987291742
 Root      4 :     2.619382176483236
 Root      5 :     2.646184685485300
 Root      6 :     2.735638469987374
 Root      7 :     3.128013149640459
 Root      8 :     3.333497930896479
 Root      9 :     3.635414605116895
 Root     10 :     3.675214936329599
 Root     11 :     3.726317817091973
 Root     12 :     3.757470285731939
 Root     13 :     4.244935277529366
 Root     14 :     4.270214236770296
 Root     15 :     4.343034224296857
 Root     16 :     4.464236494050546
 Root     17 :     4.571380551528633
 Root     18 :     4.603668638216012
 Root     19 :     4.732390567133051
 Root     20 :     4.851051923417216
 Iteration     2 Dimension    30 NMult    20 NNew     10
 CISAX will form    10 AO SS matrices at one time.
 NMat=    10 NSing=    10 JSym2X= 0.
 New state      1 was old state      5
 Root      1 not converged, maximum delta is    0.314939029740597
 New state      2 was old state      4
 Root      2 not converged, maximum delta is    0.159627275651380
 Root      3 not converged, maximum delta is    0.268789735148938
 New state      4 was old state      1
 Root      4 not converged, maximum delta is    0.003337236893942
 New state      5 was old state      2
 Root      5 not converged, maximum delta is    0.006190878746536
 Excitation Energies [eV] at current iteration:
 Root      1 :     1.778323416966067   Change is   -0.867861268519233
 Root      2 :     2.218659203220240   Change is   -0.400722973262996
 Root      3 :     2.241350453942028   Change is   -0.361088533349714
 Root      4 :     2.341318095925633   Change is   -0.000800847510961
 Root      5 :     2.538521836798178   Change is   -0.001015032952411
 Iteration     3 Dimension    40 NMult    30 NNew     10
 CISAX will form    10 AO SS matrices at one time.
 NMat=    10 NSing=    10 JSym2X= 0.
 Root      1 not converged, maximum delta is    0.052481513292610
 Root      2 not converged, maximum delta is    0.203382935406782
 Root      3 not converged, maximum delta is    0.120529623661239
 Root      4 not converged, maximum delta is    0.004181667819707
 No map to state      5
 Excitation Energies [eV] at current iteration:
 Root      1 :     1.673665598523416   Change is   -0.104657818442651
 Root      2 :     2.090908989804435   Change is   -0.127750213415805
 Root      3 :     2.201258513763548   Change is   -0.040091940178480
 Root      4 :     2.341309722685857   Change is   -0.000008373239776
 Root      5 :     2.376414658902575
 Iteration     4 Dimension    50 NMult    40 NNew     10
 CISAX will form    10 AO SS matrices at one time.
 NMat=    10 NSing=    10 JSym2X= 0.
 Root      1 not converged, maximum delta is    0.009987586648200
 Root      2 not converged, maximum delta is    0.428712486461722
 Root      3 not converged, maximum delta is    0.545738278308702
 New state      4 was old state      5
 Root      4 not converged, maximum delta is    0.489946908413639
 New state      5 was old state      4
 Root      5 not converged, maximum delta is    0.004473584580584
 Excitation Energies [eV] at current iteration:
 Root      1 :     1.657085520213264   Change is   -0.016580078310151
 Root      2 :     1.754480940298313   Change is   -0.336428049506123
 Root      3 :     2.189906972979771   Change is   -0.011351540783777
 Root      4 :     2.196592613037431   Change is   -0.179822045865144
 Root      5 :     2.341312529291183   Change is    0.000002806605326
 Iteration     5 Dimension    60 NMult    50 NNew     10
 CISAX will form    10 AO SS matrices at one time.
 NMat=    10 NSing=    10 JSym2X= 0.
 Root      1 not converged, maximum delta is    0.003061970480581
 Root      2 not converged, maximum delta is    0.025691156222655
 Root      3 not converged, maximum delta is    0.122332063511413
 Root      4 not converged, maximum delta is    0.122292480314678
 Root      5 has converged.
 Excitation Energies [eV] at current iteration:
 Root      1 :     1.655370611609017   Change is   -0.001714908604247
 Root      2 :     1.704216395665455   Change is   -0.050264544632858
 Root      3 :     2.186002445767894   Change is   -0.003904527211877
 Root      4 :     2.194653190271798   Change is   -0.001939422765634
 Root      5 :     2.341312469436720   Change is   -0.000000059854463
 Iteration     6 Dimension    68 NMult    60 NNew      8
 CISAX will form     8 AO SS matrices at one time.
 NMat=     8 NSing=     8 JSym2X= 0.
 Root      1 has converged.
 Root      2 not converged, maximum delta is    0.006982935631085
 Root      3 not converged, maximum delta is    0.009878352157119
 Root      4 not converged, maximum delta is    0.010015008087432
 Root      5 has converged.
 Excitation Energies [eV] at current iteration:
 Root      1 :     1.655129059195028   Change is   -0.000241552413989
 Root      2 :     1.696879213862062   Change is   -0.007337181803393
 Root      3 :     2.185407255981443   Change is   -0.000595189786450
 Root      4 :     2.194484572939634   Change is   -0.000168617332163
 Root      5 :     2.341312466755729   Change is   -0.000000002680991
 Iteration     7 Dimension    74 NMult    68 NNew      6
 CISAX will form     6 AO SS matrices at one time.
 NMat=     6 NSing=     6 JSym2X= 0.
 Root      1 has converged.
 Root      2 not converged, maximum delta is    0.001687682893718
 Root      3 not converged, maximum delta is    0.001260937568940
 Root      4 not converged, maximum delta is    0.001284234859402
 Root      5 has converged.
 Excitation Energies [eV] at current iteration:
[...]
 Alpha virt. eigenvalues --    1.83661   1.83735   1.83968   1.84097   1.84350
 Alpha virt. eigenvalues --    1.84404   1.84657   1.84742   1.84902   1.85070
 Alpha virt. eigenvalues --    1.85236   1.85247   1.85437   1.85549   1.85649
 Alpha virt. eigenvalues --    1.85866   1.86103   1.86284   1.86494   1.86544
 Alpha virt. eigenvalues --    1.86729   1.86816   1.86943   1.87009   1.87188
 Alpha virt. eigenvalues --    1.87410   1.87601   1.87669   1.87798   1.87905
 Alpha virt. eigenvalues --    1.87976   1.88142   1.88353   1.88472   1.88765
 Alpha virt. eigenvalues --    1.88772   1.89052   1.89132   1.89280   1.89572
 Alpha virt. eigenvalues --    1.89680   1.89896   1.90053   1.90067   1.90394
 Alpha virt. eigenvalues --    1.90681   1.91063   1.91294   1.91381   1.91526
 Alpha virt. eigenvalues --    1.91783   1.92086   1.92360   1.92583   1.92803
 Alpha virt. eigenvalues --    1.92912   1.93265   1.93311   1.93629   1.94212
 Alpha virt. eigenvalues --    1.94426   1.94631   1.94961   1.95407   1.95642
 Alpha virt. eigenvalues --    1.95690   1.95917   1.95979   1.96061   1.96198
 Alpha virt. eigenvalues --    1.96323   1.96534   1.96665   1.96836   1.97133
 Alpha virt. eigenvalues --    1.97374   1.97648   1.97748   1.97940   1.98099
 Alpha virt. eigenvalues --    1.98343   1.98486   1.98605   1.99074   1.99249
 Alpha virt. eigenvalues --    1.99755   2.00188   2.00583   2.00883   2.00971
 Alpha virt. eigenvalues --    2.01272   2.01422   2.01600   2.01620   2.01639
 Alpha virt. eigenvalues --    2.01783   2.02018   2.02723   2.02856   2.03183
 Alpha virt. eigenvalues --    2.03234   2.03327   2.03406   2.03563   2.03696
 Alpha virt. eigenvalues --    2.03967   2.04176   2.04887   2.05146   2.05462
 Alpha virt. eigenvalues --    2.05801   2.06011   2.06447   2.06822   2.07096
 Alpha virt. eigenvalues --    2.07199   2.07498   2.08534   2.08713   2.08910
 Alpha virt. eigenvalues --    2.09196   2.09522   2.09786   2.10712   2.11102
 Alpha virt. eigenvalues --    2.11133   2.11490   2.11574   2.11651   2.11694
 Alpha virt. eigenvalues --    2.12087   2.12399   2.12630   2.12735   2.12762
 Alpha virt. eigenvalues --    2.12983   2.13108   2.13719   2.13855   2.14079
 Alpha virt. eigenvalues --    2.14365   2.15262   2.15569   2.15849   2.16280
 Alpha virt. eigenvalues --    2.16446   2.16650   2.16780   2.17347   2.17364
 Alpha virt. eigenvalues --    2.17642   2.17764   2.17974   2.18105   2.18180
 Alpha virt. eigenvalues --    2.18250   2.18792   2.18848   2.19385   2.19567
 Alpha virt. eigenvalues --    2.19968   2.20026   2.20113   2.20404   2.20630
 Alpha virt. eigenvalues --    2.21152   2.21274   2.21601   2.21643   2.21942
 Alpha virt. eigenvalues --    2.22023   2.22632   2.22885   2.23264   2.23469
 Alpha virt. eigenvalues --    2.24319   2.24541   2.24902   2.25152   2.26218
 Alpha virt. eigenvalues --    2.26603   2.26715   2.27017   2.27163   2.27368
 Alpha virt. eigenvalues --    2.28073   2.28571   2.29198   2.29618   2.29660
 Alpha virt. eigenvalues --    2.30051   2.30393   2.30817   2.31012   2.31036
 Alpha virt. eigenvalues --    2.31096   2.31339   2.32061   2.32395   2.33062
 Alpha virt. eigenvalues --    2.33384   2.33413   2.33602   2.34086   2.34275
 Alpha virt. eigenvalues --    2.35288   2.35425   2.35728   2.36202   2.36293
 Alpha virt. eigenvalues --    2.36523   2.36544   2.36571   2.37616   2.37788
 Alpha virt. eigenvalues --    2.38194   2.38553   2.38803   2.38963   2.39536
 Alpha virt. eigenvalues --    2.39826   2.40186   2.40356   2.40419   2.40992
 Alpha virt. eigenvalues --    2.41229   2.41374   2.41682   2.41846   2.41951
 Alpha virt. eigenvalues --    2.42287   2.42909   2.42946   2.43148   2.43446
 Alpha virt. eigenvalues --    2.44097   2.44172   2.44657   2.44834   2.44980
 Alpha virt. eigenvalues --    2.45201   2.45463   2.45741   2.46221   2.46387
 Alpha virt. eigenvalues --    2.46474   2.46683   2.46715   2.46969   2.47171
 Alpha virt. eigenvalues --    2.47496   2.47644   2.48019   2.49247   2.49527
 Alpha virt. eigenvalues --    2.49979   2.50011   2.50484   2.50636   2.51047
 Alpha virt. eigenvalues --    2.51426   2.51795   2.51828   2.52384   2.52534
 Alpha virt. eigenvalues --    2.52742   2.53395   2.53850   2.54086   2.54133
 Alpha virt. eigenvalues --    2.54427   2.54720   2.54928   2.55443   2.55819
 Alpha virt. eigenvalues --    2.57790   2.58245   2.58575   2.59083   2.60120
 Alpha virt. eigenvalues --    2.60452   2.60560   2.61114   2.61641   2.61994
 Alpha virt. eigenvalues --    2.62469   2.62593   2.62874   2.63260   2.63867
 Alpha virt. eigenvalues --    2.64174   2.64402   2.64477   2.65003   2.65220
 Alpha virt. eigenvalues --    2.65730   2.66003   2.66699   2.66837   2.66941
 Alpha virt. eigenvalues --    2.67244   2.67833   2.68121   2.68781   2.68939
 Alpha virt. eigenvalues --    2.68960   2.69165   2.69302   2.69738   2.69920
 Alpha virt. eigenvalues --    2.70262   2.70897   2.71208   2.71964   2.72019
 Alpha virt. eigenvalues --    2.72557   2.72606   2.72730   2.72874   2.73210
 Alpha virt. eigenvalues --    2.73388   2.73413   2.73562   2.74420   2.74638
 Alpha virt. eigenvalues --    2.74887   2.75194   2.76517   2.76633   2.77129
 Alpha virt. eigenvalues --    2.77205   2.77390   2.77775   2.78137   2.78453
 Alpha virt. eigenvalues --    2.78643   2.78804   2.79059   2.79296   2.80264
 Alpha virt. eigenvalues --    2.80443   2.80498   2.80823   2.80997   2.81299
 Alpha virt. eigenvalues --    2.81845   2.82134   2.82254   2.82456   2.83647
 Alpha virt. eigenvalues --    2.83690   2.84018   2.84026   2.84447   2.84656
 Alpha virt. eigenvalues --    2.84807   2.84976   2.85594   2.85825   2.86749
 Alpha virt. eigenvalues --    2.86906   2.87261   2.87510   2.88086   2.88401
 Alpha virt. eigenvalues --    2.88404   2.88724   2.88847   2.89001   2.90426
 Alpha virt. eigenvalues --    2.90763   2.91111   2.91177   2.93081   2.93472
 Alpha virt. eigenvalues --    2.93900   2.94130   2.94488   2.94678   2.95322
 Alpha virt. eigenvalues --    2.95602   2.95913   2.96105   2.96358   2.96490
 Alpha virt. eigenvalues --    2.96944   2.97092   2.97752   2.98135   2.98182
 Alpha virt. eigenvalues --    2.98247   2.98483   2.98495   2.98764   2.98804
 Alpha virt. eigenvalues --    2.98950   2.99067   2.99543   2.99915   2.99945
 Alpha virt. eigenvalues --    3.00115   3.00157   3.00383   3.00528   3.01169
 Alpha virt. eigenvalues --    3.01902   3.01965   3.02007   3.02267   3.02643
 Alpha virt. eigenvalues --    3.02909   3.02960   3.03269   3.03492   3.03891
 Alpha virt. eigenvalues --    3.04079   3.04287   3.04357   3.04499   3.04545
 Alpha virt. eigenvalues --    3.04870   3.05243   3.05499   3.06060   3.06257
 Alpha virt. eigenvalues --    3.06758   3.07125   3.08071   3.08080   3.09353
 Alpha virt. eigenvalues --    3.09446   3.09656   3.10386   3.10554   3.10903
 Alpha virt. eigenvalues --    3.11288   3.11514   3.11883   3.11923   3.12138
 Alpha virt. eigenvalues --    3.12440   3.13220   3.13560   3.13790   3.13818
 Alpha virt. eigenvalues --    3.13990   3.14557   3.15866   3.16029   3.17158
 Alpha virt. eigenvalues --    3.17653   3.18012   3.18025   3.19049   3.19177
 Alpha virt. eigenvalues --    3.22187   3.22691   3.23849   3.24550   3.24581
 Alpha virt. eigenvalues --    3.25317   3.26408   3.26799   3.27527   3.27533
 Alpha virt. eigenvalues --    3.28976   3.29305   3.31433   3.31519   3.33330
 Alpha virt. eigenvalues --    3.33334   3.40323   3.40510   3.42755   3.42968
 Alpha virt. eigenvalues --    3.48547   3.48831   3.49940   3.50429   3.50984
 Alpha virt. eigenvalues --    3.51397   3.56470   3.57145   3.59020   3.59460
 Alpha virt. eigenvalues --    3.62650   3.62737   3.66141   3.66257   3.67065
 Alpha virt. eigenvalues --    3.67618   3.73141   3.74115   3.75923   3.76783
          Condensed to atoms (all electrons):
 Mulliken charges:
               1
     1  Mg   0.838984
     2  C   -0.002896
     3  C   -0.094132
     4  C   -0.045442
     5  C   -0.064479
     6  N   -0.256912
     7  C   -0.052263
     8  C   -0.014113
     9  C   -0.087058
    10  C    0.046739
    11  C    0.104744
    12  C    0.053438
    13  C   -0.072482
    14  H    0.037839
    15  N   -0.433298
    16  C    0.168841
    17  C   -0.177067
    18  C   -0.003580
    19  C    0.149133
    20  C    0.110165
    21  C    0.012666
    22  O   -0.248369
    23  C    0.062383
    24  N   -0.341156
    25  C    0.041332
    26  C   -0.028625
    27  C   -0.023905
    28  C    0.074692
    29  C    0.075939
    30  C    0.035156
    31  C   -0.006900
    32  N   -0.310105
    33  C    0.079767
    34  C   -0.171406
    35  C    0.007802
    36  C    0.082363
    37  C    0.127709
    38  C    0.045012
    39  O   -0.189558
    40  C   -0.004916
    41  C    0.212658
    42  O   -0.258105
    43  O   -0.304491
    44  C    0.158077
    45  H   -0.017246
    46  H   -0.015975
    47  H   -0.042203
    48  H    0.000894
    49  H   -0.003703
    50  H    0.025499
    51  H    0.016451
    52  H    0.016989
    53  H    0.011383
    54  H    0.044313
    55  H    0.017572
    56  H    0.018147
    57  H    0.006120
    58  H    0.027344
    59  H    0.039321
    60  H    0.037455
    61  H    0.036500
    62  H    0.030833
    63  H    0.017716
    64  H    0.009618
    65  H    0.024172
    66  H    0.012602
    67  H    0.004811
    68  H    0.007676
    69  H    0.003573
    70  H    0.011574
    71  H    0.016832
    72  H    0.028951
    73  H    0.045607
    74  H    0.008475
    75  H    0.046505
    76  H    0.035436
    77  H    0.042750
    78  H    0.047458
    79  H    0.052587
    80  Mg   0.837636
    81  C   -0.016700
    82  C   -0.086053
    83  C   -0.044854
    84  C   -0.065488
    85  N   -0.254509
    86  C   -0.050157
    87  C   -0.014829
    88  C   -0.091107
    89  C    0.044837
    90  C    0.112769
    91  C    0.062658
    92  C   -0.077510
    93  H    0.034121
    94  N   -0.424102
    95  C    0.162488
    96  C   -0.170302
    97  C   -0.007449
    98  C    0.153201
    99  C    0.097917
   100  C    0.016273
   101  O   -0.254391
   102  C    0.060811
   103  N   -0.349986
   104  C    0.037522
   105  C   -0.019673
   106  C   -0.034372
   107  C    0.088585
   108  C    0.074050
   109  C    0.035043
   110  C   -0.007522
   111  N   -0.323931
   112  C    0.077910
   113  C   -0.163402
   114  C    0.002288
   115  C    0.095700
   116  C    0.131250
   117  C    0.042309
   118  O   -0.188708
   119  C    0.000887
   120  C    0.211187
   121  O   -0.251151
   122  O   -0.305852
   123  C    0.152149
   124  H   -0.015684
   125  H   -0.016313
   126  H   -0.041753
   127  H   -0.001906
   128  H   -0.004111
   129  H    0.021968
   130  H    0.018216
   131  H    0.016612
   132  H    0.014046
   133  H    0.037322
   134  H    0.020056
   135  H    0.019891
   136  H    0.010285
   137  H    0.031290
   138  H    0.038551
   139  H    0.040233
   140  H    0.035138
   141  H    0.033494
   142  H    0.013966
   143  H    0.010510
   144  H    0.023897
   145  H    0.012904
   146  H    0.003158
   147  H    0.005043
   148  H    0.003064
   149  H    0.010667
   150  H    0.017475
   151  H    0.030859
   152  H    0.045362
   153  H    0.007290
   154  H    0.047865
   155  H    0.034668
   156  H    0.043347
   157  H    0.049380
   158  H    0.053449
 Sum of Mulliken charges =  -0.00000
 Mulliken charges with hydrogens summed into heavy atoms:
               1
     1  Mg   0.838984
     2  C   -0.002896
     3  C   -0.111378
     4  C   -0.061417
     5  C   -0.106682
     6  N   -0.256912
     7  C   -0.052263
     8  C   -0.013219
     9  C   -0.090761
    10  C    0.046739
    11  C    0.163683
    12  C    0.109134
    13  C    0.001075
    15  N   -0.433298
    16  C    0.168841
    17  C   -0.177067
    18  C   -0.003580
    19  C    0.149133
    20  C    0.182950
    21  C    0.012666
    22  O   -0.248369
    23  C    0.167171
    24  N   -0.341156
    25  C    0.041332
    26  C   -0.010909
    27  C   -0.014287
    28  C    0.074692
    29  C    0.117524
    30  C    0.046406
    31  C    0.050456
    32  N   -0.310105
    33  C    0.079767
    34  C   -0.171406
    35  C    0.007802
    36  C    0.082363
    37  C    0.228296
    38  C    0.045012
    39  O   -0.189558
    40  C    0.030520
    41  C    0.212658
    42  O   -0.258105
    43  O   -0.304491
    44  C    0.300872
    80  Mg   0.837636
    81  C   -0.016700
    82  C   -0.101736
    83  C   -0.061167
    84  C   -0.107241
    85  N   -0.254509
    86  C   -0.050157
    87  C   -0.016735
    88  C   -0.095218
    89  C    0.044837
    90  C    0.169565
    91  C    0.114027
    92  C   -0.003442
    94  N   -0.424102
    95  C    0.162488
    96  C   -0.170302
    97  C   -0.007449
    98  C    0.153201
    99  C    0.178044
   100  C    0.016273
   101  O   -0.254391
   102  C    0.169676
   103  N   -0.349986
   104  C    0.037522
   105  C   -0.005707
   106  C   -0.023862
   107  C    0.088585
   108  C    0.114009
   109  C    0.043150
   110  C    0.051479
   111  N   -0.323931
   112  C    0.077910
   113  C   -0.163402
   114  C    0.002288
   115  C    0.095700
   116  C    0.231767
   117  C    0.042309
   118  O   -0.188708
   119  C    0.035554
   120  C    0.211187
   121  O   -0.251151
   122  O   -0.305852
   123  C    0.298325
 Electronic spatial extent (au):  <R**2>=          98460.6681
 Charge=             -0.0000 electrons
 Dipole moment (field-independent basis, Debye):
    X=              5.0207    Y=              1.3737    Z=              0.8837  Tot=              5.2797
 Quadrupole moment (field-independent basis, Debye-Ang):
   XX=           -525.4559   YY=           -530.3188   ZZ=           -464.2138
   XY=            -16.2614   XZ=             45.4967   YZ=             22.7374
 Traceless Quadrupole moment (field-independent basis, Debye-Ang):
   XX=            -18.7931   YY=            -23.6560   ZZ=             42.4491
   XY=            -16.2614   XZ=             45.4967   YZ=             22.7374
 Octapole moment (field-independent basis, Debye-Ang**2):
  XXX=            428.8394  YYY=            142.3345  ZZZ=            203.6757  XYY=            136.3213
  XXY=            142.6339  XXZ=             80.9026  XZZ=           -172.5199  YZZ=            -89.8790
  YYZ=           -290.3989  XYZ=             52.3178
 Hexadecapole moment (field-independent basis, Debye-Ang**3):
 XXXX=         -70366.6780 YYYY=         -38162.7674 ZZZZ=         -26505.8415 XXXY=             40.2227
 XXXZ=           1953.1656 YYYX=            886.5177 YYYZ=           -191.8361 ZZZX=            842.7953
 ZZZY=            291.1524 XXYY=         -17684.4727 XXZZ=         -15110.8862 YYZZ=         -10732.3241
 XXYZ=            965.1779 YYXZ=            545.3539 ZZXY=           -258.7654
 N-N= 1.547640360768D+04 E-N=-4.043390285803D+04  KE= 4.028799402729D+03
 Leave Link  601 at Fri Sep  3 19:37:20 2021, MaxMem= 23488102400 cpu:              13.5 elap:               0.7
 (Enter /sw/apps/gaussian-16.0/g16/l9999.exe)
 1\1\GINC-BP1-COMPUTE00154\SP\RCAM-B3LYP TD-FC\def2SVP\C68H72Mg2N8O8\OF
 15641\03-Sep-2021\0\\#p cam-b3lyp/Def2SVP td=(nstates=5)\\TDDFT excite
 d states in gaussian\\0,1\Mg,0,0.,0.,0.\C,0,-0.217,-2.218,2.801\C,0,-1
 .255,2.442,2.026\C,0,-0.245,1.85,-2.564\C,0,0.146,-2.824,-2.037\N,0,-0
 .617,-0.009,2.126\C,0,-0.594,-0.908,3.105\C,0,-0.936,-0.309,4.502\C,0,
 -1.773,0.964,4.032\C,0,-1.155,1.168,2.66\C,0,-3.263,0.685,3.863\C,0,0.
 345,0.11,5.299\C,0,0.124,0.397,6.787\H,0,1.168,0.033,7.733\N,0,-0.185,
 1.961,-0.152\C,0,-0.703,2.8,0.777\C,0,-0.62,4.156,0.193\C,0,-0.187,4.0
 15,-1.225\C,0,-0.214,2.583,-1.38\C,0,-0.887,5.406,0.974\C,0,0.181,5.01
 3,-2.277\O,0,0.303,4.69,-3.508\C,0,0.31,6.414,-1.837\N,0,-0.265,-0.413
 ,-2.029\C,0,-0.279,0.569,-2.937\C,0,-0.196,0.024,-4.332\C,0,0.124,-1.5
 33,-4.18\C,0,0.086,-1.632,-2.635\C,0,-1.451,0.205,-5.197\C,0,1.373,-2.
 07,-4.923\C,0,2.626,-1.49,-4.306\N,0,0.15,-2.144,0.303\C,0,0.173,-3.13
 6,-0.688\C,0,0.173,-4.438,0.004\C,0,0.133,-4.111,1.358\C,0,0.083,-2.69
 5,1.502\C,0,0.149,-5.715,-0.623\C,0,0.096,-4.629,2.716\O,0,0.208,-5.74
 7,3.221\C,0,-0.255,-3.428,3.701\C,0,0.717,-3.482,4.848\O,0,1.931,-3.25
 5,4.669\O,0,0.038,-3.556,6.003\C,0,0.943,-3.583,7.183\H,0,-1.859,3.22,
 2.497\H,0,-0.218,2.453,-3.474\H,0,0.276,-3.747,-2.605\H,0,-1.554,-0.94
 9,5.132\H,0,-1.585,1.831,4.665\H,0,-3.484,-0.377,3.969\H,0,-3.511,1.02
 7,2.858\H,0,-3.852,1.301,4.543\H,0,0.669,1.096,4.966\H,0,1.13,-0.639,5
 .189\H,0,-0.844,0.026,7.125\H,0,0.062,1.477,6.921\H,0,-1.344,5.186,1.9
 38\H,0,-1.651,5.963,0.432\H,0,0.007,6.02,1.084\H,0,-0.635,6.744,-1.405
 \H,0,0.665,6.97,-2.704\H,0,1.048,6.466,-1.036\H,0,0.608,0.501,-4.891\H
 ,0,-0.692,-2.156,-4.547\H,0,-1.267,0.74,-6.129\H,0,-2.204,0.714,-4.596
 \H,0,-1.967,-0.72,-5.453\H,0,1.356,-1.759,-5.967\H,0,1.452,-3.157,-4.9
 02\H,0,2.714,-0.522,-4.798\H,0,3.487,-2.121,-4.529\H,0,2.495,-1.303,-3
 .24\H,0,0.867,-6.333,-0.084\H,0,0.404,-5.642,-1.68\H,0,-0.891,-5.999,-
 0.463\H,0,-1.283,-3.581,4.028\H,0,0.698,-4.478,7.755\H,0,0.833,-2.619,
 7.68\H,0,2.,-3.754,6.976\Mg,0,8.94221,0.79741,0.67781\C,0,9.04727,0.32
 523,-2.87818\C,0,8.33927,-2.54844,0.95409\C,0,8.39741,1.25182,3.7704\C
 ,0,8.4138,4.18855,0.07226\N,0,8.74227,-0.80021,-0.83872\C,0,8.86277,-0
 .87207,-2.15579\C,0,8.86123,-2.31664,-2.72394\C,0,8.07099,-3.04379,-1.
 52993\C,0,8.43018,-2.0968,-0.38675\C,0,6.56197,-3.02619,-1.70851\C,0,1
 0.31027,-2.89523,-2.88983\C,0,10.40009,-4.17517,-3.72375\H,0,11.57137,
 -4.37152,-4.57346\N,0,8.92806,-0.49597,2.18298\C,0,8.68738,-1.82209,2.
 11408\C,0,8.77277,-2.31882,3.49616\C,0,8.92048,-1.1506,4.40619\C,0,8.7
 2931,-0.06121,3.46983\C,0,8.79228,-3.78095,3.83558\C,0,9.17697,-1.0334
 9,5.87816\O,0,9.03058,0.07719,6.50089\C,0,9.51389,-2.2773,6.58591\N,0,
 8.26387,2.43503,1.76428\C,0,8.16698,2.38347,3.10438\C,0,7.92434,3.7553
 9,3.68693\C,0,8.12019,4.77827,2.47327\C,0,8.36522,3.76981,1.32943\C,0,
 6.55109,3.97548,4.32108\C,0,9.14611,5.92624,2.67898\C,0,10.54529,5.359
 59,2.76017\N,0,8.94235,2.08625,-1.05625\C,0,8.67145,3.47174,-1.08928\C
 ,0,8.67758,3.88285,-2.50822\C,0,8.93084,2.69417,-3.20921\C,0,9.05251,1
 .61459,-2.29313\C,0,8.42006,5.19536,-2.99516\C,0,9.11238,2.10532,-4.51
 65\O,0,9.20212,2.54457,-5.66225\C,0,9.07025,0.52333,-4.36843\C,0,10.23
 381,-0.0459,-5.13303\O,0,11.40118,0.18405,-4.77113\O,0,9.77728,-0.9396
 4,-6.02924\C,0,10.89534,-1.53995,-6.80475\H,0,7.92229,-3.53844,1.14095
 \H,0,8.30777,1.48381,4.83418\H,0,8.35445,5.24616,-0.19346\H,0,8.32117,
 -2.43789,-3.65529\H,0,8.46839,-4.03763,-1.34093\H,0,6.26316,-2.42223,-
 2.55236\H,0,6.16181,-2.61728,-0.78998\H,0,6.17838,-4.04828,-1.77568\H,
 0,10.65624,-3.27761,-1.92089\H,0,10.97263,-2.15404,-3.293\H,0,9.47931,
 -4.36445,-4.2888\H,0,10.4775,-5.02737,-3.0442\H,0,8.50218,-4.3974,2.97
 58\H,0,7.9979,-3.94917,4.57078\H,0,9.74426,-4.10115,4.26439\H,0,8.7073
 ,-2.99532,6.45819\H,0,9.74929,-1.97693,7.60877\H,0,10.40265,-2.71595,6
 .11867\H,0,8.65029,3.98199,4.45812\H,0,7.18655,5.30707,2.23138\H,0,6.6
 0502,4.29644,5.3785\H,0,5.98242,3.05957,4.23022\H,0,5.91501,4.69427,3.
 80732\H,0,8.96117,6.43371,3.62894\H,0,9.11295,6.68,1.89941\H,0,10.6260
 1,5.05046,3.8066\H,0,11.28216,6.12209,2.5159\H,0,10.64182,4.45939,2.14
 214\H,0,9.15658,5.39277,-3.76267\H,0,8.46961,5.93256,-2.19651\H,0,7.40
 212,5.06706,-3.37278\H,0,8.11332,0.18249,-4.76556\H,0,10.67507,-1.3736
 2,-7.86376\H,0,10.9655,-2.58996,-6.46372\H,0,11.87146,-1.0775,-6.71659
 \\Version=ES64L-G16RevA.03\State=1-A\HF=-4069.8121796\RMSD=7.305e-09\P
 G=C01 [X(C68H72Mg2N8O8)]\\@


 YOU CAN LEAD A BOY TO COLLEGE....
 BUT YOU CANNOT MAKE HIM THINK....
           ELBERT HUBBARD
 Job cpu time:       0 days 15 hours  3 minutes 37.2 seconds.
 Elapsed time:       0 days  0 hours 38 minutes 18.8 seconds.
 File lengths (MBytes):  RWF=  13225 Int=      0 D2E=      0 Chk=    574 Scr=      1
 Normal termination of Gaussian 16 at Fri Sep  3 19:37:21 2021.
