 Entering Gaussian System, Link 0=g16
 Initial command:
 /sw/apps/gaussian-16.0/g16/l1.exe "/tmp/Gau-89623.inp" -scrdir="/tmp/"
 Entering Link 1 = /sw/apps/gaussian-16.0/g16/l1.exe PID=     89624.
  
 Copyright (c) 1988,1990,1992,1993,1995,1998,2003,2009,2016,
            Gaussian, Inc.  All Rights Reserved.
  
 This is part of the Gaussian(R) 16 program.  It is based on
 the Gaussian(R) 09 system (copyright 2009, Gaussian, Inc.),
 the Gaussian(R) 03 system (copyright 2003, Gaussian, Inc.),
 the Gaussian(R) 98 system (copyright 1998, Gaussian, Inc.),
 the Gaussian(R) 94 system (copyright 1995, Gaussian, Inc.),
 the Gaussian 92(TM) system (copyright 1992, Gaussian, Inc.),
 the Gaussian 90(TM) system (copyright 1990, Gaussian, Inc.),
 the Gaussian 88(TM) system (copyright 1988, Gaussian, Inc.),
 the Gaussian 86(TM) system (copyright 1986, Carnegie Mellon
 University), and the Gaussian 82(TM) system (copyright 1983,
 Carnegie Mellon University). Gaussian is a federally registered
 trademark of Gaussian, Inc.
  
 This software contains proprietary and confidential information,
 including trade secrets, belonging to Gaussian, Inc.
  
 This software is provided under written license and may be
 used, copied, transmitted, or stored only in accord with that
 written license.
  
 The following legend is applicable only to US Government
 contracts under FAR:
  
                    RESTRICTED RIGHTS LEGEND
  
 Use, reproduction and disclosure by the US Government is
 subject to restrictions as set forth in subparagraphs (a)
 and (c) of the Commercial Computer Software - Restricted
 Rights clause in FAR 52.227-19.
  
 Gaussian, Inc.
 340 Quinnipiac St., Bldg. 40, Wallingford CT 06492
  
  
 ---------------------------------------------------------------
 Warning -- This program may not be used in any manner that
 competes with the business of Gaussian, Inc. or will provide
 assistance to any competitor of Gaussian, Inc.  The licensee
 of this program is prohibited from giving any competitor of
 Gaussian, Inc. access to this program.  By using this program,
 the user acknowledges that Gaussian, Inc. is engaged in the
 business of creating and licensing software in the field of
 computational chemistry and represents and warrants to the
 licensee that it is not a competitor of Gaussian, Inc. and that
 it will not use this program in any manner prohibited above.
 ---------------------------------------------------------------
  

 Cite this work as:
 Gaussian 16, Revision A.03,
 M. J. Frisch, G. W. Trucks, H. B. Schlegel, G. E. Scuseria, 
 M. A. Robb, J. R. Cheeseman, G. Scalmani, V. Barone, 
 G. A. Petersson, H. Nakatsuji, X. Li, M. Caricato, A. V. Marenich, 
 J. Bloino, B. G. Janesko, R. Gomperts, B. Mennucci, H. P. Hratchian, 
 J. V. Ortiz, A. F. Izmaylov, J. L. Sonnenberg, D. Williams-Young, 
 F. Ding, F. Lipparini, F. Egidi, J. Goings, B. Peng, A. Petrone, 
 T. Henderson, D. Ranasinghe, V. G. Zakrzewski, J. Gao, N. Rega, 
 G. Zheng, W. Liang, M. Hada, M. Ehara, K. Toyota, R. Fukuda, 
 J. Hasegawa, M. Ishida, T. Nakajima, Y. Honda, O. Kitao, H. Nakai, 
 T. Vreven, K. Throssell, J. A. Montgomery, Jr., J. E. Peralta, 
 F. Ogliaro, M. J. Bearpark, J. J. Heyd, E. N. Brothers, K. N. Kudin, 
 V. N. Staroverov, T. A. Keith, R. Kobayashi, J. Normand, 
 K. Raghavachari, A. P. Rendell, J. C. Burant, S. S. Iyengar, 
 J. Tomasi, M. Cossi, J. M. Millam, M. Klene, C. Adamo, R. Cammi, 
 J. W. Ochterski, R. L. Martin, K. Morokuma, O. Farkas, 
 J. B. Foresman, and D. J. Fox, Gaussian, Inc., Wallingford CT, 2016.
 
 ******************************************
 Gaussian 16:  ES64L-G16RevA.03 25-Dec-2016
                 9-Sep-2021 
 ******************************************
 %nproc=24
 Will use up to   24 processors via shared memory.
 %mem=175gb
 -----------------------------------
 #p cam-b3lyp/Def2SVP td=(nstates=5)
 -----------------------------------
 1/38=1,172=1/1;
 2/12=2,17=6,18=5,40=1/2;
 3/5=43,7=101,11=9,25=1,30=1,74=-40/1,2,3,8;
 4//1;
 5/5=2,38=5/2;
 8/6=1,10=1,108=5/1;
 9/41=5,42=1,70=2/14;
 6/7=2,8=2,9=2,10=2/1;
 99/5=1,9=1/99;
 Leave Link    1 at Thu Sep  9 05:20:57 2021, MaxMem= 23488102400 cpu:               0.6 elap:               0.0
 (Enter /sw/apps/gaussian-16.0/g16/l101.exe)
 --------------------------------
 TDDFT excited states in gaussian
 --------------------------------
 Symbolic Z-matrix:
 Charge =  0 Multiplicity = 1
 Mg                    0.        0.        0. 
 C                    -0.217    -2.218     2.801 
 C                    -1.255     2.442     2.026 
 C                    -0.245     1.85     -2.564 
 C                     0.146    -2.824    -2.037 
 N                    -0.617    -0.009     2.126 
 C                    -0.594    -0.908     3.105 
 C                    -0.936    -0.309     4.502 
 C                    -1.773     0.964     4.032 
 C                    -1.155     1.168     2.66 
 C                    -3.263     0.685     3.863 
 C                     0.345     0.11      5.299 
 C                     0.124     0.397     6.787 
 H                     1.168     0.033     7.733 
 N                    -0.185     1.961    -0.152 
 C                    -0.703     2.8       0.777 
 C                    -0.62      4.156     0.193 
 C                    -0.187     4.015    -1.225 
 C                    -0.214     2.583    -1.38 
 C                    -0.887     5.406     0.974 
 C                     0.181     5.013    -2.277 
 O                     0.303     4.69     -3.508 
 C                     0.31      6.414    -1.837 
 N                    -0.265    -0.413    -2.029 
 C                    -0.279     0.569    -2.937 
 C                    -0.196     0.024    -4.332 
 C                     0.124    -1.533    -4.18 
 C                     0.086    -1.632    -2.635 
 C                    -1.451     0.205    -5.197 
 C                     1.373    -2.07     -4.923 
 C                     2.626    -1.49     -4.306 
 N                     0.15     -2.144     0.303 
 C                     0.173    -3.136    -0.688 
 C                     0.173    -4.438     0.004 
 C                     0.133    -4.111     1.358 
 C                     0.083    -2.695     1.502 
 C                     0.149    -5.715    -0.623 
 C                     0.096    -4.629     2.716 
 O                     0.208    -5.747     3.221 
 C                    -0.255    -3.428     3.701 
 C                     0.717    -3.482     4.848 
 O                     1.931    -3.255     4.669 
 O                     0.038    -3.556     6.003 
 C                     0.943    -3.583     7.183 
 H                    -1.859     3.22      2.497 
 H                    -0.218     2.453    -3.474 
 H                     0.276    -3.747    -2.605 
 H                    -1.554    -0.949     5.132 
 H                    -1.585     1.831     4.665 
 H                    -3.484    -0.377     3.969 
 H                    -3.511     1.027     2.858 
 H                    -3.852     1.301     4.543 
 H                     0.669     1.096     4.966 
 H                     1.13     -0.639     5.189 
 H                    -0.844     0.026     7.125 
 H                     0.062     1.477     6.921 
 H                    -1.344     5.186     1.938 
 H                    -1.651     5.963     0.432 
 H                     0.007     6.02      1.084 
 H                    -0.635     6.744    -1.405 
 H                     0.665     6.97     -2.704 
 H                     1.048     6.466    -1.036 
 H                     0.608     0.501    -4.891 
 H                    -0.692    -2.156    -4.547 
 H                    -1.267     0.74     -6.129 
 H                    -2.204     0.714    -4.596 
 H                    -1.967    -0.72     -5.453 
 H                     1.356    -1.759    -5.967 
 H                     1.452    -3.157    -4.902 
 H                     2.714    -0.522    -4.798 
 H                     3.487    -2.121    -4.529 
 H                     2.495    -1.303    -3.24 
 H                     0.867    -6.333    -0.084 
 H                     0.404    -5.642    -1.68 
 H                    -0.891    -5.999    -0.463 
 H                    -1.283    -3.581     4.028 
 H                     0.698    -4.478     7.755 
 H                     0.833    -2.619     7.68 
 H                     2.       -3.754     6.976 
 Mg                    7.8906    0.71125   0.60619 
 C                     6.60619  -1.27876   3.30234 
 C                     7.69365   3.4004    2.69528 
 C                     8.58977   2.56328  -1.87343 
 C                     6.9186   -1.84218  -1.55734 
 N                     7.22105   0.90852   2.70501 
 C                     6.81241   0.07305   3.64806 
 C                     6.69048   0.70664   5.05989 
 C                     6.49607   2.23879   4.61991 
 C                     7.21024   2.19808   3.27047 
 C                     5.04372   2.61652   4.38047 
 C                     7.99191   0.51537   5.9153 
 C                     7.83575   0.83427   7.40381 
 H                     8.58313   0.03328   8.36938 
 N                     8.57112   2.57455   0.54645 
 C                     8.42051   3.52654   1.49108 
 C                     9.08485   4.7275    0.96146 
 C                     9.49668   4.45517  -0.44244 
 C                     8.86964   3.16621  -0.65577 
 C                     9.34461   5.94833   1.79545 
 C                     10.30841   5.23274  -1.43375 
 O                     10.34117   4.91416  -2.67482 
 C                     10.98905   6.43296  -0.92612 
 N                     7.58291   0.5041   -1.43947 
 C                     8.03133   1.43168  -2.30345 
 C                     7.94098   0.93911  -3.72809 
 C                     7.56241  -0.61116  -3.62348 
 C                     7.40502  -0.73041  -2.09168 
 C                     6.9214    1.65295  -4.61537 
 C                     8.49858  -1.61485  -4.35069 
 C                     9.85186  -1.63921  -3.67731 
 N                     7.10653  -1.29105   0.81616 
 C                     6.7444   -2.1784   -0.22093 
 C                     6.15534  -3.37448   0.41533 
 C                     6.19488  -3.08797   1.78823 
 C                     6.74956  -1.79556   1.99196 
 C                     5.63016  -4.50705  -0.26846 
 C                     5.88373  -3.58058   3.11081 
 O                     5.47778  -4.64881   3.56668 
 C                     6.01972  -2.37912   4.14251 
 C                     6.82116  -2.86545   5.31882 
 O                     8.01593  -3.18234   5.182 
 O                     6.11235  -2.67056   6.44575 
 C                     6.8701   -3.12722   7.64121 
 H                     7.45903   4.34326   3.19011 
 H                     8.91415   3.1154   -2.75855 
 H                     6.6813   -2.72309  -2.15764 
 H                     5.83486   0.37349   5.63496 
 H                     7.00733   2.91344   5.30169 
 H                     4.39053   1.75809   4.43124 
 H                     5.01338   3.05711   3.39254 
 H                     4.74088   3.40744   5.07262 
 H                     8.7218    1.28527   5.63377 
 H                     8.38305  -0.47645   5.79733 
 H                     6.78268   0.91032   7.7008 
 H                     8.23922   1.83274   7.58898 
 H                     8.78222   5.91948   2.73688 
 H                     8.92298   6.80162   1.25323 
 H                     10.40923   6.12626   1.96156 
 H                     10.25306   7.11648  -0.50947 
 H                     11.58939   6.80295  -1.75953 
 H                     11.64795   6.13906  -0.10145 
 H                     8.89518   1.03464  -4.23155 
 H                     6.57369  -0.81937  -4.05812 
 H                     7.36803   2.09156  -5.52763 
 H                     6.43212   2.41722  -4.02628 
 H                     6.08274   1.0397   -4.94061 
 H                     8.67037  -1.29411  -5.38112 
 H                     8.10296  -2.6243   -4.38933 
 H                     10.36465  -0.78152  -4.12283 
 H                     10.3728  -2.56873  -3.89786 
 H                     9.75998  -1.4463   -2.60214 
 H                     5.98387  -5.38188   0.26075 
 H                     5.9394   -4.52038  -1.31152 
 H                     4.55836  -4.3204   -0.16044 
 H                     5.0115   -2.07862   4.43017 
 H                     6.2351   -3.84773   8.16594 
 H                     7.1467   -2.20687   8.18911 
 H                     7.76406  -3.7163    7.47306 
 
 ITRead=  0  0  0  0  0  0  0  0  0  0  0  0  0  0  0  0  0  0  0  0
 ITRead=  0  0  0  0  0  0  0  0  0  0  0  0  0  0  0  0  0  0  0  0
 ITRead=  0  0  0  0  0  0  0  0  0  0  0  0  0  0  0  0  0  0  0  0
 ITRead=  0  0  0  0  0  0  0  0  0  0  0  0  0  0  0  0  0  0  0  0
 ITRead=  0  0  0  0  0  0  0  0  0  0  0  0  0  0  0  0  0  0  0  0
 ITRead=  0  0  0  0  0  0  0  0  0  0  0  0  0  0  0  0  0  0  0  0
 ITRead=  0  0  0  0  0  0  0  0  0  0  0  0  0  0  0  0  0  0  0  0
 ITRead=  0  0  0  0  0  0  0  0  0  0  0  0  0  0  0  0  0  0
 MicOpt= -1 -1 -1 -1 -1 -1 -1 -1 -1 -1 -1 -1 -1 -1 -1 -1 -1 -1 -1 -1
 MicOpt= -1 -1 -1 -1 -1 -1 -1 -1 -1 -1 -1 -1 -1 -1 -1 -1 -1 -1 -1 -1
 MicOpt= -1 -1 -1 -1 -1 -1 -1 -1 -1 -1 -1 -1 -1 -1 -1 -1 -1 -1 -1 -1
 MicOpt= -1 -1 -1 -1 -1 -1 -1 -1 -1 -1 -1 -1 -1 -1 -1 -1 -1 -1 -1 -1
 MicOpt= -1 -1 -1 -1 -1 -1 -1 -1 -1 -1 -1 -1 -1 -1 -1 -1 -1 -1 -1 -1
 MicOpt= -1 -1 -1 -1 -1 -1 -1 -1 -1 -1 -1 -1 -1 -1 -1 -1 -1 -1 -1 -1
 MicOpt= -1 -1 -1 -1 -1 -1 -1 -1 -1 -1 -1 -1 -1 -1 -1 -1 -1 -1 -1 -1
 MicOpt= -1 -1 -1 -1 -1 -1 -1 -1 -1 -1 -1 -1 -1 -1 -1 -1 -1 -1
 NAtoms=    158 NQM=      158 NQMF=       0 NMMI=      0 NMMIF=      0
                NMic=       0 NMicF=      0.
                    Isotopes and Nuclear Properties:
 (Nuclear quadrupole moments (NQMom) in fm**2, nuclear magnetic moments (NMagM)
  in nuclear magnetons)

  Atom         1           2           3           4           5           6           7           8           9          10
 IAtWgt=          24          12          12          12          12          14          12          12          12          12
 AtmWgt=  23.9850450  12.0000000  12.0000000  12.0000000  12.0000000  14.0030740  12.0000000  12.0000000  12.0000000  12.0000000
 NucSpn=           0           0           0           0           0           2           0           0           0           0
 AtZEff=  -0.0000000  -0.0000000  -0.0000000  -0.0000000  -0.0000000  -0.0000000  -0.0000000  -0.0000000  -0.0000000  -0.0000000
 NQMom=    0.0000000   0.0000000   0.0000000   0.0000000   0.0000000   2.0440000   0.0000000   0.0000000   0.0000000   0.0000000
 NMagM=    0.0000000   0.0000000   0.0000000   0.0000000   0.0000000   0.4037610   0.0000000   0.0000000   0.0000000   0.0000000
 AtZNuc=  12.0000000   6.0000000   6.0000000   6.0000000   6.0000000   7.0000000   6.0000000   6.0000000   6.0000000   6.0000000

  Atom        11          12          13          14          15          16          17          18          19          20
 IAtWgt=          12          12          12           1          14          12          12          12          12          12
 AtmWgt=  12.0000000  12.0000000  12.0000000   1.0078250  14.0030740  12.0000000  12.0000000  12.0000000  12.0000000  12.0000000
 NucSpn=           0           0           0           1           2           0           0           0           0           0
 AtZEff=  -0.0000000  -0.0000000  -0.0000000  -0.0000000  -0.0000000  -0.0000000  -0.0000000  -0.0000000  -0.0000000  -0.0000000
 NQMom=    0.0000000   0.0000000   0.0000000   0.0000000   2.0440000   0.0000000   0.0000000   0.0000000   0.0000000   0.0000000
 NMagM=    0.0000000   0.0000000   0.0000000   2.7928460   0.4037610   0.0000000   0.0000000   0.0000000   0.0000000   0.0000000
 AtZNuc=   6.0000000   6.0000000   6.0000000   1.0000000   7.0000000   6.0000000   6.0000000   6.0000000   6.0000000   6.0000000

  Atom        21          22          23          24          25          26          27          28          29          30
 IAtWgt=          12          16          12          14          12          12          12          12          12          12
 AtmWgt=  12.0000000  15.9949146  12.0000000  14.0030740  12.0000000  12.0000000  12.0000000  12.0000000  12.0000000  12.0000000
 NucSpn=           0           0           0           2           0           0           0           0           0           0
 AtZEff=  -0.0000000  -0.0000000  -0.0000000  -0.0000000  -0.0000000  -0.0000000  -0.0000000  -0.0000000  -0.0000000  -0.0000000
 NQMom=    0.0000000   0.0000000   0.0000000   2.0440000   0.0000000   0.0000000   0.0000000   0.0000000   0.0000000   0.0000000
 NMagM=    0.0000000   0.0000000   0.0000000   0.4037610   0.0000000   0.0000000   0.0000000   0.0000000   0.0000000   0.0000000
 AtZNuc=   6.0000000   8.0000000   6.0000000   7.0000000   6.0000000   6.0000000   6.0000000   6.0000000   6.0000000   6.0000000

  Atom        31          32          33          34          35          36          37          38          39          40
 IAtWgt=          12          14          12          12          12          12          12          12          16          12
 AtmWgt=  12.0000000  14.0030740  12.0000000  12.0000000  12.0000000  12.0000000  12.0000000  12.0000000  15.9949146  12.0000000
 NucSpn=           0           2           0           0           0           0           0           0           0           0
 AtZEff=  -0.0000000  -0.0000000  -0.0000000  -0.0000000  -0.0000000  -0.0000000  -0.0000000  -0.0000000  -0.0000000  -0.0000000
 NQMom=    0.0000000   2.0440000   0.0000000   0.0000000   0.0000000   0.0000000   0.0000000   0.0000000   0.0000000   0.0000000
 NMagM=    0.0000000   0.4037610   0.0000000   0.0000000   0.0000000   0.0000000   0.0000000   0.0000000   0.0000000   0.0000000
 AtZNuc=   6.0000000   7.0000000   6.0000000   6.0000000   6.0000000   6.0000000   6.0000000   6.0000000   8.0000000   6.0000000

  Atom        41          42          43          44          45          46          47          48          49          50
 IAtWgt=          12          16          16          12           1           1           1           1           1           1
 AtmWgt=  12.0000000  15.9949146  15.9949146  12.0000000   1.0078250   1.0078250   1.0078250   1.0078250   1.0078250   1.0078250
 NucSpn=           0           0           0           0           1           1           1           1           1           1
 AtZEff=  -0.0000000  -0.0000000  -0.0000000  -0.0000000  -0.0000000  -0.0000000  -0.0000000  -0.0000000  -0.0000000  -0.0000000
 NQMom=    0.0000000   0.0000000   0.0000000   0.0000000   0.0000000   0.0000000   0.0000000   0.0000000   0.0000000   0.0000000
 NMagM=    0.0000000   0.0000000   0.0000000   0.0000000   2.7928460   2.7928460   2.7928460   2.7928460   2.7928460   2.7928460
 AtZNuc=   6.0000000   8.0000000   8.0000000   6.0000000   1.0000000   1.0000000   1.0000000   1.0000000   1.0000000   1.0000000

  Atom        51          52          53          54          55          56          57          58          59          60
 IAtWgt=           1           1           1           1           1           1           1           1           1           1
 AtmWgt=   1.0078250   1.0078250   1.0078250   1.0078250   1.0078250   1.0078250   1.0078250   1.0078250   1.0078250   1.0078250
 NucSpn=           1           1           1           1           1           1           1           1           1           1
 AtZEff=  -0.0000000  -0.0000000  -0.0000000  -0.0000000  -0.0000000  -0.0000000  -0.0000000  -0.0000000  -0.0000000  -0.0000000
 NQMom=    0.0000000   0.0000000   0.0000000   0.0000000   0.0000000   0.0000000   0.0000000   0.0000000   0.0000000   0.0000000
 NMagM=    2.7928460   2.7928460   2.7928460   2.7928460   2.7928460   2.7928460   2.7928460   2.7928460   2.7928460   2.7928460
 AtZNuc=   1.0000000   1.0000000   1.0000000   1.0000000   1.0000000   1.0000000   1.0000000   1.0000000   1.0000000   1.0000000

  Atom        61          62          63          64          65          66          67          68          69          70
 IAtWgt=           1           1           1           1           1           1           1           1           1           1
 AtmWgt=   1.0078250   1.0078250   1.0078250   1.0078250   1.0078250   1.0078250   1.0078250   1.0078250   1.0078250   1.0078250
 NucSpn=           1           1           1           1           1           1           1           1           1           1
 AtZEff=  -0.0000000  -0.0000000  -0.0000000  -0.0000000  -0.0000000  -0.0000000  -0.0000000  -0.0000000  -0.0000000  -0.0000000
 NQMom=    0.0000000   0.0000000   0.0000000   0.0000000   0.0000000   0.0000000   0.0000000   0.0000000   0.0000000   0.0000000
 NMagM=    2.7928460   2.7928460   2.7928460   2.7928460   2.7928460   2.7928460   2.7928460   2.7928460   2.7928460   2.7928460
 AtZNuc=   1.0000000   1.0000000   1.0000000   1.0000000   1.0000000   1.0000000   1.0000000   1.0000000   1.0000000   1.0000000

  Atom        71          72          73          74          75          76          77          78          79          80
 IAtWgt=           1           1           1           1           1           1           1           1           1          24
 AtmWgt=   1.0078250   1.0078250   1.0078250   1.0078250   1.0078250   1.0078250   1.0078250   1.0078250   1.0078250  23.9850450
 NucSpn=           1           1           1           1           1           1           1           1           1           0
 AtZEff=  -0.0000000  -0.0000000  -0.0000000  -0.0000000  -0.0000000  -0.0000000  -0.0000000  -0.0000000  -0.0000000  -0.0000000
 NQMom=    0.0000000   0.0000000   0.0000000   0.0000000   0.0000000   0.0000000   0.0000000   0.0000000   0.0000000   0.0000000
 NMagM=    2.7928460   2.7928460   2.7928460   2.7928460   2.7928460   2.7928460   2.7928460   2.7928460   2.7928460   0.0000000
 AtZNuc=   1.0000000   1.0000000   1.0000000   1.0000000   1.0000000   1.0000000   1.0000000   1.0000000   1.0000000  12.0000000

  Atom        81          82          83          84          85          86          87          88          89          90
 IAtWgt=          12          12          12          12          14          12          12          12          12          12
 AtmWgt=  12.0000000  12.0000000  12.0000000  12.0000000  14.0030740  12.0000000  12.0000000  12.0000000  12.0000000  12.0000000
 NucSpn=           0           0           0           0           2           0           0           0           0           0
 AtZEff=  -0.0000000  -0.0000000  -0.0000000  -0.0000000  -0.0000000  -0.0000000  -0.0000000  -0.0000000  -0.0000000  -0.0000000
 NQMom=    0.0000000   0.0000000   0.0000000   0.0000000   2.0440000   0.0000000   0.0000000   0.0000000   0.0000000   0.0000000
 NMagM=    0.0000000   0.0000000   0.0000000   0.0000000   0.4037610   0.0000000   0.0000000   0.0000000   0.0000000   0.0000000
 AtZNuc=   6.0000000   6.0000000   6.0000000   6.0000000   7.0000000   6.0000000   6.0000000   6.0000000   6.0000000   6.0000000

  Atom        91          92          93          94          95          96          97          98          99         100
 IAtWgt=          12          12           1          14          12          12          12          12          12          12
 AtmWgt=  12.0000000  12.0000000   1.0078250  14.0030740  12.0000000  12.0000000  12.0000000  12.0000000  12.0000000  12.0000000
 NucSpn=           0           0           1           2           0           0           0           0           0           0
 AtZEff=  -0.0000000  -0.0000000  -0.0000000  -0.0000000  -0.0000000  -0.0000000  -0.0000000  -0.0000000  -0.0000000  -0.0000000
 NQMom=    0.0000000   0.0000000   0.0000000   2.0440000   0.0000000   0.0000000   0.0000000   0.0000000   0.0000000   0.0000000
 NMagM=    0.0000000   0.0000000   2.7928460   0.4037610   0.0000000   0.0000000   0.0000000   0.0000000   0.0000000   0.0000000
 AtZNuc=   6.0000000   6.0000000   1.0000000   7.0000000   6.0000000   6.0000000   6.0000000   6.0000000   6.0000000   6.0000000

  Atom       101         102         103         104         105         106         107         108         109         110
 IAtWgt=          16          12          14          12          12          12          12          12          12          12
 AtmWgt=  15.9949146  12.0000000  14.0030740  12.0000000  12.0000000  12.0000000  12.0000000  12.0000000  12.0000000  12.0000000
 NucSpn=           0           0           2           0           0           0           0           0           0           0
 AtZEff=  -0.0000000  -0.0000000  -0.0000000  -0.0000000  -0.0000000  -0.0000000  -0.0000000  -0.0000000  -0.0000000  -0.0000000
 NQMom=    0.0000000   0.0000000   2.0440000   0.0000000   0.0000000   0.0000000   0.0000000   0.0000000   0.0000000   0.0000000
 NMagM=    0.0000000   0.0000000   0.4037610   0.0000000   0.0000000   0.0000000   0.0000000   0.0000000   0.0000000   0.0000000
 AtZNuc=   8.0000000   6.0000000   7.0000000   6.0000000   6.0000000   6.0000000   6.0000000   6.0000000   6.0000000   6.0000000

  Atom       111         112         113         114         115         116         117         118         119         120
 IAtWgt=          14          12          12          12          12          12          12          16          12          12
 AtmWgt=  14.0030740  12.0000000  12.0000000  12.0000000  12.0000000  12.0000000  12.0000000  15.9949146  12.0000000  12.0000000
 NucSpn=           2           0           0           0           0           0           0           0           0           0
 AtZEff=  -0.0000000  -0.0000000  -0.0000000  -0.0000000  -0.0000000  -0.0000000  -0.0000000  -0.0000000  -0.0000000  -0.0000000
 NQMom=    2.0440000   0.0000000   0.0000000   0.0000000   0.0000000   0.0000000   0.0000000   0.0000000   0.0000000   0.0000000
 NMagM=    0.4037610   0.0000000   0.0000000   0.0000000   0.0000000   0.0000000   0.0000000   0.0000000   0.0000000   0.0000000
 AtZNuc=   7.0000000   6.0000000   6.0000000   6.0000000   6.0000000   6.0000000   6.0000000   8.0000000   6.0000000   6.0000000

  Atom       121         122         123         124         125         126         127         128         129         130
 IAtWgt=          16          16          12           1           1           1           1           1           1           1
 AtmWgt=  15.9949146  15.9949146  12.0000000   1.0078250   1.0078250   1.0078250   1.0078250   1.0078250   1.0078250   1.0078250
 NucSpn=           0           0           0           1           1           1           1           1           1           1
 AtZEff=  -0.0000000  -0.0000000  -0.0000000  -0.0000000  -0.0000000  -0.0000000  -0.0000000  -0.0000000  -0.0000000  -0.0000000
 NQMom=    0.0000000   0.0000000   0.0000000   0.0000000   0.0000000   0.0000000   0.0000000   0.0000000   0.0000000   0.0000000
 NMagM=    0.0000000   0.0000000   0.0000000   2.7928460   2.7928460   2.7928460   2.7928460   2.7928460   2.7928460   2.7928460
 AtZNuc=   8.0000000   8.0000000   6.0000000   1.0000000   1.0000000   1.0000000   1.0000000   1.0000000   1.0000000   1.0000000

  Atom       131         132         133         134         135         136         137         138         139         140
 IAtWgt=           1           1           1           1           1           1           1           1           1           1
 AtmWgt=   1.0078250   1.0078250   1.0078250   1.0078250   1.0078250   1.0078250   1.0078250   1.0078250   1.0078250   1.0078250
 NucSpn=           1           1           1           1           1           1           1           1           1           1
 AtZEff=  -0.0000000  -0.0000000  -0.0000000  -0.0000000  -0.0000000  -0.0000000  -0.0000000  -0.0000000  -0.0000000  -0.0000000
 NQMom=    0.0000000   0.0000000   0.0000000   0.0000000   0.0000000   0.0000000   0.0000000   0.0000000   0.0000000   0.0000000
 NMagM=    2.7928460   2.7928460   2.7928460   2.7928460   2.7928460   2.7928460   2.7928460   2.7928460   2.7928460   2.7928460
 AtZNuc=   1.0000000   1.0000000   1.0000000   1.0000000   1.0000000   1.0000000   1.0000000   1.0000000   1.0000000   1.0000000

  Atom       141         142         143         144         145         146         147         148         149         150
 IAtWgt=           1           1           1           1           1           1           1           1           1           1
 AtmWgt=   1.0078250   1.0078250   1.0078250   1.0078250   1.0078250   1.0078250   1.0078250   1.0078250   1.0078250   1.0078250
 NucSpn=           1           1           1           1           1           1           1           1           1           1
 AtZEff=  -0.0000000  -0.0000000  -0.0000000  -0.0000000  -0.0000000  -0.0000000  -0.0000000  -0.0000000  -0.0000000  -0.0000000
 NQMom=    0.0000000   0.0000000   0.0000000   0.0000000   0.0000000   0.0000000   0.0000000   0.0000000   0.0000000   0.0000000
 NMagM=    2.7928460   2.7928460   2.7928460   2.7928460   2.7928460   2.7928460   2.7928460   2.7928460   2.7928460   2.7928460
 AtZNuc=   1.0000000   1.0000000   1.0000000   1.0000000   1.0000000   1.0000000   1.0000000   1.0000000   1.0000000   1.0000000

  Atom       151         152         153         154         155         156         157         158
 IAtWgt=           1           1           1           1           1           1           1           1
 AtmWgt=   1.0078250   1.0078250   1.0078250   1.0078250   1.0078250   1.0078250   1.0078250   1.0078250
 NucSpn=           1           1           1           1           1           1           1           1
 AtZEff=  -0.0000000  -0.0000000  -0.0000000  -0.0000000  -0.0000000  -0.0000000  -0.0000000  -0.0000000
 NQMom=    0.0000000   0.0000000   0.0000000   0.0000000   0.0000000   0.0000000   0.0000000   0.0000000
 NMagM=    2.7928460   2.7928460   2.7928460   2.7928460   2.7928460   2.7928460   2.7928460   2.7928460
 AtZNuc=   1.0000000   1.0000000   1.0000000   1.0000000   1.0000000   1.0000000   1.0000000   1.0000000
 Leave Link  101 at Thu Sep  9 05:20:57 2021, MaxMem= 23488102400 cpu:               3.8 elap:               0.2
 (Enter /sw/apps/gaussian-16.0/g16/l202.exe)
 Stoichiometry    C68H72Mg2N8O8
 Framework group  C1[X(C68H72Mg2N8O8)]
 Deg. of freedom   468
 Full point group                 C1      NOp   1
 Largest Abelian subgroup         C1      NOp   1
 Largest concise Abelian subgroup C1      NOp   1
                         Standard orientation:                         
 ---------------------------------------------------------------------
 Center     Atomic      Atomic             Coordinates (Angstroms)
 Number     Number       Type             X           Y           Z
 ---------------------------------------------------------------------
      1         12           0        3.267906   -2.037638    0.400086
      2          6           0        4.753573    1.177065   -0.120193
      3          6           0        3.944582   -1.647662    3.721696
      4          6           0        2.378541   -5.051939    0.823925
      5          6           0        3.741669   -2.643009   -2.999140
      6          7           0        4.228933   -0.397829    1.535031
      7          6           0        4.700375    0.805877    1.225182
      8          6           0        5.063141    1.667014    2.471864
      9          6           0        5.303507    0.495197    3.525935
     10          6           0        4.412277   -0.570155    2.912208
     11          6           0        6.739368   -0.018898    3.548548
     12          6           0        3.886125    2.601098    2.912148
     13          6           0        4.262891    3.701604    3.908285
     14          1           0        3.603497    4.994676    3.805750
     15          7           0        2.727962   -2.995417    2.041418
     16          6           0        3.083065   -2.688320    3.312196
     17          6           0        2.427789   -3.696138    4.173356
     18          6           0        1.818194   -4.725453    3.286226
     19          6           0        2.312633   -4.307453    1.999298
     20          6           0        2.381976   -3.597110    5.667292
     21          6           0        0.939427   -5.905573    3.556812
     22          8           0        0.713423   -6.802014    2.673698
     23          6           0        0.414362   -6.032898    4.928358
     24          7           0        3.282377   -3.711278   -0.847453
     25          6           0        2.786837   -4.883330   -0.435484
     26          6           0        2.643773   -5.846873   -1.576124
     27          6           0        2.919078   -5.003923   -2.904053
     28          6           0        3.272335   -3.644554   -2.251677
     29          6           0        3.575692   -7.066075   -1.543191
     30          6           0        1.821042   -5.034488   -3.996666
     31          6           0        0.580693   -4.327658   -3.497645
     32          7           0        3.931428   -0.889203   -1.318017
     33          6           0        4.073241   -1.348540   -2.635428
     34          6           0        4.653271   -0.242088   -3.418625
     35          6           0        4.825095    0.785172   -2.492850
     36          6           0        4.404992    0.339268   -1.207169
     37          6           0        5.004310   -0.290955   -4.796601
     38          6           0        5.288815    2.147506   -2.285805
     39          8           0        5.667513    3.056530   -3.025910
     40          6           0        5.374757    2.414772   -0.718320
     41          6           0        4.710663    3.736857   -0.445594
     42          8           0        3.482694    3.882649   -0.613528
     43          8           0        5.572884    4.544593    0.190551
     44          6           0        4.967060    5.863109    0.517118
     45          1           0        4.315814   -1.739351    4.744301
     46          1           0        1.976767   -6.064269    0.902693
     47          1           0        3.838833   -2.730154   -4.082845
     48          1           0        5.969687    2.262888    2.364469
     49          1           0        4.945404    0.762234    4.520005
     50          1           0        7.331425    0.417299    2.744110
     51          1           0        6.663750   -1.099173    3.422923
     52          1           0        7.191561    0.137908    4.528195
     53          1           0        3.184097    2.031824    3.521365
     54          1           0        3.404730    3.050862    2.043069
     55          1           0        5.343997    3.828157    3.972331
     56          1           0        3.968854    3.374711    4.905724
     57          1           0        3.055783   -2.825868    6.038390
     58          1           0        2.791046   -4.527464    6.060755
     59          1           0        1.366697   -3.455996    6.038275
     60          1           0        1.247764   -6.092198    5.628696
     61          1           0       -0.264718   -6.884632    4.912509
     62          1           0       -0.135044   -5.125760    5.181737
     63          1           0        1.635966   -6.258107   -1.616583
     64          1           0        3.818553   -5.338223   -3.421607
     65          1           0        3.049186   -8.020462   -1.568546
     66          1           0        4.201365   -6.988103   -0.654515
     67          1           0        4.324796   -7.090305   -2.334186
     68          1           0        1.536666   -6.062250   -4.219785
     69          1           0        2.130365   -4.565696   -4.930906
     70          1           0        0.072684   -5.102679   -2.924844
     71          1           0       -0.032381   -3.997195   -4.336779
     72          1           0        0.831959   -3.523221   -2.806101
     73          1           0        4.658198    0.645940   -5.232953
     74          1           0        4.550260   -1.149633   -5.290678
     75          1           0        6.088644   -0.375073   -4.725884
     76          1           0        6.433178    2.427301   -0.460035
     77          1           0        5.608719    6.628265    0.080031
     78          1           0        4.824202    5.879371    1.597734
     79          1           0        4.016725    6.090179    0.032719
     80         12           0       -4.122525    0.735582   -0.508586
     81          6           0       -1.754076    3.428559   -0.640491
     82          6           0       -4.492969    1.422330    2.811920
     83          6           0       -5.865138   -1.904155   -0.258676
     84          6           0       -2.738264   -0.443092   -3.481834
     85          7           0       -3.189927    2.254387    0.801280
     86          6           0       -2.350349    3.263897    0.627099
     87          6           0       -2.199217    4.194816    1.860029
     88          6           0       -2.634257    3.153409    3.002427
     89          6           0       -3.524639    2.234096    2.168899
     90          6           0       -1.474386    2.333624    3.542782
     91          6           0       -3.172012    5.424643    1.803234
     92          6           0       -2.865860    6.533884    2.811995
     93          1           0       -3.096953    7.919785    2.414048
     94          7           0       -5.407272    0.172986    0.895506
     95          6           0       -5.426367    0.567085    2.186093
     96          6           0       -6.552193   -0.146857    2.808149
     97          6           0       -7.094053   -1.119401    1.820602
     98          6           0       -6.108424   -0.999981    0.764959
     99          6           0       -7.062413    0.178103    4.182018
    100          6           0       -8.292949   -2.018712    1.830742
    101          8           0       -8.440296   -2.954167    0.967010
    102          6           0       -9.242914   -1.832349    2.937234
    103          7           0       -4.143469   -1.046663   -1.578854
    104          6           0       -5.037129   -2.011259   -1.298012
    105          6           0       -5.044502   -3.076439   -2.368398
    106          6           0       -4.137998   -2.500867   -3.553541
    107          6           0       -3.670358   -1.183220   -2.897398
    108          6           0       -4.518456   -4.447927   -1.945704
    109          6           0       -4.783194   -2.435436   -4.964953
    110          6           0       -5.895163   -1.411338   -4.977151
    111          7           0       -2.666624    1.448984   -1.936686
    112          6           0       -2.215602    0.785517   -3.098785
    113          6           0       -1.141090    1.613668   -3.683607
    114          6           0       -1.024836    2.698565   -2.801570
    115          6           0       -1.946903    2.546326   -1.731003
    116          6           0       -0.389950    1.298685   -4.850943
    117          6           0       -0.324409    3.932555   -2.527035
    118          8           0        0.504140    4.613740   -3.129713
    119          6           0       -0.677772    4.395987   -1.048262
    120          6           0       -1.029294    5.857877   -1.091150
    121          8           0       -2.042651    6.246726   -1.698207
    122          8           0       -0.238353    6.526624   -0.232340
    123          6           0       -0.556509    7.979423   -0.230957
    124          1           0       -4.514300    1.405057    3.901936
    125          1           0       -6.518047   -2.779814   -0.279383
    126          1           0       -2.323989   -0.692276   -4.461098
    127          1           0       -1.191035    4.547081    2.042397
    128          1           0       -3.213688    3.641388    3.781849
    129          1           0       -0.565940    2.504019    2.984365
    130          1           0       -1.781270    1.299246    3.459538
    131          1           0       -1.343891    2.524166    4.611895
    132          1           0       -4.162580    5.114404    2.159983
    133          1           0       -3.208305    5.836334    0.813381
    134          1           0       -1.869576    6.422860    3.257007
    135          1           0       -3.550077    6.432201    3.657883
    136          1           0       -6.362347    0.821302    4.729384
    137          1           0       -7.071209   -0.758668    4.749698
    138          1           0       -8.072566    0.592939    4.168987
    139          1           0       -8.727457   -1.976249    3.883846
    140          1           0      -10.076681   -2.503696    2.722759
    141          1           0       -9.594933   -0.794783    2.925112
    142          1           0       -6.047506   -3.242353   -2.741963
    143          1           0       -3.236434   -3.111180   -3.710165
    144          1           0       -5.249262   -5.263404   -2.103802
    145          1           0       -4.226220   -4.395609   -0.905323
    146          1           0       -3.593866   -4.757279   -2.430102
    147          1           0       -5.242034   -3.394804   -5.216453
    148          1           0       -4.075451   -2.200535   -5.752937
    149          1           0       -6.746803   -1.966969   -4.573349
    150          1           0       -6.091309   -1.070921   -5.991878
    151          1           0       -5.680234   -0.588766   -4.285176
    152          1           0       -0.313608    2.210897   -5.427609
    153          1           0       -0.861278    0.503196   -5.424378
    154          1           0        0.550361    0.975363   -4.396476
    155          1           0        0.197492    4.203456   -0.426651
    156          1           0        0.374328    8.510541   -0.452673
    157          1           0       -1.030262    8.180564    0.748250
    158          1           0       -1.204389    8.351360   -1.016048
 ---------------------------------------------------------------------
 Rotational constants (GHZ):           0.0216647           0.0176075           0.0143866
 Leave Link  202 at Thu Sep  9 05:20:57 2021, MaxMem= 23488102400 cpu:               0.2 elap:               0.0
 (Enter /sw/apps/gaussian-16.0/g16/l301.exe)
 Standard basis: def2SVP (5D, 7F)
 Ernie: Thresh=  0.10000D-02 Tol=  0.10000D-05 Strict=F.
 There are  1658 symmetry adapted cartesian basis functions of A   symmetry.
 There are  1572 symmetry adapted basis functions of A   symmetry.
  1572 basis functions,  2678 primitive gaussians,  1658 cartesian basis functions
   312 alpha electrons      312 beta electrons
       nuclear repulsion energy     16123.9277338309 Hartrees.
 IExCor=20419 DFT=T Ex+Corr=CAM-B3LYP ExCW=0 ScaHFX=  1.000000
 ScaDFX=  1.000000  1.000000  1.000000  0.810000 ScalE2=  1.000000  1.000000
 IRadAn=      5 IRanWt=     -1 IRanGd=            0 ICorTp=0 IEmpDi=  4
 HFx  wShort=  0.000000 wLong=  0.330000 cFull=  0.190000 cShort=  0.000000 cLong=  0.460000
 DFx  wShort=  0.000000 wLong=  0.330000 cFull=  0.190000 cShort=  0.000000 cLong=  0.460000
 NAtoms=  158 NActive=  158 NUniq=  158 SFac= 1.00D+00 NAtFMM=   60 NAOKFM=T Big=T
 Integral buffers will be    131072 words long.
 Raffenetti 1 integral format.
 Two-electron integral symmetry is turned on.
 Leave Link  301 at Thu Sep  9 05:20:58 2021, MaxMem= 23488102400 cpu:               1.3 elap:               0.1
 (Enter /sw/apps/gaussian-16.0/g16/l302.exe)
 NPDir=0 NMtPBC=     1 NCelOv=     1 NCel=       1 NClECP=     1 NCelD=      1
         NCelK=      1 NCelE2=     1 NClLst=     1 CellRange=     0.0.
 One-electron integrals computed using PRISM.
 One-electron integral symmetry used in STVInt
   1 Symmetry operations used in ECPInt.
 ECPInt:  NShTT=  271216 NPrTT=  987664 LenC2=  166287 LenP2D=  349142.
 LDataN:  DoStor=T MaxTD1= 4 Len=   56
 NBasis=  1572 RedAO= T EigKep=  3.35D-04  NBF=  1572
 NBsUse=  1572 1.00D-06 EigRej= -1.00D+00 NBFU=  1572
 Precomputing XC quadrature grid using
 IXCGrd= 4 IRadAn=           5 IRanWt=          -1 IRanGd=           0 AccXCQ= 0.00D+00.
 Generated NRdTot=       0 NPtTot=           0 NUsed=           0 NTot=          32
 NSgBfM=  1224  1203  1209  1218  1224 MxSgAt=   158 MxSgA2=   158.
 Leave Link  302 at Thu Sep  9 05:21:03 2021, MaxMem= 23488102400 cpu:             131.0 elap:               5.5
 (Enter /sw/apps/gaussian-16.0/g16/l303.exe)
 DipDrv:  MaxL=1.
 Leave Link  303 at Thu Sep  9 05:21:04 2021, MaxMem= 23488102400 cpu:              11.4 elap:               0.5
 (Enter /sw/apps/gaussian-16.0/g16/l308.exe)
 Leave Link  308 at Thu Sep  9 05:21:04 2021, MaxMem= 23488102400 cpu:              15.2 elap:               0.7
 (Enter /sw/apps/gaussian-16.0/g16/l401.exe)
 ExpMin= 3.36D-02 ExpMax= 4.95D+03 ExpMxC= 7.45D+02 IAcc=3 IRadAn=         5 AccDes= 0.00D+00
 Harris functional with IExCor=20419 and IRadAn=       5 diagonalized for initial guess.
 HarFok:  IExCor=20419 AccDes= 0.00D+00 IRadAn=         5 IDoV= 1 UseB2=F ITyADJ=14
 ICtDFT=  3500011 ScaDFX=  1.000000  1.000000  1.000000  1.000000
 FoFCou: FMM=F IPFlag=           0 FMFlag=      100000 FMFlg1=        2001
         NFxFlg=           0 DoJE=T BraDBF=F KetDBF=T FulRan=T
         wScrn=  0.000000 ICntrl=       500 IOpCl=  0 I1Cent=   200000004 NGrid=           0
         NMat0=    1 NMatS0=      1 NMatT0=    0 NMatD0=    1 NMtDS0=    0 NMtDT0=    0
 Petite list used in FoFCou.
 Harris En= -3918.66020918876    
 JPrj=0 DoOrth=F DoCkMO=F.
 Leave Link  401 at Thu Sep  9 05:21:13 2021, MaxMem= 23488102400 cpu:             211.6 elap:               8.8
 (Enter /sw/apps/gaussian-16.0/g16/l502.exe)
 Integral symmetry usage will be decided dynamically.
 Closed shell SCF:
 Using DIIS extrapolation, IDIIS=  1040.
 NGot= 23488102400 LenX= 23482547354 LenY= 23479796732
 Requested convergence on RMS density matrix=1.00D-08 within 128 cycles.
 Requested convergence on MAX density matrix=1.00D-06.
 Requested convergence on             energy=1.00D-06.
 No special actions if energy rises.
 Fock matrices will be formed incrementally for  20 cycles.

 Cycle   1  Pass 1  IDiag  1:
 FoFJK:  IHMeth= 1 ICntrl=       0 DoSepK=T KAlg= 0 I1Cent=           0 FoldK=F
 IRaf=         1 NMat=       1 IRICut=       1 DoRegI=T DoRafI=F ISym2E= 0 IDoP0=0 IntGTp=1.
 FoFCou: FMM=T IPFlag=           0 FMFlag=      100000 FMFlg1=        2001
         NFxFlg=           0 DoJE=T BraDBF=F KetDBF=F FulRan=T
         wScrn=  0.000000 ICntrl=       500 IOpCl=  0 I1Cent=           0 NGrid=           0
         NMat0=    1 NMatS0=      1 NMatT0=    0 NMatD0=    1 NMtDS0=    0 NMtDT0=    0
 Symmetry not used in FoFCou.
 FMM levels:  10  Number of levels for PrismC:   9
 E= -4068.94458306055    
 DIIS: error= 1.99D-02 at cycle   1 NSaved=   1.
 NSaved= 1 IEnMin= 1 EnMin= -4068.94458306055     IErMin= 1 ErrMin= 1.99D-02
 ErrMax= 1.99D-02  0.00D+00 EMaxC= 1.00D-01 BMatC= 1.69D+00 BMatP= 1.69D+00
 IDIUse=3 WtCom= 8.01D-01 WtEn= 1.99D-01
 Coeff-Com:  0.100D+01
 Coeff-En:   0.100D+01
 Coeff:      0.100D+01
 Gap=     0.121 Goal=   None    Shift=    0.000
 GapD=    0.121 DampG=1.000 DampE=0.500 DampFc=0.5000 IDamp=-1.
 Damping current iteration by 5.00D-01
 RMSDP=1.59D-03 MaxDP=1.42D-01              OVMax= 2.18D-01

 Cycle   2  Pass 1  IDiag  1:
 RMSU=  7.77D-04    CP:  9.82D-01
 E= -4069.33336887584     Delta-E=       -0.388785815288 Rises=F Damp=T
 DIIS: error= 1.24D-02 at cycle   2 NSaved=   2.
 NSaved= 2 IEnMin= 2 EnMin= -4069.33336887584     IErMin= 2 ErrMin= 1.24D-02
 ErrMax= 1.24D-02  0.00D+00 EMaxC= 1.00D-01 BMatC= 3.08D-01 BMatP= 1.69D+00
 IDIUse=3 WtCom= 8.76D-01 WtEn= 1.24D-01
 Coeff-Com: -0.210D+00 0.121D+01
 Coeff-En:   0.000D+00 0.100D+01
 Coeff:     -0.184D+00 0.118D+01
 Gap=     0.132 Goal=   None    Shift=    0.000
 RMSDP=7.81D-04 MaxDP=1.08D-01 DE=-3.89D-01 OVMax= 2.06D-01

 Cycle   3  Pass 1  IDiag  1:
 RMSU=  7.51D-04    CP:  9.68D-01  1.22D+00
 E= -4069.61432007438     Delta-E=       -0.280951198543 Rises=F Damp=F
 DIIS: error= 1.56D-02 at cycle   3 NSaved=   3.
 NSaved= 3 IEnMin= 3 EnMin= -4069.61432007438     IErMin= 2 ErrMin= 1.24D-02
 ErrMax= 1.56D-02  0.00D+00 EMaxC= 1.00D-01 BMatC= 2.10D-01 BMatP= 3.08D-01
 IDIUse=3 WtCom= 8.44D-01 WtEn= 1.56D-01
 Coeff-Com: -0.268D+00 0.658D+00 0.611D+00
 Coeff-En:   0.000D+00 0.000D+00 0.100D+01
 Coeff:     -0.226D+00 0.555D+00 0.671D+00
 Gap=     0.121 Goal=   None    Shift=    0.000
 RMSDP=5.43D-04 MaxDP=4.66D-02 DE=-2.81D-01 OVMax= 1.81D-01

 Cycle   4  Pass 1  IDiag  1:
 RMSU=  2.80D-04    CP:  9.64D-01  1.55D+00  4.82D-01
 E= -4069.75647205061     Delta-E=       -0.142151976230 Rises=F Damp=F
 DIIS: error= 7.01D-03 at cycle   4 NSaved=   4.
 NSaved= 4 IEnMin= 4 EnMin= -4069.75647205061     IErMin= 4 ErrMin= 7.01D-03
 ErrMax= 7.01D-03  0.00D+00 EMaxC= 1.00D-01 BMatC= 5.48D-02 BMatP= 2.10D-01
 IDIUse=3 WtCom= 9.30D-01 WtEn= 7.01D-02
 Coeff-Com: -0.112D+00 0.234D+00 0.412D+00 0.466D+00
 Coeff-En:   0.000D+00 0.000D+00 0.239D+00 0.761D+00
 Coeff:     -0.104D+00 0.218D+00 0.400D+00 0.487D+00
 Gap=     0.119 Goal=   None    Shift=    0.000
 RMSDP=2.26D-04 MaxDP=1.89D-02 DE=-1.42D-01 OVMax= 9.10D-02

 Cycle   5  Pass 1  IDiag  1:
 RMSU=  8.79D-05    CP:  9.64D-01  1.48D+00  6.83D-01  5.20D-01
 E= -4069.80891605202     Delta-E=       -0.052444001405 Rises=F Damp=F
 DIIS: error= 6.90D-04 at cycle   5 NSaved=   5.
 NSaved= 5 IEnMin= 5 EnMin= -4069.80891605202     IErMin= 5 ErrMin= 6.90D-04
 ErrMax= 6.90D-04  0.00D+00 EMaxC= 1.00D-01 BMatC= 1.75D-03 BMatP= 5.48D-02
 IDIUse=3 WtCom= 9.93D-01 WtEn= 6.90D-03
 Coeff-Com: -0.422D-01 0.835D-01 0.187D+00 0.268D+00 0.504D+00
 Coeff-En:   0.000D+00 0.000D+00 0.000D+00 0.000D+00 0.100D+01
 Coeff:     -0.419D-01 0.830D-01 0.186D+00 0.266D+00 0.508D+00
 Gap=     0.118 Goal=   None    Shift=    0.000
 RMSDP=5.43D-05 MaxDP=5.08D-03 DE=-5.24D-02 OVMax= 2.81D-02

 Cycle   6  Pass 1  IDiag  1:
 RMSU=  3.68D-05    CP:  9.64D-01  1.49D+00  6.70D-01  6.09D-01  6.71D-01
 E= -4069.81068194924     Delta-E=       -0.001765897228 Rises=F Damp=F
 DIIS: error= 2.52D-04 at cycle   6 NSaved=   6.
 NSaved= 6 IEnMin= 6 EnMin= -4069.81068194924     IErMin= 6 ErrMin= 2.52D-04
 ErrMax= 2.52D-04  0.00D+00 EMaxC= 1.00D-01 BMatC= 2.54D-04 BMatP= 1.75D-03
 IDIUse=3 WtCom= 9.97D-01 WtEn= 2.52D-03
 Coeff-Com:  0.140D-02-0.516D-02 0.162D-01 0.460D-01 0.296D+00 0.646D+00
 Coeff-En:   0.000D+00 0.000D+00 0.000D+00 0.000D+00 0.123D+00 0.877D+00
 Coeff:      0.140D-02-0.514D-02 0.162D-01 0.459D-01 0.295D+00 0.646D+00
 Gap=     0.119 Goal=   None    Shift=    0.000
 RMSDP=2.00D-05 MaxDP=1.58D-03 DE=-1.77D-03 OVMax= 9.93D-03

 Cycle   7  Pass 1  IDiag  1:
 RMSU=  1.24D-05    CP:  9.64D-01  1.49D+00  6.77D-01  6.05D-01  7.97D-01
                    CP:  7.37D-01
 E= -4069.81098279329     Delta-E=       -0.000300844047 Rises=F Damp=F
 DIIS: error= 1.36D-04 at cycle   7 NSaved=   7.
 NSaved= 7 IEnMin= 7 EnMin= -4069.81098279329     IErMin= 7 ErrMin= 1.36D-04
 ErrMax= 1.36D-04  0.00D+00 EMaxC= 1.00D-01 BMatC= 3.37D-05 BMatP= 2.54D-04
 IDIUse=3 WtCom= 9.99D-01 WtEn= 1.36D-03
 Coeff-Com:  0.491D-02-0.108D-01-0.911D-02-0.312D-02 0.108D+00 0.348D+00
 Coeff-Com:  0.562D+00
 Coeff-En:   0.000D+00 0.000D+00 0.000D+00 0.000D+00 0.000D+00 0.000D+00
 Coeff-En:   0.100D+01
 Coeff:      0.490D-02-0.108D-01-0.910D-02-0.311D-02 0.108D+00 0.348D+00
 Coeff:      0.562D+00
 Gap=     0.119 Goal=   None    Shift=    0.000
 RMSDP=7.17D-06 MaxDP=1.20D-03 DE=-3.01D-04 OVMax= 3.60D-03

 Cycle   8  Pass 1  IDiag  1:
 RMSU=  5.24D-06    CP:  9.64D-01  1.49D+00  6.78D-01  6.10D-01  7.96D-01
                    CP:  8.45D-01  8.23D-01
 E= -4069.81102272888     Delta-E=       -0.000039935589 Rises=F Damp=F
 DIIS: error= 5.98D-05 at cycle   8 NSaved=   8.
 NSaved= 8 IEnMin= 8 EnMin= -4069.81102272888     IErMin= 8 ErrMin= 5.98D-05
 ErrMax= 5.98D-05  0.00D+00 EMaxC= 1.00D-01 BMatC= 5.17D-06 BMatP= 3.37D-05
 IDIUse=1 WtCom= 1.00D+00 WtEn= 0.00D+00
 Coeff-Com:  0.232D-02-0.464D-02-0.799D-02-0.120D-01-0.454D-02 0.327D-01
 Coeff-Com:  0.289D+00 0.705D+00
 Coeff:      0.232D-02-0.464D-02-0.799D-02-0.120D-01-0.454D-02 0.327D-01
 Coeff:      0.289D+00 0.705D+00
 Gap=     0.119 Goal=   None    Shift=    0.000
 RMSDP=3.64D-06 MaxDP=4.48D-04 DE=-3.99D-05 OVMax= 1.33D-03

 Cycle   9  Pass 1  IDiag  1:
 RMSU=  2.19D-06    CP:  9.63D-01  1.49D+00  6.79D-01  6.12D-01  8.12D-01
                    CP:  8.76D-01  1.00D+00  9.95D-01
 E= -4069.81103132148     Delta-E=       -0.000008592600 Rises=F Damp=F
 DIIS: error= 2.28D-05 at cycle   9 NSaved=   9.
 NSaved= 9 IEnMin= 9 EnMin= -4069.81103132148     IErMin= 9 ErrMin= 2.28D-05
 ErrMax= 2.28D-05  0.00D+00 EMaxC= 1.00D-01 BMatC= 1.01D-06 BMatP= 5.17D-06
 IDIUse=1 WtCom= 1.00D+00 WtEn= 0.00D+00
 Coeff-Com:  0.524D-03-0.877D-03-0.288D-02-0.623D-02-0.175D-01-0.425D-01
 Coeff-Com:  0.784D-01 0.367D+00 0.624D+00
 Coeff:      0.524D-03-0.877D-03-0.288D-02-0.623D-02-0.175D-01-0.425D-01
 Coeff:      0.784D-01 0.367D+00 0.624D+00
 Gap=     0.119 Goal=   None    Shift=    0.000
 RMSDP=1.65D-06 MaxDP=1.62D-04 DE=-8.59D-06 OVMax= 9.31D-04

 Cycle  10  Pass 1  IDiag  1:
 RMSU=  1.09D-06    CP:  9.63D-01  1.49D+00  6.79D-01  6.12D-01  8.16D-01
                    CP:  8.86D-01  1.05D+00  1.17D+00  1.03D+00
 E= -4069.81103350934     Delta-E=       -0.000002187855 Rises=F Damp=F
 DIIS: error= 1.02D-05 at cycle  10 NSaved=  10.
 NSaved=10 IEnMin=10 EnMin= -4069.81103350934     IErMin=10 ErrMin= 1.02D-05
 ErrMax= 1.02D-05  0.00D+00 EMaxC= 1.00D-01 BMatC= 2.27D-07 BMatP= 1.01D-06
 IDIUse=1 WtCom= 1.00D+00 WtEn= 0.00D+00
 Coeff-Com: -0.434D-03 0.924D-03 0.114D-02 0.756D-03-0.394D-02-0.338D-01
 Coeff-Com: -0.423D-01-0.502D-01 0.238D+00 0.890D+00
 Coeff:     -0.434D-03 0.924D-03 0.114D-02 0.756D-03-0.394D-02-0.338D-01
 Coeff:     -0.423D-01-0.502D-01 0.238D+00 0.890D+00
 Gap=     0.119 Goal=   None    Shift=    0.000
 RMSDP=1.38D-06 MaxDP=1.25D-04 DE=-2.19D-06 OVMax= 7.50D-04

 Cycle  11  Pass 1  IDiag  1:
 RMSU=  6.49D-07    CP:  9.63D-01  1.49D+00  6.79D-01  6.13D-01  8.18D-01
                    CP:  8.95D-01  1.09D+00  1.28D+00  1.38D+00  1.31D+00
 E= -4069.81103452887     Delta-E=       -0.000001019533 Rises=F Damp=F
 DIIS: error= 5.31D-06 at cycle  11 NSaved=  11.
 NSaved=11 IEnMin=11 EnMin= -4069.81103452887     IErMin=11 ErrMin= 5.31D-06
 ErrMax= 5.31D-06  0.00D+00 EMaxC= 1.00D-01 BMatC= 1.09D-07 BMatP= 2.27D-07
 IDIUse=1 WtCom= 1.00D+00 WtEn= 0.00D+00
 Coeff-Com: -0.391D-03 0.767D-03 0.149D-02 0.215D-02 0.387D-02-0.109D-01
 Coeff-Com: -0.420D-01-0.134D+00-0.373D-01 0.538D+00 0.678D+00
 Coeff:     -0.391D-03 0.767D-03 0.149D-02 0.215D-02 0.387D-02-0.109D-01
 Coeff:     -0.420D-01-0.134D+00-0.373D-01 0.538D+00 0.678D+00
 Gap=     0.119 Goal=   None    Shift=    0.000
 RMSDP=8.25D-07 MaxDP=8.55D-05 DE=-1.02D-06 OVMax= 5.20D-04

 Cycle  12  Pass 1  IDiag  1:
 RMSU=  3.22D-07    CP:  9.63D-01  1.49D+00  6.79D-01  6.13D-01  8.19D-01
                    CP:  8.97D-01  1.11D+00  1.36D+00  1.53D+00  1.72D+00
                    CP:  1.13D+00
 E= -4069.81103492120     Delta-E=       -0.000000392331 Rises=F Damp=F
 DIIS: error= 3.73D-06 at cycle  12 NSaved=  12.
 NSaved=12 IEnMin=12 EnMin= -4069.81103492120     IErMin=12 ErrMin= 3.73D-06
 ErrMax= 3.73D-06  0.00D+00 EMaxC= 1.00D-01 BMatC= 2.73D-08 BMatP= 1.09D-07
 IDIUse=1 WtCom= 1.00D+00 WtEn= 0.00D+00
 Coeff-Com: -0.561D-04 0.899D-04 0.411D-03 0.825D-03 0.412D-02 0.322D-02
 Coeff-Com: -0.292D-02-0.514D-01-0.886D-01 0.116D-01 0.287D+00 0.836D+00
 Coeff:     -0.561D-04 0.899D-04 0.411D-03 0.825D-03 0.412D-02 0.322D-02
 Coeff:     -0.292D-02-0.514D-01-0.886D-01 0.116D-01 0.287D+00 0.836D+00
 Gap=     0.119 Goal=   None    Shift=    0.000
 RMSDP=5.15D-07 MaxDP=2.77D-05 DE=-3.92D-07 OVMax= 3.07D-04

 Cycle  13  Pass 1  IDiag  1:
 RMSU=  1.87D-07    CP:  9.63D-01  1.49D+00  6.79D-01  6.13D-01  8.19D-01
                    CP:  8.97D-01  1.12D+00  1.39D+00  1.65D+00  1.94D+00
                    CP:  1.53D+00  1.22D+00
 E= -4069.81103506157     Delta-E=       -0.000000140368 Rises=F Damp=F
 DIIS: error= 2.06D-06 at cycle  13 NSaved=  13.
 NSaved=13 IEnMin=13 EnMin= -4069.81103506157     IErMin=13 ErrMin= 2.06D-06
 ErrMax= 2.06D-06  0.00D+00 EMaxC= 1.00D-01 BMatC= 1.20D-08 BMatP= 2.73D-08
 IDIUse=1 WtCom= 1.00D+00 WtEn= 0.00D+00
 Coeff-Com:  0.124D-03-0.255D-03-0.353D-03-0.407D-03 0.114D-02 0.523D-02
 Coeff-Com:  0.174D-01 0.225D-01-0.369D-01-0.228D+00-0.168D+00 0.503D+00
 Coeff-Com:  0.885D+00
 Coeff:      0.124D-03-0.255D-03-0.353D-03-0.407D-03 0.114D-02 0.523D-02
 Coeff:      0.174D-01 0.225D-01-0.369D-01-0.228D+00-0.168D+00 0.503D+00
 Coeff:      0.885D+00
 Gap=     0.119 Goal=   None    Shift=    0.000
 RMSDP=4.48D-07 MaxDP=2.34D-05 DE=-1.40D-07 OVMax= 3.13D-04

 Cycle  14  Pass 1  IDiag  1:
 RMSU=  9.26D-08    CP:  9.63D-01  1.49D+00  6.79D-01  6.13D-01  8.20D-01
                    CP:  8.98D-01  1.13D+00  1.42D+00  1.74D+00  2.17D+00
                    CP:  1.81D+00  1.76D+00  1.23D+00
 E= -4069.81103512342     Delta-E=       -0.000000061857 Rises=F Damp=F
 DIIS: error= 9.40D-07 at cycle  14 NSaved=  14.
 NSaved=14 IEnMin=14 EnMin= -4069.81103512342     IErMin=14 ErrMin= 9.40D-07
 ErrMax= 9.40D-07  0.00D+00 EMaxC= 1.00D-01 BMatC= 1.99D-09 BMatP= 1.20D-08
 IDIUse=1 WtCom= 1.00D+00 WtEn= 0.00D+00
 Coeff-Com:  0.780D-04-0.154D-03-0.281D-03-0.425D-03-0.337D-03 0.137D-02
 Coeff-Com:  0.100D-01 0.225D-01 0.607D-02-0.108D+00-0.153D+00 0.319D-01
 Coeff-Com:  0.438D+00 0.752D+00
 Coeff:      0.780D-04-0.154D-03-0.281D-03-0.425D-03-0.337D-03 0.137D-02
 Coeff:      0.100D-01 0.225D-01 0.607D-02-0.108D+00-0.153D+00 0.319D-01
 Coeff:      0.438D+00 0.752D+00
 Gap=     0.119 Goal=   None    Shift=    0.000
 RMSDP=1.52D-07 MaxDP=8.50D-06 DE=-6.19D-08 OVMax= 9.26D-05

 Cycle  15  Pass 1  IDiag  1:
 RMSU=  4.52D-08    CP:  9.63D-01  1.49D+00  6.79D-01  6.13D-01  8.20D-01
                    CP:  8.98D-01  1.13D+00  1.42D+00  1.76D+00  2.23D+00
                    CP:  1.93D+00  1.94D+00  1.50D+00  1.07D+00
 E= -4069.81103513062     Delta-E=       -0.000000007196 Rises=F Damp=F
 DIIS: error= 4.60D-07 at cycle  15 NSaved=  15.
 NSaved=15 IEnMin=15 EnMin= -4069.81103513062     IErMin=15 ErrMin= 4.60D-07
 ErrMax= 4.60D-07  0.00D+00 EMaxC= 1.00D-01 BMatC= 3.09D-10 BMatP= 1.99D-09
 IDIUse=1 WtCom= 1.00D+00 WtEn= 0.00D+00
 Coeff-Com:  0.123D-04-0.224D-04-0.587D-04-0.120D-03-0.312D-03-0.466D-03
 Coeff-Com:  0.153D-02 0.483D-02 0.970D-02-0.748D-02-0.342D-01-0.737D-01
 Coeff-Com:  0.586D-01 0.325D+00 0.717D+00
 Coeff:      0.123D-04-0.224D-04-0.587D-04-0.120D-03-0.312D-03-0.466D-03
 Coeff:      0.153D-02 0.483D-02 0.970D-02-0.748D-02-0.342D-01-0.737D-01
 Coeff:      0.586D-01 0.325D+00 0.717D+00
 Gap=     0.119 Goal=   None    Shift=    0.000
 RMSDP=3.86D-08 MaxDP=2.36D-06 DE=-7.20D-09 OVMax= 3.14D-05

 Cycle  16  Pass 1  IDiag  1:
 RMSU=  2.16D-08    CP:  9.63D-01  1.49D+00  6.79D-01  6.13D-01  8.20D-01
                    CP:  8.98D-01  1.13D+00  1.42D+00  1.77D+00  2.24D+00
                    CP:  1.95D+00  1.97D+00  1.57D+00  1.24D+00  1.10D+00
 E= -4069.81103513135     Delta-E=       -0.000000000735 Rises=F Damp=F
 DIIS: error= 2.23D-07 at cycle  16 NSaved=  16.
 NSaved=16 IEnMin=16 EnMin= -4069.81103513135     IErMin=16 ErrMin= 2.23D-07
 ErrMax= 2.23D-07  0.00D+00 EMaxC= 1.00D-01 BMatC= 1.13D-10 BMatP= 3.09D-10
 IDIUse=1 WtCom= 1.00D+00 WtEn= 0.00D+00
 Coeff-Com: -0.133D-04 0.271D-04 0.406D-04 0.406D-04-0.766D-04-0.628D-03
 Coeff-Com: -0.162D-02-0.371D-02 0.430D-02 0.220D-01 0.222D-01-0.541D-01
 Coeff-Com: -0.753D-01-0.362D-01 0.370D+00 0.753D+00
 Coeff:     -0.133D-04 0.271D-04 0.406D-04 0.406D-04-0.766D-04-0.628D-03
 Coeff:     -0.162D-02-0.371D-02 0.430D-02 0.220D-01 0.222D-01-0.541D-01
 Coeff:     -0.753D-01-0.362D-01 0.370D+00 0.753D+00
 Gap=     0.119 Goal=   None    Shift=    0.000
 RMSDP=2.74D-08 MaxDP=1.57D-06 DE=-7.35D-10 OVMax= 1.66D-05

 Cycle  17  Pass 1  IDiag  1:
 RMSU=  1.21D-08    CP:  9.63D-01  1.49D+00  6.79D-01  6.13D-01  8.20D-01
                    CP:  8.98D-01  1.13D+00  1.42D+00  1.77D+00  2.24D+00
                    CP:  1.96D+00  2.00D+00  1.62D+00  1.33D+00  1.38D+00
                    CP:  1.21D+00
 E= -4069.81103513203     Delta-E=       -0.000000000673 Rises=F Damp=F
 DIIS: error= 7.98D-08 at cycle  17 NSaved=  17.
 NSaved=17 IEnMin=17 EnMin= -4069.81103513203     IErMin=17 ErrMin= 7.98D-08
 ErrMax= 7.98D-08  0.00D+00 EMaxC= 1.00D-01 BMatC= 2.33D-11 BMatP= 1.13D-10
 IDIUse=1 WtCom= 1.00D+00 WtEn= 0.00D+00
 Coeff-Com: -0.863D-05 0.169D-04 0.320D-04 0.447D-04 0.581D-04-0.160D-03
 Coeff-Com: -0.939D-03-0.301D-02 0.179D-04 0.103D-01 0.193D-01-0.747D-02
 Coeff-Com: -0.386D-01-0.969D-01-0.108D-01 0.306D+00 0.822D+00
 Coeff:     -0.863D-05 0.169D-04 0.320D-04 0.447D-04 0.581D-04-0.160D-03
 Coeff:     -0.939D-03-0.301D-02 0.179D-04 0.103D-01 0.193D-01-0.747D-02
 Coeff:     -0.386D-01-0.969D-01-0.108D-01 0.306D+00 0.822D+00
 Gap=     0.119 Goal=   None    Shift=    0.000
 RMSDP=1.42D-08 MaxDP=8.65D-07 DE=-6.73D-10 OVMax= 1.01D-05

 Cycle  18  Pass 1  IDiag  1:
 RMSU=  5.93D-09    CP:  9.63D-01  1.49D+00  6.79D-01  6.13D-01  8.20D-01
                    CP:  8.98D-01  1.13D+00  1.42D+00  1.77D+00  2.24D+00
                    CP:  1.96D+00  2.00D+00  1.64D+00  1.39D+00  1.53D+00
                    CP:  1.57D+00  1.34D+00
 E= -4069.81103513226     Delta-E=       -0.000000000236 Rises=F Damp=F
 DIIS: error= 6.90D-08 at cycle  18 NSaved=  18.
 NSaved=18 IEnMin=18 EnMin= -4069.81103513226     IErMin=18 ErrMin= 6.90D-08
 ErrMax= 6.90D-08  0.00D+00 EMaxC= 1.00D-01 BMatC= 9.36D-12 BMatP= 2.33D-11
 IDIUse=1 WtCom= 1.00D+00 WtEn= 0.00D+00
 Coeff-Com:  0.476D-06-0.132D-05 0.130D-05 0.647D-05 0.660D-04 0.151D-03
 Coeff-Com:  0.191D-03-0.206D-03-0.121D-02-0.363D-02 0.199D-02 0.131D-01
 Coeff-Com:  0.120D-01-0.358D-01-0.137D+00-0.140D+00 0.391D+00 0.900D+00
 Coeff:      0.476D-06-0.132D-05 0.130D-05 0.647D-05 0.660D-04 0.151D-03
 Coeff:      0.191D-03-0.206D-03-0.121D-02-0.363D-02 0.199D-02 0.131D-01
 Coeff:      0.120D-01-0.358D-01-0.137D+00-0.140D+00 0.391D+00 0.900D+00
 Gap=     0.119 Goal=   None    Shift=    0.000
 RMSDP=1.14D-08 MaxDP=5.46D-07 DE=-2.36D-10 OVMax= 6.90D-06

 Cycle  19  Pass 1  IDiag  1:
 RMSU=  3.33D-09    CP:  9.63D-01  1.49D+00  6.79D-01  6.13D-01  8.20D-01
                    CP:  8.98D-01  1.13D+00  1.42D+00  1.77D+00  2.24D+00
                    CP:  1.97D+00  2.01D+00  1.65D+00  1.42D+00  1.65D+00
                    CP:  1.82D+00  1.84D+00  1.24D+00
 E= -4069.81103513201     Delta-E=        0.000000000255 Rises=F Damp=F
 DIIS: error= 2.75D-08 at cycle  19 NSaved=  19.
 NSaved=19 IEnMin=18 EnMin= -4069.81103513226     IErMin=19 ErrMin= 2.75D-08
 ErrMax= 2.75D-08  0.00D+00 EMaxC= 1.00D-01 BMatC= 2.44D-12 BMatP= 9.36D-12
 IDIUse=1 WtCom= 1.00D+00 WtEn= 0.00D+00
 Coeff-Com:  0.309D-05-0.629D-05-0.988D-05-0.112D-04 0.240D-04 0.140D-03
 Coeff-Com:  0.440D-03 0.848D-03-0.639D-03-0.595D-02-0.516D-02 0.962D-02
 Coeff-Com:  0.218D-01 0.116D-01-0.764D-01-0.193D+00-0.337D-01 0.501D+00
 Coeff-Com:  0.769D+00
 Coeff:      0.309D-05-0.629D-05-0.988D-05-0.112D-04 0.240D-04 0.140D-03
 Coeff:      0.440D-03 0.848D-03-0.639D-03-0.595D-02-0.516D-02 0.962D-02
 Coeff:      0.218D-01 0.116D-01-0.764D-01-0.193D+00-0.337D-01 0.501D+00
 Coeff:      0.769D+00
 Gap=     0.119 Goal=   None    Shift=    0.000
 RMSDP=6.27D-09 MaxDP=5.02D-07 DE= 2.55D-10 OVMax= 4.33D-06

 SCF Done:  E(RCAM-B3LYP) =  -4069.81103513     A.U. after   19 cycles
            NFock= 19  Conv=0.63D-08     -V/T= 2.0102
 KE= 4.028786824191D+03 PE=-4.172982110526D+04 EE= 1.750729551210D+04
 Leave Link  502 at Thu Sep  9 05:34:28 2021, MaxMem= 23488102400 cpu:           18418.2 elap:             794.5
 (Enter /sw/apps/gaussian-16.0/g16/l801.exe)
 DoSCS=F DFT=T ScalE2(SS,OS)=  1.000000  1.000000
 ExpMin= 3.36D-02 ExpMax= 4.95D+03 ExpMxC= 7.45D+02 IAcc=3 IRadAn=         5 AccDes= 0.00D+00
 HarFok:  IExCor=  205 AccDes= 0.00D+00 IRadAn=         5 IDoV=-2 UseB2=F ITyADJ=14
 ICtDFT= 12500011 ScaDFX=  1.000000  1.000000  1.000000  1.000000
 GSVD:  LWork=       -9588 too small for GESVD, short by       45590 words or       45590 for optimal perf.
 Largest valence mixing into a core orbital is  2.03D-04
 Largest core mixing into a valence orbital is  5.23D-05
 Range of M.O.s used for correlation:    95  1572
 NBasis=  1572 NAE=   312 NBE=   312 NFC=    94 NFV=     0
 NROrb=   1478 NOA=   218 NOB=   218 NVA=  1260 NVB=  1260
 Leave Link  801 at Thu Sep  9 05:34:28 2021, MaxMem= 23488102400 cpu:               8.9 elap:               0.4
 (Enter /sw/apps/gaussian-16.0/g16/l914.exe)
 RHF ground state
 Two-electron integrals replicated using symmetry.
 MDV= 23488102400 DFT=T DoStab=F Mixed=T DoRPA=T DoScal=F NonHer=T
 Making orbital integer symmetry assigments:
 Orbital symmetries:
       Occupied  (A) (A) (A) (A) (A) (A) (A) (A) (A) (A) (A) (A)
                 (A) (A) (A) (A) (A) (A) (A) (A) (A) (A) (A) (A)
                 (A) (A) (A) (A) (A) (A) (A) (A) (A) (A) (A) (A)
                 (A) (A) (A) (A) (A) (A) (A) (A) (A) (A) (A) (A)
                 (A) (A) (A) (A) (A) (A) (A) (A) (A) (A) (A) (A)
                 (A) (A) (A) (A) (A) (A) (A) (A) (A) (A) (A) (A)
                 (A) (A) (A) (A) (A) (A) (A) (A) (A) (A) (A) (A)
                 (A) (A) (A) (A) (A) (A) (A) (A) (A) (A) (A) (A)
                 (A) (A) (A) (A) (A) (A) (A) (A) (A) (A) (A) (A)
                 (A) (A) (A) (A) (A) (A) (A) (A) (A) (A) (A) (A)
                 (A) (A) (A) (A) (A) (A) (A) (A) (A) (A) (A) (A)
                 (A) (A) (A) (A) (A) (A) (A) (A) (A) (A) (A) (A)
                 (A) (A) (A) (A) (A) (A) (A) (A) (A) (A) (A) (A)
                 (A) (A) (A) (A) (A) (A) (A) (A) (A) (A) (A) (A)
                 (A) (A) (A) (A) (A) (A) (A) (A) (A) (A) (A) (A)
                 (A) (A) (A) (A) (A) (A) (A) (A) (A) (A) (A) (A)
                 (A) (A) (A) (A) (A) (A) (A) (A) (A) (A) (A) (A)
                 (A) (A) (A) (A) (A) (A) (A) (A) (A) (A) (A) (A)
                 (A) (A) (A) (A) (A) (A) (A) (A) (A) (A) (A) (A)
                 (A) (A) (A) (A) (A) (A) (A) (A) (A) (A) (A) (A)
                 (A) (A) (A) (A) (A) (A) (A) (A) (A) (A) (A) (A)
                 (A) (A) (A) (A) (A) (A) (A) (A) (A) (A) (A) (A)
                 (A) (A) (A) (A) (A) (A) (A) (A) (A) (A) (A) (A)
                 (A) (A) (A) (A) (A) (A) (A) (A) (A) (A) (A) (A)
                 (A) (A) (A) (A) (A) (A) (A) (A) (A) (A) (A) (A)
                 (A) (A) (A) (A) (A) (A) (A) (A) (A) (A) (A) (A)
       Virtual   (A) (A) (A) (A) (A) (A) (A) (A) (A) (A) (A) (A)
                 (A) (A) (A) (A) (A) (A) (A) (A) (A) (A) (A) (A)
                 (A) (A) (A) (A) (A) (A) (A) (A) (A) (A) (A) (A)
                 (A) (A) (A) (A) (A) (A) (A) (A) (A) (A) (A) (A)
                 (A) (A) (A) (A) (A) (A) (A) (A) (A) (A) (A) (A)
                 (A) (A) (A) (A) (A) (A) (A) (A) (A) (A) (A) (A)
                 (A) (A) (A) (A) (A) (A) (A) (A) (A) (A) (A) (A)
                 (A) (A) (A) (A) (A) (A) (A) (A) (A) (A) (A) (A)
                 (A) (A) (A) (A) (A) (A) (A) (A) (A) (A) (A) (A)
                 (A) (A) (A) (A) (A) (A) (A) (A) (A) (A) (A) (A)
                 (A) (A) (A) (A) (A) (A) (A) (A) (A) (A) (A) (A)
                 (A) (A) (A) (A) (A) (A) (A) (A) (A) (A) (A) (A)
                 (A) (A) (A) (A) (A) (A) (A) (A) (A) (A) (A) (A)
                 (A) (A) (A) (A) (A) (A) (A) (A) (A) (A) (A) (A)
                 (A) (A) (A) (A) (A) (A) (A) (A) (A) (A) (A) (A)
                 (A) (A) (A) (A) (A) (A) (A) (A) (A) (A) (A) (A)
                 (A) (A) (A) (A) (A) (A) (A) (A) (A) (A) (A) (A)
                 (A) (A) (A) (A) (A) (A) (A) (A) (A) (A) (A) (A)
                 (A) (A) (A) (A) (A) (A) (A) (A) (A) (A) (A) (A)
                 (A) (A) (A) (A) (A) (A) (A) (A) (A) (A) (A) (A)
                 (A) (A) (A) (A) (A) (A) (A) (A) (A) (A) (A) (A)
                 (A) (A) (A) (A) (A) (A) (A) (A) (A) (A) (A) (A)
                 (A) (A) (A) (A) (A) (A) (A) (A) (A) (A) (A) (A)
                 (A) (A) (A) (A) (A) (A) (A) (A) (A) (A) (A) (A)
                 (A) (A) (A) (A) (A) (A) (A) (A) (A) (A) (A) (A)
                 (A) (A) (A) (A) (A) (A) (A) (A) (A) (A) (A) (A)
                 (A) (A) (A) (A) (A) (A) (A) (A) (A) (A) (A) (A)
                 (A) (A) (A) (A) (A) (A) (A) (A) (A) (A) (A) (A)
                 (A) (A) (A) (A) (A) (A) (A) (A) (A) (A) (A) (A)
                 (A) (A) (A) (A) (A) (A) (A) (A) (A) (A) (A) (A)
                 (A) (A) (A) (A) (A) (A) (A) (A) (A) (A) (A) (A)
                 (A) (A) (A) (A) (A) (A) (A) (A) (A) (A) (A) (A)
                 (A) (A) (A) (A) (A) (A) (A) (A) (A) (A) (A) (A)
                 (A) (A) (A) (A) (A) (A) (A) (A) (A) (A) (A) (A)
                 (A) (A) (A) (A) (A) (A) (A) (A) (A) (A) (A) (A)
                 (A) (A) (A) (A) (A) (A) (A) (A) (A) (A) (A) (A)
                 (A) (A) (A) (A) (A) (A) (A) (A) (A) (A) (A) (A)
                 (A) (A) (A) (A) (A) (A) (A) (A) (A) (A) (A) (A)
                 (A) (A) (A) (A) (A) (A) (A) (A) (A) (A) (A) (A)
                 (A) (A) (A) (A) (A) (A) (A) (A) (A) (A) (A) (A)
                 (A) (A) (A) (A) (A) (A) (A) (A) (A) (A) (A) (A)
                 (A) (A) (A) (A) (A) (A) (A) (A) (A) (A) (A) (A)
                 (A) (A) (A) (A) (A) (A) (A) (A) (A) (A) (A) (A)
                 (A) (A) (A) (A) (A) (A) (A) (A) (A) (A) (A) (A)
                 (A) (A) (A) (A) (A) (A) (A) (A) (A) (A) (A) (A)
                 (A) (A) (A) (A) (A) (A) (A) (A) (A) (A) (A) (A)
                 (A) (A) (A) (A) (A) (A) (A) (A) (A) (A) (A) (A)
                 (A) (A) (A) (A) (A) (A) (A) (A) (A) (A) (A) (A)
                 (A) (A) (A) (A) (A) (A) (A) (A) (A) (A) (A) (A)
                 (A) (A) (A) (A) (A) (A) (A) (A) (A) (A) (A) (A)
                 (A) (A) (A) (A) (A) (A) (A) (A) (A) (A) (A) (A)
                 (A) (A) (A) (A) (A) (A) (A) (A) (A) (A) (A) (A)
                 (A) (A) (A) (A) (A) (A) (A) (A) (A) (A) (A) (A)
                 (A) (A) (A) (A) (A) (A) (A) (A) (A) (A) (A) (A)
                 (A) (A) (A) (A) (A) (A) (A) (A) (A) (A) (A) (A)
                 (A) (A) (A) (A) (A) (A) (A) (A) (A) (A) (A) (A)
                 (A) (A) (A) (A) (A) (A) (A) (A) (A) (A) (A) (A)
                 (A) (A) (A) (A) (A) (A) (A) (A) (A) (A) (A) (A)
                 (A) (A) (A) (A) (A) (A) (A) (A) (A) (A) (A) (A)
                 (A) (A) (A) (A) (A) (A) (A) (A) (A) (A) (A) (A)
                 (A) (A) (A) (A) (A) (A) (A) (A) (A) (A) (A) (A)
                 (A) (A) (A) (A) (A) (A) (A) (A) (A) (A) (A) (A)
                 (A) (A) (A) (A) (A) (A) (A) (A) (A) (A) (A) (A)
                 (A) (A) (A) (A) (A) (A) (A) (A) (A) (A) (A) (A)
                 (A) (A) (A) (A) (A) (A) (A) (A) (A) (A) (A) (A)
                 (A) (A) (A) (A) (A) (A) (A) (A) (A) (A) (A) (A)
                 (A) (A) (A) (A) (A) (A) (A) (A) (A) (A) (A) (A)
                 (A) (A) (A) (A) (A) (A) (A) (A) (A) (A) (A) (A)
                 (A) (A) (A) (A) (A) (A) (A) (A) (A) (A) (A) (A)
                 (A) (A) (A) (A) (A) (A) (A) (A) (A) (A) (A) (A)
                 (A) (A) (A) (A) (A) (A) (A) (A) (A) (A) (A) (A)
                 (A) (A) (A) (A) (A) (A) (A) (A) (A) (A) (A) (A)
                 (A) (A) (A) (A) (A) (A) (A) (A) (A) (A) (A) (A)
                 (A) (A) (A) (A) (A) (A) (A) (A) (A) (A) (A) (A)
                 (A) (A) (A) (A) (A) (A) (A) (A) (A) (A) (A) (A)
                 (A) (A) (A) (A) (A) (A) (A) (A) (A) (A) (A) (A)
                 (A) (A) (A) (A) (A) (A) (A) (A) (A) (A) (A) (A)
                 (A) (A) (A) (A) (A) (A) (A) (A) (A) (A) (A) (A)
                 (A) (A) (A) (A) (A) (A) (A) (A) (A) (A) (A) (A)
                 (A) (A) (A) (A) (A) (A) (A) (A) (A) (A) (A) (A)
                 (A) (A) (A) (A) (A) (A) (A) (A) (A) (A) (A) (A)
                 (A) (A) (A) (A) (A) (A) (A) (A) (A) (A) (A) (A)
                 (A) (A) (A) (A) (A) (A) (A) (A) (A) (A) (A) (A)
                 (A) (A) (A) (A) (A) (A) (A) (A) (A) (A) (A) (A)
                 (A) (A) (A) (A) (A) (A) (A) (A) (A) (A) (A) (A)
                 (A) (A) (A) (A) (A) (A) (A) (A) (A) (A) (A) (A)
                 (A) (A) (A) (A) (A) (A) (A) (A) (A) (A) (A) (A)
                 (A) (A) (A) (A) (A) (A) (A) (A) (A) (A) (A) (A)
                 (A) (A) (A) (A) (A) (A) (A) (A) (A) (A) (A) (A)
                 (A) (A) (A) (A) (A) (A) (A) (A) (A) (A) (A) (A)
                 (A) (A) (A) (A) (A) (A) (A) (A) (A) (A) (A) (A)
                 (A) (A) (A) (A) (A) (A) (A) (A) (A) (A) (A) (A)
                 (A) (A) (A) (A) (A) (A) (A) (A) (A) (A) (A) (A)
                 (A) (A) (A) (A) (A) (A) (A) (A) (A) (A) (A) (A)
                 (A) (A) (A) (A) (A) (A) (A) (A) (A) (A) (A) (A)
                 (A) (A) (A) (A) (A) (A) (A) (A) (A) (A) (A) (A)
                 (A) (A) (A) (A) (A) (A) (A) (A) (A) (A) (A) (A)
                 (A) (A) (A) (A) (A) (A) (A) (A) (A) (A) (A) (A)
                 (A) (A) (A) (A) (A) (A) (A) (A) (A) (A) (A) (A)
                 (A) (A) (A) (A) (A) (A) (A) (A) (A) (A) (A) (A)
                 (A) (A) (A) (A) (A) (A) (A) (A) (A) (A) (A) (A)
                 (A) (A) (A) (A) (A) (A) (A) (A) (A) (A) (A) (A)
                 (A) (A) (A) (A) (A) (A) (A) (A) (A) (A) (A) (A)
                 (A) (A) (A) (A) (A) (A) (A) (A) (A) (A) (A) (A)
                 (A) (A) (A) (A) (A) (A) (A) (A) (A) (A) (A) (A)
    20 initial guesses have been made.
 Convergence on wavefunction:    0.001000000000000
 Davidson Disk Diagonalization:  ConvIn= 1.00D-03 SkipCon=T Conv= 1.00D-03.
 Max sub-space:  2000 roots to seek:    20 dimension of matrix:       549360
 Iteration     1 Dimension    20 NMult     0 NNew     20
 CISAX will form    20 AO SS matrices at one time.
 NMat=    20 NSing=    20 JSym2X= 0.
 FoFJK:  IHMeth= 1 ICntrl=       0 DoSepK=T KAlg= 0 I1Cent=           0 FoldK=F
 IRaf=         1 NMat=      40 IRICut=       1 DoRegI=T DoRafI=F ISym2E= 0 IDoP0=3 IntGTp=3.
 FoFCou: FMM=T IPFlag=           0 FMFlag=      100000 FMFlg1=        2001
         NFxFlg=           0 DoJE=F BraDBF=F KetDBF=F FulRan=T
         wScrn=  0.000000 ICntrl=       500 IOpCl=  0 I1Cent=           0 NGrid=           0
         NMat0=   20 NMatS0=     20 NMatT0=    0 NMatD0=   20 NMtDS0=    0 NMtDT0=    0
 Symmetry not used in FoFCou.
 FMM levels:  10  Number of levels for PrismC:   9
 New state      2 was old state      4
 New state      3 was old state      2
 New state      4 was old state      6
 New state      5 was old state      7
 Excitation Energies [eV] at current iteration:
 Root      1 :     2.215718144692474
 Root      2 :     2.449342665382415
 Root      3 :     2.579697408086258
 Root      4 :     2.613329341163120
 Root      5 :     2.629085410233762
 Root      6 :     2.787596070633118
 Root      7 :     2.982940455362068
 Root      8 :     3.239151699896244
 Root      9 :     3.593477397009671
 Root     10 :     3.659023930608875
 Root     11 :     3.746239498124420
 Root     12 :     3.758307805820612
 Root     13 :     4.112393812251046
 Root     14 :     4.222425145088755
 Root     15 :     4.246426021012290
 Root     16 :     4.383248568910958
 Root     17 :     4.394465745669635
 Root     18 :     4.400661807636342
 Root     19 :     4.606047159459886
 Root     20 :     4.623867118205960
 Iteration     2 Dimension    30 NMult    20 NNew     10
 CISAX will form    10 AO SS matrices at one time.
 NMat=    10 NSing=    10 JSym2X= 0.
 New state      1 was old state      3
 Root      1 not converged, maximum delta is    0.207797280149680
 New state      2 was old state      1
 Root      2 not converged, maximum delta is    0.017461228715339
 New state      3 was old state      4
 Root      3 not converged, maximum delta is    0.139259880154202
 New state      4 was old state      5
 Root      4 not converged, maximum delta is    0.103176083565437
 New state      5 was old state      2
 Root      5 not converged, maximum delta is    0.023300779492837
 Excitation Energies [eV] at current iteration:
 Root      1 :     1.755322215595942   Change is   -0.824375192490316
 Root      2 :     2.213088199069728   Change is   -0.002629945622746
 Root      3 :     2.224047645066597   Change is   -0.389281696096523
 Root      4 :     2.247229148267878   Change is   -0.381856261965883
 Root      5 :     2.444542651482439   Change is   -0.004800013899976
 Iteration     3 Dimension    40 NMult    30 NNew     10
 CISAX will form    10 AO SS matrices at one time.
 NMat=    10 NSing=    10 JSym2X= 0.
 Root      1 not converged, maximum delta is    0.051884509809581
 New state      2 was old state      3
 Root      2 not converged, maximum delta is    0.142502593864924
 New state      3 was old state      4
 Root      3 not converged, maximum delta is    0.151494578060495
 New state      4 was old state      2
 Root      4 not converged, maximum delta is    0.034329357746376
 Root      5 not converged, maximum delta is    0.001272916653238
 Excitation Energies [eV] at current iteration:
 Root      1 :     1.652812825937779   Change is   -0.102509389658162
 Root      2 :     2.183317225107259   Change is   -0.040730419959338
 Root      3 :     2.198709591152876   Change is   -0.048519557115002
 Root      4 :     2.213096468810846   Change is    0.000008269741118
 Root      5 :     2.444484596161709   Change is   -0.000058055320730
 Iteration     4 Dimension    50 NMult    40 NNew     10
 CISAX will form    10 AO SS matrices at one time.
 NMat=    10 NSing=    10 JSym2X= 0.
 Root      1 not converged, maximum delta is    0.009686499948533
 New state      2 was old state      3
 Root      2 not converged, maximum delta is    0.458351495072863
 New state      3 was old state      2
 Root      3 not converged, maximum delta is    0.233692571863272
 Root      4 not converged, maximum delta is    0.027070831086366
 No map to state      5
 Excitation Energies [eV] at current iteration:
 Root      1 :     1.636617319560331   Change is   -0.016195506377449
 Root      2 :     2.038642883785161   Change is   -0.160066707367715
 Root      3 :     2.180426693555740   Change is   -0.002890531551520
 Root      4 :     2.213058017100472   Change is   -0.000038451710374
 Root      5 :     2.237019067919188
 Iteration     5 Dimension    60 NMult    50 NNew     10
 CISAX will form    10 AO SS matrices at one time.
 NMat=    10 NSing=    10 JSym2X= 0.
 Root      1 not converged, maximum delta is    0.001570195047619
 Root      2 not converged, maximum delta is    0.199815288004873
 Root      3 not converged, maximum delta is    0.107518464066984
 New state      4 was old state      5
 Root      4 not converged, maximum delta is    0.135895762709435
 New state      5 was old state      4
 Root      5 not converged, maximum delta is    0.033053472645854
 Excitation Energies [eV] at current iteration:
 Root      1 :     1.634947270014737   Change is   -0.001670049545594
 Root      2 :     1.759584251615141   Change is   -0.279058632170019
 Root      3 :     2.177861266185921   Change is   -0.002565427369818
 Root      4 :     2.200973139350504   Change is   -0.036045928568684
 Root      5 :     2.213102768323909   Change is    0.000044751223437
 Iteration     6 Dimension    70 NMult    60 NNew     10
 CISAX will form    10 AO SS matrices at one time.
 NMat=    10 NSing=    10 JSym2X= 0.
 Root      1 has converged.
 Root      2 not converged, maximum delta is    0.017870632550130
 Root      3 not converged, maximum delta is    0.011203905193095
 Root      4 not converged, maximum delta is    0.011226313734473
 Root      5 not converged, maximum delta is    0.002303893016270
 Excitation Energies [eV] at current iteration:
 Root      1 :     1.634714334876846   Change is   -0.000232935137890
 Root      2 :     1.721198698545180   Change is   -0.038385553069962
 Root      3 :     2.177551553183677   Change is   -0.000309713002244
 Root      4 :     2.199629655819040   Change is   -0.001343483531464
 Root      5 :     2.213099603559158   Change is   -0.000003164764751
 Iteration     7 Dimension    78 NMult    70 NNew      8
[...]
 Alpha virt. eigenvalues --    1.83859   1.83927   1.84003   1.84203   1.84464
 Alpha virt. eigenvalues --    1.84584   1.84818   1.84836   1.85052   1.85129
 Alpha virt. eigenvalues --    1.85378   1.85449   1.85519   1.85629   1.85794
 Alpha virt. eigenvalues --    1.85906   1.86238   1.86342   1.86593   1.86691
 Alpha virt. eigenvalues --    1.86816   1.86970   1.87101   1.87178   1.87346
 Alpha virt. eigenvalues --    1.87450   1.87737   1.87869   1.87903   1.88020
 Alpha virt. eigenvalues --    1.88183   1.88326   1.88526   1.88553   1.88811
 Alpha virt. eigenvalues --    1.88871   1.89147   1.89230   1.89492   1.89639
 Alpha virt. eigenvalues --    1.89794   1.89988   1.90123   1.90263   1.90563
 Alpha virt. eigenvalues --    1.90798   1.91260   1.91367   1.91511   1.91822
 Alpha virt. eigenvalues --    1.91971   1.92166   1.92532   1.92624   1.92962
 Alpha virt. eigenvalues --    1.93015   1.93336   1.93552   1.93831   1.94303
 Alpha virt. eigenvalues --    1.94636   1.94683   1.95154   1.95549   1.95749
 Alpha virt. eigenvalues --    1.95855   1.96002   1.96157   1.96201   1.96345
 Alpha virt. eigenvalues --    1.96553   1.96647   1.96849   1.96911   1.97225
 Alpha virt. eigenvalues --    1.97470   1.97801   1.97869   1.98154   1.98255
 Alpha virt. eigenvalues --    1.98550   1.98708   1.98776   1.99177   1.99405
 Alpha virt. eigenvalues --    1.99821   2.00295   2.00669   2.01020   2.01135
 Alpha virt. eigenvalues --    2.01480   2.01497   2.01714   2.01779   2.01870
 Alpha virt. eigenvalues --    2.02038   2.02200   2.02789   2.03053   2.03203
 Alpha virt. eigenvalues --    2.03450   2.03522   2.03596   2.03782   2.03954
 Alpha virt. eigenvalues --    2.04125   2.04499   2.04950   2.05353   2.05546
 Alpha virt. eigenvalues --    2.05990   2.06105   2.06736   2.07058   2.07266
 Alpha virt. eigenvalues --    2.07525   2.07789   2.08602   2.08845   2.08975
 Alpha virt. eigenvalues --    2.09360   2.09634   2.10015   2.10759   2.11219
 Alpha virt. eigenvalues --    2.11360   2.11481   2.11727   2.11740   2.11930
 Alpha virt. eigenvalues --    2.12185   2.12550   2.12766   2.12813   2.12857
 Alpha virt. eigenvalues --    2.13114   2.13280   2.13833   2.13993   2.14143
 Alpha virt. eigenvalues --    2.14807   2.15353   2.15737   2.15960   2.16500
 Alpha virt. eigenvalues --    2.16558   2.16801   2.16993   2.17443   2.17647
 Alpha virt. eigenvalues --    2.17761   2.17980   2.18045   2.18312   2.18422
 Alpha virt. eigenvalues --    2.18495   2.18997   2.19126   2.19661   2.19677
 Alpha virt. eigenvalues --    2.20045   2.20200   2.20284   2.20707   2.20761
 Alpha virt. eigenvalues --    2.21112   2.21695   2.21805   2.21885   2.22216
 Alpha virt. eigenvalues --    2.22287   2.22706   2.23038   2.23361   2.23841
 Alpha virt. eigenvalues --    2.24417   2.24881   2.25079   2.25324   2.26340
 Alpha virt. eigenvalues --    2.26812   2.26865   2.27148   2.27362   2.27654
 Alpha virt. eigenvalues --    2.28145   2.28653   2.29297   2.29729   2.29801
 Alpha virt. eigenvalues --    2.30254   2.30478   2.31011   2.31146   2.31219
 Alpha virt. eigenvalues --    2.31331   2.31522   2.32125   2.32568   2.33158
 Alpha virt. eigenvalues --    2.33498   2.33598   2.33867   2.34143   2.34472
 Alpha virt. eigenvalues --    2.35448   2.35761   2.35824   2.36315   2.36372
 Alpha virt. eigenvalues --    2.36645   2.36725   2.36775   2.37809   2.38006
 Alpha virt. eigenvalues --    2.38255   2.38675   2.38849   2.39062   2.39619
 Alpha virt. eigenvalues --    2.40034   2.40217   2.40480   2.40573   2.41148
 Alpha virt. eigenvalues --    2.41240   2.41514   2.41685   2.42051   2.42110
 Alpha virt. eigenvalues --    2.42600   2.42908   2.43216   2.43398   2.43682
 Alpha virt. eigenvalues --    2.44232   2.44305   2.44752   2.44896   2.45221
 Alpha virt. eigenvalues --    2.45364   2.45632   2.45969   2.46329   2.46518
 Alpha virt. eigenvalues --    2.46608   2.46830   2.46971   2.47248   2.47296
 Alpha virt. eigenvalues --    2.47723   2.47778   2.48248   2.49326   2.49695
 Alpha virt. eigenvalues --    2.50041   2.50198   2.50554   2.50727   2.51185
 Alpha virt. eigenvalues --    2.51670   2.51908   2.51939   2.52446   2.52686
 Alpha virt. eigenvalues --    2.52805   2.53492   2.53913   2.54157   2.54300
 Alpha virt. eigenvalues --    2.54567   2.54867   2.55271   2.55545   2.56122
 Alpha virt. eigenvalues --    2.57864   2.58417   2.58625   2.59253   2.60269
 Alpha virt. eigenvalues --    2.60568   2.60726   2.61215   2.61698   2.62128
 Alpha virt. eigenvalues --    2.62493   2.62746   2.62968   2.63540   2.63909
 Alpha virt. eigenvalues --    2.64187   2.64490   2.64703   2.65062   2.65419
 Alpha virt. eigenvalues --    2.65783   2.66145   2.66732   2.66876   2.67156
 Alpha virt. eigenvalues --    2.67333   2.67892   2.68303   2.68842   2.69043
 Alpha virt. eigenvalues --    2.69166   2.69336   2.69402   2.69881   2.69990
 Alpha virt. eigenvalues --    2.70436   2.70997   2.71355   2.72078   2.72204
 Alpha virt. eigenvalues --    2.72689   2.72769   2.73017   2.73171   2.73249
 Alpha virt. eigenvalues --    2.73558   2.73699   2.73894   2.74566   2.74919
 Alpha virt. eigenvalues --    2.75004   2.75464   2.76585   2.76819   2.77299
 Alpha virt. eigenvalues --    2.77445   2.77547   2.77908   2.78199   2.78572
 Alpha virt. eigenvalues --    2.78754   2.79032   2.79138   2.79472   2.80364
 Alpha virt. eigenvalues --    2.80537   2.80666   2.81084   2.81224   2.81576
 Alpha virt. eigenvalues --    2.81967   2.82346   2.82492   2.82746   2.83756
 Alpha virt. eigenvalues --    2.83875   2.84138   2.84487   2.84562   2.84852
 Alpha virt. eigenvalues --    2.84891   2.85280   2.85665   2.85989   2.87025
 Alpha virt. eigenvalues --    2.87030   2.87543   2.87718   2.88175   2.88512
 Alpha virt. eigenvalues --    2.88542   2.88953   2.88993   2.89249   2.90445
 Alpha virt. eigenvalues --    2.90939   2.91125   2.91492   2.93152   2.93673
 Alpha virt. eigenvalues --    2.94090   2.94209   2.94540   2.94839   2.95303
 Alpha virt. eigenvalues --    2.95685   2.96190   2.96271   2.96459   2.96772
 Alpha virt. eigenvalues --    2.97149   2.97410   2.97886   2.98212   2.98303
 Alpha virt. eigenvalues --    2.98406   2.98652   2.98704   2.98869   2.98912
 Alpha virt. eigenvalues --    2.99158   2.99426   2.99547   3.00043   3.00088
 Alpha virt. eigenvalues --    3.00262   3.00432   3.00526   3.00651   3.01354
 Alpha virt. eigenvalues --    3.01953   3.02022   3.02161   3.02372   3.02864
 Alpha virt. eigenvalues --    3.02989   3.03204   3.03317   3.03548   3.03939
 Alpha virt. eigenvalues --    3.04162   3.04418   3.04515   3.04708   3.05053
 Alpha virt. eigenvalues --    3.05147   3.05298   3.05647   3.06159   3.06519
 Alpha virt. eigenvalues --    3.06862   3.07292   3.08091   3.08227   3.09425
 Alpha virt. eigenvalues --    3.09699   3.09722   3.10429   3.10622   3.11026
 Alpha virt. eigenvalues --    3.11305   3.11760   3.11878   3.11958   3.12560
 Alpha virt. eigenvalues --    3.13078   3.13322   3.13630   3.13955   3.13985
 Alpha virt. eigenvalues --    3.14253   3.14965   3.15884   3.16364   3.17327
 Alpha virt. eigenvalues --    3.17974   3.18085   3.18202   3.19140   3.19392
 Alpha virt. eigenvalues --    3.22507   3.23118   3.23997   3.24837   3.24903
 Alpha virt. eigenvalues --    3.25802   3.26538   3.27032   3.27649   3.27792
 Alpha virt. eigenvalues --    3.29291   3.29765   3.31567   3.31789   3.33429
 Alpha virt. eigenvalues --    3.33510   3.40684   3.41087   3.42831   3.43105
 Alpha virt. eigenvalues --    3.48762   3.49217   3.50029   3.50613   3.51169
 Alpha virt. eigenvalues --    3.51484   3.56574   3.57362   3.59098   3.59651
 Alpha virt. eigenvalues --    3.62936   3.62958   3.66212   3.66382   3.67611
 Alpha virt. eigenvalues --    3.68010   3.73746   3.74616   3.76469   3.77717
          Condensed to atoms (all electrons):
 Mulliken charges:
               1
     1  Mg   0.838736
     2  C   -0.003537
     3  C   -0.094856
     4  C   -0.045614
     5  C   -0.065105
     6  N   -0.256369
     7  C   -0.053552
     8  C   -0.013321
     9  C   -0.086876
    10  C    0.045632
    11  C    0.104814
    12  C    0.051759
    13  C   -0.071137
    14  H    0.034853
    15  N   -0.433196
    16  C    0.168117
    17  C   -0.177636
    18  C   -0.003976
    19  C    0.148924
    20  C    0.110316
    21  C    0.012690
    22  O   -0.249441
    23  C    0.062494
    24  N   -0.340954
    25  C    0.041093
    26  C   -0.028475
    27  C   -0.023807
    28  C    0.075040
    29  C    0.076086
    30  C    0.035819
    31  C   -0.009431
    32  N   -0.310558
    33  C    0.079473
    34  C   -0.171223
    35  C    0.010137
    36  C    0.083342
    37  C    0.126283
    38  C    0.050571
    39  O   -0.183806
    40  C   -0.007461
    41  C    0.216445
    42  O   -0.251363
    43  O   -0.305743
    44  C    0.154960
    45  H   -0.017921
    46  H   -0.016911
    47  H   -0.041844
    48  H    0.001796
    49  H   -0.004912
    50  H    0.025880
    51  H    0.016685
    52  H    0.016488
    53  H    0.010185
    54  H    0.043526
    55  H    0.019152
    56  H    0.016908
    57  H    0.005286
    58  H    0.026942
    59  H    0.038473
    60  H    0.037070
    61  H    0.036109
    62  H    0.031038
    63  H    0.016225
    64  H    0.009942
    65  H    0.023285
    66  H    0.012880
    67  H    0.004838
    68  H    0.006408
    69  H    0.004337
    70  H    0.009842
    71  H    0.016649
    72  H    0.032006
    73  H    0.050638
    74  H    0.007966
    75  H    0.046235
    76  H    0.034986
    77  H    0.043042
    78  H    0.043795
    79  H    0.060057
    80  Mg   0.835056
    81  C   -0.016091
    82  C   -0.088264
    83  C   -0.046029
    84  C   -0.067085
    85  N   -0.253852
    86  C   -0.050353
    87  C   -0.014241
    88  C   -0.090943
    89  C    0.044663
    90  C    0.113099
    91  C    0.062827
    92  C   -0.076745
    93  H    0.033961
    94  N   -0.423207
    95  C    0.161809
    96  C   -0.176096
    97  C   -0.008726
    98  C    0.151362
    99  C    0.099980
   100  C    0.014784
   101  O   -0.254159
   102  C    0.061553
   103  N   -0.350600
   104  C    0.037531
   105  C   -0.020233
   106  C   -0.035515
   107  C    0.090189
   108  C    0.073366
   109  C    0.034589
   110  C   -0.007114
   111  N   -0.324832
   112  C    0.078742
   113  C   -0.163658
   114  C    0.005469
   115  C    0.093610
   116  C    0.130379
   117  C    0.053088
   118  O   -0.178559
   119  C   -0.001294
   120  C    0.209096
   121  O   -0.253358
   122  O   -0.303654
   123  C    0.152626
   124  H   -0.022132
   125  H   -0.016460
   126  H   -0.041823
   127  H    0.000179
   128  H   -0.005817
   129  H    0.025109
   130  H    0.013469
   131  H    0.012486
   132  H    0.013478
   133  H    0.038179
   134  H    0.019132
   135  H    0.018584
   136  H    0.007210
   137  H    0.024242
   138  H    0.038619
   139  H    0.037378
   140  H    0.035380
   141  H    0.033371
   142  H    0.013534
   143  H    0.012910
   144  H    0.024152
   145  H    0.013298
   146  H    0.005135
   147  H    0.005331
   148  H    0.002178
   149  H    0.010778
   150  H    0.017156
   151  H    0.030822
   152  H    0.046325
   153  H    0.004762
   154  H    0.051573
   155  H    0.049598
   156  H    0.041101
   157  H    0.047298
   158  H    0.053071
 Sum of Mulliken charges =  -0.00000
 Mulliken charges with hydrogens summed into heavy atoms:
               1
     1  Mg   0.838736
     2  C   -0.003537
     3  C   -0.112777
     4  C   -0.062525
     5  C   -0.106949
     6  N   -0.256369
     7  C   -0.053552
     8  C   -0.011525
     9  C   -0.091788
    10  C    0.045632
    11  C    0.163866
    12  C    0.105471
    13  C   -0.000223
    15  N   -0.433196
    16  C    0.168117
    17  C   -0.177636
    18  C   -0.003976
    19  C    0.148924
    20  C    0.181017
    21  C    0.012690
    22  O   -0.249441
    23  C    0.166711
    24  N   -0.340954
    25  C    0.041093
    26  C   -0.012250
    27  C   -0.013866
    28  C    0.075040
    29  C    0.117089
    30  C    0.046564
    31  C    0.049066
    32  N   -0.310558
    33  C    0.079473
    34  C   -0.171223
    35  C    0.010137
    36  C    0.083342
    37  C    0.231122
    38  C    0.050571
    39  O   -0.183806
    40  C    0.027525
    41  C    0.216445
    42  O   -0.251363
    43  O   -0.305743
    44  C    0.301854
    80  Mg   0.835056
    81  C   -0.016091
    82  C   -0.110395
    83  C   -0.062489
    84  C   -0.108908
    85  N   -0.253852
    86  C   -0.050353
    87  C   -0.014062
    88  C   -0.096761
    89  C    0.044663
    90  C    0.164162
    91  C    0.114484
    92  C   -0.005068
    94  N   -0.423207
    95  C    0.161809
    96  C   -0.176096
    97  C   -0.008726
    98  C    0.151362
    99  C    0.170051
   100  C    0.014784
   101  O   -0.254159
   102  C    0.167681
   103  N   -0.350600
   104  C    0.037531
   105  C   -0.006699
   106  C   -0.022605
   107  C    0.090189
   108  C    0.115951
   109  C    0.042098
   110  C    0.051642
   111  N   -0.324832
   112  C    0.078742
   113  C   -0.163658
   114  C    0.005469
   115  C    0.093610
   116  C    0.233040
   117  C    0.053088
   118  O   -0.178559
   119  C    0.048304
   120  C    0.209096
   121  O   -0.253358
   122  O   -0.303654
   123  C    0.294096
 Electronic spatial extent (au):  <R**2>=          85706.2994
 Charge=             -0.0000 electrons
 Dipole moment (field-independent basis, Debye):
    X=              1.5644    Y=             -1.6334    Z=              7.8591  Tot=              8.1781
 Quadrupole moment (field-independent basis, Debye-Ang):
   XX=           -519.1807   YY=           -525.9633   ZZ=           -462.5265
   XY=            -21.3543   XZ=              9.1430   YZ=             53.0356
 Traceless Quadrupole moment (field-independent basis, Debye-Ang):
   XX=            -16.6239   YY=            -23.4064   ZZ=             40.0303
   XY=            -21.3543   XZ=              9.1430   YZ=             53.0356
 Octapole moment (field-independent basis, Debye-Ang**2):
  XXX=            130.4557  YYY=            391.4010  ZZZ=            121.3216  XYY=            124.7165
  XXY=             86.1531  XXZ=            230.3002  XZZ=            -57.4238  YZZ=           -194.2664
  YYZ=             69.8785  XYZ=             31.9127
 Hexadecapole moment (field-independent basis, Debye-Ang**3):
 XXXX=         -54675.0344 YYYY=         -38478.1968 ZZZZ=         -22509.9659 XXXY=          -1189.7349
 XXXZ=           -372.2444 YYYX=            524.1020 YYYZ=           1231.4909 ZZZX=            142.0291
 ZZZY=           -175.2288 XXYY=         -16169.1022 XXZZ=         -11953.2316 YYZZ=         -10531.9829
 XXYZ=            632.8233 YYXZ=             72.2398 ZZXY=           -181.0330
 N-N= 1.612392773383D+04 E-N=-4.172982108811D+04  KE= 4.028786824191D+03
 Leave Link  601 at Thu Sep  9 06:10:40 2021, MaxMem= 23488102400 cpu:              14.3 elap:               0.7
 (Enter /sw/apps/gaussian-16.0/g16/l9999.exe)
 1\1\GINC-BP1-COMPUTE00100\SP\RCAM-B3LYP TD-FC\def2SVP\C68H72Mg2N8O8\OF
 15641\09-Sep-2021\0\\#p cam-b3lyp/Def2SVP td=(nstates=5)\\TDDFT excite
 d states in gaussian\\0,1\Mg,0,0.,0.,0.\C,0,-0.217,-2.218,2.801\C,0,-1
 .255,2.442,2.026\C,0,-0.245,1.85,-2.564\C,0,0.146,-2.824,-2.037\N,0,-0
 .617,-0.009,2.126\C,0,-0.594,-0.908,3.105\C,0,-0.936,-0.309,4.502\C,0,
 -1.773,0.964,4.032\C,0,-1.155,1.168,2.66\C,0,-3.263,0.685,3.863\C,0,0.
 345,0.11,5.299\C,0,0.124,0.397,6.787\H,0,1.168,0.033,7.733\N,0,-0.185,
 1.961,-0.152\C,0,-0.703,2.8,0.777\C,0,-0.62,4.156,0.193\C,0,-0.187,4.0
 15,-1.225\C,0,-0.214,2.583,-1.38\C,0,-0.887,5.406,0.974\C,0,0.181,5.01
 3,-2.277\O,0,0.303,4.69,-3.508\C,0,0.31,6.414,-1.837\N,0,-0.265,-0.413
 ,-2.029\C,0,-0.279,0.569,-2.937\C,0,-0.196,0.024,-4.332\C,0,0.124,-1.5
 33,-4.18\C,0,0.086,-1.632,-2.635\C,0,-1.451,0.205,-5.197\C,0,1.373,-2.
 07,-4.923\C,0,2.626,-1.49,-4.306\N,0,0.15,-2.144,0.303\C,0,0.173,-3.13
 6,-0.688\C,0,0.173,-4.438,0.004\C,0,0.133,-4.111,1.358\C,0,0.083,-2.69
 5,1.502\C,0,0.149,-5.715,-0.623\C,0,0.096,-4.629,2.716\O,0,0.208,-5.74
 7,3.221\C,0,-0.255,-3.428,3.701\C,0,0.717,-3.482,4.848\O,0,1.931,-3.25
 5,4.669\O,0,0.038,-3.556,6.003\C,0,0.943,-3.583,7.183\H,0,-1.859,3.22,
 2.497\H,0,-0.218,2.453,-3.474\H,0,0.276,-3.747,-2.605\H,0,-1.554,-0.94
 9,5.132\H,0,-1.585,1.831,4.665\H,0,-3.484,-0.377,3.969\H,0,-3.511,1.02
 7,2.858\H,0,-3.852,1.301,4.543\H,0,0.669,1.096,4.966\H,0,1.13,-0.639,5
 .189\H,0,-0.844,0.026,7.125\H,0,0.062,1.477,6.921\H,0,-1.344,5.186,1.9
 38\H,0,-1.651,5.963,0.432\H,0,0.007,6.02,1.084\H,0,-0.635,6.744,-1.405
 \H,0,0.665,6.97,-2.704\H,0,1.048,6.466,-1.036\H,0,0.608,0.501,-4.891\H
 ,0,-0.692,-2.156,-4.547\H,0,-1.267,0.74,-6.129\H,0,-2.204,0.714,-4.596
 \H,0,-1.967,-0.72,-5.453\H,0,1.356,-1.759,-5.967\H,0,1.452,-3.157,-4.9
 02\H,0,2.714,-0.522,-4.798\H,0,3.487,-2.121,-4.529\H,0,2.495,-1.303,-3
 .24\H,0,0.867,-6.333,-0.084\H,0,0.404,-5.642,-1.68\H,0,-0.891,-5.999,-
 0.463\H,0,-1.283,-3.581,4.028\H,0,0.698,-4.478,7.755\H,0,0.833,-2.619,
 7.68\H,0,2.,-3.754,6.976\Mg,0,7.8906,0.71125,0.60619\C,0,6.60619,-1.27
 876,3.30234\C,0,7.69365,3.4004,2.69528\C,0,8.58977,2.56328,-1.87343\C,
 0,6.9186,-1.84218,-1.55734\N,0,7.22105,0.90852,2.70501\C,0,6.81241,0.0
 7305,3.64806\C,0,6.69048,0.70664,5.05989\C,0,6.49607,2.23879,4.61991\C
 ,0,7.21024,2.19808,3.27047\C,0,5.04372,2.61652,4.38047\C,0,7.99191,0.5
 1537,5.9153\C,0,7.83575,0.83427,7.40381\H,0,8.58313,0.03328,8.36938\N,
 0,8.57112,2.57455,0.54645\C,0,8.42051,3.52654,1.49108\C,0,9.08485,4.72
 75,0.96146\C,0,9.49668,4.45517,-0.44244\C,0,8.86964,3.16621,-0.65577\C
 ,0,9.34461,5.94833,1.79545\C,0,10.30841,5.23274,-1.43375\O,0,10.34117,
 4.91416,-2.67482\C,0,10.98905,6.43296,-0.92612\N,0,7.58291,0.5041,-1.4
 3947\C,0,8.03133,1.43168,-2.30345\C,0,7.94098,0.93911,-3.72809\C,0,7.5
 6241,-0.61116,-3.62348\C,0,7.40502,-0.73041,-2.09168\C,0,6.9214,1.6529
 5,-4.61537\C,0,8.49858,-1.61485,-4.35069\C,0,9.85186,-1.63921,-3.67731
 \N,0,7.10653,-1.29105,0.81616\C,0,6.7444,-2.1784,-0.22093\C,0,6.15534,
 -3.37448,0.41533\C,0,6.19488,-3.08797,1.78823\C,0,6.74956,-1.79556,1.9
 9196\C,0,5.63016,-4.50705,-0.26846\C,0,5.88373,-3.58058,3.11081\O,0,5.
 47778,-4.64881,3.56668\C,0,6.01972,-2.37912,4.14251\C,0,6.82116,-2.865
 45,5.31882\O,0,8.01593,-3.18234,5.182\O,0,6.11235,-2.67056,6.44575\C,0
 ,6.8701,-3.12722,7.64121\H,0,7.45903,4.34326,3.19011\H,0,8.91415,3.115
 4,-2.75855\H,0,6.6813,-2.72309,-2.15764\H,0,5.83486,0.37349,5.63496\H,
 0,7.00733,2.91344,5.30169\H,0,4.39053,1.75809,4.43124\H,0,5.01338,3.05
 711,3.39254\H,0,4.74088,3.40744,5.07262\H,0,8.7218,1.28527,5.63377\H,0
 ,8.38305,-0.47645,5.79733\H,0,6.78268,0.91032,7.7008\H,0,8.23922,1.832
 74,7.58898\H,0,8.78222,5.91948,2.73688\H,0,8.92298,6.80162,1.25323\H,0
 ,10.40923,6.12626,1.96156\H,0,10.25306,7.11648,-0.50947\H,0,11.58939,6
 .80295,-1.75953\H,0,11.64795,6.13906,-0.10145\H,0,8.89518,1.03464,-4.2
 3155\H,0,6.57369,-0.81937,-4.05812\H,0,7.36803,2.09156,-5.52763\H,0,6.
 43212,2.41722,-4.02628\H,0,6.08274,1.0397,-4.94061\H,0,8.67037,-1.2941
 1,-5.38112\H,0,8.10296,-2.6243,-4.38933\H,0,10.36465,-0.78152,-4.12283
 \H,0,10.3728,-2.56873,-3.89786\H,0,9.75998,-1.4463,-2.60214\H,0,5.9838
 7,-5.38188,0.26075\H,0,5.9394,-4.52038,-1.31152\H,0,4.55836,-4.3204,-0
 .16044\H,0,5.0115,-2.07862,4.43017\H,0,6.2351,-3.84773,8.16594\H,0,7.1
 467,-2.20687,8.18911\H,0,7.76406,-3.7163,7.47306\\Version=ES64L-G16Rev
 A.03\State=1-A\HF=-4069.8110351\RMSD=6.273e-09\PG=C01 [X(C68H72Mg2N8O8
 )]\\@


 IF AT FIRST YOU DON'T SUCCEED, TRY, TRY AGAIN.
 THEN GIVE UP;
 THERE'S NO USE BEING A DAMN FOOL ABOUT IT.

                                 -- W. C. FIELDS
 Job cpu time:       0 days 19 hours 34 minutes 46.4 seconds.
 Elapsed time:       0 days  0 hours 49 minutes 41.7 seconds.
 File lengths (MBytes):  RWF=  13225 Int=      0 D2E=      0 Chk=    574 Scr=      1
 Normal termination of Gaussian 16 at Thu Sep  9 06:10:41 2021.
