 Entering Gaussian System, Link 0=g16
 Initial command:
 /sw/apps/gaussian-16.0/g16/l1.exe "/tmp/Gau-251182.inp" -scrdir="/tmp/"
 Entering Link 1 = /sw/apps/gaussian-16.0/g16/l1.exe PID=    251183.
  
 Copyright (c) 1988,1990,1992,1993,1995,1998,2003,2009,2016,
            Gaussian, Inc.  All Rights Reserved.
  
 This is part of the Gaussian(R) 16 program.  It is based on
 the Gaussian(R) 09 system (copyright 2009, Gaussian, Inc.),
 the Gaussian(R) 03 system (copyright 2003, Gaussian, Inc.),
 the Gaussian(R) 98 system (copyright 1998, Gaussian, Inc.),
 the Gaussian(R) 94 system (copyright 1995, Gaussian, Inc.),
 the Gaussian 92(TM) system (copyright 1992, Gaussian, Inc.),
 the Gaussian 90(TM) system (copyright 1990, Gaussian, Inc.),
 the Gaussian 88(TM) system (copyright 1988, Gaussian, Inc.),
 the Gaussian 86(TM) system (copyright 1986, Carnegie Mellon
 University), and the Gaussian 82(TM) system (copyright 1983,
 Carnegie Mellon University). Gaussian is a federally registered
 trademark of Gaussian, Inc.
  
 This software contains proprietary and confidential information,
 including trade secrets, belonging to Gaussian, Inc.
  
 This software is provided under written license and may be
 used, copied, transmitted, or stored only in accord with that
 written license.
  
 The following legend is applicable only to US Government
 contracts under FAR:
  
                    RESTRICTED RIGHTS LEGEND
  
 Use, reproduction and disclosure by the US Government is
 subject to restrictions as set forth in subparagraphs (a)
 and (c) of the Commercial Computer Software - Restricted
 Rights clause in FAR 52.227-19.
  
 Gaussian, Inc.
 340 Quinnipiac St., Bldg. 40, Wallingford CT 06492
  
  
 ---------------------------------------------------------------
 Warning -- This program may not be used in any manner that
 competes with the business of Gaussian, Inc. or will provide
 assistance to any competitor of Gaussian, Inc.  The licensee
 of this program is prohibited from giving any competitor of
 Gaussian, Inc. access to this program.  By using this program,
 the user acknowledges that Gaussian, Inc. is engaged in the
 business of creating and licensing software in the field of
 computational chemistry and represents and warrants to the
 licensee that it is not a competitor of Gaussian, Inc. and that
 it will not use this program in any manner prohibited above.
 ---------------------------------------------------------------
  

 Cite this work as:
 Gaussian 16, Revision A.03,
 M. J. Frisch, G. W. Trucks, H. B. Schlegel, G. E. Scuseria, 
 M. A. Robb, J. R. Cheeseman, G. Scalmani, V. Barone, 
 G. A. Petersson, H. Nakatsuji, X. Li, M. Caricato, A. V. Marenich, 
 J. Bloino, B. G. Janesko, R. Gomperts, B. Mennucci, H. P. Hratchian, 
 J. V. Ortiz, A. F. Izmaylov, J. L. Sonnenberg, D. Williams-Young, 
 F. Ding, F. Lipparini, F. Egidi, J. Goings, B. Peng, A. Petrone, 
 T. Henderson, D. Ranasinghe, V. G. Zakrzewski, J. Gao, N. Rega, 
 G. Zheng, W. Liang, M. Hada, M. Ehara, K. Toyota, R. Fukuda, 
 J. Hasegawa, M. Ishida, T. Nakajima, Y. Honda, O. Kitao, H. Nakai, 
 T. Vreven, K. Throssell, J. A. Montgomery, Jr., J. E. Peralta, 
 F. Ogliaro, M. J. Bearpark, J. J. Heyd, E. N. Brothers, K. N. Kudin, 
 V. N. Staroverov, T. A. Keith, R. Kobayashi, J. Normand, 
 K. Raghavachari, A. P. Rendell, J. C. Burant, S. S. Iyengar, 
 J. Tomasi, M. Cossi, J. M. Millam, M. Klene, C. Adamo, R. Cammi, 
 J. W. Ochterski, R. L. Martin, K. Morokuma, O. Farkas, 
 J. B. Foresman, and D. J. Fox, Gaussian, Inc., Wallingford CT, 2016.
 
 ******************************************
 Gaussian 16:  ES64L-G16RevA.03 25-Dec-2016
                12-Sep-2021 
 ******************************************
 %nproc=24
 Will use up to   24 processors via shared memory.
 %mem=175gb
 -----------------------------------
 #p cam-b3lyp/Def2SVP td=(nstates=5)
 -----------------------------------
 1/38=1,172=1/1;
 2/12=2,17=6,18=5,40=1/2;
 3/5=43,7=101,11=9,25=1,30=1,74=-40/1,2,3,8;
 4//1;
 5/5=2,38=5/2;
 8/6=1,10=1,108=5/1;
 9/41=5,42=1,70=2/14;
 6/7=2,8=2,9=2,10=2/1;
 99/5=1,9=1/99;
 Leave Link    1 at Sun Sep 12 21:09:55 2021, MaxMem= 23488102400 cpu:               0.7 elap:               0.0
 (Enter /sw/apps/gaussian-16.0/g16/l101.exe)
 --------------------------------
 TDDFT excited states in gaussian
 --------------------------------
 Symbolic Z-matrix:
 Charge =  0 Multiplicity = 1
 Mg                    0.        0.        0. 
 C                    -0.217    -2.218     2.801 
 C                    -1.255     2.442     2.026 
 C                    -0.245     1.85     -2.564 
 C                     0.146    -2.824    -2.037 
 N                    -0.617    -0.009     2.126 
 C                    -0.594    -0.908     3.105 
 C                    -0.936    -0.309     4.502 
 C                    -1.773     0.964     4.032 
 C                    -1.155     1.168     2.66 
 C                    -3.263     0.685     3.863 
 C                     0.345     0.11      5.299 
 C                     0.124     0.397     6.787 
 H                     1.168     0.033     7.733 
 N                    -0.185     1.961    -0.152 
 C                    -0.703     2.8       0.777 
 C                    -0.62      4.156     0.193 
 C                    -0.187     4.015    -1.225 
 C                    -0.214     2.583    -1.38 
 C                    -0.887     5.406     0.974 
 C                     0.181     5.013    -2.277 
 O                     0.303     4.69     -3.508 
 C                     0.31      6.414    -1.837 
 N                    -0.265    -0.413    -2.029 
 C                    -0.279     0.569    -2.937 
 C                    -0.196     0.024    -4.332 
 C                     0.124    -1.533    -4.18 
 C                     0.086    -1.632    -2.635 
 C                    -1.451     0.205    -5.197 
 C                     1.373    -2.07     -4.923 
 C                     2.626    -1.49     -4.306 
 N                     0.15     -2.144     0.303 
 C                     0.173    -3.136    -0.688 
 C                     0.173    -4.438     0.004 
 C                     0.133    -4.111     1.358 
 C                     0.083    -2.695     1.502 
 C                     0.149    -5.715    -0.623 
 C                     0.096    -4.629     2.716 
 O                     0.208    -5.747     3.221 
 C                    -0.255    -3.428     3.701 
 C                     0.717    -3.482     4.848 
 O                     1.931    -3.255     4.669 
 O                     0.038    -3.556     6.003 
 C                     0.943    -3.583     7.183 
 H                    -1.859     3.22      2.497 
 H                    -0.218     2.453    -3.474 
 H                     0.276    -3.747    -2.605 
 H                    -1.554    -0.949     5.132 
 H                    -1.585     1.831     4.665 
 H                    -3.484    -0.377     3.969 
 H                    -3.511     1.027     2.858 
 H                    -3.852     1.301     4.543 
 H                     0.669     1.096     4.966 
 H                     1.13     -0.639     5.189 
 H                    -0.844     0.026     7.125 
 H                     0.062     1.477     6.921 
 H                    -1.344     5.186     1.938 
 H                    -1.651     5.963     0.432 
 H                     0.007     6.02      1.084 
 H                    -0.635     6.744    -1.405 
 H                     0.665     6.97     -2.704 
 H                     1.048     6.466    -1.036 
 H                     0.608     0.501    -4.891 
 H                    -0.692    -2.156    -4.547 
 H                    -1.267     0.74     -6.129 
 H                    -2.204     0.714    -4.596 
 H                    -1.967    -0.72     -5.453 
 H                     1.356    -1.759    -5.967 
 H                     1.452    -3.157    -4.902 
 H                     2.714    -0.522    -4.798 
 H                     3.487    -2.121    -4.529 
 H                     2.495    -1.303    -3.24 
 H                     0.867    -6.333    -0.084 
 H                     0.404    -5.642    -1.68 
 H                    -0.891    -5.999    -0.463 
 H                    -1.283    -3.581     4.028 
 H                     0.698    -4.478     7.755 
 H                     0.833    -2.619     7.68 
 H                     2.       -3.754     6.976 
 Mg                    31.54156   2.84272   2.39132 
 C                     33.96374   0.69623   3.94202 
 C                     33.09649   5.45998   3.92972 
 C                     29.16544   4.70235   1.40985 
 C                     29.54538   0.02385   1.92768 
 N                     33.2945   2.93878   3.73676 
 C                     34.17253   2.06575   4.2071 
 C                     35.38423   2.70282   4.93887 
 C                     34.70637   4.09712   5.35754 
 C                     33.65349   4.19761   4.25571 
 C                     33.99164   4.04046   6.69742 
 C                     36.61008   2.92373   3.98466 
 C                     37.92569   3.25297   4.69354 
 H                     39.16938   2.73872   4.12675 
 N                     31.44272   4.81746   2.22044 
 C                     32.16236   5.73055   2.90576 
 C                     31.70319   7.04452   2.42949 
 C                     30.53843   6.83556   1.52705 
 C                     30.31922   5.41409   1.70442 
 C                     32.4065   8.32561   2.77241 
 C                     29.74424   7.76412   0.65916 
 O                     28.62491   7.41173   0.14364 
 C                     30.26926   9.12891   0.50681 
 N                     29.54508   2.4651    1.95106 
 C                     28.74145   3.44118   1.4935 
 C                     27.43482   2.8791    0.98639 
 C                     27.62551   1.2913    0.97558 
 C                     29.03991   1.20212   1.58953 
 C                     26.19444   3.23689   1.80483 
 C                     27.35515   0.55913  -0.36736 
 C                     28.40261   0.94637  -1.38631 
 N                     31.76943   0.71244   2.67068 
 C                     30.79911  -0.2869    2.43853 
 C                     31.38104  -1.57021   2.88229 
 C                     32.6509  -1.22229   3.36696 
 C                     32.83875   0.18173   3.25323 
 C                     30.72764  -2.83445   2.85246 
 C                     33.87103  -1.72206   3.95872 
 O                     34.32093  -2.83954   4.20886 
 C                     34.7262  -0.48536   4.47412 
 C                     36.1433  -0.67323   4.00608 
 O                     36.41698  -0.64762   2.79321 
 O                     36.96724  -0.63447   5.06909 
 C                     38.38527  -0.8053    4.65456 
 H                     33.36736   6.32037   4.54229 
 H                     28.35436   5.28269   0.96395 
 H                     29.02423  -0.91449   1.72615 
 H                     35.71311   2.16914   5.8225 
 H                     35.41457   4.91836   5.28423 
 H                     33.95657   3.03633   7.09319 
 H                     32.99124   4.40959   6.51303 
 H                     34.4484   4.74497   7.3984 
 H                     36.46224   3.85408   3.42134 
 H                     36.74873   2.07741   3.34034 
 H                     37.87803   3.04353   5.76909 
 H                     38.08947   4.33189   4.63759 
 H                     33.12929   8.1826    3.58513 
 H                     31.65384   9.00066   3.19393 
 H                     32.86104   8.80274   1.90154 
 H                     30.34947   9.59631   1.48536 
 H                     29.61452   9.61451  -0.2194 
 H                     31.28577   9.06956   0.10211 
 H                     27.2349   3.21591  -0.02341 
 H                     26.94442   0.7943    1.68193 
 H                     25.40974   3.74153   1.21014 
 H                     26.50118   3.85882   2.63529 
 H                     25.71582   2.39869   2.30836 
 H                     26.39161   0.86822  -0.77992 
 H                     27.33352  -0.52148  -0.27344 
 H                     28.02275   1.89249  -1.78336 
 H                     28.47533   0.1916   -2.16675 
 H                     29.36419   1.15418  -0.90275 
 H                     31.45039  -3.54981   2.48313 
 H                     29.83811  -2.80758   2.22653 
 H                     30.48123  -2.95167   3.91114 
 H                     34.65342  -0.46745   5.56222 
 H                     38.78477  -1.65063   5.22333 
 H                     38.86357   0.17951   4.81308 
 H                     38.57477  -1.12654   3.63705 
 
 ITRead=  0  0  0  0  0  0  0  0  0  0  0  0  0  0  0  0  0  0  0  0
 ITRead=  0  0  0  0  0  0  0  0  0  0  0  0  0  0  0  0  0  0  0  0
 ITRead=  0  0  0  0  0  0  0  0  0  0  0  0  0  0  0  0  0  0  0  0
 ITRead=  0  0  0  0  0  0  0  0  0  0  0  0  0  0  0  0  0  0  0  0
 ITRead=  0  0  0  0  0  0  0  0  0  0  0  0  0  0  0  0  0  0  0  0
 ITRead=  0  0  0  0  0  0  0  0  0  0  0  0  0  0  0  0  0  0  0  0
 ITRead=  0  0  0  0  0  0  0  0  0  0  0  0  0  0  0  0  0  0  0  0
 ITRead=  0  0  0  0  0  0  0  0  0  0  0  0  0  0  0  0  0  0
 MicOpt= -1 -1 -1 -1 -1 -1 -1 -1 -1 -1 -1 -1 -1 -1 -1 -1 -1 -1 -1 -1
 MicOpt= -1 -1 -1 -1 -1 -1 -1 -1 -1 -1 -1 -1 -1 -1 -1 -1 -1 -1 -1 -1
 MicOpt= -1 -1 -1 -1 -1 -1 -1 -1 -1 -1 -1 -1 -1 -1 -1 -1 -1 -1 -1 -1
 MicOpt= -1 -1 -1 -1 -1 -1 -1 -1 -1 -1 -1 -1 -1 -1 -1 -1 -1 -1 -1 -1
 MicOpt= -1 -1 -1 -1 -1 -1 -1 -1 -1 -1 -1 -1 -1 -1 -1 -1 -1 -1 -1 -1
 MicOpt= -1 -1 -1 -1 -1 -1 -1 -1 -1 -1 -1 -1 -1 -1 -1 -1 -1 -1 -1 -1
 MicOpt= -1 -1 -1 -1 -1 -1 -1 -1 -1 -1 -1 -1 -1 -1 -1 -1 -1 -1 -1 -1
 MicOpt= -1 -1 -1 -1 -1 -1 -1 -1 -1 -1 -1 -1 -1 -1 -1 -1 -1 -1
 NAtoms=    158 NQM=      158 NQMF=       0 NMMI=      0 NMMIF=      0
                NMic=       0 NMicF=      0.
                    Isotopes and Nuclear Properties:
 (Nuclear quadrupole moments (NQMom) in fm**2, nuclear magnetic moments (NMagM)
  in nuclear magnetons)

  Atom         1           2           3           4           5           6           7           8           9          10
 IAtWgt=          24          12          12          12          12          14          12          12          12          12
 AtmWgt=  23.9850450  12.0000000  12.0000000  12.0000000  12.0000000  14.0030740  12.0000000  12.0000000  12.0000000  12.0000000
 NucSpn=           0           0           0           0           0           2           0           0           0           0
 AtZEff=  -0.0000000  -0.0000000  -0.0000000  -0.0000000  -0.0000000  -0.0000000  -0.0000000  -0.0000000  -0.0000000  -0.0000000
 NQMom=    0.0000000   0.0000000   0.0000000   0.0000000   0.0000000   2.0440000   0.0000000   0.0000000   0.0000000   0.0000000
 NMagM=    0.0000000   0.0000000   0.0000000   0.0000000   0.0000000   0.4037610   0.0000000   0.0000000   0.0000000   0.0000000
 AtZNuc=  12.0000000   6.0000000   6.0000000   6.0000000   6.0000000   7.0000000   6.0000000   6.0000000   6.0000000   6.0000000

  Atom        11          12          13          14          15          16          17          18          19          20
 IAtWgt=          12          12          12           1          14          12          12          12          12          12
 AtmWgt=  12.0000000  12.0000000  12.0000000   1.0078250  14.0030740  12.0000000  12.0000000  12.0000000  12.0000000  12.0000000
 NucSpn=           0           0           0           1           2           0           0           0           0           0
 AtZEff=  -0.0000000  -0.0000000  -0.0000000  -0.0000000  -0.0000000  -0.0000000  -0.0000000  -0.0000000  -0.0000000  -0.0000000
 NQMom=    0.0000000   0.0000000   0.0000000   0.0000000   2.0440000   0.0000000   0.0000000   0.0000000   0.0000000   0.0000000
 NMagM=    0.0000000   0.0000000   0.0000000   2.7928460   0.4037610   0.0000000   0.0000000   0.0000000   0.0000000   0.0000000
 AtZNuc=   6.0000000   6.0000000   6.0000000   1.0000000   7.0000000   6.0000000   6.0000000   6.0000000   6.0000000   6.0000000

  Atom        21          22          23          24          25          26          27          28          29          30
 IAtWgt=          12          16          12          14          12          12          12          12          12          12
 AtmWgt=  12.0000000  15.9949146  12.0000000  14.0030740  12.0000000  12.0000000  12.0000000  12.0000000  12.0000000  12.0000000
 NucSpn=           0           0           0           2           0           0           0           0           0           0
 AtZEff=  -0.0000000  -0.0000000  -0.0000000  -0.0000000  -0.0000000  -0.0000000  -0.0000000  -0.0000000  -0.0000000  -0.0000000
 NQMom=    0.0000000   0.0000000   0.0000000   2.0440000   0.0000000   0.0000000   0.0000000   0.0000000   0.0000000   0.0000000
 NMagM=    0.0000000   0.0000000   0.0000000   0.4037610   0.0000000   0.0000000   0.0000000   0.0000000   0.0000000   0.0000000
 AtZNuc=   6.0000000   8.0000000   6.0000000   7.0000000   6.0000000   6.0000000   6.0000000   6.0000000   6.0000000   6.0000000

  Atom        31          32          33          34          35          36          37          38          39          40
 IAtWgt=          12          14          12          12          12          12          12          12          16          12
 AtmWgt=  12.0000000  14.0030740  12.0000000  12.0000000  12.0000000  12.0000000  12.0000000  12.0000000  15.9949146  12.0000000
 NucSpn=           0           2           0           0           0           0           0           0           0           0
 AtZEff=  -0.0000000  -0.0000000  -0.0000000  -0.0000000  -0.0000000  -0.0000000  -0.0000000  -0.0000000  -0.0000000  -0.0000000
 NQMom=    0.0000000   2.0440000   0.0000000   0.0000000   0.0000000   0.0000000   0.0000000   0.0000000   0.0000000   0.0000000
 NMagM=    0.0000000   0.4037610   0.0000000   0.0000000   0.0000000   0.0000000   0.0000000   0.0000000   0.0000000   0.0000000
 AtZNuc=   6.0000000   7.0000000   6.0000000   6.0000000   6.0000000   6.0000000   6.0000000   6.0000000   8.0000000   6.0000000

  Atom        41          42          43          44          45          46          47          48          49          50
 IAtWgt=          12          16          16          12           1           1           1           1           1           1
 AtmWgt=  12.0000000  15.9949146  15.9949146  12.0000000   1.0078250   1.0078250   1.0078250   1.0078250   1.0078250   1.0078250
 NucSpn=           0           0           0           0           1           1           1           1           1           1
 AtZEff=  -0.0000000  -0.0000000  -0.0000000  -0.0000000  -0.0000000  -0.0000000  -0.0000000  -0.0000000  -0.0000000  -0.0000000
 NQMom=    0.0000000   0.0000000   0.0000000   0.0000000   0.0000000   0.0000000   0.0000000   0.0000000   0.0000000   0.0000000
 NMagM=    0.0000000   0.0000000   0.0000000   0.0000000   2.7928460   2.7928460   2.7928460   2.7928460   2.7928460   2.7928460
 AtZNuc=   6.0000000   8.0000000   8.0000000   6.0000000   1.0000000   1.0000000   1.0000000   1.0000000   1.0000000   1.0000000

  Atom        51          52          53          54          55          56          57          58          59          60
 IAtWgt=           1           1           1           1           1           1           1           1           1           1
 AtmWgt=   1.0078250   1.0078250   1.0078250   1.0078250   1.0078250   1.0078250   1.0078250   1.0078250   1.0078250   1.0078250
 NucSpn=           1           1           1           1           1           1           1           1           1           1
 AtZEff=  -0.0000000  -0.0000000  -0.0000000  -0.0000000  -0.0000000  -0.0000000  -0.0000000  -0.0000000  -0.0000000  -0.0000000
 NQMom=    0.0000000   0.0000000   0.0000000   0.0000000   0.0000000   0.0000000   0.0000000   0.0000000   0.0000000   0.0000000
 NMagM=    2.7928460   2.7928460   2.7928460   2.7928460   2.7928460   2.7928460   2.7928460   2.7928460   2.7928460   2.7928460
 AtZNuc=   1.0000000   1.0000000   1.0000000   1.0000000   1.0000000   1.0000000   1.0000000   1.0000000   1.0000000   1.0000000

  Atom        61          62          63          64          65          66          67          68          69          70
 IAtWgt=           1           1           1           1           1           1           1           1           1           1
 AtmWgt=   1.0078250   1.0078250   1.0078250   1.0078250   1.0078250   1.0078250   1.0078250   1.0078250   1.0078250   1.0078250
 NucSpn=           1           1           1           1           1           1           1           1           1           1
 AtZEff=  -0.0000000  -0.0000000  -0.0000000  -0.0000000  -0.0000000  -0.0000000  -0.0000000  -0.0000000  -0.0000000  -0.0000000
 NQMom=    0.0000000   0.0000000   0.0000000   0.0000000   0.0000000   0.0000000   0.0000000   0.0000000   0.0000000   0.0000000
 NMagM=    2.7928460   2.7928460   2.7928460   2.7928460   2.7928460   2.7928460   2.7928460   2.7928460   2.7928460   2.7928460
 AtZNuc=   1.0000000   1.0000000   1.0000000   1.0000000   1.0000000   1.0000000   1.0000000   1.0000000   1.0000000   1.0000000

  Atom        71          72          73          74          75          76          77          78          79          80
 IAtWgt=           1           1           1           1           1           1           1           1           1          24
 AtmWgt=   1.0078250   1.0078250   1.0078250   1.0078250   1.0078250   1.0078250   1.0078250   1.0078250   1.0078250  23.9850450
 NucSpn=           1           1           1           1           1           1           1           1           1           0
 AtZEff=  -0.0000000  -0.0000000  -0.0000000  -0.0000000  -0.0000000  -0.0000000  -0.0000000  -0.0000000  -0.0000000  -0.0000000
 NQMom=    0.0000000   0.0000000   0.0000000   0.0000000   0.0000000   0.0000000   0.0000000   0.0000000   0.0000000   0.0000000
 NMagM=    2.7928460   2.7928460   2.7928460   2.7928460   2.7928460   2.7928460   2.7928460   2.7928460   2.7928460   0.0000000
 AtZNuc=   1.0000000   1.0000000   1.0000000   1.0000000   1.0000000   1.0000000   1.0000000   1.0000000   1.0000000  12.0000000

  Atom        81          82          83          84          85          86          87          88          89          90
 IAtWgt=          12          12          12          12          14          12          12          12          12          12
 AtmWgt=  12.0000000  12.0000000  12.0000000  12.0000000  14.0030740  12.0000000  12.0000000  12.0000000  12.0000000  12.0000000
 NucSpn=           0           0           0           0           2           0           0           0           0           0
 AtZEff=  -0.0000000  -0.0000000  -0.0000000  -0.0000000  -0.0000000  -0.0000000  -0.0000000  -0.0000000  -0.0000000  -0.0000000
 NQMom=    0.0000000   0.0000000   0.0000000   0.0000000   2.0440000   0.0000000   0.0000000   0.0000000   0.0000000   0.0000000
 NMagM=    0.0000000   0.0000000   0.0000000   0.0000000   0.4037610   0.0000000   0.0000000   0.0000000   0.0000000   0.0000000
 AtZNuc=   6.0000000   6.0000000   6.0000000   6.0000000   7.0000000   6.0000000   6.0000000   6.0000000   6.0000000   6.0000000

  Atom        91          92          93          94          95          96          97          98          99         100
 IAtWgt=          12          12           1          14          12          12          12          12          12          12
 AtmWgt=  12.0000000  12.0000000   1.0078250  14.0030740  12.0000000  12.0000000  12.0000000  12.0000000  12.0000000  12.0000000
 NucSpn=           0           0           1           2           0           0           0           0           0           0
 AtZEff=  -0.0000000  -0.0000000  -0.0000000  -0.0000000  -0.0000000  -0.0000000  -0.0000000  -0.0000000  -0.0000000  -0.0000000
 NQMom=    0.0000000   0.0000000   0.0000000   2.0440000   0.0000000   0.0000000   0.0000000   0.0000000   0.0000000   0.0000000
 NMagM=    0.0000000   0.0000000   2.7928460   0.4037610   0.0000000   0.0000000   0.0000000   0.0000000   0.0000000   0.0000000
 AtZNuc=   6.0000000   6.0000000   1.0000000   7.0000000   6.0000000   6.0000000   6.0000000   6.0000000   6.0000000   6.0000000

  Atom       101         102         103         104         105         106         107         108         109         110
 IAtWgt=          16          12          14          12          12          12          12          12          12          12
 AtmWgt=  15.9949146  12.0000000  14.0030740  12.0000000  12.0000000  12.0000000  12.0000000  12.0000000  12.0000000  12.0000000
 NucSpn=           0           0           2           0           0           0           0           0           0           0
 AtZEff=  -0.0000000  -0.0000000  -0.0000000  -0.0000000  -0.0000000  -0.0000000  -0.0000000  -0.0000000  -0.0000000  -0.0000000
 NQMom=    0.0000000   0.0000000   2.0440000   0.0000000   0.0000000   0.0000000   0.0000000   0.0000000   0.0000000   0.0000000
 NMagM=    0.0000000   0.0000000   0.4037610   0.0000000   0.0000000   0.0000000   0.0000000   0.0000000   0.0000000   0.0000000
 AtZNuc=   8.0000000   6.0000000   7.0000000   6.0000000   6.0000000   6.0000000   6.0000000   6.0000000   6.0000000   6.0000000

  Atom       111         112         113         114         115         116         117         118         119         120
 IAtWgt=          14          12          12          12          12          12          12          16          12          12
 AtmWgt=  14.0030740  12.0000000  12.0000000  12.0000000  12.0000000  12.0000000  12.0000000  15.9949146  12.0000000  12.0000000
 NucSpn=           2           0           0           0           0           0           0           0           0           0
 AtZEff=  -0.0000000  -0.0000000  -0.0000000  -0.0000000  -0.0000000  -0.0000000  -0.0000000  -0.0000000  -0.0000000  -0.0000000
 NQMom=    2.0440000   0.0000000   0.0000000   0.0000000   0.0000000   0.0000000   0.0000000   0.0000000   0.0000000   0.0000000
 NMagM=    0.4037610   0.0000000   0.0000000   0.0000000   0.0000000   0.0000000   0.0000000   0.0000000   0.0000000   0.0000000
 AtZNuc=   7.0000000   6.0000000   6.0000000   6.0000000   6.0000000   6.0000000   6.0000000   8.0000000   6.0000000   6.0000000

  Atom       121         122         123         124         125         126         127         128         129         130
 IAtWgt=          16          16          12           1           1           1           1           1           1           1
 AtmWgt=  15.9949146  15.9949146  12.0000000   1.0078250   1.0078250   1.0078250   1.0078250   1.0078250   1.0078250   1.0078250
 NucSpn=           0           0           0           1           1           1           1           1           1           1
 AtZEff=  -0.0000000  -0.0000000  -0.0000000  -0.0000000  -0.0000000  -0.0000000  -0.0000000  -0.0000000  -0.0000000  -0.0000000
 NQMom=    0.0000000   0.0000000   0.0000000   0.0000000   0.0000000   0.0000000   0.0000000   0.0000000   0.0000000   0.0000000
 NMagM=    0.0000000   0.0000000   0.0000000   2.7928460   2.7928460   2.7928460   2.7928460   2.7928460   2.7928460   2.7928460
 AtZNuc=   8.0000000   8.0000000   6.0000000   1.0000000   1.0000000   1.0000000   1.0000000   1.0000000   1.0000000   1.0000000

  Atom       131         132         133         134         135         136         137         138         139         140
 IAtWgt=           1           1           1           1           1           1           1           1           1           1
 AtmWgt=   1.0078250   1.0078250   1.0078250   1.0078250   1.0078250   1.0078250   1.0078250   1.0078250   1.0078250   1.0078250
 NucSpn=           1           1           1           1           1           1           1           1           1           1
 AtZEff=  -0.0000000  -0.0000000  -0.0000000  -0.0000000  -0.0000000  -0.0000000  -0.0000000  -0.0000000  -0.0000000  -0.0000000
 NQMom=    0.0000000   0.0000000   0.0000000   0.0000000   0.0000000   0.0000000   0.0000000   0.0000000   0.0000000   0.0000000
 NMagM=    2.7928460   2.7928460   2.7928460   2.7928460   2.7928460   2.7928460   2.7928460   2.7928460   2.7928460   2.7928460
 AtZNuc=   1.0000000   1.0000000   1.0000000   1.0000000   1.0000000   1.0000000   1.0000000   1.0000000   1.0000000   1.0000000

  Atom       141         142         143         144         145         146         147         148         149         150
 IAtWgt=           1           1           1           1           1           1           1           1           1           1
 AtmWgt=   1.0078250   1.0078250   1.0078250   1.0078250   1.0078250   1.0078250   1.0078250   1.0078250   1.0078250   1.0078250
 NucSpn=           1           1           1           1           1           1           1           1           1           1
 AtZEff=  -0.0000000  -0.0000000  -0.0000000  -0.0000000  -0.0000000  -0.0000000  -0.0000000  -0.0000000  -0.0000000  -0.0000000
 NQMom=    0.0000000   0.0000000   0.0000000   0.0000000   0.0000000   0.0000000   0.0000000   0.0000000   0.0000000   0.0000000
 NMagM=    2.7928460   2.7928460   2.7928460   2.7928460   2.7928460   2.7928460   2.7928460   2.7928460   2.7928460   2.7928460
 AtZNuc=   1.0000000   1.0000000   1.0000000   1.0000000   1.0000000   1.0000000   1.0000000   1.0000000   1.0000000   1.0000000

  Atom       151         152         153         154         155         156         157         158
 IAtWgt=           1           1           1           1           1           1           1           1
 AtmWgt=   1.0078250   1.0078250   1.0078250   1.0078250   1.0078250   1.0078250   1.0078250   1.0078250
 NucSpn=           1           1           1           1           1           1           1           1
 AtZEff=  -0.0000000  -0.0000000  -0.0000000  -0.0000000  -0.0000000  -0.0000000  -0.0000000  -0.0000000
 NQMom=    0.0000000   0.0000000   0.0000000   0.0000000   0.0000000   0.0000000   0.0000000   0.0000000
 NMagM=    2.7928460   2.7928460   2.7928460   2.7928460   2.7928460   2.7928460   2.7928460   2.7928460
 AtZNuc=   1.0000000   1.0000000   1.0000000   1.0000000   1.0000000   1.0000000   1.0000000   1.0000000
 Leave Link  101 at Sun Sep 12 21:09:56 2021, MaxMem= 23488102400 cpu:               3.9 elap:               0.2
 (Enter /sw/apps/gaussian-16.0/g16/l202.exe)
 Stoichiometry    C68H72Mg2N8O8
 Framework group  C1[X(C68H72Mg2N8O8)]
 Deg. of freedom   468
 Full point group                 C1      NOp   1
 Largest Abelian subgroup         C1      NOp   1
 Largest concise Abelian subgroup C1      NOp   1
                         Standard orientation:                         
 ---------------------------------------------------------------------
 Center     Atomic      Atomic             Coordinates (Angstroms)
 Number     Number       Type             X           Y           Z
 ---------------------------------------------------------------------
      1         12           0       16.121158    0.523662    0.358092
      2          6           0       16.317632   -2.749575   -1.077014
      3          6           0       17.019096    1.754087   -2.695238
      4          6           0       16.397201    3.378606    1.710763
      5          6           0       16.357944   -0.994396    3.486205
      6          7           0       16.580971   -0.471884   -1.564953
      7          6           0       16.561662   -1.728515   -1.998171
      8          6           0       16.750599   -1.853583   -3.539610
      9          6           0       17.511029   -0.479046   -3.812361
     10          6           0       16.979371    0.329095   -2.641818
     11          6           0       19.027352   -0.586296   -3.686805
     12          6           0       15.384852   -1.914018   -4.303033
     13          6           0       15.472799   -2.361215   -5.765099
     14          1           0       14.396733   -3.171436   -6.315528
     15          7           0       16.153443    2.326309   -0.449542
     16          6           0       16.531347    2.641583   -1.711714
     17          6           0       16.378760    4.107778   -1.828627
     18          6           0       16.062921    4.641783   -0.474678
     19          6           0       16.219743    3.458225    0.331533
     20          6           0       16.483844    4.844933   -3.128361
     21          6           0       15.690695    6.005046    0.016337
     22          8           0       15.685494    6.302161    1.259828
     23          6           0       15.414396    7.021836   -1.014604
     24          7           0       16.565935    1.136282    2.303473
     25          6           0       16.564268    2.431721    2.636367
     26          6           0       16.628131    2.613287    4.123947
     27          6           0       16.428167    1.160437    4.755606
     28          6           0       16.362102    0.339868    3.443900
     29          6           0       17.923214    3.232308    4.667624
     30          6           0       15.285181    0.993832    5.788197
     31          6           0       13.946966    1.161590    5.103991
     32          7           0       16.127884   -1.510280    1.115772
     33          6           0       16.259151   -1.911395    2.453139
     34          6           0       16.316932   -3.384725    2.458561
     35          6           0       16.231381   -3.740008    1.113831
     36          6           0       16.153215   -2.562304    0.316839
     37          6           0       16.492149   -4.207639    3.605969
     38          6           0       16.212628   -4.839837    0.163104
     39          8           0       16.157395   -6.066837    0.257512
     40          6           0       16.390469   -4.239551   -1.301087
     41          6           0       15.345682   -4.870213   -2.180858
     42          8           0       14.133228   -4.632441   -2.005396
     43          8           0       15.942925   -5.458526   -3.228584
     44          6           0       14.960099   -6.078575   -4.156886
     45          1           0       17.520749    2.236973   -3.536134
     46          1           0       16.386356    4.340375    2.227793
     47          1           0       16.346464   -1.540254    4.431383
     48          1           0       17.372221   -2.691842   -3.854783
     49          1           0       17.206373   -0.025596   -4.755383
     50          1           0       19.327383   -1.561407   -3.303321
     51          1           0       19.318365    0.201937   -2.992187
     52          1           0       19.512373   -0.345775   -4.633210
     53          1           0       15.005212   -0.901670   -4.441181
     54          1           0       14.674717   -2.550156   -3.773541
     55          1           0       16.441160   -2.810664   -5.986866
     56          1           0       15.435147   -1.473544   -6.396622
     57          1           0       16.886396    4.210625   -3.917126
     58          1           0       17.236312    5.621736   -2.993903
     59          1           0       15.536393    5.297632   -3.421162
     60          1           0       16.294952    7.142768   -1.645909
     61          1           0       15.078327    7.909186   -0.479331
     62          1           0       14.618487    6.657963   -1.665046
     63          1           0       15.830009    3.267354    4.472693
     64          1           0       17.317476    0.819087    5.285968
     65          1           0       17.763559    4.138730    5.252102
     66          1           0       18.585839    3.422719    3.823845
     67          1           0       18.531342    2.561193    5.273596
     68          1           0       15.351999    1.764462    6.555408
     69          1           0       15.295276    0.025612    6.288895
     70          1           0       13.814913    2.242875    5.089331
     71          1           0       13.159703    0.679969    5.684912
     72          1           0       13.984356    0.823814    4.068136
     73          1           0       15.790677   -5.034842    3.498069
     74          1           0       16.309301   -3.650462    4.524513
     75          1           0       17.537766   -4.493176    3.491909
     76          1           0       17.401185   -4.489888   -1.621876
     77          1           0       15.236342   -7.127714   -4.262866
     78          1           0       14.953449   -5.463683   -5.057035
     79          1           0       13.938723   -6.171157   -3.785995
     80         12           0      -15.637579    0.666459    0.180001
     81          6           0      -17.979481   -2.050977    0.079574
     82          6           0      -17.511641    2.174404   -2.238372
     83          6           0      -13.358950    2.859230   -0.078956
     84          6           0      -13.386176   -1.512937    1.705499
     85          7           0      -17.485387    0.043107   -0.863681
     86          6           0      -18.319788   -0.981710   -0.775005
     87          6           0      -19.630009   -0.816812   -1.590904
     88          6           0      -19.102256    0.235383   -2.683247
     89          6           0      -17.984212    0.888529   -1.873270
     90          6           0      -18.484346   -0.424271   -3.904873
     91          6           0      -20.797518   -0.216040   -0.731822
     92          6           0      -22.183830   -0.314762   -1.372237
     93          1           0      -23.336204   -0.545003   -0.505350
     94          7           0      -15.690700    2.486836   -0.608653
     95          6           0      -16.531375    2.935373   -1.564350
     96          6           0      -16.149419    4.334311   -1.811880
     97          6           0      -14.908975    4.624991   -1.042768
     98          6           0      -14.586090    3.299979   -0.552689
     99          6           0      -16.979549    5.269750   -2.642102
    100          6           0      -14.133678    5.884504   -0.800411
    101          8           0      -12.954554    5.863315   -0.298359
    102          6           0      -14.757627    7.136002   -1.254226
    103          7           0      -13.590009    0.621153    0.537440
    104          6           0      -12.839027    1.727571    0.396797
    105          6           0      -11.456965    1.525350    0.970719
    106          6           0      -11.514045    0.127883    1.746231
    107          6           0      -12.956966   -0.297167    1.395905
    108          6           0      -10.313156    1.498253   -0.042873
    109          6           0      -11.087227    0.133849    3.239698
    110          6           0      -12.086529    0.918467    4.058940
    111          7           0      -15.707672   -1.347186    0.959988
    112          6           0      -14.643554   -2.077436    1.533123
    113          6           0      -15.147708   -3.438703    1.807404
    114          6           0      -16.473838   -3.412576    1.350027
    115          6           0      -16.768723   -2.131964    0.809129
    116          6           0      -14.391287   -4.510216    2.360406
    117          6           0      -17.688015   -4.180369    1.192111
    118          8           0      -18.060652   -5.298704    1.544544
    119          6           0      -18.677907   -3.371856    0.247230
    120          6           0      -20.036862   -3.368971    0.892028
    121          8           0      -20.223042   -2.780002    1.971408
    122          8           0      -20.936091   -3.872448    0.027003
    123          6           0      -22.301263   -3.880083    0.616980
    124          1           0      -17.896632    2.628566   -3.151828
    125          1           0      -12.568594    3.612639   -0.044567
    126          1           0      -12.775773   -2.221490    2.269462
    127          1           0      -19.976714   -1.718859   -2.080685
    128          1           0      -19.868929    0.964573   -2.931947
    129          1           0      -18.394925   -1.493567   -3.783416
    130          1           0      -17.507272    0.026435   -4.019971
    131          1           0      -19.047581   -0.156322   -4.803376
    132          1           0      -20.686873    0.875196   -0.690599
    133          1           0      -20.818418   -0.658540    0.245105
    134          1           0      -22.197092   -1.008662   -2.221514
    135          1           0      -22.432023    0.653615   -1.813451
    136          1           0      -17.745019    4.729528   -3.212720
    137          1           0      -16.318015    5.691450   -3.406570
    138          1           0      -17.407732    6.085794   -2.056093
    139          1           0      -14.947071    7.078075   -2.323437
    140          1           0      -14.094474    7.933484   -0.913458
    141          1           0      -15.733680    7.237150   -0.766695
    142          1           0      -11.212960    2.309449    1.676945
    143          1           0      -10.847112   -0.618605    1.290403
    144          1           0       -9.531951    2.254911    0.160249
    145          1           0      -10.729827    1.637826   -1.031536
    146          1           0       -9.804459    0.540619   -0.139637
    147          1           0      -10.125263    0.638926    3.356636
    148          1           0      -10.982932   -0.859564    3.663089
    149          1           0      -11.758642    1.953413    3.923062
    150          1           0      -12.039621    0.623719    5.105351
    151          1           0      -13.094556    0.833903    3.636589
    152          1           0      -15.023535   -4.991013    3.094987
    153          1           0      -13.464007   -4.154480    2.804676
    154          1           0      -14.213432   -5.107382    1.462061
    155          1           0      -18.685964   -3.870978   -0.722508
    156          1           0      -22.669481   -4.908916    0.556981
    157          1           0      -22.869811   -3.108579    0.064454
    158          1           0      -22.389181   -3.685596    1.679467
 ---------------------------------------------------------------------
 Rotational constants (GHZ):           0.0255344           0.0015703           0.0015400
 Leave Link  202 at Sun Sep 12 21:09:56 2021, MaxMem= 23488102400 cpu:               0.2 elap:               0.0
 (Enter /sw/apps/gaussian-16.0/g16/l301.exe)
 Standard basis: def2SVP (5D, 7F)
 Ernie: Thresh=  0.10000D-02 Tol=  0.10000D-05 Strict=F.
 There are  1658 symmetry adapted cartesian basis functions of A   symmetry.
 There are  1572 symmetry adapted basis functions of A   symmetry.
  1572 basis functions,  2678 primitive gaussians,  1658 cartesian basis functions
   312 alpha electrons      312 beta electrons
       nuclear repulsion energy     12294.7125509910 Hartrees.
 IExCor=20419 DFT=T Ex+Corr=CAM-B3LYP ExCW=0 ScaHFX=  1.000000
 ScaDFX=  1.000000  1.000000  1.000000  0.810000 ScalE2=  1.000000  1.000000
 IRadAn=      5 IRanWt=     -1 IRanGd=            0 ICorTp=0 IEmpDi=  4
 HFx  wShort=  0.000000 wLong=  0.330000 cFull=  0.190000 cShort=  0.000000 cLong=  0.460000
 DFx  wShort=  0.000000 wLong=  0.330000 cFull=  0.190000 cShort=  0.000000 cLong=  0.460000
 NAtoms=  158 NActive=  158 NUniq=  158 SFac= 1.00D+00 NAtFMM=   60 NAOKFM=T Big=T
 Integral buffers will be    131072 words long.
 Raffenetti 1 integral format.
 Two-electron integral symmetry is turned on.
 Leave Link  301 at Sun Sep 12 21:09:56 2021, MaxMem= 23488102400 cpu:               1.4 elap:               0.1
 (Enter /sw/apps/gaussian-16.0/g16/l302.exe)
 NPDir=0 NMtPBC=     1 NCelOv=     1 NCel=       1 NClECP=     1 NCelD=      1
         NCelK=      1 NCelE2=     1 NClLst=     1 CellRange=     0.0.
 One-electron integrals computed using PRISM.
 One-electron integral symmetry used in STVInt
   1 Symmetry operations used in ECPInt.
 ECPInt:  NShTT=  271216 NPrTT=  987664 LenC2=  103957 LenP2D=  239866.
 LDataN:  DoStor=T MaxTD1= 4 Len=   56
 NBasis=  1572 RedAO= T EigKep=  3.36D-04  NBF=  1572
 NBsUse=  1572 1.00D-06 EigRej= -1.00D+00 NBFU=  1572
 Precomputing XC quadrature grid using
 IXCGrd= 4 IRadAn=           5 IRanWt=          -1 IRanGd=           0 AccXCQ= 0.00D+00.
 Generated NRdTot=       0 NPtTot=           0 NUsed=           0 NTot=          32
 NSgBfM=   812   812   812   812   812 MxSgAt=   158 MxSgA2=    79.
 Leave Link  302 at Sun Sep 12 21:10:00 2021, MaxMem= 23488102400 cpu:              97.8 elap:               4.1
 (Enter /sw/apps/gaussian-16.0/g16/l303.exe)
 DipDrv:  MaxL=1.
 Leave Link  303 at Sun Sep 12 21:10:00 2021, MaxMem= 23488102400 cpu:               8.6 elap:               0.4
 (Enter /sw/apps/gaussian-16.0/g16/l308.exe)
 Leave Link  308 at Sun Sep 12 21:10:01 2021, MaxMem= 23488102400 cpu:              12.5 elap:               0.6
 (Enter /sw/apps/gaussian-16.0/g16/l401.exe)
 ExpMin= 3.36D-02 ExpMax= 4.95D+03 ExpMxC= 7.45D+02 IAcc=3 IRadAn=         5 AccDes= 0.00D+00
 Harris functional with IExCor=20419 and IRadAn=       5 diagonalized for initial guess.
 HarFok:  IExCor=20419 AccDes= 0.00D+00 IRadAn=         5 IDoV= 1 UseB2=F ITyADJ=14
 ICtDFT=  3500011 ScaDFX=  1.000000  1.000000  1.000000  1.000000
 FoFCou: FMM=F IPFlag=           0 FMFlag=      100000 FMFlg1=        2001
         NFxFlg=           0 DoJE=T BraDBF=F KetDBF=T FulRan=T
         wScrn=  0.000000 ICntrl=       500 IOpCl=  0 I1Cent=   200000004 NGrid=           0
         NMat0=    1 NMatS0=      1 NMatT0=    0 NMatD0=    1 NMtDS0=    0 NMtDT0=    0
 Petite list used in FoFCou.
 Harris En= -3918.65800696893    
 JPrj=0 DoOrth=F DoCkMO=F.
 Leave Link  401 at Sun Sep 12 21:10:08 2021, MaxMem= 23488102400 cpu:             159.5 elap:               6.7
 (Enter /sw/apps/gaussian-16.0/g16/l502.exe)
 Integral symmetry usage will be decided dynamically.
 Closed shell SCF:
 Using DIIS extrapolation, IDIIS=  1040.
 NGot= 23488102400 LenX= 23482547354 LenY= 23479796732
 Requested convergence on RMS density matrix=1.00D-08 within 128 cycles.
 Requested convergence on MAX density matrix=1.00D-06.
 Requested convergence on             energy=1.00D-06.
 No special actions if energy rises.
 Fock matrices will be formed incrementally for  20 cycles.

 Cycle   1  Pass 1  IDiag  1:
 FoFJK:  IHMeth= 1 ICntrl=       0 DoSepK=T KAlg= 0 I1Cent=           0 FoldK=F
 IRaf=         1 NMat=       1 IRICut=       1 DoRegI=T DoRafI=F ISym2E= 0 IDoP0=0 IntGTp=1.
 FoFCou: FMM=T IPFlag=           0 FMFlag=      100000 FMFlg1=        2001
         NFxFlg=           0 DoJE=T BraDBF=F KetDBF=F FulRan=T
         wScrn=  0.000000 ICntrl=       500 IOpCl=  0 I1Cent=           0 NGrid=           0
         NMat0=    1 NMatS0=      1 NMatT0=    0 NMatD0=    1 NMtDS0=    0 NMtDT0=    0
 Symmetry not used in FoFCou.
 FMM levels:  10  Number of levels for PrismC:   9
 E= -4068.94925517942    
 DIIS: error= 2.04D-02 at cycle   1 NSaved=   1.
 NSaved= 1 IEnMin= 1 EnMin= -4068.94925517942     IErMin= 1 ErrMin= 2.04D-02
 ErrMax= 2.04D-02  0.00D+00 EMaxC= 1.00D-01 BMatC= 1.69D+00 BMatP= 1.69D+00
 IDIUse=3 WtCom= 7.96D-01 WtEn= 2.04D-01
 Coeff-Com:  0.100D+01
 Coeff-En:   0.100D+01
 Coeff:      0.100D+01
 Gap=     0.120 Goal=   None    Shift=    0.000
 GapD=    0.120 DampG=1.000 DampE=0.500 DampFc=0.5000 IDamp=-1.
 Damping current iteration by 5.00D-01
 RMSDP=1.57D-03 MaxDP=1.35D-01              OVMax= 2.03D-01

 Cycle   2  Pass 1  IDiag  1:
 RMSU=  7.69D-04    CP:  9.82D-01
 E= -4069.33815733731     Delta-E=       -0.388902157894 Rises=F Damp=T
 DIIS: error= 1.27D-02 at cycle   2 NSaved=   2.
 NSaved= 2 IEnMin= 2 EnMin= -4069.33815733731     IErMin= 2 ErrMin= 1.27D-02
 ErrMax= 1.27D-02  0.00D+00 EMaxC= 1.00D-01 BMatC= 3.07D-01 BMatP= 1.69D+00
 IDIUse=3 WtCom= 8.73D-01 WtEn= 1.27D-01
 Coeff-Com: -0.213D+00 0.121D+01
 Coeff-En:   0.000D+00 0.100D+01
 Coeff:     -0.186D+00 0.119D+01
 Gap=     0.138 Goal=   None    Shift=    0.000
 RMSDP=7.65D-04 MaxDP=9.43D-02 DE=-3.89D-01 OVMax= 1.88D-01

 Cycle   3  Pass 1  IDiag  1:
 RMSU=  7.32D-04    CP:  9.68D-01  1.24D+00
 E= -4069.62785881212     Delta-E=       -0.289701474805 Rises=F Damp=F
 DIIS: error= 1.58D-02 at cycle   3 NSaved=   3.
 NSaved= 3 IEnMin= 3 EnMin= -4069.62785881212     IErMin= 2 ErrMin= 1.27D-02
 ErrMax= 1.58D-02  0.00D+00 EMaxC= 1.00D-01 BMatC= 2.02D-01 BMatP= 3.07D-01
 IDIUse=3 WtCom= 8.42D-01 WtEn= 1.58D-01
 Coeff-Com: -0.267D+00 0.652D+00 0.616D+00
 Coeff-En:   0.000D+00 0.000D+00 0.100D+01
 Coeff:     -0.225D+00 0.549D+00 0.676D+00
 Gap=     0.125 Goal=   None    Shift=    0.000
 RMSDP=5.08D-04 MaxDP=4.76D-02 DE=-2.90D-01 OVMax= 1.43D-01

 Cycle   4  Pass 1  IDiag  1:
 RMSU=  2.66D-04    CP:  9.65D-01  1.55D+00  5.06D-01
 E= -4069.76499467034     Delta-E=       -0.137135858224 Rises=F Damp=F
 DIIS: error= 7.32D-03 at cycle   4 NSaved=   4.
 NSaved= 4 IEnMin= 4 EnMin= -4069.76499467034     IErMin= 4 ErrMin= 7.32D-03
 ErrMax= 7.32D-03  0.00D+00 EMaxC= 1.00D-01 BMatC= 5.05D-02 BMatP= 2.02D-01
 IDIUse=3 WtCom= 9.27D-01 WtEn= 7.32D-02
 Coeff-Com: -0.109D+00 0.226D+00 0.409D+00 0.474D+00
 Coeff-En:   0.000D+00 0.000D+00 0.221D+00 0.779D+00
 Coeff:     -0.101D+00 0.209D+00 0.395D+00 0.497D+00
 Gap=     0.123 Goal=   None    Shift=    0.000
 RMSDP=2.00D-04 MaxDP=1.99D-02 DE=-1.37D-01 OVMax= 6.18D-02

 Cycle   5  Pass 1  IDiag  1:
 RMSU=  7.59D-05    CP:  9.64D-01  1.49D+00  6.89D-01  5.49D-01
 E= -4069.81052409477     Delta-E=       -0.045529424433 Rises=F Damp=F
 DIIS: error= 7.86D-04 at cycle   5 NSaved=   5.
 NSaved= 5 IEnMin= 5 EnMin= -4069.81052409477     IErMin= 5 ErrMin= 7.86D-04
 ErrMax= 7.86D-04  0.00D+00 EMaxC= 1.00D-01 BMatC= 1.17D-03 BMatP= 5.05D-02
 IDIUse=3 WtCom= 9.92D-01 WtEn= 7.86D-03
 Coeff-Com: -0.358D-01 0.702D-01 0.165D+00 0.249D+00 0.551D+00
 Coeff-En:   0.000D+00 0.000D+00 0.000D+00 0.000D+00 0.100D+01
 Coeff:     -0.355D-01 0.697D-01 0.164D+00 0.247D+00 0.555D+00
 Gap=     0.122 Goal=   None    Shift=    0.000
 RMSDP=4.08D-05 MaxDP=4.16D-03 DE=-4.55D-02 OVMax= 1.64D-02

 Cycle   6  Pass 1  IDiag  1:
 RMSU=  3.02D-05    CP:  9.64D-01  1.49D+00  6.81D-01  6.21D-01  7.58D-01
 E= -4069.81153480557     Delta-E=       -0.001010710797 Rises=F Damp=F
 DIIS: error= 2.19D-04 at cycle   6 NSaved=   6.
 NSaved= 6 IEnMin= 6 EnMin= -4069.81153480557     IErMin= 6 ErrMin= 2.19D-04
 ErrMax= 2.19D-04  0.00D+00 EMaxC= 1.00D-01 BMatC= 1.76D-04 BMatP= 1.17D-03
 IDIUse=3 WtCom= 9.98D-01 WtEn= 2.19D-03
 Coeff-Com:  0.231D-02-0.677D-02 0.109D-01 0.398D-01 0.306D+00 0.648D+00
 Coeff-En:   0.000D+00 0.000D+00 0.000D+00 0.000D+00 0.103D+00 0.897D+00
 Coeff:      0.230D-02-0.676D-02 0.109D-01 0.397D-01 0.306D+00 0.648D+00
 Gap=     0.123 Goal=   None    Shift=    0.000
 RMSDP=1.58D-05 MaxDP=1.23D-03 DE=-1.01D-03 OVMax= 7.24D-03

 Cycle   7  Pass 1  IDiag  1:
 RMSU=  1.07D-05    CP:  9.64D-01  1.50D+00  6.87D-01  6.21D-01  8.59D-01
                    CP:  7.49D-01
 E= -4069.81172383318     Delta-E=       -0.000189027607 Rises=F Damp=F
 DIIS: error= 8.34D-05 at cycle   7 NSaved=   7.
 NSaved= 7 IEnMin= 7 EnMin= -4069.81172383318     IErMin= 7 ErrMin= 8.34D-05
 ErrMax= 8.34D-05  0.00D+00 EMaxC= 1.00D-01 BMatC= 2.08D-05 BMatP= 1.76D-04
 IDIUse=1 WtCom= 1.00D+00 WtEn= 0.00D+00
 Coeff-Com:  0.446D-02-0.975D-02-0.898D-02-0.381D-02 0.102D+00 0.329D+00
 Coeff-Com:  0.587D+00
 Coeff:      0.446D-02-0.975D-02-0.898D-02-0.381D-02 0.102D+00 0.329D+00
 Coeff:      0.587D+00
 Gap=     0.123 Goal=   None    Shift=    0.000
 RMSDP=6.50D-06 MaxDP=1.11D-03 DE=-1.89D-04 OVMax= 3.40D-03

 Cycle   8  Pass 1  IDiag  1:
 RMSU=  4.67D-06    CP:  9.64D-01  1.50D+00  6.88D-01  6.26D-01  8.63D-01
                    CP:  8.75D-01  8.23D-01
 E= -4069.81174961415     Delta-E=       -0.000025780975 Rises=F Damp=F
 DIIS: error= 5.01D-05 at cycle   8 NSaved=   8.
 NSaved= 8 IEnMin= 8 EnMin= -4069.81174961415     IErMin= 8 ErrMin= 5.01D-05
 ErrMax= 5.01D-05  0.00D+00 EMaxC= 1.00D-01 BMatC= 4.82D-06 BMatP= 2.08D-05
 IDIUse=1 WtCom= 1.00D+00 WtEn= 0.00D+00
 Coeff-Com:  0.215D-02-0.426D-02-0.775D-02-0.121D-01-0.116D-01 0.335D-01
 Coeff-Com:  0.344D+00 0.656D+00
 Coeff:      0.215D-02-0.426D-02-0.775D-02-0.121D-01-0.116D-01 0.335D-01
 Coeff:      0.344D+00 0.656D+00
 Gap=     0.123 Goal=   None    Shift=    0.000
 RMSDP=3.27D-06 MaxDP=3.54D-04 DE=-2.58D-05 OVMax= 1.11D-03

 Cycle   9  Pass 1  IDiag  1:
 RMSU=  1.91D-06    CP:  9.64D-01  1.50D+00  6.88D-01  6.27D-01  8.80D-01
                    CP:  9.01D-01  1.02D+00  9.40D-01
 E= -4069.81175730996     Delta-E=       -0.000007695809 Rises=F Damp=F
 DIIS: error= 1.94D-05 at cycle   9 NSaved=   9.
 NSaved= 9 IEnMin= 9 EnMin= -4069.81175730996     IErMin= 9 ErrMin= 1.94D-05
 ErrMax= 1.94D-05  0.00D+00 EMaxC= 1.00D-01 BMatC= 6.87D-07 BMatP= 4.82D-06
 IDIUse=1 WtCom= 1.00D+00 WtEn= 0.00D+00
 Coeff-Com:  0.462D-03-0.767D-03-0.266D-02-0.598D-02-0.212D-01-0.386D-01
 Coeff-Com:  0.104D+00 0.326D+00 0.639D+00
 Coeff:      0.462D-03-0.767D-03-0.266D-02-0.598D-02-0.212D-01-0.386D-01
 Coeff:      0.104D+00 0.326D+00 0.639D+00
 Gap=     0.123 Goal=   None    Shift=    0.000
 RMSDP=1.41D-06 MaxDP=1.50D-04 DE=-7.70D-06 OVMax= 7.42D-04

 Cycle  10  Pass 1  IDiag  1:
 RMSU=  9.37D-07    CP:  9.64D-01  1.50D+00  6.88D-01  6.28D-01  8.83D-01
                    CP:  9.15D-01  1.07D+00  1.11D+00  1.05D+00
 E= -4069.81175889406     Delta-E=       -0.000001584096 Rises=F Damp=F
 DIIS: error= 1.02D-05 at cycle  10 NSaved=  10.
 NSaved=10 IEnMin=10 EnMin= -4069.81175889406     IErMin=10 ErrMin= 1.02D-05
 ErrMax= 1.02D-05  0.00D+00 EMaxC= 1.00D-01 BMatC= 1.71D-07 BMatP= 6.87D-07
 IDIUse=1 WtCom= 1.00D+00 WtEn= 0.00D+00
 Coeff-Com: -0.426D-03 0.893D-03 0.123D-02 0.112D-02-0.376D-02-0.309D-01
 Coeff-Com: -0.464D-01-0.762D-01 0.255D+00 0.900D+00
 Coeff:     -0.426D-03 0.893D-03 0.123D-02 0.112D-02-0.376D-02-0.309D-01
 Coeff:     -0.464D-01-0.762D-01 0.255D+00 0.900D+00
 Gap=     0.123 Goal=   None    Shift=    0.000
 RMSDP=1.22D-06 MaxDP=1.24D-04 DE=-1.58D-06 OVMax= 6.09D-04

 Cycle  11  Pass 1  IDiag  1:
 RMSU=  5.15D-07    CP:  9.64D-01  1.50D+00  6.88D-01  6.28D-01  8.86D-01
                    CP:  9.25D-01  1.11D+00  1.22D+00  1.39D+00  1.37D+00
 E= -4069.81175967961     Delta-E=       -0.000000785551 Rises=F Damp=F
 DIIS: error= 3.95D-06 at cycle  11 NSaved=  11.
 NSaved=11 IEnMin=11 EnMin= -4069.81175967961     IErMin=11 ErrMin= 3.95D-06
 ErrMax= 3.95D-06  0.00D+00 EMaxC= 1.00D-01 BMatC= 6.11D-08 BMatP= 1.71D-07
 IDIUse=1 WtCom= 1.00D+00 WtEn= 0.00D+00
 Coeff-Com: -0.327D-03 0.635D-03 0.132D-02 0.212D-02 0.440D-02-0.836D-02
 Coeff-Com: -0.435D-01-0.132D+00-0.235D-01 0.465D+00 0.734D+00
 Coeff:     -0.327D-03 0.635D-03 0.132D-02 0.212D-02 0.440D-02-0.836D-02
 Coeff:     -0.435D-01-0.132D+00-0.235D-01 0.465D+00 0.734D+00
 Gap=     0.123 Goal=   None    Shift=    0.000
 RMSDP=6.86D-07 MaxDP=5.86D-05 DE=-7.86D-07 OVMax= 3.73D-04

 Cycle  12  Pass 1  IDiag  1:
 RMSU=  2.63D-07    CP:  9.64D-01  1.50D+00  6.88D-01  6.28D-01  8.87D-01
                    CP:  9.27D-01  1.14D+00  1.28D+00  1.56D+00  1.76D+00
                    CP:  1.20D+00
 E= -4069.81175994181     Delta-E=       -0.000000262196 Rises=F Damp=F
 DIIS: error= 2.34D-06 at cycle  12 NSaved=  12.
 NSaved=12 IEnMin=12 EnMin= -4069.81175994181     IErMin=12 ErrMin= 2.34D-06
 ErrMax= 2.34D-06  0.00D+00 EMaxC= 1.00D-01 BMatC= 1.48D-08 BMatP= 6.11D-08
 IDIUse=1 WtCom= 1.00D+00 WtEn= 0.00D+00
 Coeff-Com: -0.852D-07-0.164D-04 0.179D-03 0.511D-03 0.330D-02 0.405D-02
 Coeff-Com:  0.277D-02-0.349D-01-0.680D-01-0.750D-01 0.251D+00 0.916D+00
 Coeff:     -0.852D-07-0.164D-04 0.179D-03 0.511D-03 0.330D-02 0.405D-02
 Coeff:      0.277D-02-0.349D-01-0.680D-01-0.750D-01 0.251D+00 0.916D+00
 Gap=     0.123 Goal=   None    Shift=    0.000
 RMSDP=4.37D-07 MaxDP=2.99D-05 DE=-2.62D-07 OVMax= 2.49D-04

 Cycle  13  Pass 1  IDiag  1:
 RMSU=  1.65D-07    CP:  9.64D-01  1.50D+00  6.88D-01  6.28D-01  8.87D-01
                    CP:  9.28D-01  1.14D+00  1.31D+00  1.67D+00  1.99D+00
                    CP:  1.61D+00  1.27D+00
 E= -4069.81176003373     Delta-E=       -0.000000091921 Rises=F Damp=F
 DIIS: error= 1.23D-06 at cycle  13 NSaved=  13.
 NSaved=13 IEnMin=13 EnMin= -4069.81176003373     IErMin=13 ErrMin= 1.23D-06
 ErrMax= 1.23D-06  0.00D+00 EMaxC= 1.00D-01 BMatC= 8.12D-09 BMatP= 1.48D-08
 IDIUse=1 WtCom= 1.00D+00 WtEn= 0.00D+00
 Coeff-Com:  0.120D-03-0.245D-03-0.369D-03-0.456D-03 0.573D-03 0.508D-02
 Coeff-Com:  0.197D-01 0.228D-01-0.339D-01-0.241D+00-0.156D+00 0.598D+00
 Coeff-Com:  0.786D+00
 Coeff:      0.120D-03-0.245D-03-0.369D-03-0.456D-03 0.573D-03 0.508D-02
 Coeff:      0.197D-01 0.228D-01-0.339D-01-0.241D+00-0.156D+00 0.598D+00
 Coeff:      0.786D+00
 Gap=     0.123 Goal=   None    Shift=    0.000
 RMSDP=3.39D-07 MaxDP=2.07D-05 DE=-9.19D-08 OVMax= 1.97D-04

 Cycle  14  Pass 1  IDiag  1:
 RMSU=  7.60D-08    CP:  9.64D-01  1.50D+00  6.88D-01  6.28D-01  8.87D-01
                    CP:  9.28D-01  1.15D+00  1.33D+00  1.74D+00  2.18D+00
                    CP:  1.87D+00  1.79D+00  1.09D+00
 E= -4069.81176006944     Delta-E=       -0.000000035710 Rises=F Damp=F
 DIIS: error= 6.37D-07 at cycle  14 NSaved=  14.
 NSaved=14 IEnMin=14 EnMin= -4069.81176006944     IErMin=14 ErrMin= 6.37D-07
 ErrMax= 6.37D-07  0.00D+00 EMaxC= 1.00D-01 BMatC= 1.25D-09 BMatP= 8.12D-09
 IDIUse=1 WtCom= 1.00D+00 WtEn= 0.00D+00
 Coeff-Com:  0.662D-04-0.130D-03-0.246D-03-0.386D-03-0.482D-03 0.129D-02
 Coeff-Com:  0.107D-01 0.192D-01 0.370D-02-0.996D-01-0.142D+00 0.931D-01
 Coeff-Com:  0.404D+00 0.710D+00
 Coeff:      0.662D-04-0.130D-03-0.246D-03-0.386D-03-0.482D-03 0.129D-02
 Coeff:      0.107D-01 0.192D-01 0.370D-02-0.996D-01-0.142D+00 0.931D-01
 Coeff:      0.404D+00 0.710D+00
 Gap=     0.123 Goal=   None    Shift=    0.000
 RMSDP=1.01D-07 MaxDP=6.48D-06 DE=-3.57D-08 OVMax= 5.44D-05

 Cycle  15  Pass 1  IDiag  1:
 RMSU=  3.82D-08    CP:  9.64D-01  1.50D+00  6.88D-01  6.28D-01  8.87D-01
                    CP:  9.28D-01  1.15D+00  1.34D+00  1.76D+00  2.22D+00
                    CP:  1.98D+00  1.92D+00  1.33D+00  1.03D+00
 E= -4069.81176007340     Delta-E=       -0.000000003967 Rises=F Damp=F
 DIIS: error= 3.39D-07 at cycle  15 NSaved=  15.
 NSaved=15 IEnMin=15 EnMin= -4069.81176007340     IErMin=15 ErrMin= 3.39D-07
 ErrMax= 3.39D-07  0.00D+00 EMaxC= 1.00D-01 BMatC= 2.25D-10 BMatP= 1.25D-09
 IDIUse=1 WtCom= 1.00D+00 WtEn= 0.00D+00
 Coeff-Com:  0.518D-05-0.857D-05-0.320D-04-0.808D-04-0.299D-03-0.516D-03
 Coeff-Com:  0.112D-02 0.250D-02 0.875D-02 0.186D-02-0.305D-01-0.731D-01
 Coeff-Com:  0.287D-01 0.297D+00 0.765D+00
 Coeff:      0.518D-05-0.857D-05-0.320D-04-0.808D-04-0.299D-03-0.516D-03
 Coeff:      0.112D-02 0.250D-02 0.875D-02 0.186D-02-0.305D-01-0.731D-01
 Coeff:      0.287D-01 0.297D+00 0.765D+00
 Gap=     0.123 Goal=   None    Shift=    0.000
 RMSDP=4.05D-08 MaxDP=2.33D-06 DE=-3.97D-09 OVMax= 2.69D-05

 Cycle  16  Pass 1  IDiag  1:
 RMSU=  1.87D-08    CP:  9.64D-01  1.50D+00  6.88D-01  6.28D-01  8.87D-01
                    CP:  9.28D-01  1.15D+00  1.34D+00  1.76D+00  2.23D+00
                    CP:  2.00D+00  1.98D+00  1.40D+00  1.24D+00  1.14D+00
 E= -4069.81176007439     Delta-E=       -0.000000000982 Rises=F Damp=F
 DIIS: error= 1.65D-07 at cycle  16 NSaved=  16.
 NSaved=16 IEnMin=16 EnMin= -4069.81176007439     IErMin=16 ErrMin= 1.65D-07
 ErrMax= 1.65D-07  0.00D+00 EMaxC= 1.00D-01 BMatC= 8.14D-11 BMatP= 2.25D-10
 IDIUse=1 WtCom= 1.00D+00 WtEn= 0.00D+00
 Coeff-Com: -0.142D-04 0.287D-04 0.469D-04 0.537D-04-0.268D-04-0.633D-03
 Coeff-Com: -0.198D-02-0.425D-02 0.453D-02 0.255D-01 0.206D-01-0.645D-01
 Coeff-Com: -0.831D-01-0.375D-01 0.398D+00 0.743D+00
 Coeff:     -0.142D-04 0.287D-04 0.469D-04 0.537D-04-0.268D-04-0.633D-03
 Coeff:     -0.198D-02-0.425D-02 0.453D-02 0.255D-01 0.206D-01-0.645D-01
 Coeff:     -0.831D-01-0.375D-01 0.398D+00 0.743D+00
 Gap=     0.123 Goal=   None    Shift=    0.000
 RMSDP=2.29D-08 MaxDP=1.49D-06 DE=-9.82D-10 OVMax= 1.30D-05

 Cycle  17  Pass 1  IDiag  1:
 RMSU=  1.04D-08    CP:  9.64D-01  1.50D+00  6.88D-01  6.28D-01  8.87D-01
                    CP:  9.28D-01  1.15D+00  1.34D+00  1.77D+00  2.24D+00
                    CP:  2.02D+00  2.01D+00  1.45D+00  1.34D+00  1.44D+00
                    CP:  1.25D+00
 E= -4069.81176007462     Delta-E=       -0.000000000235 Rises=F Damp=F
 DIIS: error= 9.36D-08 at cycle  17 NSaved=  17.
 NSaved=17 IEnMin=17 EnMin= -4069.81176007462     IErMin=17 ErrMin= 9.36D-08
 ErrMax= 9.36D-08  0.00D+00 EMaxC= 1.00D-01 BMatC= 1.77D-11 BMatP= 8.14D-11
 IDIUse=1 WtCom= 1.00D+00 WtEn= 0.00D+00
 Coeff-Com: -0.716D-05 0.139D-04 0.284D-04 0.424D-04 0.838D-04-0.122D-03
 Coeff-Com: -0.957D-03-0.279D-02 0.133D-03 0.918D-02 0.174D-01-0.716D-02
 Coeff-Com: -0.367D-01-0.101D+00-0.316D-01 0.293D+00 0.861D+00
 Coeff:     -0.716D-05 0.139D-04 0.284D-04 0.424D-04 0.838D-04-0.122D-03
 Coeff:     -0.957D-03-0.279D-02 0.133D-03 0.918D-02 0.174D-01-0.716D-02
 Coeff:     -0.367D-01-0.101D+00-0.316D-01 0.293D+00 0.861D+00
 Gap=     0.123 Goal=   None    Shift=    0.000
 RMSDP=1.37D-08 MaxDP=8.97D-07 DE=-2.35D-10 OVMax= 8.93D-06

 Cycle  18  Pass 1  IDiag  1:
 RMSU=  4.86D-09    CP:  9.64D-01  1.50D+00  6.88D-01  6.28D-01  8.87D-01
                    CP:  9.28D-01  1.15D+00  1.34D+00  1.77D+00  2.24D+00
                    CP:  2.02D+00  2.02D+00  1.47D+00  1.41D+00  1.61D+00
                    CP:  1.66D+00  1.39D+00
 E= -4069.81176007485     Delta-E=       -0.000000000233 Rises=F Damp=F
 DIIS: error= 5.13D-08 at cycle  18 NSaved=  18.
 NSaved=18 IEnMin=18 EnMin= -4069.81176007485     IErMin=18 ErrMin= 5.13D-08
 ErrMax= 5.13D-08  0.00D+00 EMaxC= 1.00D-01 BMatC= 6.90D-12 BMatP= 1.77D-11
 IDIUse=1 WtCom= 1.00D+00 WtEn= 0.00D+00
 Coeff-Com:  0.207D-05-0.445D-05-0.465D-05-0.182D-05 0.590D-04 0.184D-03
 Coeff-Com:  0.407D-03 0.233D-03-0.129D-02-0.622D-02-0.173D-03 0.202D-01
 Coeff-Com:  0.186D-01-0.324D-01-0.163D+00-0.193D+00 0.349D+00 0.101D+01
 Coeff:      0.207D-05-0.445D-05-0.465D-05-0.182D-05 0.590D-04 0.184D-03
 Coeff:      0.407D-03 0.233D-03-0.129D-02-0.622D-02-0.173D-03 0.202D-01
 Coeff:      0.186D-01-0.324D-01-0.163D+00-0.193D+00 0.349D+00 0.101D+01
 Gap=     0.123 Goal=   None    Shift=    0.000
 RMSDP=1.18D-08 MaxDP=7.13D-07 DE=-2.33D-10 OVMax= 6.82D-06

 Cycle  19  Pass 1  IDiag  1:
 RMSU=  2.78D-09    CP:  9.64D-01  1.50D+00  6.88D-01  6.28D-01  8.87D-01
                    CP:  9.28D-01  1.15D+00  1.34D+00  1.77D+00  2.24D+00
                    CP:  2.03D+00  2.02D+00  1.48D+00  1.46D+00  1.77D+00
                    CP:  1.99D+00  1.94D+00  1.38D+00
 E= -4069.81176007462     Delta-E=        0.000000000238 Rises=F Damp=F
 DIIS: error= 3.35D-08 at cycle  19 NSaved=  19.
 NSaved=19 IEnMin=18 EnMin= -4069.81176007485     IErMin=19 ErrMin= 3.35D-08
 ErrMax= 3.35D-08  0.00D+00 EMaxC= 1.00D-01 BMatC= 1.40D-12 BMatP= 6.90D-12
 IDIUse=1 WtCom= 1.00D+00 WtEn= 0.00D+00
 Coeff-Com:  0.286D-05-0.576D-05-0.979D-05-0.123D-04 0.107D-04 0.117D-03
 Coeff-Com:  0.471D-03 0.788D-03-0.585D-03-0.589D-02-0.478D-02 0.119D-01
 Coeff-Com:  0.199D-01 0.114D-01-0.678D-01-0.176D+00-0.337D-01 0.487D+00
 Coeff-Com:  0.757D+00
 Coeff:      0.286D-05-0.576D-05-0.979D-05-0.123D-04 0.107D-04 0.117D-03
 Coeff:      0.471D-03 0.788D-03-0.585D-03-0.589D-02-0.478D-02 0.119D-01
 Coeff:      0.199D-01 0.114D-01-0.678D-01-0.176D+00-0.337D-01 0.487D+00
 Coeff:      0.757D+00
 Gap=     0.123 Goal=   None    Shift=    0.000
 RMSDP=4.49D-09 MaxDP=2.72D-07 DE= 2.38D-10 OVMax= 2.93D-06

 SCF Done:  E(RCAM-B3LYP) =  -4069.81176007     A.U. after   19 cycles
            NFock= 19  Conv=0.45D-08     -V/T= 2.0102
 KE= 4.028802099428D+03 PE=-3.407030948797D+04 EE= 1.367698307747D+04
 Leave Link  502 at Sun Sep 12 21:18:27 2021, MaxMem= 23488102400 cpu:           11391.8 elap:             499.1
 (Enter /sw/apps/gaussian-16.0/g16/l801.exe)
 DoSCS=F DFT=T ScalE2(SS,OS)=  1.000000  1.000000
 ExpMin= 3.36D-02 ExpMax= 4.95D+03 ExpMxC= 7.45D+02 IAcc=3 IRadAn=         5 AccDes= 0.00D+00
 HarFok:  IExCor=  205 AccDes= 0.00D+00 IRadAn=         5 IDoV=-2 UseB2=F ITyADJ=14
 ICtDFT= 12500011 ScaDFX=  1.000000  1.000000  1.000000  1.000000
 GSVD:  LWork=       -9588 too small for GESVD, short by       45590 words or       45590 for optimal perf.
 Largest valence mixing into a core orbital is  2.03D-04
 Largest core mixing into a valence orbital is  5.24D-05
 Range of M.O.s used for correlation:    95  1572
 NBasis=  1572 NAE=   312 NBE=   312 NFC=    94 NFV=     0
 NROrb=   1478 NOA=   218 NOB=   218 NVA=  1260 NVB=  1260
 Leave Link  801 at Sun Sep 12 21:18:27 2021, MaxMem= 23488102400 cpu:               7.7 elap:               0.3
 (Enter /sw/apps/gaussian-16.0/g16/l914.exe)
 RHF ground state
 Two-electron integrals replicated using symmetry.
 MDV= 23488102400 DFT=T DoStab=F Mixed=T DoRPA=T DoScal=F NonHer=T
 Making orbital integer symmetry assigments:
 Orbital symmetries:
       Occupied  (A) (A) (A) (A) (A) (A) (A) (A) (A) (A) (A) (A)
                 (A) (A) (A) (A) (A) (A) (A) (A) (A) (A) (A) (A)
                 (A) (A) (A) (A) (A) (A) (A) (A) (A) (A) (A) (A)
                 (A) (A) (A) (A) (A) (A) (A) (A) (A) (A) (A) (A)
                 (A) (A) (A) (A) (A) (A) (A) (A) (A) (A) (A) (A)
                 (A) (A) (A) (A) (A) (A) (A) (A) (A) (A) (A) (A)
                 (A) (A) (A) (A) (A) (A) (A) (A) (A) (A) (A) (A)
                 (A) (A) (A) (A) (A) (A) (A) (A) (A) (A) (A) (A)
                 (A) (A) (A) (A) (A) (A) (A) (A) (A) (A) (A) (A)
                 (A) (A) (A) (A) (A) (A) (A) (A) (A) (A) (A) (A)
                 (A) (A) (A) (A) (A) (A) (A) (A) (A) (A) (A) (A)
                 (A) (A) (A) (A) (A) (A) (A) (A) (A) (A) (A) (A)
                 (A) (A) (A) (A) (A) (A) (A) (A) (A) (A) (A) (A)
                 (A) (A) (A) (A) (A) (A) (A) (A) (A) (A) (A) (A)
                 (A) (A) (A) (A) (A) (A) (A) (A) (A) (A) (A) (A)
                 (A) (A) (A) (A) (A) (A) (A) (A) (A) (A) (A) (A)
                 (A) (A) (A) (A) (A) (A) (A) (A) (A) (A) (A) (A)
                 (A) (A) (A) (A) (A) (A) (A) (A) (A) (A) (A) (A)
                 (A) (A) (A) (A) (A) (A) (A) (A) (A) (A) (A) (A)
                 (A) (A) (A) (A) (A) (A) (A) (A) (A) (A) (A) (A)
                 (A) (A) (A) (A) (A) (A) (A) (A) (A) (A) (A) (A)
                 (A) (A) (A) (A) (A) (A) (A) (A) (A) (A) (A) (A)
                 (A) (A) (A) (A) (A) (A) (A) (A) (A) (A) (A) (A)
                 (A) (A) (A) (A) (A) (A) (A) (A) (A) (A) (A) (A)
                 (A) (A) (A) (A) (A) (A) (A) (A) (A) (A) (A) (A)
                 (A) (A) (A) (A) (A) (A) (A) (A) (A) (A) (A) (A)
       Virtual   (A) (A) (A) (A) (A) (A) (A) (A) (A) (A) (A) (A)
                 (A) (A) (A) (A) (A) (A) (A) (A) (A) (A) (A) (A)
                 (A) (A) (A) (A) (A) (A) (A) (A) (A) (A) (A) (A)
                 (A) (A) (A) (A) (A) (A) (A) (A) (A) (A) (A) (A)
                 (A) (A) (A) (A) (A) (A) (A) (A) (A) (A) (A) (A)
                 (A) (A) (A) (A) (A) (A) (A) (A) (A) (A) (A) (A)
                 (A) (A) (A) (A) (A) (A) (A) (A) (A) (A) (A) (A)
                 (A) (A) (A) (A) (A) (A) (A) (A) (A) (A) (A) (A)
                 (A) (A) (A) (A) (A) (A) (A) (A) (A) (A) (A) (A)
                 (A) (A) (A) (A) (A) (A) (A) (A) (A) (A) (A) (A)
                 (A) (A) (A) (A) (A) (A) (A) (A) (A) (A) (A) (A)
                 (A) (A) (A) (A) (A) (A) (A) (A) (A) (A) (A) (A)
                 (A) (A) (A) (A) (A) (A) (A) (A) (A) (A) (A) (A)
                 (A) (A) (A) (A) (A) (A) (A) (A) (A) (A) (A) (A)
                 (A) (A) (A) (A) (A) (A) (A) (A) (A) (A) (A) (A)
                 (A) (A) (A) (A) (A) (A) (A) (A) (A) (A) (A) (A)
                 (A) (A) (A) (A) (A) (A) (A) (A) (A) (A) (A) (A)
                 (A) (A) (A) (A) (A) (A) (A) (A) (A) (A) (A) (A)
                 (A) (A) (A) (A) (A) (A) (A) (A) (A) (A) (A) (A)
                 (A) (A) (A) (A) (A) (A) (A) (A) (A) (A) (A) (A)
                 (A) (A) (A) (A) (A) (A) (A) (A) (A) (A) (A) (A)
                 (A) (A) (A) (A) (A) (A) (A) (A) (A) (A) (A) (A)
                 (A) (A) (A) (A) (A) (A) (A) (A) (A) (A) (A) (A)
                 (A) (A) (A) (A) (A) (A) (A) (A) (A) (A) (A) (A)
                 (A) (A) (A) (A) (A) (A) (A) (A) (A) (A) (A) (A)
                 (A) (A) (A) (A) (A) (A) (A) (A) (A) (A) (A) (A)
                 (A) (A) (A) (A) (A) (A) (A) (A) (A) (A) (A) (A)
                 (A) (A) (A) (A) (A) (A) (A) (A) (A) (A) (A) (A)
                 (A) (A) (A) (A) (A) (A) (A) (A) (A) (A) (A) (A)
                 (A) (A) (A) (A) (A) (A) (A) (A) (A) (A) (A) (A)
                 (A) (A) (A) (A) (A) (A) (A) (A) (A) (A) (A) (A)
                 (A) (A) (A) (A) (A) (A) (A) (A) (A) (A) (A) (A)
                 (A) (A) (A) (A) (A) (A) (A) (A) (A) (A) (A) (A)
                 (A) (A) (A) (A) (A) (A) (A) (A) (A) (A) (A) (A)
                 (A) (A) (A) (A) (A) (A) (A) (A) (A) (A) (A) (A)
                 (A) (A) (A) (A) (A) (A) (A) (A) (A) (A) (A) (A)
                 (A) (A) (A) (A) (A) (A) (A) (A) (A) (A) (A) (A)
                 (A) (A) (A) (A) (A) (A) (A) (A) (A) (A) (A) (A)
                 (A) (A) (A) (A) (A) (A) (A) (A) (A) (A) (A) (A)
                 (A) (A) (A) (A) (A) (A) (A) (A) (A) (A) (A) (A)
                 (A) (A) (A) (A) (A) (A) (A) (A) (A) (A) (A) (A)
                 (A) (A) (A) (A) (A) (A) (A) (A) (A) (A) (A) (A)
                 (A) (A) (A) (A) (A) (A) (A) (A) (A) (A) (A) (A)
                 (A) (A) (A) (A) (A) (A) (A) (A) (A) (A) (A) (A)
                 (A) (A) (A) (A) (A) (A) (A) (A) (A) (A) (A) (A)
                 (A) (A) (A) (A) (A) (A) (A) (A) (A) (A) (A) (A)
                 (A) (A) (A) (A) (A) (A) (A) (A) (A) (A) (A) (A)
                 (A) (A) (A) (A) (A) (A) (A) (A) (A) (A) (A) (A)
                 (A) (A) (A) (A) (A) (A) (A) (A) (A) (A) (A) (A)
                 (A) (A) (A) (A) (A) (A) (A) (A) (A) (A) (A) (A)
                 (A) (A) (A) (A) (A) (A) (A) (A) (A) (A) (A) (A)
                 (A) (A) (A) (A) (A) (A) (A) (A) (A) (A) (A) (A)
                 (A) (A) (A) (A) (A) (A) (A) (A) (A) (A) (A) (A)
                 (A) (A) (A) (A) (A) (A) (A) (A) (A) (A) (A) (A)
                 (A) (A) (A) (A) (A) (A) (A) (A) (A) (A) (A) (A)
                 (A) (A) (A) (A) (A) (A) (A) (A) (A) (A) (A) (A)
                 (A) (A) (A) (A) (A) (A) (A) (A) (A) (A) (A) (A)
                 (A) (A) (A) (A) (A) (A) (A) (A) (A) (A) (A) (A)
                 (A) (A) (A) (A) (A) (A) (A) (A) (A) (A) (A) (A)
                 (A) (A) (A) (A) (A) (A) (A) (A) (A) (A) (A) (A)
                 (A) (A) (A) (A) (A) (A) (A) (A) (A) (A) (A) (A)
                 (A) (A) (A) (A) (A) (A) (A) (A) (A) (A) (A) (A)
                 (A) (A) (A) (A) (A) (A) (A) (A) (A) (A) (A) (A)
                 (A) (A) (A) (A) (A) (A) (A) (A) (A) (A) (A) (A)
                 (A) (A) (A) (A) (A) (A) (A) (A) (A) (A) (A) (A)
                 (A) (A) (A) (A) (A) (A) (A) (A) (A) (A) (A) (A)
                 (A) (A) (A) (A) (A) (A) (A) (A) (A) (A) (A) (A)
                 (A) (A) (A) (A) (A) (A) (A) (A) (A) (A) (A) (A)
                 (A) (A) (A) (A) (A) (A) (A) (A) (A) (A) (A) (A)
                 (A) (A) (A) (A) (A) (A) (A) (A) (A) (A) (A) (A)
                 (A) (A) (A) (A) (A) (A) (A) (A) (A) (A) (A) (A)
                 (A) (A) (A) (A) (A) (A) (A) (A) (A) (A) (A) (A)
                 (A) (A) (A) (A) (A) (A) (A) (A) (A) (A) (A) (A)
                 (A) (A) (A) (A) (A) (A) (A) (A) (A) (A) (A) (A)
                 (A) (A) (A) (A) (A) (A) (A) (A) (A) (A) (A) (A)
                 (A) (A) (A) (A) (A) (A) (A) (A) (A) (A) (A) (A)
                 (A) (A) (A) (A) (A) (A) (A) (A) (A) (A) (A) (A)
                 (A) (A) (A) (A) (A) (A) (A) (A) (A) (A) (A) (A)
                 (A) (A) (A) (A) (A) (A) (A) (A) (A) (A) (A) (A)
                 (A) (A) (A) (A) (A) (A) (A) (A) (A) (A) (A) (A)
                 (A) (A) (A) (A) (A) (A) (A) (A) (A) (A) (A) (A)
                 (A) (A) (A) (A) (A) (A) (A) (A) (A) (A) (A) (A)
                 (A) (A) (A) (A) (A) (A) (A) (A) (A) (A) (A) (A)
                 (A) (A) (A) (A) (A) (A) (A) (A) (A) (A) (A) (A)
                 (A) (A) (A) (A) (A) (A) (A) (A) (A) (A) (A) (A)
                 (A) (A) (A) (A) (A) (A) (A) (A) (A) (A) (A) (A)
                 (A) (A) (A) (A) (A) (A) (A) (A) (A) (A) (A) (A)
                 (A) (A) (A) (A) (A) (A) (A) (A) (A) (A) (A) (A)
                 (A) (A) (A) (A) (A) (A) (A) (A) (A) (A) (A) (A)
                 (A) (A) (A) (A) (A) (A) (A) (A) (A) (A) (A) (A)
                 (A) (A) (A) (A) (A) (A) (A) (A) (A) (A) (A) (A)
                 (A) (A) (A) (A) (A) (A) (A) (A) (A) (A) (A) (A)
                 (A) (A) (A) (A) (A) (A) (A) (A) (A) (A) (A) (A)
                 (A) (A) (A) (A) (A) (A) (A) (A) (A) (A) (A) (A)
                 (A) (A) (A) (A) (A) (A) (A) (A) (A) (A) (A) (A)
                 (A) (A) (A) (A) (A) (A) (A) (A) (A) (A) (A) (A)
                 (A) (A) (A) (A) (A) (A) (A) (A) (A) (A) (A) (A)
                 (A) (A) (A) (A) (A) (A) (A) (A) (A) (A) (A) (A)
                 (A) (A) (A) (A) (A) (A) (A) (A) (A) (A) (A) (A)
                 (A) (A) (A) (A) (A) (A) (A) (A) (A) (A) (A) (A)
                 (A) (A) (A) (A) (A) (A) (A) (A) (A) (A) (A) (A)
                 (A) (A) (A) (A) (A) (A) (A) (A) (A) (A) (A) (A)
                 (A) (A) (A) (A) (A) (A) (A) (A) (A) (A) (A) (A)
                 (A) (A) (A) (A) (A) (A) (A) (A) (A) (A) (A) (A)
                 (A) (A) (A) (A) (A) (A) (A) (A) (A) (A) (A) (A)
    20 initial guesses have been made.
 Convergence on wavefunction:    0.001000000000000
 Davidson Disk Diagonalization:  ConvIn= 1.00D-03 SkipCon=T Conv= 1.00D-03.
 Max sub-space:  2000 roots to seek:    20 dimension of matrix:       549360
 Iteration     1 Dimension    20 NMult     0 NNew     20
 CISAX will form    20 AO SS matrices at one time.
 NMat=    20 NSing=    20 JSym2X= 0.
 FoFJK:  IHMeth= 1 ICntrl=       0 DoSepK=T KAlg= 0 I1Cent=           0 FoldK=F
 IRaf=         1 NMat=      40 IRICut=       1 DoRegI=T DoRafI=F ISym2E= 0 IDoP0=3 IntGTp=3.
 FoFCou: FMM=T IPFlag=           0 FMFlag=      100000 FMFlg1=        2001
         NFxFlg=           0 DoJE=F BraDBF=F KetDBF=F FulRan=T
         wScrn=  0.000000 ICntrl=       500 IOpCl=  0 I1Cent=           0 NGrid=           0
         NMat0=   20 NMatS0=     20 NMatT0=    0 NMatD0=   20 NMtDS0=    0 NMtDT0=    0
 Symmetry not used in FoFCou.
 FMM levels:  10  Number of levels for PrismC:   9
 New state      1 was old state      8
 New state      2 was old state      5
 New state      3 was old state      2
 New state      4 was old state      3
 New state      5 was old state      1
 Excitation Energies [eV] at current iteration:
 Root      1 :     2.614369961245271
 Root      2 :     2.619215353057280
 Root      3 :     2.680301777465069
 Root      4 :     2.690297299856975
 Root      5 :     3.062804915115440
 Root      6 :     3.073065360922007
 Root      7 :     3.628676313019305
 Root      8 :     3.669260963325315
 Root      9 :     3.735996824649976
 Root     10 :     3.759180134258960
 Root     11 :     3.866122752771337
 Root     12 :     3.868109336892291
 Root     13 :     4.304106208876133
 Root     14 :     4.306011283714802
 Root     15 :     4.983974800985465
 Root     16 :     4.991215609915085
 Root     17 :     5.279343064491225
 Root     18 :     5.291384443393819
 Root     19 :     5.308179199409190
 Root     20 :     5.325382446322988
 Iteration     2 Dimension    30 NMult    20 NNew     10
 CISAX will form    10 AO SS matrices at one time.
 NMat=    10 NSing=    10 JSym2X= 0.
 New state      1 was old state      3
 Root      1 not converged, maximum delta is    0.187217219889631
 New state      2 was old state      4
 Root      2 not converged, maximum delta is    0.188591185419379
 New state      3 was old state      2
 Root      3 not converged, maximum delta is    0.067260649430994
 New state      4 was old state      1
 Root      4 not converged, maximum delta is    0.089519653320334
 Root      5 not converged, maximum delta is    0.001046603362581
 Excitation Energies [eV] at current iteration:
 Root      1 :     1.801298814205191   Change is   -0.879002963259877
 Root      2 :     1.807448713933359   Change is   -0.882848585923615
 Root      3 :     2.235835306921694   Change is   -0.383380046135586
 Root      4 :     2.239084002616655   Change is   -0.375285958628616
 Root      5 :     3.062779152106143   Change is   -0.000025763009297
 Iteration     3 Dimension    40 NMult    30 NNew     10
 CISAX will form    10 AO SS matrices at one time.
 NMat=    10 NSing=    10 JSym2X= 0.
 Root      1 not converged, maximum delta is    0.069394242947936
 Root      2 not converged, maximum delta is    0.070558730310939
 Root      3 not converged, maximum delta is    0.043966216646434
 Root      4 not converged, maximum delta is    0.042498717705348
 Root      5 has converged.
 Excitation Energies [eV] at current iteration:
 Root      1 :     1.694054532446648   Change is   -0.107244281758543
 Root      2 :     1.699060809033738   Change is   -0.108387904899622
 Root      3 :     2.194380432130976   Change is   -0.041454874790718
 Root      4 :     2.200230212799559   Change is   -0.038853789817097
 Root      5 :     3.062779139890938   Change is   -0.000000012215205
 Iteration     4 Dimension    48 NMult    40 NNew      8
 CISAX will form     8 AO SS matrices at one time.
 NMat=     8 NSing=     8 JSym2X= 0.
 Root      1 not converged, maximum delta is    0.013032877977721
 Root      2 not converged, maximum delta is    0.013290272470990
 Root      3 not converged, maximum delta is    0.009733553053517
 Root      4 not converged, maximum delta is    0.008887376053920
 Root      5 has converged.
 Excitation Energies [eV] at current iteration:
 Root      1 :     1.677340585269859   Change is   -0.016713947176790
 Root      2 :     1.682181935226795   Change is   -0.016878873806943
 Root      3 :     2.187077596488428   Change is   -0.007302835642548
 Root      4 :     2.193458484236533   Change is   -0.006771728563026
 Root      5 :     3.062779139891072   Change is    0.000000000000134
 Iteration     5 Dimension    56 NMult    48 NNew      8
 CISAX will form     8 AO SS matrices at one time.
 NMat=     8 NSing=     8 JSym2X= 0.
 Root      1 not converged, maximum delta is    0.002169117402769
 Root      2 not converged, maximum delta is    0.002168137537563
 Root      3 not converged, maximum delta is    0.002500744461869
 Root      4 not converged, maximum delta is    0.002386168346282
 Root      5 has converged.
 Excitation Energies [eV] at current iteration:
 Root      1 :     1.675562460832575   Change is   -0.001778124437283
 Root      2 :     1.680409165896865   Change is   -0.001772769329930
 Root      3 :     2.186231907516542   Change is   -0.000845688971886
 Root      4 :     2.192682951842795   Change is   -0.000775532393738
 Root      5 :     3.062779139890991   Change is   -0.000000000000080
 Iteration     6 Dimension    64 NMult    56 NNew      8
 CISAX will form     8 AO SS matrices at one time.
 NMat=     8 NSing=     8 JSym2X= 0.
 Root      1 not converged, maximum delta is    0.001356915213456
 Root      2 not converged, maximum delta is    0.001377711667140
 Root      3 not converged, maximum delta is    0.001069614059198
 Root      4 not converged, maximum delta is    0.001014212731518
 Root      5 has converged.
 Excitation Energies [eV] at current iteration:
 Root      1 :     1.675308745381010   Change is   -0.000253715451565
 Root      2 :     1.680154085154846   Change is   -0.000255080742019
 Root      3 :     2.186103639223433   Change is   -0.000128268293109
 Root      4 :     2.192565249083880   Change is   -0.000117702758915
 Root      5 :     3.062779139890991   Change is    0.000000000000000
 Iteration     7 Dimension    72 NMult    64 NNew      8
 CISAX will form     8 AO SS matrices at one time.
 NMat=     8 NSing=     8 JSym2X= 0.
 Root      1 has converged.
 Root      2 has converged.
 Root      3 has converged.
 Root      4 has converged.
 Root      5 has converged.
 Excitation Energies [eV] at current iteration:
 Root      1 :     1.675284522674787   Change is   -0.000024222706223
[...]
 Alpha virt. eigenvalues --    1.84484   1.84505   1.84742   1.84866   1.85082
 Alpha virt. eigenvalues --    1.85158   1.85301   1.85329   1.85443   1.85540
 Alpha virt. eigenvalues --    1.85856   1.85922   1.86338   1.86416   1.86607
 Alpha virt. eigenvalues --    1.86611   1.86783   1.86838   1.86999   1.87093
 Alpha virt. eigenvalues --    1.87437   1.87500   1.87726   1.87735   1.87923
 Alpha virt. eigenvalues --    1.87970   1.88095   1.88133   1.88527   1.88591
 Alpha virt. eigenvalues --    1.88877   1.88892   1.89029   1.89181   1.89614
 Alpha virt. eigenvalues --    1.89681   1.89802   1.89832   1.90143   1.90174
 Alpha virt. eigenvalues --    1.90806   1.90849   1.91383   1.91403   1.91495
 Alpha virt. eigenvalues --    1.91543   1.92136   1.92209   1.92615   1.92680
 Alpha virt. eigenvalues --    1.93037   1.93104   1.93393   1.93458   1.94265
 Alpha virt. eigenvalues --    1.94337   1.94744   1.94770   1.95530   1.95550
 Alpha virt. eigenvalues --    1.95766   1.95782   1.96003   1.96049   1.96126
 Alpha virt. eigenvalues --    1.96207   1.96437   1.96649   1.96889   1.96954
 Alpha virt. eigenvalues --    1.97497   1.97504   1.97755   1.97890   1.98119
 Alpha virt. eigenvalues --    1.98224   1.98302   1.98729   1.99025   1.99190
 Alpha virt. eigenvalues --    1.99876   1.99883   2.00679   2.00714   2.01048
 Alpha virt. eigenvalues --    2.01051   2.01462   2.01534   2.01559   2.01728
 Alpha virt. eigenvalues --    2.01773   2.01775   2.02663   2.02840   2.03096
 Alpha virt. eigenvalues --    2.03290   2.03330   2.03458   2.03472   2.03538
 Alpha virt. eigenvalues --    2.03978   2.04090   2.04929   2.05013   2.05569
 Alpha virt. eigenvalues --    2.05582   2.06134   2.06238   2.06957   2.06983
 Alpha virt. eigenvalues --    2.07238   2.07299   2.08506   2.08641   2.08955
 Alpha virt. eigenvalues --    2.09036   2.09563   2.09644   2.10833   2.10988
 Alpha virt. eigenvalues --    2.11237   2.11358   2.11482   2.11592   2.11782
 Alpha virt. eigenvalues --    2.11815   2.12415   2.12519   2.12752   2.12820
 Alpha virt. eigenvalues --    2.12859   2.12888   2.13579   2.13820   2.14191
 Alpha virt. eigenvalues --    2.14206   2.15358   2.15390   2.15979   2.16031
 Alpha virt. eigenvalues --    2.16543   2.16576   2.16808   2.17123   2.17470
 Alpha virt. eigenvalues --    2.17601   2.17758   2.17882   2.17956   2.18123
 Alpha virt. eigenvalues --    2.18378   2.18621   2.18921   2.19183   2.19694
 Alpha virt. eigenvalues --    2.19767   2.20092   2.20192   2.20264   2.20386
 Alpha virt. eigenvalues --    2.21126   2.21205   2.21712   2.21724   2.21797
 Alpha virt. eigenvalues --    2.21824   2.22650   2.22733   2.23292   2.23367
 Alpha virt. eigenvalues --    2.24370   2.24448   2.24956   2.25013   2.26351
 Alpha virt. eigenvalues --    2.26388   2.26832   2.26957   2.27150   2.27154
 Alpha virt. eigenvalues --    2.28190   2.28261   2.29321   2.29385   2.29787
 Alpha virt. eigenvalues --    2.29826   2.30507   2.30567   2.30771   2.31135
 Alpha virt. eigenvalues --    2.31149   2.31233   2.32173   2.32189   2.33180
 Alpha virt. eigenvalues --    2.33187   2.33431   2.33514   2.34089   2.34192
 Alpha virt. eigenvalues --    2.35245   2.35422   2.35849   2.35854   2.36279
 Alpha virt. eigenvalues --    2.36398   2.36405   2.36676   2.37626   2.37711
 Alpha virt. eigenvalues --    2.38311   2.38328   2.38726   2.38908   2.39613
 Alpha virt. eigenvalues --    2.39662   2.40215   2.40234   2.40537   2.40772
 Alpha virt. eigenvalues --    2.41156   2.41320   2.41641   2.41739   2.42072
 Alpha virt. eigenvalues --    2.42090   2.42770   2.42995   2.43012   2.43583
 Alpha virt. eigenvalues --    2.43920   2.44220   2.44748   2.44782   2.44932
 Alpha virt. eigenvalues --    2.44955   2.45514   2.45598   2.46227   2.46353
 Alpha virt. eigenvalues --    2.46439   2.46529   2.46741   2.46850   2.47304
 Alpha virt. eigenvalues --    2.47321   2.47764   2.47829   2.49337   2.49361
 Alpha virt. eigenvalues --    2.49837   2.50120   2.50398   2.50601   2.51170
 Alpha virt. eigenvalues --    2.51206   2.51551   2.51936   2.52335   2.52489
 Alpha virt. eigenvalues --    2.52859   2.53101   2.53909   2.53969   2.54201
 Alpha virt. eigenvalues --    2.54223   2.54746   2.54838   2.55570   2.55605
 Alpha virt. eigenvalues --    2.57914   2.58015   2.58694   2.58840   2.60235
 Alpha virt. eigenvalues --    2.60256   2.60662   2.60858   2.61757   2.61761
 Alpha virt. eigenvalues --    2.62365   2.62582   2.63005   2.63061   2.63985
 Alpha virt. eigenvalues --    2.64152   2.64294   2.64364   2.65033   2.65128
 Alpha virt. eigenvalues --    2.65793   2.65836   2.66756   2.66827   2.66959
 Alpha virt. eigenvalues --    2.66989   2.67914   2.67958   2.68752   2.68907
 Alpha virt. eigenvalues --    2.68962   2.69072   2.69439   2.69525   2.70047
 Alpha virt. eigenvalues --    2.70070   2.70998   2.71029   2.71824   2.72102
 Alpha virt. eigenvalues --    2.72422   2.72664   2.72702   2.72876   2.73219
 Alpha virt. eigenvalues --    2.73325   2.73397   2.73580   2.74436   2.74559
 Alpha virt. eigenvalues --    2.74983   2.75023   2.76450   2.76640   2.76993
 Alpha virt. eigenvalues --    2.77280   2.77505   2.77532   2.78223   2.78240
 Alpha virt. eigenvalues --    2.78618   2.78778   2.79082   2.79183   2.80191
 Alpha virt. eigenvalues --    2.80394   2.80614   2.80637   2.81076   2.81163
 Alpha virt. eigenvalues --    2.81913   2.81982   2.82260   2.82390   2.83772
 Alpha virt. eigenvalues --    2.83800   2.83816   2.83828   2.84452   2.84593
 Alpha virt. eigenvalues --    2.84811   2.84931   2.85617   2.85716   2.86584
 Alpha virt. eigenvalues --    2.87044   2.87097   2.87654   2.88161   2.88204
 Alpha virt. eigenvalues --    2.88541   2.88556   2.88795   2.88982   2.90545
 Alpha virt. eigenvalues --    2.90582   2.90992   2.91236   2.93203   2.93242
 Alpha virt. eigenvalues --    2.93692   2.94248   2.94497   2.94606   2.95392
 Alpha virt. eigenvalues --    2.95415   2.95759   2.96249   2.96298   2.96489
 Alpha virt. eigenvalues --    2.96793   2.97224   2.97864   2.97954   2.98257
 Alpha virt. eigenvalues --    2.98276   2.98413   2.98493   2.98648   2.98700
 Alpha virt. eigenvalues --    2.98844   2.98931   2.99635   2.99723   2.99936
 Alpha virt. eigenvalues --    3.00079   3.00258   3.00268   3.00509   3.00912
 Alpha virt. eigenvalues --    3.01825   3.02034   3.02037   3.02081   3.02741
 Alpha virt. eigenvalues --    3.02781   3.03026   3.03236   3.03376   3.03628
 Alpha virt. eigenvalues --    3.03973   3.04218   3.04353   3.04498   3.04596
 Alpha virt. eigenvalues --    3.04649   3.05273   3.05344   3.06085   3.06161
 Alpha virt. eigenvalues --    3.06852   3.06856   3.07843   3.08195   3.09279
 Alpha virt. eigenvalues --    3.09450   3.09742   3.10350   3.10491   3.10656
 Alpha virt. eigenvalues --    3.11379   3.11402   3.11824   3.11991   3.12221
 Alpha virt. eigenvalues --    3.12225   3.13331   3.13567   3.13609   3.13690
 Alpha virt. eigenvalues --    3.14140   3.14391   3.15913   3.15971   3.17313
 Alpha virt. eigenvalues --    3.17437   3.17799   3.18129   3.18951   3.19177
 Alpha virt. eigenvalues --    3.22354   3.22515   3.23997   3.24356   3.24723
 Alpha virt. eigenvalues --    3.25110   3.26555   3.26574   3.27312   3.27671
 Alpha virt. eigenvalues --    3.29139   3.29149   3.31296   3.31575   3.33102
 Alpha virt. eigenvalues --    3.33469   3.40177   3.40679   3.42736   3.42869
 Alpha virt. eigenvalues --    3.48614   3.48710   3.50073   3.50199   3.50753
 Alpha virt. eigenvalues --    3.51526   3.56602   3.56923   3.59151   3.59259
 Alpha virt. eigenvalues --    3.62432   3.62888   3.66034   3.66239   3.67235
 Alpha virt. eigenvalues --    3.67460   3.73321   3.73938   3.76107   3.76597
          Condensed to atoms (all electrons):
 Mulliken charges:
               1
     1  Mg   0.838764
     2  C   -0.002953
     3  C   -0.094111
     4  C   -0.045885
     5  C   -0.063983
     6  N   -0.256781
     7  C   -0.052484
     8  C   -0.013998
     9  C   -0.087010
    10  C    0.046320
    11  C    0.104816
    12  C    0.053462
    13  C   -0.071808
    14  H    0.036135
    15  N   -0.433154
    16  C    0.168425
    17  C   -0.177154
    18  C   -0.003996
    19  C    0.148730
    20  C    0.110184
    21  C    0.012294
    22  O   -0.249614
    23  C    0.062470
    24  N   -0.341159
    25  C    0.041263
    26  C   -0.028182
    27  C   -0.023988
    28  C    0.074881
    29  C    0.076180
    30  C    0.035127
    31  C   -0.004503
    32  N   -0.310458
    33  C    0.080414
    34  C   -0.169719
    35  C    0.008346
    36  C    0.082982
    37  C    0.127313
    38  C    0.046127
    39  O   -0.188451
    40  C   -0.005334
    41  C    0.212868
    42  O   -0.257097
    43  O   -0.304798
    44  C    0.157685
    45  H   -0.017610
    46  H   -0.016833
    47  H   -0.041494
    48  H    0.000926
    49  H   -0.004033
    50  H    0.025468
    51  H    0.016443
    52  H    0.016648
    53  H    0.011218
    54  H    0.044124
    55  H    0.017860
    56  H    0.017954
    57  H    0.005868
    58  H    0.026816
    59  H    0.039573
    60  H    0.037333
    61  H    0.035668
    62  H    0.031524
    63  H    0.016567
    64  H    0.009452
    65  H    0.023215
    66  H    0.012535
    67  H    0.004744
    68  H    0.006368
    69  H    0.004726
    70  H    0.008792
    71  H    0.018149
    72  H    0.028983
    73  H    0.047567
    74  H    0.009112
    75  H    0.045997
    76  H    0.035138
    77  H    0.042940
    78  H    0.046403
    79  H    0.053693
    80  Mg   0.837877
    81  C   -0.016837
    82  C   -0.087816
    83  C   -0.045517
    84  C   -0.064875
    85  N   -0.254571
    86  C   -0.049846
    87  C   -0.015086
    88  C   -0.090509
    89  C    0.045768
    90  C    0.114379
    91  C    0.062535
    92  C   -0.077904
    93  H    0.034908
    94  N   -0.423487
    95  C    0.162935
    96  C   -0.174653
    97  C   -0.007794
    98  C    0.152101
    99  C    0.099378
   100  C    0.015563
   101  O   -0.253162
   102  C    0.061202
   103  N   -0.350094
   104  C    0.037540
   105  C   -0.019849
   106  C   -0.034838
   107  C    0.088943
   108  C    0.073633
   109  C    0.034717
   110  C   -0.007694
   111  N   -0.324118
   112  C    0.078443
   113  C   -0.163101
   114  C    0.002253
   115  C    0.096206
   116  C    0.131481
   117  C    0.042391
   118  O   -0.187857
   119  C    0.000910
   120  C    0.211271
   121  O   -0.251011
   122  O   -0.305643
   123  C    0.152035
   124  H   -0.019688
   125  H   -0.015546
   126  H   -0.040368
   127  H   -0.000657
   128  H   -0.004336
   129  H    0.022457
   130  H    0.014426
   131  H    0.016263
   132  H    0.013920
   133  H    0.037686
   134  H    0.020779
   135  H    0.019587
   136  H    0.008746
   137  H    0.026121
   138  H    0.039792
   139  H    0.038229
   140  H    0.036400
   141  H    0.033896
   142  H    0.014427
   143  H    0.012494
   144  H    0.025193
   145  H    0.011595
   146  H    0.005755
   147  H    0.006354
   148  H    0.003719
   149  H    0.010937
   150  H    0.017982
   151  H    0.030044
   152  H    0.046032
   153  H    0.008585
   154  H    0.046971
   155  H    0.035018
   156  H    0.043914
   157  H    0.049481
   158  H    0.053588
 Sum of Mulliken charges =  -0.00000
 Mulliken charges with hydrogens summed into heavy atoms:
               1
     1  Mg   0.838764
     2  C   -0.002953
     3  C   -0.111722
     4  C   -0.062718
     5  C   -0.105477
     6  N   -0.256781
     7  C   -0.052484
     8  C   -0.013073
     9  C   -0.091043
    10  C    0.046320
    11  C    0.163375
    12  C    0.108804
    13  C    0.000141
    15  N   -0.433154
    16  C    0.168425
    17  C   -0.177154
    18  C   -0.003996
    19  C    0.148730
    20  C    0.182441
    21  C    0.012294
    22  O   -0.249614
    23  C    0.166995
    24  N   -0.341159
    25  C    0.041263
    26  C   -0.011614
    27  C   -0.014536
    28  C    0.074881
    29  C    0.116674
    30  C    0.046221
    31  C    0.051421
    32  N   -0.310458
    33  C    0.080414
    34  C   -0.169719
    35  C    0.008346
    36  C    0.082982
    37  C    0.229989
    38  C    0.046127
    39  O   -0.188451
    40  C    0.029804
    41  C    0.212868
    42  O   -0.257097
    43  O   -0.304798
    44  C    0.300721
    80  Mg   0.837877
    81  C   -0.016837
    82  C   -0.107505
    83  C   -0.061063
    84  C   -0.105243
    85  N   -0.254571
    86  C   -0.049846
    87  C   -0.015743
    88  C   -0.094844
    89  C    0.045768
    90  C    0.167525
    91  C    0.114141
    92  C   -0.002631
    94  N   -0.423487
    95  C    0.162935
    96  C   -0.174653
    97  C   -0.007794
    98  C    0.152101
    99  C    0.174036
   100  C    0.015563
   101  O   -0.253162
   102  C    0.169727
   103  N   -0.350094
   104  C    0.037540
   105  C   -0.005422
   106  C   -0.022344
   107  C    0.088943
   108  C    0.116176
   109  C    0.044790
   110  C    0.051270
   111  N   -0.324118
   112  C    0.078443
   113  C   -0.163101
   114  C    0.002253
   115  C    0.096206
   116  C    0.233069
   117  C    0.042391
   118  O   -0.187857
   119  C    0.035928
   120  C    0.211271
   121  O   -0.251011
   122  O   -0.305643
   123  C    0.299017
 Electronic spatial extent (au):  <R**2>=         637415.7612
 Charge=             -0.0000 electrons
 Dipole moment (field-independent basis, Debye):
    X=              1.2837    Y=              5.4259    Z=             -6.5175  Tot=              8.5771
 Quadrupole moment (field-independent basis, Debye-Ang):
   XX=           -402.5816   YY=           -558.1870   ZZ=           -464.6758
   XY=            -17.7650   XZ=             31.2111   YZ=             -7.9395
 Traceless Quadrupole moment (field-independent basis, Debye-Ang):
   XX=             72.5665   YY=            -83.0388   ZZ=             10.4723
   XY=            -17.7650   XZ=             31.2111   YZ=             -7.9395
 Octapole moment (field-independent basis, Debye-Ang**2):
  XXX=           -248.1202  YYY=            163.5173  ZZZ=            -13.7140  XYY=           -279.5630
  XXY=           1924.3632  XXZ=          -2439.9321  XZZ=            598.9367  YZZ=            -25.4576
  YYZ=           -269.8415  XYZ=           -118.3408
 Hexadecapole moment (field-independent basis, Debye-Ang**3):
 XXXX=        -739997.2529 YYYY=         -35787.0023 ZZZZ=         -18435.9912 XXXY=         -11397.8067
 XXXZ=          17117.2488 YYYX=          -1490.7672 YYYZ=           -169.3592 ZZZX=            492.6215
 ZZZY=            281.6632 XXYY=        -152702.8405 XXZZ=        -128645.2134 YYZZ=          -8298.1221
 XXYZ=          -1805.1374 YYXZ=          -1410.5067 ZZXY=          -1327.1924
 N-N= 1.229471255099D+04 E-N=-3.407030947974D+04  KE= 4.028802099428D+03
 Leave Link  601 at Sun Sep 12 21:40:29 2021, MaxMem= 23488102400 cpu:              15.2 elap:               0.8
 (Enter /sw/apps/gaussian-16.0/g16/l9999.exe)
 1\1\GINC-BP1-COMPUTE00105\SP\RCAM-B3LYP TD-FC\def2SVP\C68H72Mg2N8O8\OF
 15641\12-Sep-2021\0\\#p cam-b3lyp/Def2SVP td=(nstates=5)\\TDDFT excite
 d states in gaussian\\0,1\Mg,0,0.,0.,0.\C,0,-0.217,-2.218,2.801\C,0,-1
 .255,2.442,2.026\C,0,-0.245,1.85,-2.564\C,0,0.146,-2.824,-2.037\N,0,-0
 .617,-0.009,2.126\C,0,-0.594,-0.908,3.105\C,0,-0.936,-0.309,4.502\C,0,
 -1.773,0.964,4.032\C,0,-1.155,1.168,2.66\C,0,-3.263,0.685,3.863\C,0,0.
 345,0.11,5.299\C,0,0.124,0.397,6.787\H,0,1.168,0.033,7.733\N,0,-0.185,
 1.961,-0.152\C,0,-0.703,2.8,0.777\C,0,-0.62,4.156,0.193\C,0,-0.187,4.0
 15,-1.225\C,0,-0.214,2.583,-1.38\C,0,-0.887,5.406,0.974\C,0,0.181,5.01
 3,-2.277\O,0,0.303,4.69,-3.508\C,0,0.31,6.414,-1.837\N,0,-0.265,-0.413
 ,-2.029\C,0,-0.279,0.569,-2.937\C,0,-0.196,0.024,-4.332\C,0,0.124,-1.5
 33,-4.18\C,0,0.086,-1.632,-2.635\C,0,-1.451,0.205,-5.197\C,0,1.373,-2.
 07,-4.923\C,0,2.626,-1.49,-4.306\N,0,0.15,-2.144,0.303\C,0,0.173,-3.13
 6,-0.688\C,0,0.173,-4.438,0.004\C,0,0.133,-4.111,1.358\C,0,0.083,-2.69
 5,1.502\C,0,0.149,-5.715,-0.623\C,0,0.096,-4.629,2.716\O,0,0.208,-5.74
 7,3.221\C,0,-0.255,-3.428,3.701\C,0,0.717,-3.482,4.848\O,0,1.931,-3.25
 5,4.669\O,0,0.038,-3.556,6.003\C,0,0.943,-3.583,7.183\H,0,-1.859,3.22,
 2.497\H,0,-0.218,2.453,-3.474\H,0,0.276,-3.747,-2.605\H,0,-1.554,-0.94
 9,5.132\H,0,-1.585,1.831,4.665\H,0,-3.484,-0.377,3.969\H,0,-3.511,1.02
 7,2.858\H,0,-3.852,1.301,4.543\H,0,0.669,1.096,4.966\H,0,1.13,-0.639,5
 .189\H,0,-0.844,0.026,7.125\H,0,0.062,1.477,6.921\H,0,-1.344,5.186,1.9
 38\H,0,-1.651,5.963,0.432\H,0,0.007,6.02,1.084\H,0,-0.635,6.744,-1.405
 \H,0,0.665,6.97,-2.704\H,0,1.048,6.466,-1.036\H,0,0.608,0.501,-4.891\H
 ,0,-0.692,-2.156,-4.547\H,0,-1.267,0.74,-6.129\H,0,-2.204,0.714,-4.596
 \H,0,-1.967,-0.72,-5.453\H,0,1.356,-1.759,-5.967\H,0,1.452,-3.157,-4.9
 02\H,0,2.714,-0.522,-4.798\H,0,3.487,-2.121,-4.529\H,0,2.495,-1.303,-3
 .24\H,0,0.867,-6.333,-0.084\H,0,0.404,-5.642,-1.68\H,0,-0.891,-5.999,-
 0.463\H,0,-1.283,-3.581,4.028\H,0,0.698,-4.478,7.755\H,0,0.833,-2.619,
 7.68\H,0,2.,-3.754,6.976\Mg,0,31.54156,2.84272,2.39132\C,0,33.96374,0.
 69623,3.94202\C,0,33.09649,5.45998,3.92972\C,0,29.16544,4.70235,1.4098
 5\C,0,29.54538,0.02385,1.92768\N,0,33.2945,2.93878,3.73676\C,0,34.1725
 3,2.06575,4.2071\C,0,35.38423,2.70282,4.93887\C,0,34.70637,4.09712,5.3
 5754\C,0,33.65349,4.19761,4.25571\C,0,33.99164,4.04046,6.69742\C,0,36.
 61008,2.92373,3.98466\C,0,37.92569,3.25297,4.69354\H,0,39.16938,2.7387
 2,4.12675\N,0,31.44272,4.81746,2.22044\C,0,32.16236,5.73055,2.90576\C,
 0,31.70319,7.04452,2.42949\C,0,30.53843,6.83556,1.52705\C,0,30.31922,5
 .41409,1.70442\C,0,32.4065,8.32561,2.77241\C,0,29.74424,7.76412,0.6591
 6\O,0,28.62491,7.41173,0.14364\C,0,30.26926,9.12891,0.50681\N,0,29.545
 08,2.4651,1.95106\C,0,28.74145,3.44118,1.4935\C,0,27.43482,2.8791,0.98
 639\C,0,27.62551,1.2913,0.97558\C,0,29.03991,1.20212,1.58953\C,0,26.19
 444,3.23689,1.80483\C,0,27.35515,0.55913,-0.36736\C,0,28.40261,0.94637
 ,-1.38631\N,0,31.76943,0.71244,2.67068\C,0,30.79911,-0.2869,2.43853\C,
 0,31.38104,-1.57021,2.88229\C,0,32.6509,-1.22229,3.36696\C,0,32.83875,
 0.18173,3.25323\C,0,30.72764,-2.83445,2.85246\C,0,33.87103,-1.72206,3.
 95872\O,0,34.32093,-2.83954,4.20886\C,0,34.7262,-0.48536,4.47412\C,0,3
 6.1433,-0.67323,4.00608\O,0,36.41698,-0.64762,2.79321\O,0,36.96724,-0.
 63447,5.06909\C,0,38.38527,-0.8053,4.65456\H,0,33.36736,6.32037,4.5422
 9\H,0,28.35436,5.28269,0.96395\H,0,29.02423,-0.91449,1.72615\H,0,35.71
 311,2.16914,5.8225\H,0,35.41457,4.91836,5.28423\H,0,33.95657,3.03633,7
 .09319\H,0,32.99124,4.40959,6.51303\H,0,34.4484,4.74497,7.3984\H,0,36.
 46224,3.85408,3.42134\H,0,36.74873,2.07741,3.34034\H,0,37.87803,3.0435
 3,5.76909\H,0,38.08947,4.33189,4.63759\H,0,33.12929,8.1826,3.58513\H,0
 ,31.65384,9.00066,3.19393\H,0,32.86104,8.80274,1.90154\H,0,30.34947,9.
 59631,1.48536\H,0,29.61452,9.61451,-0.2194\H,0,31.28577,9.06956,0.1021
 1\H,0,27.2349,3.21591,-0.02341\H,0,26.94442,0.7943,1.68193\H,0,25.4097
 4,3.74153,1.21014\H,0,26.50118,3.85882,2.63529\H,0,25.71582,2.39869,2.
 30836\H,0,26.39161,0.86822,-0.77992\H,0,27.33352,-0.52148,-0.27344\H,0
 ,28.02275,1.89249,-1.78336\H,0,28.47533,0.1916,-2.16675\H,0,29.36419,1
 .15418,-0.90275\H,0,31.45039,-3.54981,2.48313\H,0,29.83811,-2.80758,2.
 22653\H,0,30.48123,-2.95167,3.91114\H,0,34.65342,-0.46745,5.56222\H,0,
 38.78477,-1.65063,5.22333\H,0,38.86357,0.17951,4.81308\H,0,38.57477,-1
 .12654,3.63705\\Version=ES64L-G16RevA.03\State=1-A\HF=-4069.8117601\RM
 SD=4.488e-09\PG=C01 [X(C68H72Mg2N8O8)]\\@


 IF NO USE IS MADE OF THE LABOR OF PAST AGES,
 THE WORLD MUST REMAIN ALWAYS IN THE INFANCY OF KNOWLEDGE.

                          -- CICERO
 Job cpu time:       0 days 11 hours 58 minutes 44.9 seconds.
 Elapsed time:       0 days  0 hours 30 minutes 32.8 seconds.
 File lengths (MBytes):  RWF=  13225 Int=      0 D2E=      0 Chk=    574 Scr=      1
 Normal termination of Gaussian 16 at Sun Sep 12 21:40:29 2021.
