 Entering Gaussian System, Link 0=g16
 Initial command:
 /sw/apps/gaussian-16.0/g16/l1.exe "/tmp/Gau-33159.inp" -scrdir="/tmp/"
 Entering Link 1 = /sw/apps/gaussian-16.0/g16/l1.exe PID=     33160.
  
 Copyright (c) 1988,1990,1992,1993,1995,1998,2003,2009,2016,
            Gaussian, Inc.  All Rights Reserved.
  
 This is part of the Gaussian(R) 16 program.  It is based on
 the Gaussian(R) 09 system (copyright 2009, Gaussian, Inc.),
 the Gaussian(R) 03 system (copyright 2003, Gaussian, Inc.),
 the Gaussian(R) 98 system (copyright 1998, Gaussian, Inc.),
 the Gaussian(R) 94 system (copyright 1995, Gaussian, Inc.),
 the Gaussian 92(TM) system (copyright 1992, Gaussian, Inc.),
 the Gaussian 90(TM) system (copyright 1990, Gaussian, Inc.),
 the Gaussian 88(TM) system (copyright 1988, Gaussian, Inc.),
 the Gaussian 86(TM) system (copyright 1986, Carnegie Mellon
 University), and the Gaussian 82(TM) system (copyright 1983,
 Carnegie Mellon University). Gaussian is a federally registered
 trademark of Gaussian, Inc.
  
 This software contains proprietary and confidential information,
 including trade secrets, belonging to Gaussian, Inc.
  
 This software is provided under written license and may be
 used, copied, transmitted, or stored only in accord with that
 written license.
  
 The following legend is applicable only to US Government
 contracts under FAR:
  
                    RESTRICTED RIGHTS LEGEND
  
 Use, reproduction and disclosure by the US Government is
 subject to restrictions as set forth in subparagraphs (a)
 and (c) of the Commercial Computer Software - Restricted
 Rights clause in FAR 52.227-19.
  
 Gaussian, Inc.
 340 Quinnipiac St., Bldg. 40, Wallingford CT 06492
  
  
 ---------------------------------------------------------------
 Warning -- This program may not be used in any manner that
 competes with the business of Gaussian, Inc. or will provide
 assistance to any competitor of Gaussian, Inc.  The licensee
 of this program is prohibited from giving any competitor of
 Gaussian, Inc. access to this program.  By using this program,
 the user acknowledges that Gaussian, Inc. is engaged in the
 business of creating and licensing software in the field of
 computational chemistry and represents and warrants to the
 licensee that it is not a competitor of Gaussian, Inc. and that
 it will not use this program in any manner prohibited above.
 ---------------------------------------------------------------
  

 Cite this work as:
 Gaussian 16, Revision A.03,
 M. J. Frisch, G. W. Trucks, H. B. Schlegel, G. E. Scuseria, 
 M. A. Robb, J. R. Cheeseman, G. Scalmani, V. Barone, 
 G. A. Petersson, H. Nakatsuji, X. Li, M. Caricato, A. V. Marenich, 
 J. Bloino, B. G. Janesko, R. Gomperts, B. Mennucci, H. P. Hratchian, 
 J. V. Ortiz, A. F. Izmaylov, J. L. Sonnenberg, D. Williams-Young, 
 F. Ding, F. Lipparini, F. Egidi, J. Goings, B. Peng, A. Petrone, 
 T. Henderson, D. Ranasinghe, V. G. Zakrzewski, J. Gao, N. Rega, 
 G. Zheng, W. Liang, M. Hada, M. Ehara, K. Toyota, R. Fukuda, 
 J. Hasegawa, M. Ishida, T. Nakajima, Y. Honda, O. Kitao, H. Nakai, 
 T. Vreven, K. Throssell, J. A. Montgomery, Jr., J. E. Peralta, 
 F. Ogliaro, M. J. Bearpark, J. J. Heyd, E. N. Brothers, K. N. Kudin, 
 V. N. Staroverov, T. A. Keith, R. Kobayashi, J. Normand, 
 K. Raghavachari, A. P. Rendell, J. C. Burant, S. S. Iyengar, 
 J. Tomasi, M. Cossi, J. M. Millam, M. Klene, C. Adamo, R. Cammi, 
 J. W. Ochterski, R. L. Martin, K. Morokuma, O. Farkas, 
 J. B. Foresman, and D. J. Fox, Gaussian, Inc., Wallingford CT, 2016.
 
 ******************************************
 Gaussian 16:  ES64L-G16RevA.03 25-Dec-2016
                 9-Sep-2021 
 ******************************************
 %nproc=24
 Will use up to   24 processors via shared memory.
 %mem=175gb
 -----------------------------------
 #p cam-b3lyp/Def2SVP td=(nstates=5)
 -----------------------------------
 1/38=1,172=1/1;
 2/12=2,17=6,18=5,40=1/2;
 3/5=43,7=101,11=9,25=1,30=1,74=-40/1,2,3,8;
 4//1;
 5/5=2,38=5/2;
 8/6=1,10=1,108=5/1;
 9/41=5,42=1,70=2/14;
 6/7=2,8=2,9=2,10=2/1;
 99/5=1,9=1/99;
 Leave Link    1 at Thu Sep  9 17:31:44 2021, MaxMem= 23488102400 cpu:               0.9 elap:               0.0
 (Enter /sw/apps/gaussian-16.0/g16/l101.exe)
 --------------------------------
 TDDFT excited states in gaussian
 --------------------------------
 Symbolic Z-matrix:
 Charge =  0 Multiplicity = 1
 Mg                    0.        0.        0. 
 C                    -0.217    -2.218     2.801 
 C                    -1.255     2.442     2.026 
 C                    -0.245     1.85     -2.564 
 C                     0.146    -2.824    -2.037 
 N                    -0.617    -0.009     2.126 
 C                    -0.594    -0.908     3.105 
 C                    -0.936    -0.309     4.502 
 C                    -1.773     0.964     4.032 
 C                    -1.155     1.168     2.66 
 C                    -3.263     0.685     3.863 
 C                     0.345     0.11      5.299 
 C                     0.124     0.397     6.787 
 H                     1.168     0.033     7.733 
 N                    -0.185     1.961    -0.152 
 C                    -0.703     2.8       0.777 
 C                    -0.62      4.156     0.193 
 C                    -0.187     4.015    -1.225 
 C                    -0.214     2.583    -1.38 
 C                    -0.887     5.406     0.974 
 C                     0.181     5.013    -2.277 
 O                     0.303     4.69     -3.508 
 C                     0.31      6.414    -1.837 
 N                    -0.265    -0.413    -2.029 
 C                    -0.279     0.569    -2.937 
 C                    -0.196     0.024    -4.332 
 C                     0.124    -1.533    -4.18 
 C                     0.086    -1.632    -2.635 
 C                    -1.451     0.205    -5.197 
 C                     1.373    -2.07     -4.923 
 C                     2.626    -1.49     -4.306 
 N                     0.15     -2.144     0.303 
 C                     0.173    -3.136    -0.688 
 C                     0.173    -4.438     0.004 
 C                     0.133    -4.111     1.358 
 C                     0.083    -2.695     1.502 
 C                     0.149    -5.715    -0.623 
 C                     0.096    -4.629     2.716 
 O                     0.208    -5.747     3.221 
 C                    -0.255    -3.428     3.701 
 C                     0.717    -3.482     4.848 
 O                     1.931    -3.255     4.669 
 O                     0.038    -3.556     6.003 
 C                     0.943    -3.583     7.183 
 H                    -1.859     3.22      2.497 
 H                    -0.218     2.453    -3.474 
 H                     0.276    -3.747    -2.605 
 H                    -1.554    -0.949     5.132 
 H                    -1.585     1.831     4.665 
 H                    -3.484    -0.377     3.969 
 H                    -3.511     1.027     2.858 
 H                    -3.852     1.301     4.543 
 H                     0.669     1.096     4.966 
 H                     1.13     -0.639     5.189 
 H                    -0.844     0.026     7.125 
 H                     0.062     1.477     6.921 
 H                    -1.344     5.186     1.938 
 H                    -1.651     5.963     0.432 
 H                     0.007     6.02      1.084 
 H                    -0.635     6.744    -1.405 
 H                     0.665     6.97     -2.704 
 H                     1.048     6.466    -1.036 
 H                     0.608     0.501    -4.891 
 H                    -0.692    -2.156    -4.547 
 H                    -1.267     0.74     -6.129 
 H                    -2.204     0.714    -4.596 
 H                    -1.967    -0.72     -5.453 
 H                     1.356    -1.759    -5.967 
 H                     1.452    -3.157    -4.902 
 H                     2.714    -0.522    -4.798 
 H                     3.487    -2.121    -4.529 
 H                     2.495    -1.303    -3.24 
 H                     0.867    -6.333    -0.084 
 H                     0.404    -5.642    -1.68 
 H                    -0.891    -5.999    -0.463 
 H                    -1.283    -3.581     4.028 
 H                     0.698    -4.478     7.755 
 H                     0.833    -2.619     7.68 
 H                     2.       -3.754     6.976 
 Mg                    8.92784   0.79933   0.6855 
 C                     8.16803   3.45709   2.97418 
 C                     10.25447  -0.89787   3.33016 
 C                     10.01259  -1.35926  -1.3715 
 C                     8.6021    3.11683  -1.8969 
 N                     9.1263    1.31723   2.82668 
 C                     8.74567   2.32863   3.59253 
 C                     8.92496   2.08548   5.11513 
 C                     10.0842   0.97627   5.04664 
 C                     9.78875   0.39899   3.66385 
 C                     11.48354   1.56859   5.02793 
 C                     7.62557   1.51762   5.78681 
 C                     7.62698   1.54721   7.31681 
 H                     6.36818   1.80929   8.00905 
 N                     9.52935  -1.06854   0.98185 
 C                     10.0188  -1.59422   2.12438 
 C                     10.33428  -2.99817   1.8185 
 C                     10.14537  -3.21397   0.3582 
 C                     9.90323  -1.85406  -0.08008 
 C                     10.69033  -4.00139   2.87689 
 C                     10.18963  -4.43952  -0.50335 
 O                     10.23229  -4.36249  -1.78205 
 C                     10.27585  -5.72981   0.19607 
 N                     9.46823   0.90862  -1.31909 
 C                     9.85676  -0.18922  -1.9912 
 C                     9.92874   0.07712  -3.47588 
 C                     9.27174   1.51997  -3.68588 
 C                     9.00278   1.8926   -2.21136 
 C                     11.32959   0.06222  -4.08725 
 C                     8.09842   1.6183   -4.69896 
 C                     6.89679   0.86785  -4.17142 
 N                     8.29192   2.85699   0.51326 
 C                     8.25701   3.64372  -0.65888 
 C                     7.864     5.00934  -0.25509 
 C                     7.71875   4.92729   1.13798 
 C                     8.02092   3.60899   1.57417 
 C                     7.73476   6.12908  -1.12434 
 C                     7.38884   5.65882   2.33995 
 O                     6.96834   6.78972   2.58076 
 C                     7.78781   4.77167   3.59701 
 C                     6.63163   4.78278   4.55911 
 O                     5.54637   4.26056   4.2491 
 O                     7.06161   5.21161   5.75977 
 C                     5.95299   5.22957   6.75096 
 H                     10.8972  -1.41728   4.04149 
 H                     10.2767  -2.09287  -2.1367 
 H                     8.38345   3.87219  -2.65472 
 H                     9.26744   2.94713   5.67551 
 H                     9.95051   0.21738   5.81317 
 H                     11.46429   2.64506   4.94427 
 H                     11.97667   1.13118   4.16971 
 H                     12.04694   1.23235   5.90305 
 H                     7.5806    0.43372   5.61989 
 H                     6.75393   2.0213    5.41645 
 H                     8.42509   2.18485   7.71601 
 H                     7.87401   0.54775   7.68298 
 H                     10.91179  -3.51435   3.83456 
 H                     11.64024  -4.45782   2.57821 
 H                     9.93879  -4.78666   2.9828 
 H                     11.1674  -5.74434   0.81847 
 H                     10.20672  -6.49033  -0.58413 
 H                     9.4184   -5.81913   0.87239 
 H                     9.35285  -0.65505  -4.02848 
 H                     10.00242   2.24898  -4.06599 
 H                     11.43687  -0.66401  -4.915 
 H                     12.04273  -0.14877  -3.30147 
 H                     11.67894   1.02172  -4.46476 
 H                     8.37233   1.14121  -5.64316 
 H                     7.8082    2.6387   -4.92604 
 H                     7.10646  -0.16687  -4.45862 
 H                     5.98342   1.22992  -4.63907 
 H                     6.85922   0.90489  -3.0765 
 H                     6.82719   6.64315  -0.83703 
 H                     7.70503   5.82127  -2.16748 
 H                     8.65296   6.67092  -0.88226 
 H                     8.68754   5.20737   4.03316 
 H                     5.90344   6.24484   7.15652 
 H                     6.17577   4.41297   7.46319 
 H                     4.94398   5.10184   6.37674 
 
 ITRead=  0  0  0  0  0  0  0  0  0  0  0  0  0  0  0  0  0  0  0  0
 ITRead=  0  0  0  0  0  0  0  0  0  0  0  0  0  0  0  0  0  0  0  0
 ITRead=  0  0  0  0  0  0  0  0  0  0  0  0  0  0  0  0  0  0  0  0
 ITRead=  0  0  0  0  0  0  0  0  0  0  0  0  0  0  0  0  0  0  0  0
 ITRead=  0  0  0  0  0  0  0  0  0  0  0  0  0  0  0  0  0  0  0  0
 ITRead=  0  0  0  0  0  0  0  0  0  0  0  0  0  0  0  0  0  0  0  0
 ITRead=  0  0  0  0  0  0  0  0  0  0  0  0  0  0  0  0  0  0  0  0
 ITRead=  0  0  0  0  0  0  0  0  0  0  0  0  0  0  0  0  0  0
 MicOpt= -1 -1 -1 -1 -1 -1 -1 -1 -1 -1 -1 -1 -1 -1 -1 -1 -1 -1 -1 -1
 MicOpt= -1 -1 -1 -1 -1 -1 -1 -1 -1 -1 -1 -1 -1 -1 -1 -1 -1 -1 -1 -1
 MicOpt= -1 -1 -1 -1 -1 -1 -1 -1 -1 -1 -1 -1 -1 -1 -1 -1 -1 -1 -1 -1
 MicOpt= -1 -1 -1 -1 -1 -1 -1 -1 -1 -1 -1 -1 -1 -1 -1 -1 -1 -1 -1 -1
 MicOpt= -1 -1 -1 -1 -1 -1 -1 -1 -1 -1 -1 -1 -1 -1 -1 -1 -1 -1 -1 -1
 MicOpt= -1 -1 -1 -1 -1 -1 -1 -1 -1 -1 -1 -1 -1 -1 -1 -1 -1 -1 -1 -1
 MicOpt= -1 -1 -1 -1 -1 -1 -1 -1 -1 -1 -1 -1 -1 -1 -1 -1 -1 -1 -1 -1
 MicOpt= -1 -1 -1 -1 -1 -1 -1 -1 -1 -1 -1 -1 -1 -1 -1 -1 -1 -1
 NAtoms=    158 NQM=      158 NQMF=       0 NMMI=      0 NMMIF=      0
                NMic=       0 NMicF=      0.
                    Isotopes and Nuclear Properties:
 (Nuclear quadrupole moments (NQMom) in fm**2, nuclear magnetic moments (NMagM)
  in nuclear magnetons)

  Atom         1           2           3           4           5           6           7           8           9          10
 IAtWgt=          24          12          12          12          12          14          12          12          12          12
 AtmWgt=  23.9850450  12.0000000  12.0000000  12.0000000  12.0000000  14.0030740  12.0000000  12.0000000  12.0000000  12.0000000
 NucSpn=           0           0           0           0           0           2           0           0           0           0
 AtZEff=  -0.0000000  -0.0000000  -0.0000000  -0.0000000  -0.0000000  -0.0000000  -0.0000000  -0.0000000  -0.0000000  -0.0000000
 NQMom=    0.0000000   0.0000000   0.0000000   0.0000000   0.0000000   2.0440000   0.0000000   0.0000000   0.0000000   0.0000000
 NMagM=    0.0000000   0.0000000   0.0000000   0.0000000   0.0000000   0.4037610   0.0000000   0.0000000   0.0000000   0.0000000
 AtZNuc=  12.0000000   6.0000000   6.0000000   6.0000000   6.0000000   7.0000000   6.0000000   6.0000000   6.0000000   6.0000000

  Atom        11          12          13          14          15          16          17          18          19          20
 IAtWgt=          12          12          12           1          14          12          12          12          12          12
 AtmWgt=  12.0000000  12.0000000  12.0000000   1.0078250  14.0030740  12.0000000  12.0000000  12.0000000  12.0000000  12.0000000
 NucSpn=           0           0           0           1           2           0           0           0           0           0
 AtZEff=  -0.0000000  -0.0000000  -0.0000000  -0.0000000  -0.0000000  -0.0000000  -0.0000000  -0.0000000  -0.0000000  -0.0000000
 NQMom=    0.0000000   0.0000000   0.0000000   0.0000000   2.0440000   0.0000000   0.0000000   0.0000000   0.0000000   0.0000000
 NMagM=    0.0000000   0.0000000   0.0000000   2.7928460   0.4037610   0.0000000   0.0000000   0.0000000   0.0000000   0.0000000
 AtZNuc=   6.0000000   6.0000000   6.0000000   1.0000000   7.0000000   6.0000000   6.0000000   6.0000000   6.0000000   6.0000000

  Atom        21          22          23          24          25          26          27          28          29          30
 IAtWgt=          12          16          12          14          12          12          12          12          12          12
 AtmWgt=  12.0000000  15.9949146  12.0000000  14.0030740  12.0000000  12.0000000  12.0000000  12.0000000  12.0000000  12.0000000
 NucSpn=           0           0           0           2           0           0           0           0           0           0
 AtZEff=  -0.0000000  -0.0000000  -0.0000000  -0.0000000  -0.0000000  -0.0000000  -0.0000000  -0.0000000  -0.0000000  -0.0000000
 NQMom=    0.0000000   0.0000000   0.0000000   2.0440000   0.0000000   0.0000000   0.0000000   0.0000000   0.0000000   0.0000000
 NMagM=    0.0000000   0.0000000   0.0000000   0.4037610   0.0000000   0.0000000   0.0000000   0.0000000   0.0000000   0.0000000
 AtZNuc=   6.0000000   8.0000000   6.0000000   7.0000000   6.0000000   6.0000000   6.0000000   6.0000000   6.0000000   6.0000000

  Atom        31          32          33          34          35          36          37          38          39          40
 IAtWgt=          12          14          12          12          12          12          12          12          16          12
 AtmWgt=  12.0000000  14.0030740  12.0000000  12.0000000  12.0000000  12.0000000  12.0000000  12.0000000  15.9949146  12.0000000
 NucSpn=           0           2           0           0           0           0           0           0           0           0
 AtZEff=  -0.0000000  -0.0000000  -0.0000000  -0.0000000  -0.0000000  -0.0000000  -0.0000000  -0.0000000  -0.0000000  -0.0000000
 NQMom=    0.0000000   2.0440000   0.0000000   0.0000000   0.0000000   0.0000000   0.0000000   0.0000000   0.0000000   0.0000000
 NMagM=    0.0000000   0.4037610   0.0000000   0.0000000   0.0000000   0.0000000   0.0000000   0.0000000   0.0000000   0.0000000
 AtZNuc=   6.0000000   7.0000000   6.0000000   6.0000000   6.0000000   6.0000000   6.0000000   6.0000000   8.0000000   6.0000000

  Atom        41          42          43          44          45          46          47          48          49          50
 IAtWgt=          12          16          16          12           1           1           1           1           1           1
 AtmWgt=  12.0000000  15.9949146  15.9949146  12.0000000   1.0078250   1.0078250   1.0078250   1.0078250   1.0078250   1.0078250
 NucSpn=           0           0           0           0           1           1           1           1           1           1
 AtZEff=  -0.0000000  -0.0000000  -0.0000000  -0.0000000  -0.0000000  -0.0000000  -0.0000000  -0.0000000  -0.0000000  -0.0000000
 NQMom=    0.0000000   0.0000000   0.0000000   0.0000000   0.0000000   0.0000000   0.0000000   0.0000000   0.0000000   0.0000000
 NMagM=    0.0000000   0.0000000   0.0000000   0.0000000   2.7928460   2.7928460   2.7928460   2.7928460   2.7928460   2.7928460
 AtZNuc=   6.0000000   8.0000000   8.0000000   6.0000000   1.0000000   1.0000000   1.0000000   1.0000000   1.0000000   1.0000000

  Atom        51          52          53          54          55          56          57          58          59          60
 IAtWgt=           1           1           1           1           1           1           1           1           1           1
 AtmWgt=   1.0078250   1.0078250   1.0078250   1.0078250   1.0078250   1.0078250   1.0078250   1.0078250   1.0078250   1.0078250
 NucSpn=           1           1           1           1           1           1           1           1           1           1
 AtZEff=  -0.0000000  -0.0000000  -0.0000000  -0.0000000  -0.0000000  -0.0000000  -0.0000000  -0.0000000  -0.0000000  -0.0000000
 NQMom=    0.0000000   0.0000000   0.0000000   0.0000000   0.0000000   0.0000000   0.0000000   0.0000000   0.0000000   0.0000000
 NMagM=    2.7928460   2.7928460   2.7928460   2.7928460   2.7928460   2.7928460   2.7928460   2.7928460   2.7928460   2.7928460
 AtZNuc=   1.0000000   1.0000000   1.0000000   1.0000000   1.0000000   1.0000000   1.0000000   1.0000000   1.0000000   1.0000000

  Atom        61          62          63          64          65          66          67          68          69          70
 IAtWgt=           1           1           1           1           1           1           1           1           1           1
 AtmWgt=   1.0078250   1.0078250   1.0078250   1.0078250   1.0078250   1.0078250   1.0078250   1.0078250   1.0078250   1.0078250
 NucSpn=           1           1           1           1           1           1           1           1           1           1
 AtZEff=  -0.0000000  -0.0000000  -0.0000000  -0.0000000  -0.0000000  -0.0000000  -0.0000000  -0.0000000  -0.0000000  -0.0000000
 NQMom=    0.0000000   0.0000000   0.0000000   0.0000000   0.0000000   0.0000000   0.0000000   0.0000000   0.0000000   0.0000000
 NMagM=    2.7928460   2.7928460   2.7928460   2.7928460   2.7928460   2.7928460   2.7928460   2.7928460   2.7928460   2.7928460
 AtZNuc=   1.0000000   1.0000000   1.0000000   1.0000000   1.0000000   1.0000000   1.0000000   1.0000000   1.0000000   1.0000000

  Atom        71          72          73          74          75          76          77          78          79          80
 IAtWgt=           1           1           1           1           1           1           1           1           1          24
 AtmWgt=   1.0078250   1.0078250   1.0078250   1.0078250   1.0078250   1.0078250   1.0078250   1.0078250   1.0078250  23.9850450
 NucSpn=           1           1           1           1           1           1           1           1           1           0
 AtZEff=  -0.0000000  -0.0000000  -0.0000000  -0.0000000  -0.0000000  -0.0000000  -0.0000000  -0.0000000  -0.0000000  -0.0000000
 NQMom=    0.0000000   0.0000000   0.0000000   0.0000000   0.0000000   0.0000000   0.0000000   0.0000000   0.0000000   0.0000000
 NMagM=    2.7928460   2.7928460   2.7928460   2.7928460   2.7928460   2.7928460   2.7928460   2.7928460   2.7928460   0.0000000
 AtZNuc=   1.0000000   1.0000000   1.0000000   1.0000000   1.0000000   1.0000000   1.0000000   1.0000000   1.0000000  12.0000000

  Atom        81          82          83          84          85          86          87          88          89          90
 IAtWgt=          12          12          12          12          14          12          12          12          12          12
 AtmWgt=  12.0000000  12.0000000  12.0000000  12.0000000  14.0030740  12.0000000  12.0000000  12.0000000  12.0000000  12.0000000
 NucSpn=           0           0           0           0           2           0           0           0           0           0
 AtZEff=  -0.0000000  -0.0000000  -0.0000000  -0.0000000  -0.0000000  -0.0000000  -0.0000000  -0.0000000  -0.0000000  -0.0000000
 NQMom=    0.0000000   0.0000000   0.0000000   0.0000000   2.0440000   0.0000000   0.0000000   0.0000000   0.0000000   0.0000000
 NMagM=    0.0000000   0.0000000   0.0000000   0.0000000   0.4037610   0.0000000   0.0000000   0.0000000   0.0000000   0.0000000
 AtZNuc=   6.0000000   6.0000000   6.0000000   6.0000000   7.0000000   6.0000000   6.0000000   6.0000000   6.0000000   6.0000000

  Atom        91          92          93          94          95          96          97          98          99         100
 IAtWgt=          12          12           1          14          12          12          12          12          12          12
 AtmWgt=  12.0000000  12.0000000   1.0078250  14.0030740  12.0000000  12.0000000  12.0000000  12.0000000  12.0000000  12.0000000
 NucSpn=           0           0           1           2           0           0           0           0           0           0
 AtZEff=  -0.0000000  -0.0000000  -0.0000000  -0.0000000  -0.0000000  -0.0000000  -0.0000000  -0.0000000  -0.0000000  -0.0000000
 NQMom=    0.0000000   0.0000000   0.0000000   2.0440000   0.0000000   0.0000000   0.0000000   0.0000000   0.0000000   0.0000000
 NMagM=    0.0000000   0.0000000   2.7928460   0.4037610   0.0000000   0.0000000   0.0000000   0.0000000   0.0000000   0.0000000
 AtZNuc=   6.0000000   6.0000000   1.0000000   7.0000000   6.0000000   6.0000000   6.0000000   6.0000000   6.0000000   6.0000000

  Atom       101         102         103         104         105         106         107         108         109         110
 IAtWgt=          16          12          14          12          12          12          12          12          12          12
 AtmWgt=  15.9949146  12.0000000  14.0030740  12.0000000  12.0000000  12.0000000  12.0000000  12.0000000  12.0000000  12.0000000
 NucSpn=           0           0           2           0           0           0           0           0           0           0
 AtZEff=  -0.0000000  -0.0000000  -0.0000000  -0.0000000  -0.0000000  -0.0000000  -0.0000000  -0.0000000  -0.0000000  -0.0000000
 NQMom=    0.0000000   0.0000000   2.0440000   0.0000000   0.0000000   0.0000000   0.0000000   0.0000000   0.0000000   0.0000000
 NMagM=    0.0000000   0.0000000   0.4037610   0.0000000   0.0000000   0.0000000   0.0000000   0.0000000   0.0000000   0.0000000
 AtZNuc=   8.0000000   6.0000000   7.0000000   6.0000000   6.0000000   6.0000000   6.0000000   6.0000000   6.0000000   6.0000000

  Atom       111         112         113         114         115         116         117         118         119         120
 IAtWgt=          14          12          12          12          12          12          12          16          12          12
 AtmWgt=  14.0030740  12.0000000  12.0000000  12.0000000  12.0000000  12.0000000  12.0000000  15.9949146  12.0000000  12.0000000
 NucSpn=           2           0           0           0           0           0           0           0           0           0
 AtZEff=  -0.0000000  -0.0000000  -0.0000000  -0.0000000  -0.0000000  -0.0000000  -0.0000000  -0.0000000  -0.0000000  -0.0000000
 NQMom=    2.0440000   0.0000000   0.0000000   0.0000000   0.0000000   0.0000000   0.0000000   0.0000000   0.0000000   0.0000000
 NMagM=    0.4037610   0.0000000   0.0000000   0.0000000   0.0000000   0.0000000   0.0000000   0.0000000   0.0000000   0.0000000
 AtZNuc=   7.0000000   6.0000000   6.0000000   6.0000000   6.0000000   6.0000000   6.0000000   8.0000000   6.0000000   6.0000000

  Atom       121         122         123         124         125         126         127         128         129         130
 IAtWgt=          16          16          12           1           1           1           1           1           1           1
 AtmWgt=  15.9949146  15.9949146  12.0000000   1.0078250   1.0078250   1.0078250   1.0078250   1.0078250   1.0078250   1.0078250
 NucSpn=           0           0           0           1           1           1           1           1           1           1
 AtZEff=  -0.0000000  -0.0000000  -0.0000000  -0.0000000  -0.0000000  -0.0000000  -0.0000000  -0.0000000  -0.0000000  -0.0000000
 NQMom=    0.0000000   0.0000000   0.0000000   0.0000000   0.0000000   0.0000000   0.0000000   0.0000000   0.0000000   0.0000000
 NMagM=    0.0000000   0.0000000   0.0000000   2.7928460   2.7928460   2.7928460   2.7928460   2.7928460   2.7928460   2.7928460
 AtZNuc=   8.0000000   8.0000000   6.0000000   1.0000000   1.0000000   1.0000000   1.0000000   1.0000000   1.0000000   1.0000000

  Atom       131         132         133         134         135         136         137         138         139         140
 IAtWgt=           1           1           1           1           1           1           1           1           1           1
 AtmWgt=   1.0078250   1.0078250   1.0078250   1.0078250   1.0078250   1.0078250   1.0078250   1.0078250   1.0078250   1.0078250
 NucSpn=           1           1           1           1           1           1           1           1           1           1
 AtZEff=  -0.0000000  -0.0000000  -0.0000000  -0.0000000  -0.0000000  -0.0000000  -0.0000000  -0.0000000  -0.0000000  -0.0000000
 NQMom=    0.0000000   0.0000000   0.0000000   0.0000000   0.0000000   0.0000000   0.0000000   0.0000000   0.0000000   0.0000000
 NMagM=    2.7928460   2.7928460   2.7928460   2.7928460   2.7928460   2.7928460   2.7928460   2.7928460   2.7928460   2.7928460
 AtZNuc=   1.0000000   1.0000000   1.0000000   1.0000000   1.0000000   1.0000000   1.0000000   1.0000000   1.0000000   1.0000000

  Atom       141         142         143         144         145         146         147         148         149         150
 IAtWgt=           1           1           1           1           1           1           1           1           1           1
 AtmWgt=   1.0078250   1.0078250   1.0078250   1.0078250   1.0078250   1.0078250   1.0078250   1.0078250   1.0078250   1.0078250
 NucSpn=           1           1           1           1           1           1           1           1           1           1
 AtZEff=  -0.0000000  -0.0000000  -0.0000000  -0.0000000  -0.0000000  -0.0000000  -0.0000000  -0.0000000  -0.0000000  -0.0000000
 NQMom=    0.0000000   0.0000000   0.0000000   0.0000000   0.0000000   0.0000000   0.0000000   0.0000000   0.0000000   0.0000000
 NMagM=    2.7928460   2.7928460   2.7928460   2.7928460   2.7928460   2.7928460   2.7928460   2.7928460   2.7928460   2.7928460
 AtZNuc=   1.0000000   1.0000000   1.0000000   1.0000000   1.0000000   1.0000000   1.0000000   1.0000000   1.0000000   1.0000000

  Atom       151         152         153         154         155         156         157         158
 IAtWgt=           1           1           1           1           1           1           1           1
 AtmWgt=   1.0078250   1.0078250   1.0078250   1.0078250   1.0078250   1.0078250   1.0078250   1.0078250
 NucSpn=           1           1           1           1           1           1           1           1
 AtZEff=  -0.0000000  -0.0000000  -0.0000000  -0.0000000  -0.0000000  -0.0000000  -0.0000000  -0.0000000
 NQMom=    0.0000000   0.0000000   0.0000000   0.0000000   0.0000000   0.0000000   0.0000000   0.0000000
 NMagM=    2.7928460   2.7928460   2.7928460   2.7928460   2.7928460   2.7928460   2.7928460   2.7928460
 AtZNuc=   1.0000000   1.0000000   1.0000000   1.0000000   1.0000000   1.0000000   1.0000000   1.0000000
 Leave Link  101 at Thu Sep  9 17:31:44 2021, MaxMem= 23488102400 cpu:               3.2 elap:               0.2
 (Enter /sw/apps/gaussian-16.0/g16/l202.exe)
 Stoichiometry    C68H72Mg2N8O8
 Framework group  C1[X(C68H72Mg2N8O8)]
 Deg. of freedom   468
 Full point group                 C1      NOp   1
 Largest Abelian subgroup         C1      NOp   1
 Largest concise Abelian subgroup C1      NOp   1
                         Standard orientation:                         
 ---------------------------------------------------------------------
 Center     Atomic      Atomic             Coordinates (Angstroms)
 Number     Number       Type             X           Y           Z
 ---------------------------------------------------------------------
      1         12           0       -4.416854   -0.779727   -0.221191
      2          6           0       -4.825725    1.838590    2.184938
      3          6           0       -5.236397    1.501738   -2.622509
      4          6           0       -4.506611   -3.167919   -2.305682
      5          6           0       -4.748173   -3.045077    2.406371
      6          7           0       -4.941870    1.367905   -0.108591
      7          6           0       -5.004186    2.267773    0.867896
      8          6           0       -5.202298    3.724986    0.353451
      9          6           0       -5.872621    3.404947   -1.057308
     10          6           0       -5.288744    2.023609   -1.295882
     11          6           0       -7.392583    3.292206   -0.998081
     12          6           0       -3.844046    4.485154    0.183081
     13          6           0       -3.962107    6.001145    0.000905
     14          1           0       -2.941153    6.858201    0.584393
     15          7           0       -4.333420   -0.761387   -2.194906
     16          6           0       -4.691392    0.258843   -3.011162
     17          6           0       -4.444535   -0.216184   -4.389600
     18          6           0       -4.093554   -1.661727   -4.316721
     19          6           0       -4.325715   -1.931354   -2.920734
     20          6           0       -4.503042    0.677083   -5.590600
     21          6           0       -3.633577   -2.646702   -5.344524
     22          8           0       -3.607993   -3.904643   -5.117579
     23          6           0       -3.293177   -2.101301   -6.671063
     24          7           0       -4.819252   -2.818931   -0.027908
     25          6           0       -4.733593   -3.641838   -1.078846
     26          6           0       -4.784157   -5.079062   -0.652502
     27          6           0       -4.677840   -5.071544    0.940731
     28          6           0       -4.666182   -3.539905    1.169241
     29          6           0       -6.036026   -5.859346   -1.076756
     30          6           0       -3.547003   -5.920396    1.574039
     31          6           0       -2.201410   -5.324780    1.225155
     32          7           0       -4.554207   -0.660866    1.941690
     33          6           0       -4.709814   -1.729296    2.836629
     34          6           0       -4.862633   -1.146732    4.182487
     35          6           0       -4.801509    0.229651    3.973493
     36          6           0       -4.648208    0.491067    2.581928
     37          6           0       -5.089526   -1.873651    5.384378
     38          6           0       -4.854753    1.540951    4.599204
     39          8           0       -4.878796    1.946522    5.762143
     40          6           0       -4.994866    2.637671    3.453167
     41          6           0       -3.993846    3.723837    3.738668
     42          8           0       -2.768398    3.500466    3.662864
     43          8           0       -4.628855    4.903001    3.821610
     44          6           0       -3.689028    6.027731    4.074319
     45          1           0       -5.706626    2.065666   -3.430476
     46          1           0       -4.433167   -4.025874   -2.977215
     47          1           0       -4.771060   -3.692491    3.284883
     48          1           0       -5.877070    4.332267    0.957038
     49          1           0       -5.540226    4.095796   -1.831881
     50          1           0       -7.754600    3.322705    0.029505
     51          1           0       -7.631405    2.332851   -1.457531
     52          1           0       -7.861971    4.050152   -1.625752
     53          1           0       -3.399943    4.217121   -0.775560
     54          1           0       -3.175969    4.273388    1.018637
     55          1           0       -4.957690    6.358111    0.266044
     56          1           0       -3.867810    6.225838   -1.061555
     57          1           0       -4.946487    1.642588   -5.350387
     58          1           0       -5.203634    0.223164   -6.291197
     59          1           0       -3.528613    0.789706   -6.066138
     60          1           0       -4.164693   -1.594821   -7.086380
     61          1           0       -2.899977   -2.937509   -7.248125
     62          1           0       -2.523062   -1.338576   -6.552225
     63          1           0       -3.945118   -5.638733   -1.063851
     64          1           0       -5.586827   -5.444784    1.413075
     65          1           0       -5.817593   -6.752984   -1.661908
     66          1           0       -6.685785   -5.180145   -1.627928
     67          1           0       -6.685646   -6.162484   -0.256074
     68          1           0       -3.563165   -6.933221    1.172953
     69          1           0       -3.619130   -5.992283    2.659341
     70          1           0       -1.999806   -5.740143    0.238412
     71          1           0       -1.446337   -5.643381    1.944577
     72          1           0       -2.261541   -4.241679    1.116698
     73          1           0       -4.443053   -1.425278    6.138700
     74          1           0       -4.870184   -2.933102    5.253775
     75          1           0       -6.151513   -1.682972    5.538268
     76          1           0       -6.019951    3.004615    3.494084
     77          1           0       -4.032561    6.536911    4.974849
     78          1           0       -3.643547    6.606774    3.151797
     79          1           0       -2.675407    5.752278    4.367639
     80         12           0        4.555859   -0.500922    0.256137
     81          6           0        4.266997    2.033585   -2.268122
     82          6           0        5.740366    1.923232    2.343020
     83          6           0        5.245093   -2.781193    2.352029
     84          6           0        4.450472   -2.865066   -2.302265
     85          7           0        4.911582    1.661980   -0.039792
     86          6           0        4.706848    2.526677   -1.021993
     87          6           0        4.912544    4.012860   -0.623840
     88          6           0        5.902515    3.793389    0.621417
     89          6           0        5.473505    2.385551    1.029576
     90          6           0        7.368685    3.749614    0.224207
     91          6           0        3.575306    4.703275   -0.179818
     92          6           0        3.643227    6.228402   -0.074213
     93          1           0        2.462394    7.004829   -0.441986
     94          7           0        4.903376   -0.389862    2.206899
     95          6           0        5.361168    0.678722    2.892340
     96          6           0        5.465618    0.243236    4.293628
     97          6           0        5.189127   -1.217862    4.352605
     98          6           0        5.120763   -1.530469    2.939212
     99          6           0        5.721583    1.196138    5.424943
    100          6           0        5.027360   -2.177613    5.492302
    101          8           0        5.028120   -3.446244    5.309535
    102          6           0        4.961782   -1.591235    6.838901
    103          7           0        5.023972   -2.515517    0.044893
    104          6           0        5.228327   -3.294379    1.121719
    105          6           0        5.276020   -4.754120    0.737955
    106          6           0        4.818021   -4.810983   -0.793244
    107          6           0        4.663863   -3.298908   -1.067593
    108          6           0        6.635073   -5.437357    0.888082
    109          6           0        3.629434   -5.749678   -1.137905
    110          6           0        2.357655   -5.222745   -0.513159
    111          7           0        4.205749   -0.471174   -1.875661
    112          6           0        4.232791   -1.571801   -2.759948
    113          6           0        4.050293   -1.037922   -4.125265
    114          6           0        3.951993    0.349515   -3.941338
    115          6           0        4.085453    0.660284   -2.561086
    116          6           0        4.042662   -1.804980   -5.324298
    117          6           0        3.776317    1.622791   -4.602106
    118          8           0        3.527333    1.976760   -5.753825
    119          6           0        4.098992    2.780638   -3.562067
    120          6           0        2.995807    3.799800   -3.644547
    121          8           0        1.836740    3.505634   -3.303020
    122          8           0        3.529855    5.007199   -3.904051
    123          6           0        2.475866    6.053376   -3.984308
    124          1           0        6.333102    2.555115    3.005038
    125          1           0        5.373191   -3.616473    3.044392
    126          1           0        4.308252   -3.546239   -3.143956
    127          1           0        5.394082    4.622886   -1.378657
    128          1           0        5.695979    4.501439    1.419768
    129          1           0        7.495911    3.755141   -0.848145
    130          1           0        7.760778    2.833884    0.646994
    131          1           0        7.915080    4.563615    0.709146
    132          1           0        3.373283    4.451114    0.869146
    133          1           0        2.767797    4.421489   -0.827230
    134          1           0        4.537862    6.635823   -0.560589
    135          1           0        3.763608    6.498376    0.977759
    136          1           0        6.047494    2.177385    5.058446
    137          1           0        6.585815    0.811782    5.977429
    138          1           0        4.873102    1.276963    6.107750
    139          1           0        5.867289   -1.019754    7.028426
    140          1           0        4.755803   -2.426146    7.511492
    141          1           0        4.128550   -0.880377    6.870743
    142          1           0        4.581857   -5.333591    1.334143
    143          1           0        5.626853   -5.168208   -1.447470
    144          1           0        6.606471   -6.326059    1.546475
    145          1           0        7.343399   -4.709922    1.261774
    146          1           0        7.098757   -5.753182   -0.044898
    147          1           0        3.795596   -6.742711   -0.713133
    148          1           0        3.474903   -5.877243   -2.204140
    149          1           0        2.409515   -5.603975    0.511080
    150          1           0        1.485196   -5.610720   -1.035010
    151          1           0        2.370295   -4.127993   -0.458452
    152          1           0        3.227875   -1.429463   -5.928952
    153          1           0        3.927893   -2.866743   -5.116310
    154          1           0        5.036389   -1.568054   -5.713731
    155          1           0        5.067602    3.203033   -3.832167
    156          1           0        2.584559    6.542417   -4.957310
    157          1           0        2.611798    6.683963   -3.085631
    158          1           0        1.444481    5.723469   -4.027462
 ---------------------------------------------------------------------
 Rotational constants (GHZ):           0.0204026           0.0134937           0.0132056
 Leave Link  202 at Thu Sep  9 17:31:44 2021, MaxMem= 23488102400 cpu:               0.2 elap:               0.0
 (Enter /sw/apps/gaussian-16.0/g16/l301.exe)
 Standard basis: def2SVP (5D, 7F)
 Ernie: Thresh=  0.10000D-02 Tol=  0.10000D-05 Strict=F.
 There are  1658 symmetry adapted cartesian basis functions of A   symmetry.
 There are  1572 symmetry adapted basis functions of A   symmetry.
  1572 basis functions,  2678 primitive gaussians,  1658 cartesian basis functions
   312 alpha electrons      312 beta electrons
       nuclear repulsion energy     15436.7840681696 Hartrees.
 IExCor=20419 DFT=T Ex+Corr=CAM-B3LYP ExCW=0 ScaHFX=  1.000000
 ScaDFX=  1.000000  1.000000  1.000000  0.810000 ScalE2=  1.000000  1.000000
 IRadAn=      5 IRanWt=     -1 IRanGd=            0 ICorTp=0 IEmpDi=  4
 HFx  wShort=  0.000000 wLong=  0.330000 cFull=  0.190000 cShort=  0.000000 cLong=  0.460000
 DFx  wShort=  0.000000 wLong=  0.330000 cFull=  0.190000 cShort=  0.000000 cLong=  0.460000
 NAtoms=  158 NActive=  158 NUniq=  158 SFac= 1.00D+00 NAtFMM=   60 NAOKFM=T Big=T
 Integral buffers will be    131072 words long.
 Raffenetti 1 integral format.
 Two-electron integral symmetry is turned on.
 Leave Link  301 at Thu Sep  9 17:31:44 2021, MaxMem= 23488102400 cpu:               1.4 elap:               0.1
 (Enter /sw/apps/gaussian-16.0/g16/l302.exe)
 NPDir=0 NMtPBC=     1 NCelOv=     1 NCel=       1 NClECP=     1 NCelD=      1
         NCelK=      1 NCelE2=     1 NClLst=     1 CellRange=     0.0.
 One-electron integrals computed using PRISM.
 One-electron integral symmetry used in STVInt
   1 Symmetry operations used in ECPInt.
 ECPInt:  NShTT=  271216 NPrTT=  987664 LenC2=  151675 LenP2D=  314372.
 LDataN:  DoStor=T MaxTD1= 4 Len=   56
 NBasis=  1572 RedAO= T EigKep=  3.36D-04  NBF=  1572
 NBsUse=  1572 1.00D-06 EigRej= -1.00D+00 NBFU=  1572
 Precomputing XC quadrature grid using
 IXCGrd= 4 IRadAn=           5 IRanWt=          -1 IRanGd=           0 AccXCQ= 0.00D+00.
 Generated NRdTot=       0 NPtTot=           0 NUsed=           0 NTot=          32
 NSgBfM=  1170  1170  1170  1170  1170 MxSgAt=   158 MxSgA2=   158.
 Leave Link  302 at Thu Sep  9 17:31:49 2021, MaxMem= 23488102400 cpu:             124.2 elap:               5.2
 (Enter /sw/apps/gaussian-16.0/g16/l303.exe)
 DipDrv:  MaxL=1.
 Leave Link  303 at Thu Sep  9 17:31:50 2021, MaxMem= 23488102400 cpu:               9.6 elap:               0.5
 (Enter /sw/apps/gaussian-16.0/g16/l308.exe)
 Leave Link  308 at Thu Sep  9 17:31:51 2021, MaxMem= 23488102400 cpu:              15.7 elap:               0.7
 (Enter /sw/apps/gaussian-16.0/g16/l401.exe)
 ExpMin= 3.36D-02 ExpMax= 4.95D+03 ExpMxC= 7.45D+02 IAcc=3 IRadAn=         5 AccDes= 0.00D+00
 Harris functional with IExCor=20419 and IRadAn=       5 diagonalized for initial guess.
 HarFok:  IExCor=20419 AccDes= 0.00D+00 IRadAn=         5 IDoV= 1 UseB2=F ITyADJ=14
 ICtDFT=  3500011 ScaDFX=  1.000000  1.000000  1.000000  1.000000
 FoFCou: FMM=F IPFlag=           0 FMFlag=      100000 FMFlg1=        2001
         NFxFlg=           0 DoJE=T BraDBF=F KetDBF=T FulRan=T
         wScrn=  0.000000 ICntrl=       500 IOpCl=  0 I1Cent=   200000004 NGrid=           0
         NMat0=    1 NMatS0=      1 NMatT0=    0 NMatD0=    1 NMtDS0=    0 NMtDT0=    0
 Petite list used in FoFCou.
 Harris En= -3918.65796799731    
 JPrj=0 DoOrth=F DoCkMO=F.
 Leave Link  401 at Thu Sep  9 17:31:58 2021, MaxMem= 23488102400 cpu:             187.4 elap:               7.8
 (Enter /sw/apps/gaussian-16.0/g16/l502.exe)
 Integral symmetry usage will be decided dynamically.
 Closed shell SCF:
 Using DIIS extrapolation, IDIIS=  1040.
 NGot= 23488102400 LenX= 23482547354 LenY= 23479796732
 Requested convergence on RMS density matrix=1.00D-08 within 128 cycles.
 Requested convergence on MAX density matrix=1.00D-06.
 Requested convergence on             energy=1.00D-06.
 No special actions if energy rises.
 Fock matrices will be formed incrementally for  20 cycles.

 Cycle   1  Pass 1  IDiag  1:
 FoFJK:  IHMeth= 1 ICntrl=       0 DoSepK=T KAlg= 0 I1Cent=           0 FoldK=F
 IRaf=         1 NMat=       1 IRICut=       1 DoRegI=T DoRafI=F ISym2E= 0 IDoP0=0 IntGTp=1.
 FoFCou: FMM=T IPFlag=           0 FMFlag=      100000 FMFlg1=        2001
         NFxFlg=           0 DoJE=T BraDBF=F KetDBF=F FulRan=T
         wScrn=  0.000000 ICntrl=       500 IOpCl=  0 I1Cent=           0 NGrid=           0
         NMat0=    1 NMatS0=      1 NMatT0=    0 NMatD0=    1 NMtDS0=    0 NMtDT0=    0
 Symmetry not used in FoFCou.
 FMM levels:  10  Number of levels for PrismC:   9
 E= -4068.95177178474    
 DIIS: error= 2.04D-02 at cycle   1 NSaved=   1.
 NSaved= 1 IEnMin= 1 EnMin= -4068.95177178474     IErMin= 1 ErrMin= 2.04D-02
 ErrMax= 2.04D-02  0.00D+00 EMaxC= 1.00D-01 BMatC= 1.69D+00 BMatP= 1.69D+00
 IDIUse=3 WtCom= 7.96D-01 WtEn= 2.04D-01
 Coeff-Com:  0.100D+01
 Coeff-En:   0.100D+01
 Coeff:      0.100D+01
 Gap=     0.120 Goal=   None    Shift=    0.000
 GapD=    0.120 DampG=1.000 DampE=0.500 DampFc=0.5000 IDamp=-1.
 Damping current iteration by 5.00D-01
 RMSDP=1.57D-03 MaxDP=1.36D-01              OVMax= 1.91D-01

 Cycle   2  Pass 1  IDiag  1:
 RMSU=  7.68D-04    CP:  9.82D-01
 E= -4069.34062963473     Delta-E=       -0.388857849986 Rises=F Damp=T
 DIIS: error= 1.27D-02 at cycle   2 NSaved=   2.
 NSaved= 2 IEnMin= 2 EnMin= -4069.34062963473     IErMin= 2 ErrMin= 1.27D-02
 ErrMax= 1.27D-02  0.00D+00 EMaxC= 1.00D-01 BMatC= 3.06D-01 BMatP= 1.69D+00
 IDIUse=3 WtCom= 8.73D-01 WtEn= 1.27D-01
 Coeff-Com: -0.215D+00 0.121D+01
 Coeff-En:   0.000D+00 0.100D+01
 Coeff:     -0.188D+00 0.119D+01
 Gap=     0.137 Goal=   None    Shift=    0.000
 RMSDP=7.60D-04 MaxDP=9.31D-02 DE=-3.89D-01 OVMax= 1.89D-01

 Cycle   3  Pass 1  IDiag  1:
 RMSU=  7.26D-04    CP:  9.68D-01  1.25D+00
 E= -4069.63238202872     Delta-E=       -0.291752393994 Rises=F Damp=F
 DIIS: error= 1.56D-02 at cycle   3 NSaved=   3.
 NSaved= 3 IEnMin= 3 EnMin= -4069.63238202872     IErMin= 2 ErrMin= 1.27D-02
 ErrMax= 1.56D-02  0.00D+00 EMaxC= 1.00D-01 BMatC= 1.99D-01 BMatP= 3.06D-01
 IDIUse=3 WtCom= 8.44D-01 WtEn= 1.56D-01
 Coeff-Com: -0.267D+00 0.650D+00 0.617D+00
 Coeff-En:   0.000D+00 0.000D+00 0.100D+01
 Coeff:     -0.225D+00 0.548D+00 0.677D+00
 Gap=     0.123 Goal=   None    Shift=    0.000
 RMSDP=4.98D-04 MaxDP=4.83D-02 DE=-2.92D-01 OVMax= 1.24D-01

 Cycle   4  Pass 1  IDiag  1:
 RMSU=  2.61D-04    CP:  9.65D-01  1.55D+00  5.13D-01
 E= -4069.76823304786     Delta-E=       -0.135851019135 Rises=F Damp=F
 DIIS: error= 7.18D-03 at cycle   4 NSaved=   4.
 NSaved= 4 IEnMin= 4 EnMin= -4069.76823304786     IErMin= 4 ErrMin= 7.18D-03
 ErrMax= 7.18D-03  0.00D+00 EMaxC= 1.00D-01 BMatC= 4.84D-02 BMatP= 1.99D-01
 IDIUse=3 WtCom= 9.28D-01 WtEn= 7.18D-02
 Coeff-Com: -0.108D+00 0.224D+00 0.407D+00 0.477D+00
 Coeff-En:   0.000D+00 0.000D+00 0.214D+00 0.786D+00
 Coeff:     -0.100D+00 0.208D+00 0.393D+00 0.499D+00
 Gap=     0.122 Goal=   None    Shift=    0.000
 RMSDP=1.92D-04 MaxDP=2.06D-02 DE=-1.36D-01 OVMax= 4.90D-02

 Cycle   5  Pass 1  IDiag  1:
 RMSU=  7.31D-05    CP:  9.64D-01  1.49D+00  6.90D-01  5.59D-01
 E= -4069.81148217564     Delta-E=       -0.043249127779 Rises=F Damp=F
 DIIS: error= 7.72D-04 at cycle   5 NSaved=   5.
 NSaved= 5 IEnMin= 5 EnMin= -4069.81148217564     IErMin= 5 ErrMin= 7.72D-04
 ErrMax= 7.72D-04  0.00D+00 EMaxC= 1.00D-01 BMatC= 1.02D-03 BMatP= 4.84D-02
 IDIUse=3 WtCom= 9.92D-01 WtEn= 7.72D-03
 Coeff-Com: -0.338D-01 0.661D-01 0.157D+00 0.242D+00 0.569D+00
 Coeff-En:   0.000D+00 0.000D+00 0.000D+00 0.000D+00 0.100D+01
 Coeff:     -0.335D-01 0.655D-01 0.156D+00 0.240D+00 0.572D+00
 Gap=     0.121 Goal=   None    Shift=    0.000
 RMSDP=3.68D-05 MaxDP=3.88D-03 DE=-4.32D-02 OVMax= 1.00D-02

 Cycle   6  Pass 1  IDiag  1:
 RMSU=  2.80D-05    CP:  9.64D-01  1.50D+00  6.84D-01  6.25D-01  7.87D-01
 E= -4069.81232816533     Delta-E=       -0.000845989696 Rises=F Damp=F
 DIIS: error= 2.66D-04 at cycle   6 NSaved=   6.
 NSaved= 6 IEnMin= 6 EnMin= -4069.81232816533     IErMin= 6 ErrMin= 2.66D-04
 ErrMax= 2.66D-04  0.00D+00 EMaxC= 1.00D-01 BMatC= 1.52D-04 BMatP= 1.02D-03
 IDIUse=3 WtCom= 9.97D-01 WtEn= 2.66D-03
 Coeff-Com:  0.269D-02-0.745D-02 0.840D-02 0.361D-01 0.307D+00 0.653D+00
 Coeff-En:   0.000D+00 0.000D+00 0.000D+00 0.000D+00 0.852D-01 0.915D+00
 Coeff:      0.268D-02-0.743D-02 0.838D-02 0.360D-01 0.307D+00 0.653D+00
 Gap=     0.122 Goal=   None    Shift=    0.000
 RMSDP=1.39D-05 MaxDP=1.17D-03 DE=-8.46D-04 OVMax= 5.21D-03

 Cycle   7  Pass 1  IDiag  1:
 RMSU=  9.70D-06    CP:  9.64D-01  1.50D+00  6.89D-01  6.26D-01  8.75D-01
                    CP:  7.76D-01
 E= -4069.81248726423     Delta-E=       -0.000159098901 Rises=F Damp=F
 DIIS: error= 6.82D-05 at cycle   7 NSaved=   7.
 NSaved= 7 IEnMin= 7 EnMin= -4069.81248726423     IErMin= 7 ErrMin= 6.82D-05
 ErrMax= 6.82D-05  0.00D+00 EMaxC= 1.00D-01 BMatC= 1.47D-05 BMatP= 1.52D-04
 IDIUse=1 WtCom= 1.00D+00 WtEn= 0.00D+00
 Coeff-Com:  0.429D-02-0.929D-02-0.946D-02-0.585D-02 0.888D-01 0.304D+00
 Coeff-Com:  0.627D+00
 Coeff:      0.429D-02-0.929D-02-0.946D-02-0.585D-02 0.888D-01 0.304D+00
 Coeff:      0.627D+00
 Gap=     0.122 Goal=   None    Shift=    0.000
 RMSDP=5.74D-06 MaxDP=9.39D-04 DE=-1.59D-04 OVMax= 2.29D-03

 Cycle   8  Pass 1  IDiag  1:
 RMSU=  4.23D-06    CP:  9.64D-01  1.50D+00  6.90D-01  6.30D-01  8.86D-01
                    CP:  8.95D-01  8.68D-01
 E= -4069.81250579213     Delta-E=       -0.000018527899 Rises=F Damp=F
 DIIS: error= 3.36D-05 at cycle   8 NSaved=   8.
 NSaved= 8 IEnMin= 8 EnMin= -4069.81250579213     IErMin= 8 ErrMin= 3.36D-05
 ErrMax= 3.36D-05  0.00D+00 EMaxC= 1.00D-01 BMatC= 3.96D-06 BMatP= 1.47D-05
 IDIUse=1 WtCom= 1.00D+00 WtEn= 0.00D+00
 Coeff-Com:  0.198D-02-0.390D-02-0.740D-02-0.120D-01-0.164D-01 0.290D-01
 Coeff-Com:  0.367D+00 0.642D+00
 Coeff:      0.198D-02-0.390D-02-0.740D-02-0.120D-01-0.164D-01 0.290D-01
 Coeff:      0.367D+00 0.642D+00
 Gap=     0.122 Goal=   None    Shift=    0.000
 RMSDP=3.03D-06 MaxDP=3.73D-04 DE=-1.85D-05 OVMax= 1.26D-03

 Cycle   9  Pass 1  IDiag  1:
 RMSU=  1.78D-06    CP:  9.64D-01  1.50D+00  6.90D-01  6.32D-01  9.02D-01
                    CP:  9.20D-01  1.07D+00  9.14D-01
 E= -4069.81251207552     Delta-E=       -0.000006283386 Rises=F Damp=F
 DIIS: error= 1.92D-05 at cycle   9 NSaved=   9.
 NSaved= 9 IEnMin= 9 EnMin= -4069.81251207552     IErMin= 9 ErrMin= 1.92D-05
 ErrMax= 1.92D-05  0.00D+00 EMaxC= 1.00D-01 BMatC= 5.55D-07 BMatP= 3.96D-06
 IDIUse=1 WtCom= 1.00D+00 WtEn= 0.00D+00
 Coeff-Com:  0.421D-03-0.694D-03-0.246D-02-0.560D-02-0.218D-01-0.345D-01
 Coeff-Com:  0.113D+00 0.317D+00 0.635D+00
 Coeff:      0.421D-03-0.694D-03-0.246D-02-0.560D-02-0.218D-01-0.345D-01
 Coeff:      0.113D+00 0.317D+00 0.635D+00
 Gap=     0.122 Goal=   None    Shift=    0.000
 RMSDP=1.28D-06 MaxDP=1.21D-04 DE=-6.28D-06 OVMax= 6.82D-04

 Cycle  10  Pass 1  IDiag  1:
 RMSU=  8.87D-07    CP:  9.64D-01  1.50D+00  6.90D-01  6.32D-01  9.04D-01
                    CP:  9.34D-01  1.11D+00  1.08D+00  1.01D+00
 E= -4069.81251335974     Delta-E=       -0.000001284217 Rises=F Damp=F
 DIIS: error= 1.16D-05 at cycle  10 NSaved=  10.
 NSaved=10 IEnMin=10 EnMin= -4069.81251335974     IErMin=10 ErrMin= 1.16D-05
 ErrMax= 1.16D-05  0.00D+00 EMaxC= 1.00D-01 BMatC= 1.73D-07 BMatP= 5.55D-07
 IDIUse=1 WtCom= 1.00D+00 WtEn= 0.00D+00
 Coeff-Com: -0.404D-03 0.845D-03 0.116D-02 0.109D-02-0.421D-02-0.295D-01
 Coeff-Com: -0.496D-01-0.743D-01 0.313D+00 0.842D+00
 Coeff:     -0.404D-03 0.845D-03 0.116D-02 0.109D-02-0.421D-02-0.295D-01
 Coeff:     -0.496D-01-0.743D-01 0.313D+00 0.842D+00
 Gap=     0.122 Goal=   None    Shift=    0.000
 RMSDP=1.10D-06 MaxDP=1.34D-04 DE=-1.28D-06 OVMax= 5.06D-04

 Cycle  11  Pass 1  IDiag  1:
 RMSU=  4.58D-07    CP:  9.64D-01  1.50D+00  6.90D-01  6.32D-01  9.07D-01
                    CP:  9.43D-01  1.16D+00  1.18D+00  1.34D+00  1.32D+00
 E= -4069.81251401145     Delta-E=       -0.000000651718 Rises=F Damp=F
 DIIS: error= 3.79D-06 at cycle  11 NSaved=  11.
 NSaved=11 IEnMin=11 EnMin= -4069.81251401145     IErMin=11 ErrMin= 3.79D-06
 ErrMax= 3.79D-06  0.00D+00 EMaxC= 1.00D-01 BMatC= 4.62D-08 BMatP= 1.73D-07
 IDIUse=1 WtCom= 1.00D+00 WtEn= 0.00D+00
 Coeff-Com: -0.297D-03 0.577D-03 0.121D-02 0.198D-02 0.409D-02-0.782D-02
 Coeff-Com: -0.463D-01-0.131D+00 0.231D-01 0.410D+00 0.745D+00
 Coeff:     -0.297D-03 0.577D-03 0.121D-02 0.198D-02 0.409D-02-0.782D-02
 Coeff:     -0.463D-01-0.131D+00 0.231D-01 0.410D+00 0.745D+00
 Gap=     0.122 Goal=   None    Shift=    0.000
 RMSDP=6.01D-07 MaxDP=4.67D-05 DE=-6.52D-07 OVMax= 3.19D-04

 Cycle  12  Pass 1  IDiag  1:
 RMSU=  2.46D-07    CP:  9.64D-01  1.50D+00  6.90D-01  6.32D-01  9.07D-01
                    CP:  9.45D-01  1.19D+00  1.24D+00  1.50D+00  1.67D+00
                    CP:  1.19D+00
 E= -4069.81251421510     Delta-E=       -0.000000203650 Rises=F Damp=F
 DIIS: error= 2.29D-06 at cycle  12 NSaved=  12.
 NSaved=12 IEnMin=12 EnMin= -4069.81251421510     IErMin=12 ErrMin= 2.29D-06
 ErrMax= 2.29D-06  0.00D+00 EMaxC= 1.00D-01 BMatC= 1.25D-08 BMatP= 4.62D-08
 IDIUse=1 WtCom= 1.00D+00 WtEn= 0.00D+00
 Coeff-Com:  0.221D-05-0.191D-04 0.151D-03 0.464D-03 0.293D-02 0.388D-02
 Coeff-Com:  0.205D-02-0.360D-01-0.557D-01-0.980D-01 0.274D+00 0.906D+00
 Coeff:      0.221D-05-0.191D-04 0.151D-03 0.464D-03 0.293D-02 0.388D-02
 Coeff:      0.205D-02-0.360D-01-0.557D-01-0.980D-01 0.274D+00 0.906D+00
 Gap=     0.122 Goal=   None    Shift=    0.000
 RMSDP=3.92D-07 MaxDP=2.77D-05 DE=-2.04D-07 OVMax= 2.39D-04

 Cycle  13  Pass 1  IDiag  1:
 RMSU=  1.55D-07    CP:  9.64D-01  1.50D+00  6.90D-01  6.32D-01  9.08D-01
                    CP:  9.46D-01  1.19D+00  1.27D+00  1.60D+00  1.89D+00
                    CP:  1.59D+00  1.26D+00
 E= -4069.81251428867     Delta-E=       -0.000000073564 Rises=F Damp=F
 DIIS: error= 1.41D-06 at cycle  13 NSaved=  13.
 NSaved=13 IEnMin=13 EnMin= -4069.81251428867     IErMin=13 ErrMin= 1.41D-06
 ErrMax= 1.41D-06  0.00D+00 EMaxC= 1.00D-01 BMatC= 6.63D-09 BMatP= 1.25D-08
 IDIUse=1 WtCom= 1.00D+00 WtEn= 0.00D+00
 Coeff-Com:  0.112D-03-0.230D-03-0.345D-03-0.422D-03 0.489D-03 0.513D-02
 Coeff-Com:  0.202D-01 0.208D-01-0.435D-01-0.239D+00-0.117D+00 0.615D+00
 Coeff-Com:  0.738D+00
 Coeff:      0.112D-03-0.230D-03-0.345D-03-0.422D-03 0.489D-03 0.513D-02
 Coeff:      0.202D-01 0.208D-01-0.435D-01-0.239D+00-0.117D+00 0.615D+00
 Coeff:      0.738D+00
 Gap=     0.122 Goal=   None    Shift=    0.000
 RMSDP=2.84D-07 MaxDP=1.75D-05 DE=-7.36D-08 OVMax= 1.57D-04

 Cycle  14  Pass 1  IDiag  1:
 RMSU=  7.56D-08    CP:  9.64D-01  1.50D+00  6.90D-01  6.33D-01  9.08D-01
                    CP:  9.46D-01  1.20D+00  1.28D+00  1.66D+00  2.06D+00
                    CP:  1.83D+00  1.75D+00  1.01D+00
 E= -4069.81251431624     Delta-E=       -0.000000027572 Rises=F Damp=F
 DIIS: error= 8.33D-07 at cycle  14 NSaved=  14.
 NSaved=14 IEnMin=14 EnMin= -4069.81251431624     IErMin=14 ErrMin= 8.33D-07
 ErrMax= 8.33D-07  0.00D+00 EMaxC= 1.00D-01 BMatC= 1.10D-09 BMatP= 6.63D-09
 IDIUse=1 WtCom= 1.00D+00 WtEn= 0.00D+00
 Coeff-Com:  0.661D-04-0.131D-03-0.242D-03-0.376D-03-0.500D-03 0.163D-02
 Coeff-Com:  0.118D-01 0.198D-01-0.517D-02-0.105D+00-0.135D+00 0.120D+00
 Coeff-Com:  0.401D+00 0.692D+00
 Coeff:      0.661D-04-0.131D-03-0.242D-03-0.376D-03-0.500D-03 0.163D-02
 Coeff:      0.118D-01 0.198D-01-0.517D-02-0.105D+00-0.135D+00 0.120D+00
 Coeff:      0.401D+00 0.692D+00
 Gap=     0.122 Goal=   None    Shift=    0.000
 RMSDP=9.71D-08 MaxDP=6.03D-06 DE=-2.76D-08 OVMax= 6.74D-05

 Cycle  15  Pass 1  IDiag  1:
 RMSU=  3.73D-08    CP:  9.64D-01  1.50D+00  6.90D-01  6.33D-01  9.08D-01
                    CP:  9.46D-01  1.20D+00  1.29D+00  1.68D+00  2.10D+00
                    CP:  1.94D+00  1.89D+00  1.26D+00  9.60D-01
 E= -4069.81251431984     Delta-E=       -0.000000003605 Rises=F Damp=F
 DIIS: error= 4.61D-07 at cycle  15 NSaved=  15.
 NSaved=15 IEnMin=15 EnMin= -4069.81251431984     IErMin=15 ErrMin= 4.61D-07
 ErrMax= 4.61D-07  0.00D+00 EMaxC= 1.00D-01 BMatC= 2.54D-10 BMatP= 1.10D-09
 IDIUse=1 WtCom= 1.00D+00 WtEn= 0.00D+00
 Coeff-Com:  0.106D-04-0.193D-04-0.507D-04-0.108D-03-0.360D-03-0.295D-03
 Coeff-Com:  0.206D-02 0.481D-02 0.728D-02-0.470D-02-0.441D-01-0.638D-01
 Coeff-Com:  0.458D-01 0.357D+00 0.696D+00
 Coeff:      0.106D-04-0.193D-04-0.507D-04-0.108D-03-0.360D-03-0.295D-03
 Coeff:      0.206D-02 0.481D-02 0.728D-02-0.470D-02-0.441D-01-0.638D-01
 Coeff:      0.458D-01 0.357D+00 0.696D+00
 Gap=     0.122 Goal=   None    Shift=    0.000
 RMSDP=3.88D-08 MaxDP=2.40D-06 DE=-3.61D-09 OVMax= 2.23D-05

 Cycle  16  Pass 1  IDiag  1:
 RMSU=  1.81D-08    CP:  9.64D-01  1.50D+00  6.90D-01  6.33D-01  9.08D-01
                    CP:  9.46D-01  1.20D+00  1.29D+00  1.68D+00  2.12D+00
                    CP:  1.97D+00  1.96D+00  1.33D+00  1.18D+00  1.10D+00
 E= -4069.81251432087     Delta-E=       -0.000000001022 Rises=F Damp=F
 DIIS: error= 2.13D-07 at cycle  16 NSaved=  16.
 NSaved=16 IEnMin=16 EnMin= -4069.81251432087     IErMin=16 ErrMin= 2.13D-07
 ErrMax= 2.13D-07  0.00D+00 EMaxC= 1.00D-01 BMatC= 6.42D-11 BMatP= 2.54D-10
 IDIUse=1 WtCom= 1.00D+00 WtEn= 0.00D+00
 Coeff-Com: -0.126D-04 0.257D-04 0.414D-04 0.459D-04-0.494D-04-0.604D-03
 Coeff-Com: -0.207D-02-0.359D-02 0.582D-02 0.248D-01 0.142D-01-0.655D-01
 Coeff-Com: -0.853D-01 0.499D-02 0.347D+00 0.760D+00
 Coeff:     -0.126D-04 0.257D-04 0.414D-04 0.459D-04-0.494D-04-0.604D-03
 Coeff:     -0.207D-02-0.359D-02 0.582D-02 0.248D-01 0.142D-01-0.655D-01
 Coeff:     -0.853D-01 0.499D-02 0.347D+00 0.760D+00
 Gap=     0.122 Goal=   None    Shift=    0.000
 RMSDP=2.28D-08 MaxDP=1.90D-06 DE=-1.02D-09 OVMax= 1.77D-05

 Cycle  17  Pass 1  IDiag  1:
 RMSU=  1.12D-08    CP:  9.64D-01  1.50D+00  6.90D-01  6.33D-01  9.08D-01
                    CP:  9.46D-01  1.20D+00  1.29D+00  1.69D+00  2.12D+00
                    CP:  1.98D+00  1.99D+00  1.38D+00  1.27D+00  1.39D+00
                    CP:  1.20D+00
 E= -4069.81251432104     Delta-E=       -0.000000000175 Rises=F Damp=F
 DIIS: error= 1.04D-07 at cycle  17 NSaved=  17.
 NSaved=17 IEnMin=17 EnMin= -4069.81251432104     IErMin=17 ErrMin= 1.04D-07
 ErrMax= 1.04D-07  0.00D+00 EMaxC= 1.00D-01 BMatC= 2.06D-11 BMatP= 6.42D-11
 IDIUse=1 WtCom= 1.00D+00 WtEn= 0.00D+00
 Coeff-Com: -0.886D-05 0.174D-04 0.339D-04 0.491D-04 0.732D-04-0.213D-03
 Coeff-Com: -0.147D-02-0.324D-02 0.162D-02 0.131D-01 0.191D-01-0.156D-01
 Coeff-Com: -0.536D-01-0.912D-01-0.337D-01 0.389D+00 0.776D+00
 Coeff:     -0.886D-05 0.174D-04 0.339D-04 0.491D-04 0.732D-04-0.213D-03
 Coeff:     -0.147D-02-0.324D-02 0.162D-02 0.131D-01 0.191D-01-0.156D-01
 Coeff:     -0.536D-01-0.912D-01-0.337D-01 0.389D+00 0.776D+00
 Gap=     0.122 Goal=   None    Shift=    0.000
 RMSDP=1.35D-08 MaxDP=9.61D-07 DE=-1.75D-10 OVMax= 7.61D-06

 Cycle  18  Pass 1  IDiag  1:
 RMSU=  5.24D-09    CP:  9.64D-01  1.50D+00  6.90D-01  6.33D-01  9.08D-01
                    CP:  9.46D-01  1.20D+00  1.29D+00  1.69D+00  2.12D+00
                    CP:  1.99D+00  2.00D+00  1.40D+00  1.34D+00  1.56D+00
                    CP:  1.59D+00  1.32D+00
 E= -4069.81251432124     Delta-E=       -0.000000000200 Rises=F Damp=F
 DIIS: error= 6.78D-08 at cycle  18 NSaved=  18.
 NSaved=18 IEnMin=18 EnMin= -4069.81251432124     IErMin=18 ErrMin= 6.78D-08
 ErrMax= 6.78D-08  0.00D+00 EMaxC= 1.00D-01 BMatC= 5.52D-12 BMatP= 2.06D-11
 IDIUse=1 WtCom= 1.00D+00 WtEn= 0.00D+00
 Coeff-Com:  0.161D-06-0.654D-06 0.230D-05 0.750D-05 0.641D-04 0.127D-03
 Coeff-Com:  0.892D-04-0.455D-03-0.103D-02-0.332D-02 0.433D-02 0.169D-01
 Coeff-Com:  0.633D-02-0.420D-01-0.145D+00-0.669D-01 0.326D+00 0.905D+00
 Coeff:      0.161D-06-0.654D-06 0.230D-05 0.750D-05 0.641D-04 0.127D-03
 Coeff:      0.892D-04-0.455D-03-0.103D-02-0.332D-02 0.433D-02 0.169D-01
 Coeff:      0.633D-02-0.420D-01-0.145D+00-0.669D-01 0.326D+00 0.905D+00
 Gap=     0.122 Goal=   None    Shift=    0.000
 RMSDP=1.00D-08 MaxDP=8.54D-07 DE=-2.00D-10 OVMax= 7.25D-06

 Cycle  19  Pass 1  IDiag  1:
 RMSU=  3.25D-09    CP:  9.64D-01  1.50D+00  6.90D-01  6.33D-01  9.08D-01
                    CP:  9.46D-01  1.20D+00  1.29D+00  1.69D+00  2.12D+00
                    CP:  1.99D+00  2.00D+00  1.41D+00  1.37D+00  1.68D+00
                    CP:  1.86D+00  1.83D+00  1.20D+00
 E= -4069.81251432110     Delta-E=        0.000000000142 Rises=F Damp=F
 DIIS: error= 3.56D-08 at cycle  19 NSaved=  19.
 NSaved=19 IEnMin=18 EnMin= -4069.81251432124     IErMin=19 ErrMin= 3.56D-08
 ErrMax= 3.56D-08  0.00D+00 EMaxC= 1.00D-01 BMatC= 3.19D-12 BMatP= 5.52D-12
 IDIUse=1 WtCom= 1.00D+00 WtEn= 0.00D+00
 Coeff-Com:  0.340D-05-0.689D-05-0.112D-04-0.135D-04 0.188D-04 0.164D-03
 Coeff-Com:  0.625D-03 0.904D-03-0.122D-02-0.753D-02-0.440D-02 0.174D-01
 Coeff-Com:  0.251D-01 0.653D-02-0.930D-01-0.206D+00-0.121D+00 0.626D+00
 Coeff-Com:  0.757D+00
 Coeff:      0.340D-05-0.689D-05-0.112D-04-0.135D-04 0.188D-04 0.164D-03
 Coeff:      0.625D-03 0.904D-03-0.122D-02-0.753D-02-0.440D-02 0.174D-01
 Coeff:      0.251D-01 0.653D-02-0.930D-01-0.206D+00-0.121D+00 0.626D+00
 Coeff:      0.757D+00
 Gap=     0.122 Goal=   None    Shift=    0.000
 RMSDP=7.37D-09 MaxDP=4.92D-07 DE= 1.42D-10 OVMax= 4.26D-06

 SCF Done:  E(RCAM-B3LYP) =  -4069.81251432     A.U. after   19 cycles
            NFock= 19  Conv=0.74D-08     -V/T= 2.0102
 KE= 4.028799499604D+03 PE=-4.035560647096D+04 EE= 1.682021038887D+04
 Leave Link  502 at Thu Sep  9 17:42:47 2021, MaxMem= 23488102400 cpu:           14929.6 elap:             648.5
 (Enter /sw/apps/gaussian-16.0/g16/l801.exe)
 DoSCS=F DFT=T ScalE2(SS,OS)=  1.000000  1.000000
 ExpMin= 3.36D-02 ExpMax= 4.95D+03 ExpMxC= 7.45D+02 IAcc=3 IRadAn=         5 AccDes= 0.00D+00
 HarFok:  IExCor=  205 AccDes= 0.00D+00 IRadAn=         5 IDoV=-2 UseB2=F ITyADJ=14
 ICtDFT= 12500011 ScaDFX=  1.000000  1.000000  1.000000  1.000000
 GSVD:  LWork=       -9588 too small for GESVD, short by       45590 words or       45590 for optimal perf.
 Largest valence mixing into a core orbital is  2.02D-04
 Largest core mixing into a valence orbital is  5.23D-05
 Range of M.O.s used for correlation:    95  1572
 NBasis=  1572 NAE=   312 NBE=   312 NFC=    94 NFV=     0
 NROrb=   1478 NOA=   218 NOB=   218 NVA=  1260 NVB=  1260
 Leave Link  801 at Thu Sep  9 17:42:47 2021, MaxMem= 23488102400 cpu:               8.8 elap:               0.4
 (Enter /sw/apps/gaussian-16.0/g16/l914.exe)
 RHF ground state
 Two-electron integrals replicated using symmetry.
 MDV= 23488102400 DFT=T DoStab=F Mixed=T DoRPA=T DoScal=F NonHer=T
 Making orbital integer symmetry assigments:
 Orbital symmetries:
       Occupied  (A) (A) (A) (A) (A) (A) (A) (A) (A) (A) (A) (A)
                 (A) (A) (A) (A) (A) (A) (A) (A) (A) (A) (A) (A)
                 (A) (A) (A) (A) (A) (A) (A) (A) (A) (A) (A) (A)
                 (A) (A) (A) (A) (A) (A) (A) (A) (A) (A) (A) (A)
                 (A) (A) (A) (A) (A) (A) (A) (A) (A) (A) (A) (A)
                 (A) (A) (A) (A) (A) (A) (A) (A) (A) (A) (A) (A)
                 (A) (A) (A) (A) (A) (A) (A) (A) (A) (A) (A) (A)
                 (A) (A) (A) (A) (A) (A) (A) (A) (A) (A) (A) (A)
                 (A) (A) (A) (A) (A) (A) (A) (A) (A) (A) (A) (A)
                 (A) (A) (A) (A) (A) (A) (A) (A) (A) (A) (A) (A)
                 (A) (A) (A) (A) (A) (A) (A) (A) (A) (A) (A) (A)
                 (A) (A) (A) (A) (A) (A) (A) (A) (A) (A) (A) (A)
                 (A) (A) (A) (A) (A) (A) (A) (A) (A) (A) (A) (A)
                 (A) (A) (A) (A) (A) (A) (A) (A) (A) (A) (A) (A)
                 (A) (A) (A) (A) (A) (A) (A) (A) (A) (A) (A) (A)
                 (A) (A) (A) (A) (A) (A) (A) (A) (A) (A) (A) (A)
                 (A) (A) (A) (A) (A) (A) (A) (A) (A) (A) (A) (A)
                 (A) (A) (A) (A) (A) (A) (A) (A) (A) (A) (A) (A)
                 (A) (A) (A) (A) (A) (A) (A) (A) (A) (A) (A) (A)
                 (A) (A) (A) (A) (A) (A) (A) (A) (A) (A) (A) (A)
                 (A) (A) (A) (A) (A) (A) (A) (A) (A) (A) (A) (A)
                 (A) (A) (A) (A) (A) (A) (A) (A) (A) (A) (A) (A)
                 (A) (A) (A) (A) (A) (A) (A) (A) (A) (A) (A) (A)
                 (A) (A) (A) (A) (A) (A) (A) (A) (A) (A) (A) (A)
                 (A) (A) (A) (A) (A) (A) (A) (A) (A) (A) (A) (A)
                 (A) (A) (A) (A) (A) (A) (A) (A) (A) (A) (A) (A)
       Virtual   (A) (A) (A) (A) (A) (A) (A) (A) (A) (A) (A) (A)
                 (A) (A) (A) (A) (A) (A) (A) (A) (A) (A) (A) (A)
                 (A) (A) (A) (A) (A) (A) (A) (A) (A) (A) (A) (A)
                 (A) (A) (A) (A) (A) (A) (A) (A) (A) (A) (A) (A)
                 (A) (A) (A) (A) (A) (A) (A) (A) (A) (A) (A) (A)
                 (A) (A) (A) (A) (A) (A) (A) (A) (A) (A) (A) (A)
                 (A) (A) (A) (A) (A) (A) (A) (A) (A) (A) (A) (A)
                 (A) (A) (A) (A) (A) (A) (A) (A) (A) (A) (A) (A)
                 (A) (A) (A) (A) (A) (A) (A) (A) (A) (A) (A) (A)
                 (A) (A) (A) (A) (A) (A) (A) (A) (A) (A) (A) (A)
                 (A) (A) (A) (A) (A) (A) (A) (A) (A) (A) (A) (A)
                 (A) (A) (A) (A) (A) (A) (A) (A) (A) (A) (A) (A)
                 (A) (A) (A) (A) (A) (A) (A) (A) (A) (A) (A) (A)
                 (A) (A) (A) (A) (A) (A) (A) (A) (A) (A) (A) (A)
                 (A) (A) (A) (A) (A) (A) (A) (A) (A) (A) (A) (A)
                 (A) (A) (A) (A) (A) (A) (A) (A) (A) (A) (A) (A)
                 (A) (A) (A) (A) (A) (A) (A) (A) (A) (A) (A) (A)
                 (A) (A) (A) (A) (A) (A) (A) (A) (A) (A) (A) (A)
                 (A) (A) (A) (A) (A) (A) (A) (A) (A) (A) (A) (A)
                 (A) (A) (A) (A) (A) (A) (A) (A) (A) (A) (A) (A)
                 (A) (A) (A) (A) (A) (A) (A) (A) (A) (A) (A) (A)
                 (A) (A) (A) (A) (A) (A) (A) (A) (A) (A) (A) (A)
                 (A) (A) (A) (A) (A) (A) (A) (A) (A) (A) (A) (A)
                 (A) (A) (A) (A) (A) (A) (A) (A) (A) (A) (A) (A)
                 (A) (A) (A) (A) (A) (A) (A) (A) (A) (A) (A) (A)
                 (A) (A) (A) (A) (A) (A) (A) (A) (A) (A) (A) (A)
                 (A) (A) (A) (A) (A) (A) (A) (A) (A) (A) (A) (A)
                 (A) (A) (A) (A) (A) (A) (A) (A) (A) (A) (A) (A)
                 (A) (A) (A) (A) (A) (A) (A) (A) (A) (A) (A) (A)
                 (A) (A) (A) (A) (A) (A) (A) (A) (A) (A) (A) (A)
                 (A) (A) (A) (A) (A) (A) (A) (A) (A) (A) (A) (A)
                 (A) (A) (A) (A) (A) (A) (A) (A) (A) (A) (A) (A)
                 (A) (A) (A) (A) (A) (A) (A) (A) (A) (A) (A) (A)
                 (A) (A) (A) (A) (A) (A) (A) (A) (A) (A) (A) (A)
                 (A) (A) (A) (A) (A) (A) (A) (A) (A) (A) (A) (A)
                 (A) (A) (A) (A) (A) (A) (A) (A) (A) (A) (A) (A)
                 (A) (A) (A) (A) (A) (A) (A) (A) (A) (A) (A) (A)
                 (A) (A) (A) (A) (A) (A) (A) (A) (A) (A) (A) (A)
                 (A) (A) (A) (A) (A) (A) (A) (A) (A) (A) (A) (A)
                 (A) (A) (A) (A) (A) (A) (A) (A) (A) (A) (A) (A)
                 (A) (A) (A) (A) (A) (A) (A) (A) (A) (A) (A) (A)
                 (A) (A) (A) (A) (A) (A) (A) (A) (A) (A) (A) (A)
                 (A) (A) (A) (A) (A) (A) (A) (A) (A) (A) (A) (A)
                 (A) (A) (A) (A) (A) (A) (A) (A) (A) (A) (A) (A)
                 (A) (A) (A) (A) (A) (A) (A) (A) (A) (A) (A) (A)
                 (A) (A) (A) (A) (A) (A) (A) (A) (A) (A) (A) (A)
                 (A) (A) (A) (A) (A) (A) (A) (A) (A) (A) (A) (A)
                 (A) (A) (A) (A) (A) (A) (A) (A) (A) (A) (A) (A)
                 (A) (A) (A) (A) (A) (A) (A) (A) (A) (A) (A) (A)
                 (A) (A) (A) (A) (A) (A) (A) (A) (A) (A) (A) (A)
                 (A) (A) (A) (A) (A) (A) (A) (A) (A) (A) (A) (A)
                 (A) (A) (A) (A) (A) (A) (A) (A) (A) (A) (A) (A)
                 (A) (A) (A) (A) (A) (A) (A) (A) (A) (A) (A) (A)
                 (A) (A) (A) (A) (A) (A) (A) (A) (A) (A) (A) (A)
                 (A) (A) (A) (A) (A) (A) (A) (A) (A) (A) (A) (A)
                 (A) (A) (A) (A) (A) (A) (A) (A) (A) (A) (A) (A)
                 (A) (A) (A) (A) (A) (A) (A) (A) (A) (A) (A) (A)
                 (A) (A) (A) (A) (A) (A) (A) (A) (A) (A) (A) (A)
                 (A) (A) (A) (A) (A) (A) (A) (A) (A) (A) (A) (A)
                 (A) (A) (A) (A) (A) (A) (A) (A) (A) (A) (A) (A)
                 (A) (A) (A) (A) (A) (A) (A) (A) (A) (A) (A) (A)
                 (A) (A) (A) (A) (A) (A) (A) (A) (A) (A) (A) (A)
                 (A) (A) (A) (A) (A) (A) (A) (A) (A) (A) (A) (A)
                 (A) (A) (A) (A) (A) (A) (A) (A) (A) (A) (A) (A)
                 (A) (A) (A) (A) (A) (A) (A) (A) (A) (A) (A) (A)
                 (A) (A) (A) (A) (A) (A) (A) (A) (A) (A) (A) (A)
                 (A) (A) (A) (A) (A) (A) (A) (A) (A) (A) (A) (A)
                 (A) (A) (A) (A) (A) (A) (A) (A) (A) (A) (A) (A)
                 (A) (A) (A) (A) (A) (A) (A) (A) (A) (A) (A) (A)
                 (A) (A) (A) (A) (A) (A) (A) (A) (A) (A) (A) (A)
                 (A) (A) (A) (A) (A) (A) (A) (A) (A) (A) (A) (A)
                 (A) (A) (A) (A) (A) (A) (A) (A) (A) (A) (A) (A)
                 (A) (A) (A) (A) (A) (A) (A) (A) (A) (A) (A) (A)
                 (A) (A) (A) (A) (A) (A) (A) (A) (A) (A) (A) (A)
                 (A) (A) (A) (A) (A) (A) (A) (A) (A) (A) (A) (A)
                 (A) (A) (A) (A) (A) (A) (A) (A) (A) (A) (A) (A)
                 (A) (A) (A) (A) (A) (A) (A) (A) (A) (A) (A) (A)
                 (A) (A) (A) (A) (A) (A) (A) (A) (A) (A) (A) (A)
                 (A) (A) (A) (A) (A) (A) (A) (A) (A) (A) (A) (A)
                 (A) (A) (A) (A) (A) (A) (A) (A) (A) (A) (A) (A)
                 (A) (A) (A) (A) (A) (A) (A) (A) (A) (A) (A) (A)
                 (A) (A) (A) (A) (A) (A) (A) (A) (A) (A) (A) (A)
                 (A) (A) (A) (A) (A) (A) (A) (A) (A) (A) (A) (A)
                 (A) (A) (A) (A) (A) (A) (A) (A) (A) (A) (A) (A)
                 (A) (A) (A) (A) (A) (A) (A) (A) (A) (A) (A) (A)
                 (A) (A) (A) (A) (A) (A) (A) (A) (A) (A) (A) (A)
                 (A) (A) (A) (A) (A) (A) (A) (A) (A) (A) (A) (A)
                 (A) (A) (A) (A) (A) (A) (A) (A) (A) (A) (A) (A)
                 (A) (A) (A) (A) (A) (A) (A) (A) (A) (A) (A) (A)
                 (A) (A) (A) (A) (A) (A) (A) (A) (A) (A) (A) (A)
                 (A) (A) (A) (A) (A) (A) (A) (A) (A) (A) (A) (A)
                 (A) (A) (A) (A) (A) (A) (A) (A) (A) (A) (A) (A)
                 (A) (A) (A) (A) (A) (A) (A) (A) (A) (A) (A) (A)
                 (A) (A) (A) (A) (A) (A) (A) (A) (A) (A) (A) (A)
                 (A) (A) (A) (A) (A) (A) (A) (A) (A) (A) (A) (A)
                 (A) (A) (A) (A) (A) (A) (A) (A) (A) (A) (A) (A)
                 (A) (A) (A) (A) (A) (A) (A) (A) (A) (A) (A) (A)
                 (A) (A) (A) (A) (A) (A) (A) (A) (A) (A) (A) (A)
                 (A) (A) (A) (A) (A) (A) (A) (A) (A) (A) (A) (A)
                 (A) (A) (A) (A) (A) (A) (A) (A) (A) (A) (A) (A)
                 (A) (A) (A) (A) (A) (A) (A) (A) (A) (A) (A) (A)
                 (A) (A) (A) (A) (A) (A) (A) (A) (A) (A) (A) (A)
                 (A) (A) (A) (A) (A) (A) (A) (A) (A) (A) (A) (A)
                 (A) (A) (A) (A) (A) (A) (A) (A) (A) (A) (A) (A)
                 (A) (A) (A) (A) (A) (A) (A) (A) (A) (A) (A) (A)
    20 initial guesses have been made.
 Convergence on wavefunction:    0.001000000000000
 Davidson Disk Diagonalization:  ConvIn= 1.00D-03 SkipCon=T Conv= 1.00D-03.
 Max sub-space:  2000 roots to seek:    20 dimension of matrix:       549360
 Iteration     1 Dimension    20 NMult     0 NNew     20
 CISAX will form    20 AO SS matrices at one time.
 NMat=    20 NSing=    20 JSym2X= 0.
 FoFJK:  IHMeth= 1 ICntrl=       0 DoSepK=T KAlg= 0 I1Cent=           0 FoldK=F
 IRaf=         1 NMat=      40 IRICut=       1 DoRegI=T DoRafI=F ISym2E= 0 IDoP0=3 IntGTp=3.
 FoFCou: FMM=T IPFlag=           0 FMFlag=      100000 FMFlg1=        2001
         NFxFlg=           0 DoJE=F BraDBF=F KetDBF=F FulRan=T
         wScrn=  0.000000 ICntrl=       500 IOpCl=  0 I1Cent=           0 NGrid=           0
         NMat0=   20 NMatS0=     20 NMatT0=    0 NMatD0=   20 NMtDS0=    0 NMtDT0=    0
 Symmetry not used in FoFCou.
 FMM levels:  10  Number of levels for PrismC:   9
 New state      2 was old state      4
 New state      3 was old state      7
 New state      4 was old state      6
 New state      5 was old state     10
 Excitation Energies [eV] at current iteration:
 Root      1 :     2.435105382748759
 Root      2 :     2.526206310013980
 Root      3 :     2.605869711788232
 Root      4 :     2.615211278809563
 Root      5 :     2.633470692369214
 Root      6 :     2.749798089835961
 Root      7 :     3.234015240622402
 Root      8 :     3.313616941221053
 Root      9 :     3.638601848748652
 Root     10 :     3.676943079614428
 Root     11 :     3.728063325759118
 Root     12 :     3.752042180179334
 Root     13 :     4.259976459418897
 Root     14 :     4.353568336675576
 Root     15 :     4.370292376362037
 Root     16 :     4.425160325791515
 Root     17 :     4.645677764176765
 Root     18 :     4.680388077772624
 Root     19 :     4.698997845249354
 Root     20 :     4.796110364819130
 Iteration     2 Dimension    30 NMult    20 NNew     10
 CISAX will form    10 AO SS matrices at one time.
 NMat=    10 NSing=    10 JSym2X= 0.
 New state      1 was old state      3
 Root      1 not converged, maximum delta is    0.385730723618504
 New state      2 was old state      4
 Root      2 not converged, maximum delta is    0.147961783160767
 New state      3 was old state      5
 Root      3 not converged, maximum delta is    0.240323834445041
 New state      4 was old state      1
 Root      4 not converged, maximum delta is    0.006712682297656
 New state      5 was old state      2
 Root      5 not converged, maximum delta is    0.004108962700710
 Excitation Energies [eV] at current iteration:
 Root      1 :     1.772166552379711   Change is   -0.833703159408520
 Root      2 :     2.229979536148993   Change is   -0.385231742660570
 Root      3 :     2.243985685330759   Change is   -0.389485007038455
 Root      4 :     2.434228024182352   Change is   -0.000877358566406
 Root      5 :     2.525265539938867   Change is   -0.000940770075112
 Iteration     3 Dimension    40 NMult    30 NNew     10
 CISAX will form    10 AO SS matrices at one time.
 NMat=    10 NSing=    10 JSym2X= 0.
 Root      1 not converged, maximum delta is    0.053672605567672
 Root      2 not converged, maximum delta is    0.066451067653427
 Root      3 not converged, maximum delta is    0.081066332858832
 Root      4 has converged.
 Root      5 not converged, maximum delta is    0.026382514527209
 Excitation Energies [eV] at current iteration:
 Root      1 :     1.667745237213435   Change is   -0.104421315166276
 Root      2 :     2.182834592028377   Change is   -0.047144944120616
 Root      3 :     2.201694865324336   Change is   -0.042290820006422
 Root      4 :     2.434218419469979   Change is   -0.000009604712373
 Root      5 :     2.525212328202785   Change is   -0.000053211736083
 Iteration     4 Dimension    48 NMult    40 NNew      8
 CISAX will form     8 AO SS matrices at one time.
 NMat=     8 NSing=     8 JSym2X= 0.
 Root      1 not converged, maximum delta is    0.011014556565853
 Root      2 not converged, maximum delta is    0.446015442749203
 Root      3 not converged, maximum delta is    0.714048406491420
 No map to state      4
 New state      5 was old state      4
 Root      5 has converged.
 Excitation Energies [eV] at current iteration:
 Root      1 :     1.651104441972861   Change is   -0.016640795240575
 Root      2 :     1.784111506508688   Change is   -0.398723085519689
 Root      3 :     2.184335004421125   Change is   -0.017359860903211
 Root      4 :     2.197928926597504
 Root      5 :     2.434218948253895   Change is    0.000000528783916
 Iteration     5 Dimension    56 NMult    48 NNew      8
 CISAX will form     8 AO SS matrices at one time.
 NMat=     8 NSing=     8 JSym2X= 0.
 Root      1 not converged, maximum delta is    0.002896273376286
 Root      2 not converged, maximum delta is    0.036060160679300
 Root      3 not converged, maximum delta is    0.017447109386816
 Root      4 not converged, maximum delta is    0.017282110241359
 Root      5 has converged.
 Excitation Energies [eV] at current iteration:
 Root      1 :     1.649395041784147   Change is   -0.001709400188714
 Root      2 :     1.715102485222238   Change is   -0.069009021286450
 Root      3 :     2.182916828645209   Change is   -0.001418175775916
 Root      4 :     2.196780413741196   Change is   -0.001148512856308
 Root      5 :     2.434218936962827   Change is   -0.000000011291068
 Iteration     6 Dimension    64 NMult    56 NNew      8
 CISAX will form     8 AO SS matrices at one time.
 NMat=     8 NSing=     8 JSym2X= 0.
 Root      1 not converged, maximum delta is    0.001262459759872
 Root      2 not converged, maximum delta is    0.009738741374554
 Root      3 not converged, maximum delta is    0.001439858680303
 Root      4 not converged, maximum delta is    0.001587110577266
 Root      5 has converged.
 Excitation Energies [eV] at current iteration:
 Root      1 :     1.649151032628607   Change is   -0.000244009155540
 Root      2 :     1.704646250876835   Change is   -0.010456234345403
 Root      3 :     2.182741887761304   Change is   -0.000174940883906
 Root      4 :     2.196618995614437   Change is   -0.000161418126759
 Root      5 :     2.434218934800093   Change is   -0.000000002162735
 Iteration     7 Dimension    72 NMult    64 NNew      8
 CISAX will form     8 AO SS matrices at one time.
 NMat=     8 NSing=     8 JSym2X= 0.
 Root      1 has converged.
 Root      2 not converged, maximum delta is    0.001224456594636
 Root      3 has converged.
 Root      4 has converged.
 Root      5 has converged.
 Excitation Energies [eV] at current iteration:
 Root      1 :     1.649126466109530   Change is   -0.000024566519077
[...]
 Alpha virt. eigenvalues --    1.83701   1.83877   1.84190   1.84280   1.84374
 Alpha virt. eigenvalues --    1.84582   1.84864   1.84896   1.85154   1.85192
 Alpha virt. eigenvalues --    1.85430   1.85486   1.85591   1.85625   1.85890
 Alpha virt. eigenvalues --    1.85993   1.86197   1.86476   1.86679   1.86705
 Alpha virt. eigenvalues --    1.86887   1.86917   1.87066   1.87170   1.87319
 Alpha virt. eigenvalues --    1.87577   1.87773   1.87818   1.87977   1.88102
 Alpha virt. eigenvalues --    1.88186   1.88263   1.88368   1.88666   1.88870
 Alpha virt. eigenvalues --    1.89014   1.89087   1.89151   1.89532   1.89774
 Alpha virt. eigenvalues --    1.89973   1.89989   1.90161   1.90281   1.90479
 Alpha virt. eigenvalues --    1.90948   1.91042   1.91473   1.91643   1.91674
 Alpha virt. eigenvalues --    1.91825   1.92254   1.92467   1.92740   1.92933
 Alpha virt. eigenvalues --    1.93232   1.93313   1.93593   1.93649   1.94379
 Alpha virt. eigenvalues --    1.94622   1.94903   1.95017   1.95631   1.95797
 Alpha virt. eigenvalues --    1.95915   1.96067   1.96133   1.96235   1.96299
 Alpha virt. eigenvalues --    1.96457   1.96581   1.96892   1.97043   1.97244
 Alpha virt. eigenvalues --    1.97585   1.97746   1.97853   1.98130   1.98230
 Alpha virt. eigenvalues --    1.98368   1.98489   1.98906   1.99159   1.99440
 Alpha virt. eigenvalues --    2.00001   2.00142   2.00797   2.00973   2.01153
 Alpha virt. eigenvalues --    2.01305   2.01540   2.01658   2.01793   2.01879
 Alpha virt. eigenvalues --    2.02031   2.02175   2.02781   2.03102   2.03223
 Alpha virt. eigenvalues --    2.03435   2.03550   2.03608   2.03721   2.03792
 Alpha virt. eigenvalues --    2.04091   2.04365   2.05076   2.05305   2.05733
 Alpha virt. eigenvalues --    2.05861   2.06366   2.06408   2.07040   2.07182
 Alpha virt. eigenvalues --    2.07412   2.07487   2.08678   2.08941   2.09085
 Alpha virt. eigenvalues --    2.09321   2.09688   2.09922   2.11020   2.11217
 Alpha virt. eigenvalues --    2.11483   2.11527   2.11602   2.11861   2.11964
 Alpha virt. eigenvalues --    2.12083   2.12542   2.12781   2.12897   2.12946
 Alpha virt. eigenvalues --    2.13142   2.13174   2.13706   2.14097   2.14323
 Alpha virt. eigenvalues --    2.14428   2.15506   2.15666   2.16133   2.16223
 Alpha virt. eigenvalues --    2.16676   2.16843   2.17060   2.17225   2.17724
 Alpha virt. eigenvalues --    2.17733   2.17985   2.18009   2.18082   2.18384
 Alpha virt. eigenvalues --    2.18616   2.18690   2.19171   2.19278   2.19883
 Alpha virt. eigenvalues --    2.19962   2.20285   2.20385   2.20498   2.20524
 Alpha virt. eigenvalues --    2.21238   2.21552   2.21824   2.21913   2.21997
 Alpha virt. eigenvalues --    2.22035   2.22796   2.23020   2.23421   2.23614
 Alpha virt. eigenvalues --    2.24505   2.24738   2.25082   2.25386   2.26501
 Alpha virt. eigenvalues --    2.26606   2.27075   2.27096   2.27263   2.27407
 Alpha virt. eigenvalues --    2.28389   2.28473   2.29526   2.29609   2.29947
 Alpha virt. eigenvalues --    2.30064   2.30635   2.30764   2.30852   2.31276
 Alpha virt. eigenvalues --    2.31371   2.31441   2.32325   2.32459   2.33307
 Alpha virt. eigenvalues --    2.33451   2.33554   2.33779   2.34218   2.34471
 Alpha virt. eigenvalues --    2.35305   2.35629   2.35990   2.36135   2.36416
 Alpha virt. eigenvalues --    2.36513   2.36689   2.36974   2.37714   2.38067
 Alpha virt. eigenvalues --    2.38494   2.38614   2.38854   2.39185   2.39739
 Alpha virt. eigenvalues --    2.39936   2.40364   2.40540   2.40810   2.40899
 Alpha virt. eigenvalues --    2.41289   2.41573   2.41815   2.42010   2.42152
 Alpha virt. eigenvalues --    2.42316   2.42937   2.42958   2.43289   2.43701
 Alpha virt. eigenvalues --    2.44063   2.44470   2.44885   2.45048   2.45064
 Alpha virt. eigenvalues --    2.45218   2.45648   2.45863   2.46372   2.46563
 Alpha virt. eigenvalues --    2.46661   2.46795   2.46847   2.47118   2.47433
 Alpha virt. eigenvalues --    2.47533   2.47962   2.48042   2.49495   2.49650
 Alpha virt. eigenvalues --    2.49986   2.50395   2.50585   2.50933   2.51303
 Alpha virt. eigenvalues --    2.51433   2.51708   2.52223   2.52449   2.52748
 Alpha virt. eigenvalues --    2.53128   2.53229   2.54058   2.54239   2.54387
 Alpha virt. eigenvalues --    2.54506   2.54862   2.55096   2.55734   2.55851
 Alpha virt. eigenvalues --    2.58162   2.58217   2.58952   2.58977   2.60331
 Alpha virt. eigenvalues --    2.60507   2.60935   2.60992   2.61904   2.62054
 Alpha virt. eigenvalues --    2.62497   2.62852   2.63178   2.63263   2.64273
 Alpha virt. eigenvalues --    2.64290   2.64493   2.64528   2.65160   2.65385
 Alpha virt. eigenvalues --    2.65920   2.66113   2.66899   2.67092   2.67127
 Alpha virt. eigenvalues --    2.67240   2.68037   2.68221   2.68883   2.69042
 Alpha virt. eigenvalues --    2.69176   2.69321   2.69655   2.69697   2.70203
 Alpha virt. eigenvalues --    2.70315   2.71094   2.71276   2.71895   2.72327
 Alpha virt. eigenvalues --    2.72476   2.72746   2.72930   2.73064   2.73354
 Alpha virt. eigenvalues --    2.73397   2.73602   2.73740   2.74544   2.74817
 Alpha virt. eigenvalues --    2.75098   2.75280   2.76588   2.76896   2.77093
 Alpha virt. eigenvalues --    2.77533   2.77677   2.77792   2.78383   2.78537
 Alpha virt. eigenvalues --    2.78728   2.79017   2.79188   2.79444   2.80340
 Alpha virt. eigenvalues --    2.80664   2.80684   2.80895   2.81178   2.81406
 Alpha virt. eigenvalues --    2.81998   2.82256   2.82377   2.82650   2.83884
 Alpha virt. eigenvalues --    2.83934   2.84021   2.84143   2.84585   2.84859
 Alpha virt. eigenvalues --    2.84935   2.85195   2.85762   2.86010   2.86654
 Alpha virt. eigenvalues --    2.87128   2.87265   2.87834   2.88324   2.88524
 Alpha virt. eigenvalues --    2.88646   2.88795   2.88921   2.89246   2.90703
 Alpha virt. eigenvalues --    2.90807   2.91115   2.91480   2.93366   2.93478
 Alpha virt. eigenvalues --    2.93826   2.94521   2.94645   2.94889   2.95510
 Alpha virt. eigenvalues --    2.95669   2.95735   2.96395   2.96434   2.96721
 Alpha virt. eigenvalues --    2.96832   2.97408   2.98099   2.98122   2.98354
 Alpha virt. eigenvalues --    2.98574   2.98619   2.98650   2.98789   2.98880
 Alpha virt. eigenvalues --    2.98966   2.99200   2.99868   2.99960   2.99979
 Alpha virt. eigenvalues --    3.00296   3.00431   3.00574   3.00766   3.01036
 Alpha virt. eigenvalues --    3.01942   3.02127   3.02297   3.02365   3.02808
 Alpha virt. eigenvalues --    3.02973   3.03248   3.03405   3.03680   3.03745
 Alpha virt. eigenvalues --    3.04059   3.04369   3.04584   3.04729   3.04759
 Alpha virt. eigenvalues --    3.05074   3.05434   3.05606   3.06208   3.06460
 Alpha virt. eigenvalues --    3.06994   3.07135   3.08014   3.08510   3.09427
 Alpha virt. eigenvalues --    3.09730   3.10002   3.10473   3.10766   3.10801
 Alpha virt. eigenvalues --    3.11527   3.11609   3.11986   3.12248   3.12337
 Alpha virt. eigenvalues --    3.12551   3.13619   3.13707   3.13755   3.13970
 Alpha virt. eigenvalues --    3.14310   3.14392   3.16045   3.16281   3.17538
 Alpha virt. eigenvalues --    3.17568   3.17967   3.18427   3.19100   3.19473
 Alpha virt. eigenvalues --    3.22520   3.22524   3.24271   3.24450   3.24940
 Alpha virt. eigenvalues --    3.25166   3.26698   3.26830   3.27430   3.27941
 Alpha virt. eigenvalues --    3.29124   3.29306   3.31413   3.31843   3.33240
 Alpha virt. eigenvalues --    3.33752   3.40127   3.40803   3.42895   3.43171
 Alpha virt. eigenvalues --    3.48703   3.48955   3.50335   3.50362   3.50891
 Alpha virt. eigenvalues --    3.51813   3.56883   3.57057   3.59394   3.59423
 Alpha virt. eigenvalues --    3.62538   3.63146   3.66197   3.66532   3.67384
 Alpha virt. eigenvalues --    3.67433   3.73485   3.73929   3.76288   3.76598
          Condensed to atoms (all electrons):
 Mulliken charges:
               1
     1  Mg   0.840731
     2  C   -0.002857
     3  C   -0.091387
     4  C   -0.046453
     5  C   -0.064242
     6  N   -0.256824
     7  C   -0.052300
     8  C   -0.014429
     9  C   -0.087583
    10  C    0.047517
    11  C    0.104922
    12  C    0.052660
    13  C   -0.070657
    14  H    0.033079
    15  N   -0.433360
    16  C    0.170518
    17  C   -0.174540
    18  C   -0.003134
    19  C    0.149320
    20  C    0.109930
    21  C    0.012789
    22  O   -0.251268
    23  C    0.061274
    24  N   -0.341197
    25  C    0.041597
    26  C   -0.028039
    27  C   -0.023616
    28  C    0.074402
    29  C    0.076441
    30  C    0.035190
    31  C   -0.005038
    32  N   -0.310132
    33  C    0.079768
    34  C   -0.170497
    35  C    0.007608
    36  C    0.082528
    37  C    0.127566
    38  C    0.045247
    39  O   -0.190461
    40  C   -0.005225
    41  C    0.212677
    42  O   -0.257662
    43  O   -0.304592
    44  C    0.158459
    45  H   -0.017773
    46  H   -0.017666
    47  H   -0.042282
    48  H   -0.000213
    49  H   -0.003329
    50  H    0.024924
    51  H    0.016311
    52  H    0.016150
    53  H    0.016354
    54  H    0.043691
    55  H    0.016807
    56  H    0.018383
    57  H    0.005835
    58  H    0.025567
    59  H    0.045008
    60  H    0.036875
    61  H    0.034444
    62  H    0.036263
    63  H    0.015557
    64  H    0.008884
    65  H    0.022441
    66  H    0.012578
    67  H    0.004364
    68  H    0.005184
    69  H    0.004702
    70  H    0.007812
    71  H    0.019041
    72  H    0.029745
    73  H    0.046355
    74  H    0.008871
    75  H    0.045244
    76  H    0.034590
    77  H    0.042024
    78  H    0.046492
    79  H    0.052082
    80  Mg   0.839470
    81  C   -0.016942
    82  C   -0.086607
    83  C   -0.045495
    84  C   -0.064601
    85  N   -0.254674
    86  C   -0.049560
    87  C   -0.015534
    88  C   -0.090870
    89  C    0.046681
    90  C    0.114434
    91  C    0.062143
    92  C   -0.077140
    93  H    0.032707
    94  N   -0.423614
    95  C    0.164511
    96  C   -0.173481
    97  C   -0.006947
    98  C    0.152682
    99  C    0.099323
   100  C    0.016362
   101  O   -0.253704
   102  C    0.060467
   103  N   -0.350057
   104  C    0.037776
   105  C   -0.019802
   106  C   -0.034613
   107  C    0.088522
   108  C    0.073810
   109  C    0.034614
   110  C   -0.008424
   111  N   -0.323817
   112  C    0.078052
   113  C   -0.163704
   114  C    0.001159
   115  C    0.096031
   116  C    0.131925
   117  C    0.041226
   118  O   -0.190529
   119  C    0.001237
   120  C    0.210727
   121  O   -0.251866
   122  O   -0.305212
   123  C    0.152953
   124  H   -0.019691
   125  H   -0.015772
   126  H   -0.040465
   127  H   -0.001589
   128  H   -0.003800
   129  H    0.022028
   130  H    0.014397
   131  H    0.016050
   132  H    0.017272
   133  H    0.037383
   134  H    0.019943
   135  H    0.020356
   136  H    0.008786
   137  H    0.025623
   138  H    0.042548
   139  H    0.037812
   140  H    0.036198
   141  H    0.036584
   142  H    0.014158
   143  H    0.012044
   144  H    0.024802
   145  H    0.011535
   146  H    0.005460
   147  H    0.005440
   148  H    0.004223
   149  H    0.010051
   150  H    0.019931
   151  H    0.030367
   152  H    0.043911
   153  H    0.009351
   154  H    0.046396
   155  H    0.034693
   156  H    0.042994
   157  H    0.050074
   158  H    0.051242
 Sum of Mulliken charges =  -0.00000
 Mulliken charges with hydrogens summed into heavy atoms:
               1
     1  Mg   0.840731
     2  C   -0.002857
     3  C   -0.109160
     4  C   -0.064120
     5  C   -0.106524
     6  N   -0.256824
     7  C   -0.052300
     8  C   -0.014642
     9  C   -0.090913
    10  C    0.047517
    11  C    0.162308
    12  C    0.112705
    13  C   -0.002388
    15  N   -0.433360
    16  C    0.170518
    17  C   -0.174540
    18  C   -0.003134
    19  C    0.149320
    20  C    0.186340
    21  C    0.012789
    22  O   -0.251268
    23  C    0.168856
    24  N   -0.341197
    25  C    0.041597
    26  C   -0.012482
    27  C   -0.014732
    28  C    0.074402
    29  C    0.115824
    30  C    0.045076
    31  C    0.051560
    32  N   -0.310132
    33  C    0.079768
    34  C   -0.170497
    35  C    0.007608
    36  C    0.082528
    37  C    0.228035
    38  C    0.045247
    39  O   -0.190461
    40  C    0.029365
    41  C    0.212677
    42  O   -0.257662
    43  O   -0.304592
    44  C    0.299057
    80  Mg   0.839470
    81  C   -0.016942
    82  C   -0.106298
    83  C   -0.061267
    84  C   -0.105066
    85  N   -0.254674
    86  C   -0.049560
    87  C   -0.017122
    88  C   -0.094670
    89  C    0.046681
    90  C    0.166909
    91  C    0.116798
    92  C   -0.004133
    94  N   -0.423614
    95  C    0.164511
    96  C   -0.173481
    97  C   -0.006947
    98  C    0.152682
    99  C    0.176280
   100  C    0.016362
   101  O   -0.253704
   102  C    0.171061
   103  N   -0.350057
   104  C    0.037776
   105  C   -0.005644
   106  C   -0.022570
   107  C    0.088522
   108  C    0.115607
   109  C    0.044278
   110  C    0.051925
   111  N   -0.323817
   112  C    0.078052
   113  C   -0.163704
   114  C    0.001159
   115  C    0.096031
   116  C    0.231582
   117  C    0.041226
   118  O   -0.190529
   119  C    0.035930
   120  C    0.210727
   121  O   -0.251866
   122  O   -0.305212
   123  C    0.297263
 Electronic spatial extent (au):  <R**2>=          98279.4922
 Charge=             -0.0000 electrons
 Dipole moment (field-independent basis, Debye):
    X=              0.7793    Y=              3.1986    Z=             -0.7944  Tot=              3.3867
 Quadrupole moment (field-independent basis, Debye-Ang):
   XX=           -480.5995   YY=           -461.9250   ZZ=           -541.2524
   XY=              6.2638   XZ=             30.2725   YZ=             -1.4301
 Traceless Quadrupole moment (field-independent basis, Debye-Ang):
   XX=             13.9928   YY=             32.6673   ZZ=            -46.6601
   XY=              6.2638   XZ=             30.2725   YZ=             -1.4301
 Octapole moment (field-independent basis, Debye-Ang**2):
  XXX=             28.5798  YYY=            229.9227  ZZZ=            -21.9129  XYY=            -15.4562
  XXY=            155.0126  XXZ=            -48.8050  XZZ=             33.5160  YZZ=             76.9615
  YYZ=             18.3426  XYZ=            283.9817
 Hexadecapole moment (field-independent basis, Debye-Ang**3):
 XXXX=         -66688.9206 YYYY=         -32967.3322 ZZZZ=         -32360.9834 XXXY=            382.9259
 XXXZ=            550.1475 YYYX=            -99.7918 YYYZ=            -62.3692 ZZZX=           1814.4946
 ZZZY=             76.0442 XXYY=         -16253.3834 XXZZ=         -16813.1391 YYZZ=         -11373.1975
 XXYZ=             92.0838 YYXZ=           -857.3683 ZZXY=            178.0494
 N-N= 1.543678406817D+04 E-N=-4.035560647432D+04  KE= 4.028799499604D+03
 Leave Link  601 at Thu Sep  9 18:09:42 2021, MaxMem= 23488102400 cpu:              15.0 elap:               0.8
 (Enter /sw/apps/gaussian-16.0/g16/l9999.exe)
 1\1\GINC-BP1-COMPUTE00082\SP\RCAM-B3LYP TD-FC\def2SVP\C68H72Mg2N8O8\OF
 15641\09-Sep-2021\0\\#p cam-b3lyp/Def2SVP td=(nstates=5)\\TDDFT excite
 d states in gaussian\\0,1\Mg,0,0.,0.,0.\C,0,-0.217,-2.218,2.801\C,0,-1
 .255,2.442,2.026\C,0,-0.245,1.85,-2.564\C,0,0.146,-2.824,-2.037\N,0,-0
 .617,-0.009,2.126\C,0,-0.594,-0.908,3.105\C,0,-0.936,-0.309,4.502\C,0,
 -1.773,0.964,4.032\C,0,-1.155,1.168,2.66\C,0,-3.263,0.685,3.863\C,0,0.
 345,0.11,5.299\C,0,0.124,0.397,6.787\H,0,1.168,0.033,7.733\N,0,-0.185,
 1.961,-0.152\C,0,-0.703,2.8,0.777\C,0,-0.62,4.156,0.193\C,0,-0.187,4.0
 15,-1.225\C,0,-0.214,2.583,-1.38\C,0,-0.887,5.406,0.974\C,0,0.181,5.01
 3,-2.277\O,0,0.303,4.69,-3.508\C,0,0.31,6.414,-1.837\N,0,-0.265,-0.413
 ,-2.029\C,0,-0.279,0.569,-2.937\C,0,-0.196,0.024,-4.332\C,0,0.124,-1.5
 33,-4.18\C,0,0.086,-1.632,-2.635\C,0,-1.451,0.205,-5.197\C,0,1.373,-2.
 07,-4.923\C,0,2.626,-1.49,-4.306\N,0,0.15,-2.144,0.303\C,0,0.173,-3.13
 6,-0.688\C,0,0.173,-4.438,0.004\C,0,0.133,-4.111,1.358\C,0,0.083,-2.69
 5,1.502\C,0,0.149,-5.715,-0.623\C,0,0.096,-4.629,2.716\O,0,0.208,-5.74
 7,3.221\C,0,-0.255,-3.428,3.701\C,0,0.717,-3.482,4.848\O,0,1.931,-3.25
 5,4.669\O,0,0.038,-3.556,6.003\C,0,0.943,-3.583,7.183\H,0,-1.859,3.22,
 2.497\H,0,-0.218,2.453,-3.474\H,0,0.276,-3.747,-2.605\H,0,-1.554,-0.94
 9,5.132\H,0,-1.585,1.831,4.665\H,0,-3.484,-0.377,3.969\H,0,-3.511,1.02
 7,2.858\H,0,-3.852,1.301,4.543\H,0,0.669,1.096,4.966\H,0,1.13,-0.639,5
 .189\H,0,-0.844,0.026,7.125\H,0,0.062,1.477,6.921\H,0,-1.344,5.186,1.9
 38\H,0,-1.651,5.963,0.432\H,0,0.007,6.02,1.084\H,0,-0.635,6.744,-1.405
 \H,0,0.665,6.97,-2.704\H,0,1.048,6.466,-1.036\H,0,0.608,0.501,-4.891\H
 ,0,-0.692,-2.156,-4.547\H,0,-1.267,0.74,-6.129\H,0,-2.204,0.714,-4.596
 \H,0,-1.967,-0.72,-5.453\H,0,1.356,-1.759,-5.967\H,0,1.452,-3.157,-4.9
 02\H,0,2.714,-0.522,-4.798\H,0,3.487,-2.121,-4.529\H,0,2.495,-1.303,-3
 .24\H,0,0.867,-6.333,-0.084\H,0,0.404,-5.642,-1.68\H,0,-0.891,-5.999,-
 0.463\H,0,-1.283,-3.581,4.028\H,0,0.698,-4.478,7.755\H,0,0.833,-2.619,
 7.68\H,0,2.,-3.754,6.976\Mg,0,8.92784,0.79933,0.6855\C,0,8.16803,3.457
 09,2.97418\C,0,10.25447,-0.89787,3.33016\C,0,10.01259,-1.35926,-1.3715
 \C,0,8.6021,3.11683,-1.8969\N,0,9.1263,1.31723,2.82668\C,0,8.74567,2.3
 2863,3.59253\C,0,8.92496,2.08548,5.11513\C,0,10.0842,0.97627,5.04664\C
 ,0,9.78875,0.39899,3.66385\C,0,11.48354,1.56859,5.02793\C,0,7.62557,1.
 51762,5.78681\C,0,7.62698,1.54721,7.31681\H,0,6.36818,1.80929,8.00905\
 N,0,9.52935,-1.06854,0.98185\C,0,10.0188,-1.59422,2.12438\C,0,10.33428
 ,-2.99817,1.8185\C,0,10.14537,-3.21397,0.3582\C,0,9.90323,-1.85406,-0.
 08008\C,0,10.69033,-4.00139,2.87689\C,0,10.18963,-4.43952,-0.50335\O,0
 ,10.23229,-4.36249,-1.78205\C,0,10.27585,-5.72981,0.19607\N,0,9.46823,
 0.90862,-1.31909\C,0,9.85676,-0.18922,-1.9912\C,0,9.92874,0.07712,-3.4
 7588\C,0,9.27174,1.51997,-3.68588\C,0,9.00278,1.8926,-2.21136\C,0,11.3
 2959,0.06222,-4.08725\C,0,8.09842,1.6183,-4.69896\C,0,6.89679,0.86785,
 -4.17142\N,0,8.29192,2.85699,0.51326\C,0,8.25701,3.64372,-0.65888\C,0,
 7.864,5.00934,-0.25509\C,0,7.71875,4.92729,1.13798\C,0,8.02092,3.60899
 ,1.57417\C,0,7.73476,6.12908,-1.12434\C,0,7.38884,5.65882,2.33995\O,0,
 6.96834,6.78972,2.58076\C,0,7.78781,4.77167,3.59701\C,0,6.63163,4.7827
 8,4.55911\O,0,5.54637,4.26056,4.2491\O,0,7.06161,5.21161,5.75977\C,0,5
 .95299,5.22957,6.75096\H,0,10.8972,-1.41728,4.04149\H,0,10.2767,-2.092
 87,-2.1367\H,0,8.38345,3.87219,-2.65472\H,0,9.26744,2.94713,5.67551\H,
 0,9.95051,0.21738,5.81317\H,0,11.46429,2.64506,4.94427\H,0,11.97667,1.
 13118,4.16971\H,0,12.04694,1.23235,5.90305\H,0,7.5806,0.43372,5.61989\
 H,0,6.75393,2.0213,5.41645\H,0,8.42509,2.18485,7.71601\H,0,7.87401,0.5
 4775,7.68298\H,0,10.91179,-3.51435,3.83456\H,0,11.64024,-4.45782,2.578
 21\H,0,9.93879,-4.78666,2.9828\H,0,11.1674,-5.74434,0.81847\H,0,10.206
 72,-6.49033,-0.58413\H,0,9.4184,-5.81913,0.87239\H,0,9.35285,-0.65505,
 -4.02848\H,0,10.00242,2.24898,-4.06599\H,0,11.43687,-0.66401,-4.915\H,
 0,12.04273,-0.14877,-3.30147\H,0,11.67894,1.02172,-4.46476\H,0,8.37233
 ,1.14121,-5.64316\H,0,7.8082,2.6387,-4.92604\H,0,7.10646,-0.16687,-4.4
 5862\H,0,5.98342,1.22992,-4.63907\H,0,6.85922,0.90489,-3.0765\H,0,6.82
 719,6.64315,-0.83703\H,0,7.70503,5.82127,-2.16748\H,0,8.65296,6.67092,
 -0.88226\H,0,8.68754,5.20737,4.03316\H,0,5.90344,6.24484,7.15652\H,0,6
 .17577,4.41297,7.46319\H,0,4.94398,5.10184,6.37674\\Version=ES64L-G16R
 evA.03\State=1-A\HF=-4069.8125143\RMSD=7.372e-09\PG=C01 [X(C68H72Mg2N8
 O8)]\\@


 ONLY THE DAY DAWNS TO WHICH YOU ARE AWAKE.

                                 -- THOREAU
 Job cpu time:       0 days 14 hours 54 minutes 13.5 seconds.
 Elapsed time:       0 days  0 hours 37 minutes 57.0 seconds.
 File lengths (MBytes):  RWF=  13225 Int=      0 D2E=      0 Chk=    574 Scr=      1
 Normal termination of Gaussian 16 at Thu Sep  9 18:09:43 2021.
