 Entering Gaussian System, Link 0=g16
 Initial command:
 /sw/apps/gaussian-16.0/g16/l1.exe "/tmp/Gau-191032.inp" -scrdir="/tmp/"
 Entering Link 1 = /sw/apps/gaussian-16.0/g16/l1.exe PID=    191033.
  
 Copyright (c) 1988,1990,1992,1993,1995,1998,2003,2009,2016,
            Gaussian, Inc.  All Rights Reserved.
  
 This is part of the Gaussian(R) 16 program.  It is based on
 the Gaussian(R) 09 system (copyright 2009, Gaussian, Inc.),
 the Gaussian(R) 03 system (copyright 2003, Gaussian, Inc.),
 the Gaussian(R) 98 system (copyright 1998, Gaussian, Inc.),
 the Gaussian(R) 94 system (copyright 1995, Gaussian, Inc.),
 the Gaussian 92(TM) system (copyright 1992, Gaussian, Inc.),
 the Gaussian 90(TM) system (copyright 1990, Gaussian, Inc.),
 the Gaussian 88(TM) system (copyright 1988, Gaussian, Inc.),
 the Gaussian 86(TM) system (copyright 1986, Carnegie Mellon
 University), and the Gaussian 82(TM) system (copyright 1983,
 Carnegie Mellon University). Gaussian is a federally registered
 trademark of Gaussian, Inc.
  
 This software contains proprietary and confidential information,
 including trade secrets, belonging to Gaussian, Inc.
  
 This software is provided under written license and may be
 used, copied, transmitted, or stored only in accord with that
 written license.
  
 The following legend is applicable only to US Government
 contracts under FAR:
  
                    RESTRICTED RIGHTS LEGEND
  
 Use, reproduction and disclosure by the US Government is
 subject to restrictions as set forth in subparagraphs (a)
 and (c) of the Commercial Computer Software - Restricted
 Rights clause in FAR 52.227-19.
  
 Gaussian, Inc.
 340 Quinnipiac St., Bldg. 40, Wallingford CT 06492
  
  
 ---------------------------------------------------------------
 Warning -- This program may not be used in any manner that
 competes with the business of Gaussian, Inc. or will provide
 assistance to any competitor of Gaussian, Inc.  The licensee
 of this program is prohibited from giving any competitor of
 Gaussian, Inc. access to this program.  By using this program,
 the user acknowledges that Gaussian, Inc. is engaged in the
 business of creating and licensing software in the field of
 computational chemistry and represents and warrants to the
 licensee that it is not a competitor of Gaussian, Inc. and that
 it will not use this program in any manner prohibited above.
 ---------------------------------------------------------------
  

 Cite this work as:
 Gaussian 16, Revision A.03,
 M. J. Frisch, G. W. Trucks, H. B. Schlegel, G. E. Scuseria, 
 M. A. Robb, J. R. Cheeseman, G. Scalmani, V. Barone, 
 G. A. Petersson, H. Nakatsuji, X. Li, M. Caricato, A. V. Marenich, 
 J. Bloino, B. G. Janesko, R. Gomperts, B. Mennucci, H. P. Hratchian, 
 J. V. Ortiz, A. F. Izmaylov, J. L. Sonnenberg, D. Williams-Young, 
 F. Ding, F. Lipparini, F. Egidi, J. Goings, B. Peng, A. Petrone, 
 T. Henderson, D. Ranasinghe, V. G. Zakrzewski, J. Gao, N. Rega, 
 G. Zheng, W. Liang, M. Hada, M. Ehara, K. Toyota, R. Fukuda, 
 J. Hasegawa, M. Ishida, T. Nakajima, Y. Honda, O. Kitao, H. Nakai, 
 T. Vreven, K. Throssell, J. A. Montgomery, Jr., J. E. Peralta, 
 F. Ogliaro, M. J. Bearpark, J. J. Heyd, E. N. Brothers, K. N. Kudin, 
 V. N. Staroverov, T. A. Keith, R. Kobayashi, J. Normand, 
 K. Raghavachari, A. P. Rendell, J. C. Burant, S. S. Iyengar, 
 J. Tomasi, M. Cossi, J. M. Millam, M. Klene, C. Adamo, R. Cammi, 
 J. W. Ochterski, R. L. Martin, K. Morokuma, O. Farkas, 
 J. B. Foresman, and D. J. Fox, Gaussian, Inc., Wallingford CT, 2016.
 
 ******************************************
 Gaussian 16:  ES64L-G16RevA.03 25-Dec-2016
                10-Sep-2021 
 ******************************************
 %nproc=24
 Will use up to   24 processors via shared memory.
 %mem=175gb
 -----------------------------------
 #p cam-b3lyp/Def2SVP td=(nstates=5)
 -----------------------------------
 1/38=1,172=1/1;
 2/12=2,17=6,18=5,40=1/2;
 3/5=43,7=101,11=9,25=1,30=1,74=-40/1,2,3,8;
 4//1;
 5/5=2,38=5/2;
 8/6=1,10=1,108=5/1;
 9/41=5,42=1,70=2/14;
 6/7=2,8=2,9=2,10=2/1;
 99/5=1,9=1/99;
 Leave Link    1 at Fri Sep 10 19:02:23 2021, MaxMem= 23488102400 cpu:               0.9 elap:               0.0
 (Enter /sw/apps/gaussian-16.0/g16/l101.exe)
 --------------------------------
 TDDFT excited states in gaussian
 --------------------------------
 Symbolic Z-matrix:
 Charge =  0 Multiplicity = 1
 Mg                    0.        0.        0. 
 C                    -0.217    -2.218     2.801 
 C                    -1.255     2.442     2.026 
 C                    -0.245     1.85     -2.564 
 C                     0.146    -2.824    -2.037 
 N                    -0.617    -0.009     2.126 
 C                    -0.594    -0.908     3.105 
 C                    -0.936    -0.309     4.502 
 C                    -1.773     0.964     4.032 
 C                    -1.155     1.168     2.66 
 C                    -3.263     0.685     3.863 
 C                     0.345     0.11      5.299 
 C                     0.124     0.397     6.787 
 H                     1.168     0.033     7.733 
 N                    -0.185     1.961    -0.152 
 C                    -0.703     2.8       0.777 
 C                    -0.62      4.156     0.193 
 C                    -0.187     4.015    -1.225 
 C                    -0.214     2.583    -1.38 
 C                    -0.887     5.406     0.974 
 C                     0.181     5.013    -2.277 
 O                     0.303     4.69     -3.508 
 C                     0.31      6.414    -1.837 
 N                    -0.265    -0.413    -2.029 
 C                    -0.279     0.569    -2.937 
 C                    -0.196     0.024    -4.332 
 C                     0.124    -1.533    -4.18 
 C                     0.086    -1.632    -2.635 
 C                    -1.451     0.205    -5.197 
 C                     1.373    -2.07     -4.923 
 C                     2.626    -1.49     -4.306 
 N                     0.15     -2.144     0.303 
 C                     0.173    -3.136    -0.688 
 C                     0.173    -4.438     0.004 
 C                     0.133    -4.111     1.358 
 C                     0.083    -2.695     1.502 
 C                     0.149    -5.715    -0.623 
 C                     0.096    -4.629     2.716 
 O                     0.208    -5.747     3.221 
 C                    -0.255    -3.428     3.701 
 C                     0.717    -3.482     4.848 
 O                     1.931    -3.255     4.669 
 O                     0.038    -3.556     6.003 
 C                     0.943    -3.583     7.183 
 H                    -1.859     3.22      2.497 
 H                    -0.218     2.453    -3.474 
 H                     0.276    -3.747    -2.605 
 H                    -1.554    -0.949     5.132 
 H                    -1.585     1.831     4.665 
 H                    -3.484    -0.377     3.969 
 H                    -3.511     1.027     2.858 
 H                    -3.852     1.301     4.543 
 H                     0.669     1.096     4.966 
 H                     1.13     -0.639     5.189 
 H                    -0.844     0.026     7.125 
 H                     0.062     1.477     6.921 
 H                    -1.344     5.186     1.938 
 H                    -1.651     5.963     0.432 
 H                     0.007     6.02      1.084 
 H                    -0.635     6.744    -1.405 
 H                     0.665     6.97     -2.704 
 H                     1.048     6.466    -1.036 
 H                     0.608     0.501    -4.891 
 H                    -0.692    -2.156    -4.547 
 H                    -1.267     0.74     -6.129 
 H                    -2.204     0.714    -4.596 
 H                    -1.967    -0.72     -5.453 
 H                     1.356    -1.759    -5.967 
 H                     1.452    -3.157    -4.902 
 H                     2.714    -0.522    -4.798 
 H                     3.487    -2.121    -4.529 
 H                     2.495    -1.303    -3.24 
 H                     0.867    -6.333    -0.084 
 H                     0.404    -5.642    -1.68 
 H                    -0.891    -5.999    -0.463 
 H                    -1.283    -3.581     4.028 
 H                     0.698    -4.478     7.755 
 H                     0.833    -2.619     7.68 
 H                     2.       -3.754     6.976 
 Mg                    10.51697   0.94245   0.80621 
 C                     8.04637   0.14966   3.28546 
 C                     11.9048   3.06816   3.08434 
 C                     12.43294   1.99661  -1.49275 
 C                     8.32406  -0.32921  -1.58539 
 N                     9.95733   1.45572   2.88362 
 C                     9.03574   1.04536   3.74188 
 C                     9.22981   1.56539   5.19152 
 C                     10.09027   2.88065   4.86199 
 C                     10.72261   2.43542   3.54495 
 C                     9.2349    4.10704   4.59061 
 C                     10.03764   0.55926   6.08434 
 C                     9.99917   0.85701   7.58488 
 H                     9.98513  -0.26674   8.51733 
 N                     12.2286   1.94065   0.91794 
 C                     12.6411   2.7384    1.92527 
 C                     13.95762   3.25297   1.51764 
 C                     14.21507   2.82485   0.11581 
 C                     12.93181   2.24232  -0.2218 
 C                     14.86505   3.99837   2.45272 
 C                     15.41324   2.93452  -0.77782 
 O                     15.33702   2.7081   -2.03708 
 C                     16.65728   3.4053   -0.15154 
 N                     10.31577   1.04476  -1.26052 
 C                     11.32     1.49796  -2.03129 
 C                     11.05364   1.22239  -3.49194 
 C                     9.76912   0.2702   -3.52223 
 C                     9.44768   0.23076  -2.01209 
 C                     10.79693   2.45077  -4.36462 
 C                     9.90911  -1.07645  -4.28355 
 C                     10.87766  -1.98176  -3.5571 
 N                     8.62524  -0.10106   0.82912 
 C                     7.86773  -0.51838  -0.28717 
 C                     6.60342  -1.08071   0.23027 
 C                     6.70402  -0.92932   1.62147 
 C                     7.93472  -0.29758   1.94671 
 C                     5.53608  -1.59335  -0.55974 
 C                     6.04428  -1.15064   2.88814 
 O                     5.0165   -1.72613   3.24342 
 C                     6.82828  -0.34725   4.01344 
 C                     7.03856  -1.2705    5.18216 
 O                     7.76552  -2.27355   5.07243 
 O                     6.52647  -0.70322   6.28955 
 C                     6.72052  -1.57635   7.47774 
 H                     12.28366   3.92685   3.63933 
 H                     13.10501   2.24134  -2.31852 
 H                     7.63088  -0.83522  -2.26076 
 H                     8.31435   1.83836   5.70258 
 H                     10.85602   3.05046   5.61442 
 H                     8.18368   3.86362   4.54786 
 H                     9.57216   4.49616   3.63882 
 H                     9.44874   4.88638   5.32765 
 H                     11.11027   0.69292   5.89371 
 H                     9.71711  -0.44904   5.90768 
 H                     9.21487   1.57938   7.84179 
 H                     10.92846   1.36021   7.86275 
 H                     14.33826   4.30601   3.36445 
 H                     15.12791   4.94062   1.95985 
 H                     15.78191   3.44908   2.67703 
 H                     16.49277   4.3878    0.28445 
 H                     17.42124   3.33204  -0.92799 
 H                     16.90911   2.73213   0.67553 
 H                     11.88792   0.70158  -3.94563 
 H                     8.91315   0.75618  -4.01312 
 H                     11.49293   2.531    -5.22091 
 H                     10.8591   3.33211  -3.7402 
 H                     9.78981   2.52618  -4.77109 
 H                     10.32882  -0.9073   -5.27823 
 H                     8.96692  -1.59775  -4.41596 
 H                     11.8528  -1.63665  -3.91361 
 H                     10.70474  -3.02195  -3.82568 
 H                     10.84214  -1.80882  -2.47521 
 H                     5.20846  -2.50831  -0.08434 
 H                     5.85001  -1.76832  -1.58668 
 H                     4.8231   -0.76806  -0.48341 
 H                     6.22183   0.51917   4.28012 
 H                     5.73232  -1.74044   7.91845 
 H                     7.47321  -1.06351   8.1056 
 H                     7.04608  -2.59518   7.30323 
 
 ITRead=  0  0  0  0  0  0  0  0  0  0  0  0  0  0  0  0  0  0  0  0
 ITRead=  0  0  0  0  0  0  0  0  0  0  0  0  0  0  0  0  0  0  0  0
 ITRead=  0  0  0  0  0  0  0  0  0  0  0  0  0  0  0  0  0  0  0  0
 ITRead=  0  0  0  0  0  0  0  0  0  0  0  0  0  0  0  0  0  0  0  0
 ITRead=  0  0  0  0  0  0  0  0  0  0  0  0  0  0  0  0  0  0  0  0
 ITRead=  0  0  0  0  0  0  0  0  0  0  0  0  0  0  0  0  0  0  0  0
 ITRead=  0  0  0  0  0  0  0  0  0  0  0  0  0  0  0  0  0  0  0  0
 ITRead=  0  0  0  0  0  0  0  0  0  0  0  0  0  0  0  0  0  0
 MicOpt= -1 -1 -1 -1 -1 -1 -1 -1 -1 -1 -1 -1 -1 -1 -1 -1 -1 -1 -1 -1
 MicOpt= -1 -1 -1 -1 -1 -1 -1 -1 -1 -1 -1 -1 -1 -1 -1 -1 -1 -1 -1 -1
 MicOpt= -1 -1 -1 -1 -1 -1 -1 -1 -1 -1 -1 -1 -1 -1 -1 -1 -1 -1 -1 -1
 MicOpt= -1 -1 -1 -1 -1 -1 -1 -1 -1 -1 -1 -1 -1 -1 -1 -1 -1 -1 -1 -1
 MicOpt= -1 -1 -1 -1 -1 -1 -1 -1 -1 -1 -1 -1 -1 -1 -1 -1 -1 -1 -1 -1
 MicOpt= -1 -1 -1 -1 -1 -1 -1 -1 -1 -1 -1 -1 -1 -1 -1 -1 -1 -1 -1 -1
 MicOpt= -1 -1 -1 -1 -1 -1 -1 -1 -1 -1 -1 -1 -1 -1 -1 -1 -1 -1 -1 -1
 MicOpt= -1 -1 -1 -1 -1 -1 -1 -1 -1 -1 -1 -1 -1 -1 -1 -1 -1 -1
 NAtoms=    158 NQM=      158 NQMF=       0 NMMI=      0 NMMIF=      0
                NMic=       0 NMicF=      0.
                    Isotopes and Nuclear Properties:
 (Nuclear quadrupole moments (NQMom) in fm**2, nuclear magnetic moments (NMagM)
  in nuclear magnetons)

  Atom         1           2           3           4           5           6           7           8           9          10
 IAtWgt=          24          12          12          12          12          14          12          12          12          12
 AtmWgt=  23.9850450  12.0000000  12.0000000  12.0000000  12.0000000  14.0030740  12.0000000  12.0000000  12.0000000  12.0000000
 NucSpn=           0           0           0           0           0           2           0           0           0           0
 AtZEff=  -0.0000000  -0.0000000  -0.0000000  -0.0000000  -0.0000000  -0.0000000  -0.0000000  -0.0000000  -0.0000000  -0.0000000
 NQMom=    0.0000000   0.0000000   0.0000000   0.0000000   0.0000000   2.0440000   0.0000000   0.0000000   0.0000000   0.0000000
 NMagM=    0.0000000   0.0000000   0.0000000   0.0000000   0.0000000   0.4037610   0.0000000   0.0000000   0.0000000   0.0000000
 AtZNuc=  12.0000000   6.0000000   6.0000000   6.0000000   6.0000000   7.0000000   6.0000000   6.0000000   6.0000000   6.0000000

  Atom        11          12          13          14          15          16          17          18          19          20
 IAtWgt=          12          12          12           1          14          12          12          12          12          12
 AtmWgt=  12.0000000  12.0000000  12.0000000   1.0078250  14.0030740  12.0000000  12.0000000  12.0000000  12.0000000  12.0000000
 NucSpn=           0           0           0           1           2           0           0           0           0           0
 AtZEff=  -0.0000000  -0.0000000  -0.0000000  -0.0000000  -0.0000000  -0.0000000  -0.0000000  -0.0000000  -0.0000000  -0.0000000
 NQMom=    0.0000000   0.0000000   0.0000000   0.0000000   2.0440000   0.0000000   0.0000000   0.0000000   0.0000000   0.0000000
 NMagM=    0.0000000   0.0000000   0.0000000   2.7928460   0.4037610   0.0000000   0.0000000   0.0000000   0.0000000   0.0000000
 AtZNuc=   6.0000000   6.0000000   6.0000000   1.0000000   7.0000000   6.0000000   6.0000000   6.0000000   6.0000000   6.0000000

  Atom        21          22          23          24          25          26          27          28          29          30
 IAtWgt=          12          16          12          14          12          12          12          12          12          12
 AtmWgt=  12.0000000  15.9949146  12.0000000  14.0030740  12.0000000  12.0000000  12.0000000  12.0000000  12.0000000  12.0000000
 NucSpn=           0           0           0           2           0           0           0           0           0           0
 AtZEff=  -0.0000000  -0.0000000  -0.0000000  -0.0000000  -0.0000000  -0.0000000  -0.0000000  -0.0000000  -0.0000000  -0.0000000
 NQMom=    0.0000000   0.0000000   0.0000000   2.0440000   0.0000000   0.0000000   0.0000000   0.0000000   0.0000000   0.0000000
 NMagM=    0.0000000   0.0000000   0.0000000   0.4037610   0.0000000   0.0000000   0.0000000   0.0000000   0.0000000   0.0000000
 AtZNuc=   6.0000000   8.0000000   6.0000000   7.0000000   6.0000000   6.0000000   6.0000000   6.0000000   6.0000000   6.0000000

  Atom        31          32          33          34          35          36          37          38          39          40
 IAtWgt=          12          14          12          12          12          12          12          12          16          12
 AtmWgt=  12.0000000  14.0030740  12.0000000  12.0000000  12.0000000  12.0000000  12.0000000  12.0000000  15.9949146  12.0000000
 NucSpn=           0           2           0           0           0           0           0           0           0           0
 AtZEff=  -0.0000000  -0.0000000  -0.0000000  -0.0000000  -0.0000000  -0.0000000  -0.0000000  -0.0000000  -0.0000000  -0.0000000
 NQMom=    0.0000000   2.0440000   0.0000000   0.0000000   0.0000000   0.0000000   0.0000000   0.0000000   0.0000000   0.0000000
 NMagM=    0.0000000   0.4037610   0.0000000   0.0000000   0.0000000   0.0000000   0.0000000   0.0000000   0.0000000   0.0000000
 AtZNuc=   6.0000000   7.0000000   6.0000000   6.0000000   6.0000000   6.0000000   6.0000000   6.0000000   8.0000000   6.0000000

  Atom        41          42          43          44          45          46          47          48          49          50
 IAtWgt=          12          16          16          12           1           1           1           1           1           1
 AtmWgt=  12.0000000  15.9949146  15.9949146  12.0000000   1.0078250   1.0078250   1.0078250   1.0078250   1.0078250   1.0078250
 NucSpn=           0           0           0           0           1           1           1           1           1           1
 AtZEff=  -0.0000000  -0.0000000  -0.0000000  -0.0000000  -0.0000000  -0.0000000  -0.0000000  -0.0000000  -0.0000000  -0.0000000
 NQMom=    0.0000000   0.0000000   0.0000000   0.0000000   0.0000000   0.0000000   0.0000000   0.0000000   0.0000000   0.0000000
 NMagM=    0.0000000   0.0000000   0.0000000   0.0000000   2.7928460   2.7928460   2.7928460   2.7928460   2.7928460   2.7928460
 AtZNuc=   6.0000000   8.0000000   8.0000000   6.0000000   1.0000000   1.0000000   1.0000000   1.0000000   1.0000000   1.0000000

  Atom        51          52          53          54          55          56          57          58          59          60
 IAtWgt=           1           1           1           1           1           1           1           1           1           1
 AtmWgt=   1.0078250   1.0078250   1.0078250   1.0078250   1.0078250   1.0078250   1.0078250   1.0078250   1.0078250   1.0078250
 NucSpn=           1           1           1           1           1           1           1           1           1           1
 AtZEff=  -0.0000000  -0.0000000  -0.0000000  -0.0000000  -0.0000000  -0.0000000  -0.0000000  -0.0000000  -0.0000000  -0.0000000
 NQMom=    0.0000000   0.0000000   0.0000000   0.0000000   0.0000000   0.0000000   0.0000000   0.0000000   0.0000000   0.0000000
 NMagM=    2.7928460   2.7928460   2.7928460   2.7928460   2.7928460   2.7928460   2.7928460   2.7928460   2.7928460   2.7928460
 AtZNuc=   1.0000000   1.0000000   1.0000000   1.0000000   1.0000000   1.0000000   1.0000000   1.0000000   1.0000000   1.0000000

  Atom        61          62          63          64          65          66          67          68          69          70
 IAtWgt=           1           1           1           1           1           1           1           1           1           1
 AtmWgt=   1.0078250   1.0078250   1.0078250   1.0078250   1.0078250   1.0078250   1.0078250   1.0078250   1.0078250   1.0078250
 NucSpn=           1           1           1           1           1           1           1           1           1           1
 AtZEff=  -0.0000000  -0.0000000  -0.0000000  -0.0000000  -0.0000000  -0.0000000  -0.0000000  -0.0000000  -0.0000000  -0.0000000
 NQMom=    0.0000000   0.0000000   0.0000000   0.0000000   0.0000000   0.0000000   0.0000000   0.0000000   0.0000000   0.0000000
 NMagM=    2.7928460   2.7928460   2.7928460   2.7928460   2.7928460   2.7928460   2.7928460   2.7928460   2.7928460   2.7928460
 AtZNuc=   1.0000000   1.0000000   1.0000000   1.0000000   1.0000000   1.0000000   1.0000000   1.0000000   1.0000000   1.0000000

  Atom        71          72          73          74          75          76          77          78          79          80
 IAtWgt=           1           1           1           1           1           1           1           1           1          24
 AtmWgt=   1.0078250   1.0078250   1.0078250   1.0078250   1.0078250   1.0078250   1.0078250   1.0078250   1.0078250  23.9850450
 NucSpn=           1           1           1           1           1           1           1           1           1           0
 AtZEff=  -0.0000000  -0.0000000  -0.0000000  -0.0000000  -0.0000000  -0.0000000  -0.0000000  -0.0000000  -0.0000000  -0.0000000
 NQMom=    0.0000000   0.0000000   0.0000000   0.0000000   0.0000000   0.0000000   0.0000000   0.0000000   0.0000000   0.0000000
 NMagM=    2.7928460   2.7928460   2.7928460   2.7928460   2.7928460   2.7928460   2.7928460   2.7928460   2.7928460   0.0000000
 AtZNuc=   1.0000000   1.0000000   1.0000000   1.0000000   1.0000000   1.0000000   1.0000000   1.0000000   1.0000000  12.0000000

  Atom        81          82          83          84          85          86          87          88          89          90
 IAtWgt=          12          12          12          12          14          12          12          12          12          12
 AtmWgt=  12.0000000  12.0000000  12.0000000  12.0000000  14.0030740  12.0000000  12.0000000  12.0000000  12.0000000  12.0000000
 NucSpn=           0           0           0           0           2           0           0           0           0           0
 AtZEff=  -0.0000000  -0.0000000  -0.0000000  -0.0000000  -0.0000000  -0.0000000  -0.0000000  -0.0000000  -0.0000000  -0.0000000
 NQMom=    0.0000000   0.0000000   0.0000000   0.0000000   2.0440000   0.0000000   0.0000000   0.0000000   0.0000000   0.0000000
 NMagM=    0.0000000   0.0000000   0.0000000   0.0000000   0.4037610   0.0000000   0.0000000   0.0000000   0.0000000   0.0000000
 AtZNuc=   6.0000000   6.0000000   6.0000000   6.0000000   7.0000000   6.0000000   6.0000000   6.0000000   6.0000000   6.0000000

  Atom        91          92          93          94          95          96          97          98          99         100
 IAtWgt=          12          12           1          14          12          12          12          12          12          12
 AtmWgt=  12.0000000  12.0000000   1.0078250  14.0030740  12.0000000  12.0000000  12.0000000  12.0000000  12.0000000  12.0000000
 NucSpn=           0           0           1           2           0           0           0           0           0           0
 AtZEff=  -0.0000000  -0.0000000  -0.0000000  -0.0000000  -0.0000000  -0.0000000  -0.0000000  -0.0000000  -0.0000000  -0.0000000
 NQMom=    0.0000000   0.0000000   0.0000000   2.0440000   0.0000000   0.0000000   0.0000000   0.0000000   0.0000000   0.0000000
 NMagM=    0.0000000   0.0000000   2.7928460   0.4037610   0.0000000   0.0000000   0.0000000   0.0000000   0.0000000   0.0000000
 AtZNuc=   6.0000000   6.0000000   1.0000000   7.0000000   6.0000000   6.0000000   6.0000000   6.0000000   6.0000000   6.0000000

  Atom       101         102         103         104         105         106         107         108         109         110
 IAtWgt=          16          12          14          12          12          12          12          12          12          12
 AtmWgt=  15.9949146  12.0000000  14.0030740  12.0000000  12.0000000  12.0000000  12.0000000  12.0000000  12.0000000  12.0000000
 NucSpn=           0           0           2           0           0           0           0           0           0           0
 AtZEff=  -0.0000000  -0.0000000  -0.0000000  -0.0000000  -0.0000000  -0.0000000  -0.0000000  -0.0000000  -0.0000000  -0.0000000
 NQMom=    0.0000000   0.0000000   2.0440000   0.0000000   0.0000000   0.0000000   0.0000000   0.0000000   0.0000000   0.0000000
 NMagM=    0.0000000   0.0000000   0.4037610   0.0000000   0.0000000   0.0000000   0.0000000   0.0000000   0.0000000   0.0000000
 AtZNuc=   8.0000000   6.0000000   7.0000000   6.0000000   6.0000000   6.0000000   6.0000000   6.0000000   6.0000000   6.0000000

  Atom       111         112         113         114         115         116         117         118         119         120
 IAtWgt=          14          12          12          12          12          12          12          16          12          12
 AtmWgt=  14.0030740  12.0000000  12.0000000  12.0000000  12.0000000  12.0000000  12.0000000  15.9949146  12.0000000  12.0000000
 NucSpn=           2           0           0           0           0           0           0           0           0           0
 AtZEff=  -0.0000000  -0.0000000  -0.0000000  -0.0000000  -0.0000000  -0.0000000  -0.0000000  -0.0000000  -0.0000000  -0.0000000
 NQMom=    2.0440000   0.0000000   0.0000000   0.0000000   0.0000000   0.0000000   0.0000000   0.0000000   0.0000000   0.0000000
 NMagM=    0.4037610   0.0000000   0.0000000   0.0000000   0.0000000   0.0000000   0.0000000   0.0000000   0.0000000   0.0000000
 AtZNuc=   7.0000000   6.0000000   6.0000000   6.0000000   6.0000000   6.0000000   6.0000000   8.0000000   6.0000000   6.0000000

  Atom       121         122         123         124         125         126         127         128         129         130
 IAtWgt=          16          16          12           1           1           1           1           1           1           1
 AtmWgt=  15.9949146  15.9949146  12.0000000   1.0078250   1.0078250   1.0078250   1.0078250   1.0078250   1.0078250   1.0078250
 NucSpn=           0           0           0           1           1           1           1           1           1           1
 AtZEff=  -0.0000000  -0.0000000  -0.0000000  -0.0000000  -0.0000000  -0.0000000  -0.0000000  -0.0000000  -0.0000000  -0.0000000
 NQMom=    0.0000000   0.0000000   0.0000000   0.0000000   0.0000000   0.0000000   0.0000000   0.0000000   0.0000000   0.0000000
 NMagM=    0.0000000   0.0000000   0.0000000   2.7928460   2.7928460   2.7928460   2.7928460   2.7928460   2.7928460   2.7928460
 AtZNuc=   8.0000000   8.0000000   6.0000000   1.0000000   1.0000000   1.0000000   1.0000000   1.0000000   1.0000000   1.0000000

  Atom       131         132         133         134         135         136         137         138         139         140
 IAtWgt=           1           1           1           1           1           1           1           1           1           1
 AtmWgt=   1.0078250   1.0078250   1.0078250   1.0078250   1.0078250   1.0078250   1.0078250   1.0078250   1.0078250   1.0078250
 NucSpn=           1           1           1           1           1           1           1           1           1           1
 AtZEff=  -0.0000000  -0.0000000  -0.0000000  -0.0000000  -0.0000000  -0.0000000  -0.0000000  -0.0000000  -0.0000000  -0.0000000
 NQMom=    0.0000000   0.0000000   0.0000000   0.0000000   0.0000000   0.0000000   0.0000000   0.0000000   0.0000000   0.0000000
 NMagM=    2.7928460   2.7928460   2.7928460   2.7928460   2.7928460   2.7928460   2.7928460   2.7928460   2.7928460   2.7928460
 AtZNuc=   1.0000000   1.0000000   1.0000000   1.0000000   1.0000000   1.0000000   1.0000000   1.0000000   1.0000000   1.0000000

  Atom       141         142         143         144         145         146         147         148         149         150
 IAtWgt=           1           1           1           1           1           1           1           1           1           1
 AtmWgt=   1.0078250   1.0078250   1.0078250   1.0078250   1.0078250   1.0078250   1.0078250   1.0078250   1.0078250   1.0078250
 NucSpn=           1           1           1           1           1           1           1           1           1           1
 AtZEff=  -0.0000000  -0.0000000  -0.0000000  -0.0000000  -0.0000000  -0.0000000  -0.0000000  -0.0000000  -0.0000000  -0.0000000
 NQMom=    0.0000000   0.0000000   0.0000000   0.0000000   0.0000000   0.0000000   0.0000000   0.0000000   0.0000000   0.0000000
 NMagM=    2.7928460   2.7928460   2.7928460   2.7928460   2.7928460   2.7928460   2.7928460   2.7928460   2.7928460   2.7928460
 AtZNuc=   1.0000000   1.0000000   1.0000000   1.0000000   1.0000000   1.0000000   1.0000000   1.0000000   1.0000000   1.0000000

  Atom       151         152         153         154         155         156         157         158
 IAtWgt=           1           1           1           1           1           1           1           1
 AtmWgt=   1.0078250   1.0078250   1.0078250   1.0078250   1.0078250   1.0078250   1.0078250   1.0078250
 NucSpn=           1           1           1           1           1           1           1           1
 AtZEff=  -0.0000000  -0.0000000  -0.0000000  -0.0000000  -0.0000000  -0.0000000  -0.0000000  -0.0000000
 NQMom=    0.0000000   0.0000000   0.0000000   0.0000000   0.0000000   0.0000000   0.0000000   0.0000000
 NMagM=    2.7928460   2.7928460   2.7928460   2.7928460   2.7928460   2.7928460   2.7928460   2.7928460
 AtZNuc=   1.0000000   1.0000000   1.0000000   1.0000000   1.0000000   1.0000000   1.0000000   1.0000000
 Leave Link  101 at Fri Sep 10 19:02:23 2021, MaxMem= 23488102400 cpu:               3.3 elap:               0.2
 (Enter /sw/apps/gaussian-16.0/g16/l202.exe)
 Stoichiometry    C68H72Mg2N8O8
 Framework group  C1[X(C68H72Mg2N8O8)]
 Deg. of freedom   468
 Full point group                 C1      NOp   1
 Largest Abelian subgroup         C1      NOp   1
 Largest concise Abelian subgroup C1      NOp   1
                         Standard orientation:                         
 ---------------------------------------------------------------------
 Center     Atomic      Atomic             Coordinates (Angstroms)
 Number     Number       Type             X           Y           Z
 ---------------------------------------------------------------------
      1         12           0        4.906482   -1.236879    0.459061
      2          6           0        5.575908    1.958963   -1.007459
      3          6           0        5.694033    0.148745    3.476158
      4          6           0        4.763618   -4.147230    1.710487
      5          6           0        5.280339   -2.610277   -2.722082
      6          7           0        5.538049    0.805727    1.033109
      7          6           0        5.698698    1.954524    0.383781
      8          6           0        5.935686    3.170394    1.328700
      9          6           0        6.508182    2.394557    2.598473
     10          6           0        5.846932    1.045565    2.377356
     11          6           0        8.022007    2.210345    2.568402
     12          6           0        4.607368    3.925961    1.669906
     13          6           0        4.786346    5.303913    2.313776
     14          1           0        3.842175    6.360089    1.981539
     15          7           0        4.711044   -1.815430    2.337872
     16          6           0        5.069493   -1.116815    3.441836
     17          6           0        4.721867   -1.972725    4.596504
     18          6           0        4.307682   -3.302441    4.068868
     19          6           0        4.606447   -3.148001    2.668059
     20          6           0        4.753629   -1.493235    6.015246
     21          6           0        3.743505   -4.522876    4.724898
     22          8           0        3.671516   -5.647721    4.121478
     23          6           0        3.353820   -4.387287    6.140102
     24          7           0        5.222422   -3.141284   -0.335330
     25          6           0        5.037867   -4.238153    0.407503
     26          6           0        5.044764   -5.477419   -0.437548
     27          6           0        5.030394   -4.978316   -1.954269
     28          6           0        5.104285   -3.452278   -1.701245
     29          6           0        6.231967   -6.426575   -0.223857
     30          6           0        3.898836   -5.521420   -2.862582
     31          6           0        2.565132   -4.977415   -2.401722
     32          7           0        5.173016   -0.473680   -1.555271
     33          6           0        5.328957   -1.226272   -2.728285
     34          6           0        5.586022   -0.272197   -3.822692
     35          6           0        5.578172    0.976111   -3.203409
     36          6           0        5.357914    0.810281   -1.806169
     37          6           0        5.846789   -0.611171   -5.179722
     38          6           0        5.729128    2.409662   -3.393147
     39          8           0        5.838922    3.147858   -4.373201
     40          6           0        5.855039    3.094153   -1.960860
     41          6           0        4.924505    4.276066   -1.938571
     42          8           0        3.687537    4.117352   -1.984243
     43          8           0        5.618267    5.382302   -1.629576
     44          6           0        4.748701    6.587049   -1.561804
     45          1           0        6.143328    0.409183    4.436495
     46          1           0        4.611328   -5.162606    2.082316
     47          1           0        5.322892   -2.959426   -3.755395
     48          1           0        6.671895    3.889203    0.968516
     49          1           0        6.164986    2.836013    3.533917
     50          1           0        8.443350    2.529689    1.615296
     51          1           0        8.188478    1.143660    2.719936
     52          1           0        8.489968    2.710153    3.416919
     53          1           0        4.096886    3.406996    2.481167
     54          1           0        3.979006    4.021008    0.783648
     55          1           0        5.811251    5.661652    2.211291
     56          1           0        4.642051    5.199736    3.389195
     57          1           0        5.255267   -0.530174    6.101374
     58          1           0        5.390675   -2.181890    6.569896
     59          1           0        3.759969   -1.470080    6.462945
     60          1           0        4.223076   -4.086954    6.725544
     61          1           0        2.889099   -5.333212    6.415986
     62          1           0        2.628708   -3.577994    6.230688
     63          1           0        4.158008   -6.082145   -0.252083
     64          1           0        5.946287   -5.246045   -2.481653
     65          1           0        5.938351   -7.440481    0.049070
     66          1           0        6.880461   -5.989591    0.534952
     67          1           0        6.912486   -6.505345   -1.071269
     68          1           0        3.844078   -6.607215   -2.791892
     69          1           0        4.029557   -5.263667   -3.913642
     70          1           0        2.287901   -5.660138   -1.599310
     71          1           0        1.838307   -5.013837   -3.213885
     72          1           0        2.670095   -3.984811   -1.963308
     73          1           0        5.266529    0.085192   -5.784987
     74          1           0        5.570474   -1.644154   -5.389958
     75          1           0        6.923676   -0.449516   -5.224885
     76          1           0        6.896987    3.391231   -1.845918
     77          1           0        5.166964    7.323796   -2.247728
     78          1           0        4.677861    6.859224   -0.508567
     79          1           0        3.741665    6.478019   -1.965945
     80         12           0       -5.586563   -0.093578   -0.397502
     81          6           0       -2.981750    2.363071   -0.154832
     82          6           0       -7.329416    1.746259    1.885491
     83          6           0       -7.694991   -2.459917   -0.247897
     84          6           0       -3.218296   -2.270002   -1.739222
     85          7           0       -5.111793    1.792704    0.655499
     86          6           0       -4.118963    2.668757    0.621542
     87          6           0       -4.392388    3.981396    1.403697
     88          6           0       -5.492350    3.423735    2.432283
     89          6           0       -6.042806    2.268314    1.598809
     90          6           0       -4.890636    2.850628    3.704614
     91          6           0       -4.982495    5.110834    0.488188
     92          6           0       -4.984575    6.508415    1.111502
     93          1           0       -4.745095    7.658033    0.243457
     94          7           0       -7.456192   -0.107648    0.267971
     95          6           0       -8.002196    0.725672    1.178318
     96          6           0       -9.397426    0.287767    1.338762
     97          6           0       -9.584187   -0.973947    0.572021
     98          6           0       -8.217109   -1.246531    0.175949
     99          6           0      -10.419987    1.088158    2.091868
    100          6           0      -10.791330   -1.805320    0.259228
    101          8           0      -10.687581   -2.988972   -0.221411
    102          6           0      -12.095233   -1.229322    0.619174
    103          7           0       -5.432285   -2.141881   -0.718398
    104          6           0       -6.513421   -2.937397   -0.639328
    105          6           0       -6.215954   -4.317034   -1.176451
    106          6           0       -4.773388   -4.210695   -1.858557
    107          6           0       -4.433110   -2.746495   -1.503970
    108          6           0       -6.209046   -5.445186   -0.145135
    109          6           0       -4.661775   -4.657019   -3.342137
    110          6           0       -5.430815   -3.702914   -4.227386
    111          7           0       -3.529966    0.051948   -1.043498
    112          6           0       -2.719398   -0.987552   -1.549955
    113          6           0       -1.365016   -0.429534   -1.741535
    114          6           0       -1.476827    0.900183   -1.308144
    115          6           0       -2.801879    1.147356   -0.857985
    116          6           0       -0.228396   -1.146848   -2.210242
    117          6           0       -0.772500    2.147942   -1.119165
    118          8           0        0.350405    2.563202   -1.402691
    119          6           0       -1.682845    3.114858   -0.245817
    120          6           0       -1.699193    4.463843   -0.911013
    121          8           0       -2.221973    4.610541   -2.029852
    122          8           0       -1.292509    5.395017   -0.029038
    123          6           0       -1.302297    6.751382   -0.638944
    124          1           0       -7.859233    2.123560    2.760611
    125          1           0       -8.410863   -3.282032   -0.319456
    126          1           0       -2.448855   -2.857039   -2.245204
    127          1           0       -3.540307    4.372634    1.946516
    128          1           0       -6.267797    4.161873    2.619882
    129          1           0       -3.812820    2.805245    3.655655
    130          1           0       -5.306979    1.856848    3.805220
    131          1           0       -5.241229    3.413723    4.574289
    132          1           0       -6.062986    4.953276    0.376587
    133          1           0       -4.476973    5.137696   -0.457509
    134          1           0       -4.350125    6.562395    2.004534
    135          1           0       -5.989750    6.720926    1.483609
    136          1           0       -9.951424    1.883396    2.684698
    137          1           0      -10.863917    0.419404    2.837216
    138          1           0      -11.212163    1.473444    1.446361
    139          1           0      -12.116811   -1.023514    1.686710
    140          1           0      -12.839874   -1.930269    0.236996
    141          1           0      -12.204121   -0.264959    0.110482
    142          1           0       -6.940277   -4.603494   -1.929044
    143          1           0       -4.031902   -4.839163   -1.343716
    144          1           0       -6.917273   -6.260524   -0.385395
    145          1           0       -6.431589   -5.021862    0.825327
    146          1           0       -5.239681   -5.911322    0.022921
    147          1           0       -5.117433   -5.641082   -3.476869
    148          1           0       -3.638813   -4.724469   -3.697115
    149          1           0       -6.457983   -4.072775   -4.155097
    150          1           0       -5.065113   -3.751016   -5.251095
    151          1           0       -5.416689   -2.686722   -3.816520
    152          1           0        0.273672   -0.504426   -2.921378
    153          1           0       -0.514752   -2.094211   -2.662210
    154          1           0        0.314299   -1.287262   -1.271607
    155          1           0       -1.250400    3.156935    0.754586
    156          1           0       -0.295990    7.163854   -0.516869
    157          1           0       -2.131994    7.293782   -0.147863
    158          1           0       -1.428842    6.816945   -1.713256
 ---------------------------------------------------------------------
 Rotational constants (GHZ):           0.0251914           0.0117458           0.0100874
 Leave Link  202 at Fri Sep 10 19:02:23 2021, MaxMem= 23488102400 cpu:               0.2 elap:               0.0
 (Enter /sw/apps/gaussian-16.0/g16/l301.exe)
 Standard basis: def2SVP (5D, 7F)
 Ernie: Thresh=  0.10000D-02 Tol=  0.10000D-05 Strict=F.
 There are  1658 symmetry adapted cartesian basis functions of A   symmetry.
 There are  1572 symmetry adapted basis functions of A   symmetry.
  1572 basis functions,  2678 primitive gaussians,  1658 cartesian basis functions
   312 alpha electrons      312 beta electrons
       nuclear repulsion energy     15349.5095189905 Hartrees.
 IExCor=20419 DFT=T Ex+Corr=CAM-B3LYP ExCW=0 ScaHFX=  1.000000
 ScaDFX=  1.000000  1.000000  1.000000  0.810000 ScalE2=  1.000000  1.000000
 IRadAn=      5 IRanWt=     -1 IRanGd=            0 ICorTp=0 IEmpDi=  4
 HFx  wShort=  0.000000 wLong=  0.330000 cFull=  0.190000 cShort=  0.000000 cLong=  0.460000
 DFx  wShort=  0.000000 wLong=  0.330000 cFull=  0.190000 cShort=  0.000000 cLong=  0.460000
 NAtoms=  158 NActive=  158 NUniq=  158 SFac= 1.00D+00 NAtFMM=   60 NAOKFM=T Big=T
 Integral buffers will be    131072 words long.
 Raffenetti 1 integral format.
 Two-electron integral symmetry is turned on.
 Leave Link  301 at Fri Sep 10 19:02:23 2021, MaxMem= 23488102400 cpu:               1.4 elap:               0.1
 (Enter /sw/apps/gaussian-16.0/g16/l302.exe)
 NPDir=0 NMtPBC=     1 NCelOv=     1 NCel=       1 NClECP=     1 NCelD=      1
         NCelK=      1 NCelE2=     1 NClLst=     1 CellRange=     0.0.
 One-electron integrals computed using PRISM.
 One-electron integral symmetry used in STVInt
   1 Symmetry operations used in ECPInt.
 ECPInt:  NShTT=  271216 NPrTT=  987664 LenC2=  145306 LenP2D=  307339.
 LDataN:  DoStor=T MaxTD1= 4 Len=   56
 NBasis=  1572 RedAO= T EigKep=  3.35D-04  NBF=  1572
 NBsUse=  1572 1.00D-06 EigRej= -1.00D+00 NBFU=  1572
 Precomputing XC quadrature grid using
 IXCGrd= 4 IRadAn=           5 IRanWt=          -1 IRanGd=           0 AccXCQ= 0.00D+00.
 Generated NRdTot=       0 NPtTot=           0 NUsed=           0 NTot=          32
 NSgBfM=  1415  1412  1415  1415  1415 MxSgAt=   158 MxSgA2=   158.
 Leave Link  302 at Fri Sep 10 19:02:29 2021, MaxMem= 23488102400 cpu:             127.8 elap:               5.3
 (Enter /sw/apps/gaussian-16.0/g16/l303.exe)
 DipDrv:  MaxL=1.
 Leave Link  303 at Fri Sep 10 19:02:29 2021, MaxMem= 23488102400 cpu:               9.0 elap:               0.4
 (Enter /sw/apps/gaussian-16.0/g16/l308.exe)
 Leave Link  308 at Fri Sep 10 19:02:30 2021, MaxMem= 23488102400 cpu:              15.7 elap:               0.7
 (Enter /sw/apps/gaussian-16.0/g16/l401.exe)
 ExpMin= 3.36D-02 ExpMax= 4.95D+03 ExpMxC= 7.45D+02 IAcc=3 IRadAn=         5 AccDes= 0.00D+00
 Harris functional with IExCor=20419 and IRadAn=       5 diagonalized for initial guess.
 HarFok:  IExCor=20419 AccDes= 0.00D+00 IRadAn=         5 IDoV= 1 UseB2=F ITyADJ=14
 ICtDFT=  3500011 ScaDFX=  1.000000  1.000000  1.000000  1.000000
 FoFCou: FMM=F IPFlag=           0 FMFlag=      100000 FMFlg1=        2001
         NFxFlg=           0 DoJE=T BraDBF=F KetDBF=T FulRan=T
         wScrn=  0.000000 ICntrl=       500 IOpCl=  0 I1Cent=   200000004 NGrid=           0
         NMat0=    1 NMatS0=      1 NMatT0=    0 NMatD0=    1 NMtDS0=    0 NMtDT0=    0
 Petite list used in FoFCou.
 Harris En= -3918.65881991204    
 JPrj=0 DoOrth=F DoCkMO=F.
 Leave Link  401 at Fri Sep 10 19:02:38 2021, MaxMem= 23488102400 cpu:             186.8 elap:               7.8
 (Enter /sw/apps/gaussian-16.0/g16/l502.exe)
 Integral symmetry usage will be decided dynamically.
 Closed shell SCF:
 Using DIIS extrapolation, IDIIS=  1040.
 NGot= 23488102400 LenX= 23482547354 LenY= 23479796732
 Requested convergence on RMS density matrix=1.00D-08 within 128 cycles.
 Requested convergence on MAX density matrix=1.00D-06.
 Requested convergence on             energy=1.00D-06.
 No special actions if energy rises.
 Fock matrices will be formed incrementally for  20 cycles.

 Cycle   1  Pass 1  IDiag  1:
 FoFJK:  IHMeth= 1 ICntrl=       0 DoSepK=T KAlg= 0 I1Cent=           0 FoldK=F
 IRaf=         1 NMat=       1 IRICut=       1 DoRegI=T DoRafI=F ISym2E= 0 IDoP0=0 IntGTp=1.
 FoFCou: FMM=T IPFlag=           0 FMFlag=      100000 FMFlg1=        2001
         NFxFlg=           0 DoJE=T BraDBF=F KetDBF=F FulRan=T
         wScrn=  0.000000 ICntrl=       500 IOpCl=  0 I1Cent=           0 NGrid=           0
         NMat0=    1 NMatS0=      1 NMatT0=    0 NMatD0=    1 NMtDS0=    0 NMtDT0=    0
 Symmetry not used in FoFCou.
 FMM levels:  10  Number of levels for PrismC:   9
 E= -4068.94152401540    
 DIIS: error= 2.03D-02 at cycle   1 NSaved=   1.
 NSaved= 1 IEnMin= 1 EnMin= -4068.94152401540     IErMin= 1 ErrMin= 2.03D-02
 ErrMax= 2.03D-02  0.00D+00 EMaxC= 1.00D-01 BMatC= 1.69D+00 BMatP= 1.69D+00
 IDIUse=3 WtCom= 7.97D-01 WtEn= 2.03D-01
 Coeff-Com:  0.100D+01
 Coeff-En:   0.100D+01
 Coeff:      0.100D+01
 Gap=     0.119 Goal=   None    Shift=    0.000
 GapD=    0.119 DampG=1.000 DampE=0.500 DampFc=0.5000 IDamp=-1.
 Damping current iteration by 5.00D-01
 RMSDP=1.58D-03 MaxDP=1.31D-01              OVMax= 2.17D-01

 Cycle   2  Pass 1  IDiag  1:
 RMSU=  7.74D-04    CP:  9.82D-01
 E= -4069.33091569868     Delta-E=       -0.389391683275 Rises=F Damp=T
 DIIS: error= 1.27D-02 at cycle   2 NSaved=   2.
 NSaved= 2 IEnMin= 2 EnMin= -4069.33091569868     IErMin= 2 ErrMin= 1.27D-02
 ErrMax= 1.27D-02  0.00D+00 EMaxC= 1.00D-01 BMatC= 3.08D-01 BMatP= 1.69D+00
 IDIUse=3 WtCom= 8.73D-01 WtEn= 1.27D-01
 Coeff-Com: -0.210D+00 0.121D+01
 Coeff-En:   0.000D+00 0.100D+01
 Coeff:     -0.184D+00 0.118D+01
 Gap=     0.139 Goal=   None    Shift=    0.000
 RMSDP=7.70D-04 MaxDP=1.01D-01 DE=-3.89D-01 OVMax= 1.99D-01

 Cycle   3  Pass 1  IDiag  1:
 RMSU=  7.39D-04    CP:  9.68D-01  1.23D+00
 E= -4069.61734438803     Delta-E=       -0.286428689353 Rises=F Damp=F
 DIIS: error= 1.65D-02 at cycle   3 NSaved=   3.
 NSaved= 3 IEnMin= 3 EnMin= -4069.61734438803     IErMin= 2 ErrMin= 1.27D-02
 ErrMax= 1.65D-02  0.00D+00 EMaxC= 1.00D-01 BMatC= 2.08D-01 BMatP= 3.08D-01
 IDIUse=3 WtCom= 8.35D-01 WtEn= 1.65D-01
 Coeff-Com: -0.268D+00 0.655D+00 0.612D+00
 Coeff-En:   0.000D+00 0.000D+00 0.100D+01
 Coeff:     -0.223D+00 0.547D+00 0.676D+00
 Gap=     0.127 Goal=   None    Shift=    0.000
 RMSDP=5.24D-04 MaxDP=5.09D-02 DE=-2.86D-01 OVMax= 1.67D-01

 Cycle   4  Pass 1  IDiag  1:
 RMSU=  2.72D-04    CP:  9.65D-01  1.55D+00  4.93D-01
 E= -4069.75574569040     Delta-E=       -0.138401302367 Rises=F Damp=F
 DIIS: error= 7.93D-03 at cycle   4 NSaved=   4.
 NSaved= 4 IEnMin= 4 EnMin= -4069.75574569040     IErMin= 4 ErrMin= 7.93D-03
 ErrMax= 7.93D-03  0.00D+00 EMaxC= 1.00D-01 BMatC= 5.53D-02 BMatP= 2.08D-01
 IDIUse=3 WtCom= 9.21D-01 WtEn= 7.93D-02
 Coeff-Com: -0.109D+00 0.227D+00 0.413D+00 0.469D+00
 Coeff-En:   0.000D+00 0.000D+00 0.237D+00 0.763D+00
 Coeff:     -0.101D+00 0.209D+00 0.399D+00 0.492D+00
 Gap=     0.122 Goal=   None    Shift=    0.000
 RMSDP=2.14D-04 MaxDP=2.26D-02 DE=-1.38D-01 OVMax= 7.93D-02

 Cycle   5  Pass 1  IDiag  1:
 RMSU=  8.28D-05    CP:  9.65D-01  1.48D+00  6.87D-01  5.34D-01
 E= -4069.80637355017     Delta-E=       -0.050627859768 Rises=F Damp=F
 DIIS: error= 7.44D-04 at cycle   5 NSaved=   5.
 NSaved= 5 IEnMin= 5 EnMin= -4069.80637355017     IErMin= 5 ErrMin= 7.44D-04
 ErrMax= 7.44D-04  0.00D+00 EMaxC= 1.00D-01 BMatC= 1.45D-03 BMatP= 5.53D-02
 IDIUse=3 WtCom= 9.93D-01 WtEn= 7.44D-03
 Coeff-Com: -0.373D-01 0.736D-01 0.175D+00 0.258D+00 0.531D+00
 Coeff-En:   0.000D+00 0.000D+00 0.000D+00 0.000D+00 0.100D+01
 Coeff:     -0.371D-01 0.730D-01 0.173D+00 0.256D+00 0.535D+00
 Gap=     0.121 Goal=   None    Shift=    0.000
 RMSDP=4.62D-05 MaxDP=4.82D-03 DE=-5.06D-02 OVMax= 2.33D-02

 Cycle   6  Pass 1  IDiag  1:
 RMSU=  3.27D-05    CP:  9.64D-01  1.49D+00  6.78D-01  6.14D-01  7.24D-01
 E= -4069.80771003491     Delta-E=       -0.001336484740 Rises=F Damp=F
 DIIS: error= 1.99D-04 at cycle   6 NSaved=   6.
 NSaved= 6 IEnMin= 6 EnMin= -4069.80771003491     IErMin= 6 ErrMin= 1.99D-04
 ErrMax= 1.99D-04  0.00D+00 EMaxC= 1.00D-01 BMatC= 2.07D-04 BMatP= 1.45D-03
 IDIUse=3 WtCom= 9.98D-01 WtEn= 1.99D-03
 Coeff-Com:  0.223D-02-0.672D-02 0.130D-01 0.434D-01 0.301D+00 0.648D+00
 Coeff-En:   0.000D+00 0.000D+00 0.000D+00 0.000D+00 0.106D+00 0.894D+00
 Coeff:      0.222D-02-0.671D-02 0.130D-01 0.433D-01 0.300D+00 0.648D+00
 Gap=     0.122 Goal=   None    Shift=    0.000
 RMSDP=1.78D-05 MaxDP=1.40D-03 DE=-1.34D-03 OVMax= 9.01D-03

 Cycle   7  Pass 1  IDiag  1:
 RMSU=  1.17D-05    CP:  9.64D-01  1.49D+00  6.84D-01  6.13D-01  8.34D-01
                    CP:  7.39D-01
 E= -4069.80794218960     Delta-E=       -0.000232154696 Rises=F Damp=F
 DIIS: error= 1.08D-04 at cycle   7 NSaved=   7.
 NSaved= 7 IEnMin= 7 EnMin= -4069.80794218960     IErMin= 7 ErrMin= 1.08D-04
 ErrMax= 1.08D-04  0.00D+00 EMaxC= 1.00D-01 BMatC= 2.63D-05 BMatP= 2.07D-04
 IDIUse=3 WtCom= 9.99D-01 WtEn= 1.08D-03
 Coeff-Com:  0.468D-02-0.103D-01-0.899D-02-0.277D-02 0.106D+00 0.339D+00
 Coeff-Com:  0.573D+00
 Coeff-En:   0.000D+00 0.000D+00 0.000D+00 0.000D+00 0.000D+00 0.000D+00
 Coeff-En:   0.100D+01
 Coeff:      0.467D-02-0.103D-01-0.899D-02-0.277D-02 0.106D+00 0.339D+00
 Coeff:      0.573D+00
 Gap=     0.122 Goal=   None    Shift=    0.000
 RMSDP=6.80D-06 MaxDP=1.15D-03 DE=-2.32D-04 OVMax= 3.75D-03

 Cycle   8  Pass 1  IDiag  1:
 RMSU=  4.87D-06    CP:  9.64D-01  1.49D+00  6.85D-01  6.18D-01  8.35D-01
                    CP:  8.60D-01  8.21D-01
 E= -4069.80797435799     Delta-E=       -0.000032168384 Rises=F Damp=F
 DIIS: error= 5.98D-05 at cycle   8 NSaved=   8.
 NSaved= 8 IEnMin= 8 EnMin= -4069.80797435799     IErMin= 8 ErrMin= 5.98D-05
 ErrMax= 5.98D-05  0.00D+00 EMaxC= 1.00D-01 BMatC= 5.26D-06 BMatP= 2.63D-05
 IDIUse=1 WtCom= 1.00D+00 WtEn= 0.00D+00
 Coeff-Com:  0.219D-02-0.436D-02-0.788D-02-0.120D-01-0.757D-02 0.319D-01
 Coeff-Com:  0.322D+00 0.676D+00
 Coeff:      0.219D-02-0.436D-02-0.788D-02-0.120D-01-0.757D-02 0.319D-01
 Coeff:      0.322D+00 0.676D+00
 Gap=     0.122 Goal=   None    Shift=    0.000
 RMSDP=3.46D-06 MaxDP=4.45D-04 DE=-3.22D-05 OVMax= 1.07D-03

 Cycle   9  Pass 1  IDiag  1:
 RMSU=  2.02D-06    CP:  9.64D-01  1.49D+00  6.85D-01  6.19D-01  8.52D-01
                    CP:  8.87D-01  1.01D+00  9.83D-01
 E= -4069.80798282519     Delta-E=       -0.000008467203 Rises=F Damp=F
 DIIS: error= 1.70D-05 at cycle   9 NSaved=   9.
 NSaved= 9 IEnMin= 9 EnMin= -4069.80798282519     IErMin= 9 ErrMin= 1.70D-05
 ErrMax= 1.70D-05  0.00D+00 EMaxC= 1.00D-01 BMatC= 7.91D-07 BMatP= 5.26D-06
 IDIUse=1 WtCom= 1.00D+00 WtEn= 0.00D+00
 Coeff-Com:  0.433D-03-0.701D-03-0.264D-02-0.598D-02-0.188D-01-0.426D-01
 Coeff-Com:  0.919D-01 0.326D+00 0.652D+00
 Coeff:      0.433D-03-0.701D-03-0.264D-02-0.598D-02-0.188D-01-0.426D-01
 Coeff:      0.919D-01 0.326D+00 0.652D+00
 Gap=     0.122 Goal=   None    Shift=    0.000
 RMSDP=1.53D-06 MaxDP=1.68D-04 DE=-8.47D-06 OVMax= 8.03D-04

 Cycle  10  Pass 1  IDiag  1:
 RMSU=  9.97D-07    CP:  9.64D-01  1.49D+00  6.85D-01  6.20D-01  8.56D-01
                    CP:  8.99D-01  1.06D+00  1.15D+00  1.09D+00
 E= -4069.80798469868     Delta-E=       -0.000001873490 Rises=F Damp=F
 DIIS: error= 1.10D-05 at cycle  10 NSaved=  10.
 NSaved=10 IEnMin=10 EnMin= -4069.80798469868     IErMin=10 ErrMin= 1.10D-05
 ErrMax= 1.10D-05  0.00D+00 EMaxC= 1.00D-01 BMatC= 2.11D-07 BMatP= 7.91D-07
 IDIUse=1 WtCom= 1.00D+00 WtEn= 0.00D+00
 Coeff-Com: -0.445D-03 0.935D-03 0.128D-02 0.105D-02-0.337D-02-0.331D-01
 Coeff-Com: -0.438D-01-0.789D-01 0.256D+00 0.900D+00
 Coeff:     -0.445D-03 0.935D-03 0.128D-02 0.105D-02-0.337D-02-0.331D-01
 Coeff:     -0.438D-01-0.789D-01 0.256D+00 0.900D+00
 Gap=     0.122 Goal=   None    Shift=    0.000
 RMSDP=1.34D-06 MaxDP=1.37D-04 DE=-1.87D-06 OVMax= 6.69D-04

 Cycle  11  Pass 1  IDiag  1:
 RMSU=  5.82D-07    CP:  9.64D-01  1.49D+00  6.85D-01  6.20D-01  8.58D-01
                    CP:  9.09D-01  1.11D+00  1.27D+00  1.44D+00  1.38D+00
 E= -4069.80798565354     Delta-E=       -0.000000954860 Rises=F Damp=F
 DIIS: error= 4.60D-06 at cycle  11 NSaved=  11.
 NSaved=11 IEnMin=11 EnMin= -4069.80798565354     IErMin=11 ErrMin= 4.60D-06
 ErrMax= 4.60D-06  0.00D+00 EMaxC= 1.00D-01 BMatC= 8.19D-08 BMatP= 2.11D-07
 IDIUse=1 WtCom= 1.00D+00 WtEn= 0.00D+00
 Coeff-Com: -0.341D-03 0.663D-03 0.140D-02 0.215D-02 0.440D-02-0.912D-02
 Coeff-Com: -0.405D-01-0.137D+00-0.302D-01 0.486D+00 0.722D+00
 Coeff:     -0.341D-03 0.663D-03 0.140D-02 0.215D-02 0.440D-02-0.912D-02
 Coeff:     -0.405D-01-0.137D+00-0.302D-01 0.486D+00 0.722D+00
 Gap=     0.122 Goal=   None    Shift=    0.000
 RMSDP=7.76D-07 MaxDP=7.09D-05 DE=-9.55D-07 OVMax= 4.51D-04

 Cycle  12  Pass 1  IDiag  1:
 RMSU=  2.95D-07    CP:  9.64D-01  1.49D+00  6.85D-01  6.20D-01  8.59D-01
                    CP:  9.11D-01  1.13D+00  1.34D+00  1.61D+00  1.79D+00
                    CP:  1.18D+00
 E= -4069.80798599022     Delta-E=       -0.000000336677 Rises=F Damp=F
 DIIS: error= 3.02D-06 at cycle  12 NSaved=  12.
 NSaved=12 IEnMin=12 EnMin= -4069.80798599022     IErMin=12 ErrMin= 3.02D-06
 ErrMax= 3.02D-06  0.00D+00 EMaxC= 1.00D-01 BMatC= 2.16D-08 BMatP= 8.19D-08
 IDIUse=1 WtCom= 1.00D+00 WtEn= 0.00D+00
 Coeff-Com: -0.169D-04 0.137D-04 0.273D-03 0.664D-03 0.375D-02 0.413D-02
 Coeff-Com:  0.962D-03-0.431D-01-0.804D-01-0.497D-01 0.288D+00 0.875D+00
 Coeff:     -0.169D-04 0.137D-04 0.273D-03 0.664D-03 0.375D-02 0.413D-02
 Coeff:      0.962D-03-0.431D-01-0.804D-01-0.497D-01 0.288D+00 0.875D+00
 Gap=     0.122 Goal=   None    Shift=    0.000
 RMSDP=5.02D-07 MaxDP=3.36D-05 DE=-3.37D-07 OVMax= 2.82D-04

 Cycle  13  Pass 1  IDiag  1:
 RMSU=  1.85D-07    CP:  9.64D-01  1.49D+00  6.85D-01  6.20D-01  8.60D-01
                    CP:  9.12D-01  1.13D+00  1.37D+00  1.74D+00  2.03D+00
                    CP:  1.60D+00  1.23D+00
 E= -4069.80798611322     Delta-E=       -0.000000123007 Rises=F Damp=F
 DIIS: error= 1.41D-06 at cycle  13 NSaved=  13.
 NSaved=13 IEnMin=13 EnMin= -4069.80798611322     IErMin=13 ErrMin= 1.41D-06
 ErrMax= 1.41D-06  0.00D+00 EMaxC= 1.00D-01 BMatC= 1.03D-08 BMatP= 2.16D-08
 IDIUse=1 WtCom= 1.00D+00 WtEn= 0.00D+00
 Coeff-Com:  0.123D-03-0.253D-03-0.374D-03-0.439D-03 0.799D-03 0.549D-02
 Coeff-Com:  0.188D-01 0.237D-01-0.367D-01-0.243D+00-0.153D+00 0.563D+00
 Coeff-Com:  0.822D+00
 Coeff:      0.123D-03-0.253D-03-0.374D-03-0.439D-03 0.799D-03 0.549D-02
 Coeff:      0.188D-01 0.237D-01-0.367D-01-0.243D+00-0.153D+00 0.563D+00
 Coeff:      0.822D+00
 Gap=     0.122 Goal=   None    Shift=    0.000
 RMSDP=4.04D-07 MaxDP=2.33D-05 DE=-1.23D-07 OVMax= 2.58D-04

 Cycle  14  Pass 1  IDiag  1:
 RMSU=  8.60D-08    CP:  9.64D-01  1.49D+00  6.85D-01  6.20D-01  8.60D-01
                    CP:  9.13D-01  1.14D+00  1.40D+00  1.82D+00  2.25D+00
                    CP:  1.87D+00  1.76D+00  1.12D+00
 E= -4069.80798616267     Delta-E=       -0.000000049447 Rises=F Damp=F
 DIIS: error= 7.41D-07 at cycle  14 NSaved=  14.
 NSaved=14 IEnMin=14 EnMin= -4069.80798616267     IErMin=14 ErrMin= 7.41D-07
 ErrMax= 7.41D-07  0.00D+00 EMaxC= 1.00D-01 BMatC= 1.69D-09 BMatP= 1.03D-08
 IDIUse=1 WtCom= 1.00D+00 WtEn= 0.00D+00
 Coeff-Com:  0.712D-04-0.140D-03-0.268D-03-0.411D-03-0.445D-03 0.146D-02
 Coeff-Com:  0.104D-01 0.214D-01 0.417D-02-0.108D+00-0.149D+00 0.754D-01
 Coeff-Com:  0.432D+00 0.714D+00
 Coeff:      0.712D-04-0.140D-03-0.268D-03-0.411D-03-0.445D-03 0.146D-02
 Coeff:      0.104D-01 0.214D-01 0.417D-02-0.108D+00-0.149D+00 0.754D-01
 Coeff:      0.432D+00 0.714D+00
 Gap=     0.122 Goal=   None    Shift=    0.000
 RMSDP=1.27D-07 MaxDP=7.22D-06 DE=-4.94D-08 OVMax= 6.88D-05

 Cycle  15  Pass 1  IDiag  1:
 RMSU=  4.24D-08    CP:  9.64D-01  1.49D+00  6.85D-01  6.20D-01  8.60D-01
                    CP:  9.12D-01  1.14D+00  1.41D+00  1.85D+00  2.30D+00
                    CP:  1.98D+00  1.91D+00  1.36D+00  1.04D+00
 E= -4069.80798616827     Delta-E=       -0.000000005602 Rises=F Damp=F
 DIIS: error= 3.70D-07 at cycle  15 NSaved=  15.
 NSaved=15 IEnMin=15 EnMin= -4069.80798616827     IErMin=15 ErrMin= 3.70D-07
 ErrMax= 3.70D-07  0.00D+00 EMaxC= 1.00D-01 BMatC= 2.38D-10 BMatP= 1.69D-09
 IDIUse=1 WtCom= 1.00D+00 WtEn= 0.00D+00
 Coeff-Com:  0.715D-05-0.123D-04-0.414D-04-0.960D-04-0.308D-03-0.502D-03
 Coeff-Com:  0.114D-02 0.342D-02 0.913D-02-0.681D-03-0.318D-01-0.720D-01
 Coeff-Com:  0.492D-01 0.281D+00 0.761D+00
 Coeff:      0.715D-05-0.123D-04-0.414D-04-0.960D-04-0.308D-03-0.502D-03
 Coeff:      0.114D-02 0.342D-02 0.913D-02-0.681D-03-0.318D-01-0.720D-01
 Coeff:      0.492D-01 0.281D+00 0.761D+00
 Gap=     0.122 Goal=   None    Shift=    0.000
 RMSDP=3.91D-08 MaxDP=2.48D-06 DE=-5.60D-09 OVMax= 2.92D-05

 Cycle  16  Pass 1  IDiag  1:
 RMSU=  2.08D-08    CP:  9.64D-01  1.49D+00  6.85D-01  6.20D-01  8.60D-01
                    CP:  9.12D-01  1.14D+00  1.41D+00  1.85D+00  2.31D+00
                    CP:  2.00D+00  1.96D+00  1.43D+00  1.23D+00  1.12D+00
 E= -4069.80798616911     Delta-E=       -0.000000000833 Rises=F Damp=F
 DIIS: error= 1.68D-07 at cycle  16 NSaved=  16.
 NSaved=16 IEnMin=16 EnMin= -4069.80798616911     IErMin=16 ErrMin= 1.68D-07
 ErrMax= 1.68D-07  0.00D+00 EMaxC= 1.00D-01 BMatC= 1.04D-10 BMatP= 2.38D-10
 IDIUse=1 WtCom= 1.00D+00 WtEn= 0.00D+00
 Coeff-Com: -0.140D-04 0.285D-04 0.454D-04 0.481D-04-0.545D-04-0.658D-03
 Coeff-Com: -0.188D-02-0.401D-02 0.442D-02 0.252D-01 0.206D-01-0.638D-01
 Coeff-Com: -0.728D-01-0.489D-01 0.414D+00 0.728D+00
 Coeff:     -0.140D-04 0.285D-04 0.454D-04 0.481D-04-0.545D-04-0.658D-03
 Coeff:     -0.188D-02-0.401D-02 0.442D-02 0.252D-01 0.206D-01-0.638D-01
 Coeff:     -0.728D-01-0.489D-01 0.414D+00 0.728D+00
 Gap=     0.122 Goal=   None    Shift=    0.000
 RMSDP=2.57D-08 MaxDP=1.75D-06 DE=-8.33D-10 OVMax= 1.36D-05

 Cycle  17  Pass 1  IDiag  1:
 RMSU=  1.15D-08    CP:  9.64D-01  1.49D+00  6.85D-01  6.20D-01  8.60D-01
                    CP:  9.12D-01  1.14D+00  1.41D+00  1.85D+00  2.32D+00
                    CP:  2.01D+00  1.98D+00  1.48D+00  1.32D+00  1.41D+00
                    CP:  1.20D+00
 E= -4069.80798616935     Delta-E=       -0.000000000247 Rises=F Damp=F
 DIIS: error= 8.46D-08 at cycle  17 NSaved=  17.
 NSaved=17 IEnMin=17 EnMin= -4069.80798616935     IErMin=17 ErrMin= 8.46D-08
 ErrMax= 8.46D-08  0.00D+00 EMaxC= 1.00D-01 BMatC= 1.95D-11 BMatP= 1.04D-10
 IDIUse=1 WtCom= 1.00D+00 WtEn= 0.00D+00
 Coeff-Com: -0.759D-05 0.148D-04 0.300D-04 0.433D-04 0.727D-04-0.141D-03
 Coeff-Com: -0.943D-03-0.284D-02-0.212D-04 0.100D-01 0.182D-01-0.948D-02
 Coeff-Com: -0.337D-01-0.102D+00-0.756D-02 0.278D+00 0.850D+00
 Coeff:     -0.759D-05 0.148D-04 0.300D-04 0.433D-04 0.727D-04-0.141D-03
 Coeff:     -0.943D-03-0.284D-02-0.212D-04 0.100D-01 0.182D-01-0.948D-02
 Coeff:     -0.337D-01-0.102D+00-0.756D-02 0.278D+00 0.850D+00
 Gap=     0.122 Goal=   None    Shift=    0.000
 RMSDP=1.39D-08 MaxDP=8.90D-07 DE=-2.47D-10 OVMax= 9.44D-06

 Cycle  18  Pass 1  IDiag  1:
 RMSU=  5.71D-09    CP:  9.64D-01  1.49D+00  6.85D-01  6.20D-01  8.60D-01
                    CP:  9.12D-01  1.14D+00  1.41D+00  1.85D+00  2.32D+00
                    CP:  2.02D+00  1.99D+00  1.50D+00  1.38D+00  1.56D+00
                    CP:  1.58D+00  1.34D+00
 E= -4069.80798616967     Delta-E=       -0.000000000313 Rises=F Damp=F
 DIIS: error= 5.55D-08 at cycle  18 NSaved=  18.
 NSaved=18 IEnMin=18 EnMin= -4069.80798616967     IErMin=18 ErrMin= 5.55D-08
 ErrMax= 5.55D-08  0.00D+00 EMaxC= 1.00D-01 BMatC= 8.95D-12 BMatP= 1.95D-11
 IDIUse=1 WtCom= 1.00D+00 WtEn= 0.00D+00
 Coeff-Com:  0.828D-06-0.201D-05 0.132D-06 0.539D-05 0.656D-04 0.162D-03
 Coeff-Com:  0.217D-03-0.137D-03-0.134D-02-0.425D-02 0.232D-02 0.149D-01
 Coeff-Com:  0.118D-01-0.402D-01-0.145D+00-0.145D+00 0.429D+00 0.877D+00
 Coeff:      0.828D-06-0.201D-05 0.132D-06 0.539D-05 0.656D-04 0.162D-03
 Coeff:      0.217D-03-0.137D-03-0.134D-02-0.425D-02 0.232D-02 0.149D-01
 Coeff:      0.118D-01-0.402D-01-0.145D+00-0.145D+00 0.429D+00 0.877D+00
 Gap=     0.122 Goal=   None    Shift=    0.000
 RMSDP=1.12D-08 MaxDP=6.88D-07 DE=-3.13D-10 OVMax= 5.96D-06

 Cycle  19  Pass 1  IDiag  1:
 RMSU=  3.31D-09    CP:  9.64D-01  1.49D+00  6.85D-01  6.20D-01  8.60D-01
                    CP:  9.12D-01  1.14D+00  1.41D+00  1.85D+00  2.32D+00
                    CP:  2.02D+00  1.99D+00  1.51D+00  1.42D+00  1.69D+00
                    CP:  1.84D+00  1.83D+00  1.20D+00
 E= -4069.80798616950     Delta-E=        0.000000000164 Rises=F Damp=F
 DIIS: error= 2.43D-08 at cycle  19 NSaved=  19.
 NSaved=19 IEnMin=18 EnMin= -4069.80798616967     IErMin=19 ErrMin= 2.43D-08
 ErrMax= 2.43D-08  0.00D+00 EMaxC= 1.00D-01 BMatC= 2.29D-12 BMatP= 8.95D-12
 IDIUse=1 WtCom= 1.00D+00 WtEn= 0.00D+00
 Coeff-Com:  0.295D-05-0.599D-05-0.969D-05-0.110D-04 0.212D-04 0.143D-03
 Coeff-Com:  0.460D-03 0.805D-03-0.747D-03-0.621D-02-0.445D-02 0.122D-01
 Coeff-Com:  0.206D-01 0.865D-02-0.818D-01-0.190D+00 0.337D-02 0.511D+00
 Coeff-Com:  0.726D+00
 Coeff:      0.295D-05-0.599D-05-0.969D-05-0.110D-04 0.212D-04 0.143D-03
 Coeff:      0.460D-03 0.805D-03-0.747D-03-0.621D-02-0.445D-02 0.122D-01
 Coeff:      0.206D-01 0.865D-02-0.818D-01-0.190D+00 0.337D-02 0.511D+00
 Coeff:      0.726D+00
 Gap=     0.122 Goal=   None    Shift=    0.000
 RMSDP=5.51D-09 MaxDP=4.95D-07 DE= 1.64D-10 OVMax= 3.78D-06

 SCF Done:  E(RCAM-B3LYP) =  -4069.80798617     A.U. after   19 cycles
            NFock= 19  Conv=0.55D-08     -V/T= 2.0102
 KE= 4.028800723124D+03 PE=-4.018164301196D+04 EE= 1.673352478368D+04
 Leave Link  502 at Fri Sep 10 19:14:03 2021, MaxMem= 23488102400 cpu:           15806.2 elap:             685.0
 (Enter /sw/apps/gaussian-16.0/g16/l801.exe)
 DoSCS=F DFT=T ScalE2(SS,OS)=  1.000000  1.000000
 ExpMin= 3.36D-02 ExpMax= 4.95D+03 ExpMxC= 7.45D+02 IAcc=3 IRadAn=         5 AccDes= 0.00D+00
 HarFok:  IExCor=  205 AccDes= 0.00D+00 IRadAn=         5 IDoV=-2 UseB2=F ITyADJ=14
 ICtDFT= 12500011 ScaDFX=  1.000000  1.000000  1.000000  1.000000
 GSVD:  LWork=       -9588 too small for GESVD, short by       45590 words or       45590 for optimal perf.
 Largest valence mixing into a core orbital is  2.03D-04
 Largest core mixing into a valence orbital is  5.23D-05
 Range of M.O.s used for correlation:    95  1572
 NBasis=  1572 NAE=   312 NBE=   312 NFC=    94 NFV=     0
 NROrb=   1478 NOA=   218 NOB=   218 NVA=  1260 NVB=  1260
 Leave Link  801 at Fri Sep 10 19:14:03 2021, MaxMem= 23488102400 cpu:               7.9 elap:               0.4
 (Enter /sw/apps/gaussian-16.0/g16/l914.exe)
 RHF ground state
 Two-electron integrals replicated using symmetry.
 MDV= 23488102400 DFT=T DoStab=F Mixed=T DoRPA=T DoScal=F NonHer=T
 Making orbital integer symmetry assigments:
 Orbital symmetries:
       Occupied  (A) (A) (A) (A) (A) (A) (A) (A) (A) (A) (A) (A)
                 (A) (A) (A) (A) (A) (A) (A) (A) (A) (A) (A) (A)
                 (A) (A) (A) (A) (A) (A) (A) (A) (A) (A) (A) (A)
                 (A) (A) (A) (A) (A) (A) (A) (A) (A) (A) (A) (A)
                 (A) (A) (A) (A) (A) (A) (A) (A) (A) (A) (A) (A)
                 (A) (A) (A) (A) (A) (A) (A) (A) (A) (A) (A) (A)
                 (A) (A) (A) (A) (A) (A) (A) (A) (A) (A) (A) (A)
                 (A) (A) (A) (A) (A) (A) (A) (A) (A) (A) (A) (A)
                 (A) (A) (A) (A) (A) (A) (A) (A) (A) (A) (A) (A)
                 (A) (A) (A) (A) (A) (A) (A) (A) (A) (A) (A) (A)
                 (A) (A) (A) (A) (A) (A) (A) (A) (A) (A) (A) (A)
                 (A) (A) (A) (A) (A) (A) (A) (A) (A) (A) (A) (A)
                 (A) (A) (A) (A) (A) (A) (A) (A) (A) (A) (A) (A)
                 (A) (A) (A) (A) (A) (A) (A) (A) (A) (A) (A) (A)
                 (A) (A) (A) (A) (A) (A) (A) (A) (A) (A) (A) (A)
                 (A) (A) (A) (A) (A) (A) (A) (A) (A) (A) (A) (A)
                 (A) (A) (A) (A) (A) (A) (A) (A) (A) (A) (A) (A)
                 (A) (A) (A) (A) (A) (A) (A) (A) (A) (A) (A) (A)
                 (A) (A) (A) (A) (A) (A) (A) (A) (A) (A) (A) (A)
                 (A) (A) (A) (A) (A) (A) (A) (A) (A) (A) (A) (A)
                 (A) (A) (A) (A) (A) (A) (A) (A) (A) (A) (A) (A)
                 (A) (A) (A) (A) (A) (A) (A) (A) (A) (A) (A) (A)
                 (A) (A) (A) (A) (A) (A) (A) (A) (A) (A) (A) (A)
                 (A) (A) (A) (A) (A) (A) (A) (A) (A) (A) (A) (A)
                 (A) (A) (A) (A) (A) (A) (A) (A) (A) (A) (A) (A)
                 (A) (A) (A) (A) (A) (A) (A) (A) (A) (A) (A) (A)
       Virtual   (A) (A) (A) (A) (A) (A) (A) (A) (A) (A) (A) (A)
                 (A) (A) (A) (A) (A) (A) (A) (A) (A) (A) (A) (A)
                 (A) (A) (A) (A) (A) (A) (A) (A) (A) (A) (A) (A)
                 (A) (A) (A) (A) (A) (A) (A) (A) (A) (A) (A) (A)
                 (A) (A) (A) (A) (A) (A) (A) (A) (A) (A) (A) (A)
                 (A) (A) (A) (A) (A) (A) (A) (A) (A) (A) (A) (A)
                 (A) (A) (A) (A) (A) (A) (A) (A) (A) (A) (A) (A)
                 (A) (A) (A) (A) (A) (A) (A) (A) (A) (A) (A) (A)
                 (A) (A) (A) (A) (A) (A) (A) (A) (A) (A) (A) (A)
                 (A) (A) (A) (A) (A) (A) (A) (A) (A) (A) (A) (A)
                 (A) (A) (A) (A) (A) (A) (A) (A) (A) (A) (A) (A)
                 (A) (A) (A) (A) (A) (A) (A) (A) (A) (A) (A) (A)
                 (A) (A) (A) (A) (A) (A) (A) (A) (A) (A) (A) (A)
                 (A) (A) (A) (A) (A) (A) (A) (A) (A) (A) (A) (A)
                 (A) (A) (A) (A) (A) (A) (A) (A) (A) (A) (A) (A)
                 (A) (A) (A) (A) (A) (A) (A) (A) (A) (A) (A) (A)
                 (A) (A) (A) (A) (A) (A) (A) (A) (A) (A) (A) (A)
                 (A) (A) (A) (A) (A) (A) (A) (A) (A) (A) (A) (A)
                 (A) (A) (A) (A) (A) (A) (A) (A) (A) (A) (A) (A)
                 (A) (A) (A) (A) (A) (A) (A) (A) (A) (A) (A) (A)
                 (A) (A) (A) (A) (A) (A) (A) (A) (A) (A) (A) (A)
                 (A) (A) (A) (A) (A) (A) (A) (A) (A) (A) (A) (A)
                 (A) (A) (A) (A) (A) (A) (A) (A) (A) (A) (A) (A)
                 (A) (A) (A) (A) (A) (A) (A) (A) (A) (A) (A) (A)
                 (A) (A) (A) (A) (A) (A) (A) (A) (A) (A) (A) (A)
                 (A) (A) (A) (A) (A) (A) (A) (A) (A) (A) (A) (A)
                 (A) (A) (A) (A) (A) (A) (A) (A) (A) (A) (A) (A)
                 (A) (A) (A) (A) (A) (A) (A) (A) (A) (A) (A) (A)
                 (A) (A) (A) (A) (A) (A) (A) (A) (A) (A) (A) (A)
                 (A) (A) (A) (A) (A) (A) (A) (A) (A) (A) (A) (A)
                 (A) (A) (A) (A) (A) (A) (A) (A) (A) (A) (A) (A)
                 (A) (A) (A) (A) (A) (A) (A) (A) (A) (A) (A) (A)
                 (A) (A) (A) (A) (A) (A) (A) (A) (A) (A) (A) (A)
                 (A) (A) (A) (A) (A) (A) (A) (A) (A) (A) (A) (A)
                 (A) (A) (A) (A) (A) (A) (A) (A) (A) (A) (A) (A)
                 (A) (A) (A) (A) (A) (A) (A) (A) (A) (A) (A) (A)
                 (A) (A) (A) (A) (A) (A) (A) (A) (A) (A) (A) (A)
                 (A) (A) (A) (A) (A) (A) (A) (A) (A) (A) (A) (A)
                 (A) (A) (A) (A) (A) (A) (A) (A) (A) (A) (A) (A)
                 (A) (A) (A) (A) (A) (A) (A) (A) (A) (A) (A) (A)
                 (A) (A) (A) (A) (A) (A) (A) (A) (A) (A) (A) (A)
                 (A) (A) (A) (A) (A) (A) (A) (A) (A) (A) (A) (A)
                 (A) (A) (A) (A) (A) (A) (A) (A) (A) (A) (A) (A)
                 (A) (A) (A) (A) (A) (A) (A) (A) (A) (A) (A) (A)
                 (A) (A) (A) (A) (A) (A) (A) (A) (A) (A) (A) (A)
                 (A) (A) (A) (A) (A) (A) (A) (A) (A) (A) (A) (A)
                 (A) (A) (A) (A) (A) (A) (A) (A) (A) (A) (A) (A)
                 (A) (A) (A) (A) (A) (A) (A) (A) (A) (A) (A) (A)
                 (A) (A) (A) (A) (A) (A) (A) (A) (A) (A) (A) (A)
                 (A) (A) (A) (A) (A) (A) (A) (A) (A) (A) (A) (A)
                 (A) (A) (A) (A) (A) (A) (A) (A) (A) (A) (A) (A)
                 (A) (A) (A) (A) (A) (A) (A) (A) (A) (A) (A) (A)
                 (A) (A) (A) (A) (A) (A) (A) (A) (A) (A) (A) (A)
                 (A) (A) (A) (A) (A) (A) (A) (A) (A) (A) (A) (A)
                 (A) (A) (A) (A) (A) (A) (A) (A) (A) (A) (A) (A)
                 (A) (A) (A) (A) (A) (A) (A) (A) (A) (A) (A) (A)
                 (A) (A) (A) (A) (A) (A) (A) (A) (A) (A) (A) (A)
                 (A) (A) (A) (A) (A) (A) (A) (A) (A) (A) (A) (A)
                 (A) (A) (A) (A) (A) (A) (A) (A) (A) (A) (A) (A)
                 (A) (A) (A) (A) (A) (A) (A) (A) (A) (A) (A) (A)
                 (A) (A) (A) (A) (A) (A) (A) (A) (A) (A) (A) (A)
                 (A) (A) (A) (A) (A) (A) (A) (A) (A) (A) (A) (A)
                 (A) (A) (A) (A) (A) (A) (A) (A) (A) (A) (A) (A)
                 (A) (A) (A) (A) (A) (A) (A) (A) (A) (A) (A) (A)
                 (A) (A) (A) (A) (A) (A) (A) (A) (A) (A) (A) (A)
                 (A) (A) (A) (A) (A) (A) (A) (A) (A) (A) (A) (A)
                 (A) (A) (A) (A) (A) (A) (A) (A) (A) (A) (A) (A)
                 (A) (A) (A) (A) (A) (A) (A) (A) (A) (A) (A) (A)
                 (A) (A) (A) (A) (A) (A) (A) (A) (A) (A) (A) (A)
                 (A) (A) (A) (A) (A) (A) (A) (A) (A) (A) (A) (A)
                 (A) (A) (A) (A) (A) (A) (A) (A) (A) (A) (A) (A)
                 (A) (A) (A) (A) (A) (A) (A) (A) (A) (A) (A) (A)
                 (A) (A) (A) (A) (A) (A) (A) (A) (A) (A) (A) (A)
                 (A) (A) (A) (A) (A) (A) (A) (A) (A) (A) (A) (A)
                 (A) (A) (A) (A) (A) (A) (A) (A) (A) (A) (A) (A)
                 (A) (A) (A) (A) (A) (A) (A) (A) (A) (A) (A) (A)
                 (A) (A) (A) (A) (A) (A) (A) (A) (A) (A) (A) (A)
                 (A) (A) (A) (A) (A) (A) (A) (A) (A) (A) (A) (A)
                 (A) (A) (A) (A) (A) (A) (A) (A) (A) (A) (A) (A)
                 (A) (A) (A) (A) (A) (A) (A) (A) (A) (A) (A) (A)
                 (A) (A) (A) (A) (A) (A) (A) (A) (A) (A) (A) (A)
                 (A) (A) (A) (A) (A) (A) (A) (A) (A) (A) (A) (A)
                 (A) (A) (A) (A) (A) (A) (A) (A) (A) (A) (A) (A)
                 (A) (A) (A) (A) (A) (A) (A) (A) (A) (A) (A) (A)
                 (A) (A) (A) (A) (A) (A) (A) (A) (A) (A) (A) (A)
                 (A) (A) (A) (A) (A) (A) (A) (A) (A) (A) (A) (A)
                 (A) (A) (A) (A) (A) (A) (A) (A) (A) (A) (A) (A)
                 (A) (A) (A) (A) (A) (A) (A) (A) (A) (A) (A) (A)
                 (A) (A) (A) (A) (A) (A) (A) (A) (A) (A) (A) (A)
                 (A) (A) (A) (A) (A) (A) (A) (A) (A) (A) (A) (A)
                 (A) (A) (A) (A) (A) (A) (A) (A) (A) (A) (A) (A)
                 (A) (A) (A) (A) (A) (A) (A) (A) (A) (A) (A) (A)
                 (A) (A) (A) (A) (A) (A) (A) (A) (A) (A) (A) (A)
                 (A) (A) (A) (A) (A) (A) (A) (A) (A) (A) (A) (A)
                 (A) (A) (A) (A) (A) (A) (A) (A) (A) (A) (A) (A)
                 (A) (A) (A) (A) (A) (A) (A) (A) (A) (A) (A) (A)
                 (A) (A) (A) (A) (A) (A) (A) (A) (A) (A) (A) (A)
                 (A) (A) (A) (A) (A) (A) (A) (A) (A) (A) (A) (A)
                 (A) (A) (A) (A) (A) (A) (A) (A) (A) (A) (A) (A)
                 (A) (A) (A) (A) (A) (A) (A) (A) (A) (A) (A) (A)
                 (A) (A) (A) (A) (A) (A) (A) (A) (A) (A) (A) (A)
                 (A) (A) (A) (A) (A) (A) (A) (A) (A) (A) (A) (A)
                 (A) (A) (A) (A) (A) (A) (A) (A) (A) (A) (A) (A)
                 (A) (A) (A) (A) (A) (A) (A) (A) (A) (A) (A) (A)
                 (A) (A) (A) (A) (A) (A) (A) (A) (A) (A) (A) (A)
    20 initial guesses have been made.
 Convergence on wavefunction:    0.001000000000000
 Davidson Disk Diagonalization:  ConvIn= 1.00D-03 SkipCon=T Conv= 1.00D-03.
 Max sub-space:  2000 roots to seek:    20 dimension of matrix:       549360
 Iteration     1 Dimension    20 NMult     0 NNew     20
 CISAX will form    20 AO SS matrices at one time.
 NMat=    20 NSing=    20 JSym2X= 0.
 FoFJK:  IHMeth= 1 ICntrl=       0 DoSepK=T KAlg= 0 I1Cent=           0 FoldK=F
 IRaf=         1 NMat=      40 IRICut=       1 DoRegI=T DoRafI=F ISym2E= 0 IDoP0=3 IntGTp=3.
 FoFCou: FMM=T IPFlag=           0 FMFlag=      100000 FMFlg1=        2001
         NFxFlg=           0 DoJE=F BraDBF=F KetDBF=F FulRan=T
         wScrn=  0.000000 ICntrl=       500 IOpCl=  0 I1Cent=           0 NGrid=           0
         NMat0=   20 NMatS0=     20 NMatT0=    0 NMatD0=   20 NMtDS0=    0 NMtDT0=    0
 Symmetry not used in FoFCou.
 FMM levels:  10  Number of levels for PrismC:   9
 New state      2 was old state      4
 New state      3 was old state      7
 New state      4 was old state      6
 New state      5 was old state      2
 Excitation Energies [eV] at current iteration:
 Root      1 :     2.471263563383752
 Root      2 :     2.546189076264643
 Root      3 :     2.612083503645496
 Root      4 :     2.623988438035962
 Root      5 :     2.655627643005294
 Root      6 :     2.721244460882943
 Root      7 :     3.256056386300287
 Root      8 :     3.332996175286132
 Root      9 :     3.608675173787647
 Root     10 :     3.653275978503479
 Root     11 :     3.739904593320942
 Root     12 :     3.765340775426733
 Root     13 :     4.257761632540819
 Root     14 :     4.343452223623356
 Root     15 :     4.442862596880566
 Root     16 :     4.448254628749633
 Root     17 :     4.451051941733117
 Root     18 :     4.674399682154970
 Root     19 :     4.748548007831495
 Root     20 :     4.967649964212963
 Iteration     2 Dimension    30 NMult    20 NNew     10
 CISAX will form    10 AO SS matrices at one time.
 NMat=    10 NSing=    10 JSym2X= 0.
 New state      1 was old state      5
 Root      1 not converged, maximum delta is    0.168387204428880
 New state      2 was old state      3
 Root      2 not converged, maximum delta is    0.146895249585070
 New state      3 was old state      4
 Root      3 not converged, maximum delta is    0.144521965945677
 New state      4 was old state      1
 Root      4 not converged, maximum delta is    0.035172301564935
 New state      5 was old state      2
 Root      5 not converged, maximum delta is    0.017411719451007
 Excitation Energies [eV] at current iteration:
 Root      1 :     1.784998611755336   Change is   -0.870629031249958
 Root      2 :     2.229879270831880   Change is   -0.382204232813616
 Root      3 :     2.235689570571968   Change is   -0.388298867463994
 Root      4 :     2.461725021442838   Change is   -0.009538541940914
 Root      5 :     2.541966790874424   Change is   -0.004222285390219
 Iteration     3 Dimension    40 NMult    30 NNew     10
 CISAX will form    10 AO SS matrices at one time.
 NMat=    10 NSing=    10 JSym2X= 0.
 Root      1 not converged, maximum delta is    0.053752008677718
 New state      2 was old state      3
 Root      2 not converged, maximum delta is    0.445820916245684
 New state      3 was old state      2
 Root      3 not converged, maximum delta is    0.031081716407223
 No map to state      4
 New state      5 was old state      4
 Root      5 not converged, maximum delta is    0.013360419159573
 Excitation Energies [eV] at current iteration:
 Root      1 :     1.678992957214644   Change is   -0.106005654540692
 Root      2 :     1.788269111693147   Change is   -0.447420458878821
 Root      3 :     2.189269276323109   Change is   -0.040609994508771
 Root      4 :     2.204915580089357
 Root      5 :     2.461807835214501   Change is    0.000082813771664
 Iteration     4 Dimension    50 NMult    40 NNew     10
 CISAX will form    10 AO SS matrices at one time.
 NMat=    10 NSing=    10 JSym2X= 0.
 Root      1 not converged, maximum delta is    0.010550474330662
 Root      2 not converged, maximum delta is    0.032674995463972
 Root      3 not converged, maximum delta is    0.008027550444121
 Root      4 not converged, maximum delta is    0.008931254668307
 Root      5 has converged.
 Excitation Energies [eV] at current iteration:
 Root      1 :     1.662128299190580   Change is   -0.016864658024063
 Root      2 :     1.707086592406526   Change is   -0.081182519286621
 Root      3 :     2.182188385800420   Change is   -0.007080890522689
 Root      4 :     2.195345941558286   Change is   -0.009569638531071
 Root      5 :     2.461778134303036   Change is   -0.000029700911465
 Iteration     5 Dimension    58 NMult    50 NNew      8
 CISAX will form     8 AO SS matrices at one time.
 NMat=     8 NSing=     8 JSym2X= 0.
 Root      1 not converged, maximum delta is    0.001517921626838
 Root      2 not converged, maximum delta is    0.011109103190057
 Root      3 not converged, maximum delta is    0.001931310686796
 Root      4 not converged, maximum delta is    0.001733288540703
 Root      5 has converged.
 Excitation Energies [eV] at current iteration:
 Root      1 :     1.660354280455046   Change is   -0.001774018735534
 Root      2 :     1.694920984639735   Change is   -0.012165607766790
 Root      3 :     2.181369372557229   Change is   -0.000819013243190
 Root      4 :     2.194325512660131   Change is   -0.001020428898155
 Root      5 :     2.461777540666260   Change is   -0.000000593636776
 Iteration     6 Dimension    66 NMult    58 NNew      8
 CISAX will form     8 AO SS matrices at one time.
 NMat=     8 NSing=     8 JSym2X= 0.
 Root      1 not converged, maximum delta is    0.001011491036892
 Root      2 not converged, maximum delta is    0.001181006668662
 Root      3 has converged.
 Root      4 has converged.
 Root      5 has converged.
 Excitation Energies [eV] at current iteration:
 Root      1 :     1.660106056693655   Change is   -0.000248223761392
 Root      2 :     1.693655569784983   Change is   -0.001265414854752
 Root      3 :     2.181245407040257   Change is   -0.000123965516973
 Root      4 :     2.194183204343185   Change is   -0.000142308316946
 Root      5 :     2.461777365089762   Change is   -0.000000175576498
 Iteration     7 Dimension    70 NMult    66 NNew      4
 CISAX will form     4 AO SS matrices at one time.
 NMat=     4 NSing=     4 JSym2X= 0.
 Root      1 has converged.
 Root      2 has converged.
 Root      3 has converged.
 Root      4 has converged.
 Root      5 has converged.
 Excitation Energies [eV] at current iteration:
[...]
 Alpha virt. eigenvalues --    1.84681   1.84764   1.84942   1.85150   1.85261
 Alpha virt. eigenvalues --    1.85352   1.85498   1.85612   1.85677   1.85909
 Alpha virt. eigenvalues --    1.86083   1.86292   1.86576   1.86633   1.86833
 Alpha virt. eigenvalues --    1.86876   1.86961   1.87077   1.87221   1.87464
 Alpha virt. eigenvalues --    1.87712   1.87850   1.87987   1.88104   1.88197
 Alpha virt. eigenvalues --    1.88219   1.88327   1.88395   1.88713   1.88861
 Alpha virt. eigenvalues --    1.89104   1.89173   1.89243   1.89428   1.89817
 Alpha virt. eigenvalues --    1.89936   1.90025   1.90166   1.90350   1.90514
 Alpha virt. eigenvalues --    1.91056   1.91171   1.91566   1.91665   1.91781
 Alpha virt. eigenvalues --    1.91831   1.92401   1.92572   1.92824   1.93030
 Alpha virt. eigenvalues --    1.93314   1.93393   1.93631   1.93675   1.94474
 Alpha virt. eigenvalues --    1.94609   1.94996   1.95014   1.95726   1.95744
 Alpha virt. eigenvalues --    1.95980   1.96126   1.96180   1.96349   1.96388
 Alpha virt. eigenvalues --    1.96468   1.96651   1.96995   1.97081   1.97253
 Alpha virt. eigenvalues --    1.97719   1.97812   1.98032   1.98187   1.98321
 Alpha virt. eigenvalues --    1.98497   1.98659   1.99139   1.99277   1.99521
 Alpha virt. eigenvalues --    2.00082   2.00236   2.00896   2.01027   2.01285
 Alpha virt. eigenvalues --    2.01466   2.01652   2.01774   2.01889   2.02011
 Alpha virt. eigenvalues --    2.02062   2.02159   2.02867   2.03129   2.03282
 Alpha virt. eigenvalues --    2.03538   2.03560   2.03777   2.03878   2.03958
 Alpha virt. eigenvalues --    2.04251   2.04432   2.05140   2.05299   2.05789
 Alpha virt. eigenvalues --    2.05868   2.06460   2.06473   2.07253   2.07415
 Alpha virt. eigenvalues --    2.07583   2.07645   2.08695   2.08899   2.09186
 Alpha virt. eigenvalues --    2.09353   2.09791   2.10014   2.11013   2.11178
 Alpha virt. eigenvalues --    2.11547   2.11609   2.11697   2.11988   2.12026
 Alpha virt. eigenvalues --    2.12094   2.12632   2.12865   2.12953   2.13024
 Alpha virt. eigenvalues --    2.13164   2.13236   2.13783   2.14191   2.14419
 Alpha virt. eigenvalues --    2.14430   2.15558   2.15723   2.16256   2.16329
 Alpha virt. eigenvalues --    2.16749   2.16870   2.17133   2.17488   2.17744
 Alpha virt. eigenvalues --    2.17804   2.18057   2.18071   2.18196   2.18493
 Alpha virt. eigenvalues --    2.18794   2.18907   2.19331   2.19486   2.20007
 Alpha virt. eigenvalues --    2.20065   2.20435   2.20533   2.20588   2.20622
 Alpha virt. eigenvalues --    2.21292   2.21475   2.21944   2.22069   2.22183
 Alpha virt. eigenvalues --    2.22193   2.22851   2.23054   2.23515   2.23694
 Alpha virt. eigenvalues --    2.24659   2.24774   2.25155   2.25223   2.26627
 Alpha virt. eigenvalues --    2.26739   2.27121   2.27183   2.27385   2.27536
 Alpha virt. eigenvalues --    2.28445   2.28512   2.29582   2.29618   2.30053
 Alpha virt. eigenvalues --    2.30154   2.30771   2.30848   2.31007   2.31379
 Alpha virt. eigenvalues --    2.31437   2.31674   2.32388   2.32466   2.33405
 Alpha virt. eigenvalues --    2.33545   2.33650   2.33831   2.34284   2.34462
 Alpha virt. eigenvalues --    2.35507   2.35861   2.36063   2.36181   2.36514
 Alpha virt. eigenvalues --    2.36602   2.36733   2.36998   2.37845   2.38015
 Alpha virt. eigenvalues --    2.38523   2.38578   2.38902   2.39254   2.39874
 Alpha virt. eigenvalues --    2.39976   2.40403   2.40513   2.40897   2.40967
 Alpha virt. eigenvalues --    2.41369   2.41656   2.41849   2.41976   2.42343
 Alpha virt. eigenvalues --    2.42489   2.42950   2.43197   2.43259   2.44002
 Alpha virt. eigenvalues --    2.44112   2.44553   2.44964   2.45089   2.45184
 Alpha virt. eigenvalues --    2.45268   2.45805   2.45953   2.46448   2.46621
 Alpha virt. eigenvalues --    2.46786   2.46864   2.47020   2.47205   2.47562
 Alpha virt. eigenvalues --    2.47620   2.48033   2.48076   2.49520   2.49614
 Alpha virt. eigenvalues --    2.50019   2.50298   2.50583   2.50807   2.51460
 Alpha virt. eigenvalues --    2.51563   2.51752   2.52267   2.52522   2.52880
 Alpha virt. eigenvalues --    2.53190   2.53293   2.54097   2.54247   2.54416
 Alpha virt. eigenvalues --    2.54433   2.54990   2.55210   2.55836   2.55878
 Alpha virt. eigenvalues --    2.58199   2.58223   2.58957   2.59028   2.60487
 Alpha virt. eigenvalues --    2.60679   2.61000   2.61041   2.61954   2.62033
 Alpha virt. eigenvalues --    2.62573   2.62903   2.63313   2.63341   2.64294
 Alpha virt. eigenvalues --    2.64341   2.64511   2.64551   2.65232   2.65434
 Alpha virt. eigenvalues --    2.65987   2.66170   2.66940   2.67079   2.67170
 Alpha virt. eigenvalues --    2.67237   2.68112   2.68258   2.68946   2.69171
 Alpha virt. eigenvalues --    2.69203   2.69478   2.69697   2.69728   2.70263
 Alpha virt. eigenvalues --    2.70337   2.71190   2.71339   2.72021   2.72432
 Alpha virt. eigenvalues --    2.72652   2.72859   2.73070   2.73404   2.73505
 Alpha virt. eigenvalues --    2.73526   2.73717   2.74277   2.74707   2.74934
 Alpha virt. eigenvalues --    2.75208   2.75411   2.76660   2.76907   2.77322
 Alpha virt. eigenvalues --    2.77686   2.77737   2.77815   2.78416   2.78501
 Alpha virt. eigenvalues --    2.78844   2.79159   2.79305   2.79543   2.80392
 Alpha virt. eigenvalues --    2.80709   2.80896   2.81210   2.81403   2.81559
 Alpha virt. eigenvalues --    2.82283   2.82336   2.82531   2.82695   2.83982
 Alpha virt. eigenvalues --    2.84070   2.84220   2.84253   2.84706   2.84892
 Alpha virt. eigenvalues --    2.85053   2.85196   2.85818   2.85982   2.86823
 Alpha virt. eigenvalues --    2.87330   2.87364   2.88127   2.88366   2.88481
 Alpha virt. eigenvalues --    2.88776   2.88877   2.89065   2.89313   2.90747
 Alpha virt. eigenvalues --    2.90863   2.91203   2.91534   2.93448   2.93550
 Alpha virt. eigenvalues --    2.93894   2.94606   2.94678   2.94864   2.95553
 Alpha virt. eigenvalues --    2.95759   2.96021   2.96478   2.96691   2.96887
 Alpha virt. eigenvalues --    2.97051   2.97718   2.98137   2.98257   2.98485
 Alpha virt. eigenvalues --    2.98560   2.98680   2.98717   2.98975   2.98995
 Alpha virt. eigenvalues --    2.99211   2.99304   2.99897   2.99931   3.00196
 Alpha virt. eigenvalues --    3.00418   3.00456   3.00684   3.00922   3.01091
 Alpha virt. eigenvalues --    3.02004   3.02221   3.02245   3.02366   3.02961
 Alpha virt. eigenvalues --    3.03225   3.03400   3.03414   3.03630   3.03802
 Alpha virt. eigenvalues --    3.04163   3.04404   3.04544   3.04831   3.04919
 Alpha virt. eigenvalues --    3.05030   3.05470   3.05551   3.06273   3.06449
 Alpha virt. eigenvalues --    3.07033   3.07216   3.08019   3.08408   3.09466
 Alpha virt. eigenvalues --    3.09784   3.10096   3.10507   3.10828   3.10842
 Alpha virt. eigenvalues --    3.11571   3.11578   3.11984   3.12360   3.12396
 Alpha virt. eigenvalues --    3.12409   3.13744   3.13772   3.13807   3.13937
 Alpha virt. eigenvalues --    3.14669   3.14698   3.16064   3.16133   3.17665
 Alpha virt. eigenvalues --    3.17786   3.17997   3.18364   3.19179   3.19455
 Alpha virt. eigenvalues --    3.22833   3.23016   3.24366   3.24696   3.25208
 Alpha virt. eigenvalues --    3.25584   3.26850   3.26905   3.27572   3.28028
 Alpha virt. eigenvalues --    3.29493   3.29898   3.31567   3.31943   3.33326
 Alpha virt. eigenvalues --    3.33798   3.40491   3.41410   3.42944   3.43145
 Alpha virt. eigenvalues --    3.49015   3.49111   3.50402   3.50437   3.50984
 Alpha virt. eigenvalues --    3.51869   3.56936   3.57182   3.59458   3.59485
 Alpha virt. eigenvalues --    3.62759   3.63287   3.66231   3.66482   3.67789
 Alpha virt. eigenvalues --    3.67960   3.73693   3.74637   3.76404   3.77930
          Condensed to atoms (all electrons):
 Mulliken charges:
               1
     1  Mg   0.837152
     2  C    0.005045
     3  C   -0.094230
     4  C   -0.046951
     5  C   -0.065347
     6  N   -0.256242
     7  C   -0.051162
     8  C   -0.015068
     9  C   -0.087013
    10  C    0.046486
    11  C    0.105119
    12  C    0.052861
    13  C   -0.070134
    14  H    0.033921
    15  N   -0.432876
    16  C    0.167977
    17  C   -0.177909
    18  C   -0.004972
    19  C    0.148228
    20  C    0.110504
    21  C    0.011442
    22  O   -0.251031
    23  C    0.062842
    24  N   -0.340856
    25  C    0.040413
    26  C   -0.027832
    27  C   -0.024079
    28  C    0.074869
    29  C    0.076472
    30  C    0.035800
    31  C   -0.006017
    32  N   -0.311709
    33  C    0.081523
    34  C   -0.170035
    35  C    0.008527
    36  C    0.088244
    37  C    0.126878
    38  C    0.051094
    39  O   -0.187834
    40  C   -0.007522
    41  C    0.207370
    42  O   -0.239823
    43  O   -0.307237
    44  C    0.158834
    45  H   -0.018611
    46  H   -0.018247
    47  H   -0.042947
    48  H    0.000352
    49  H   -0.005065
    50  H    0.025222
    51  H    0.015855
    52  H    0.015507
    53  H    0.010105
    54  H    0.053378
    55  H    0.016600
    56  H    0.016001
    57  H    0.005328
    58  H    0.025864
    59  H    0.038160
    60  H    0.037068
    61  H    0.034541
    62  H    0.030865
    63  H    0.015078
    64  H    0.009289
    65  H    0.022309
    66  H    0.012798
    67  H    0.004223
    68  H    0.005753
    69  H    0.004705
    70  H    0.008176
    71  H    0.015131
    72  H    0.030195
    73  H    0.048762
    74  H    0.007820
    75  H    0.045407
    76  H    0.033272
    77  H    0.040517
    78  H    0.043756
    79  H    0.054396
    80  Mg   0.837125
    81  C   -0.016703
    82  C   -0.087980
    83  C   -0.045799
    84  C   -0.065419
    85  N   -0.254139
    86  C   -0.050341
    87  C   -0.014622
    88  C   -0.090361
    89  C    0.045126
    90  C    0.114674
    91  C    0.062698
    92  C   -0.077337
    93  H    0.034592
    94  N   -0.423311
    95  C    0.162299
    96  C   -0.175211
    97  C   -0.008323
    98  C    0.151752
    99  C    0.099628
   100  C    0.015179
   101  O   -0.253800
   102  C    0.061352
   103  N   -0.350182
   104  C    0.037205
   105  C   -0.019646
   106  C   -0.034844
   107  C    0.089333
   108  C    0.073722
   109  C    0.034855
   110  C   -0.007545
   111  N   -0.324430
   112  C    0.079378
   113  C   -0.165711
   114  C    0.004908
   115  C    0.096261
   116  C    0.129834
   117  C    0.037685
   118  O   -0.168645
   119  C    0.000191
   120  C    0.215720
   121  O   -0.250808
   122  O   -0.306597
   123  C    0.153468
   124  H   -0.020587
   125  H   -0.016141
   126  H   -0.040830
   127  H   -0.001505
   128  H   -0.004861
   129  H    0.021422
   130  H    0.014301
   131  H    0.015203
   132  H    0.013854
   133  H    0.038353
   134  H    0.019805
   135  H    0.019150
   136  H    0.008115
   137  H    0.025370
   138  H    0.039187
   139  H    0.037894
   140  H    0.035831
   141  H    0.033690
   142  H    0.013988
   143  H    0.012615
   144  H    0.024616
   145  H    0.011499
   146  H    0.005785
   147  H    0.005801
   148  H    0.003030
   149  H    0.010787
   150  H    0.017521
   151  H    0.030587
   152  H    0.052069
   153  H    0.008265
   154  H    0.045914
   155  H    0.033098
   156  H    0.041168
   157  H    0.047735
   158  H    0.054751
 Sum of Mulliken charges =  -0.00000
 Mulliken charges with hydrogens summed into heavy atoms:
               1
     1  Mg   0.837152
     2  C    0.005045
     3  C   -0.112841
     4  C   -0.065198
     5  C   -0.108294
     6  N   -0.256242
     7  C   -0.051162
     8  C   -0.014715
     9  C   -0.092077
    10  C    0.046486
    11  C    0.161704
    12  C    0.116344
    13  C   -0.003612
    15  N   -0.432876
    16  C    0.167977
    17  C   -0.177909
    18  C   -0.004972
    19  C    0.148228
    20  C    0.179856
    21  C    0.011442
    22  O   -0.251031
    23  C    0.165317
    24  N   -0.340856
    25  C    0.040413
    26  C   -0.012754
    27  C   -0.014790
    28  C    0.074869
    29  C    0.115802
    30  C    0.046258
    31  C    0.047485
    32  N   -0.311709
    33  C    0.081523
    34  C   -0.170035
    35  C    0.008527
    36  C    0.088244
    37  C    0.228867
    38  C    0.051094
    39  O   -0.187834
    40  C    0.025751
    41  C    0.207370
    42  O   -0.239823
    43  O   -0.307237
    44  C    0.297503
    80  Mg   0.837125
    81  C   -0.016703
    82  C   -0.108567
    83  C   -0.061940
    84  C   -0.106249
    85  N   -0.254139
    86  C   -0.050341
    87  C   -0.016127
    88  C   -0.095222
    89  C    0.045126
    90  C    0.165599
    91  C    0.114905
    92  C   -0.003790
    94  N   -0.423311
    95  C    0.162299
    96  C   -0.175211
    97  C   -0.008323
    98  C    0.151752
    99  C    0.172300
   100  C    0.015179
   101  O   -0.253800
   102  C    0.168767
   103  N   -0.350182
   104  C    0.037205
   105  C   -0.005657
   106  C   -0.022229
   107  C    0.089333
   108  C    0.115622
   109  C    0.043686
   110  C    0.051350
   111  N   -0.324430
   112  C    0.079378
   113  C   -0.165711
   114  C    0.004908
   115  C    0.096261
   116  C    0.236082
   117  C    0.037685
   118  O   -0.168645
   119  C    0.033288
   120  C    0.215720
   121  O   -0.250808
   122  O   -0.306597
   123  C    0.297122
 Electronic spatial extent (au):  <R**2>=         110530.7111
 Charge=             -0.0000 electrons
 Dipole moment (field-independent basis, Debye):
    X=             -0.6435    Y=              1.4626    Z=              7.0341  Tot=              7.2133
 Quadrupole moment (field-independent basis, Debye-Ang):
   XX=           -490.7949   YY=           -491.5894   ZZ=           -498.6345
   XY=            -28.6776   XZ=              3.0454   YZ=             53.4034
 Traceless Quadrupole moment (field-independent basis, Debye-Ang):
   XX=              2.8780   YY=              2.0836   ZZ=             -4.9616
   XY=            -28.6776   XZ=              3.0454   YZ=             53.4034
 Octapole moment (field-independent basis, Debye-Ang**2):
  XXX=             -5.7666  YYY=            373.5636  ZZZ=            181.8207  XYY=             32.1251
  XXY=            344.4128  XXZ=            313.5513  XZZ=              2.7147  YZZ=            -87.4680
  YYZ=           -102.7475  XYZ=             96.1396
 Hexadecapole moment (field-independent basis, Debye-Ang**3):
 XXXX=         -94669.0126 YYYY=         -34813.0284 ZZZZ=         -17399.8434 XXXY=          -3416.7300
 XXXZ=          -1113.4324 YYYX=            622.4467 YYYZ=            592.4951 ZZZX=            747.4740
 ZZZY=            184.5623 XXYY=         -22796.9040 XXZZ=         -18611.5619 YYZZ=          -9472.8926
 XXYZ=           1135.4164 YYXZ=           -396.7517 ZZXY=           -328.6386
 N-N= 1.534950951899D+04 E-N=-4.018164298494D+04  KE= 4.028800723124D+03
 Leave Link  601 at Fri Sep 10 19:39:25 2021, MaxMem= 23488102400 cpu:              13.9 elap:               0.7
 (Enter /sw/apps/gaussian-16.0/g16/l9999.exe)
 1\1\GINC-BP1-COMPUTE00090\SP\RCAM-B3LYP TD-FC\def2SVP\C68H72Mg2N8O8\OF
 15641\10-Sep-2021\0\\#p cam-b3lyp/Def2SVP td=(nstates=5)\\TDDFT excite
 d states in gaussian\\0,1\Mg,0,0.,0.,0.\C,0,-0.217,-2.218,2.801\C,0,-1
 .255,2.442,2.026\C,0,-0.245,1.85,-2.564\C,0,0.146,-2.824,-2.037\N,0,-0
 .617,-0.009,2.126\C,0,-0.594,-0.908,3.105\C,0,-0.936,-0.309,4.502\C,0,
 -1.773,0.964,4.032\C,0,-1.155,1.168,2.66\C,0,-3.263,0.685,3.863\C,0,0.
 345,0.11,5.299\C,0,0.124,0.397,6.787\H,0,1.168,0.033,7.733\N,0,-0.185,
 1.961,-0.152\C,0,-0.703,2.8,0.777\C,0,-0.62,4.156,0.193\C,0,-0.187,4.0
 15,-1.225\C,0,-0.214,2.583,-1.38\C,0,-0.887,5.406,0.974\C,0,0.181,5.01
 3,-2.277\O,0,0.303,4.69,-3.508\C,0,0.31,6.414,-1.837\N,0,-0.265,-0.413
 ,-2.029\C,0,-0.279,0.569,-2.937\C,0,-0.196,0.024,-4.332\C,0,0.124,-1.5
 33,-4.18\C,0,0.086,-1.632,-2.635\C,0,-1.451,0.205,-5.197\C,0,1.373,-2.
 07,-4.923\C,0,2.626,-1.49,-4.306\N,0,0.15,-2.144,0.303\C,0,0.173,-3.13
 6,-0.688\C,0,0.173,-4.438,0.004\C,0,0.133,-4.111,1.358\C,0,0.083,-2.69
 5,1.502\C,0,0.149,-5.715,-0.623\C,0,0.096,-4.629,2.716\O,0,0.208,-5.74
 7,3.221\C,0,-0.255,-3.428,3.701\C,0,0.717,-3.482,4.848\O,0,1.931,-3.25
 5,4.669\O,0,0.038,-3.556,6.003\C,0,0.943,-3.583,7.183\H,0,-1.859,3.22,
 2.497\H,0,-0.218,2.453,-3.474\H,0,0.276,-3.747,-2.605\H,0,-1.554,-0.94
 9,5.132\H,0,-1.585,1.831,4.665\H,0,-3.484,-0.377,3.969\H,0,-3.511,1.02
 7,2.858\H,0,-3.852,1.301,4.543\H,0,0.669,1.096,4.966\H,0,1.13,-0.639,5
 .189\H,0,-0.844,0.026,7.125\H,0,0.062,1.477,6.921\H,0,-1.344,5.186,1.9
 38\H,0,-1.651,5.963,0.432\H,0,0.007,6.02,1.084\H,0,-0.635,6.744,-1.405
 \H,0,0.665,6.97,-2.704\H,0,1.048,6.466,-1.036\H,0,0.608,0.501,-4.891\H
 ,0,-0.692,-2.156,-4.547\H,0,-1.267,0.74,-6.129\H,0,-2.204,0.714,-4.596
 \H,0,-1.967,-0.72,-5.453\H,0,1.356,-1.759,-5.967\H,0,1.452,-3.157,-4.9
 02\H,0,2.714,-0.522,-4.798\H,0,3.487,-2.121,-4.529\H,0,2.495,-1.303,-3
 .24\H,0,0.867,-6.333,-0.084\H,0,0.404,-5.642,-1.68\H,0,-0.891,-5.999,-
 0.463\H,0,-1.283,-3.581,4.028\H,0,0.698,-4.478,7.755\H,0,0.833,-2.619,
 7.68\H,0,2.,-3.754,6.976\Mg,0,10.51697,0.94245,0.80621\C,0,8.04637,0.1
 4966,3.28546\C,0,11.9048,3.06816,3.08434\C,0,12.43294,1.99661,-1.49275
 \C,0,8.32406,-0.32921,-1.58539\N,0,9.95733,1.45572,2.88362\C,0,9.03574
 ,1.04536,3.74188\C,0,9.22981,1.56539,5.19152\C,0,10.09027,2.88065,4.86
 199\C,0,10.72261,2.43542,3.54495\C,0,9.2349,4.10704,4.59061\C,0,10.037
 64,0.55926,6.08434\C,0,9.99917,0.85701,7.58488\H,0,9.98513,-0.26674,8.
 51733\N,0,12.2286,1.94065,0.91794\C,0,12.6411,2.7384,1.92527\C,0,13.95
 762,3.25297,1.51764\C,0,14.21507,2.82485,0.11581\C,0,12.93181,2.24232,
 -0.2218\C,0,14.86505,3.99837,2.45272\C,0,15.41324,2.93452,-0.77782\O,0
 ,15.33702,2.7081,-2.03708\C,0,16.65728,3.4053,-0.15154\N,0,10.31577,1.
 04476,-1.26052\C,0,11.32,1.49796,-2.03129\C,0,11.05364,1.22239,-3.4919
 4\C,0,9.76912,0.2702,-3.52223\C,0,9.44768,0.23076,-2.01209\C,0,10.7969
 3,2.45077,-4.36462\C,0,9.90911,-1.07645,-4.28355\C,0,10.87766,-1.98176
 ,-3.5571\N,0,8.62524,-0.10106,0.82912\C,0,7.86773,-0.51838,-0.28717\C,
 0,6.60342,-1.08071,0.23027\C,0,6.70402,-0.92932,1.62147\C,0,7.93472,-0
 .29758,1.94671\C,0,5.53608,-1.59335,-0.55974\C,0,6.04428,-1.15064,2.88
 814\O,0,5.0165,-1.72613,3.24342\C,0,6.82828,-0.34725,4.01344\C,0,7.038
 56,-1.2705,5.18216\O,0,7.76552,-2.27355,5.07243\O,0,6.52647,-0.70322,6
 .28955\C,0,6.72052,-1.57635,7.47774\H,0,12.28366,3.92685,3.63933\H,0,1
 3.10501,2.24134,-2.31852\H,0,7.63088,-0.83522,-2.26076\H,0,8.31435,1.8
 3836,5.70258\H,0,10.85602,3.05046,5.61442\H,0,8.18368,3.86362,4.54786\
 H,0,9.57216,4.49616,3.63882\H,0,9.44874,4.88638,5.32765\H,0,11.11027,0
 .69292,5.89371\H,0,9.71711,-0.44904,5.90768\H,0,9.21487,1.57938,7.8417
 9\H,0,10.92846,1.36021,7.86275\H,0,14.33826,4.30601,3.36445\H,0,15.127
 91,4.94062,1.95985\H,0,15.78191,3.44908,2.67703\H,0,16.49277,4.3878,0.
 28445\H,0,17.42124,3.33204,-0.92799\H,0,16.90911,2.73213,0.67553\H,0,1
 1.88792,0.70158,-3.94563\H,0,8.91315,0.75618,-4.01312\H,0,11.49293,2.5
 31,-5.22091\H,0,10.8591,3.33211,-3.7402\H,0,9.78981,2.52618,-4.77109\H
 ,0,10.32882,-0.9073,-5.27823\H,0,8.96692,-1.59775,-4.41596\H,0,11.8528
 ,-1.63665,-3.91361\H,0,10.70474,-3.02195,-3.82568\H,0,10.84214,-1.8088
 2,-2.47521\H,0,5.20846,-2.50831,-0.08434\H,0,5.85001,-1.76832,-1.58668
 \H,0,4.8231,-0.76806,-0.48341\H,0,6.22183,0.51917,4.28012\H,0,5.73232,
 -1.74044,7.91845\H,0,7.47321,-1.06351,8.1056\H,0,7.04608,-2.59518,7.30
 323\\Version=ES64L-G16RevA.03\State=1-A\HF=-4069.8079862\RMSD=5.508e-0
 9\PG=C01 [X(C68H72Mg2N8O8)]\\@


 IF AT FIRST YOU DON'T SUCCEED, TRY, TRY AGAIN.
 THEN GIVE UP;
 THERE'S NO USE BEING A DAMN FOOL ABOUT IT.

                                 -- W. C. FIELDS
 Job cpu time:       0 days 14 hours 32 minutes 36.0 seconds.
 Elapsed time:       0 days  0 hours 37 minutes  1.3 seconds.
 File lengths (MBytes):  RWF=  13225 Int=      0 D2E=      0 Chk=    574 Scr=      1
 Normal termination of Gaussian 16 at Fri Sep 10 19:39:26 2021.
