 Entering Gaussian System, Link 0=g16
 Initial command:
 /sw/apps/gaussian-16.0/g16/l1.exe "/tmp/Gau-124159.inp" -scrdir="/tmp/"
 Entering Link 1 = /sw/apps/gaussian-16.0/g16/l1.exe PID=    124160.
  
 Copyright (c) 1988,1990,1992,1993,1995,1998,2003,2009,2016,
            Gaussian, Inc.  All Rights Reserved.
  
 This is part of the Gaussian(R) 16 program.  It is based on
 the Gaussian(R) 09 system (copyright 2009, Gaussian, Inc.),
 the Gaussian(R) 03 system (copyright 2003, Gaussian, Inc.),
 the Gaussian(R) 98 system (copyright 1998, Gaussian, Inc.),
 the Gaussian(R) 94 system (copyright 1995, Gaussian, Inc.),
 the Gaussian 92(TM) system (copyright 1992, Gaussian, Inc.),
 the Gaussian 90(TM) system (copyright 1990, Gaussian, Inc.),
 the Gaussian 88(TM) system (copyright 1988, Gaussian, Inc.),
 the Gaussian 86(TM) system (copyright 1986, Carnegie Mellon
 University), and the Gaussian 82(TM) system (copyright 1983,
 Carnegie Mellon University). Gaussian is a federally registered
 trademark of Gaussian, Inc.
  
 This software contains proprietary and confidential information,
 including trade secrets, belonging to Gaussian, Inc.
  
 This software is provided under written license and may be
 used, copied, transmitted, or stored only in accord with that
 written license.
  
 The following legend is applicable only to US Government
 contracts under FAR:
  
                    RESTRICTED RIGHTS LEGEND
  
 Use, reproduction and disclosure by the US Government is
 subject to restrictions as set forth in subparagraphs (a)
 and (c) of the Commercial Computer Software - Restricted
 Rights clause in FAR 52.227-19.
  
 Gaussian, Inc.
 340 Quinnipiac St., Bldg. 40, Wallingford CT 06492
  
  
 ---------------------------------------------------------------
 Warning -- This program may not be used in any manner that
 competes with the business of Gaussian, Inc. or will provide
 assistance to any competitor of Gaussian, Inc.  The licensee
 of this program is prohibited from giving any competitor of
 Gaussian, Inc. access to this program.  By using this program,
 the user acknowledges that Gaussian, Inc. is engaged in the
 business of creating and licensing software in the field of
 computational chemistry and represents and warrants to the
 licensee that it is not a competitor of Gaussian, Inc. and that
 it will not use this program in any manner prohibited above.
 ---------------------------------------------------------------
  

 Cite this work as:
 Gaussian 16, Revision A.03,
 M. J. Frisch, G. W. Trucks, H. B. Schlegel, G. E. Scuseria, 
 M. A. Robb, J. R. Cheeseman, G. Scalmani, V. Barone, 
 G. A. Petersson, H. Nakatsuji, X. Li, M. Caricato, A. V. Marenich, 
 J. Bloino, B. G. Janesko, R. Gomperts, B. Mennucci, H. P. Hratchian, 
 J. V. Ortiz, A. F. Izmaylov, J. L. Sonnenberg, D. Williams-Young, 
 F. Ding, F. Lipparini, F. Egidi, J. Goings, B. Peng, A. Petrone, 
 T. Henderson, D. Ranasinghe, V. G. Zakrzewski, J. Gao, N. Rega, 
 G. Zheng, W. Liang, M. Hada, M. Ehara, K. Toyota, R. Fukuda, 
 J. Hasegawa, M. Ishida, T. Nakajima, Y. Honda, O. Kitao, H. Nakai, 
 T. Vreven, K. Throssell, J. A. Montgomery, Jr., J. E. Peralta, 
 F. Ogliaro, M. J. Bearpark, J. J. Heyd, E. N. Brothers, K. N. Kudin, 
 V. N. Staroverov, T. A. Keith, R. Kobayashi, J. Normand, 
 K. Raghavachari, A. P. Rendell, J. C. Burant, S. S. Iyengar, 
 J. Tomasi, M. Cossi, J. M. Millam, M. Klene, C. Adamo, R. Cammi, 
 J. W. Ochterski, R. L. Martin, K. Morokuma, O. Farkas, 
 J. B. Foresman, and D. J. Fox, Gaussian, Inc., Wallingford CT, 2016.
 
 ******************************************
 Gaussian 16:  ES64L-G16RevA.03 25-Dec-2016
                11-Sep-2021 
 ******************************************
 %nproc=24
 Will use up to   24 processors via shared memory.
 %mem=175gb
 -----------------------------------
 #p cam-b3lyp/Def2SVP td=(nstates=5)
 -----------------------------------
 1/38=1,172=1/1;
 2/12=2,17=6,18=5,40=1/2;
 3/5=43,7=101,11=9,25=1,30=1,74=-40/1,2,3,8;
 4//1;
 5/5=2,38=5/2;
 8/6=1,10=1,108=5/1;
 9/41=5,42=1,70=2/14;
 6/7=2,8=2,9=2,10=2/1;
 99/5=1,9=1/99;
 Leave Link    1 at Sat Sep 11 10:05:57 2021, MaxMem= 23488102400 cpu:               0.9 elap:               0.0
 (Enter /sw/apps/gaussian-16.0/g16/l101.exe)
 --------------------------------
 TDDFT excited states in gaussian
 --------------------------------
 Symbolic Z-matrix:
 Charge =  0 Multiplicity = 1
 Mg                    0.        0.        0. 
 C                    -0.217    -2.218     2.801 
 C                    -1.255     2.442     2.026 
 C                    -0.245     1.85     -2.564 
 C                     0.146    -2.824    -2.037 
 N                    -0.617    -0.009     2.126 
 C                    -0.594    -0.908     3.105 
 C                    -0.936    -0.309     4.502 
 C                    -1.773     0.964     4.032 
 C                    -1.155     1.168     2.66 
 C                    -3.263     0.685     3.863 
 C                     0.345     0.11      5.299 
 C                     0.124     0.397     6.787 
 H                     1.168     0.033     7.733 
 N                    -0.185     1.961    -0.152 
 C                    -0.703     2.8       0.777 
 C                    -0.62      4.156     0.193 
 C                    -0.187     4.015    -1.225 
 C                    -0.214     2.583    -1.38 
 C                    -0.887     5.406     0.974 
 C                     0.181     5.013    -2.277 
 O                     0.303     4.69     -3.508 
 C                     0.31      6.414    -1.837 
 N                    -0.265    -0.413    -2.029 
 C                    -0.279     0.569    -2.937 
 C                    -0.196     0.024    -4.332 
 C                     0.124    -1.533    -4.18 
 C                     0.086    -1.632    -2.635 
 C                    -1.451     0.205    -5.197 
 C                     1.373    -2.07     -4.923 
 C                     2.626    -1.49     -4.306 
 N                     0.15     -2.144     0.303 
 C                     0.173    -3.136    -0.688 
 C                     0.173    -4.438     0.004 
 C                     0.133    -4.111     1.358 
 C                     0.083    -2.695     1.502 
 C                     0.149    -5.715    -0.623 
 C                     0.096    -4.629     2.716 
 O                     0.208    -5.747     3.221 
 C                    -0.255    -3.428     3.701 
 C                     0.717    -3.482     4.848 
 O                     1.931    -3.255     4.669 
 O                     0.038    -3.556     6.003 
 C                     0.943    -3.583     7.183 
 H                    -1.859     3.22      2.497 
 H                    -0.218     2.453    -3.474 
 H                     0.276    -3.747    -2.605 
 H                    -1.554    -0.949     5.132 
 H                    -1.585     1.831     4.665 
 H                    -3.484    -0.377     3.969 
 H                    -3.511     1.027     2.858 
 H                    -3.852     1.301     4.543 
 H                     0.669     1.096     4.966 
 H                     1.13     -0.639     5.189 
 H                    -0.844     0.026     7.125 
 H                     0.062     1.477     6.921 
 H                    -1.344     5.186     1.938 
 H                    -1.651     5.963     0.432 
 H                     0.007     6.02      1.084 
 H                    -0.635     6.744    -1.405 
 H                     0.665     6.97     -2.704 
 H                     1.048     6.466    -1.036 
 H                     0.608     0.501    -4.891 
 H                    -0.692    -2.156    -4.547 
 H                    -1.267     0.74     -6.129 
 H                    -2.204     0.714    -4.596 
 H                    -1.967    -0.72     -5.453 
 H                     1.356    -1.759    -5.967 
 H                     1.452    -3.157    -4.902 
 H                     2.714    -0.522    -4.798 
 H                     3.487    -2.121    -4.529 
 H                     2.495    -1.303    -3.24 
 H                     0.867    -6.333    -0.084 
 H                     0.404    -5.642    -1.68 
 H                    -0.891    -5.999    -0.463 
 H                    -1.283    -3.581     4.028 
 H                     0.698    -4.478     7.755 
 H                     0.833    -2.619     7.68 
 H                     2.       -3.754     6.976 
 Mg                    13.14744   1.18756   1.00142 
 C                     14.05867  -0.95107   3.73546 
 C                     12.97145   3.74274   3.25412 
 C                     11.90998   2.99441  -1.29453 
 C                     12.29093  -1.68412  -0.77778 
 N                     13.49338   1.26167   3.18478 
 C                     13.89551   0.39985   4.10668 
 C                     14.21381   1.03584   5.48646 
 C                     13.3003   2.35068   5.36167 
 C                     13.2771   2.48874   3.84079 
 C                     11.87458   2.14094   5.84402 
 C                     15.73157   1.40329   5.63941 
 C                     16.17099   1.74057   7.06591 
 H                     17.50977   1.34434   7.49385 
 N                     12.9988   3.16152   0.86019 
 C                     12.96471   4.0497    1.87569 
 C                     12.82735   5.37317   1.24821 
 C                     12.61746   5.18027  -0.21243 
 C                     12.47675   3.73911  -0.27045 
 C                     12.97862   6.65597   2.01303 
 C                     12.54152   6.13595  -1.36442 
 O                     12.11507   5.76958  -2.51626 
 C                     12.89261   7.53497  -1.07986 
 N                     12.03578   0.74256  -0.69816 
 C                     11.66884   1.7098   -1.55707 
 C                     11.12129   1.12404  -2.8367 
 C                     11.42246  -0.44445  -2.75459 
 C                     12.03918  -0.51     -1.34011 
 C                     9.62881   1.34319  -3.08343 
 C                     12.21276  -1.07209  -3.93534 
 C                     13.62891  -0.54317  -3.94756 
 N                     13.33103  -0.94354   1.30604 
 C                     12.883   -1.96987   0.44581 
 C                     13.12857  -3.25346   1.13467 
 C                     13.68569  -2.8808    2.36724 
 C                     13.762   -1.46415   2.44958 
 C                     12.7986  -4.5437    0.63216 
 C                     14.21678  -3.36335   3.62175 
 O                     14.48221  -4.47243   4.08353 
 C                     14.36508  -2.13136   4.61503 
 C                     15.73046  -2.20207   5.24215 
 O                     16.7527  -2.05779   4.54874 
 O                     15.60036  -2.21055   6.58132 
 C                     16.92829  -2.26885   7.24842 
 H                     12.66647   4.56066   3.90748 
 H                     11.56842   3.56654  -2.16027 
 H                     12.14195  -2.6283   -1.30601 
 H                     13.90276   0.44669   6.34082 
 H                     13.78367   3.21198   5.81539 
 H                     11.67785   1.10612   6.08188 
 H                     11.23822   2.47034   5.0331 
 H                     11.65951   2.80616   6.68519 
 H                     15.91695   2.36929   5.15235 
 H                     16.35392   0.62407   5.24429 
 H                     15.42427   1.43732   7.80981 
 H                     16.22231   2.82753   7.16536 
 H                     12.96342   6.48271   3.09615 
 H                     12.07932   7.25099   1.82049 
 H                     13.85492   7.22979   1.70399 
 H                     12.23848   7.92027  -0.30133 
 H                     12.86471   8.04529  -2.04457 
 H                     13.91162   7.5652   -0.67822 
 H                     11.63112   1.53508  -3.69939 
 H                     10.4958  -1.03607  -2.72111 
 H                     9.41517   1.85419  -4.0412 
 H                     9.22478   1.90709  -2.25318 
 H                     9.02061   0.44039  -3.06729 
 H                     11.76445  -0.78086  -4.88841 
 H                     12.23889  -2.15636  -3.9097 
 H                     13.53115   0.41179  -4.47251 
 H                     14.28718  -1.22316  -4.48453 
 H                     13.97684  -0.32635  -2.93091 
 H                     13.64458  -5.18491   0.84109 
 H                     12.57694  -4.51096  -0.43253 
 H                     11.91013  -4.76442   1.22981 
 H                     13.56933  -2.21086   5.35667 
 H                     16.91347  -3.13724   7.91429 
 H                     17.07092  -1.27704   7.71717 
 H                     17.79035  -2.49093   6.63037 
 
 ITRead=  0  0  0  0  0  0  0  0  0  0  0  0  0  0  0  0  0  0  0  0
 ITRead=  0  0  0  0  0  0  0  0  0  0  0  0  0  0  0  0  0  0  0  0
 ITRead=  0  0  0  0  0  0  0  0  0  0  0  0  0  0  0  0  0  0  0  0
 ITRead=  0  0  0  0  0  0  0  0  0  0  0  0  0  0  0  0  0  0  0  0
 ITRead=  0  0  0  0  0  0  0  0  0  0  0  0  0  0  0  0  0  0  0  0
 ITRead=  0  0  0  0  0  0  0  0  0  0  0  0  0  0  0  0  0  0  0  0
 ITRead=  0  0  0  0  0  0  0  0  0  0  0  0  0  0  0  0  0  0  0  0
 ITRead=  0  0  0  0  0  0  0  0  0  0  0  0  0  0  0  0  0  0
 MicOpt= -1 -1 -1 -1 -1 -1 -1 -1 -1 -1 -1 -1 -1 -1 -1 -1 -1 -1 -1 -1
 MicOpt= -1 -1 -1 -1 -1 -1 -1 -1 -1 -1 -1 -1 -1 -1 -1 -1 -1 -1 -1 -1
 MicOpt= -1 -1 -1 -1 -1 -1 -1 -1 -1 -1 -1 -1 -1 -1 -1 -1 -1 -1 -1 -1
 MicOpt= -1 -1 -1 -1 -1 -1 -1 -1 -1 -1 -1 -1 -1 -1 -1 -1 -1 -1 -1 -1
 MicOpt= -1 -1 -1 -1 -1 -1 -1 -1 -1 -1 -1 -1 -1 -1 -1 -1 -1 -1 -1 -1
 MicOpt= -1 -1 -1 -1 -1 -1 -1 -1 -1 -1 -1 -1 -1 -1 -1 -1 -1 -1 -1 -1
 MicOpt= -1 -1 -1 -1 -1 -1 -1 -1 -1 -1 -1 -1 -1 -1 -1 -1 -1 -1 -1 -1
 MicOpt= -1 -1 -1 -1 -1 -1 -1 -1 -1 -1 -1 -1 -1 -1 -1 -1 -1 -1
 NAtoms=    158 NQM=      158 NQMF=       0 NMMI=      0 NMMIF=      0
                NMic=       0 NMicF=      0.
                    Isotopes and Nuclear Properties:
 (Nuclear quadrupole moments (NQMom) in fm**2, nuclear magnetic moments (NMagM)
  in nuclear magnetons)

  Atom         1           2           3           4           5           6           7           8           9          10
 IAtWgt=          24          12          12          12          12          14          12          12          12          12
 AtmWgt=  23.9850450  12.0000000  12.0000000  12.0000000  12.0000000  14.0030740  12.0000000  12.0000000  12.0000000  12.0000000
 NucSpn=           0           0           0           0           0           2           0           0           0           0
 AtZEff=  -0.0000000  -0.0000000  -0.0000000  -0.0000000  -0.0000000  -0.0000000  -0.0000000  -0.0000000  -0.0000000  -0.0000000
 NQMom=    0.0000000   0.0000000   0.0000000   0.0000000   0.0000000   2.0440000   0.0000000   0.0000000   0.0000000   0.0000000
 NMagM=    0.0000000   0.0000000   0.0000000   0.0000000   0.0000000   0.4037610   0.0000000   0.0000000   0.0000000   0.0000000
 AtZNuc=  12.0000000   6.0000000   6.0000000   6.0000000   6.0000000   7.0000000   6.0000000   6.0000000   6.0000000   6.0000000

  Atom        11          12          13          14          15          16          17          18          19          20
 IAtWgt=          12          12          12           1          14          12          12          12          12          12
 AtmWgt=  12.0000000  12.0000000  12.0000000   1.0078250  14.0030740  12.0000000  12.0000000  12.0000000  12.0000000  12.0000000
 NucSpn=           0           0           0           1           2           0           0           0           0           0
 AtZEff=  -0.0000000  -0.0000000  -0.0000000  -0.0000000  -0.0000000  -0.0000000  -0.0000000  -0.0000000  -0.0000000  -0.0000000
 NQMom=    0.0000000   0.0000000   0.0000000   0.0000000   2.0440000   0.0000000   0.0000000   0.0000000   0.0000000   0.0000000
 NMagM=    0.0000000   0.0000000   0.0000000   2.7928460   0.4037610   0.0000000   0.0000000   0.0000000   0.0000000   0.0000000
 AtZNuc=   6.0000000   6.0000000   6.0000000   1.0000000   7.0000000   6.0000000   6.0000000   6.0000000   6.0000000   6.0000000

  Atom        21          22          23          24          25          26          27          28          29          30
 IAtWgt=          12          16          12          14          12          12          12          12          12          12
 AtmWgt=  12.0000000  15.9949146  12.0000000  14.0030740  12.0000000  12.0000000  12.0000000  12.0000000  12.0000000  12.0000000
 NucSpn=           0           0           0           2           0           0           0           0           0           0
 AtZEff=  -0.0000000  -0.0000000  -0.0000000  -0.0000000  -0.0000000  -0.0000000  -0.0000000  -0.0000000  -0.0000000  -0.0000000
 NQMom=    0.0000000   0.0000000   0.0000000   2.0440000   0.0000000   0.0000000   0.0000000   0.0000000   0.0000000   0.0000000
 NMagM=    0.0000000   0.0000000   0.0000000   0.4037610   0.0000000   0.0000000   0.0000000   0.0000000   0.0000000   0.0000000
 AtZNuc=   6.0000000   8.0000000   6.0000000   7.0000000   6.0000000   6.0000000   6.0000000   6.0000000   6.0000000   6.0000000

  Atom        31          32          33          34          35          36          37          38          39          40
 IAtWgt=          12          14          12          12          12          12          12          12          16          12
 AtmWgt=  12.0000000  14.0030740  12.0000000  12.0000000  12.0000000  12.0000000  12.0000000  12.0000000  15.9949146  12.0000000
 NucSpn=           0           2           0           0           0           0           0           0           0           0
 AtZEff=  -0.0000000  -0.0000000  -0.0000000  -0.0000000  -0.0000000  -0.0000000  -0.0000000  -0.0000000  -0.0000000  -0.0000000
 NQMom=    0.0000000   2.0440000   0.0000000   0.0000000   0.0000000   0.0000000   0.0000000   0.0000000   0.0000000   0.0000000
 NMagM=    0.0000000   0.4037610   0.0000000   0.0000000   0.0000000   0.0000000   0.0000000   0.0000000   0.0000000   0.0000000
 AtZNuc=   6.0000000   7.0000000   6.0000000   6.0000000   6.0000000   6.0000000   6.0000000   6.0000000   8.0000000   6.0000000

  Atom        41          42          43          44          45          46          47          48          49          50
 IAtWgt=          12          16          16          12           1           1           1           1           1           1
 AtmWgt=  12.0000000  15.9949146  15.9949146  12.0000000   1.0078250   1.0078250   1.0078250   1.0078250   1.0078250   1.0078250
 NucSpn=           0           0           0           0           1           1           1           1           1           1
 AtZEff=  -0.0000000  -0.0000000  -0.0000000  -0.0000000  -0.0000000  -0.0000000  -0.0000000  -0.0000000  -0.0000000  -0.0000000
 NQMom=    0.0000000   0.0000000   0.0000000   0.0000000   0.0000000   0.0000000   0.0000000   0.0000000   0.0000000   0.0000000
 NMagM=    0.0000000   0.0000000   0.0000000   0.0000000   2.7928460   2.7928460   2.7928460   2.7928460   2.7928460   2.7928460
 AtZNuc=   6.0000000   8.0000000   8.0000000   6.0000000   1.0000000   1.0000000   1.0000000   1.0000000   1.0000000   1.0000000

  Atom        51          52          53          54          55          56          57          58          59          60
 IAtWgt=           1           1           1           1           1           1           1           1           1           1
 AtmWgt=   1.0078250   1.0078250   1.0078250   1.0078250   1.0078250   1.0078250   1.0078250   1.0078250   1.0078250   1.0078250
 NucSpn=           1           1           1           1           1           1           1           1           1           1
 AtZEff=  -0.0000000  -0.0000000  -0.0000000  -0.0000000  -0.0000000  -0.0000000  -0.0000000  -0.0000000  -0.0000000  -0.0000000
 NQMom=    0.0000000   0.0000000   0.0000000   0.0000000   0.0000000   0.0000000   0.0000000   0.0000000   0.0000000   0.0000000
 NMagM=    2.7928460   2.7928460   2.7928460   2.7928460   2.7928460   2.7928460   2.7928460   2.7928460   2.7928460   2.7928460
 AtZNuc=   1.0000000   1.0000000   1.0000000   1.0000000   1.0000000   1.0000000   1.0000000   1.0000000   1.0000000   1.0000000

  Atom        61          62          63          64          65          66          67          68          69          70
 IAtWgt=           1           1           1           1           1           1           1           1           1           1
 AtmWgt=   1.0078250   1.0078250   1.0078250   1.0078250   1.0078250   1.0078250   1.0078250   1.0078250   1.0078250   1.0078250
 NucSpn=           1           1           1           1           1           1           1           1           1           1
 AtZEff=  -0.0000000  -0.0000000  -0.0000000  -0.0000000  -0.0000000  -0.0000000  -0.0000000  -0.0000000  -0.0000000  -0.0000000
 NQMom=    0.0000000   0.0000000   0.0000000   0.0000000   0.0000000   0.0000000   0.0000000   0.0000000   0.0000000   0.0000000
 NMagM=    2.7928460   2.7928460   2.7928460   2.7928460   2.7928460   2.7928460   2.7928460   2.7928460   2.7928460   2.7928460
 AtZNuc=   1.0000000   1.0000000   1.0000000   1.0000000   1.0000000   1.0000000   1.0000000   1.0000000   1.0000000   1.0000000

  Atom        71          72          73          74          75          76          77          78          79          80
 IAtWgt=           1           1           1           1           1           1           1           1           1          24
 AtmWgt=   1.0078250   1.0078250   1.0078250   1.0078250   1.0078250   1.0078250   1.0078250   1.0078250   1.0078250  23.9850450
 NucSpn=           1           1           1           1           1           1           1           1           1           0
 AtZEff=  -0.0000000  -0.0000000  -0.0000000  -0.0000000  -0.0000000  -0.0000000  -0.0000000  -0.0000000  -0.0000000  -0.0000000
 NQMom=    0.0000000   0.0000000   0.0000000   0.0000000   0.0000000   0.0000000   0.0000000   0.0000000   0.0000000   0.0000000
 NMagM=    2.7928460   2.7928460   2.7928460   2.7928460   2.7928460   2.7928460   2.7928460   2.7928460   2.7928460   0.0000000
 AtZNuc=   1.0000000   1.0000000   1.0000000   1.0000000   1.0000000   1.0000000   1.0000000   1.0000000   1.0000000  12.0000000

  Atom        81          82          83          84          85          86          87          88          89          90
 IAtWgt=          12          12          12          12          14          12          12          12          12          12
 AtmWgt=  12.0000000  12.0000000  12.0000000  12.0000000  14.0030740  12.0000000  12.0000000  12.0000000  12.0000000  12.0000000
 NucSpn=           0           0           0           0           2           0           0           0           0           0
 AtZEff=  -0.0000000  -0.0000000  -0.0000000  -0.0000000  -0.0000000  -0.0000000  -0.0000000  -0.0000000  -0.0000000  -0.0000000
 NQMom=    0.0000000   0.0000000   0.0000000   0.0000000   2.0440000   0.0000000   0.0000000   0.0000000   0.0000000   0.0000000
 NMagM=    0.0000000   0.0000000   0.0000000   0.0000000   0.4037610   0.0000000   0.0000000   0.0000000   0.0000000   0.0000000
 AtZNuc=   6.0000000   6.0000000   6.0000000   6.0000000   7.0000000   6.0000000   6.0000000   6.0000000   6.0000000   6.0000000

  Atom        91          92          93          94          95          96          97          98          99         100
 IAtWgt=          12          12           1          14          12          12          12          12          12          12
 AtmWgt=  12.0000000  12.0000000   1.0078250  14.0030740  12.0000000  12.0000000  12.0000000  12.0000000  12.0000000  12.0000000
 NucSpn=           0           0           1           2           0           0           0           0           0           0
 AtZEff=  -0.0000000  -0.0000000  -0.0000000  -0.0000000  -0.0000000  -0.0000000  -0.0000000  -0.0000000  -0.0000000  -0.0000000
 NQMom=    0.0000000   0.0000000   0.0000000   2.0440000   0.0000000   0.0000000   0.0000000   0.0000000   0.0000000   0.0000000
 NMagM=    0.0000000   0.0000000   2.7928460   0.4037610   0.0000000   0.0000000   0.0000000   0.0000000   0.0000000   0.0000000
 AtZNuc=   6.0000000   6.0000000   1.0000000   7.0000000   6.0000000   6.0000000   6.0000000   6.0000000   6.0000000   6.0000000

  Atom       101         102         103         104         105         106         107         108         109         110
 IAtWgt=          16          12          14          12          12          12          12          12          12          12
 AtmWgt=  15.9949146  12.0000000  14.0030740  12.0000000  12.0000000  12.0000000  12.0000000  12.0000000  12.0000000  12.0000000
 NucSpn=           0           0           2           0           0           0           0           0           0           0
 AtZEff=  -0.0000000  -0.0000000  -0.0000000  -0.0000000  -0.0000000  -0.0000000  -0.0000000  -0.0000000  -0.0000000  -0.0000000
 NQMom=    0.0000000   0.0000000   2.0440000   0.0000000   0.0000000   0.0000000   0.0000000   0.0000000   0.0000000   0.0000000
 NMagM=    0.0000000   0.0000000   0.4037610   0.0000000   0.0000000   0.0000000   0.0000000   0.0000000   0.0000000   0.0000000
 AtZNuc=   8.0000000   6.0000000   7.0000000   6.0000000   6.0000000   6.0000000   6.0000000   6.0000000   6.0000000   6.0000000

  Atom       111         112         113         114         115         116         117         118         119         120
 IAtWgt=          14          12          12          12          12          12          12          16          12          12
 AtmWgt=  14.0030740  12.0000000  12.0000000  12.0000000  12.0000000  12.0000000  12.0000000  15.9949146  12.0000000  12.0000000
 NucSpn=           2           0           0           0           0           0           0           0           0           0
 AtZEff=  -0.0000000  -0.0000000  -0.0000000  -0.0000000  -0.0000000  -0.0000000  -0.0000000  -0.0000000  -0.0000000  -0.0000000
 NQMom=    2.0440000   0.0000000   0.0000000   0.0000000   0.0000000   0.0000000   0.0000000   0.0000000   0.0000000   0.0000000
 NMagM=    0.4037610   0.0000000   0.0000000   0.0000000   0.0000000   0.0000000   0.0000000   0.0000000   0.0000000   0.0000000
 AtZNuc=   7.0000000   6.0000000   6.0000000   6.0000000   6.0000000   6.0000000   6.0000000   8.0000000   6.0000000   6.0000000

  Atom       121         122         123         124         125         126         127         128         129         130
 IAtWgt=          16          16          12           1           1           1           1           1           1           1
 AtmWgt=  15.9949146  15.9949146  12.0000000   1.0078250   1.0078250   1.0078250   1.0078250   1.0078250   1.0078250   1.0078250
 NucSpn=           0           0           0           1           1           1           1           1           1           1
 AtZEff=  -0.0000000  -0.0000000  -0.0000000  -0.0000000  -0.0000000  -0.0000000  -0.0000000  -0.0000000  -0.0000000  -0.0000000
 NQMom=    0.0000000   0.0000000   0.0000000   0.0000000   0.0000000   0.0000000   0.0000000   0.0000000   0.0000000   0.0000000
 NMagM=    0.0000000   0.0000000   0.0000000   2.7928460   2.7928460   2.7928460   2.7928460   2.7928460   2.7928460   2.7928460
 AtZNuc=   8.0000000   8.0000000   6.0000000   1.0000000   1.0000000   1.0000000   1.0000000   1.0000000   1.0000000   1.0000000

  Atom       131         132         133         134         135         136         137         138         139         140
 IAtWgt=           1           1           1           1           1           1           1           1           1           1
 AtmWgt=   1.0078250   1.0078250   1.0078250   1.0078250   1.0078250   1.0078250   1.0078250   1.0078250   1.0078250   1.0078250
 NucSpn=           1           1           1           1           1           1           1           1           1           1
 AtZEff=  -0.0000000  -0.0000000  -0.0000000  -0.0000000  -0.0000000  -0.0000000  -0.0000000  -0.0000000  -0.0000000  -0.0000000
 NQMom=    0.0000000   0.0000000   0.0000000   0.0000000   0.0000000   0.0000000   0.0000000   0.0000000   0.0000000   0.0000000
 NMagM=    2.7928460   2.7928460   2.7928460   2.7928460   2.7928460   2.7928460   2.7928460   2.7928460   2.7928460   2.7928460
 AtZNuc=   1.0000000   1.0000000   1.0000000   1.0000000   1.0000000   1.0000000   1.0000000   1.0000000   1.0000000   1.0000000

  Atom       141         142         143         144         145         146         147         148         149         150
 IAtWgt=           1           1           1           1           1           1           1           1           1           1
 AtmWgt=   1.0078250   1.0078250   1.0078250   1.0078250   1.0078250   1.0078250   1.0078250   1.0078250   1.0078250   1.0078250
 NucSpn=           1           1           1           1           1           1           1           1           1           1
 AtZEff=  -0.0000000  -0.0000000  -0.0000000  -0.0000000  -0.0000000  -0.0000000  -0.0000000  -0.0000000  -0.0000000  -0.0000000
 NQMom=    0.0000000   0.0000000   0.0000000   0.0000000   0.0000000   0.0000000   0.0000000   0.0000000   0.0000000   0.0000000
 NMagM=    2.7928460   2.7928460   2.7928460   2.7928460   2.7928460   2.7928460   2.7928460   2.7928460   2.7928460   2.7928460
 AtZNuc=   1.0000000   1.0000000   1.0000000   1.0000000   1.0000000   1.0000000   1.0000000   1.0000000   1.0000000   1.0000000

  Atom       151         152         153         154         155         156         157         158
 IAtWgt=           1           1           1           1           1           1           1           1
 AtmWgt=   1.0078250   1.0078250   1.0078250   1.0078250   1.0078250   1.0078250   1.0078250   1.0078250
 NucSpn=           1           1           1           1           1           1           1           1
 AtZEff=  -0.0000000  -0.0000000  -0.0000000  -0.0000000  -0.0000000  -0.0000000  -0.0000000  -0.0000000
 NQMom=    0.0000000   0.0000000   0.0000000   0.0000000   0.0000000   0.0000000   0.0000000   0.0000000
 NMagM=    2.7928460   2.7928460   2.7928460   2.7928460   2.7928460   2.7928460   2.7928460   2.7928460
 AtZNuc=   1.0000000   1.0000000   1.0000000   1.0000000   1.0000000   1.0000000   1.0000000   1.0000000
 Leave Link  101 at Sat Sep 11 10:05:57 2021, MaxMem= 23488102400 cpu:               3.5 elap:               0.2
 (Enter /sw/apps/gaussian-16.0/g16/l202.exe)
 Stoichiometry    C68H72Mg2N8O8
 Framework group  C1[X(C68H72Mg2N8O8)]
 Deg. of freedom   468
 Full point group                 C1      NOp   1
 Largest Abelian subgroup         C1      NOp   1
 Largest concise Abelian subgroup C1      NOp   1
                         Standard orientation:                         
 ---------------------------------------------------------------------
 Center     Atomic      Atomic             Coordinates (Angstroms)
 Number     Number       Type             X           Y           Z
 ---------------------------------------------------------------------
      1         12           0       -6.710997   -0.350871    0.014240
      2          6           0       -6.693187    3.226598   -0.102435
      3          6           0       -7.523356   -0.306528   -3.299545
      4          6           0       -7.177624   -3.482169    0.198230
      5          6           0       -7.021393   -0.089320    3.475584
      6          7           0       -7.036903    1.311856   -1.410460
      7          6           0       -6.940902    2.636049   -1.343617
      8          6           0       -7.053369    3.334496   -2.731745
      9          6           0       -7.862049    2.206465   -3.516335
     10          6           0       -7.421582    0.992128   -2.718025
     11          6           0       -9.376105    2.348879   -3.398634
     12          6           0       -5.652842    3.592837   -3.382523
     13          6           0       -5.653556    4.554474   -4.574415
     14          1           0       -4.517863    5.445937   -4.755643
     15          7           0       -6.788007   -1.720445   -1.407445
     16          6           0       -7.121759   -1.522502   -2.705410
     17          6           0       -7.030587   -2.847171   -3.356269
     18          6           0       -6.801447   -3.862653   -2.291194
     19          6           0       -6.941140   -3.055208   -1.106333
     20          6           0       -7.109485   -3.042451   -4.839304
     21          6           0       -6.514195   -5.330227   -2.334152
     22          8           0       -6.579269   -6.066851   -1.291211
     23          6           0       -6.237451   -5.906853   -3.662292
     24          7           0       -7.271476   -1.613528    1.579231
     25          6           0       -7.343719   -2.937743    1.405400
     26          6           0       -7.483629   -3.653664    2.716057
     27          6           0       -7.247099   -2.552984    3.848449
     28          6           0       -7.084070   -1.310103    2.939088
     29          6           0       -8.828912   -4.352470    2.956667
     30          6           0       -6.146099   -2.848811    4.897594
     31          6           0       -4.787005   -2.829715    4.234572
     32          7           0       -6.660154    1.253908    1.474769
     33          6           0       -6.834063    1.137726    2.861467
     34          6           0       -6.825211    2.504736    3.413983
     35          6           0       -6.662312    3.327441    2.301120
     36          6           0       -6.601268    2.526650    1.124983
     37          6           0       -7.015188    2.852520    4.780507
     38          6           0       -6.550332    4.698155    1.829462
     39          8           0       -6.443926    5.797187    2.375630
     40          6           0       -6.688123    4.694993    0.243010
     41          6           0       -5.576736    5.543949   -0.311430
     42          8           0       -4.385584    5.186923   -0.206289
     43          8           0       -6.098224    6.512879   -1.079393
     44          6           0       -5.046933    7.373647   -1.684389
     45          1           0       -8.007439   -0.412788   -4.272331
     46          1           0       -7.234000   -4.565907    0.319771
     47          1           0       -7.028377    0.065601    4.556049
     48          1           0       -7.621322    4.265000   -2.727655
     49          1           0       -7.535496    2.117728   -4.552294
     50          1           0       -9.648847    3.128267   -2.687237
     51          1           0       -9.733963    1.377990   -3.055406
     52          1           0       -9.827789    2.505391   -4.378564
     53          1           0       -5.313550    2.683294   -3.878178
     54          1           0       -4.939538    3.944259   -2.636181
     55          1           0       -6.589414    5.110451   -4.637407
     56          1           0       -5.627358    3.963568   -5.490027
     57          1           0       -7.446430   -2.138376   -5.344933
     58          1           0       -7.901735   -3.767861   -5.023232
     59          1           0       -6.171135   -3.409470   -5.255393
     60          1           0       -7.092824   -5.732936   -4.315468
     61          1           0       -5.966737   -6.947581   -3.487794
     62          1           0       -5.396991   -5.375487   -4.109760
     63          1           0       -6.732729   -4.436311    2.816249
     64          1           0       -8.143324   -2.380664    4.444905
     65          1           0       -8.737359   -5.418696    3.165198
     66          1           0       -9.460249   -4.177065    2.086071
     67          1           0       -9.433050   -3.919126    3.753315
     68          1           0       -6.282744   -3.843532    5.320447
     69          1           0       -6.135171   -2.136379    5.722562
     70          1           0       -4.703552   -3.834308    3.821460
     71          1           0       -4.006085   -2.645130    4.973018
     72          1           0       -4.761695   -2.130468    3.398571
     73          1           0       -6.272757    3.617812    5.006547
     74          1           0       -6.899925    1.984806    5.429653
     75          1           0       -8.040490    3.221207    4.754383
     76          1           0       -7.670748    5.105621    0.012892
     77          1           0       -5.270223    8.401675   -1.398848
     78          1           0       -5.027042    7.136978   -2.748343
     79          1           0       -4.040421    7.261665   -1.279751
     80         12           0        6.501025   -1.158445    0.256386
     81          6           0        7.630671    2.247817    0.274592
     82          6           0        6.793348   -1.080455   -3.141119
     83          6           0        5.086095   -3.997055    0.168816
     84          6           0        5.230722   -0.608474    3.454756
     85          7           0        7.140398    0.435455   -1.137498
     86          6           0        7.606061    1.668986   -1.011394
     87          6           0        8.146634    2.290069   -2.327307
     88          6           0        7.311237    1.402641   -3.372993
     89          6           0        7.093435    0.156673   -2.516955
     90          6           0        5.952468    1.992515   -3.712294
     91          6           0        9.691688    2.076671   -2.498412
     92          6           0       10.339056    2.918639   -3.600117
     93          1           0       11.694775    3.418305   -3.388400
     94          7           0        6.462248   -2.530401   -1.177068
     95          6           0        6.621785   -2.327903   -2.501760
     96          6           0        6.487126   -3.651224   -3.130140
     97          6           0        6.071463   -4.626377   -2.085614
     98          6           0        5.831726   -3.732207   -0.970674
     99          6           0        6.821796   -3.905569   -4.571220
    100          6           0        5.903586   -6.115650   -2.093100
    101          8           0        5.303966   -6.730460   -1.141635
    102          6           0        6.379001   -6.822966   -3.291090
    103          7           0        5.145363   -2.097784    1.522170
    104          6           0        4.729727   -3.353503    1.280635
    105          6           0        3.979103   -3.916695    2.463748
    106          6           0        4.186909   -2.860680    3.646649
    107          6           0        4.982053   -1.778828    2.883278
    108          6           0        2.484264   -4.154708    2.251133
    109          6           0        4.769822   -3.403371    4.980207
    110          6           0        6.202667   -3.840521    4.777126
    111          7           0        6.586132    0.437191    1.710617
    112          6           0        5.961734    0.471562    2.976724
    113          6           0        6.214193    1.809284    3.550484
    114          6           0        6.954251    2.473529    2.560747
    115          6           0        7.131984    1.617632    1.440323
    116          6           0        5.737471    2.279137    4.806705
    117          6           0        7.616429    3.707808    2.204682
    118          8           0        7.869344    4.758785    2.792248
    119          6           0        7.975496    3.660421    0.657031
    120          6           0        9.405168    4.100152    0.498231
    121          8           0       10.332448    3.416440    0.966525
    122          8           0        9.455375    5.133506   -0.362020
    123          6           0       10.854168    5.597969   -0.560691
    124          1           0        6.631964   -1.091871   -4.219410
    125          1           0        4.669195   -5.004626    0.235864
    126          1           0        4.951821   -0.392538    4.488334
    127          1           0        7.915554    3.339869   -2.462598
    128          1           0        7.905493    1.162974   -4.250926
    129          1           0        5.723142    2.853310   -3.101905
    130          1           0        5.235754    1.201321   -3.535142
    131          1           0        5.895321    2.217152   -4.781224
    132          1           0        9.871973    1.071175   -2.899940
    133          1           0       10.204005    2.240387   -1.570321
    134          1           0        9.680761    3.726511   -3.942065
    135          1           0       10.473135    2.289999   -4.483768
    136          1           0        6.940711   -2.967946   -5.128106
    137          1           0        5.945015   -4.381079   -5.023995
    138          1           0        7.683916   -4.564729   -4.693430
    139          1           0        5.861252   -6.438595   -4.166673
    140          1           0        6.255036   -7.885222   -3.071738
    141          1           0        7.442445   -6.598900   -3.430703
    142          1           0        4.394168   -4.870090    2.766854
    143          1           0        3.236926   -2.396826    3.950303
    144          1           0        2.177596   -5.200757    2.440404
    145          1           0        2.232268   -3.861465    1.240666
    146          1           0        1.826838   -3.522782    2.845842
    147          1           0        4.217567   -4.289705    5.302024
    148          1           0        4.729265   -2.685933    5.792992
    149          1           0        6.097170   -4.850434    4.369666
    150          1           0        6.737892   -3.851053    5.724473
    151          1           0        6.696896   -3.227389    4.014597
    152          1           0        6.560745    2.800190    5.277030
    153          1           0        5.377746    1.460693    5.426799
    154          1           0        4.924722    2.931049    4.475446
    155          1           0        7.282823    4.325221    0.139523
    156          1           0       10.872791    6.666245   -0.323741
    157          1           0       11.121889    5.306392   -1.593679
    158          1           0       11.609548    5.217804    0.117047
 ---------------------------------------------------------------------
 Rotational constants (GHZ):           0.0213471           0.0078210           0.0071094
 Leave Link  202 at Sat Sep 11 10:05:57 2021, MaxMem= 23488102400 cpu:               0.3 elap:               0.0
 (Enter /sw/apps/gaussian-16.0/g16/l301.exe)
 Standard basis: def2SVP (5D, 7F)
 Ernie: Thresh=  0.10000D-02 Tol=  0.10000D-05 Strict=F.
 There are  1658 symmetry adapted cartesian basis functions of A   symmetry.
 There are  1572 symmetry adapted basis functions of A   symmetry.
  1572 basis functions,  2678 primitive gaussians,  1658 cartesian basis functions
   312 alpha electrons      312 beta electrons
       nuclear repulsion energy     14223.8891214624 Hartrees.
 IExCor=20419 DFT=T Ex+Corr=CAM-B3LYP ExCW=0 ScaHFX=  1.000000
 ScaDFX=  1.000000  1.000000  1.000000  0.810000 ScalE2=  1.000000  1.000000
 IRadAn=      5 IRanWt=     -1 IRanGd=            0 ICorTp=0 IEmpDi=  4
 HFx  wShort=  0.000000 wLong=  0.330000 cFull=  0.190000 cShort=  0.000000 cLong=  0.460000
 DFx  wShort=  0.000000 wLong=  0.330000 cFull=  0.190000 cShort=  0.000000 cLong=  0.460000
 NAtoms=  158 NActive=  158 NUniq=  158 SFac= 1.00D+00 NAtFMM=   60 NAOKFM=T Big=T
 Integral buffers will be    131072 words long.
 Raffenetti 1 integral format.
 Two-electron integral symmetry is turned on.
 Leave Link  301 at Sat Sep 11 10:05:57 2021, MaxMem= 23488102400 cpu:               1.3 elap:               0.1
 (Enter /sw/apps/gaussian-16.0/g16/l302.exe)
 NPDir=0 NMtPBC=     1 NCelOv=     1 NCel=       1 NClECP=     1 NCelD=      1
         NCelK=      1 NCelE2=     1 NClLst=     1 CellRange=     0.0.
 One-electron integrals computed using PRISM.
 One-electron integral symmetry used in STVInt
   1 Symmetry operations used in ECPInt.
 ECPInt:  NShTT=  271216 NPrTT=  987664 LenC2=  116866 LenP2D=  256222.
 LDataN:  DoStor=T MaxTD1= 4 Len=   56
 NBasis=  1572 RedAO= T EigKep=  3.36D-04  NBF=  1572
 NBsUse=  1572 1.00D-06 EigRej= -1.00D+00 NBFU=  1572
 Precomputing XC quadrature grid using
 IXCGrd= 4 IRadAn=           5 IRanWt=          -1 IRanGd=           0 AccXCQ= 0.00D+00.
 Generated NRdTot=       0 NPtTot=           0 NUsed=           0 NTot=          32
 NSgBfM=  1039  1014  1017  1030  1039 MxSgAt=   158 MxSgA2=   155.
 Leave Link  302 at Sat Sep 11 10:06:02 2021, MaxMem= 23488102400 cpu:             118.3 elap:               5.0
 (Enter /sw/apps/gaussian-16.0/g16/l303.exe)
 DipDrv:  MaxL=1.
 Leave Link  303 at Sat Sep 11 10:06:02 2021, MaxMem= 23488102400 cpu:               8.2 elap:               0.4
 (Enter /sw/apps/gaussian-16.0/g16/l308.exe)
 Leave Link  308 at Sat Sep 11 10:06:03 2021, MaxMem= 23488102400 cpu:              14.1 elap:               0.7
 (Enter /sw/apps/gaussian-16.0/g16/l401.exe)
 ExpMin= 3.36D-02 ExpMax= 4.95D+03 ExpMxC= 7.45D+02 IAcc=3 IRadAn=         5 AccDes= 0.00D+00
 Harris functional with IExCor=20419 and IRadAn=       5 diagonalized for initial guess.
 HarFok:  IExCor=20419 AccDes= 0.00D+00 IRadAn=         5 IDoV= 1 UseB2=F ITyADJ=14
 ICtDFT=  3500011 ScaDFX=  1.000000  1.000000  1.000000  1.000000
 FoFCou: FMM=F IPFlag=           0 FMFlag=      100000 FMFlg1=        2001
         NFxFlg=           0 DoJE=T BraDBF=F KetDBF=T FulRan=T
         wScrn=  0.000000 ICntrl=       500 IOpCl=  0 I1Cent=   200000004 NGrid=           0
         NMat0=    1 NMatS0=      1 NMatT0=    0 NMatD0=    1 NMtDS0=    0 NMtDT0=    0
 Petite list used in FoFCou.
 Harris En= -3918.65800481827    
 JPrj=0 DoOrth=F DoCkMO=F.
 Leave Link  401 at Sat Sep 11 10:06:10 2021, MaxMem= 23488102400 cpu:             161.1 elap:               6.7
 (Enter /sw/apps/gaussian-16.0/g16/l502.exe)
 Integral symmetry usage will be decided dynamically.
 Closed shell SCF:
 Using DIIS extrapolation, IDIIS=  1040.
 NGot= 23488102400 LenX= 23482547354 LenY= 23479796732
 Requested convergence on RMS density matrix=1.00D-08 within 128 cycles.
 Requested convergence on MAX density matrix=1.00D-06.
 Requested convergence on             energy=1.00D-06.
 No special actions if energy rises.
 Fock matrices will be formed incrementally for  20 cycles.

 Cycle   1  Pass 1  IDiag  1:
 FoFJK:  IHMeth= 1 ICntrl=       0 DoSepK=T KAlg= 0 I1Cent=           0 FoldK=F
 IRaf=         1 NMat=       1 IRICut=       1 DoRegI=T DoRafI=F ISym2E= 0 IDoP0=0 IntGTp=1.
 FoFCou: FMM=T IPFlag=           0 FMFlag=      100000 FMFlg1=        2001
         NFxFlg=           0 DoJE=T BraDBF=F KetDBF=F FulRan=T
         wScrn=  0.000000 ICntrl=       500 IOpCl=  0 I1Cent=           0 NGrid=           0
         NMat0=    1 NMatS0=      1 NMatT0=    0 NMatD0=    1 NMtDS0=    0 NMtDT0=    0
 Symmetry not used in FoFCou.
 FMM levels:  10  Number of levels for PrismC:   9
 E= -4068.94880943951    
 DIIS: error= 2.04D-02 at cycle   1 NSaved=   1.
 NSaved= 1 IEnMin= 1 EnMin= -4068.94880943951     IErMin= 1 ErrMin= 2.04D-02
 ErrMax= 2.04D-02  0.00D+00 EMaxC= 1.00D-01 BMatC= 1.69D+00 BMatP= 1.69D+00
 IDIUse=3 WtCom= 7.96D-01 WtEn= 2.04D-01
 Coeff-Com:  0.100D+01
 Coeff-En:   0.100D+01
 Coeff:      0.100D+01
 Gap=     0.120 Goal=   None    Shift=    0.000
 GapD=    0.120 DampG=1.000 DampE=0.500 DampFc=0.5000 IDamp=-1.
 Damping current iteration by 5.00D-01
 RMSDP=1.57D-03 MaxDP=1.35D-01              OVMax= 2.04D-01

 Cycle   2  Pass 1  IDiag  1:
 RMSU=  7.70D-04    CP:  9.82D-01
 E= -4069.33755108233     Delta-E=       -0.388741642826 Rises=F Damp=T
 DIIS: error= 1.27D-02 at cycle   2 NSaved=   2.
 NSaved= 2 IEnMin= 2 EnMin= -4069.33755108233     IErMin= 2 ErrMin= 1.27D-02
 ErrMax= 1.27D-02  0.00D+00 EMaxC= 1.00D-01 BMatC= 3.07D-01 BMatP= 1.69D+00
 IDIUse=3 WtCom= 8.73D-01 WtEn= 1.27D-01
 Coeff-Com: -0.213D+00 0.121D+01
 Coeff-En:   0.000D+00 0.100D+01
 Coeff:     -0.186D+00 0.119D+01
 Gap=     0.135 Goal=   None    Shift=    0.000
 RMSDP=7.66D-04 MaxDP=9.43D-02 DE=-3.89D-01 OVMax= 1.91D-01

 Cycle   3  Pass 1  IDiag  1:
 RMSU=  7.34D-04    CP:  9.68D-01  1.24D+00
 E= -4069.62607432898     Delta-E=       -0.288523246651 Rises=F Damp=F
 DIIS: error= 1.57D-02 at cycle   3 NSaved=   3.
 NSaved= 3 IEnMin= 3 EnMin= -4069.62607432898     IErMin= 2 ErrMin= 1.27D-02
 ErrMax= 1.57D-02  0.00D+00 EMaxC= 1.00D-01 BMatC= 2.03D-01 BMatP= 3.07D-01
 IDIUse=3 WtCom= 8.43D-01 WtEn= 1.57D-01
 Coeff-Com: -0.267D+00 0.652D+00 0.615D+00
 Coeff-En:   0.000D+00 0.000D+00 0.100D+01
 Coeff:     -0.225D+00 0.550D+00 0.676D+00
 Gap=     0.123 Goal=   None    Shift=    0.000
 RMSDP=5.12D-04 MaxDP=4.79D-02 DE=-2.89D-01 OVMax= 1.47D-01

 Cycle   4  Pass 1  IDiag  1:
 RMSU=  2.67D-04    CP:  9.65D-01  1.55D+00  5.03D-01
 E= -4069.76386668856     Delta-E=       -0.137792359579 Rises=F Damp=F
 DIIS: error= 7.27D-03 at cycle   4 NSaved=   4.
 NSaved= 4 IEnMin= 4 EnMin= -4069.76386668856     IErMin= 4 ErrMin= 7.27D-03
 ErrMax= 7.27D-03  0.00D+00 EMaxC= 1.00D-01 BMatC= 5.10D-02 BMatP= 2.03D-01
 IDIUse=3 WtCom= 9.27D-01 WtEn= 7.27D-02
 Coeff-Com: -0.109D+00 0.227D+00 0.409D+00 0.473D+00
 Coeff-En:   0.000D+00 0.000D+00 0.223D+00 0.777D+00
 Coeff:     -0.101D+00 0.210D+00 0.396D+00 0.495D+00
 Gap=     0.122 Goal=   None    Shift=    0.000
 RMSDP=2.03D-04 MaxDP=1.94D-02 DE=-1.38D-01 OVMax= 6.52D-02

 Cycle   5  Pass 1  IDiag  1:
 RMSU=  7.75D-05    CP:  9.64D-01  1.49D+00  6.88D-01  5.45D-01
 E= -4069.81027620416     Delta-E=       -0.046409515595 Rises=F Damp=F
 DIIS: error= 7.55D-04 at cycle   5 NSaved=   5.
 NSaved= 5 IEnMin= 5 EnMin= -4069.81027620416     IErMin= 5 ErrMin= 7.55D-04
 ErrMax= 7.55D-04  0.00D+00 EMaxC= 1.00D-01 BMatC= 1.24D-03 BMatP= 5.10D-02
 IDIUse=3 WtCom= 9.92D-01 WtEn= 7.55D-03
 Coeff-Com: -0.369D-01 0.725D-01 0.169D+00 0.253D+00 0.543D+00
 Coeff-En:   0.000D+00 0.000D+00 0.000D+00 0.000D+00 0.100D+01
 Coeff:     -0.366D-01 0.719D-01 0.168D+00 0.251D+00 0.546D+00
 Gap=     0.121 Goal=   None    Shift=    0.000
 RMSDP=4.30D-05 MaxDP=4.13D-03 DE=-4.64D-02 OVMax= 1.79D-02

 Cycle   6  Pass 1  IDiag  1:
 RMSU=  3.14D-05    CP:  9.64D-01  1.49D+00  6.80D-01  6.20D-01  7.41D-01
 E= -4069.81137994731     Delta-E=       -0.001103743154 Rises=F Damp=F
 DIIS: error= 1.98D-04 at cycle   6 NSaved=   6.
 NSaved= 6 IEnMin= 6 EnMin= -4069.81137994731     IErMin= 6 ErrMin= 1.98D-04
 ErrMax= 1.98D-04  0.00D+00 EMaxC= 1.00D-01 BMatC= 1.89D-04 BMatP= 1.24D-03
 IDIUse=3 WtCom= 9.98D-01 WtEn= 1.98D-03
 Coeff-Com:  0.206D-02-0.632D-02 0.122D-01 0.415D-01 0.306D+00 0.644D+00
 Coeff-En:   0.000D+00 0.000D+00 0.000D+00 0.000D+00 0.113D+00 0.887D+00
 Coeff:      0.206D-02-0.630D-02 0.121D-01 0.414D-01 0.306D+00 0.645D+00
 Gap=     0.122 Goal=   None    Shift=    0.000
 RMSDP=1.68D-05 MaxDP=1.17D-03 DE=-1.10D-03 OVMax= 7.69D-03

 Cycle   7  Pass 1  IDiag  1:
 RMSU=  1.11D-05    CP:  9.64D-01  1.49D+00  6.86D-01  6.18D-01  8.49D-01
                    CP:  7.40D-01
 E= -4069.81158832414     Delta-E=       -0.000208376823 Rises=F Damp=F
 DIIS: error= 8.80D-05 at cycle   7 NSaved=   7.
 NSaved= 7 IEnMin= 7 EnMin= -4069.81158832414     IErMin= 7 ErrMin= 8.80D-05
 ErrMax= 8.80D-05  0.00D+00 EMaxC= 1.00D-01 BMatC= 2.37D-05 BMatP= 1.89D-04
 IDIUse=1 WtCom= 1.00D+00 WtEn= 0.00D+00
 Coeff-Com:  0.453D-02-0.994D-02-0.886D-02-0.324D-02 0.106D+00 0.336D+00
 Coeff-Com:  0.575D+00
 Coeff:      0.453D-02-0.994D-02-0.886D-02-0.324D-02 0.106D+00 0.336D+00
 Coeff:      0.575D+00
 Gap=     0.122 Goal=   None    Shift=    0.000
 RMSDP=6.69D-06 MaxDP=1.06D-03 DE=-2.08D-04 OVMax= 3.37D-03

 Cycle   8  Pass 1  IDiag  1:
 RMSU=  4.77D-06    CP:  9.64D-01  1.50D+00  6.86D-01  6.23D-01  8.51D-01
                    CP:  8.64D-01  8.12D-01
 E= -4069.81161755481     Delta-E=       -0.000029230672 Rises=F Damp=F
 DIIS: error= 5.34D-05 at cycle   8 NSaved=   8.
 NSaved= 8 IEnMin= 8 EnMin= -4069.81161755481     IErMin= 8 ErrMin= 5.34D-05
 ErrMax= 5.34D-05  0.00D+00 EMaxC= 1.00D-01 BMatC= 4.94D-06 BMatP= 2.37D-05
 IDIUse=1 WtCom= 1.00D+00 WtEn= 0.00D+00
 Coeff-Com:  0.220D-02-0.436D-02-0.783D-02-0.121D-01-0.990D-02 0.338D-01
 Coeff-Com:  0.330D+00 0.669D+00
 Coeff:      0.220D-02-0.436D-02-0.783D-02-0.121D-01-0.990D-02 0.338D-01
 Coeff:      0.330D+00 0.669D+00
 Gap=     0.122 Goal=   None    Shift=    0.000
 RMSDP=3.35D-06 MaxDP=3.73D-04 DE=-2.92D-05 OVMax= 1.06D-03

 Cycle   9  Pass 1  IDiag  1:
 RMSU=  1.94D-06    CP:  9.64D-01  1.50D+00  6.87D-01  6.25D-01  8.68D-01
                    CP:  8.91D-01  1.01D+00  9.57D-01
 E= -4069.81162547776     Delta-E=       -0.000007922950 Rises=F Damp=F
 DIIS: error= 2.02D-05 at cycle   9 NSaved=   9.
 NSaved= 9 IEnMin= 9 EnMin= -4069.81162547776     IErMin= 9 ErrMin= 2.02D-05
 ErrMax= 2.02D-05  0.00D+00 EMaxC= 1.00D-01 BMatC= 7.34D-07 BMatP= 4.94D-06
 IDIUse=1 WtCom= 1.00D+00 WtEn= 0.00D+00
 Coeff-Com:  0.480D-03-0.799D-03-0.273D-02-0.607D-02-0.206D-01-0.396D-01
 Coeff-Com:  0.984D-01 0.333D+00 0.638D+00
 Coeff:      0.480D-03-0.799D-03-0.273D-02-0.607D-02-0.206D-01-0.396D-01
 Coeff:      0.984D-01 0.333D+00 0.638D+00
 Gap=     0.122 Goal=   None    Shift=    0.000
 RMSDP=1.44D-06 MaxDP=1.44D-04 DE=-7.92D-06 OVMax= 7.62D-04

 Cycle  10  Pass 1  IDiag  1:
 RMSU=  9.54D-07    CP:  9.64D-01  1.50D+00  6.87D-01  6.25D-01  8.71D-01
                    CP:  9.04D-01  1.05D+00  1.12D+00  1.06D+00
 E= -4069.81162713932     Delta-E=       -0.000001661567 Rises=F Damp=F
 DIIS: error= 1.04D-05 at cycle  10 NSaved=  10.
 NSaved=10 IEnMin=10 EnMin= -4069.81162713932     IErMin=10 ErrMin= 1.04D-05
 ErrMax= 1.04D-05  0.00D+00 EMaxC= 1.00D-01 BMatC= 1.74D-07 BMatP= 7.34D-07
 IDIUse=1 WtCom= 1.00D+00 WtEn= 0.00D+00
 Coeff-Com: -0.424D-03 0.891D-03 0.121D-02 0.106D-02-0.376D-02-0.312D-01
 Coeff-Com: -0.440D-01-0.726D-01 0.243D+00 0.906D+00
 Coeff:     -0.424D-03 0.891D-03 0.121D-02 0.106D-02-0.376D-02-0.312D-01
 Coeff:     -0.440D-01-0.726D-01 0.243D+00 0.906D+00
 Gap=     0.122 Goal=   None    Shift=    0.000
 RMSDP=1.24D-06 MaxDP=1.22D-04 DE=-1.66D-06 OVMax= 6.37D-04

 Cycle  11  Pass 1  IDiag  1:
 RMSU=  5.34D-07    CP:  9.64D-01  1.50D+00  6.87D-01  6.26D-01  8.73D-01
                    CP:  9.13D-01  1.10D+00  1.23D+00  1.39D+00  1.36D+00
 E= -4069.81162794731     Delta-E=       -0.000000807981 Rises=F Damp=F
 DIIS: error= 4.12D-06 at cycle  11 NSaved=  11.
 NSaved=11 IEnMin=11 EnMin= -4069.81162794731     IErMin=11 ErrMin= 4.12D-06
 ErrMax= 4.12D-06  0.00D+00 EMaxC= 1.00D-01 BMatC= 6.73D-08 BMatP= 1.74D-07
 IDIUse=1 WtCom= 1.00D+00 WtEn= 0.00D+00
 Coeff-Com: -0.336D-03 0.655D-03 0.135D-02 0.212D-02 0.433D-02-0.876D-02
 Coeff-Com: -0.418D-01-0.132D+00-0.315D-01 0.483D+00 0.723D+00
 Coeff:     -0.336D-03 0.655D-03 0.135D-02 0.212D-02 0.433D-02-0.876D-02
 Coeff:     -0.418D-01-0.132D+00-0.315D-01 0.483D+00 0.723D+00
 Gap=     0.122 Goal=   None    Shift=    0.000
 RMSDP=7.02D-07 MaxDP=6.47D-05 DE=-8.08D-07 OVMax= 3.94D-04

 Cycle  12  Pass 1  IDiag  1:
 RMSU=  2.71D-07    CP:  9.64D-01  1.50D+00  6.87D-01  6.26D-01  8.74D-01
                    CP:  9.16D-01  1.12D+00  1.30D+00  1.56D+00  1.76D+00
                    CP:  1.18D+00
 E= -4069.81162822237     Delta-E=       -0.000000275064 Rises=F Damp=F
 DIIS: error= 2.61D-06 at cycle  12 NSaved=  12.
 NSaved=12 IEnMin=12 EnMin= -4069.81162822237     IErMin=12 ErrMin= 2.61D-06
 ErrMax= 2.61D-06  0.00D+00 EMaxC= 1.00D-01 BMatC= 1.63D-08 BMatP= 6.73D-08
 IDIUse=1 WtCom= 1.00D+00 WtEn= 0.00D+00
 Coeff-Com: -0.127D-04 0.812D-05 0.230D-03 0.583D-03 0.347D-02 0.365D-02
 Coeff-Com:  0.141D-02-0.380D-01-0.717D-01-0.515D-01 0.261D+00 0.891D+00
 Coeff:     -0.127D-04 0.812D-05 0.230D-03 0.583D-03 0.347D-02 0.365D-02
 Coeff:      0.141D-02-0.380D-01-0.717D-01-0.515D-01 0.261D+00 0.891D+00
 Gap=     0.122 Goal=   None    Shift=    0.000
 RMSDP=4.38D-07 MaxDP=3.00D-05 DE=-2.75D-07 OVMax= 2.57D-04

 Cycle  13  Pass 1  IDiag  1:
 RMSU=  1.69D-07    CP:  9.64D-01  1.50D+00  6.87D-01  6.26D-01  8.74D-01
                    CP:  9.16D-01  1.13D+00  1.33D+00  1.67D+00  1.98D+00
                    CP:  1.59D+00  1.24D+00
 E= -4069.81162831749     Delta-E=       -0.000000095119 Rises=F Damp=F
 DIIS: error= 1.30D-06 at cycle  13 NSaved=  13.
 NSaved=13 IEnMin=13 EnMin= -4069.81162831749     IErMin=13 ErrMin= 1.30D-06
 ErrMax= 1.30D-06  0.00D+00 EMaxC= 1.00D-01 BMatC= 8.80D-09 BMatP= 1.63D-08
 IDIUse=1 WtCom= 1.00D+00 WtEn= 0.00D+00
 Coeff-Com:  0.120D-03-0.245D-03-0.363D-03-0.441D-03 0.691D-03 0.500D-02
 Coeff-Com:  0.188D-01 0.228D-01-0.336D-01-0.238D+00-0.158D+00 0.584D+00
 Coeff-Com:  0.800D+00
 Coeff:      0.120D-03-0.245D-03-0.363D-03-0.441D-03 0.691D-03 0.500D-02
 Coeff:      0.188D-01 0.228D-01-0.336D-01-0.238D+00-0.158D+00 0.584D+00
 Coeff:      0.800D+00
 Gap=     0.122 Goal=   None    Shift=    0.000
 RMSDP=3.54D-07 MaxDP=2.37D-05 DE=-9.51D-08 OVMax= 2.16D-04

 Cycle  14  Pass 1  IDiag  1:
 RMSU=  7.83D-08    CP:  9.64D-01  1.50D+00  6.87D-01  6.26D-01  8.75D-01
                    CP:  9.17D-01  1.13D+00  1.35D+00  1.74D+00  2.18D+00
                    CP:  1.85D+00  1.76D+00  1.11D+00
 E= -4069.81162835683     Delta-E=       -0.000000039345 Rises=F Damp=F
 DIIS: error= 7.37D-07 at cycle  14 NSaved=  14.
 NSaved=14 IEnMin=14 EnMin= -4069.81162835683     IErMin=14 ErrMin= 7.37D-07
 ErrMax= 7.37D-07  0.00D+00 EMaxC= 1.00D-01 BMatC= 1.36D-09 BMatP= 8.80D-09
 IDIUse=1 WtCom= 1.00D+00 WtEn= 0.00D+00
 Coeff-Com:  0.684D-04-0.135D-03-0.252D-03-0.393D-03-0.447D-03 0.129D-02
 Coeff-Com:  0.105D-01 0.198D-01 0.426D-02-0.102D+00-0.145D+00 0.855D-01
 Coeff-Com:  0.410D+00 0.717D+00
 Coeff:      0.684D-04-0.135D-03-0.252D-03-0.393D-03-0.447D-03 0.129D-02
 Coeff:      0.105D-01 0.198D-01 0.426D-02-0.102D+00-0.145D+00 0.855D-01
 Coeff:      0.410D+00 0.717D+00
 Gap=     0.122 Goal=   None    Shift=    0.000
 RMSDP=1.09D-07 MaxDP=7.68D-06 DE=-3.93D-08 OVMax= 6.05D-05

 Cycle  15  Pass 1  IDiag  1:
 RMSU=  3.89D-08    CP:  9.64D-01  1.50D+00  6.87D-01  6.26D-01  8.75D-01
                    CP:  9.16D-01  1.13D+00  1.35D+00  1.76D+00  2.22D+00
                    CP:  1.96D+00  1.90D+00  1.35D+00  1.04D+00
 E= -4069.81162836149     Delta-E=       -0.000000004657 Rises=F Damp=F
 DIIS: error= 3.33D-07 at cycle  15 NSaved=  15.
 NSaved=15 IEnMin=15 EnMin= -4069.81162836149     IErMin=15 ErrMin= 3.33D-07
 ErrMax= 3.33D-07  0.00D+00 EMaxC= 1.00D-01 BMatC= 2.28D-10 BMatP= 1.36D-09
 IDIUse=1 WtCom= 1.00D+00 WtEn= 0.00D+00
 Coeff-Com:  0.650D-05-0.112D-04-0.368D-04-0.876D-04-0.297D-03-0.505D-03
 Coeff-Com:  0.122D-02 0.290D-02 0.873D-02 0.979D-04-0.311D-01-0.719D-01
 Coeff-Com:  0.347D-01 0.295D+00 0.761D+00
 Coeff:      0.650D-05-0.112D-04-0.368D-04-0.876D-04-0.297D-03-0.505D-03
 Coeff:      0.122D-02 0.290D-02 0.873D-02 0.979D-04-0.311D-01-0.719D-01
 Coeff:      0.347D-01 0.295D+00 0.761D+00
 Gap=     0.122 Goal=   None    Shift=    0.000
 RMSDP=3.94D-08 MaxDP=2.97D-06 DE=-4.66D-09 OVMax= 2.88D-05

 Cycle  16  Pass 1  IDiag  1:
 RMSU=  1.90D-08    CP:  9.64D-01  1.50D+00  6.87D-01  6.26D-01  8.75D-01
                    CP:  9.17D-01  1.13D+00  1.36D+00  1.76D+00  2.23D+00
                    CP:  1.98D+00  1.96D+00  1.42D+00  1.24D+00  1.14D+00
 E= -4069.81162836229     Delta-E=       -0.000000000800 Rises=F Damp=F
 DIIS: error= 1.92D-07 at cycle  16 NSaved=  16.
 NSaved=16 IEnMin=16 EnMin= -4069.81162836229     IErMin=16 ErrMin= 1.92D-07
 ErrMax= 1.92D-07  0.00D+00 EMaxC= 1.00D-01 BMatC= 8.85D-11 BMatP= 2.28D-10
 IDIUse=1 WtCom= 1.00D+00 WtEn= 0.00D+00
 Coeff-Com: -0.139D-04 0.282D-04 0.453D-04 0.504D-04-0.360D-04-0.630D-03
 Coeff-Com: -0.183D-02-0.413D-02 0.427D-02 0.249D-01 0.207D-01-0.634D-01
 Coeff-Com: -0.796D-01-0.400D-01 0.403D+00 0.737D+00
 Coeff:     -0.139D-04 0.282D-04 0.453D-04 0.504D-04-0.360D-04-0.630D-03
 Coeff:     -0.183D-02-0.413D-02 0.427D-02 0.249D-01 0.207D-01-0.634D-01
 Coeff:     -0.796D-01-0.400D-01 0.403D+00 0.737D+00
 Gap=     0.122 Goal=   None    Shift=    0.000
 RMSDP=2.35D-08 MaxDP=1.54D-06 DE=-8.00D-10 OVMax= 1.28D-05

 Cycle  17  Pass 1  IDiag  1:
 RMSU=  1.06D-08    CP:  9.64D-01  1.50D+00  6.87D-01  6.26D-01  8.75D-01
                    CP:  9.17D-01  1.13D+00  1.36D+00  1.77D+00  2.24D+00
                    CP:  2.00D+00  1.98D+00  1.47D+00  1.34D+00  1.43D+00
                    CP:  1.23D+00
 E= -4069.81162836258     Delta-E=       -0.000000000295 Rises=F Damp=F
 DIIS: error= 9.21D-08 at cycle  17 NSaved=  17.
 NSaved=17 IEnMin=17 EnMin= -4069.81162836258     IErMin=17 ErrMin= 9.21D-08
 ErrMax= 9.21D-08  0.00D+00 EMaxC= 1.00D-01 BMatC= 1.82D-11 BMatP= 8.85D-11
 IDIUse=1 WtCom= 1.00D+00 WtEn= 0.00D+00
 Coeff-Com: -0.742D-05 0.145D-04 0.290D-04 0.425D-04 0.794D-04-0.135D-03
 Coeff-Com: -0.920D-03-0.283D-02 0.585D-04 0.963D-02 0.177D-01-0.792D-02
 Coeff-Com: -0.357D-01-0.101D+00-0.204D-01 0.286D+00 0.855D+00
 Coeff:     -0.742D-05 0.145D-04 0.290D-04 0.425D-04 0.794D-04-0.135D-03
 Coeff:     -0.920D-03-0.283D-02 0.585D-04 0.963D-02 0.177D-01-0.792D-02
 Coeff:     -0.357D-01-0.101D+00-0.204D-01 0.286D+00 0.855D+00
 Gap=     0.122 Goal=   None    Shift=    0.000
 RMSDP=1.36D-08 MaxDP=9.64D-07 DE=-2.95D-10 OVMax= 9.79D-06

 Cycle  18  Pass 1  IDiag  1:
 RMSU=  5.18D-09    CP:  9.64D-01  1.50D+00  6.87D-01  6.26D-01  8.75D-01
                    CP:  9.17D-01  1.13D+00  1.36D+00  1.77D+00  2.24D+00
                    CP:  2.00D+00  1.99D+00  1.49D+00  1.40D+00  1.60D+00
                    CP:  1.63D+00  1.37D+00
 E= -4069.81162836268     Delta-E=       -0.000000000091 Rises=F Damp=F
 DIIS: error= 6.76D-08 at cycle  18 NSaved=  18.
 NSaved=18 IEnMin=18 EnMin= -4069.81162836268     IErMin=18 ErrMin= 6.76D-08
 ErrMax= 6.76D-08  0.00D+00 EMaxC= 1.00D-01 BMatC= 7.98D-12 BMatP= 1.82D-11
 IDIUse=1 WtCom= 1.00D+00 WtEn= 0.00D+00
 Coeff-Com:  0.126D-05-0.285D-05-0.164D-05 0.236D-05 0.633D-04 0.160D-03
 Coeff-Com:  0.286D-03-0.201D-04-0.120D-02-0.491D-02 0.116D-02 0.175D-01
 Coeff-Com:  0.146D-01-0.377D-01-0.153D+00-0.168D+00 0.403D+00 0.927D+00
 Coeff:      0.126D-05-0.285D-05-0.164D-05 0.236D-05 0.633D-04 0.160D-03
 Coeff:      0.286D-03-0.201D-04-0.120D-02-0.491D-02 0.116D-02 0.175D-01
 Coeff:      0.146D-01-0.377D-01-0.153D+00-0.168D+00 0.403D+00 0.927D+00
 Gap=     0.122 Goal=   None    Shift=    0.000
 RMSDP=1.12D-08 MaxDP=7.44D-07 DE=-9.09D-11 OVMax= 6.07D-06

 Cycle  19  Pass 1  IDiag  1:
 RMSU=  3.07D-09    CP:  9.64D-01  1.50D+00  6.87D-01  6.26D-01  8.75D-01
                    CP:  9.17D-01  1.13D+00  1.36D+00  1.77D+00  2.24D+00
                    CP:  2.00D+00  2.00D+00  1.50D+00  1.44D+00  1.74D+00
                    CP:  1.93D+00  1.90D+00  1.26D+00
 E= -4069.81162836260     Delta-E=        0.000000000080 Rises=F Damp=F
 DIIS: error= 3.11D-08 at cycle  19 NSaved=  19.
 NSaved=19 IEnMin=18 EnMin= -4069.81162836268     IErMin=19 ErrMin= 3.11D-08
 ErrMax= 3.11D-08  0.00D+00 EMaxC= 1.00D-01 BMatC= 2.01D-12 BMatP= 7.98D-12
 IDIUse=1 WtCom= 1.00D+00 WtEn= 0.00D+00
 Coeff-Com:  0.302D-05-0.612D-05-0.100D-04-0.121D-04 0.174D-04 0.132D-03
 Coeff-Com:  0.481D-03 0.814D-03-0.647D-03-0.627D-02-0.488D-02 0.129D-01
 Coeff-Com:  0.215D-01 0.963D-02-0.803D-01-0.197D+00-0.730D-02 0.528D+00
 Coeff-Com:  0.723D+00
 Coeff:      0.302D-05-0.612D-05-0.100D-04-0.121D-04 0.174D-04 0.132D-03
 Coeff:      0.481D-03 0.814D-03-0.647D-03-0.627D-02-0.488D-02 0.129D-01
 Coeff:      0.215D-01 0.963D-02-0.803D-01-0.197D+00-0.730D-02 0.528D+00
 Coeff:      0.723D+00
 Gap=     0.122 Goal=   None    Shift=    0.000
 RMSDP=5.21D-09 MaxDP=3.83D-07 DE= 8.00D-11 OVMax= 3.83D-06

 SCF Done:  E(RCAM-B3LYP) =  -4069.81162836     A.U. after   19 cycles
            NFock= 19  Conv=0.52D-08     -V/T= 2.0102
 KE= 4.028802039094D+03 PE=-3.792883208385D+04 EE= 1.560632929493D+04
 Leave Link  502 at Sat Sep 11 10:15:12 2021, MaxMem= 23488102400 cpu:           12443.7 elap:             542.1
 (Enter /sw/apps/gaussian-16.0/g16/l801.exe)
 DoSCS=F DFT=T ScalE2(SS,OS)=  1.000000  1.000000
 ExpMin= 3.36D-02 ExpMax= 4.95D+03 ExpMxC= 7.45D+02 IAcc=3 IRadAn=         5 AccDes= 0.00D+00
 HarFok:  IExCor=  205 AccDes= 0.00D+00 IRadAn=         5 IDoV=-2 UseB2=F ITyADJ=14
 ICtDFT= 12500011 ScaDFX=  1.000000  1.000000  1.000000  1.000000
 GSVD:  LWork=       -9588 too small for GESVD, short by       45590 words or       45590 for optimal perf.
 Largest valence mixing into a core orbital is  2.03D-04
 Largest core mixing into a valence orbital is  5.24D-05
 Range of M.O.s used for correlation:    95  1572
 NBasis=  1572 NAE=   312 NBE=   312 NFC=    94 NFV=     0
 NROrb=   1478 NOA=   218 NOB=   218 NVA=  1260 NVB=  1260
 Leave Link  801 at Sat Sep 11 10:15:12 2021, MaxMem= 23488102400 cpu:               7.7 elap:               0.3
 (Enter /sw/apps/gaussian-16.0/g16/l914.exe)
 RHF ground state
 Two-electron integrals replicated using symmetry.
 MDV= 23488102400 DFT=T DoStab=F Mixed=T DoRPA=T DoScal=F NonHer=T
 Making orbital integer symmetry assigments:
 Orbital symmetries:
       Occupied  (A) (A) (A) (A) (A) (A) (A) (A) (A) (A) (A) (A)
                 (A) (A) (A) (A) (A) (A) (A) (A) (A) (A) (A) (A)
                 (A) (A) (A) (A) (A) (A) (A) (A) (A) (A) (A) (A)
                 (A) (A) (A) (A) (A) (A) (A) (A) (A) (A) (A) (A)
                 (A) (A) (A) (A) (A) (A) (A) (A) (A) (A) (A) (A)
                 (A) (A) (A) (A) (A) (A) (A) (A) (A) (A) (A) (A)
                 (A) (A) (A) (A) (A) (A) (A) (A) (A) (A) (A) (A)
                 (A) (A) (A) (A) (A) (A) (A) (A) (A) (A) (A) (A)
                 (A) (A) (A) (A) (A) (A) (A) (A) (A) (A) (A) (A)
                 (A) (A) (A) (A) (A) (A) (A) (A) (A) (A) (A) (A)
                 (A) (A) (A) (A) (A) (A) (A) (A) (A) (A) (A) (A)
                 (A) (A) (A) (A) (A) (A) (A) (A) (A) (A) (A) (A)
                 (A) (A) (A) (A) (A) (A) (A) (A) (A) (A) (A) (A)
                 (A) (A) (A) (A) (A) (A) (A) (A) (A) (A) (A) (A)
                 (A) (A) (A) (A) (A) (A) (A) (A) (A) (A) (A) (A)
                 (A) (A) (A) (A) (A) (A) (A) (A) (A) (A) (A) (A)
                 (A) (A) (A) (A) (A) (A) (A) (A) (A) (A) (A) (A)
                 (A) (A) (A) (A) (A) (A) (A) (A) (A) (A) (A) (A)
                 (A) (A) (A) (A) (A) (A) (A) (A) (A) (A) (A) (A)
                 (A) (A) (A) (A) (A) (A) (A) (A) (A) (A) (A) (A)
                 (A) (A) (A) (A) (A) (A) (A) (A) (A) (A) (A) (A)
                 (A) (A) (A) (A) (A) (A) (A) (A) (A) (A) (A) (A)
                 (A) (A) (A) (A) (A) (A) (A) (A) (A) (A) (A) (A)
                 (A) (A) (A) (A) (A) (A) (A) (A) (A) (A) (A) (A)
                 (A) (A) (A) (A) (A) (A) (A) (A) (A) (A) (A) (A)
                 (A) (A) (A) (A) (A) (A) (A) (A) (A) (A) (A) (A)
       Virtual   (A) (A) (A) (A) (A) (A) (A) (A) (A) (A) (A) (A)
                 (A) (A) (A) (A) (A) (A) (A) (A) (A) (A) (A) (A)
                 (A) (A) (A) (A) (A) (A) (A) (A) (A) (A) (A) (A)
                 (A) (A) (A) (A) (A) (A) (A) (A) (A) (A) (A) (A)
                 (A) (A) (A) (A) (A) (A) (A) (A) (A) (A) (A) (A)
                 (A) (A) (A) (A) (A) (A) (A) (A) (A) (A) (A) (A)
                 (A) (A) (A) (A) (A) (A) (A) (A) (A) (A) (A) (A)
                 (A) (A) (A) (A) (A) (A) (A) (A) (A) (A) (A) (A)
                 (A) (A) (A) (A) (A) (A) (A) (A) (A) (A) (A) (A)
                 (A) (A) (A) (A) (A) (A) (A) (A) (A) (A) (A) (A)
                 (A) (A) (A) (A) (A) (A) (A) (A) (A) (A) (A) (A)
                 (A) (A) (A) (A) (A) (A) (A) (A) (A) (A) (A) (A)
                 (A) (A) (A) (A) (A) (A) (A) (A) (A) (A) (A) (A)
                 (A) (A) (A) (A) (A) (A) (A) (A) (A) (A) (A) (A)
                 (A) (A) (A) (A) (A) (A) (A) (A) (A) (A) (A) (A)
                 (A) (A) (A) (A) (A) (A) (A) (A) (A) (A) (A) (A)
                 (A) (A) (A) (A) (A) (A) (A) (A) (A) (A) (A) (A)
                 (A) (A) (A) (A) (A) (A) (A) (A) (A) (A) (A) (A)
                 (A) (A) (A) (A) (A) (A) (A) (A) (A) (A) (A) (A)
                 (A) (A) (A) (A) (A) (A) (A) (A) (A) (A) (A) (A)
                 (A) (A) (A) (A) (A) (A) (A) (A) (A) (A) (A) (A)
                 (A) (A) (A) (A) (A) (A) (A) (A) (A) (A) (A) (A)
                 (A) (A) (A) (A) (A) (A) (A) (A) (A) (A) (A) (A)
                 (A) (A) (A) (A) (A) (A) (A) (A) (A) (A) (A) (A)
                 (A) (A) (A) (A) (A) (A) (A) (A) (A) (A) (A) (A)
                 (A) (A) (A) (A) (A) (A) (A) (A) (A) (A) (A) (A)
                 (A) (A) (A) (A) (A) (A) (A) (A) (A) (A) (A) (A)
                 (A) (A) (A) (A) (A) (A) (A) (A) (A) (A) (A) (A)
                 (A) (A) (A) (A) (A) (A) (A) (A) (A) (A) (A) (A)
                 (A) (A) (A) (A) (A) (A) (A) (A) (A) (A) (A) (A)
                 (A) (A) (A) (A) (A) (A) (A) (A) (A) (A) (A) (A)
                 (A) (A) (A) (A) (A) (A) (A) (A) (A) (A) (A) (A)
                 (A) (A) (A) (A) (A) (A) (A) (A) (A) (A) (A) (A)
                 (A) (A) (A) (A) (A) (A) (A) (A) (A) (A) (A) (A)
                 (A) (A) (A) (A) (A) (A) (A) (A) (A) (A) (A) (A)
                 (A) (A) (A) (A) (A) (A) (A) (A) (A) (A) (A) (A)
                 (A) (A) (A) (A) (A) (A) (A) (A) (A) (A) (A) (A)
                 (A) (A) (A) (A) (A) (A) (A) (A) (A) (A) (A) (A)
                 (A) (A) (A) (A) (A) (A) (A) (A) (A) (A) (A) (A)
                 (A) (A) (A) (A) (A) (A) (A) (A) (A) (A) (A) (A)
                 (A) (A) (A) (A) (A) (A) (A) (A) (A) (A) (A) (A)
                 (A) (A) (A) (A) (A) (A) (A) (A) (A) (A) (A) (A)
                 (A) (A) (A) (A) (A) (A) (A) (A) (A) (A) (A) (A)
                 (A) (A) (A) (A) (A) (A) (A) (A) (A) (A) (A) (A)
                 (A) (A) (A) (A) (A) (A) (A) (A) (A) (A) (A) (A)
                 (A) (A) (A) (A) (A) (A) (A) (A) (A) (A) (A) (A)
                 (A) (A) (A) (A) (A) (A) (A) (A) (A) (A) (A) (A)
                 (A) (A) (A) (A) (A) (A) (A) (A) (A) (A) (A) (A)
                 (A) (A) (A) (A) (A) (A) (A) (A) (A) (A) (A) (A)
                 (A) (A) (A) (A) (A) (A) (A) (A) (A) (A) (A) (A)
                 (A) (A) (A) (A) (A) (A) (A) (A) (A) (A) (A) (A)
                 (A) (A) (A) (A) (A) (A) (A) (A) (A) (A) (A) (A)
                 (A) (A) (A) (A) (A) (A) (A) (A) (A) (A) (A) (A)
                 (A) (A) (A) (A) (A) (A) (A) (A) (A) (A) (A) (A)
                 (A) (A) (A) (A) (A) (A) (A) (A) (A) (A) (A) (A)
                 (A) (A) (A) (A) (A) (A) (A) (A) (A) (A) (A) (A)
                 (A) (A) (A) (A) (A) (A) (A) (A) (A) (A) (A) (A)
                 (A) (A) (A) (A) (A) (A) (A) (A) (A) (A) (A) (A)
                 (A) (A) (A) (A) (A) (A) (A) (A) (A) (A) (A) (A)
                 (A) (A) (A) (A) (A) (A) (A) (A) (A) (A) (A) (A)
                 (A) (A) (A) (A) (A) (A) (A) (A) (A) (A) (A) (A)
                 (A) (A) (A) (A) (A) (A) (A) (A) (A) (A) (A) (A)
                 (A) (A) (A) (A) (A) (A) (A) (A) (A) (A) (A) (A)
                 (A) (A) (A) (A) (A) (A) (A) (A) (A) (A) (A) (A)
                 (A) (A) (A) (A) (A) (A) (A) (A) (A) (A) (A) (A)
                 (A) (A) (A) (A) (A) (A) (A) (A) (A) (A) (A) (A)
                 (A) (A) (A) (A) (A) (A) (A) (A) (A) (A) (A) (A)
                 (A) (A) (A) (A) (A) (A) (A) (A) (A) (A) (A) (A)
                 (A) (A) (A) (A) (A) (A) (A) (A) (A) (A) (A) (A)
                 (A) (A) (A) (A) (A) (A) (A) (A) (A) (A) (A) (A)
                 (A) (A) (A) (A) (A) (A) (A) (A) (A) (A) (A) (A)
                 (A) (A) (A) (A) (A) (A) (A) (A) (A) (A) (A) (A)
                 (A) (A) (A) (A) (A) (A) (A) (A) (A) (A) (A) (A)
                 (A) (A) (A) (A) (A) (A) (A) (A) (A) (A) (A) (A)
                 (A) (A) (A) (A) (A) (A) (A) (A) (A) (A) (A) (A)
                 (A) (A) (A) (A) (A) (A) (A) (A) (A) (A) (A) (A)
                 (A) (A) (A) (A) (A) (A) (A) (A) (A) (A) (A) (A)
                 (A) (A) (A) (A) (A) (A) (A) (A) (A) (A) (A) (A)
                 (A) (A) (A) (A) (A) (A) (A) (A) (A) (A) (A) (A)
                 (A) (A) (A) (A) (A) (A) (A) (A) (A) (A) (A) (A)
                 (A) (A) (A) (A) (A) (A) (A) (A) (A) (A) (A) (A)
                 (A) (A) (A) (A) (A) (A) (A) (A) (A) (A) (A) (A)
                 (A) (A) (A) (A) (A) (A) (A) (A) (A) (A) (A) (A)
                 (A) (A) (A) (A) (A) (A) (A) (A) (A) (A) (A) (A)
                 (A) (A) (A) (A) (A) (A) (A) (A) (A) (A) (A) (A)
                 (A) (A) (A) (A) (A) (A) (A) (A) (A) (A) (A) (A)
                 (A) (A) (A) (A) (A) (A) (A) (A) (A) (A) (A) (A)
                 (A) (A) (A) (A) (A) (A) (A) (A) (A) (A) (A) (A)
                 (A) (A) (A) (A) (A) (A) (A) (A) (A) (A) (A) (A)
                 (A) (A) (A) (A) (A) (A) (A) (A) (A) (A) (A) (A)
                 (A) (A) (A) (A) (A) (A) (A) (A) (A) (A) (A) (A)
                 (A) (A) (A) (A) (A) (A) (A) (A) (A) (A) (A) (A)
                 (A) (A) (A) (A) (A) (A) (A) (A) (A) (A) (A) (A)
                 (A) (A) (A) (A) (A) (A) (A) (A) (A) (A) (A) (A)
                 (A) (A) (A) (A) (A) (A) (A) (A) (A) (A) (A) (A)
                 (A) (A) (A) (A) (A) (A) (A) (A) (A) (A) (A) (A)
                 (A) (A) (A) (A) (A) (A) (A) (A) (A) (A) (A) (A)
                 (A) (A) (A) (A) (A) (A) (A) (A) (A) (A) (A) (A)
                 (A) (A) (A) (A) (A) (A) (A) (A) (A) (A) (A) (A)
                 (A) (A) (A) (A) (A) (A) (A) (A) (A) (A) (A) (A)
                 (A) (A) (A) (A) (A) (A) (A) (A) (A) (A) (A) (A)
                 (A) (A) (A) (A) (A) (A) (A) (A) (A) (A) (A) (A)
                 (A) (A) (A) (A) (A) (A) (A) (A) (A) (A) (A) (A)
                 (A) (A) (A) (A) (A) (A) (A) (A) (A) (A) (A) (A)
                 (A) (A) (A) (A) (A) (A) (A) (A) (A) (A) (A) (A)
    20 initial guesses have been made.
 Convergence on wavefunction:    0.001000000000000
 Davidson Disk Diagonalization:  ConvIn= 1.00D-03 SkipCon=T Conv= 1.00D-03.
 Max sub-space:  2000 roots to seek:    20 dimension of matrix:       549360
 Iteration     1 Dimension    20 NMult     0 NNew     20
 CISAX will form    20 AO SS matrices at one time.
 NMat=    20 NSing=    20 JSym2X= 0.
 FoFJK:  IHMeth= 1 ICntrl=       0 DoSepK=T KAlg= 0 I1Cent=           0 FoldK=F
 IRaf=         1 NMat=      40 IRICut=       1 DoRegI=T DoRafI=F ISym2E= 0 IDoP0=3 IntGTp=3.
 FoFCou: FMM=T IPFlag=           0 FMFlag=      100000 FMFlg1=        2001
         NFxFlg=           0 DoJE=F BraDBF=F KetDBF=F FulRan=T
         wScrn=  0.000000 ICntrl=       500 IOpCl=  0 I1Cent=           0 NGrid=           0
         NMat0=   20 NMatS0=     20 NMatT0=    0 NMatD0=   20 NMtDS0=    0 NMtDT0=    0
 Symmetry not used in FoFCou.
 FMM levels:  10  Number of levels for PrismC:   9
 New state      1 was old state      7
 New state      2 was old state      6
 New state      3 was old state      1
 New state      4 was old state      2
 New state      5 was old state      3
 Excitation Energies [eV] at current iteration:
 Root      1 :     2.612609053434612
 Root      2 :     2.619693248431180
 Root      3 :     2.657465232827357
 Root      4 :     2.658118662552071
 Root      5 :     2.713247265606037
 Root      6 :     2.734243151994857
 Root      7 :     3.448916078603304
 Root      8 :     3.534745851577068
 Root      9 :     3.625117487933431
 Root     10 :     3.668871328319941
 Root     11 :     3.739030154004256
 Root     12 :     3.758628110105944
 Root     13 :     4.284159159588429
 Root     14 :     4.325579948311154
 Root     15 :     4.563591278641525
 Root     16 :     4.654164366324891
 Root     17 :     4.876031992938929
 Root     18 :     4.906548859733163
 Root     19 :     4.958899031230287
 Root     20 :     4.991408326972645
 Iteration     2 Dimension    30 NMult    20 NNew     10
 CISAX will form    10 AO SS matrices at one time.
 NMat=    10 NSing=    10 JSym2X= 0.
 New state      1 was old state      4
 Root      1 not converged, maximum delta is    0.146958648283044
 New state      2 was old state      5
 Root      2 not converged, maximum delta is    0.153085159556932
 New state      3 was old state      1
 Root      3 not converged, maximum delta is    0.348948778703468
 New state      4 was old state      2
 Root      4 not converged, maximum delta is    0.338512976695559
 New state      5 was old state      3
 Root      5 not converged, maximum delta is    0.006174818181324
 Excitation Energies [eV] at current iteration:
 Root      1 :     1.790593182410398   Change is   -0.867525480141673
 Root      2 :     1.817383727723638   Change is   -0.895863537882400
 Root      3 :     2.233899692983293   Change is   -0.378709360451319
 Root      4 :     2.240520273876831   Change is   -0.379172974554349
 Root      5 :     2.656994440382979   Change is   -0.000470792444378
 Iteration     3 Dimension    40 NMult    30 NNew     10
 CISAX will form    10 AO SS matrices at one time.
 NMat=    10 NSing=    10 JSym2X= 0.
 Root      1 not converged, maximum delta is    0.054577057370276
 Root      2 not converged, maximum delta is    0.055417332629833
 Root      3 not converged, maximum delta is    0.085028198475107
 Root      4 not converged, maximum delta is    0.084590381720521
 Root      5 has converged.
 Excitation Energies [eV] at current iteration:
 Root      1 :     1.684160764718617   Change is   -0.106432417691782
 Root      2 :     1.708373850255422   Change is   -0.109009877468215
 Root      3 :     2.192938537070613   Change is   -0.040961155912680
 Root      4 :     2.201248040855813   Change is   -0.039272233021018
 Root      5 :     2.656991915109316   Change is   -0.000002525273663
 Iteration     4 Dimension    48 NMult    40 NNew      8
 CISAX will form     8 AO SS matrices at one time.
 NMat=     8 NSing=     8 JSym2X= 0.
 Root      1 not converged, maximum delta is    0.010497577102374
 Root      2 not converged, maximum delta is    0.010328536303585
 Root      3 not converged, maximum delta is    0.014028272381992
 Root      4 not converged, maximum delta is    0.013871983637913
 Root      5 has converged.
 Excitation Energies [eV] at current iteration:
 Root      1 :     1.667465567022576   Change is   -0.016695197696041
 Root      2 :     1.691485996358300   Change is   -0.016887853897122
 Root      3 :     2.185698703886631   Change is   -0.007239833183982
 Root      4 :     2.194418194593911   Change is   -0.006829846261902
 Root      5 :     2.656991909587565   Change is   -0.000000005521750
 Iteration     5 Dimension    56 NMult    48 NNew      8
 CISAX will form     8 AO SS matrices at one time.
 NMat=     8 NSing=     8 JSym2X= 0.
 Root      1 not converged, maximum delta is    0.001703118460514
 Root      2 not converged, maximum delta is    0.001737933174399
 Root      3 not converged, maximum delta is    0.002404194574428
 Root      4 not converged, maximum delta is    0.002273827453898
 Root      5 has converged.
 Excitation Energies [eV] at current iteration:
 Root      1 :     1.665716664999023   Change is   -0.001748902023553
 Root      2 :     1.689686347696213   Change is   -0.001799648662087
 Root      3 :     2.184860549347652   Change is   -0.000838154538979
 Root      4 :     2.193638252002919   Change is   -0.000779942590993
 Root      5 :     2.656991906339941   Change is   -0.000000003247624
 Iteration     6 Dimension    64 NMult    56 NNew      8
 CISAX will form     8 AO SS matrices at one time.
 NMat=     8 NSing=     8 JSym2X= 0.
 Root      1 not converged, maximum delta is    0.001054683278836
 Root      2 not converged, maximum delta is    0.001073254901541
 Root      3 not converged, maximum delta is    0.001016384809334
 Root      4 has converged.
 Root      5 has converged.
 Excitation Energies [eV] at current iteration:
 Root      1 :     1.665468451158970   Change is   -0.000248213840053
 Root      2 :     1.689427543394938   Change is   -0.000258804301275
 Root      3 :     2.184733337355340   Change is   -0.000127211992312
 Root      4 :     2.193519506602837   Change is   -0.000118745400081
 Root      5 :     2.656991905870240   Change is   -0.000000000469701
 Iteration     7 Dimension    70 NMult    64 NNew      6
 CISAX will form     6 AO SS matrices at one time.
 NMat=     6 NSing=     6 JSym2X= 0.
 Root      1 has converged.
 Root      2 has converged.
 Root      3 has converged.
 Root      4 has converged.
 Root      5 has converged.
 Excitation Energies [eV] at current iteration:
 Root      1 :     1.665444211040902   Change is   -0.000024240118068
[...]
 Alpha virt. eigenvalues --    1.84454   1.84580   1.84820   1.84838   1.85095
 Alpha virt. eigenvalues --    1.85172   1.85281   1.85379   1.85503   1.85539
 Alpha virt. eigenvalues --    1.85872   1.85955   1.86361   1.86435   1.86565
 Alpha virt. eigenvalues --    1.86701   1.86787   1.86878   1.87039   1.87095
 Alpha virt. eigenvalues --    1.87446   1.87536   1.87690   1.87823   1.87872
 Alpha virt. eigenvalues --    1.88044   1.88071   1.88228   1.88541   1.88622
 Alpha virt. eigenvalues --    1.88829   1.88991   1.89125   1.89132   1.89637
 Alpha virt. eigenvalues --    1.89706   1.89756   1.89925   1.90127   1.90240
 Alpha virt. eigenvalues --    1.90758   1.90951   1.91354   1.91447   1.91487
 Alpha virt. eigenvalues --    1.91641   1.92159   1.92237   1.92624   1.92707
 Alpha virt. eigenvalues --    1.92988   1.93207   1.93341   1.93561   1.94279
 Alpha virt. eigenvalues --    1.94360   1.94697   1.94870   1.95474   1.95653
 Alpha virt. eigenvalues --    1.95731   1.95864   1.95999   1.96099   1.96149
 Alpha virt. eigenvalues --    1.96226   1.96537   1.96596   1.96904   1.96983
 Alpha virt. eigenvalues --    1.97452   1.97593   1.97835   1.97856   1.98175
 Alpha virt. eigenvalues --    1.98221   1.98400   1.98686   1.99127   1.99144
 Alpha virt. eigenvalues --    1.99827   1.99976   2.00663   2.00783   2.01005
 Alpha virt. eigenvalues --    2.01149   2.01484   2.01564   2.01652   2.01674
 Alpha virt. eigenvalues --    2.01728   2.01871   2.02762   2.02790   2.03201
 Alpha virt. eigenvalues --    2.03238   2.03413   2.03428   2.03491   2.03575
 Alpha virt. eigenvalues --    2.04041   2.04078   2.04965   2.05027   2.05522
 Alpha virt. eigenvalues --    2.05678   2.06090   2.06332   2.06914   2.07084
 Alpha virt. eigenvalues --    2.07192   2.07412   2.08593   2.08599   2.08988
 Alpha virt. eigenvalues --    2.09056   2.09595   2.09661   2.10777   2.11091
 Alpha virt. eigenvalues --    2.11190   2.11460   2.11538   2.11576   2.11734
 Alpha virt. eigenvalues --    2.11910   2.12468   2.12510   2.12811   2.12838
 Alpha virt. eigenvalues --    2.12851   2.12925   2.13673   2.13766   2.14143
 Alpha virt. eigenvalues --    2.14318   2.15342   2.15454   2.15932   2.16137
 Alpha virt. eigenvalues --    2.16527   2.16643   2.16765   2.17238   2.17421
 Alpha virt. eigenvalues --    2.17707   2.17712   2.17986   2.18061   2.18071
 Alpha virt. eigenvalues --    2.18335   2.18719   2.18872   2.19284   2.19645
 Alpha virt. eigenvalues --    2.19866   2.20041   2.20219   2.20298   2.20481
 Alpha virt. eigenvalues --    2.21149   2.21226   2.21679   2.21754   2.21818
 Alpha virt. eigenvalues --    2.21926   2.22682   2.22750   2.23316   2.23402
 Alpha virt. eigenvalues --    2.24400   2.24471   2.24954   2.25050   2.26305
 Alpha virt. eigenvalues --    2.26491   2.26783   2.27058   2.27109   2.27255
 Alpha virt. eigenvalues --    2.28140   2.28360   2.29272   2.29487   2.29740
 Alpha virt. eigenvalues --    2.29930   2.30456   2.30665   2.30863   2.31084
 Alpha virt. eigenvalues --    2.31191   2.31257   2.32125   2.32291   2.33140
 Alpha virt. eigenvalues --    2.33278   2.33462   2.33534   2.34137   2.34191
 Alpha virt. eigenvalues --    2.35346   2.35378   2.35800   2.35952   2.36351
 Alpha virt. eigenvalues --    2.36378   2.36499   2.36630   2.37657   2.37733
 Alpha virt. eigenvalues --    2.38266   2.38421   2.38816   2.38857   2.39615
 Alpha virt. eigenvalues --    2.39715   2.40178   2.40317   2.40487   2.40867
 Alpha virt. eigenvalues --    2.41250   2.41264   2.41681   2.41737   2.42046
 Alpha virt. eigenvalues --    2.42177   2.42868   2.42940   2.43099   2.43546
 Alpha virt. eigenvalues --    2.44012   2.44177   2.44735   2.44849   2.44906
 Alpha virt. eigenvalues --    2.45039   2.45551   2.45620   2.46313   2.46322
 Alpha virt. eigenvalues --    2.46484   2.46545   2.46806   2.46846   2.47257
 Alpha virt. eigenvalues --    2.47432   2.47716   2.47933   2.49314   2.49434
 Alpha virt. eigenvalues --    2.49934   2.50060   2.50486   2.50544   2.51122
 Alpha virt. eigenvalues --    2.51310   2.51645   2.51887   2.52424   2.52437
 Alpha virt. eigenvalues --    2.52809   2.53200   2.53920   2.54006   2.54162
 Alpha virt. eigenvalues --    2.54316   2.54791   2.54856   2.55527   2.55710
 Alpha virt. eigenvalues --    2.57869   2.58115   2.58644   2.58945   2.60210
 Alpha virt. eigenvalues --    2.60337   2.60610   2.60953   2.61713   2.61857
 Alpha virt. eigenvalues --    2.62464   2.62531   2.62957   2.63168   2.63936
 Alpha virt. eigenvalues --    2.64237   2.64250   2.64470   2.65077   2.65137
 Alpha virt. eigenvalues --    2.65785   2.65887   2.66770   2.66853   2.66907
 Alpha virt. eigenvalues --    2.67089   2.67907   2.68016   2.68847   2.68857
 Alpha virt. eigenvalues --    2.69025   2.69060   2.69381   2.69625   2.69992
 Alpha virt. eigenvalues --    2.70173   2.70978   2.71095   2.71921   2.72058
 Alpha virt. eigenvalues --    2.72523   2.72658   2.72764   2.72836   2.73267
 Alpha virt. eigenvalues --    2.73320   2.73494   2.73542   2.74512   2.74543
 Alpha virt. eigenvalues --    2.74977   2.75087   2.76555   2.76588   2.77104
 Alpha virt. eigenvalues --    2.77237   2.77461   2.77626   2.78202   2.78313
 Alpha virt. eigenvalues --    2.78721   2.78731   2.79136   2.79179   2.80276
 Alpha virt. eigenvalues --    2.80353   2.80593   2.80712   2.81124   2.81184
 Alpha virt. eigenvalues --    2.81936   2.82018   2.82341   2.82368   2.83758
 Alpha virt. eigenvalues --    2.83774   2.83865   2.83938   2.84548   2.84561
 Alpha virt. eigenvalues --    2.84881   2.84921   2.85671   2.85709   2.86683
 Alpha virt. eigenvalues --    2.86997   2.87193   2.87613   2.88164   2.88252
 Alpha virt. eigenvalues --    2.88506   2.88653   2.88902   2.88936   2.90489
 Alpha virt. eigenvalues --    2.90679   2.91101   2.91184   2.93154   2.93344
 Alpha virt. eigenvalues --    2.93795   2.94198   2.94558   2.94593   2.95359
 Alpha virt. eigenvalues --    2.95483   2.95853   2.96205   2.96389   2.96432
 Alpha virt. eigenvalues --    2.96887   2.97179   2.97816   2.98042   2.98212
 Alpha virt. eigenvalues --    2.98366   2.98372   2.98595   2.98606   2.98825
 Alpha virt. eigenvalues --    2.98888   2.98957   2.99575   2.99809   3.00035
 Alpha virt. eigenvalues --    3.00035   3.00220   3.00346   3.00462   3.01010
 Alpha virt. eigenvalues --    3.01925   3.01977   3.02040   3.02125   3.02744
 Alpha virt. eigenvalues --    3.02828   3.02975   3.03322   3.03330   3.03729
 Alpha virt. eigenvalues --    3.04072   3.04157   3.04447   3.04454   3.04537
 Alpha virt. eigenvalues --    3.04775   3.05298   3.05371   3.06112   3.06192
 Alpha virt. eigenvalues --    3.06798   3.06957   3.07932   3.08145   3.09379
 Alpha virt. eigenvalues --    3.09399   3.09689   3.10434   3.10439   3.10755
 Alpha virt. eigenvalues --    3.11333   3.11511   3.11921   3.11942   3.12157
 Alpha virt. eigenvalues --    3.12317   3.13281   3.13638   3.13663   3.13710
 Alpha virt. eigenvalues --    3.14102   3.14490   3.15906   3.16004   3.17270
 Alpha virt. eigenvalues --    3.17550   3.17890   3.18088   3.19051   3.19133
 Alpha virt. eigenvalues --    3.22317   3.22615   3.23953   3.24466   3.24686
 Alpha virt. eigenvalues --    3.25221   3.26509   3.26684   3.27420   3.27625
 Alpha virt. eigenvalues --    3.29114   3.29239   3.31403   3.31531   3.33210
 Alpha virt. eigenvalues --    3.33423   3.40272   3.40645   3.42829   3.42830
 Alpha virt. eigenvalues --    3.48669   3.48727   3.50025   3.50306   3.50859
 Alpha virt. eigenvalues --    3.51480   3.56558   3.57029   3.59103   3.59368
 Alpha virt. eigenvalues --    3.62542   3.62846   3.66123   3.66205   3.67200
 Alpha virt. eigenvalues --    3.67557   3.73286   3.74043   3.76072   3.76705
          Condensed to atoms (all electrons):
 Mulliken charges:
               1
     1  Mg   0.838600
     2  C   -0.002952
     3  C   -0.094232
     4  C   -0.045817
     5  C   -0.064071
     6  N   -0.256772
     7  C   -0.052505
     8  C   -0.013989
     9  C   -0.086981
    10  C    0.046298
    11  C    0.104801
    12  C    0.053515
    13  C   -0.071684
    14  H    0.035881
    15  N   -0.433168
    16  C    0.168420
    17  C   -0.177189
    18  C   -0.003903
    19  C    0.148709
    20  C    0.110214
    21  C    0.012467
    22  O   -0.249389
    23  C    0.062423
    24  N   -0.341109
    25  C    0.041168
    26  C   -0.028224
    27  C   -0.023935
    28  C    0.074729
    29  C    0.076127
    30  C    0.035151
    31  C   -0.004498
    32  N   -0.310489
    33  C    0.080331
    34  C   -0.169764
    35  C    0.008440
    36  C    0.082941
    37  C    0.127309
    38  C    0.046177
    39  O   -0.188144
    40  C   -0.005367
    41  C    0.212953
    42  O   -0.257105
    43  O   -0.304803
    44  C    0.157590
    45  H   -0.017632
    46  H   -0.016708
    47  H   -0.041539
    48  H    0.001029
    49  H   -0.004190
    50  H    0.025560
    51  H    0.016504
    52  H    0.016641
    53  H    0.010972
    54  H    0.044152
    55  H    0.018027
    56  H    0.017723
    57  H    0.005736
    58  H    0.026904
    59  H    0.039405
    60  H    0.037219
    61  H    0.036016
    62  H    0.031473
    63  H    0.016578
    64  H    0.009581
    65  H    0.023336
    66  H    0.012628
    67  H    0.004799
    68  H    0.006461
    69  H    0.004711
    70  H    0.008950
    71  H    0.017222
    72  H    0.029018
    73  H    0.047701
    74  H    0.008982
    75  H    0.046130
    76  H    0.035215
    77  H    0.043178
    78  H    0.046193
    79  H    0.053870
    80  Mg   0.838116
    81  C   -0.016806
    82  C   -0.087971
    83  C   -0.045571
    84  C   -0.064286
    85  N   -0.254542
    86  C   -0.049612
    87  C   -0.015104
    88  C   -0.090566
    89  C    0.045843
    90  C    0.114421
    91  C    0.062596
    92  C   -0.077720
    93  H    0.034647
    94  N   -0.423432
    95  C    0.162871
    96  C   -0.175012
    97  C   -0.007996
    98  C    0.152025
    99  C    0.099567
   100  C    0.015332
   101  O   -0.253217
   102  C    0.061301
   103  N   -0.349992
   104  C    0.037597
   105  C   -0.019900
   106  C   -0.034869
   107  C    0.089084
   108  C    0.073586
   109  C    0.034698
   110  C   -0.007608
   111  N   -0.324250
   112  C    0.078639
   113  C   -0.162593
   114  C    0.002533
   115  C    0.096333
   116  C    0.131378
   117  C    0.042762
   118  O   -0.187582
   119  C    0.000777
   120  C    0.211196
   121  O   -0.251198
   122  O   -0.305524
   123  C    0.152091
   124  H   -0.020203
   125  H   -0.015611
   126  H   -0.040189
   127  H   -0.000577
   128  H   -0.004749
   129  H    0.023052
   130  H    0.014593
   131  H    0.015622
   132  H    0.013792
   133  H    0.037660
   134  H    0.020738
   135  H    0.019339
   136  H    0.008433
   137  H    0.025512
   138  H    0.039472
   139  H    0.037854
   140  H    0.036172
   141  H    0.033770
   142  H    0.014145
   143  H    0.012903
   144  H    0.025095
   145  H    0.011896
   146  H    0.006037
   147  H    0.006027
   148  H    0.003653
   149  H    0.010819
   150  H    0.017712
   151  H    0.030116
   152  H    0.045802
   153  H    0.008368
   154  H    0.048498
   155  H    0.035561
   156  H    0.043903
   157  H    0.049285
   158  H    0.053458
 Sum of Mulliken charges =  -0.00000
 Mulliken charges with hydrogens summed into heavy atoms:
               1
     1  Mg   0.838600
     2  C   -0.002952
     3  C   -0.111863
     4  C   -0.062525
     5  C   -0.105610
     6  N   -0.256772
     7  C   -0.052505
     8  C   -0.012960
     9  C   -0.091171
    10  C    0.046298
    11  C    0.163506
    12  C    0.108639
    13  C   -0.000053
    15  N   -0.433168
    16  C    0.168420
    17  C   -0.177189
    18  C   -0.003903
    19  C    0.148709
    20  C    0.182258
    21  C    0.012467
    22  O   -0.249389
    23  C    0.167130
    24  N   -0.341109
    25  C    0.041168
    26  C   -0.011646
    27  C   -0.014354
    28  C    0.074729
    29  C    0.116890
    30  C    0.046322
    31  C    0.050692
    32  N   -0.310489
    33  C    0.080331
    34  C   -0.169764
    35  C    0.008440
    36  C    0.082941
    37  C    0.230123
    38  C    0.046177
    39  O   -0.188144
    40  C    0.029847
    41  C    0.212953
    42  O   -0.257105
    43  O   -0.304803
    44  C    0.300831
    80  Mg   0.838116
    81  C   -0.016806
    82  C   -0.108174
    83  C   -0.061182
    84  C   -0.104475
    85  N   -0.254542
    86  C   -0.049612
    87  C   -0.015681
    88  C   -0.095315
    89  C    0.045843
    90  C    0.167688
    91  C    0.114048
    92  C   -0.002996
    94  N   -0.423432
    95  C    0.162871
    96  C   -0.175012
    97  C   -0.007996
    98  C    0.152025
    99  C    0.172984
   100  C    0.015332
   101  O   -0.253217
   102  C    0.169098
   103  N   -0.349992
   104  C    0.037597
   105  C   -0.005756
   106  C   -0.021966
   107  C    0.089084
   108  C    0.116615
   109  C    0.044378
   110  C    0.051039
   111  N   -0.324250
   112  C    0.078639
   113  C   -0.162593
   114  C    0.002533
   115  C    0.096333
   116  C    0.234046
   117  C    0.042762
   118  O   -0.187582
   119  C    0.036338
   120  C    0.211196
   121  O   -0.251198
   122  O   -0.305524
   123  C    0.298737
 Electronic spatial extent (au):  <R**2>=         154005.6131
 Charge=             -0.0000 electrons
 Dipole moment (field-independent basis, Debye):
    X=             -3.1884    Y=             -2.3886    Z=             -7.9401  Tot=              8.8835
 Quadrupole moment (field-independent basis, Debye-Ang):
   XX=           -501.5991   YY=           -557.5086   ZZ=           -445.8990
   XY=             -4.4119   XZ=            -22.5097   YZ=            -35.0959
 Traceless Quadrupole moment (field-independent basis, Debye-Ang):
   XX=              0.0698   YY=            -55.8397   ZZ=             55.7699
   XY=             -4.4119   XZ=            -22.5097   YZ=            -35.0959
 Octapole moment (field-independent basis, Debye-Ang**2):
  XXX=           -323.2693  YYY=            280.3124  ZZZ=            -48.0181  XYY=            132.5507
  XXY=            -52.0020  XXZ=           -608.8326  XZZ=           -110.7779  YZZ=           -177.6775
  YYZ=           -261.3575  XYZ=             16.1886
 Hexadecapole moment (field-independent basis, Debye-Ang**3):
 XXXX=        -145824.4544 YYYY=         -41222.7774 ZZZZ=         -23152.5371 XXXY=            267.3855
 XXXZ=          -2876.0332 YYYX=            384.0787 YYYZ=          -1076.2505 ZZZX=             42.1287
 ZZZY=            198.7415 XXYY=         -31752.5436 XXZZ=         -25976.8855 YYZZ=         -10156.4534
 XXYZ=          -1699.2179 YYXZ=           -150.6526 ZZXY=           -173.4050
 N-N= 1.422388912146D+04 E-N=-3.792883207687D+04  KE= 4.028802039094D+03
 Leave Link  601 at Sat Sep 11 10:37:07 2021, MaxMem= 23488102400 cpu:              15.2 elap:               0.8
 (Enter /sw/apps/gaussian-16.0/g16/l9999.exe)
 1\1\GINC-BP1-COMPUTE00114\SP\RCAM-B3LYP TD-FC\def2SVP\C68H72Mg2N8O8\OF
 15641\11-Sep-2021\0\\#p cam-b3lyp/Def2SVP td=(nstates=5)\\TDDFT excite
 d states in gaussian\\0,1\Mg,0,0.,0.,0.\C,0,-0.217,-2.218,2.801\C,0,-1
 .255,2.442,2.026\C,0,-0.245,1.85,-2.564\C,0,0.146,-2.824,-2.037\N,0,-0
 .617,-0.009,2.126\C,0,-0.594,-0.908,3.105\C,0,-0.936,-0.309,4.502\C,0,
 -1.773,0.964,4.032\C,0,-1.155,1.168,2.66\C,0,-3.263,0.685,3.863\C,0,0.
 345,0.11,5.299\C,0,0.124,0.397,6.787\H,0,1.168,0.033,7.733\N,0,-0.185,
 1.961,-0.152\C,0,-0.703,2.8,0.777\C,0,-0.62,4.156,0.193\C,0,-0.187,4.0
 15,-1.225\C,0,-0.214,2.583,-1.38\C,0,-0.887,5.406,0.974\C,0,0.181,5.01
 3,-2.277\O,0,0.303,4.69,-3.508\C,0,0.31,6.414,-1.837\N,0,-0.265,-0.413
 ,-2.029\C,0,-0.279,0.569,-2.937\C,0,-0.196,0.024,-4.332\C,0,0.124,-1.5
 33,-4.18\C,0,0.086,-1.632,-2.635\C,0,-1.451,0.205,-5.197\C,0,1.373,-2.
 07,-4.923\C,0,2.626,-1.49,-4.306\N,0,0.15,-2.144,0.303\C,0,0.173,-3.13
 6,-0.688\C,0,0.173,-4.438,0.004\C,0,0.133,-4.111,1.358\C,0,0.083,-2.69
 5,1.502\C,0,0.149,-5.715,-0.623\C,0,0.096,-4.629,2.716\O,0,0.208,-5.74
 7,3.221\C,0,-0.255,-3.428,3.701\C,0,0.717,-3.482,4.848\O,0,1.931,-3.25
 5,4.669\O,0,0.038,-3.556,6.003\C,0,0.943,-3.583,7.183\H,0,-1.859,3.22,
 2.497\H,0,-0.218,2.453,-3.474\H,0,0.276,-3.747,-2.605\H,0,-1.554,-0.94
 9,5.132\H,0,-1.585,1.831,4.665\H,0,-3.484,-0.377,3.969\H,0,-3.511,1.02
 7,2.858\H,0,-3.852,1.301,4.543\H,0,0.669,1.096,4.966\H,0,1.13,-0.639,5
 .189\H,0,-0.844,0.026,7.125\H,0,0.062,1.477,6.921\H,0,-1.344,5.186,1.9
 38\H,0,-1.651,5.963,0.432\H,0,0.007,6.02,1.084\H,0,-0.635,6.744,-1.405
 \H,0,0.665,6.97,-2.704\H,0,1.048,6.466,-1.036\H,0,0.608,0.501,-4.891\H
 ,0,-0.692,-2.156,-4.547\H,0,-1.267,0.74,-6.129\H,0,-2.204,0.714,-4.596
 \H,0,-1.967,-0.72,-5.453\H,0,1.356,-1.759,-5.967\H,0,1.452,-3.157,-4.9
 02\H,0,2.714,-0.522,-4.798\H,0,3.487,-2.121,-4.529\H,0,2.495,-1.303,-3
 .24\H,0,0.867,-6.333,-0.084\H,0,0.404,-5.642,-1.68\H,0,-0.891,-5.999,-
 0.463\H,0,-1.283,-3.581,4.028\H,0,0.698,-4.478,7.755\H,0,0.833,-2.619,
 7.68\H,0,2.,-3.754,6.976\Mg,0,13.14744,1.18756,1.00142\C,0,14.05867,-0
 .95107,3.73546\C,0,12.97145,3.74274,3.25412\C,0,11.90998,2.99441,-1.29
 453\C,0,12.29093,-1.68412,-0.77778\N,0,13.49338,1.26167,3.18478\C,0,13
 .89551,0.39985,4.10668\C,0,14.21381,1.03584,5.48646\C,0,13.3003,2.3506
 8,5.36167\C,0,13.2771,2.48874,3.84079\C,0,11.87458,2.14094,5.84402\C,0
 ,15.73157,1.40329,5.63941\C,0,16.17099,1.74057,7.06591\H,0,17.50977,1.
 34434,7.49385\N,0,12.9988,3.16152,0.86019\C,0,12.96471,4.0497,1.87569\
 C,0,12.82735,5.37317,1.24821\C,0,12.61746,5.18027,-0.21243\C,0,12.4767
 5,3.73911,-0.27045\C,0,12.97862,6.65597,2.01303\C,0,12.54152,6.13595,-
 1.36442\O,0,12.11507,5.76958,-2.51626\C,0,12.89261,7.53497,-1.07986\N,
 0,12.03578,0.74256,-0.69816\C,0,11.66884,1.7098,-1.55707\C,0,11.12129,
 1.12404,-2.8367\C,0,11.42246,-0.44445,-2.75459\C,0,12.03918,-0.51,-1.3
 4011\C,0,9.62881,1.34319,-3.08343\C,0,12.21276,-1.07209,-3.93534\C,0,1
 3.62891,-0.54317,-3.94756\N,0,13.33103,-0.94354,1.30604\C,0,12.883,-1.
 96987,0.44581\C,0,13.12857,-3.25346,1.13467\C,0,13.68569,-2.8808,2.367
 24\C,0,13.762,-1.46415,2.44958\C,0,12.7986,-4.5437,0.63216\C,0,14.2167
 8,-3.36335,3.62175\O,0,14.48221,-4.47243,4.08353\C,0,14.36508,-2.13136
 ,4.61503\C,0,15.73046,-2.20207,5.24215\O,0,16.7527,-2.05779,4.54874\O,
 0,15.60036,-2.21055,6.58132\C,0,16.92829,-2.26885,7.24842\H,0,12.66647
 ,4.56066,3.90748\H,0,11.56842,3.56654,-2.16027\H,0,12.14195,-2.6283,-1
 .30601\H,0,13.90276,0.44669,6.34082\H,0,13.78367,3.21198,5.81539\H,0,1
 1.67785,1.10612,6.08188\H,0,11.23822,2.47034,5.0331\H,0,11.65951,2.806
 16,6.68519\H,0,15.91695,2.36929,5.15235\H,0,16.35392,0.62407,5.24429\H
 ,0,15.42427,1.43732,7.80981\H,0,16.22231,2.82753,7.16536\H,0,12.96342,
 6.48271,3.09615\H,0,12.07932,7.25099,1.82049\H,0,13.85492,7.22979,1.70
 399\H,0,12.23848,7.92027,-0.30133\H,0,12.86471,8.04529,-2.04457\H,0,13
 .91162,7.5652,-0.67822\H,0,11.63112,1.53508,-3.69939\H,0,10.4958,-1.03
 607,-2.72111\H,0,9.41517,1.85419,-4.0412\H,0,9.22478,1.90709,-2.25318\
 H,0,9.02061,0.44039,-3.06729\H,0,11.76445,-0.78086,-4.88841\H,0,12.238
 89,-2.15636,-3.9097\H,0,13.53115,0.41179,-4.47251\H,0,14.28718,-1.2231
 6,-4.48453\H,0,13.97684,-0.32635,-2.93091\H,0,13.64458,-5.18491,0.8410
 9\H,0,12.57694,-4.51096,-0.43253\H,0,11.91013,-4.76442,1.22981\H,0,13.
 56933,-2.21086,5.35667\H,0,16.91347,-3.13724,7.91429\H,0,17.07092,-1.2
 7704,7.71717\H,0,17.79035,-2.49093,6.63037\\Version=ES64L-G16RevA.03\S
 tate=1-A\HF=-4069.8116284\RMSD=5.207e-09\PG=C01 [X(C68H72Mg2N8O8)]\\@


 YOU WILL NEVER "FIND" TIME FOR ANYTHING.
 IF YOU WANT TIME, YOU MUST MAKE IT.

                        -- CHARLES BIXTON
 Job cpu time:       0 days 12 hours 13 minutes 41.2 seconds.
 Elapsed time:       0 days  0 hours 31 minutes  9.5 seconds.
 File lengths (MBytes):  RWF=  13225 Int=      0 D2E=      0 Chk=    574 Scr=      1
 Normal termination of Gaussian 16 at Sat Sep 11 10:37:08 2021.
