 Entering Gaussian System, Link 0=g16
 Initial command:
 /sw/apps/gaussian-16.0/g16/l1.exe "/tmp/Gau-57822.inp" -scrdir="/tmp/"
 Entering Link 1 = /sw/apps/gaussian-16.0/g16/l1.exe PID=     57823.
  
 Copyright (c) 1988,1990,1992,1993,1995,1998,2003,2009,2016,
            Gaussian, Inc.  All Rights Reserved.
  
 This is part of the Gaussian(R) 16 program.  It is based on
 the Gaussian(R) 09 system (copyright 2009, Gaussian, Inc.),
 the Gaussian(R) 03 system (copyright 2003, Gaussian, Inc.),
 the Gaussian(R) 98 system (copyright 1998, Gaussian, Inc.),
 the Gaussian(R) 94 system (copyright 1995, Gaussian, Inc.),
 the Gaussian 92(TM) system (copyright 1992, Gaussian, Inc.),
 the Gaussian 90(TM) system (copyright 1990, Gaussian, Inc.),
 the Gaussian 88(TM) system (copyright 1988, Gaussian, Inc.),
 the Gaussian 86(TM) system (copyright 1986, Carnegie Mellon
 University), and the Gaussian 82(TM) system (copyright 1983,
 Carnegie Mellon University). Gaussian is a federally registered
 trademark of Gaussian, Inc.
  
 This software contains proprietary and confidential information,
 including trade secrets, belonging to Gaussian, Inc.
  
 This software is provided under written license and may be
 used, copied, transmitted, or stored only in accord with that
 written license.
  
 The following legend is applicable only to US Government
 contracts under FAR:
  
                    RESTRICTED RIGHTS LEGEND
  
 Use, reproduction and disclosure by the US Government is
 subject to restrictions as set forth in subparagraphs (a)
 and (c) of the Commercial Computer Software - Restricted
 Rights clause in FAR 52.227-19.
  
 Gaussian, Inc.
 340 Quinnipiac St., Bldg. 40, Wallingford CT 06492
  
  
 ---------------------------------------------------------------
 Warning -- This program may not be used in any manner that
 competes with the business of Gaussian, Inc. or will provide
 assistance to any competitor of Gaussian, Inc.  The licensee
 of this program is prohibited from giving any competitor of
 Gaussian, Inc. access to this program.  By using this program,
 the user acknowledges that Gaussian, Inc. is engaged in the
 business of creating and licensing software in the field of
 computational chemistry and represents and warrants to the
 licensee that it is not a competitor of Gaussian, Inc. and that
 it will not use this program in any manner prohibited above.
 ---------------------------------------------------------------
  

 Cite this work as:
 Gaussian 16, Revision A.03,
 M. J. Frisch, G. W. Trucks, H. B. Schlegel, G. E. Scuseria, 
 M. A. Robb, J. R. Cheeseman, G. Scalmani, V. Barone, 
 G. A. Petersson, H. Nakatsuji, X. Li, M. Caricato, A. V. Marenich, 
 J. Bloino, B. G. Janesko, R. Gomperts, B. Mennucci, H. P. Hratchian, 
 J. V. Ortiz, A. F. Izmaylov, J. L. Sonnenberg, D. Williams-Young, 
 F. Ding, F. Lipparini, F. Egidi, J. Goings, B. Peng, A. Petrone, 
 T. Henderson, D. Ranasinghe, V. G. Zakrzewski, J. Gao, N. Rega, 
 G. Zheng, W. Liang, M. Hada, M. Ehara, K. Toyota, R. Fukuda, 
 J. Hasegawa, M. Ishida, T. Nakajima, Y. Honda, O. Kitao, H. Nakai, 
 T. Vreven, K. Throssell, J. A. Montgomery, Jr., J. E. Peralta, 
 F. Ogliaro, M. J. Bearpark, J. J. Heyd, E. N. Brothers, K. N. Kudin, 
 V. N. Staroverov, T. A. Keith, R. Kobayashi, J. Normand, 
 K. Raghavachari, A. P. Rendell, J. C. Burant, S. S. Iyengar, 
 J. Tomasi, M. Cossi, J. M. Millam, M. Klene, C. Adamo, R. Cammi, 
 J. W. Ochterski, R. L. Martin, K. Morokuma, O. Farkas, 
 J. B. Foresman, and D. J. Fox, Gaussian, Inc., Wallingford CT, 2016.
 
 ******************************************
 Gaussian 16:  ES64L-G16RevA.03 25-Dec-2016
                10-Sep-2021 
 ******************************************
 %nproc=24
 Will use up to   24 processors via shared memory.
 %mem=175gb
 -----------------------------------
 #p cam-b3lyp/Def2SVP td=(nstates=5)
 -----------------------------------
 1/38=1,172=1/1;
 2/12=2,17=6,18=5,40=1/2;
 3/5=43,7=101,11=9,25=1,30=1,74=-40/1,2,3,8;
 4//1;
 5/5=2,38=5/2;
 8/6=1,10=1,108=5/1;
 9/41=5,42=1,70=2/14;
 6/7=2,8=2,9=2,10=2/1;
 99/5=1,9=1/99;
 Leave Link    1 at Fri Sep 10 22:22:32 2021, MaxMem= 23488102400 cpu:               0.9 elap:               0.0
 (Enter /sw/apps/gaussian-16.0/g16/l101.exe)
 --------------------------------
 TDDFT excited states in gaussian
 --------------------------------
 Symbolic Z-matrix:
 Charge =  0 Multiplicity = 1
 Mg                    0.        0.        0. 
 C                    -0.217    -2.218     2.801 
 C                    -1.255     2.442     2.026 
 C                    -0.245     1.85     -2.564 
 C                     0.146    -2.824    -2.037 
 N                    -0.617    -0.009     2.126 
 C                    -0.594    -0.908     3.105 
 C                    -0.936    -0.309     4.502 
 C                    -1.773     0.964     4.032 
 C                    -1.155     1.168     2.66 
 C                    -3.263     0.685     3.863 
 C                     0.345     0.11      5.299 
 C                     0.124     0.397     6.787 
 H                     1.168     0.033     7.733 
 N                    -0.185     1.961    -0.152 
 C                    -0.703     2.8       0.777 
 C                    -0.62      4.156     0.193 
 C                    -0.187     4.015    -1.225 
 C                    -0.214     2.583    -1.38 
 C                    -0.887     5.406     0.974 
 C                     0.181     5.013    -2.277 
 O                     0.303     4.69     -3.508 
 C                     0.31      6.414    -1.837 
 N                    -0.265    -0.413    -2.029 
 C                    -0.279     0.569    -2.937 
 C                    -0.196     0.024    -4.332 
 C                     0.124    -1.533    -4.18 
 C                     0.086    -1.632    -2.635 
 C                    -1.451     0.205    -5.197 
 C                     1.373    -2.07     -4.923 
 C                     2.626    -1.49     -4.306 
 N                     0.15     -2.144     0.303 
 C                     0.173    -3.136    -0.688 
 C                     0.173    -4.438     0.004 
 C                     0.133    -4.111     1.358 
 C                     0.083    -2.695     1.502 
 C                     0.149    -5.715    -0.623 
 C                     0.096    -4.629     2.716 
 O                     0.208    -5.747     3.221 
 C                    -0.255    -3.428     3.701 
 C                     0.717    -3.482     4.848 
 O                     1.931    -3.255     4.669 
 O                     0.038    -3.556     6.003 
 C                     0.943    -3.583     7.183 
 H                    -1.859     3.22      2.497 
 H                    -0.218     2.453    -3.474 
 H                     0.276    -3.747    -2.605 
 H                    -1.554    -0.949     5.132 
 H                    -1.585     1.831     4.665 
 H                    -3.484    -0.377     3.969 
 H                    -3.511     1.027     2.858 
 H                    -3.852     1.301     4.543 
 H                     0.669     1.096     4.966 
 H                     1.13     -0.639     5.189 
 H                    -0.844     0.026     7.125 
 H                     0.062     1.477     6.921 
 H                    -1.344     5.186     1.938 
 H                    -1.651     5.963     0.432 
 H                     0.007     6.02      1.084 
 H                    -0.635     6.744    -1.405 
 H                     0.665     6.97     -2.704 
 H                     1.048     6.466    -1.036 
 H                     0.608     0.501    -4.891 
 H                    -0.692    -2.156    -4.547 
 H                    -1.267     0.74     -6.129 
 H                    -2.204     0.714    -4.596 
 H                    -1.967    -0.72     -5.453 
 H                     1.356    -1.759    -5.967 
 H                     1.452    -3.157    -4.902 
 H                     2.714    -0.522    -4.798 
 H                     3.487    -2.121    -4.529 
 H                     2.495    -1.303    -3.24 
 H                     0.867    -6.333    -0.084 
 H                     0.404    -5.642    -1.68 
 H                    -0.891    -5.999    -0.463 
 H                    -1.283    -3.581     4.028 
 H                     0.698    -4.478     7.755 
 H                     0.833    -2.619     7.68 
 H                     2.       -3.754     6.976 
 Mg                    10.51619   0.95118   0.80617 
 C                     9.97738  -1.30534   3.54421 
 C                     8.98042   3.35325   2.67863 
 C                     10.57011   2.83498  -1.74645 
 C                     10.95217  -1.84349  -1.22987 
 N                     9.63592   0.90809   2.83484 
 C                     9.54428   0.01136   3.80532 
 C                     9.02949   0.57618   5.15644 
 C                     8.23194   1.85213   4.59543 
 C                     9.01487   2.08145   3.30427 
 C                     6.78852   1.54709   4.23098 
 C                     10.1997   1.00403   6.11015 
 C                     9.7835    1.27382   7.55782 
 H                     10.7111   0.91512   8.6271 
 N                     10.32415   2.921     0.65947 
 C                     9.68896   3.74305   1.52088 
 C                     9.81306   5.09446   0.95304 
 C                     10.43041   4.9814   -0.39634 
 C                     10.44677   3.54148  -0.55893 
 C                     9.43945   6.3339    1.71306 
 C                     10.91294   6.00097  -1.38317 
 O                     11.19544   5.68602  -2.59306 
 C                     10.95581   7.39489  -0.91772 
 N                     10.51981   0.55928  -1.23558 
 C                     10.59984   1.55891  -2.13126 
 C                     10.86441   1.02737  -3.51973 
 C                     11.18728  -0.52744  -3.33024 
 C                     10.95587  -0.65028  -1.80815 
 C                     9.72332   1.19129  -4.52343 
 C                     12.52892  -1.04437  -3.91801 
 C                     13.69014  -0.4502   -3.15386 
 N                     10.66171  -1.18363   1.10526 
 C                     10.81784  -2.17538   0.11221 
 C                     10.74922  -3.48573   0.79097 
 C                     10.5332  -3.16334   2.13926 
 C                     10.45138  -1.75233   2.28712 
 C                     10.83272  -4.75691   0.15596 
 C                     10.34518  -3.69619   3.46946 
 O                     10.40201  -4.81776   3.97203 
 C                     9.8507   -2.52148   4.41917 
 C                     10.67084  -2.56652   5.67927 
 O                     11.89187  -2.3327    5.64738 
 O                     9.84652  -2.66271   6.73833 
 C                     10.61286  -2.69956   8.01237 
 H                     8.31558   4.11469   3.08737 
 H                     10.70364   3.44227  -2.64469 
 H                     11.1769  -2.75962  -1.78021 
 H                     8.35358  -0.07783   5.6942 
 H                     8.33462   2.70578   5.26034 
 H                     6.57035   0.49164   4.29852 
 H                     6.66195   1.89528   3.21422 
 H                     6.11008   2.14902   4.84232 
 H                     10.54639   2.00552   5.82457 
 H                     10.99113   0.28023   6.0906 
 H                     8.77902   0.89127   7.77605 
 H                     9.69525   2.35391   7.69797 
 H                     8.86055   6.0944    2.61357 
 H                     8.74194   6.89695   1.08352 
 H                     10.30127   6.96575   1.93823 
 H                     9.96119   7.70106  -0.60236 
 H                     11.41087   7.96123  -1.73262 
 H                     11.59738   7.44808  -0.03105 
 H                     11.72504   1.51358  -3.96247 
 H                     10.43152  -1.16259  -3.81527 
 H                     10.01815   1.74922  -5.4322 
 H                     8.89886   1.68405  -4.02545 
 H                     9.26748   0.2618   -4.86029 
 H                     12.63943  -0.7168   -4.95466 
 H                     12.61538  -2.12579  -3.91103 
 H                     13.81937   0.5294   -3.62373 
 H                     14.58044  -1.06473  -3.2711 
 H                     13.42449  -0.27978  -2.10408 
 H                     11.4799  -5.3695    0.76947 
 H                     11.2124  -4.66969  -0.85992 
 H                     9.78103  -5.05487   0.17694 
 H                     8.79     -2.68309   4.61508 
 H                     10.30729  -3.60668   8.54289 
 H                     10.41112  -1.73261   8.51043 
 H                     11.68512  -2.84309   7.9483 
 
 ITRead=  0  0  0  0  0  0  0  0  0  0  0  0  0  0  0  0  0  0  0  0
 ITRead=  0  0  0  0  0  0  0  0  0  0  0  0  0  0  0  0  0  0  0  0
 ITRead=  0  0  0  0  0  0  0  0  0  0  0  0  0  0  0  0  0  0  0  0
 ITRead=  0  0  0  0  0  0  0  0  0  0  0  0  0  0  0  0  0  0  0  0
 ITRead=  0  0  0  0  0  0  0  0  0  0  0  0  0  0  0  0  0  0  0  0
 ITRead=  0  0  0  0  0  0  0  0  0  0  0  0  0  0  0  0  0  0  0  0
 ITRead=  0  0  0  0  0  0  0  0  0  0  0  0  0  0  0  0  0  0  0  0
 ITRead=  0  0  0  0  0  0  0  0  0  0  0  0  0  0  0  0  0  0
 MicOpt= -1 -1 -1 -1 -1 -1 -1 -1 -1 -1 -1 -1 -1 -1 -1 -1 -1 -1 -1 -1
 MicOpt= -1 -1 -1 -1 -1 -1 -1 -1 -1 -1 -1 -1 -1 -1 -1 -1 -1 -1 -1 -1
 MicOpt= -1 -1 -1 -1 -1 -1 -1 -1 -1 -1 -1 -1 -1 -1 -1 -1 -1 -1 -1 -1
 MicOpt= -1 -1 -1 -1 -1 -1 -1 -1 -1 -1 -1 -1 -1 -1 -1 -1 -1 -1 -1 -1
 MicOpt= -1 -1 -1 -1 -1 -1 -1 -1 -1 -1 -1 -1 -1 -1 -1 -1 -1 -1 -1 -1
 MicOpt= -1 -1 -1 -1 -1 -1 -1 -1 -1 -1 -1 -1 -1 -1 -1 -1 -1 -1 -1 -1
 MicOpt= -1 -1 -1 -1 -1 -1 -1 -1 -1 -1 -1 -1 -1 -1 -1 -1 -1 -1 -1 -1
 MicOpt= -1 -1 -1 -1 -1 -1 -1 -1 -1 -1 -1 -1 -1 -1 -1 -1 -1 -1
 NAtoms=    158 NQM=      158 NQMF=       0 NMMI=      0 NMMIF=      0
                NMic=       0 NMicF=      0.
                    Isotopes and Nuclear Properties:
 (Nuclear quadrupole moments (NQMom) in fm**2, nuclear magnetic moments (NMagM)
  in nuclear magnetons)

  Atom         1           2           3           4           5           6           7           8           9          10
 IAtWgt=          24          12          12          12          12          14          12          12          12          12
 AtmWgt=  23.9850450  12.0000000  12.0000000  12.0000000  12.0000000  14.0030740  12.0000000  12.0000000  12.0000000  12.0000000
 NucSpn=           0           0           0           0           0           2           0           0           0           0
 AtZEff=  -0.0000000  -0.0000000  -0.0000000  -0.0000000  -0.0000000  -0.0000000  -0.0000000  -0.0000000  -0.0000000  -0.0000000
 NQMom=    0.0000000   0.0000000   0.0000000   0.0000000   0.0000000   2.0440000   0.0000000   0.0000000   0.0000000   0.0000000
 NMagM=    0.0000000   0.0000000   0.0000000   0.0000000   0.0000000   0.4037610   0.0000000   0.0000000   0.0000000   0.0000000
 AtZNuc=  12.0000000   6.0000000   6.0000000   6.0000000   6.0000000   7.0000000   6.0000000   6.0000000   6.0000000   6.0000000

  Atom        11          12          13          14          15          16          17          18          19          20
 IAtWgt=          12          12          12           1          14          12          12          12          12          12
 AtmWgt=  12.0000000  12.0000000  12.0000000   1.0078250  14.0030740  12.0000000  12.0000000  12.0000000  12.0000000  12.0000000
 NucSpn=           0           0           0           1           2           0           0           0           0           0
 AtZEff=  -0.0000000  -0.0000000  -0.0000000  -0.0000000  -0.0000000  -0.0000000  -0.0000000  -0.0000000  -0.0000000  -0.0000000
 NQMom=    0.0000000   0.0000000   0.0000000   0.0000000   2.0440000   0.0000000   0.0000000   0.0000000   0.0000000   0.0000000
 NMagM=    0.0000000   0.0000000   0.0000000   2.7928460   0.4037610   0.0000000   0.0000000   0.0000000   0.0000000   0.0000000
 AtZNuc=   6.0000000   6.0000000   6.0000000   1.0000000   7.0000000   6.0000000   6.0000000   6.0000000   6.0000000   6.0000000

  Atom        21          22          23          24          25          26          27          28          29          30
 IAtWgt=          12          16          12          14          12          12          12          12          12          12
 AtmWgt=  12.0000000  15.9949146  12.0000000  14.0030740  12.0000000  12.0000000  12.0000000  12.0000000  12.0000000  12.0000000
 NucSpn=           0           0           0           2           0           0           0           0           0           0
 AtZEff=  -0.0000000  -0.0000000  -0.0000000  -0.0000000  -0.0000000  -0.0000000  -0.0000000  -0.0000000  -0.0000000  -0.0000000
 NQMom=    0.0000000   0.0000000   0.0000000   2.0440000   0.0000000   0.0000000   0.0000000   0.0000000   0.0000000   0.0000000
 NMagM=    0.0000000   0.0000000   0.0000000   0.4037610   0.0000000   0.0000000   0.0000000   0.0000000   0.0000000   0.0000000
 AtZNuc=   6.0000000   8.0000000   6.0000000   7.0000000   6.0000000   6.0000000   6.0000000   6.0000000   6.0000000   6.0000000

  Atom        31          32          33          34          35          36          37          38          39          40
 IAtWgt=          12          14          12          12          12          12          12          12          16          12
 AtmWgt=  12.0000000  14.0030740  12.0000000  12.0000000  12.0000000  12.0000000  12.0000000  12.0000000  15.9949146  12.0000000
 NucSpn=           0           2           0           0           0           0           0           0           0           0
 AtZEff=  -0.0000000  -0.0000000  -0.0000000  -0.0000000  -0.0000000  -0.0000000  -0.0000000  -0.0000000  -0.0000000  -0.0000000
 NQMom=    0.0000000   2.0440000   0.0000000   0.0000000   0.0000000   0.0000000   0.0000000   0.0000000   0.0000000   0.0000000
 NMagM=    0.0000000   0.4037610   0.0000000   0.0000000   0.0000000   0.0000000   0.0000000   0.0000000   0.0000000   0.0000000
 AtZNuc=   6.0000000   7.0000000   6.0000000   6.0000000   6.0000000   6.0000000   6.0000000   6.0000000   8.0000000   6.0000000

  Atom        41          42          43          44          45          46          47          48          49          50
 IAtWgt=          12          16          16          12           1           1           1           1           1           1
 AtmWgt=  12.0000000  15.9949146  15.9949146  12.0000000   1.0078250   1.0078250   1.0078250   1.0078250   1.0078250   1.0078250
 NucSpn=           0           0           0           0           1           1           1           1           1           1
 AtZEff=  -0.0000000  -0.0000000  -0.0000000  -0.0000000  -0.0000000  -0.0000000  -0.0000000  -0.0000000  -0.0000000  -0.0000000
 NQMom=    0.0000000   0.0000000   0.0000000   0.0000000   0.0000000   0.0000000   0.0000000   0.0000000   0.0000000   0.0000000
 NMagM=    0.0000000   0.0000000   0.0000000   0.0000000   2.7928460   2.7928460   2.7928460   2.7928460   2.7928460   2.7928460
 AtZNuc=   6.0000000   8.0000000   8.0000000   6.0000000   1.0000000   1.0000000   1.0000000   1.0000000   1.0000000   1.0000000

  Atom        51          52          53          54          55          56          57          58          59          60
 IAtWgt=           1           1           1           1           1           1           1           1           1           1
 AtmWgt=   1.0078250   1.0078250   1.0078250   1.0078250   1.0078250   1.0078250   1.0078250   1.0078250   1.0078250   1.0078250
 NucSpn=           1           1           1           1           1           1           1           1           1           1
 AtZEff=  -0.0000000  -0.0000000  -0.0000000  -0.0000000  -0.0000000  -0.0000000  -0.0000000  -0.0000000  -0.0000000  -0.0000000
 NQMom=    0.0000000   0.0000000   0.0000000   0.0000000   0.0000000   0.0000000   0.0000000   0.0000000   0.0000000   0.0000000
 NMagM=    2.7928460   2.7928460   2.7928460   2.7928460   2.7928460   2.7928460   2.7928460   2.7928460   2.7928460   2.7928460
 AtZNuc=   1.0000000   1.0000000   1.0000000   1.0000000   1.0000000   1.0000000   1.0000000   1.0000000   1.0000000   1.0000000

  Atom        61          62          63          64          65          66          67          68          69          70
 IAtWgt=           1           1           1           1           1           1           1           1           1           1
 AtmWgt=   1.0078250   1.0078250   1.0078250   1.0078250   1.0078250   1.0078250   1.0078250   1.0078250   1.0078250   1.0078250
 NucSpn=           1           1           1           1           1           1           1           1           1           1
 AtZEff=  -0.0000000  -0.0000000  -0.0000000  -0.0000000  -0.0000000  -0.0000000  -0.0000000  -0.0000000  -0.0000000  -0.0000000
 NQMom=    0.0000000   0.0000000   0.0000000   0.0000000   0.0000000   0.0000000   0.0000000   0.0000000   0.0000000   0.0000000
 NMagM=    2.7928460   2.7928460   2.7928460   2.7928460   2.7928460   2.7928460   2.7928460   2.7928460   2.7928460   2.7928460
 AtZNuc=   1.0000000   1.0000000   1.0000000   1.0000000   1.0000000   1.0000000   1.0000000   1.0000000   1.0000000   1.0000000

  Atom        71          72          73          74          75          76          77          78          79          80
 IAtWgt=           1           1           1           1           1           1           1           1           1          24
 AtmWgt=   1.0078250   1.0078250   1.0078250   1.0078250   1.0078250   1.0078250   1.0078250   1.0078250   1.0078250  23.9850450
 NucSpn=           1           1           1           1           1           1           1           1           1           0
 AtZEff=  -0.0000000  -0.0000000  -0.0000000  -0.0000000  -0.0000000  -0.0000000  -0.0000000  -0.0000000  -0.0000000  -0.0000000
 NQMom=    0.0000000   0.0000000   0.0000000   0.0000000   0.0000000   0.0000000   0.0000000   0.0000000   0.0000000   0.0000000
 NMagM=    2.7928460   2.7928460   2.7928460   2.7928460   2.7928460   2.7928460   2.7928460   2.7928460   2.7928460   0.0000000
 AtZNuc=   1.0000000   1.0000000   1.0000000   1.0000000   1.0000000   1.0000000   1.0000000   1.0000000   1.0000000  12.0000000

  Atom        81          82          83          84          85          86          87          88          89          90
 IAtWgt=          12          12          12          12          14          12          12          12          12          12
 AtmWgt=  12.0000000  12.0000000  12.0000000  12.0000000  14.0030740  12.0000000  12.0000000  12.0000000  12.0000000  12.0000000
 NucSpn=           0           0           0           0           2           0           0           0           0           0
 AtZEff=  -0.0000000  -0.0000000  -0.0000000  -0.0000000  -0.0000000  -0.0000000  -0.0000000  -0.0000000  -0.0000000  -0.0000000
 NQMom=    0.0000000   0.0000000   0.0000000   0.0000000   2.0440000   0.0000000   0.0000000   0.0000000   0.0000000   0.0000000
 NMagM=    0.0000000   0.0000000   0.0000000   0.0000000   0.4037610   0.0000000   0.0000000   0.0000000   0.0000000   0.0000000
 AtZNuc=   6.0000000   6.0000000   6.0000000   6.0000000   7.0000000   6.0000000   6.0000000   6.0000000   6.0000000   6.0000000

  Atom        91          92          93          94          95          96          97          98          99         100
 IAtWgt=          12          12           1          14          12          12          12          12          12          12
 AtmWgt=  12.0000000  12.0000000   1.0078250  14.0030740  12.0000000  12.0000000  12.0000000  12.0000000  12.0000000  12.0000000
 NucSpn=           0           0           1           2           0           0           0           0           0           0
 AtZEff=  -0.0000000  -0.0000000  -0.0000000  -0.0000000  -0.0000000  -0.0000000  -0.0000000  -0.0000000  -0.0000000  -0.0000000
 NQMom=    0.0000000   0.0000000   0.0000000   2.0440000   0.0000000   0.0000000   0.0000000   0.0000000   0.0000000   0.0000000
 NMagM=    0.0000000   0.0000000   2.7928460   0.4037610   0.0000000   0.0000000   0.0000000   0.0000000   0.0000000   0.0000000
 AtZNuc=   6.0000000   6.0000000   1.0000000   7.0000000   6.0000000   6.0000000   6.0000000   6.0000000   6.0000000   6.0000000

  Atom       101         102         103         104         105         106         107         108         109         110
 IAtWgt=          16          12          14          12          12          12          12          12          12          12
 AtmWgt=  15.9949146  12.0000000  14.0030740  12.0000000  12.0000000  12.0000000  12.0000000  12.0000000  12.0000000  12.0000000
 NucSpn=           0           0           2           0           0           0           0           0           0           0
 AtZEff=  -0.0000000  -0.0000000  -0.0000000  -0.0000000  -0.0000000  -0.0000000  -0.0000000  -0.0000000  -0.0000000  -0.0000000
 NQMom=    0.0000000   0.0000000   2.0440000   0.0000000   0.0000000   0.0000000   0.0000000   0.0000000   0.0000000   0.0000000
 NMagM=    0.0000000   0.0000000   0.4037610   0.0000000   0.0000000   0.0000000   0.0000000   0.0000000   0.0000000   0.0000000
 AtZNuc=   8.0000000   6.0000000   7.0000000   6.0000000   6.0000000   6.0000000   6.0000000   6.0000000   6.0000000   6.0000000

  Atom       111         112         113         114         115         116         117         118         119         120
 IAtWgt=          14          12          12          12          12          12          12          16          12          12
 AtmWgt=  14.0030740  12.0000000  12.0000000  12.0000000  12.0000000  12.0000000  12.0000000  15.9949146  12.0000000  12.0000000
 NucSpn=           2           0           0           0           0           0           0           0           0           0
 AtZEff=  -0.0000000  -0.0000000  -0.0000000  -0.0000000  -0.0000000  -0.0000000  -0.0000000  -0.0000000  -0.0000000  -0.0000000
 NQMom=    2.0440000   0.0000000   0.0000000   0.0000000   0.0000000   0.0000000   0.0000000   0.0000000   0.0000000   0.0000000
 NMagM=    0.4037610   0.0000000   0.0000000   0.0000000   0.0000000   0.0000000   0.0000000   0.0000000   0.0000000   0.0000000
 AtZNuc=   7.0000000   6.0000000   6.0000000   6.0000000   6.0000000   6.0000000   6.0000000   8.0000000   6.0000000   6.0000000

  Atom       121         122         123         124         125         126         127         128         129         130
 IAtWgt=          16          16          12           1           1           1           1           1           1           1
 AtmWgt=  15.9949146  15.9949146  12.0000000   1.0078250   1.0078250   1.0078250   1.0078250   1.0078250   1.0078250   1.0078250
 NucSpn=           0           0           0           1           1           1           1           1           1           1
 AtZEff=  -0.0000000  -0.0000000  -0.0000000  -0.0000000  -0.0000000  -0.0000000  -0.0000000  -0.0000000  -0.0000000  -0.0000000
 NQMom=    0.0000000   0.0000000   0.0000000   0.0000000   0.0000000   0.0000000   0.0000000   0.0000000   0.0000000   0.0000000
 NMagM=    0.0000000   0.0000000   0.0000000   2.7928460   2.7928460   2.7928460   2.7928460   2.7928460   2.7928460   2.7928460
 AtZNuc=   8.0000000   8.0000000   6.0000000   1.0000000   1.0000000   1.0000000   1.0000000   1.0000000   1.0000000   1.0000000

  Atom       131         132         133         134         135         136         137         138         139         140
 IAtWgt=           1           1           1           1           1           1           1           1           1           1
 AtmWgt=   1.0078250   1.0078250   1.0078250   1.0078250   1.0078250   1.0078250   1.0078250   1.0078250   1.0078250   1.0078250
 NucSpn=           1           1           1           1           1           1           1           1           1           1
 AtZEff=  -0.0000000  -0.0000000  -0.0000000  -0.0000000  -0.0000000  -0.0000000  -0.0000000  -0.0000000  -0.0000000  -0.0000000
 NQMom=    0.0000000   0.0000000   0.0000000   0.0000000   0.0000000   0.0000000   0.0000000   0.0000000   0.0000000   0.0000000
 NMagM=    2.7928460   2.7928460   2.7928460   2.7928460   2.7928460   2.7928460   2.7928460   2.7928460   2.7928460   2.7928460
 AtZNuc=   1.0000000   1.0000000   1.0000000   1.0000000   1.0000000   1.0000000   1.0000000   1.0000000   1.0000000   1.0000000

  Atom       141         142         143         144         145         146         147         148         149         150
 IAtWgt=           1           1           1           1           1           1           1           1           1           1
 AtmWgt=   1.0078250   1.0078250   1.0078250   1.0078250   1.0078250   1.0078250   1.0078250   1.0078250   1.0078250   1.0078250
 NucSpn=           1           1           1           1           1           1           1           1           1           1
 AtZEff=  -0.0000000  -0.0000000  -0.0000000  -0.0000000  -0.0000000  -0.0000000  -0.0000000  -0.0000000  -0.0000000  -0.0000000
 NQMom=    0.0000000   0.0000000   0.0000000   0.0000000   0.0000000   0.0000000   0.0000000   0.0000000   0.0000000   0.0000000
 NMagM=    2.7928460   2.7928460   2.7928460   2.7928460   2.7928460   2.7928460   2.7928460   2.7928460   2.7928460   2.7928460
 AtZNuc=   1.0000000   1.0000000   1.0000000   1.0000000   1.0000000   1.0000000   1.0000000   1.0000000   1.0000000   1.0000000

  Atom       151         152         153         154         155         156         157         158
 IAtWgt=           1           1           1           1           1           1           1           1
 AtmWgt=   1.0078250   1.0078250   1.0078250   1.0078250   1.0078250   1.0078250   1.0078250   1.0078250
 NucSpn=           1           1           1           1           1           1           1           1
 AtZEff=  -0.0000000  -0.0000000  -0.0000000  -0.0000000  -0.0000000  -0.0000000  -0.0000000  -0.0000000
 NQMom=    0.0000000   0.0000000   0.0000000   0.0000000   0.0000000   0.0000000   0.0000000   0.0000000
 NMagM=    2.7928460   2.7928460   2.7928460   2.7928460   2.7928460   2.7928460   2.7928460   2.7928460
 AtZNuc=   1.0000000   1.0000000   1.0000000   1.0000000   1.0000000   1.0000000   1.0000000   1.0000000
 Leave Link  101 at Fri Sep 10 22:22:32 2021, MaxMem= 23488102400 cpu:               3.3 elap:               0.2
 (Enter /sw/apps/gaussian-16.0/g16/l202.exe)
 Stoichiometry    C68H72Mg2N8O8
 Framework group  C1[X(C68H72Mg2N8O8)]
 Deg. of freedom   468
 Full point group                 C1      NOp   1
 Largest Abelian subgroup         C1      NOp   1
 Largest concise Abelian subgroup C1      NOp   1
                         Standard orientation:                         
 ---------------------------------------------------------------------
 Center     Atomic      Atomic             Coordinates (Angstroms)
 Number     Number       Type             X           Y           Z
 ---------------------------------------------------------------------
      1         12           0       -5.145815   -0.893148    0.223981
      2          6           0       -5.425645    2.670256    0.413888
      3          6           0       -6.118250   -0.646740   -3.037417
      4          6           0       -5.345935   -4.057354    0.157877
      5          6           0       -5.308907   -0.943764    3.704857
      6          7           0       -5.674771    0.846890   -1.038208
      7          6           0       -5.684027    2.164488   -0.862076
      8          6           0       -5.920053    2.962249   -2.179362
      9          6           0       -6.670951    1.837446   -3.023736
     10          6           0       -6.094806    0.603790   -2.351372
     11          6           0       -8.184118    1.839947   -2.831845
     12          6           0       -4.578362    3.391704   -2.862857
     13          6           0       -4.715134    4.444254   -3.966844
     14          1           0       -3.666059    5.441267   -4.117691
     15          7           0       -5.179415   -2.143089   -1.305518
     16          6           0       -5.590532   -1.868598   -2.566837
     17          6           0       -5.423126   -3.122800   -3.332103
     18          6           0       -5.060692   -4.198915   -2.368407
     19          6           0       -5.208392   -3.506231   -1.113914
     20          6           0       -5.557392   -3.201834   -4.821894
     21          6           0       -4.657057   -5.628125   -2.548882
     22          8           0       -4.611336   -6.450645   -1.571158
     23          6           0       -4.398681   -6.068162   -3.931868
     24          7           0       -5.525117   -2.323105    1.696729
     25          6           0       -5.497378   -3.629924    1.413111
     26          6           0       -5.514909   -4.460229    2.662201
     27          6           0       -5.314544   -3.439951    3.874075
     28          6           0       -5.297608   -2.117322    3.068695
     29          6           0       -6.785481   -5.288702    2.897336
     30          6           0       -4.143674   -3.725731    4.847631
     31          6           0       -2.824300   -3.536372    4.133142
     32          7           0       -5.155580    0.584926    1.813399
     33          6           0       -5.252221    0.341005    3.191019
     34          6           0       -5.328260    1.653853    3.857890
     35          6           0       -5.287000    2.575936    2.813904
     36          6           0       -5.217716    1.882429    1.571914
     37          6           0       -5.479731    1.870918    5.255879
     38          6           0       -5.310165    3.985248    2.457310
     39          8           0       -5.267529    5.040851    3.090853
     40          6           0       -5.523732    4.100434    0.883478
     41          6           0       -4.513419    5.083767    0.358471
     42          8           0       -3.293421    4.822322    0.383338
     43          8           0       -5.148728    6.064336   -0.301384
     44          6           0       -4.201647    7.058413   -0.873224
     45          1           0       -6.638485   -0.713812   -3.994913
     46          1           0       -5.307752   -5.148252    0.188257
     47          1           0       -5.276295   -0.879127    4.793991
     48          1           0       -6.561177    3.837387   -2.072045
     49          1           0       -6.388685    1.862160   -4.076085
     50          1           0       -8.484855    2.532237   -2.045579
     51          1           0       -8.444554    0.817188   -2.558659
     52          1           0       -8.693887    2.037151   -3.775256
     53          1           0       -4.190330    2.558166   -3.448269
     54          1           0       -3.860887    3.740353   -2.119218
     55          1           0       -5.695186    4.921590   -3.943231
     56          1           0       -4.685077    3.934820   -4.930053
     57          1           0       -5.991023   -2.291420   -5.233787
     58          1           0       -6.295765   -3.974698   -5.034484
     59          1           0       -4.613428   -3.452043   -5.306310
     60          1           0       -5.295952   -5.914934   -4.531848
     61          1           0       -4.035833   -7.092770   -3.858588
     62          1           0       -3.626990   -5.432088   -4.366438
     63          1           0       -4.698688   -5.181482    2.663819
     64          1           0       -6.191972   -3.394264    4.519604
     65          1           0       -6.597261   -6.356715    3.009706
     66          1           0       -7.470352   -5.097041    2.071801
     67          1           0       -7.383764   -4.975307    3.752472
     68          1           0       -4.178102   -4.759798    5.188903
     69          1           0       -4.151068   -3.085023    5.729498
     70          1           0       -2.679209   -4.492902    3.632311
     71          1           0       -2.026281   -3.346968    4.851823
     72          1           0       -2.896557   -2.771328    3.359855
     73          1           0       -4.792172    2.675678    5.515867
     74          1           0       -5.262816    0.965916    5.822907
     75          1           0       -6.531759    2.151622    5.303822
     76          1           0       -6.546555    4.443154    0.730188
     77          1           0       -4.494020    8.036736   -0.491601
     78          1           0       -4.213942    6.912350   -1.953464
     79          1           0       -3.170981    6.999967   -0.521583
     80         12           0        5.436786   -0.644733   -0.078939
     81          6           0        4.830807    2.885074    0.149796
     82          6           0        4.175288   -0.504845   -3.244960
     83          6           0        5.537546   -3.815206   -0.152580
     84          6           0        5.564890   -0.707710    3.403208
     85          7           0        4.638945    1.031735   -1.281078
     86          6           0        4.515346    2.339606   -1.112109
     87          6           0        4.102631    3.117160   -2.390636
     88          6           0        3.387566    1.916565   -3.181914
     89          6           0        4.133282    0.736747   -2.561753
     90          6           0        1.910778    1.774357   -2.852966
     91          6           0        5.341045    3.668606   -3.180730
     92          6           0        5.006848    4.695497   -4.264963
     93          1           0        5.945419    5.789061   -4.500909
     94          7           0        5.397094   -1.895469   -1.619287
     95          6           0        4.865161   -1.668148   -2.838563
     96          6           0        5.073790   -2.905958   -3.605668
     97          6           0        5.624850   -3.939508   -2.687606
     98          6           0        5.519395   -3.247964   -1.418465
     99          6           0        4.831648   -2.997483   -5.084322
    100          6           0        6.146924   -5.326210   -2.912747
    101          8           0        6.353999   -6.134018   -1.939402
    102          6           0        6.319983   -5.742416   -4.312146
    103          7           0        5.326191   -2.093844    1.407731
    104          6           0        5.449491   -3.399478    1.111039
    105          6           0        5.614140   -4.229854    2.361538
    106          6           0        5.819060   -3.180064    3.550459
    107          6           0        5.640529   -1.864995    2.760447
    108          6           0        4.450024   -5.160803    2.699972
    109          6           0        7.090102   -3.348932    4.427172
    110          6           0        8.325170   -3.048227    3.608895
    111          7           0        5.423135    0.824816    1.504818
    112          6           0        5.459024    0.580747    2.895226
    113          6           0        5.313437    1.886661    3.570382
    114          6           0        5.178786    2.804488    2.517791
    115          6           0        5.216135    2.116603    1.274841
    116          6           0        5.269173    2.095181    4.977744
    117          6           0        5.002894    4.197617    2.175787
    118          8           0        4.990197    5.252579    2.808733
    119          6           0        4.642890    4.297127    0.630828
    120          6           0        5.507261    5.366124    0.020405
    121          8           0        6.740776    5.221445   -0.043724
    122          8           0        4.721550    6.278931   -0.579431
    123          6           0        5.533558    7.353988   -1.209279
    124          1           0        3.590607   -0.614233   -4.158773
    125          1           0        5.682651   -4.897581   -0.122960
    126          1           0        5.693116   -0.631340    4.485057
    127          1           0        3.398966    3.923985   -2.224327
    128          1           0        3.585083    1.974006   -4.249179
    129          1           0        1.611822    2.431406   -2.049818
    130          1           0        1.771300    0.739942   -2.567329
    131          1           0        1.308018    1.922214   -3.753608
    132          1           0        5.754839    2.865352   -3.803859
    133          1           0        6.070610    4.077044   -2.508760
    134          1           0        3.984678    5.080815   -4.166733
    135          1           0        5.011016    4.190722   -5.234091
    136          1           0        4.272472   -2.129478   -5.454853
    137          1           0        4.156428   -3.844731   -5.245926
    138          1           0        5.749663   -3.163917   -5.651965
    139          1           0        5.366653   -5.671773   -4.830445
    140          1           0        6.785430   -6.728981   -4.268186
    141          1           0        6.999205   -5.038014   -4.805199
    142          1           0        6.492218   -4.860373    2.294241
    143          1           0        4.995868   -3.223409    4.278690
    144          1           0        4.751404   -6.221511    2.790202
    145          1           0        3.688502   -5.045184    1.940205
    146          1           0        3.908018   -4.910359    3.610315
    147          1           0        7.184293   -4.384859    4.762047
    148          1           0        7.090015   -2.722818    5.313159
    149          1           0        8.513150   -3.992741    3.089615
    150          1           0        9.157980   -2.781196    4.256311
    151          1           0        8.116822   -2.288678    2.846447
    152          1           0        5.889654    2.957025    5.184457
    153          1           0        5.613071    1.217309    5.520746
    154          1           0        4.198744    2.269779    5.115472
    155          1           0        3.581490    4.536914    0.556562
    156          1           0        5.178206    8.304489   -0.799445
    157          1           0        5.430171    7.205950   -2.300678
    158          1           0        6.587420    7.397160   -0.960362
 ---------------------------------------------------------------------
 Rotational constants (GHZ):           0.0203491           0.0119212           0.0101959
 Leave Link  202 at Fri Sep 10 22:22:32 2021, MaxMem= 23488102400 cpu:               0.3 elap:               0.0
 (Enter /sw/apps/gaussian-16.0/g16/l301.exe)
 Standard basis: def2SVP (5D, 7F)
 Ernie: Thresh=  0.10000D-02 Tol=  0.10000D-05 Strict=F.
 There are  1658 symmetry adapted cartesian basis functions of A   symmetry.
 There are  1572 symmetry adapted basis functions of A   symmetry.
  1572 basis functions,  2678 primitive gaussians,  1658 cartesian basis functions
   312 alpha electrons      312 beta electrons
       nuclear repulsion energy     14986.4532701191 Hartrees.
 IExCor=20419 DFT=T Ex+Corr=CAM-B3LYP ExCW=0 ScaHFX=  1.000000
 ScaDFX=  1.000000  1.000000  1.000000  0.810000 ScalE2=  1.000000  1.000000
 IRadAn=      5 IRanWt=     -1 IRanGd=            0 ICorTp=0 IEmpDi=  4
 HFx  wShort=  0.000000 wLong=  0.330000 cFull=  0.190000 cShort=  0.000000 cLong=  0.460000
 DFx  wShort=  0.000000 wLong=  0.330000 cFull=  0.190000 cShort=  0.000000 cLong=  0.460000
 NAtoms=  158 NActive=  158 NUniq=  158 SFac= 1.00D+00 NAtFMM=   60 NAOKFM=T Big=T
 Integral buffers will be    131072 words long.
 Raffenetti 1 integral format.
 Two-electron integral symmetry is turned on.
 Leave Link  301 at Fri Sep 10 22:22:32 2021, MaxMem= 23488102400 cpu:               1.3 elap:               0.1
 (Enter /sw/apps/gaussian-16.0/g16/l302.exe)
 NPDir=0 NMtPBC=     1 NCelOv=     1 NCel=       1 NClECP=     1 NCelD=      1
         NCelK=      1 NCelE2=     1 NClLst=     1 CellRange=     0.0.
 One-electron integrals computed using PRISM.
 One-electron integral symmetry used in STVInt
   1 Symmetry operations used in ECPInt.
 ECPInt:  NShTT=  271216 NPrTT=  987664 LenC2=  138894 LenP2D=  289761.
 LDataN:  DoStor=T MaxTD1= 4 Len=   56
 NBasis=  1572 RedAO= T EigKep=  3.36D-04  NBF=  1572
 NBsUse=  1572 1.00D-06 EigRej= -1.00D+00 NBFU=  1572
 Precomputing XC quadrature grid using
 IXCGrd= 4 IRadAn=           5 IRanWt=          -1 IRanGd=           0 AccXCQ= 0.00D+00.
 Generated NRdTot=       0 NPtTot=           0 NUsed=           0 NTot=          32
 NSgBfM=  1223  1209  1220  1221  1223 MxSgAt=   158 MxSgA2=   158.
 Leave Link  302 at Fri Sep 10 22:22:37 2021, MaxMem= 23488102400 cpu:             126.2 elap:               5.3
 (Enter /sw/apps/gaussian-16.0/g16/l303.exe)
 DipDrv:  MaxL=1.
 Leave Link  303 at Fri Sep 10 22:22:38 2021, MaxMem= 23488102400 cpu:               9.6 elap:               0.4
 (Enter /sw/apps/gaussian-16.0/g16/l308.exe)
 Leave Link  308 at Fri Sep 10 22:22:38 2021, MaxMem= 23488102400 cpu:              13.0 elap:               0.6
 (Enter /sw/apps/gaussian-16.0/g16/l401.exe)
 ExpMin= 3.36D-02 ExpMax= 4.95D+03 ExpMxC= 7.45D+02 IAcc=3 IRadAn=         5 AccDes= 0.00D+00
 Harris functional with IExCor=20419 and IRadAn=       5 diagonalized for initial guess.
 HarFok:  IExCor=20419 AccDes= 0.00D+00 IRadAn=         5 IDoV= 1 UseB2=F ITyADJ=14
 ICtDFT=  3500011 ScaDFX=  1.000000  1.000000  1.000000  1.000000
 FoFCou: FMM=F IPFlag=           0 FMFlag=      100000 FMFlg1=        2001
         NFxFlg=           0 DoJE=T BraDBF=F KetDBF=T FulRan=T
         wScrn=  0.000000 ICntrl=       500 IOpCl=  0 I1Cent=   200000004 NGrid=           0
         NMat0=    1 NMatS0=      1 NMatT0=    0 NMatD0=    1 NMtDS0=    0 NMtDT0=    0
 Petite list used in FoFCou.
 Harris En= -3918.65801097555    
 JPrj=0 DoOrth=F DoCkMO=F.
 Leave Link  401 at Fri Sep 10 22:22:46 2021, MaxMem= 23488102400 cpu:             185.7 elap:               7.8
 (Enter /sw/apps/gaussian-16.0/g16/l502.exe)
 Integral symmetry usage will be decided dynamically.
 Closed shell SCF:
 Using DIIS extrapolation, IDIIS=  1040.
 NGot= 23488102400 LenX= 23482547354 LenY= 23479796732
 Requested convergence on RMS density matrix=1.00D-08 within 128 cycles.
 Requested convergence on MAX density matrix=1.00D-06.
 Requested convergence on             energy=1.00D-06.
 No special actions if energy rises.
 Fock matrices will be formed incrementally for  20 cycles.

 Cycle   1  Pass 1  IDiag  1:
 FoFJK:  IHMeth= 1 ICntrl=       0 DoSepK=T KAlg= 0 I1Cent=           0 FoldK=F
 IRaf=         1 NMat=       1 IRICut=       1 DoRegI=T DoRafI=F ISym2E= 0 IDoP0=0 IntGTp=1.
 FoFCou: FMM=T IPFlag=           0 FMFlag=      100000 FMFlg1=        2001
         NFxFlg=           0 DoJE=T BraDBF=F KetDBF=F FulRan=T
         wScrn=  0.000000 ICntrl=       500 IOpCl=  0 I1Cent=           0 NGrid=           0
         NMat0=    1 NMatS0=      1 NMatT0=    0 NMatD0=    1 NMtDS0=    0 NMtDT0=    0
 Symmetry not used in FoFCou.
 FMM levels:  10  Number of levels for PrismC:   9
 E= -4068.94823148496    
 DIIS: error= 2.04D-02 at cycle   1 NSaved=   1.
 NSaved= 1 IEnMin= 1 EnMin= -4068.94823148496     IErMin= 1 ErrMin= 2.04D-02
 ErrMax= 2.04D-02  0.00D+00 EMaxC= 1.00D-01 BMatC= 1.69D+00 BMatP= 1.69D+00
 IDIUse=3 WtCom= 7.96D-01 WtEn= 2.04D-01
 Coeff-Com:  0.100D+01
 Coeff-En:   0.100D+01
 Coeff:      0.100D+01
 Gap=     0.120 Goal=   None    Shift=    0.000
 GapD=    0.120 DampG=1.000 DampE=0.500 DampFc=0.5000 IDamp=-1.
 Damping current iteration by 5.00D-01
 RMSDP=1.57D-03 MaxDP=1.36D-01              OVMax= 2.08D-01

 Cycle   2  Pass 1  IDiag  1:
 RMSU=  7.70D-04    CP:  9.82D-01
 E= -4069.33693456658     Delta-E=       -0.388703081619 Rises=F Damp=T
 DIIS: error= 1.27D-02 at cycle   2 NSaved=   2.
 NSaved= 2 IEnMin= 2 EnMin= -4069.33693456658     IErMin= 2 ErrMin= 1.27D-02
 ErrMax= 1.27D-02  0.00D+00 EMaxC= 1.00D-01 BMatC= 3.07D-01 BMatP= 1.69D+00
 IDIUse=3 WtCom= 8.73D-01 WtEn= 1.27D-01
 Coeff-Com: -0.213D+00 0.121D+01
 Coeff-En:   0.000D+00 0.100D+01
 Coeff:     -0.186D+00 0.119D+01
 Gap=     0.135 Goal=   None    Shift=    0.000
 RMSDP=7.68D-04 MaxDP=9.48D-02 DE=-3.89D-01 OVMax= 1.92D-01

 Cycle   3  Pass 1  IDiag  1:
 RMSU=  7.36D-04    CP:  9.68D-01  1.23D+00
 E= -4069.62447244128     Delta-E=       -0.287537874705 Rises=F Damp=F
 DIIS: error= 1.56D-02 at cycle   3 NSaved=   3.
 NSaved= 3 IEnMin= 3 EnMin= -4069.62447244128     IErMin= 2 ErrMin= 1.27D-02
 ErrMax= 1.56D-02  0.00D+00 EMaxC= 1.00D-01 BMatC= 2.03D-01 BMatP= 3.07D-01
 IDIUse=3 WtCom= 8.44D-01 WtEn= 1.56D-01
 Coeff-Com: -0.267D+00 0.653D+00 0.615D+00
 Coeff-En:   0.000D+00 0.000D+00 0.100D+01
 Coeff:     -0.226D+00 0.551D+00 0.675D+00
 Gap=     0.121 Goal=   None    Shift=    0.000
 RMSDP=5.16D-04 MaxDP=4.80D-02 DE=-2.88D-01 OVMax= 1.52D-01

 Cycle   4  Pass 1  IDiag  1:
 RMSU=  2.69D-04    CP:  9.65D-01  1.55D+00  5.00D-01
 E= -4069.76305353707     Delta-E=       -0.138581095787 Rises=F Damp=F
 DIIS: error= 7.07D-03 at cycle   4 NSaved=   4.
 NSaved= 4 IEnMin= 4 EnMin= -4069.76305353707     IErMin= 4 ErrMin= 7.07D-03
 ErrMax= 7.07D-03  0.00D+00 EMaxC= 1.00D-01 BMatC= 5.09D-02 BMatP= 2.03D-01
 IDIUse=3 WtCom= 9.29D-01 WtEn= 7.07D-02
 Coeff-Com: -0.110D+00 0.228D+00 0.409D+00 0.473D+00
 Coeff-En:   0.000D+00 0.000D+00 0.225D+00 0.775D+00
 Coeff:     -0.102D+00 0.212D+00 0.396D+00 0.494D+00
 Gap=     0.120 Goal=   None    Shift=    0.000
 RMSDP=2.06D-04 MaxDP=1.91D-02 DE=-1.39D-01 OVMax= 6.85D-02

 Cycle   5  Pass 1  IDiag  1:
 RMSU=  7.90D-05    CP:  9.64D-01  1.49D+00  6.88D-01  5.42D-01
 E= -4069.80995793700     Delta-E=       -0.046904399929 Rises=F Damp=F
 DIIS: error= 7.08D-04 at cycle   5 NSaved=   5.
 NSaved= 5 IEnMin= 5 EnMin= -4069.80995793700     IErMin= 5 ErrMin= 7.08D-04
 ErrMax= 7.08D-04  0.00D+00 EMaxC= 1.00D-01 BMatC= 1.30D-03 BMatP= 5.09D-02
 IDIUse=3 WtCom= 9.93D-01 WtEn= 7.08D-03
 Coeff-Com: -0.379D-01 0.746D-01 0.172D+00 0.255D+00 0.536D+00
 Coeff-En:   0.000D+00 0.000D+00 0.000D+00 0.000D+00 0.100D+01
 Coeff:     -0.376D-01 0.741D-01 0.171D+00 0.253D+00 0.539D+00
 Gap=     0.120 Goal=   None    Shift=    0.000
 RMSDP=4.51D-05 MaxDP=4.35D-03 DE=-4.69D-02 OVMax= 1.94D-02

 Cycle   6  Pass 1  IDiag  1:
 RMSU=  3.25D-05    CP:  9.64D-01  1.49D+00  6.78D-01  6.19D-01  7.25D-01
 E= -4069.81114420190     Delta-E=       -0.001186264897 Rises=F Damp=F
 DIIS: error= 1.81D-04 at cycle   6 NSaved=   6.
 NSaved= 6 IEnMin= 6 EnMin= -4069.81114420190     IErMin= 6 ErrMin= 1.81D-04
 ErrMax= 1.81D-04  0.00D+00 EMaxC= 1.00D-01 BMatC= 2.05D-04 BMatP= 1.30D-03
 IDIUse=3 WtCom= 9.98D-01 WtEn= 1.81D-03
 Coeff-Com:  0.178D-02-0.578D-02 0.135D-01 0.431D-01 0.308D+00 0.639D+00
 Coeff-En:   0.000D+00 0.000D+00 0.000D+00 0.000D+00 0.125D+00 0.875D+00
 Coeff:      0.177D-02-0.577D-02 0.134D-01 0.431D-01 0.308D+00 0.640D+00
 Gap=     0.120 Goal=   None    Shift=    0.000
 RMSDP=1.77D-05 MaxDP=1.23D-03 DE=-1.19D-03 OVMax= 8.07D-03

 Cycle   7  Pass 1  IDiag  1:
 RMSU=  1.14D-05    CP:  9.64D-01  1.49D+00  6.84D-01  6.17D-01  8.39D-01
                    CP:  7.32D-01
 E= -4069.81137467301     Delta-E=       -0.000230471112 Rises=F Damp=F
 DIIS: error= 1.05D-04 at cycle   7 NSaved=   7.
 NSaved= 7 IEnMin= 7 EnMin= -4069.81137467301     IErMin= 7 ErrMin= 1.05D-04
 ErrMax= 1.05D-04  0.00D+00 EMaxC= 1.00D-01 BMatC= 2.64D-05 BMatP= 2.05D-04
 IDIUse=3 WtCom= 9.99D-01 WtEn= 1.05D-03
 Coeff-Com:  0.460D-02-0.101D-01-0.878D-02-0.291D-02 0.110D+00 0.340D+00
 Coeff-Com:  0.567D+00
 Coeff-En:   0.000D+00 0.000D+00 0.000D+00 0.000D+00 0.000D+00 0.000D+00
 Coeff-En:   0.100D+01
 Coeff:      0.459D-02-0.101D-01-0.877D-02-0.291D-02 0.110D+00 0.340D+00
 Coeff:      0.567D+00
 Gap=     0.121 Goal=   None    Shift=    0.000
 RMSDP=6.85D-06 MaxDP=1.10D-03 DE=-2.30D-04 OVMax= 3.37D-03

 Cycle   8  Pass 1  IDiag  1:
 RMSU=  4.88D-06    CP:  9.64D-01  1.49D+00  6.85D-01  6.22D-01  8.40D-01
                    CP:  8.54D-01  8.09D-01
 E= -4069.81140709847     Delta-E=       -0.000032425458 Rises=F Damp=F
 DIIS: error= 5.81D-05 at cycle   8 NSaved=   8.
 NSaved= 8 IEnMin= 8 EnMin= -4069.81140709847     IErMin= 8 ErrMin= 5.81D-05
 ErrMax= 5.81D-05  0.00D+00 EMaxC= 1.00D-01 BMatC= 5.04D-06 BMatP= 2.64D-05
 IDIUse=1 WtCom= 1.00D+00 WtEn= 0.00D+00
 Coeff-Com:  0.224D-02-0.445D-02-0.789D-02-0.122D-01-0.849D-02 0.327D-01
 Coeff-Com:  0.317D+00 0.681D+00
 Coeff:      0.224D-02-0.445D-02-0.789D-02-0.122D-01-0.849D-02 0.327D-01
 Coeff:      0.317D+00 0.681D+00
 Gap=     0.121 Goal=   None    Shift=    0.000
 RMSDP=3.43D-06 MaxDP=3.85D-04 DE=-3.24D-05 OVMax= 1.14D-03

 Cycle   9  Pass 1  IDiag  1:
 RMSU=  1.99D-06    CP:  9.64D-01  1.49D+00  6.85D-01  6.24D-01  8.57D-01
                    CP:  8.82D-01  9.99D-01  9.72D-01
 E= -4069.81141525338     Delta-E=       -0.000008154911 Rises=F Damp=F
 DIIS: error= 2.08D-05 at cycle   9 NSaved=   9.
 NSaved= 9 IEnMin= 9 EnMin= -4069.81141525338     IErMin= 9 ErrMin= 2.08D-05
 ErrMax= 2.08D-05  0.00D+00 EMaxC= 1.00D-01 BMatC= 7.93D-07 BMatP= 5.04D-06
 IDIUse=1 WtCom= 1.00D+00 WtEn= 0.00D+00
 Coeff-Com:  0.498D-03-0.833D-03-0.279D-02-0.616D-02-0.201D-01-0.408D-01
 Coeff-Com:  0.934D-01 0.341D+00 0.635D+00
 Coeff:      0.498D-03-0.833D-03-0.279D-02-0.616D-02-0.201D-01-0.408D-01
 Coeff:      0.934D-01 0.341D+00 0.635D+00
 Gap=     0.121 Goal=   None    Shift=    0.000
 RMSDP=1.48D-06 MaxDP=1.40D-04 DE=-8.15D-06 OVMax= 7.76D-04

 Cycle  10  Pass 1  IDiag  1:
 RMSU=  9.82D-07    CP:  9.64D-01  1.49D+00  6.86D-01  6.24D-01  8.60D-01
                    CP:  8.93D-01  1.05D+00  1.14D+00  1.06D+00
 E= -4069.81141702970     Delta-E=       -0.000001776323 Rises=F Damp=F
 DIIS: error= 1.05D-05 at cycle  10 NSaved=  10.
 NSaved=10 IEnMin=10 EnMin= -4069.81141702970     IErMin=10 ErrMin= 1.05D-05
 ErrMax= 1.05D-05  0.00D+00 EMaxC= 1.00D-01 BMatC= 1.83D-07 BMatP= 7.93D-07
 IDIUse=1 WtCom= 1.00D+00 WtEn= 0.00D+00
 Coeff-Com: -0.429D-03 0.902D-03 0.121D-02 0.103D-02-0.370D-02-0.317D-01
 Coeff-Com: -0.430D-01-0.702D-01 0.235D+00 0.911D+00
 Coeff:     -0.429D-03 0.902D-03 0.121D-02 0.103D-02-0.370D-02-0.317D-01
 Coeff:     -0.430D-01-0.702D-01 0.235D+00 0.911D+00
 Gap=     0.121 Goal=   None    Shift=    0.000
 RMSDP=1.28D-06 MaxDP=1.24D-04 DE=-1.78D-06 OVMax= 6.59D-04

 Cycle  11  Pass 1  IDiag  1:
 RMSU=  5.59D-07    CP:  9.64D-01  1.49D+00  6.86D-01  6.25D-01  8.63D-01
                    CP:  9.03D-01  1.09D+00  1.25D+00  1.40D+00  1.36D+00
 E= -4069.81141788784     Delta-E=       -0.000000858137 Rises=F Damp=F
 DIIS: error= 4.51D-06 at cycle  11 NSaved=  11.
 NSaved=11 IEnMin=11 EnMin= -4069.81141788784     IErMin=11 ErrMin= 4.51D-06
 ErrMax= 4.51D-06  0.00D+00 EMaxC= 1.00D-01 BMatC= 7.71D-08 BMatP= 1.83D-07
 IDIUse=1 WtCom= 1.00D+00 WtEn= 0.00D+00
 Coeff-Com: -0.352D-03 0.687D-03 0.140D-02 0.216D-02 0.434D-02-0.930D-02
 Coeff-Com: -0.413D-01-0.134D+00-0.379D-01 0.505D+00 0.708D+00
 Coeff:     -0.352D-03 0.687D-03 0.140D-02 0.216D-02 0.434D-02-0.930D-02
 Coeff:     -0.413D-01-0.134D+00-0.379D-01 0.505D+00 0.708D+00
 Gap=     0.121 Goal=   None    Shift=    0.000
 RMSDP=7.29D-07 MaxDP=6.61D-05 DE=-8.58D-07 OVMax= 4.04D-04

 Cycle  12  Pass 1  IDiag  1:
 RMSU=  2.82D-07    CP:  9.64D-01  1.49D+00  6.86D-01  6.25D-01  8.64D-01
                    CP:  9.05D-01  1.11D+00  1.32D+00  1.56D+00  1.76D+00
                    CP:  1.17D+00
 E= -4069.81141818754     Delta-E=       -0.000000299704 Rises=F Damp=F
 DIIS: error= 2.85D-06 at cycle  12 NSaved=  12.
 NSaved=12 IEnMin=12 EnMin= -4069.81141818754     IErMin=12 ErrMin= 2.85D-06
 ErrMax= 2.85D-06  0.00D+00 EMaxC= 1.00D-01 BMatC= 1.86D-08 BMatP= 7.71D-08
 IDIUse=1 WtCom= 1.00D+00 WtEn= 0.00D+00
 Coeff-Com: -0.248D-04 0.312D-04 0.280D-03 0.654D-03 0.371D-02 0.336D-02
 Coeff-Com:  0.313D-03-0.414D-01-0.772D-01-0.287D-01 0.266D+00 0.873D+00
 Coeff:     -0.248D-04 0.312D-04 0.280D-03 0.654D-03 0.371D-02 0.336D-02
 Coeff:      0.313D-03-0.414D-01-0.772D-01-0.287D-01 0.266D+00 0.873D+00
 Gap=     0.121 Goal=   None    Shift=    0.000
 RMSDP=4.51D-07 MaxDP=3.11D-05 DE=-3.00D-07 OVMax= 2.59D-04

 Cycle  13  Pass 1  IDiag  1:
 RMSU=  1.74D-07    CP:  9.64D-01  1.49D+00  6.86D-01  6.25D-01  8.64D-01
                    CP:  9.05D-01  1.12D+00  1.35D+00  1.67D+00  1.97D+00
                    CP:  1.57D+00  1.22D+00
 E= -4069.81141829065     Delta-E=       -0.000000103108 Rises=F Damp=F
 DIIS: error= 1.42D-06 at cycle  13 NSaved=  13.
 NSaved=13 IEnMin=13 EnMin= -4069.81141829065     IErMin=13 ErrMin= 1.42D-06
 ErrMax= 1.42D-06  0.00D+00 EMaxC= 1.00D-01 BMatC= 9.85D-09 BMatP= 1.86D-08
 IDIUse=1 WtCom= 1.00D+00 WtEn= 0.00D+00
 Coeff-Com:  0.121D-03-0.248D-03-0.362D-03-0.436D-03 0.821D-03 0.495D-02
 Coeff-Com:  0.184D-01 0.230D-01-0.344D-01-0.235D+00-0.164D+00 0.571D+00
 Coeff-Com:  0.816D+00
 Coeff:      0.121D-03-0.248D-03-0.362D-03-0.436D-03 0.821D-03 0.495D-02
 Coeff:      0.184D-01 0.230D-01-0.344D-01-0.235D+00-0.164D+00 0.571D+00
 Coeff:      0.816D+00
 Gap=     0.121 Goal=   None    Shift=    0.000
 RMSDP=3.75D-07 MaxDP=2.49D-05 DE=-1.03D-07 OVMax= 2.27D-04

 Cycle  14  Pass 1  IDiag  1:
 RMSU=  8.12D-08    CP:  9.64D-01  1.49D+00  6.86D-01  6.25D-01  8.64D-01
                    CP:  9.06D-01  1.13D+00  1.37D+00  1.75D+00  2.18D+00
                    CP:  1.83D+00  1.75D+00  1.14D+00
 E= -4069.81141833493     Delta-E=       -0.000000044274 Rises=F Damp=F
 DIIS: error= 7.77D-07 at cycle  14 NSaved=  14.
 NSaved=14 IEnMin=14 EnMin= -4069.81141833493     IErMin=14 ErrMin= 7.77D-07
 ErrMax= 7.77D-07  0.00D+00 EMaxC= 1.00D-01 BMatC= 1.48D-09 BMatP= 9.85D-09
 IDIUse=1 WtCom= 1.00D+00 WtEn= 0.00D+00
 Coeff-Com:  0.707D-04-0.140D-03-0.259D-03-0.402D-03-0.423D-03 0.125D-02
 Coeff-Com:  0.103D-01 0.205D-01 0.487D-02-0.103D+00-0.149D+00 0.761D-01
 Coeff-Com:  0.411D+00 0.729D+00
 Coeff:      0.707D-04-0.140D-03-0.259D-03-0.402D-03-0.423D-03 0.125D-02
 Coeff:      0.103D-01 0.205D-01 0.487D-02-0.103D+00-0.149D+00 0.761D-01
 Coeff:      0.411D+00 0.729D+00
 Gap=     0.121 Goal=   None    Shift=    0.000
 RMSDP=1.18D-07 MaxDP=7.61D-06 DE=-4.43D-08 OVMax= 6.42D-05

 Cycle  15  Pass 1  IDiag  1:
 RMSU=  4.00D-08    CP:  9.64D-01  1.49D+00  6.86D-01  6.25D-01  8.64D-01
                    CP:  9.06D-01  1.13D+00  1.38D+00  1.77D+00  2.23D+00
                    CP:  1.94D+00  1.90D+00  1.38D+00  1.05D+00
 E= -4069.81141834016     Delta-E=       -0.000000005239 Rises=F Damp=F
 DIIS: error= 3.82D-07 at cycle  15 NSaved=  15.
 NSaved=15 IEnMin=15 EnMin= -4069.81141834016     IErMin=15 ErrMin= 3.82D-07
 ErrMax= 3.82D-07  0.00D+00 EMaxC= 1.00D-01 BMatC= 2.42D-10 BMatP= 1.48D-09
 IDIUse=1 WtCom= 1.00D+00 WtEn= 0.00D+00
 Coeff-Com:  0.760D-05-0.133D-04-0.408D-04-0.940D-04-0.299D-03-0.509D-03
 Coeff-Com:  0.128D-02 0.326D-02 0.889D-02-0.143D-02-0.314D-01-0.709D-01
 Coeff-Com:  0.377D-01 0.298D+00 0.755D+00
 Coeff:      0.760D-05-0.133D-04-0.408D-04-0.940D-04-0.299D-03-0.509D-03
 Coeff:      0.128D-02 0.326D-02 0.889D-02-0.143D-02-0.314D-01-0.709D-01
 Coeff:      0.377D-01 0.298D+00 0.755D+00
 Gap=     0.121 Goal=   None    Shift=    0.000
 RMSDP=3.89D-08 MaxDP=2.57D-06 DE=-5.24D-09 OVMax= 2.80D-05

 Cycle  16  Pass 1  IDiag  1:
 RMSU=  1.92D-08    CP:  9.64D-01  1.49D+00  6.86D-01  6.25D-01  8.64D-01
                    CP:  9.06D-01  1.13D+00  1.38D+00  1.78D+00  2.24D+00
                    CP:  1.97D+00  1.95D+00  1.45D+00  1.24D+00  1.15D+00
 E= -4069.81141834075     Delta-E=       -0.000000000586 Rises=F Damp=F
 DIIS: error= 1.92D-07 at cycle  16 NSaved=  16.
 NSaved=16 IEnMin=16 EnMin= -4069.81141834075     IErMin=16 ErrMin= 1.92D-07
 ErrMax= 1.92D-07  0.00D+00 EMaxC= 1.00D-01 BMatC= 9.35D-11 BMatP= 2.42D-10
 IDIUse=1 WtCom= 1.00D+00 WtEn= 0.00D+00
 Coeff-Com: -0.140D-04 0.283D-04 0.452D-04 0.497D-04-0.403D-04-0.627D-03
 Coeff-Com: -0.176D-02-0.413D-02 0.413D-02 0.244D-01 0.217D-01-0.612D-01
 Coeff-Com: -0.787D-01-0.428D-01 0.393D+00 0.745D+00
 Coeff:     -0.140D-04 0.283D-04 0.452D-04 0.497D-04-0.403D-04-0.627D-03
 Coeff:     -0.176D-02-0.413D-02 0.413D-02 0.244D-01 0.217D-01-0.612D-01
 Coeff:     -0.787D-01-0.428D-01 0.393D+00 0.745D+00
 Gap=     0.121 Goal=   None    Shift=    0.000
 RMSDP=2.43D-08 MaxDP=1.79D-06 DE=-5.86D-10 OVMax= 1.32D-05

 Cycle  17  Pass 1  IDiag  1:
 RMSU=  1.08D-08    CP:  9.64D-01  1.49D+00  6.86D-01  6.25D-01  8.64D-01
                    CP:  9.06D-01  1.13D+00  1.38D+00  1.78D+00  2.25D+00
                    CP:  1.98D+00  1.97D+00  1.50D+00  1.34D+00  1.44D+00
                    CP:  1.24D+00
 E= -4069.81141834112     Delta-E=       -0.000000000367 Rises=F Damp=F
 DIIS: error= 9.19D-08 at cycle  17 NSaved=  17.
 NSaved=17 IEnMin=17 EnMin= -4069.81141834112     IErMin=17 ErrMin= 9.19D-08
 ErrMax= 9.19D-08  0.00D+00 EMaxC= 1.00D-01 BMatC= 1.94D-11 BMatP= 9.35D-11
 IDIUse=1 WtCom= 1.00D+00 WtEn= 0.00D+00
 Coeff-Com: -0.771D-05 0.151D-04 0.299D-04 0.435D-04 0.788D-04-0.137D-03
 Coeff-Com: -0.900D-03-0.289D-02-0.661D-04 0.973D-02 0.181D-01-0.772D-02
 Coeff-Com: -0.353D-01-0.101D+00-0.229D-01 0.291D+00 0.852D+00
 Coeff:     -0.771D-05 0.151D-04 0.299D-04 0.435D-04 0.788D-04-0.137D-03
 Coeff:     -0.900D-03-0.289D-02-0.661D-04 0.973D-02 0.181D-01-0.772D-02
 Coeff:     -0.353D-01-0.101D+00-0.229D-01 0.291D+00 0.852D+00
 Gap=     0.121 Goal=   None    Shift=    0.000
 RMSDP=1.37D-08 MaxDP=1.01D-06 DE=-3.67D-10 OVMax= 9.46D-06

 Cycle  18  Pass 1  IDiag  1:
 RMSU=  5.17D-09    CP:  9.64D-01  1.49D+00  6.86D-01  6.25D-01  8.64D-01
                    CP:  9.06D-01  1.13D+00  1.38D+00  1.78D+00  2.25D+00
                    CP:  1.98D+00  1.98D+00  1.52D+00  1.40D+00  1.60D+00
                    CP:  1.64D+00  1.38D+00
 E= -4069.81141834114     Delta-E=       -0.000000000022 Rises=F Damp=F
 DIIS: error= 6.43D-08 at cycle  18 NSaved=  18.
 NSaved=18 IEnMin=18 EnMin= -4069.81141834114     IErMin=18 ErrMin= 6.43D-08
 ErrMax= 6.43D-08  0.00D+00 EMaxC= 1.00D-01 BMatC= 8.05D-12 BMatP= 1.94D-11
 IDIUse=1 WtCom= 1.00D+00 WtEn= 0.00D+00
 Coeff-Com:  0.131D-05-0.295D-05-0.182D-05 0.207D-05 0.640D-04 0.159D-03
 Coeff-Com:  0.293D-03 0.189D-04-0.120D-02-0.483D-02 0.764D-03 0.167D-01
 Coeff-Com:  0.154D-01-0.345D-01-0.152D+00-0.169D+00 0.384D+00 0.944D+00
 Coeff:      0.131D-05-0.295D-05-0.182D-05 0.207D-05 0.640D-04 0.159D-03
 Coeff:      0.293D-03 0.189D-04-0.120D-02-0.483D-02 0.764D-03 0.167D-01
 Coeff:      0.154D-01-0.345D-01-0.152D+00-0.169D+00 0.384D+00 0.944D+00
 Gap=     0.121 Goal=   None    Shift=    0.000
 RMSDP=1.14D-08 MaxDP=7.55D-07 DE=-2.18D-11 OVMax= 6.21D-06

 Cycle  19  Pass 1  IDiag  1:
 RMSU=  3.02D-09    CP:  9.64D-01  1.49D+00  6.86D-01  6.25D-01  8.64D-01
                    CP:  9.06D-01  1.13D+00  1.38D+00  1.78D+00  2.25D+00
                    CP:  1.99D+00  1.98D+00  1.53D+00  1.44D+00  1.74D+00
                    CP:  1.94D+00  1.91D+00  1.29D+00
 E= -4069.81141834157     Delta-E=       -0.000000000433 Rises=F Damp=F
 DIIS: error= 3.03D-08 at cycle  19 NSaved=  19.
 NSaved=19 IEnMin=19 EnMin= -4069.81141834157     IErMin=19 ErrMin= 3.03D-08
 ErrMax= 3.03D-08  0.00D+00 EMaxC= 1.00D-01 BMatC= 1.91D-12 BMatP= 8.05D-12
 IDIUse=1 WtCom= 1.00D+00 WtEn= 0.00D+00
 Coeff-Com:  0.299D-05-0.605D-05-0.991D-05-0.119D-04 0.175D-04 0.126D-03
 Coeff-Com:  0.455D-03 0.820D-03-0.601D-03-0.604D-02-0.505D-02 0.117D-01
 Coeff-Com:  0.210D-01 0.111D-01-0.755D-01-0.190D+00-0.210D-01 0.513D+00
 Coeff-Com:  0.740D+00
 Coeff:      0.299D-05-0.605D-05-0.991D-05-0.119D-04 0.175D-04 0.126D-03
 Coeff:      0.455D-03 0.820D-03-0.601D-03-0.604D-02-0.505D-02 0.117D-01
 Coeff:      0.210D-01 0.111D-01-0.755D-01-0.190D+00-0.210D-01 0.513D+00
 Coeff:      0.740D+00
 Gap=     0.121 Goal=   None    Shift=    0.000
 RMSDP=5.17D-09 MaxDP=3.88D-07 DE=-4.33D-10 OVMax= 3.64D-06

 SCF Done:  E(RCAM-B3LYP) =  -4069.81141834     A.U. after   19 cycles
            NFock= 19  Conv=0.52D-08     -V/T= 2.0102
 KE= 4.028801943756D+03 PE=-3.945396833839D+04 EE= 1.636890170617D+04
 Leave Link  502 at Fri Sep 10 22:32:47 2021, MaxMem= 23488102400 cpu:           13846.4 elap:             601.0
 (Enter /sw/apps/gaussian-16.0/g16/l801.exe)
 DoSCS=F DFT=T ScalE2(SS,OS)=  1.000000  1.000000
 ExpMin= 3.36D-02 ExpMax= 4.95D+03 ExpMxC= 7.45D+02 IAcc=3 IRadAn=         5 AccDes= 0.00D+00
 HarFok:  IExCor=  205 AccDes= 0.00D+00 IRadAn=         5 IDoV=-2 UseB2=F ITyADJ=14
 ICtDFT= 12500011 ScaDFX=  1.000000  1.000000  1.000000  1.000000
 GSVD:  LWork=       -9588 too small for GESVD, short by       45590 words or       45590 for optimal perf.
 Largest valence mixing into a core orbital is  2.03D-04
 Largest core mixing into a valence orbital is  5.24D-05
 Range of M.O.s used for correlation:    95  1572
 NBasis=  1572 NAE=   312 NBE=   312 NFC=    94 NFV=     0
 NROrb=   1478 NOA=   218 NOB=   218 NVA=  1260 NVB=  1260
 Leave Link  801 at Fri Sep 10 22:32:48 2021, MaxMem= 23488102400 cpu:               8.7 elap:               0.4
 (Enter /sw/apps/gaussian-16.0/g16/l914.exe)
 RHF ground state
 Two-electron integrals replicated using symmetry.
 MDV= 23488102400 DFT=T DoStab=F Mixed=T DoRPA=T DoScal=F NonHer=T
 Making orbital integer symmetry assigments:
 Orbital symmetries:
       Occupied  (A) (A) (A) (A) (A) (A) (A) (A) (A) (A) (A) (A)
                 (A) (A) (A) (A) (A) (A) (A) (A) (A) (A) (A) (A)
                 (A) (A) (A) (A) (A) (A) (A) (A) (A) (A) (A) (A)
                 (A) (A) (A) (A) (A) (A) (A) (A) (A) (A) (A) (A)
                 (A) (A) (A) (A) (A) (A) (A) (A) (A) (A) (A) (A)
                 (A) (A) (A) (A) (A) (A) (A) (A) (A) (A) (A) (A)
                 (A) (A) (A) (A) (A) (A) (A) (A) (A) (A) (A) (A)
                 (A) (A) (A) (A) (A) (A) (A) (A) (A) (A) (A) (A)
                 (A) (A) (A) (A) (A) (A) (A) (A) (A) (A) (A) (A)
                 (A) (A) (A) (A) (A) (A) (A) (A) (A) (A) (A) (A)
                 (A) (A) (A) (A) (A) (A) (A) (A) (A) (A) (A) (A)
                 (A) (A) (A) (A) (A) (A) (A) (A) (A) (A) (A) (A)
                 (A) (A) (A) (A) (A) (A) (A) (A) (A) (A) (A) (A)
                 (A) (A) (A) (A) (A) (A) (A) (A) (A) (A) (A) (A)
                 (A) (A) (A) (A) (A) (A) (A) (A) (A) (A) (A) (A)
                 (A) (A) (A) (A) (A) (A) (A) (A) (A) (A) (A) (A)
                 (A) (A) (A) (A) (A) (A) (A) (A) (A) (A) (A) (A)
                 (A) (A) (A) (A) (A) (A) (A) (A) (A) (A) (A) (A)
                 (A) (A) (A) (A) (A) (A) (A) (A) (A) (A) (A) (A)
                 (A) (A) (A) (A) (A) (A) (A) (A) (A) (A) (A) (A)
                 (A) (A) (A) (A) (A) (A) (A) (A) (A) (A) (A) (A)
                 (A) (A) (A) (A) (A) (A) (A) (A) (A) (A) (A) (A)
                 (A) (A) (A) (A) (A) (A) (A) (A) (A) (A) (A) (A)
                 (A) (A) (A) (A) (A) (A) (A) (A) (A) (A) (A) (A)
                 (A) (A) (A) (A) (A) (A) (A) (A) (A) (A) (A) (A)
                 (A) (A) (A) (A) (A) (A) (A) (A) (A) (A) (A) (A)
       Virtual   (A) (A) (A) (A) (A) (A) (A) (A) (A) (A) (A) (A)
                 (A) (A) (A) (A) (A) (A) (A) (A) (A) (A) (A) (A)
                 (A) (A) (A) (A) (A) (A) (A) (A) (A) (A) (A) (A)
                 (A) (A) (A) (A) (A) (A) (A) (A) (A) (A) (A) (A)
                 (A) (A) (A) (A) (A) (A) (A) (A) (A) (A) (A) (A)
                 (A) (A) (A) (A) (A) (A) (A) (A) (A) (A) (A) (A)
                 (A) (A) (A) (A) (A) (A) (A) (A) (A) (A) (A) (A)
                 (A) (A) (A) (A) (A) (A) (A) (A) (A) (A) (A) (A)
                 (A) (A) (A) (A) (A) (A) (A) (A) (A) (A) (A) (A)
                 (A) (A) (A) (A) (A) (A) (A) (A) (A) (A) (A) (A)
                 (A) (A) (A) (A) (A) (A) (A) (A) (A) (A) (A) (A)
                 (A) (A) (A) (A) (A) (A) (A) (A) (A) (A) (A) (A)
                 (A) (A) (A) (A) (A) (A) (A) (A) (A) (A) (A) (A)
                 (A) (A) (A) (A) (A) (A) (A) (A) (A) (A) (A) (A)
                 (A) (A) (A) (A) (A) (A) (A) (A) (A) (A) (A) (A)
                 (A) (A) (A) (A) (A) (A) (A) (A) (A) (A) (A) (A)
                 (A) (A) (A) (A) (A) (A) (A) (A) (A) (A) (A) (A)
                 (A) (A) (A) (A) (A) (A) (A) (A) (A) (A) (A) (A)
                 (A) (A) (A) (A) (A) (A) (A) (A) (A) (A) (A) (A)
                 (A) (A) (A) (A) (A) (A) (A) (A) (A) (A) (A) (A)
                 (A) (A) (A) (A) (A) (A) (A) (A) (A) (A) (A) (A)
                 (A) (A) (A) (A) (A) (A) (A) (A) (A) (A) (A) (A)
                 (A) (A) (A) (A) (A) (A) (A) (A) (A) (A) (A) (A)
                 (A) (A) (A) (A) (A) (A) (A) (A) (A) (A) (A) (A)
                 (A) (A) (A) (A) (A) (A) (A) (A) (A) (A) (A) (A)
                 (A) (A) (A) (A) (A) (A) (A) (A) (A) (A) (A) (A)
                 (A) (A) (A) (A) (A) (A) (A) (A) (A) (A) (A) (A)
                 (A) (A) (A) (A) (A) (A) (A) (A) (A) (A) (A) (A)
                 (A) (A) (A) (A) (A) (A) (A) (A) (A) (A) (A) (A)
                 (A) (A) (A) (A) (A) (A) (A) (A) (A) (A) (A) (A)
                 (A) (A) (A) (A) (A) (A) (A) (A) (A) (A) (A) (A)
                 (A) (A) (A) (A) (A) (A) (A) (A) (A) (A) (A) (A)
                 (A) (A) (A) (A) (A) (A) (A) (A) (A) (A) (A) (A)
                 (A) (A) (A) (A) (A) (A) (A) (A) (A) (A) (A) (A)
                 (A) (A) (A) (A) (A) (A) (A) (A) (A) (A) (A) (A)
                 (A) (A) (A) (A) (A) (A) (A) (A) (A) (A) (A) (A)
                 (A) (A) (A) (A) (A) (A) (A) (A) (A) (A) (A) (A)
                 (A) (A) (A) (A) (A) (A) (A) (A) (A) (A) (A) (A)
                 (A) (A) (A) (A) (A) (A) (A) (A) (A) (A) (A) (A)
                 (A) (A) (A) (A) (A) (A) (A) (A) (A) (A) (A) (A)
                 (A) (A) (A) (A) (A) (A) (A) (A) (A) (A) (A) (A)
                 (A) (A) (A) (A) (A) (A) (A) (A) (A) (A) (A) (A)
                 (A) (A) (A) (A) (A) (A) (A) (A) (A) (A) (A) (A)
                 (A) (A) (A) (A) (A) (A) (A) (A) (A) (A) (A) (A)
                 (A) (A) (A) (A) (A) (A) (A) (A) (A) (A) (A) (A)
                 (A) (A) (A) (A) (A) (A) (A) (A) (A) (A) (A) (A)
                 (A) (A) (A) (A) (A) (A) (A) (A) (A) (A) (A) (A)
                 (A) (A) (A) (A) (A) (A) (A) (A) (A) (A) (A) (A)
                 (A) (A) (A) (A) (A) (A) (A) (A) (A) (A) (A) (A)
                 (A) (A) (A) (A) (A) (A) (A) (A) (A) (A) (A) (A)
                 (A) (A) (A) (A) (A) (A) (A) (A) (A) (A) (A) (A)
                 (A) (A) (A) (A) (A) (A) (A) (A) (A) (A) (A) (A)
                 (A) (A) (A) (A) (A) (A) (A) (A) (A) (A) (A) (A)
                 (A) (A) (A) (A) (A) (A) (A) (A) (A) (A) (A) (A)
                 (A) (A) (A) (A) (A) (A) (A) (A) (A) (A) (A) (A)
                 (A) (A) (A) (A) (A) (A) (A) (A) (A) (A) (A) (A)
                 (A) (A) (A) (A) (A) (A) (A) (A) (A) (A) (A) (A)
                 (A) (A) (A) (A) (A) (A) (A) (A) (A) (A) (A) (A)
                 (A) (A) (A) (A) (A) (A) (A) (A) (A) (A) (A) (A)
                 (A) (A) (A) (A) (A) (A) (A) (A) (A) (A) (A) (A)
                 (A) (A) (A) (A) (A) (A) (A) (A) (A) (A) (A) (A)
                 (A) (A) (A) (A) (A) (A) (A) (A) (A) (A) (A) (A)
                 (A) (A) (A) (A) (A) (A) (A) (A) (A) (A) (A) (A)
                 (A) (A) (A) (A) (A) (A) (A) (A) (A) (A) (A) (A)
                 (A) (A) (A) (A) (A) (A) (A) (A) (A) (A) (A) (A)
                 (A) (A) (A) (A) (A) (A) (A) (A) (A) (A) (A) (A)
                 (A) (A) (A) (A) (A) (A) (A) (A) (A) (A) (A) (A)
                 (A) (A) (A) (A) (A) (A) (A) (A) (A) (A) (A) (A)
                 (A) (A) (A) (A) (A) (A) (A) (A) (A) (A) (A) (A)
                 (A) (A) (A) (A) (A) (A) (A) (A) (A) (A) (A) (A)
                 (A) (A) (A) (A) (A) (A) (A) (A) (A) (A) (A) (A)
                 (A) (A) (A) (A) (A) (A) (A) (A) (A) (A) (A) (A)
                 (A) (A) (A) (A) (A) (A) (A) (A) (A) (A) (A) (A)
                 (A) (A) (A) (A) (A) (A) (A) (A) (A) (A) (A) (A)
                 (A) (A) (A) (A) (A) (A) (A) (A) (A) (A) (A) (A)
                 (A) (A) (A) (A) (A) (A) (A) (A) (A) (A) (A) (A)
                 (A) (A) (A) (A) (A) (A) (A) (A) (A) (A) (A) (A)
                 (A) (A) (A) (A) (A) (A) (A) (A) (A) (A) (A) (A)
                 (A) (A) (A) (A) (A) (A) (A) (A) (A) (A) (A) (A)
                 (A) (A) (A) (A) (A) (A) (A) (A) (A) (A) (A) (A)
                 (A) (A) (A) (A) (A) (A) (A) (A) (A) (A) (A) (A)
                 (A) (A) (A) (A) (A) (A) (A) (A) (A) (A) (A) (A)
                 (A) (A) (A) (A) (A) (A) (A) (A) (A) (A) (A) (A)
                 (A) (A) (A) (A) (A) (A) (A) (A) (A) (A) (A) (A)
                 (A) (A) (A) (A) (A) (A) (A) (A) (A) (A) (A) (A)
                 (A) (A) (A) (A) (A) (A) (A) (A) (A) (A) (A) (A)
                 (A) (A) (A) (A) (A) (A) (A) (A) (A) (A) (A) (A)
                 (A) (A) (A) (A) (A) (A) (A) (A) (A) (A) (A) (A)
                 (A) (A) (A) (A) (A) (A) (A) (A) (A) (A) (A) (A)
                 (A) (A) (A) (A) (A) (A) (A) (A) (A) (A) (A) (A)
                 (A) (A) (A) (A) (A) (A) (A) (A) (A) (A) (A) (A)
                 (A) (A) (A) (A) (A) (A) (A) (A) (A) (A) (A) (A)
                 (A) (A) (A) (A) (A) (A) (A) (A) (A) (A) (A) (A)
                 (A) (A) (A) (A) (A) (A) (A) (A) (A) (A) (A) (A)
                 (A) (A) (A) (A) (A) (A) (A) (A) (A) (A) (A) (A)
                 (A) (A) (A) (A) (A) (A) (A) (A) (A) (A) (A) (A)
                 (A) (A) (A) (A) (A) (A) (A) (A) (A) (A) (A) (A)
                 (A) (A) (A) (A) (A) (A) (A) (A) (A) (A) (A) (A)
                 (A) (A) (A) (A) (A) (A) (A) (A) (A) (A) (A) (A)
                 (A) (A) (A) (A) (A) (A) (A) (A) (A) (A) (A) (A)
                 (A) (A) (A) (A) (A) (A) (A) (A) (A) (A) (A) (A)
                 (A) (A) (A) (A) (A) (A) (A) (A) (A) (A) (A) (A)
                 (A) (A) (A) (A) (A) (A) (A) (A) (A) (A) (A) (A)
                 (A) (A) (A) (A) (A) (A) (A) (A) (A) (A) (A) (A)
                 (A) (A) (A) (A) (A) (A) (A) (A) (A) (A) (A) (A)
    20 initial guesses have been made.
 Convergence on wavefunction:    0.001000000000000
 Davidson Disk Diagonalization:  ConvIn= 1.00D-03 SkipCon=T Conv= 1.00D-03.
 Max sub-space:  2000 roots to seek:    20 dimension of matrix:       549360
 Iteration     1 Dimension    20 NMult     0 NNew     20
 CISAX will form    20 AO SS matrices at one time.
 NMat=    20 NSing=    20 JSym2X= 0.
 FoFJK:  IHMeth= 1 ICntrl=       0 DoSepK=T KAlg= 0 I1Cent=           0 FoldK=F
 IRaf=         1 NMat=      40 IRICut=       1 DoRegI=T DoRafI=F ISym2E= 0 IDoP0=3 IntGTp=3.
 FoFCou: FMM=T IPFlag=           0 FMFlag=      100000 FMFlg1=        2001
         NFxFlg=           0 DoJE=F BraDBF=F KetDBF=F FulRan=T
         wScrn=  0.000000 ICntrl=       500 IOpCl=  0 I1Cent=           0 NGrid=           0
         NMat0=   20 NMatS0=     20 NMatT0=    0 NMatD0=   20 NMtDS0=    0 NMtDT0=    0
 Symmetry not used in FoFCou.
 FMM levels:  10  Number of levels for PrismC:   9
 New state      2 was old state      7
 New state      3 was old state      6
 New state      5 was old state      2
 Excitation Energies [eV] at current iteration:
 Root      1 :     2.475458614774166
 Root      2 :     2.607598387797790
 Root      3 :     2.622178845514366
 Root      4 :     2.628933808492053
 Root      5 :     2.639654241992541
 Root      6 :     2.733966334781820
 Root      7 :     3.260057401696901
 Root      8 :     3.427010390725712
 Root      9 :     3.621001681278951
 Root     10 :     3.665796057357515
 Root     11 :     3.740987344209183
 Root     12 :     3.760717526860471
 Root     13 :     4.266852189606614
 Root     14 :     4.340918434760782
 Root     15 :     4.379838887123354
 Root     16 :     4.565004825315842
 Root     17 :     4.692996861821833
 Root     18 :     4.737558228822316
 Root     19 :     4.850961738432183
 Root     20 :     4.854110062062851
 Iteration     2 Dimension    30 NMult    20 NNew     10
 CISAX will form    10 AO SS matrices at one time.
 NMat=    10 NSing=    10 JSym2X= 0.
 New state      1 was old state      5
 Root      1 not converged, maximum delta is    0.199878733149860
 Root      2 not converged, maximum delta is    0.260671148131602
 Root      3 not converged, maximum delta is    0.221850613676888
 New state      4 was old state      1
 Root      4 not converged, maximum delta is    0.004861589907596
 New state      5 was old state      4
 Root      5 not converged, maximum delta is    0.003633363682745
 Excitation Energies [eV] at current iteration:
 Root      1 :     1.780499604291627   Change is   -0.859154637700913
 Root      2 :     2.231167749437960   Change is   -0.376430638359829
 Root      3 :     2.238823570796265   Change is   -0.383355274718101
 Root      4 :     2.474881881861321   Change is   -0.000576732912845
 Root      5 :     2.628360721220512   Change is   -0.000573087271541
 Iteration     3 Dimension    40 NMult    30 NNew     10
 CISAX will form    10 AO SS matrices at one time.
 NMat=    10 NSing=    10 JSym2X= 0.
 Root      1 not converged, maximum delta is    0.053800150738963
 New state      2 was old state      3
 Root      2 not converged, maximum delta is    0.171079241213815
 New state      3 was old state      2
 Root      3 not converged, maximum delta is    0.056509117630057
 No map to state      4
 New state      5 was old state      4
 Root      5 has converged.
 Excitation Energies [eV] at current iteration:
 Root      1 :     1.675190840504152   Change is   -0.105308763787475
 Root      2 :     2.160444420630550   Change is   -0.078379150165715
 Root      3 :     2.190860334615253   Change is   -0.040307414822707
 Root      4 :     2.336893943395332
 Root      5 :     2.474876890804058   Change is   -0.000004991057263
 Iteration     4 Dimension    48 NMult    40 NNew      8
 CISAX will form     8 AO SS matrices at one time.
 NMat=     8 NSing=     8 JSym2X= 0.
 Root      1 not converged, maximum delta is    0.010405481699281
 New state      2 was old state      4
 Root      2 not converged, maximum delta is    0.292838444197146
 Root      3 not converged, maximum delta is    0.058146716284624
 New state      4 was old state      2
 Root      4 not converged, maximum delta is    0.243944519099613
 Root      5 has converged.
 Excitation Energies [eV] at current iteration:
 Root      1 :     1.658595801231414   Change is   -0.016595039272738
 Root      2 :     1.746156012065564   Change is   -0.590737931329768
 Root      3 :     2.183589059515186   Change is   -0.007271275100067
 Root      4 :     2.196709167275376   Change is    0.036264746644825
 Root      5 :     2.474876890196722   Change is   -0.000000000607336
 Iteration     5 Dimension    56 NMult    48 NNew      8
 CISAX will form     8 AO SS matrices at one time.
 NMat=     8 NSing=     8 JSym2X= 0.
 Root      1 not converged, maximum delta is    0.001566853404155
 Root      2 not converged, maximum delta is    0.027740861016155
 Root      3 not converged, maximum delta is    0.007919251177358
 Root      4 not converged, maximum delta is    0.007666695910899
 Root      5 has converged.
 Excitation Energies [eV] at current iteration:
 Root      1 :     1.656876592439839   Change is   -0.001719208791575
 Root      2 :     1.702693129566860   Change is   -0.043462882498704
 Root      3 :     2.182739340206115   Change is   -0.000849719309071
 Root      4 :     2.194852531948878   Change is   -0.001856635326497
 Root      5 :     2.474876890042729   Change is   -0.000000000153993
 Iteration     6 Dimension    64 NMult    56 NNew      8
 CISAX will form     8 AO SS matrices at one time.
 NMat=     8 NSing=     8 JSym2X= 0.
 Root      1 not converged, maximum delta is    0.001003143176029
 Root      2 not converged, maximum delta is    0.006852768416287
 Root      3 has converged.
 Root      4 not converged, maximum delta is    0.001327580300735
 Root      5 has converged.
 Excitation Energies [eV] at current iteration:
 Root      1 :     1.656632650959071   Change is   -0.000243941480768
 Root      2 :     1.697515087060934   Change is   -0.005178042505926
 Root      3 :     2.182612413776521   Change is   -0.000126926429594
 Root      4 :     2.194647661610268   Change is   -0.000204870338610
 Root      5 :     2.474876889934774   Change is   -0.000000000107955
 Iteration     7 Dimension    70 NMult    64 NNew      6
 CISAX will form     6 AO SS matrices at one time.
 NMat=     6 NSing=     6 JSym2X= 0.
 Root      1 has converged.
 Root      2 not converged, maximum delta is    0.001100670253449
 Root      3 has converged.
 Root      4 has converged.
 Root      5 has converged.
 Excitation Energies [eV] at current iteration:
[...]
 Alpha virt. eigenvalues --    1.83657   1.83693   1.83956   1.84007   1.84329
 Alpha virt. eigenvalues --    1.84393   1.84631   1.84741   1.84916   1.85040
 Alpha virt. eigenvalues --    1.85210   1.85229   1.85414   1.85433   1.85605
 Alpha virt. eigenvalues --    1.85804   1.86022   1.86296   1.86488   1.86494
 Alpha virt. eigenvalues --    1.86725   1.86764   1.86922   1.86988   1.87157
 Alpha virt. eigenvalues --    1.87372   1.87604   1.87622   1.87802   1.87895
 Alpha virt. eigenvalues --    1.87972   1.88126   1.88292   1.88462   1.88689
 Alpha virt. eigenvalues --    1.88743   1.89067   1.89077   1.89195   1.89558
 Alpha virt. eigenvalues --    1.89678   1.89771   1.89983   1.90054   1.90315
 Alpha virt. eigenvalues --    1.90690   1.91024   1.91281   1.91385   1.91534
 Alpha virt. eigenvalues --    1.91737   1.92091   1.92317   1.92523   1.92769
 Alpha virt. eigenvalues --    1.92923   1.93273   1.93282   1.93611   1.94219
 Alpha virt. eigenvalues --    1.94411   1.94628   1.94927   1.95425   1.95654
 Alpha virt. eigenvalues --    1.95695   1.95920   1.95943   1.96091   1.96165
 Alpha virt. eigenvalues --    1.96312   1.96535   1.96604   1.96825   1.97048
 Alpha virt. eigenvalues --    1.97390   1.97654   1.97775   1.97934   1.98097
 Alpha virt. eigenvalues --    1.98305   1.98484   1.98615   1.99069   1.99194
 Alpha virt. eigenvalues --    1.99739   2.00055   2.00599   2.00844   2.00933
 Alpha virt. eigenvalues --    2.01227   2.01386   2.01611   2.01614   2.01654
 Alpha virt. eigenvalues --    2.01730   2.01954   2.02712   2.02830   2.03173
 Alpha virt. eigenvalues --    2.03247   2.03338   2.03410   2.03505   2.03654
 Alpha virt. eigenvalues --    2.03970   2.04146   2.04891   2.05087   2.05450
 Alpha virt. eigenvalues --    2.05736   2.06017   2.06404   2.06839   2.07132
 Alpha virt. eigenvalues --    2.07183   2.07481   2.08527   2.08640   2.08906
 Alpha virt. eigenvalues --    2.09125   2.09510   2.09733   2.10728   2.11121
 Alpha virt. eigenvalues --    2.11135   2.11439   2.11529   2.11651   2.11656
 Alpha virt. eigenvalues --    2.11986   2.12386   2.12591   2.12737   2.12769
 Alpha virt. eigenvalues --    2.12913   2.13004   2.13655   2.13767   2.14092
 Alpha virt. eigenvalues --    2.14366   2.15269   2.15517   2.15861   2.16223
 Alpha virt. eigenvalues --    2.16463   2.16703   2.16710   2.17314   2.17354
 Alpha virt. eigenvalues --    2.17645   2.17755   2.18022   2.18075   2.18114
 Alpha virt. eigenvalues --    2.18259   2.18788   2.18812   2.19379   2.19565
 Alpha virt. eigenvalues --    2.19942   2.19952   2.20158   2.20372   2.20553
 Alpha virt. eigenvalues --    2.21099   2.21265   2.21608   2.21690   2.21892
 Alpha virt. eigenvalues --    2.22006   2.22610   2.22821   2.23261   2.23464
 Alpha virt. eigenvalues --    2.24334   2.24524   2.24907   2.25097   2.26228
 Alpha virt. eigenvalues --    2.26575   2.26717   2.27036   2.27128   2.27336
 Alpha virt. eigenvalues --    2.28060   2.28451   2.29199   2.29556   2.29658
 Alpha virt. eigenvalues --    2.30016   2.30366   2.30760   2.30954   2.31012
 Alpha virt. eigenvalues --    2.31121   2.31316   2.32060   2.32347   2.33059
 Alpha virt. eigenvalues --    2.33359   2.33392   2.33605   2.34073   2.34253
 Alpha virt. eigenvalues --    2.35305   2.35443   2.35715   2.36037   2.36300
 Alpha virt. eigenvalues --    2.36452   2.36544   2.36555   2.37608   2.37786
 Alpha virt. eigenvalues --    2.38194   2.38476   2.38756   2.38895   2.39538
 Alpha virt. eigenvalues --    2.39788   2.40116   2.40367   2.40398   2.40949
 Alpha virt. eigenvalues --    2.41166   2.41321   2.41621   2.41793   2.41973
 Alpha virt. eigenvalues --    2.42266   2.42883   2.42908   2.43192   2.43479
 Alpha virt. eigenvalues --    2.44076   2.44100   2.44657   2.44830   2.44917
 Alpha virt. eigenvalues --    2.45117   2.45491   2.45685   2.46238   2.46393
 Alpha virt. eigenvalues --    2.46415   2.46612   2.46730   2.46928   2.47203
 Alpha virt. eigenvalues --    2.47493   2.47649   2.47993   2.49248   2.49475
 Alpha virt. eigenvalues --    2.49981   2.50005   2.50482   2.50540   2.51036
 Alpha virt. eigenvalues --    2.51400   2.51705   2.51800   2.52342   2.52498
 Alpha virt. eigenvalues --    2.52728   2.53284   2.53851   2.54064   2.54087
 Alpha virt. eigenvalues --    2.54365   2.54732   2.54930   2.55457   2.55783
 Alpha virt. eigenvalues --    2.57793   2.58181   2.58578   2.59011   2.60131
 Alpha virt. eigenvalues --    2.60436   2.60515   2.61031   2.61639   2.61921
 Alpha virt. eigenvalues --    2.62444   2.62529   2.62887   2.63240   2.63851
 Alpha virt. eigenvalues --    2.64189   2.64331   2.64507   2.65008   2.65203
 Alpha virt. eigenvalues --    2.65687   2.65962   2.66712   2.66832   2.66907
 Alpha virt. eigenvalues --    2.67166   2.67842   2.68086   2.68780   2.68909
 Alpha virt. eigenvalues --    2.68949   2.69152   2.69321   2.69695   2.69924
 Alpha virt. eigenvalues --    2.70235   2.70911   2.71176   2.71991   2.71995
 Alpha virt. eigenvalues --    2.72588   2.72604   2.72767   2.72852   2.73215
 Alpha virt. eigenvalues --    2.73367   2.73475   2.73594   2.74450   2.74618
 Alpha virt. eigenvalues --    2.74907   2.75164   2.76529   2.76619   2.77172
 Alpha virt. eigenvalues --    2.77190   2.77382   2.77697   2.78125   2.78374
 Alpha virt. eigenvalues --    2.78659   2.78785   2.79063   2.79259   2.80276
 Alpha virt. eigenvalues --    2.80331   2.80513   2.80799   2.81068   2.81265
 Alpha virt. eigenvalues --    2.81862   2.82113   2.82280   2.82439   2.83685
 Alpha virt. eigenvalues --    2.83705   2.83922   2.84039   2.84488   2.84620
 Alpha virt. eigenvalues --    2.84826   2.84979   2.85598   2.85769   2.86753
 Alpha virt. eigenvalues --    2.86938   2.87282   2.87545   2.88084   2.88315
 Alpha virt. eigenvalues --    2.88449   2.88719   2.88873   2.88971   2.90408
 Alpha virt. eigenvalues --    2.90747   2.91132   2.91159   2.93072   2.93425
 Alpha virt. eigenvalues --    2.93859   2.94127   2.94495   2.94642   2.95257
 Alpha virt. eigenvalues --    2.95564   2.95960   2.96139   2.96374   2.96451
 Alpha virt. eigenvalues --    2.96985   2.97105   2.97723   2.98088   2.98125
 Alpha virt. eigenvalues --    2.98314   2.98465   2.98552   2.98674   2.98822
 Alpha virt. eigenvalues --    2.98900   2.99016   2.99514   2.99852   2.99957
 Alpha virt. eigenvalues --    3.00133   3.00145   3.00383   3.00401   3.01095
 Alpha virt. eigenvalues --    3.01927   3.01957   3.01986   3.02212   3.02668
 Alpha virt. eigenvalues --    3.02891   3.02910   3.03251   3.03394   3.03823
 Alpha virt. eigenvalues --    3.04108   3.04160   3.04406   3.04480   3.04507
 Alpha virt. eigenvalues --    3.04837   3.05238   3.05416   3.06034   3.06246
 Alpha virt. eigenvalues --    3.06699   3.07030   3.07978   3.08071   3.09294
 Alpha virt. eigenvalues --    3.09421   3.09594   3.10351   3.10509   3.10837
 Alpha virt. eigenvalues --    3.11280   3.11546   3.11846   3.11954   3.12124
 Alpha virt. eigenvalues --    3.12403   3.13189   3.13580   3.13742   3.13764
 Alpha virt. eigenvalues --    3.14033   3.14606   3.15866   3.16039   3.17211
 Alpha virt. eigenvalues --    3.17631   3.17943   3.18018   3.19066   3.19114
 Alpha virt. eigenvalues --    3.22251   3.22721   3.23887   3.24556   3.24633
 Alpha virt. eigenvalues --    3.25324   3.26444   3.26760   3.27500   3.27556
 Alpha virt. eigenvalues --    3.29048   3.29351   3.31464   3.31482   3.33282
 Alpha virt. eigenvalues --    3.33353   3.40387   3.40579   3.42753   3.42893
 Alpha virt. eigenvalues --    3.48613   3.48820   3.49953   3.50377   3.50935
 Alpha virt. eigenvalues --    3.51408   3.56491   3.57101   3.59040   3.59431
 Alpha virt. eigenvalues --    3.62626   3.62784   3.66130   3.66179   3.67134
 Alpha virt. eigenvalues --    3.67672   3.73227   3.74159   3.76017   3.76821
          Condensed to atoms (all electrons):
 Mulliken charges:
               1
     1  Mg   0.838324
     2  C   -0.003260
     3  C   -0.094912
     4  C   -0.045591
     5  C   -0.063768
     6  N   -0.256692
     7  C   -0.052759
     8  C   -0.013811
     9  C   -0.086871
    10  C    0.045949
    11  C    0.104789
    12  C    0.053788
    13  C   -0.071415
    14  H    0.034946
    15  N   -0.433114
    16  C    0.168100
    17  C   -0.177702
    18  C   -0.004038
    19  C    0.148615
    20  C    0.110285
    21  C    0.012376
    22  O   -0.249110
    23  C    0.062630
    24  N   -0.341117
    25  C    0.041147
    26  C   -0.028246
    27  C   -0.024036
    28  C    0.074916
    29  C    0.076077
    30  C    0.035058
    31  C   -0.004481
    32  N   -0.310588
    33  C    0.080576
    34  C   -0.169228
    35  C    0.008747
    36  C    0.083020
    37  C    0.127158
    38  C    0.046568
    39  O   -0.187320
    40  C   -0.005504
    41  C    0.213284
    42  O   -0.257395
    43  O   -0.304784
    44  C    0.157343
    45  H   -0.017757
    46  H   -0.016562
    47  H   -0.041133
    48  H    0.001323
    49  H   -0.004661
    50  H    0.025733
    51  H    0.016691
    52  H    0.016650
    53  H    0.009820
    54  H    0.043645
    55  H    0.018735
    56  H    0.017326
    57  H    0.005534
    58  H    0.027096
    59  H    0.038334
    60  H    0.037337
    61  H    0.036079
    62  H    0.030476
    63  H    0.016769
    64  H    0.009698
    65  H    0.023439
    66  H    0.012565
    67  H    0.004904
    68  H    0.006525
    69  H    0.004865
    70  H    0.008996
    71  H    0.017718
    72  H    0.029075
    73  H    0.048442
    74  H    0.009218
    75  H    0.046233
    76  H    0.035332
    77  H    0.043729
    78  H    0.045634
    79  H    0.054229
    80  Mg   0.837938
    81  C   -0.016325
    82  C   -0.087975
    83  C   -0.045543
    84  C   -0.065020
    85  N   -0.254568
    86  C   -0.048816
    87  C   -0.015257
    88  C   -0.090826
    89  C    0.046048
    90  C    0.113873
    91  C    0.062623
    92  C   -0.077371
    93  H    0.034184
    94  N   -0.423408
    95  C    0.162804
    96  C   -0.175221
    97  C   -0.008050
    98  C    0.151925
    99  C    0.099725
   100  C    0.015328
   101  O   -0.253423
   102  C    0.061362
   103  N   -0.349982
   104  C    0.037398
   105  C   -0.019727
   106  C   -0.034787
   107  C    0.089158
   108  C    0.073755
   109  C    0.034794
   110  C   -0.007584
   111  N   -0.324379
   112  C    0.078951
   113  C   -0.162787
   114  C    0.003290
   115  C    0.096082
   116  C    0.131180
   117  C    0.043613
   118  O   -0.186821
   119  C    0.000213
   120  C    0.210869
   121  O   -0.251743
   122  O   -0.304786
   123  C    0.152295
   124  H   -0.020943
   125  H   -0.015884
   126  H   -0.040698
   127  H    0.000943
   128  H   -0.005689
   129  H    0.027777
   130  H    0.013740
   131  H    0.014019
   132  H    0.013424
   133  H    0.037627
   134  H    0.020775
   135  H    0.018764
   136  H    0.007857
   137  H    0.025016
   138  H    0.039203
   139  H    0.037707
   140  H    0.036007
   141  H    0.033594
   142  H    0.014044
   143  H    0.012109
   144  H    0.024784
   145  H    0.012273
   146  H    0.005077
   147  H    0.005879
   148  H    0.003487
   149  H    0.010776
   150  H    0.017636
   151  H    0.030308
   152  H    0.045866
   153  H    0.007826
   154  H    0.048652
   155  H    0.039194
   156  H    0.043935
   157  H    0.048801
   158  H    0.053116
 Sum of Mulliken charges =  -0.00000
 Mulliken charges with hydrogens summed into heavy atoms:
               1
     1  Mg   0.838324
     2  C   -0.003260
     3  C   -0.112669
     4  C   -0.062153
     5  C   -0.104901
     6  N   -0.256692
     7  C   -0.052759
     8  C   -0.012488
     9  C   -0.091533
    10  C    0.045949
    11  C    0.163864
    12  C    0.107254
    13  C   -0.000408
    15  N   -0.433114
    16  C    0.168100
    17  C   -0.177702
    18  C   -0.004038
    19  C    0.148615
    20  C    0.181249
    21  C    0.012376
    22  O   -0.249110
    23  C    0.166522
    24  N   -0.341117
    25  C    0.041147
    26  C   -0.011477
    27  C   -0.014338
    28  C    0.074916
    29  C    0.116985
    30  C    0.046449
    31  C    0.051308
    32  N   -0.310588
    33  C    0.080576
    34  C   -0.169228
    35  C    0.008747
    36  C    0.083020
    37  C    0.231051
    38  C    0.046568
    39  O   -0.187320
    40  C    0.029829
    41  C    0.213284
    42  O   -0.257395
    43  O   -0.304784
    44  C    0.300935
    80  Mg   0.837938
    81  C   -0.016325
    82  C   -0.108918
    83  C   -0.061427
    84  C   -0.105718
    85  N   -0.254568
    86  C   -0.048816
    87  C   -0.014314
    88  C   -0.096515
    89  C    0.046048
    90  C    0.169409
    91  C    0.113673
    92  C   -0.003648
    94  N   -0.423408
    95  C    0.162804
    96  C   -0.175221
    97  C   -0.008050
    98  C    0.151925
    99  C    0.171801
   100  C    0.015328
   101  O   -0.253423
   102  C    0.168670
   103  N   -0.349982
   104  C    0.037398
   105  C   -0.005683
   106  C   -0.022678
   107  C    0.089158
   108  C    0.115889
   109  C    0.044160
   110  C    0.051136
   111  N   -0.324379
   112  C    0.078951
   113  C   -0.162787
   114  C    0.003290
   115  C    0.096082
   116  C    0.233523
   117  C    0.043613
   118  O   -0.186821
   119  C    0.039407
   120  C    0.210869
   121  O   -0.251743
   122  O   -0.304786
   123  C    0.298146
 Electronic spatial extent (au):  <R**2>=         113677.5413
 Charge=             -0.0000 electrons
 Dipole moment (field-independent basis, Debye):
    X=             -4.4851    Y=             -2.5218    Z=             -7.0563  Tot=              8.7330
 Quadrupole moment (field-independent basis, Debye-Ang):
   XX=           -518.4203   YY=           -553.3007   ZZ=           -447.9702
   XY=             -6.1393   XZ=              9.4474   YZ=            -46.5596
 Traceless Quadrupole moment (field-independent basis, Debye-Ang):
   XX=            -11.8566   YY=            -46.7370   ZZ=             58.5936
   XY=             -6.1393   XZ=              9.4474   YZ=            -46.5596
 Octapole moment (field-independent basis, Debye-Ang**2):
  XXX=           -360.0289  YYY=            412.6266  ZZZ=            -69.2248  XYY=            -43.7922
  XXY=            -74.5543  XXZ=           -151.3399  XZZ=              2.2237  YZZ=           -218.0116
  YYZ=           -216.9695  XYZ=            -11.3181
 Hexadecapole moment (field-independent basis, Debye-Ang**3):
 XXXX=         -89423.5775 YYYY=         -42567.2109 ZZZZ=         -23668.0306 XXXY=           -603.8048
 XXXZ=            702.6649 YYYX=            622.7773 YYYZ=          -1703.1595 ZZZX=             59.6246
 ZZZY=            274.6184 XXYY=         -23346.8259 XXZZ=         -16965.6172 YYZZ=         -10810.2591
 XXYZ=          -1231.6945 YYXZ=            -73.5193 ZZXY=             37.0138
 N-N= 1.498645327012D+04 E-N=-3.945396833090D+04  KE= 4.028801943756D+03
 Leave Link  601 at Fri Sep 10 22:58:09 2021, MaxMem= 23488102400 cpu:              13.7 elap:               0.7
 (Enter /sw/apps/gaussian-16.0/g16/l9999.exe)
 1\1\GINC-BP1-COMPUTE00082\SP\RCAM-B3LYP TD-FC\def2SVP\C68H72Mg2N8O8\OF
 15641\10-Sep-2021\0\\#p cam-b3lyp/Def2SVP td=(nstates=5)\\TDDFT excite
 d states in gaussian\\0,1\Mg,0,0.,0.,0.\C,0,-0.217,-2.218,2.801\C,0,-1
 .255,2.442,2.026\C,0,-0.245,1.85,-2.564\C,0,0.146,-2.824,-2.037\N,0,-0
 .617,-0.009,2.126\C,0,-0.594,-0.908,3.105\C,0,-0.936,-0.309,4.502\C,0,
 -1.773,0.964,4.032\C,0,-1.155,1.168,2.66\C,0,-3.263,0.685,3.863\C,0,0.
 345,0.11,5.299\C,0,0.124,0.397,6.787\H,0,1.168,0.033,7.733\N,0,-0.185,
 1.961,-0.152\C,0,-0.703,2.8,0.777\C,0,-0.62,4.156,0.193\C,0,-0.187,4.0
 15,-1.225\C,0,-0.214,2.583,-1.38\C,0,-0.887,5.406,0.974\C,0,0.181,5.01
 3,-2.277\O,0,0.303,4.69,-3.508\C,0,0.31,6.414,-1.837\N,0,-0.265,-0.413
 ,-2.029\C,0,-0.279,0.569,-2.937\C,0,-0.196,0.024,-4.332\C,0,0.124,-1.5
 33,-4.18\C,0,0.086,-1.632,-2.635\C,0,-1.451,0.205,-5.197\C,0,1.373,-2.
 07,-4.923\C,0,2.626,-1.49,-4.306\N,0,0.15,-2.144,0.303\C,0,0.173,-3.13
 6,-0.688\C,0,0.173,-4.438,0.004\C,0,0.133,-4.111,1.358\C,0,0.083,-2.69
 5,1.502\C,0,0.149,-5.715,-0.623\C,0,0.096,-4.629,2.716\O,0,0.208,-5.74
 7,3.221\C,0,-0.255,-3.428,3.701\C,0,0.717,-3.482,4.848\O,0,1.931,-3.25
 5,4.669\O,0,0.038,-3.556,6.003\C,0,0.943,-3.583,7.183\H,0,-1.859,3.22,
 2.497\H,0,-0.218,2.453,-3.474\H,0,0.276,-3.747,-2.605\H,0,-1.554,-0.94
 9,5.132\H,0,-1.585,1.831,4.665\H,0,-3.484,-0.377,3.969\H,0,-3.511,1.02
 7,2.858\H,0,-3.852,1.301,4.543\H,0,0.669,1.096,4.966\H,0,1.13,-0.639,5
 .189\H,0,-0.844,0.026,7.125\H,0,0.062,1.477,6.921\H,0,-1.344,5.186,1.9
 38\H,0,-1.651,5.963,0.432\H,0,0.007,6.02,1.084\H,0,-0.635,6.744,-1.405
 \H,0,0.665,6.97,-2.704\H,0,1.048,6.466,-1.036\H,0,0.608,0.501,-4.891\H
 ,0,-0.692,-2.156,-4.547\H,0,-1.267,0.74,-6.129\H,0,-2.204,0.714,-4.596
 \H,0,-1.967,-0.72,-5.453\H,0,1.356,-1.759,-5.967\H,0,1.452,-3.157,-4.9
 02\H,0,2.714,-0.522,-4.798\H,0,3.487,-2.121,-4.529\H,0,2.495,-1.303,-3
 .24\H,0,0.867,-6.333,-0.084\H,0,0.404,-5.642,-1.68\H,0,-0.891,-5.999,-
 0.463\H,0,-1.283,-3.581,4.028\H,0,0.698,-4.478,7.755\H,0,0.833,-2.619,
 7.68\H,0,2.,-3.754,6.976\Mg,0,10.51619,0.95118,0.80617\C,0,9.97738,-1.
 30534,3.54421\C,0,8.98042,3.35325,2.67863\C,0,10.57011,2.83498,-1.7464
 5\C,0,10.95217,-1.84349,-1.22987\N,0,9.63592,0.90809,2.83484\C,0,9.544
 28,0.01136,3.80532\C,0,9.02949,0.57618,5.15644\C,0,8.23194,1.85213,4.5
 9543\C,0,9.01487,2.08145,3.30427\C,0,6.78852,1.54709,4.23098\C,0,10.19
 97,1.00403,6.11015\C,0,9.7835,1.27382,7.55782\H,0,10.7111,0.91512,8.62
 71\N,0,10.32415,2.921,0.65947\C,0,9.68896,3.74305,1.52088\C,0,9.81306,
 5.09446,0.95304\C,0,10.43041,4.9814,-0.39634\C,0,10.44677,3.54148,-0.5
 5893\C,0,9.43945,6.3339,1.71306\C,0,10.91294,6.00097,-1.38317\O,0,11.1
 9544,5.68602,-2.59306\C,0,10.95581,7.39489,-0.91772\N,0,10.51981,0.559
 28,-1.23558\C,0,10.59984,1.55891,-2.13126\C,0,10.86441,1.02737,-3.5197
 3\C,0,11.18728,-0.52744,-3.33024\C,0,10.95587,-0.65028,-1.80815\C,0,9.
 72332,1.19129,-4.52343\C,0,12.52892,-1.04437,-3.91801\C,0,13.69014,-0.
 4502,-3.15386\N,0,10.66171,-1.18363,1.10526\C,0,10.81784,-2.17538,0.11
 221\C,0,10.74922,-3.48573,0.79097\C,0,10.5332,-3.16334,2.13926\C,0,10.
 45138,-1.75233,2.28712\C,0,10.83272,-4.75691,0.15596\C,0,10.34518,-3.6
 9619,3.46946\O,0,10.40201,-4.81776,3.97203\C,0,9.8507,-2.52148,4.41917
 \C,0,10.67084,-2.56652,5.67927\O,0,11.89187,-2.3327,5.64738\O,0,9.8465
 2,-2.66271,6.73833\C,0,10.61286,-2.69956,8.01237\H,0,8.31558,4.11469,3
 .08737\H,0,10.70364,3.44227,-2.64469\H,0,11.1769,-2.75962,-1.78021\H,0
 ,8.35358,-0.07783,5.6942\H,0,8.33462,2.70578,5.26034\H,0,6.57035,0.491
 64,4.29852\H,0,6.66195,1.89528,3.21422\H,0,6.11008,2.14902,4.84232\H,0
 ,10.54639,2.00552,5.82457\H,0,10.99113,0.28023,6.0906\H,0,8.77902,0.89
 127,7.77605\H,0,9.69525,2.35391,7.69797\H,0,8.86055,6.0944,2.61357\H,0
 ,8.74194,6.89695,1.08352\H,0,10.30127,6.96575,1.93823\H,0,9.96119,7.70
 106,-0.60236\H,0,11.41087,7.96123,-1.73262\H,0,11.59738,7.44808,-0.031
 05\H,0,11.72504,1.51358,-3.96247\H,0,10.43152,-1.16259,-3.81527\H,0,10
 .01815,1.74922,-5.4322\H,0,8.89886,1.68405,-4.02545\H,0,9.26748,0.2618
 ,-4.86029\H,0,12.63943,-0.7168,-4.95466\H,0,12.61538,-2.12579,-3.91103
 \H,0,13.81937,0.5294,-3.62373\H,0,14.58044,-1.06473,-3.2711\H,0,13.424
 49,-0.27978,-2.10408\H,0,11.4799,-5.3695,0.76947\H,0,11.2124,-4.66969,
 -0.85992\H,0,9.78103,-5.05487,0.17694\H,0,8.79,-2.68309,4.61508\H,0,10
 .30729,-3.60668,8.54289\H,0,10.41112,-1.73261,8.51043\H,0,11.68512,-2.
 84309,7.9483\\Version=ES64L-G16RevA.03\State=1-A\HF=-4069.8114183\RMSD
 =5.174e-09\PG=C01 [X(C68H72Mg2N8O8)]\\@


 ANYONE WHO IS NOT SHOCKED BY QUANTUM THEORY HAS
 NOT UNDERSTOOD IT. -- NIELS BOHR(1885-1962)
 Job cpu time:       0 days 13 hours 59 minutes 24.9 seconds.
 Elapsed time:       0 days  0 hours 35 minutes 36.7 seconds.
 File lengths (MBytes):  RWF=  13225 Int=      0 D2E=      0 Chk=    574 Scr=      1
 Normal termination of Gaussian 16 at Fri Sep 10 22:58:10 2021.
