 Entering Gaussian System, Link 0=g16
 Initial command:
 /sw/apps/gaussian-16.0/g16/l1.exe "/tmp/Gau-269687.inp" -scrdir="/tmp/"
 Entering Link 1 = /sw/apps/gaussian-16.0/g16/l1.exe PID=    269688.
  
 Copyright (c) 1988,1990,1992,1993,1995,1998,2003,2009,2016,
            Gaussian, Inc.  All Rights Reserved.
  
 This is part of the Gaussian(R) 16 program.  It is based on
 the Gaussian(R) 09 system (copyright 2009, Gaussian, Inc.),
 the Gaussian(R) 03 system (copyright 2003, Gaussian, Inc.),
 the Gaussian(R) 98 system (copyright 1998, Gaussian, Inc.),
 the Gaussian(R) 94 system (copyright 1995, Gaussian, Inc.),
 the Gaussian 92(TM) system (copyright 1992, Gaussian, Inc.),
 the Gaussian 90(TM) system (copyright 1990, Gaussian, Inc.),
 the Gaussian 88(TM) system (copyright 1988, Gaussian, Inc.),
 the Gaussian 86(TM) system (copyright 1986, Carnegie Mellon
 University), and the Gaussian 82(TM) system (copyright 1983,
 Carnegie Mellon University). Gaussian is a federally registered
 trademark of Gaussian, Inc.
  
 This software contains proprietary and confidential information,
 including trade secrets, belonging to Gaussian, Inc.
  
 This software is provided under written license and may be
 used, copied, transmitted, or stored only in accord with that
 written license.
  
 The following legend is applicable only to US Government
 contracts under FAR:
  
                    RESTRICTED RIGHTS LEGEND
  
 Use, reproduction and disclosure by the US Government is
 subject to restrictions as set forth in subparagraphs (a)
 and (c) of the Commercial Computer Software - Restricted
 Rights clause in FAR 52.227-19.
  
 Gaussian, Inc.
 340 Quinnipiac St., Bldg. 40, Wallingford CT 06492
  
  
 ---------------------------------------------------------------
 Warning -- This program may not be used in any manner that
 competes with the business of Gaussian, Inc. or will provide
 assistance to any competitor of Gaussian, Inc.  The licensee
 of this program is prohibited from giving any competitor of
 Gaussian, Inc. access to this program.  By using this program,
 the user acknowledges that Gaussian, Inc. is engaged in the
 business of creating and licensing software in the field of
 computational chemistry and represents and warrants to the
 licensee that it is not a competitor of Gaussian, Inc. and that
 it will not use this program in any manner prohibited above.
 ---------------------------------------------------------------
  

 Cite this work as:
 Gaussian 16, Revision A.03,
 M. J. Frisch, G. W. Trucks, H. B. Schlegel, G. E. Scuseria, 
 M. A. Robb, J. R. Cheeseman, G. Scalmani, V. Barone, 
 G. A. Petersson, H. Nakatsuji, X. Li, M. Caricato, A. V. Marenich, 
 J. Bloino, B. G. Janesko, R. Gomperts, B. Mennucci, H. P. Hratchian, 
 J. V. Ortiz, A. F. Izmaylov, J. L. Sonnenberg, D. Williams-Young, 
 F. Ding, F. Lipparini, F. Egidi, J. Goings, B. Peng, A. Petrone, 
 T. Henderson, D. Ranasinghe, V. G. Zakrzewski, J. Gao, N. Rega, 
 G. Zheng, W. Liang, M. Hada, M. Ehara, K. Toyota, R. Fukuda, 
 J. Hasegawa, M. Ishida, T. Nakajima, Y. Honda, O. Kitao, H. Nakai, 
 T. Vreven, K. Throssell, J. A. Montgomery, Jr., J. E. Peralta, 
 F. Ogliaro, M. J. Bearpark, J. J. Heyd, E. N. Brothers, K. N. Kudin, 
 V. N. Staroverov, T. A. Keith, R. Kobayashi, J. Normand, 
 K. Raghavachari, A. P. Rendell, J. C. Burant, S. S. Iyengar, 
 J. Tomasi, M. Cossi, J. M. Millam, M. Klene, C. Adamo, R. Cammi, 
 J. W. Ochterski, R. L. Martin, K. Morokuma, O. Farkas, 
 J. B. Foresman, and D. J. Fox, Gaussian, Inc., Wallingford CT, 2016.
 
 ******************************************
 Gaussian 16:  ES64L-G16RevA.03 25-Dec-2016
                 4-Sep-2021 
 ******************************************
 %nproc=24
 Will use up to   24 processors via shared memory.
 %mem=175gb
 -----------------------------------
 #p cam-b3lyp/Def2SVP td=(nstates=5)
 -----------------------------------
 1/38=1,172=1/1;
 2/12=2,17=6,18=5,40=1/2;
 3/5=43,7=101,11=9,25=1,30=1,74=-40/1,2,3,8;
 4//1;
 5/5=2,38=5/2;
 8/6=1,10=1,108=5/1;
 9/41=5,42=1,70=2/14;
 6/7=2,8=2,9=2,10=2/1;
 99/5=1,9=1/99;
 Leave Link    1 at Sat Sep  4 15:19:29 2021, MaxMem= 23488102400 cpu:               0.9 elap:               0.0
 (Enter /sw/apps/gaussian-16.0/g16/l101.exe)
 --------------------------------
 TDDFT excited states in gaussian
 --------------------------------
 Symbolic Z-matrix:
 Charge =  0 Multiplicity = 1
 Mg                    0.        0.        0. 
 C                    -0.217    -2.218     2.801 
 C                    -1.255     2.442     2.026 
 C                    -0.245     1.85     -2.564 
 C                     0.146    -2.824    -2.037 
 N                    -0.617    -0.009     2.126 
 C                    -0.594    -0.908     3.105 
 C                    -0.936    -0.309     4.502 
 C                    -1.773     0.964     4.032 
 C                    -1.155     1.168     2.66 
 C                    -3.263     0.685     3.863 
 C                     0.345     0.11      5.299 
 C                     0.124     0.397     6.787 
 H                     1.168     0.033     7.733 
 N                    -0.185     1.961    -0.152 
 C                    -0.703     2.8       0.777 
 C                    -0.62      4.156     0.193 
 C                    -0.187     4.015    -1.225 
 C                    -0.214     2.583    -1.38 
 C                    -0.887     5.406     0.974 
 C                     0.181     5.013    -2.277 
 O                     0.303     4.69     -3.508 
 C                     0.31      6.414    -1.837 
 N                    -0.265    -0.413    -2.029 
 C                    -0.279     0.569    -2.937 
 C                    -0.196     0.024    -4.332 
 C                     0.124    -1.533    -4.18 
 C                     0.086    -1.632    -2.635 
 C                    -1.451     0.205    -5.197 
 C                     1.373    -2.07     -4.923 
 C                     2.626    -1.49     -4.306 
 N                     0.15     -2.144     0.303 
 C                     0.173    -3.136    -0.688 
 C                     0.173    -4.438     0.004 
 C                     0.133    -4.111     1.358 
 C                     0.083    -2.695     1.502 
 C                     0.149    -5.715    -0.623 
 C                     0.096    -4.629     2.716 
 O                     0.208    -5.747     3.221 
 C                    -0.255    -3.428     3.701 
 C                     0.717    -3.482     4.848 
 O                     1.931    -3.255     4.669 
 O                     0.038    -3.556     6.003 
 C                     0.943    -3.583     7.183 
 H                    -1.859     3.22      2.497 
 H                    -0.218     2.453    -3.474 
 H                     0.276    -3.747    -2.605 
 H                    -1.554    -0.949     5.132 
 H                    -1.585     1.831     4.665 
 H                    -3.484    -0.377     3.969 
 H                    -3.511     1.027     2.858 
 H                    -3.852     1.301     4.543 
 H                     0.669     1.096     4.966 
 H                     1.13     -0.639     5.189 
 H                    -0.844     0.026     7.125 
 H                     0.062     1.477     6.921 
 H                    -1.344     5.186     1.938 
 H                    -1.651     5.963     0.432 
 H                     0.007     6.02      1.084 
 H                    -0.635     6.744    -1.405 
 H                     0.665     6.97     -2.704 
 H                     1.048     6.466    -1.036 
 H                     0.608     0.501    -4.891 
 H                    -0.692    -2.156    -4.547 
 H                    -1.267     0.74     -6.129 
 H                    -2.204     0.714    -4.596 
 H                    -1.967    -0.72     -5.453 
 H                     1.356    -1.759    -5.967 
 H                     1.452    -3.157    -4.902 
 H                     2.714    -0.522    -4.798 
 H                     3.487    -2.121    -4.529 
 H                     2.495    -1.303    -3.24 
 H                     0.867    -6.333    -0.084 
 H                     0.404    -5.642    -1.68 
 H                    -0.891    -5.999    -0.463 
 H                    -1.283    -3.581     4.028 
 H                     0.698    -4.478     7.755 
 H                     0.833    -2.619     7.68 
 H                     2.       -3.754     6.976 
 Mg                    15.77297   1.41919   1.20588 
 C                     15.82512  -2.09165   1.94773 
 C                     14.60438   1.91858   4.37125 
 C                     15.28837   4.46007   0.44062 
 C                     15.83738   0.56489  -2.17225 
 N                     15.31527   0.01547   2.8528 
 C                     15.43258  -1.29046   3.04018 
 C                     15.18868  -1.75509   4.50108 
 C                     14.27588  -0.52927   4.99405 
 C                     14.78228   0.55135   4.0409 
 C                     12.79364  -0.73973   4.73329 
 C                     16.51874  -1.84978   5.32812 
 C                     16.3952  -2.58919   6.6622 
 H                     17.52263  -3.39858   7.11639 
 N                     15.52537   3.01133   2.36448 
 C                     15.062    3.03131   3.63183 
 C                     15.04974   4.44648   4.03345 
 C                     15.38755   5.27459   2.84398 
 C                     15.39327   4.25989   1.80937 
 C                     14.81608   4.88865   5.44884 
 C                     15.64812   6.73959   2.66488 
 O                     15.68871   7.27917   1.50297 
 C                     15.76148   7.54022   3.89274 
 N                     15.37576   2.37307  -0.59819 
 C                     15.2604   3.71119  -0.66197 
 C                     15.25118   4.19026  -2.09403 
 C                     15.62913   2.9117   -2.97722 
 C                     15.70751   1.84722  -1.86091 
 C                     13.93062   4.77882  -2.59012 
 C                     16.83454   3.05694  -3.94601 
 C                     18.11547   3.20678  -3.15724 
 N                     16.00788  -0.40119   0.0661 
 C                     15.97823  -0.53757  -1.33911 
 C                     16.06631  -1.98157  -1.63833 
 C                     16.11832  -2.59149  -0.37588 
 C                     16.04597  -1.59913   0.63876 
 C                     16.04111  -2.56519  -2.93635 
 C                     16.20726  -3.8499    0.32923 
 O                     16.38028  -5.02171  -0.00342 
 C                     15.89395  -3.59138   1.86592 
 C                     16.94929  -4.28971   2.67901 
 O                     18.13576  -3.92095   2.62501 
 O                     16.35405  -5.12978   3.54523 
 C                     17.35933  -5.83773   4.38191 
 H                     14.0227   2.16625   5.25962 
 H                     15.23094   5.50274   0.11963 
 H                     15.962    0.22397  -3.20226 
 H                     14.64357  -2.68649   4.59652 
 H                     14.49587  -0.26239   6.02446 
 H                     12.60951  -1.63011   4.15065 
 H                     12.46173   0.13918   4.19626 
 H                     12.24145  -0.74244   5.67743 
 H                     16.78618  -0.84933   5.69188 
 H                     17.30141  -2.29054   4.74181 
 H                     15.46032  -3.15834   6.73299 
 H                     16.32009  -1.84971   7.46316 
 H                     14.43193   4.06874   6.06818 
 H                     13.99858   5.61735   5.42536 
 H                     15.69569   5.35854   5.89398 
 H                     14.84505   7.44691   4.47059 
 H                     16.03632   8.54395   3.5628 
 H                     16.56594   7.12355   4.50906 
 H                     15.99879   4.95833  -2.24969 
 H                     14.80172   2.61385  -3.63792 
 H                     14.0299   5.81182  -2.97367 
 H                     13.21444   4.74116  -1.78005 
 H                     13.43112   4.20257  -3.36706 
 H                     16.73127   3.96467  -4.54561 
 H                     16.93723   2.22556  -4.6354 
 H                     18.13347   4.27387  -2.91623 
 H                     18.97388   2.92453  -3.76345 
 H                     18.0617   2.65599  -2.21099 
 H                     16.80686  -3.32937  -2.94904 
 H                     16.20941  -1.81974  -3.71079 
 H                     15.01938  -2.95373  -2.9557 
 H                     14.89615  -3.9831    2.06723 
 H                     17.17952  -6.91016   4.25844 
 H                     17.24605  -5.42202   5.40079 
 H                     18.3994  -5.76234   4.08694 
 
 ITRead=  0  0  0  0  0  0  0  0  0  0  0  0  0  0  0  0  0  0  0  0
 ITRead=  0  0  0  0  0  0  0  0  0  0  0  0  0  0  0  0  0  0  0  0
 ITRead=  0  0  0  0  0  0  0  0  0  0  0  0  0  0  0  0  0  0  0  0
 ITRead=  0  0  0  0  0  0  0  0  0  0  0  0  0  0  0  0  0  0  0  0
 ITRead=  0  0  0  0  0  0  0  0  0  0  0  0  0  0  0  0  0  0  0  0
 ITRead=  0  0  0  0  0  0  0  0  0  0  0  0  0  0  0  0  0  0  0  0
 ITRead=  0  0  0  0  0  0  0  0  0  0  0  0  0  0  0  0  0  0  0  0
 ITRead=  0  0  0  0  0  0  0  0  0  0  0  0  0  0  0  0  0  0
 MicOpt= -1 -1 -1 -1 -1 -1 -1 -1 -1 -1 -1 -1 -1 -1 -1 -1 -1 -1 -1 -1
 MicOpt= -1 -1 -1 -1 -1 -1 -1 -1 -1 -1 -1 -1 -1 -1 -1 -1 -1 -1 -1 -1
 MicOpt= -1 -1 -1 -1 -1 -1 -1 -1 -1 -1 -1 -1 -1 -1 -1 -1 -1 -1 -1 -1
 MicOpt= -1 -1 -1 -1 -1 -1 -1 -1 -1 -1 -1 -1 -1 -1 -1 -1 -1 -1 -1 -1
 MicOpt= -1 -1 -1 -1 -1 -1 -1 -1 -1 -1 -1 -1 -1 -1 -1 -1 -1 -1 -1 -1
 MicOpt= -1 -1 -1 -1 -1 -1 -1 -1 -1 -1 -1 -1 -1 -1 -1 -1 -1 -1 -1 -1
 MicOpt= -1 -1 -1 -1 -1 -1 -1 -1 -1 -1 -1 -1 -1 -1 -1 -1 -1 -1 -1 -1
 MicOpt= -1 -1 -1 -1 -1 -1 -1 -1 -1 -1 -1 -1 -1 -1 -1 -1 -1 -1
 NAtoms=    158 NQM=      158 NQMF=       0 NMMI=      0 NMMIF=      0
                NMic=       0 NMicF=      0.
                    Isotopes and Nuclear Properties:
 (Nuclear quadrupole moments (NQMom) in fm**2, nuclear magnetic moments (NMagM)
  in nuclear magnetons)

  Atom         1           2           3           4           5           6           7           8           9          10
 IAtWgt=          24          12          12          12          12          14          12          12          12          12
 AtmWgt=  23.9850450  12.0000000  12.0000000  12.0000000  12.0000000  14.0030740  12.0000000  12.0000000  12.0000000  12.0000000
 NucSpn=           0           0           0           0           0           2           0           0           0           0
 AtZEff=  -0.0000000  -0.0000000  -0.0000000  -0.0000000  -0.0000000  -0.0000000  -0.0000000  -0.0000000  -0.0000000  -0.0000000
 NQMom=    0.0000000   0.0000000   0.0000000   0.0000000   0.0000000   2.0440000   0.0000000   0.0000000   0.0000000   0.0000000
 NMagM=    0.0000000   0.0000000   0.0000000   0.0000000   0.0000000   0.4037610   0.0000000   0.0000000   0.0000000   0.0000000
 AtZNuc=  12.0000000   6.0000000   6.0000000   6.0000000   6.0000000   7.0000000   6.0000000   6.0000000   6.0000000   6.0000000

  Atom        11          12          13          14          15          16          17          18          19          20
 IAtWgt=          12          12          12           1          14          12          12          12          12          12
 AtmWgt=  12.0000000  12.0000000  12.0000000   1.0078250  14.0030740  12.0000000  12.0000000  12.0000000  12.0000000  12.0000000
 NucSpn=           0           0           0           1           2           0           0           0           0           0
 AtZEff=  -0.0000000  -0.0000000  -0.0000000  -0.0000000  -0.0000000  -0.0000000  -0.0000000  -0.0000000  -0.0000000  -0.0000000
 NQMom=    0.0000000   0.0000000   0.0000000   0.0000000   2.0440000   0.0000000   0.0000000   0.0000000   0.0000000   0.0000000
 NMagM=    0.0000000   0.0000000   0.0000000   2.7928460   0.4037610   0.0000000   0.0000000   0.0000000   0.0000000   0.0000000
 AtZNuc=   6.0000000   6.0000000   6.0000000   1.0000000   7.0000000   6.0000000   6.0000000   6.0000000   6.0000000   6.0000000

  Atom        21          22          23          24          25          26          27          28          29          30
 IAtWgt=          12          16          12          14          12          12          12          12          12          12
 AtmWgt=  12.0000000  15.9949146  12.0000000  14.0030740  12.0000000  12.0000000  12.0000000  12.0000000  12.0000000  12.0000000
 NucSpn=           0           0           0           2           0           0           0           0           0           0
 AtZEff=  -0.0000000  -0.0000000  -0.0000000  -0.0000000  -0.0000000  -0.0000000  -0.0000000  -0.0000000  -0.0000000  -0.0000000
 NQMom=    0.0000000   0.0000000   0.0000000   2.0440000   0.0000000   0.0000000   0.0000000   0.0000000   0.0000000   0.0000000
 NMagM=    0.0000000   0.0000000   0.0000000   0.4037610   0.0000000   0.0000000   0.0000000   0.0000000   0.0000000   0.0000000
 AtZNuc=   6.0000000   8.0000000   6.0000000   7.0000000   6.0000000   6.0000000   6.0000000   6.0000000   6.0000000   6.0000000

  Atom        31          32          33          34          35          36          37          38          39          40
 IAtWgt=          12          14          12          12          12          12          12          12          16          12
 AtmWgt=  12.0000000  14.0030740  12.0000000  12.0000000  12.0000000  12.0000000  12.0000000  12.0000000  15.9949146  12.0000000
 NucSpn=           0           2           0           0           0           0           0           0           0           0
 AtZEff=  -0.0000000  -0.0000000  -0.0000000  -0.0000000  -0.0000000  -0.0000000  -0.0000000  -0.0000000  -0.0000000  -0.0000000
 NQMom=    0.0000000   2.0440000   0.0000000   0.0000000   0.0000000   0.0000000   0.0000000   0.0000000   0.0000000   0.0000000
 NMagM=    0.0000000   0.4037610   0.0000000   0.0000000   0.0000000   0.0000000   0.0000000   0.0000000   0.0000000   0.0000000
 AtZNuc=   6.0000000   7.0000000   6.0000000   6.0000000   6.0000000   6.0000000   6.0000000   6.0000000   8.0000000   6.0000000

  Atom        41          42          43          44          45          46          47          48          49          50
 IAtWgt=          12          16          16          12           1           1           1           1           1           1
 AtmWgt=  12.0000000  15.9949146  15.9949146  12.0000000   1.0078250   1.0078250   1.0078250   1.0078250   1.0078250   1.0078250
 NucSpn=           0           0           0           0           1           1           1           1           1           1
 AtZEff=  -0.0000000  -0.0000000  -0.0000000  -0.0000000  -0.0000000  -0.0000000  -0.0000000  -0.0000000  -0.0000000  -0.0000000
 NQMom=    0.0000000   0.0000000   0.0000000   0.0000000   0.0000000   0.0000000   0.0000000   0.0000000   0.0000000   0.0000000
 NMagM=    0.0000000   0.0000000   0.0000000   0.0000000   2.7928460   2.7928460   2.7928460   2.7928460   2.7928460   2.7928460
 AtZNuc=   6.0000000   8.0000000   8.0000000   6.0000000   1.0000000   1.0000000   1.0000000   1.0000000   1.0000000   1.0000000

  Atom        51          52          53          54          55          56          57          58          59          60
 IAtWgt=           1           1           1           1           1           1           1           1           1           1
 AtmWgt=   1.0078250   1.0078250   1.0078250   1.0078250   1.0078250   1.0078250   1.0078250   1.0078250   1.0078250   1.0078250
 NucSpn=           1           1           1           1           1           1           1           1           1           1
 AtZEff=  -0.0000000  -0.0000000  -0.0000000  -0.0000000  -0.0000000  -0.0000000  -0.0000000  -0.0000000  -0.0000000  -0.0000000
 NQMom=    0.0000000   0.0000000   0.0000000   0.0000000   0.0000000   0.0000000   0.0000000   0.0000000   0.0000000   0.0000000
 NMagM=    2.7928460   2.7928460   2.7928460   2.7928460   2.7928460   2.7928460   2.7928460   2.7928460   2.7928460   2.7928460
 AtZNuc=   1.0000000   1.0000000   1.0000000   1.0000000   1.0000000   1.0000000   1.0000000   1.0000000   1.0000000   1.0000000

  Atom        61          62          63          64          65          66          67          68          69          70
 IAtWgt=           1           1           1           1           1           1           1           1           1           1
 AtmWgt=   1.0078250   1.0078250   1.0078250   1.0078250   1.0078250   1.0078250   1.0078250   1.0078250   1.0078250   1.0078250
 NucSpn=           1           1           1           1           1           1           1           1           1           1
 AtZEff=  -0.0000000  -0.0000000  -0.0000000  -0.0000000  -0.0000000  -0.0000000  -0.0000000  -0.0000000  -0.0000000  -0.0000000
 NQMom=    0.0000000   0.0000000   0.0000000   0.0000000   0.0000000   0.0000000   0.0000000   0.0000000   0.0000000   0.0000000
 NMagM=    2.7928460   2.7928460   2.7928460   2.7928460   2.7928460   2.7928460   2.7928460   2.7928460   2.7928460   2.7928460
 AtZNuc=   1.0000000   1.0000000   1.0000000   1.0000000   1.0000000   1.0000000   1.0000000   1.0000000   1.0000000   1.0000000

  Atom        71          72          73          74          75          76          77          78          79          80
 IAtWgt=           1           1           1           1           1           1           1           1           1          24
 AtmWgt=   1.0078250   1.0078250   1.0078250   1.0078250   1.0078250   1.0078250   1.0078250   1.0078250   1.0078250  23.9850450
 NucSpn=           1           1           1           1           1           1           1           1           1           0
 AtZEff=  -0.0000000  -0.0000000  -0.0000000  -0.0000000  -0.0000000  -0.0000000  -0.0000000  -0.0000000  -0.0000000  -0.0000000
 NQMom=    0.0000000   0.0000000   0.0000000   0.0000000   0.0000000   0.0000000   0.0000000   0.0000000   0.0000000   0.0000000
 NMagM=    2.7928460   2.7928460   2.7928460   2.7928460   2.7928460   2.7928460   2.7928460   2.7928460   2.7928460   0.0000000
 AtZNuc=   1.0000000   1.0000000   1.0000000   1.0000000   1.0000000   1.0000000   1.0000000   1.0000000   1.0000000  12.0000000

  Atom        81          82          83          84          85          86          87          88          89          90
 IAtWgt=          12          12          12          12          14          12          12          12          12          12
 AtmWgt=  12.0000000  12.0000000  12.0000000  12.0000000  14.0030740  12.0000000  12.0000000  12.0000000  12.0000000  12.0000000
 NucSpn=           0           0           0           0           2           0           0           0           0           0
 AtZEff=  -0.0000000  -0.0000000  -0.0000000  -0.0000000  -0.0000000  -0.0000000  -0.0000000  -0.0000000  -0.0000000  -0.0000000
 NQMom=    0.0000000   0.0000000   0.0000000   0.0000000   2.0440000   0.0000000   0.0000000   0.0000000   0.0000000   0.0000000
 NMagM=    0.0000000   0.0000000   0.0000000   0.0000000   0.4037610   0.0000000   0.0000000   0.0000000   0.0000000   0.0000000
 AtZNuc=   6.0000000   6.0000000   6.0000000   6.0000000   7.0000000   6.0000000   6.0000000   6.0000000   6.0000000   6.0000000

  Atom        91          92          93          94          95          96          97          98          99         100
 IAtWgt=          12          12           1          14          12          12          12          12          12          12
 AtmWgt=  12.0000000  12.0000000   1.0078250  14.0030740  12.0000000  12.0000000  12.0000000  12.0000000  12.0000000  12.0000000
 NucSpn=           0           0           1           2           0           0           0           0           0           0
 AtZEff=  -0.0000000  -0.0000000  -0.0000000  -0.0000000  -0.0000000  -0.0000000  -0.0000000  -0.0000000  -0.0000000  -0.0000000
 NQMom=    0.0000000   0.0000000   0.0000000   2.0440000   0.0000000   0.0000000   0.0000000   0.0000000   0.0000000   0.0000000
 NMagM=    0.0000000   0.0000000   2.7928460   0.4037610   0.0000000   0.0000000   0.0000000   0.0000000   0.0000000   0.0000000
 AtZNuc=   6.0000000   6.0000000   1.0000000   7.0000000   6.0000000   6.0000000   6.0000000   6.0000000   6.0000000   6.0000000

  Atom       101         102         103         104         105         106         107         108         109         110
 IAtWgt=          16          12          14          12          12          12          12          12          12          12
 AtmWgt=  15.9949146  12.0000000  14.0030740  12.0000000  12.0000000  12.0000000  12.0000000  12.0000000  12.0000000  12.0000000
 NucSpn=           0           0           2           0           0           0           0           0           0           0
 AtZEff=  -0.0000000  -0.0000000  -0.0000000  -0.0000000  -0.0000000  -0.0000000  -0.0000000  -0.0000000  -0.0000000  -0.0000000
 NQMom=    0.0000000   0.0000000   2.0440000   0.0000000   0.0000000   0.0000000   0.0000000   0.0000000   0.0000000   0.0000000
 NMagM=    0.0000000   0.0000000   0.4037610   0.0000000   0.0000000   0.0000000   0.0000000   0.0000000   0.0000000   0.0000000
 AtZNuc=   8.0000000   6.0000000   7.0000000   6.0000000   6.0000000   6.0000000   6.0000000   6.0000000   6.0000000   6.0000000

  Atom       111         112         113         114         115         116         117         118         119         120
 IAtWgt=          14          12          12          12          12          12          12          16          12          12
 AtmWgt=  14.0030740  12.0000000  12.0000000  12.0000000  12.0000000  12.0000000  12.0000000  15.9949146  12.0000000  12.0000000
 NucSpn=           2           0           0           0           0           0           0           0           0           0
 AtZEff=  -0.0000000  -0.0000000  -0.0000000  -0.0000000  -0.0000000  -0.0000000  -0.0000000  -0.0000000  -0.0000000  -0.0000000
 NQMom=    2.0440000   0.0000000   0.0000000   0.0000000   0.0000000   0.0000000   0.0000000   0.0000000   0.0000000   0.0000000
 NMagM=    0.4037610   0.0000000   0.0000000   0.0000000   0.0000000   0.0000000   0.0000000   0.0000000   0.0000000   0.0000000
 AtZNuc=   7.0000000   6.0000000   6.0000000   6.0000000   6.0000000   6.0000000   6.0000000   8.0000000   6.0000000   6.0000000

  Atom       121         122         123         124         125         126         127         128         129         130
 IAtWgt=          16          16          12           1           1           1           1           1           1           1
 AtmWgt=  15.9949146  15.9949146  12.0000000   1.0078250   1.0078250   1.0078250   1.0078250   1.0078250   1.0078250   1.0078250
 NucSpn=           0           0           0           1           1           1           1           1           1           1
 AtZEff=  -0.0000000  -0.0000000  -0.0000000  -0.0000000  -0.0000000  -0.0000000  -0.0000000  -0.0000000  -0.0000000  -0.0000000
 NQMom=    0.0000000   0.0000000   0.0000000   0.0000000   0.0000000   0.0000000   0.0000000   0.0000000   0.0000000   0.0000000
 NMagM=    0.0000000   0.0000000   0.0000000   2.7928460   2.7928460   2.7928460   2.7928460   2.7928460   2.7928460   2.7928460
 AtZNuc=   8.0000000   8.0000000   6.0000000   1.0000000   1.0000000   1.0000000   1.0000000   1.0000000   1.0000000   1.0000000

  Atom       131         132         133         134         135         136         137         138         139         140
 IAtWgt=           1           1           1           1           1           1           1           1           1           1
 AtmWgt=   1.0078250   1.0078250   1.0078250   1.0078250   1.0078250   1.0078250   1.0078250   1.0078250   1.0078250   1.0078250
 NucSpn=           1           1           1           1           1           1           1           1           1           1
 AtZEff=  -0.0000000  -0.0000000  -0.0000000  -0.0000000  -0.0000000  -0.0000000  -0.0000000  -0.0000000  -0.0000000  -0.0000000
 NQMom=    0.0000000   0.0000000   0.0000000   0.0000000   0.0000000   0.0000000   0.0000000   0.0000000   0.0000000   0.0000000
 NMagM=    2.7928460   2.7928460   2.7928460   2.7928460   2.7928460   2.7928460   2.7928460   2.7928460   2.7928460   2.7928460
 AtZNuc=   1.0000000   1.0000000   1.0000000   1.0000000   1.0000000   1.0000000   1.0000000   1.0000000   1.0000000   1.0000000

  Atom       141         142         143         144         145         146         147         148         149         150
 IAtWgt=           1           1           1           1           1           1           1           1           1           1
 AtmWgt=   1.0078250   1.0078250   1.0078250   1.0078250   1.0078250   1.0078250   1.0078250   1.0078250   1.0078250   1.0078250
 NucSpn=           1           1           1           1           1           1           1           1           1           1
 AtZEff=  -0.0000000  -0.0000000  -0.0000000  -0.0000000  -0.0000000  -0.0000000  -0.0000000  -0.0000000  -0.0000000  -0.0000000
 NQMom=    0.0000000   0.0000000   0.0000000   0.0000000   0.0000000   0.0000000   0.0000000   0.0000000   0.0000000   0.0000000
 NMagM=    2.7928460   2.7928460   2.7928460   2.7928460   2.7928460   2.7928460   2.7928460   2.7928460   2.7928460   2.7928460
 AtZNuc=   1.0000000   1.0000000   1.0000000   1.0000000   1.0000000   1.0000000   1.0000000   1.0000000   1.0000000   1.0000000

  Atom       151         152         153         154         155         156         157         158
 IAtWgt=           1           1           1           1           1           1           1           1
 AtmWgt=   1.0078250   1.0078250   1.0078250   1.0078250   1.0078250   1.0078250   1.0078250   1.0078250
 NucSpn=           1           1           1           1           1           1           1           1
 AtZEff=  -0.0000000  -0.0000000  -0.0000000  -0.0000000  -0.0000000  -0.0000000  -0.0000000  -0.0000000
 NQMom=    0.0000000   0.0000000   0.0000000   0.0000000   0.0000000   0.0000000   0.0000000   0.0000000
 NMagM=    2.7928460   2.7928460   2.7928460   2.7928460   2.7928460   2.7928460   2.7928460   2.7928460
 AtZNuc=   1.0000000   1.0000000   1.0000000   1.0000000   1.0000000   1.0000000   1.0000000   1.0000000
 Leave Link  101 at Sat Sep  4 15:19:29 2021, MaxMem= 23488102400 cpu:               3.9 elap:               0.2
 (Enter /sw/apps/gaussian-16.0/g16/l202.exe)
 Stoichiometry    C68H72Mg2N8O8
 Framework group  C1[X(C68H72Mg2N8O8)]
 Deg. of freedom   468
 Full point group                 C1      NOp   1
 Largest Abelian subgroup         C1      NOp   1
 Largest concise Abelian subgroup C1      NOp   1
                         Standard orientation:                         
 ---------------------------------------------------------------------
 Center     Atomic      Atomic             Coordinates (Angstroms)
 Number     Number       Type             X           Y           Z
 ---------------------------------------------------------------------
      1         12           0        7.852576   -0.658308   -0.404434
      2          6           0        8.064158    2.772438    0.594282
      3          6           0        8.870553   -1.483511    2.746094
      4          6           0        8.111586   -3.660742   -1.391816
      5          6           0        7.962828    0.449660   -3.706844
      6          7           0        8.369003    0.577295    1.358301
      7          6           0        8.351417    1.878786    1.628455
      8          6           0        8.593100    2.200675    3.133564
      9          6           0        9.377406    0.876909    3.551303
     10          6           0        8.813635   -0.077256    2.513201
     11          6           0       10.887132    0.976651    3.358217
     12          6           0        7.254480    2.349562    3.932100
     13          6           0        7.388981    2.980187    5.321192
     14          1           0        6.324282    3.847336    5.802667
     15          7           0        7.932654   -2.342939    0.624379
     16          6           0        8.358093   -2.492246    1.901875
     17          6           0        8.225506   -3.932458    2.209920
     18          6           0        7.868004   -4.636797    0.947307
     19          6           0        7.983620   -3.564830   -0.008150
     20          6           0        8.384172   -4.497088    3.588241
     21          6           0        7.493434   -6.053846    0.647635
     22          8           0        7.447696   -6.507218   -0.546910
     23          6           0        7.264532   -6.932478    1.808949
     24          7           0        8.235219   -1.511368   -2.270849
     25          6           0        8.235789   -2.838679   -2.435862
     26          6           0        8.249238   -3.208164   -3.889560
     27          6           0        8.011550   -1.849049   -4.693341
     28          6           0        7.982835   -0.868250   -3.495227
     29          6           0        9.530985   -3.883462   -4.396621
     30          6           0        6.831223   -1.822639   -5.696610
     31          6           0        5.519787   -1.910011   -4.948545
     32          7           0        7.810750    1.262339   -1.414587
     33          6           0        7.890568    1.490345   -2.796006
     34          6           0        7.932259    2.951270   -2.991012
     35          6           0        7.890241    3.474689   -1.700232
     36          6           0        7.852841    2.407839   -0.757510
     37          6           0        8.058138    3.622129   -4.239426
     38          6           0        7.893102    4.686696   -0.897183
     39          8           0        7.821376    5.891256   -1.144940
     40          6           0        8.128788    4.279248    0.624088
     41          6           0        7.108865    5.010524    1.453728
     42          8           0        5.893619    4.744804    1.354039
     43          8           0        7.736224    5.731397    2.395696
     44          6           0        6.780040    6.458723    3.272544
     45          1           0        9.406643   -1.852043    3.622868
     46          1           0        8.092916   -4.680668   -1.781483
     47          1           0        7.912233    0.870378   -4.712771
     48          1           0        9.216363    3.076129    3.316723
     49          1           0        9.111009    0.545609    4.554794
     50          1           0       11.162974    1.896702    2.843109
     51          1           0       11.162001    0.108051    2.759490
     52          1           0       11.407704    0.861858    4.309324
     53          1           0        6.890854    1.360783    4.211658
     54          1           0        6.519352    2.908531    3.352043
     55          1           0        8.359649    3.460248    5.448687
     56          1           0        7.383124    2.180132    6.061515
     57          1           0        8.807368   -3.764844    4.274731
     58          1           0        9.139763   -5.280022    3.526559
     59          1           0        7.452535   -4.914587    3.970444
     60          1           0        8.167999   -6.966416    2.418165
     61          1           0        6.919415   -7.882936    1.403521
     62          1           0        6.488124   -6.493525    2.436213
     63          1           0        7.446430   -3.906313   -4.123043
     64          1           0        8.877928   -1.572658   -5.294733
     65          1           0        9.360636   -4.858021   -4.854792
     66          1           0       10.224891   -3.960550   -3.560055
     67          1           0       10.110162   -3.291396   -5.104737
     68          1           0        6.879305   -2.684431   -6.361402
     69          1           0        6.813276   -0.926173   -6.316511
     70          1           0        5.399979   -2.981386   -4.791592
     71          1           0        4.707438   -1.511333   -5.557113
     72          1           0        5.589951   -1.442605   -3.966153
     73          1           0        7.352031    4.451977   -4.212331
     74          1           0        7.849102    2.951185   -5.072338
     75          1           0        9.103985    3.926354   -4.200629
     76          1           0        9.147409    4.574724    0.873541
     77          1           0        7.048530    7.514500    3.234034
     78          1           0        6.811677    5.963679    4.243284
     79          1           0        5.745313    6.496898    2.930167
     80         12           0       -8.014683   -0.808342    0.275579
     81          6           0       -7.901709    2.476379   -1.165568
     82          6           0       -7.025676    0.610168    3.215690
     83          6           0       -7.668559   -3.733277    1.455562
     84          6           0       -7.872374   -2.083673   -2.964640
     85          7           0       -7.555401    1.283467    0.828444
     86          6           0       -7.606882    2.455487    0.213591
     87          6           0       -7.405530    3.680247    1.145802
     88          6           0       -6.587973    2.955012    2.322447
     89          6           0       -7.109888    1.531150    2.141075
     90          6           0       -5.085594    2.945723    2.094204
     91          6           0       -8.765266    4.264738    1.666867
     92          6           0       -8.662389    5.640954    2.328083
     93          1           0       -9.761964    6.584522    2.146117
     94          7           0       -7.912479   -1.430209    2.157441
     95          6           0       -7.510763   -0.716036    3.229760
     96          6           0       -7.597800   -1.631239    4.378230
     97          6           0       -7.926172   -2.991078    3.870556
     98          6           0       -7.825790   -2.770401    2.441818
     99          6           0       -7.456104   -1.169213    5.799460
    100          6           0       -8.260978   -4.280278    4.557625
    101          8           0       -8.277816   -5.395372    3.925872
    102          6           0       -8.476978   -4.212143    6.010278
    103          7           0       -7.588445   -2.642720   -0.605165
    104          6           0       -7.546518   -3.768754    0.128477
    105          6           0       -7.497607   -4.993219   -0.753952
    106          6           0       -7.760519   -4.462895   -2.239623
    107          6           0       -7.830344   -2.945887   -1.958167
    108          6           0       -6.190908   -5.785559   -0.720479
    109          6           0       -8.925618   -5.123030   -3.026661
    110          6           0      -10.248476   -4.760368   -2.391117
    111          7           0       -8.092131    0.009608   -1.722677
    112          6           0       -7.989099   -0.699796   -2.939321
    113          6           0       -7.980825    0.299981   -4.026888
    114          6           0       -8.057037    1.532592   -3.361043
    115          6           0       -8.088765    1.317146   -1.956734
    116          6           0       -7.861807    0.016370   -5.416673
    117          6           0       -8.107136    2.967453   -3.526429
    118          8           0       -8.197489    3.728306   -4.489065
    119          6           0       -7.881234    3.647853   -2.107826
    120          6           0       -8.932013    4.709196   -1.929113
    121          8           0      -10.133710    4.400741   -1.843143
    122          8           0       -8.331115    5.885328   -1.672208
    123          6           0       -9.332526    6.967292   -1.476391
    124          1           0       -6.501200    0.916156    4.121333
    125          1           0       -7.655575   -4.768305    1.804908
    126          1           0       -7.929105   -2.405215   -4.006787
    127          1           0       -6.813391    4.481937    0.721038
    128          1           0       -6.870725    3.343448    3.297400
    129          1           0       -4.824082    3.325455    1.117698
    130          1           0       -4.779460    1.912469    2.192772
    131          1           0       -4.578896    3.488124    2.897559
    132          1           0       -9.105887    3.669539    2.523873
    133          1           0       -9.493329    4.295542    0.879735
    134          1           0       -7.700988    6.126702    2.121447
    135          1           0       -8.666991    5.506182    3.412437
    136          1           0       -7.055326   -0.149443    5.852850
    137          1           0       -6.681168   -1.790166    6.261794
    138          1           0       -8.380865   -1.274487    6.370770
    139          1           0       -7.584748   -3.816716    6.489886
    140          1           0       -8.792729   -5.214468    6.306111
    141          1           0       -9.284376   -3.499053    6.210853
    142          1           0       -8.279592   -5.693557   -0.487288
    143          1           0       -6.887522   -4.622066   -2.889536
    144          1           0       -6.330733   -6.846251   -0.438631
    145          1           0       -5.512408   -5.296083   -0.034480
    146          1           0       -5.623662   -5.780229   -1.649675
    147          1           0       -8.846217   -6.211847   -2.978362
    148          1           0       -8.948512   -4.848033   -4.075874
    149          1           0      -10.338384   -5.486008   -1.577204
    150          1           0      -11.060158   -4.868456   -3.107715
    151          1           0      -10.207772   -3.762205   -1.939825
    152          1           0       -8.581425    0.644057   -5.925264
    153          1           0       -8.035834   -1.037490   -5.623729
    154          1           0       -6.819848    0.301230   -5.585334
    155          1           0       -6.873277    4.064450   -2.101093
    156          1           0       -9.086438    7.762756   -2.186575
    157          1           0       -9.290837    7.221823   -0.400641
    158          1           0      -10.360268    6.753752   -1.745804
 ---------------------------------------------------------------------
 Rotational constants (GHZ):           0.0202912           0.0059460           0.0055848
 Leave Link  202 at Sat Sep  4 15:19:29 2021, MaxMem= 23488102400 cpu:               0.2 elap:               0.0
 (Enter /sw/apps/gaussian-16.0/g16/l301.exe)
 Standard basis: def2SVP (5D, 7F)
 Ernie: Thresh=  0.10000D-02 Tol=  0.10000D-05 Strict=F.
 There are  1658 symmetry adapted cartesian basis functions of A   symmetry.
 There are  1572 symmetry adapted basis functions of A   symmetry.
  1572 basis functions,  2678 primitive gaussians,  1658 cartesian basis functions
   312 alpha electrons      312 beta electrons
       nuclear repulsion energy     13739.4337210623 Hartrees.
 IExCor=20419 DFT=T Ex+Corr=CAM-B3LYP ExCW=0 ScaHFX=  1.000000
 ScaDFX=  1.000000  1.000000  1.000000  0.810000 ScalE2=  1.000000  1.000000
 IRadAn=      5 IRanWt=     -1 IRanGd=            0 ICorTp=0 IEmpDi=  4
 HFx  wShort=  0.000000 wLong=  0.330000 cFull=  0.190000 cShort=  0.000000 cLong=  0.460000
 DFx  wShort=  0.000000 wLong=  0.330000 cFull=  0.190000 cShort=  0.000000 cLong=  0.460000
 NAtoms=  158 NActive=  158 NUniq=  158 SFac= 1.00D+00 NAtFMM=   60 NAOKFM=T Big=T
 Integral buffers will be    131072 words long.
 Raffenetti 1 integral format.
 Two-electron integral symmetry is turned on.
 Leave Link  301 at Sat Sep  4 15:19:29 2021, MaxMem= 23488102400 cpu:               1.4 elap:               0.1
 (Enter /sw/apps/gaussian-16.0/g16/l302.exe)
 NPDir=0 NMtPBC=     1 NCelOv=     1 NCel=       1 NClECP=     1 NCelD=      1
         NCelK=      1 NCelE2=     1 NClLst=     1 CellRange=     0.0.
 One-electron integrals computed using PRISM.
 One-electron integral symmetry used in STVInt
   1 Symmetry operations used in ECPInt.
 ECPInt:  NShTT=  271216 NPrTT=  987664 LenC2=  107369 LenP2D=  244314.
 LDataN:  DoStor=T MaxTD1= 4 Len=   56
 NBasis=  1572 RedAO= T EigKep=  3.36D-04  NBF=  1572
 NBsUse=  1572 1.00D-06 EigRej= -1.00D+00 NBFU=  1572
 Precomputing XC quadrature grid using
 IXCGrd= 4 IRadAn=           5 IRanWt=          -1 IRanGd=           0 AccXCQ= 0.00D+00.
 Generated NRdTot=       0 NPtTot=           0 NUsed=           0 NTot=          32
 NSgBfM=   907   889   894   907   907 MxSgAt=   158 MxSgA2=   151.
 Leave Link  302 at Sat Sep  4 15:19:34 2021, MaxMem= 23488102400 cpu:             105.9 elap:               4.4
 (Enter /sw/apps/gaussian-16.0/g16/l303.exe)
 DipDrv:  MaxL=1.
 Leave Link  303 at Sat Sep  4 15:19:34 2021, MaxMem= 23488102400 cpu:               7.9 elap:               0.4
 (Enter /sw/apps/gaussian-16.0/g16/l308.exe)
 Leave Link  308 at Sat Sep  4 15:19:35 2021, MaxMem= 23488102400 cpu:              13.3 elap:               0.6
 (Enter /sw/apps/gaussian-16.0/g16/l401.exe)
 ExpMin= 3.36D-02 ExpMax= 4.95D+03 ExpMxC= 7.45D+02 IAcc=3 IRadAn=         5 AccDes= 0.00D+00
 Harris functional with IExCor=20419 and IRadAn=       5 diagonalized for initial guess.
 HarFok:  IExCor=20419 AccDes= 0.00D+00 IRadAn=         5 IDoV= 1 UseB2=F ITyADJ=14
 ICtDFT=  3500011 ScaDFX=  1.000000  1.000000  1.000000  1.000000
 FoFCou: FMM=F IPFlag=           0 FMFlag=      100000 FMFlg1=        2001
         NFxFlg=           0 DoJE=T BraDBF=F KetDBF=T FulRan=T
         wScrn=  0.000000 ICntrl=       500 IOpCl=  0 I1Cent=   200000004 NGrid=           0
         NMat0=    1 NMatS0=      1 NMatT0=    0 NMatD0=    1 NMtDS0=    0 NMtDT0=    0
 Petite list used in FoFCou.
 Harris En= -3918.65801372621    
 JPrj=0 DoOrth=F DoCkMO=F.
 Leave Link  401 at Sat Sep  4 15:19:41 2021, MaxMem= 23488102400 cpu:             158.1 elap:               6.6
 (Enter /sw/apps/gaussian-16.0/g16/l502.exe)
 Integral symmetry usage will be decided dynamically.
 Closed shell SCF:
 Using DIIS extrapolation, IDIIS=  1040.
 NGot= 23488102400 LenX= 23482547354 LenY= 23479796732
 Requested convergence on RMS density matrix=1.00D-08 within 128 cycles.
 Requested convergence on MAX density matrix=1.00D-06.
 Requested convergence on             energy=1.00D-06.
 No special actions if energy rises.
 Fock matrices will be formed incrementally for  20 cycles.

 Cycle   1  Pass 1  IDiag  1:
 FoFJK:  IHMeth= 1 ICntrl=       0 DoSepK=T KAlg= 0 I1Cent=           0 FoldK=F
 IRaf=         1 NMat=       1 IRICut=       1 DoRegI=T DoRafI=F ISym2E= 0 IDoP0=0 IntGTp=1.
 FoFCou: FMM=T IPFlag=           0 FMFlag=      100000 FMFlg1=        2001
         NFxFlg=           0 DoJE=T BraDBF=F KetDBF=F FulRan=T
         wScrn=  0.000000 ICntrl=       500 IOpCl=  0 I1Cent=           0 NGrid=           0
         NMat0=    1 NMatS0=      1 NMatT0=    0 NMatD0=    1 NMtDS0=    0 NMtDT0=    0
 Symmetry not used in FoFCou.
 FMM levels:  10  Number of levels for PrismC:   9
 E= -4068.94928839695    
 DIIS: error= 2.04D-02 at cycle   1 NSaved=   1.
 NSaved= 1 IEnMin= 1 EnMin= -4068.94928839695     IErMin= 1 ErrMin= 2.04D-02
 ErrMax= 2.04D-02  0.00D+00 EMaxC= 1.00D-01 BMatC= 1.69D+00 BMatP= 1.69D+00
 IDIUse=3 WtCom= 7.96D-01 WtEn= 2.04D-01
 Coeff-Com:  0.100D+01
 Coeff-En:   0.100D+01
 Coeff:      0.100D+01
 Gap=     0.120 Goal=   None    Shift=    0.000
 GapD=    0.120 DampG=1.000 DampE=0.500 DampFc=0.5000 IDamp=-1.
 Damping current iteration by 5.00D-01
 RMSDP=1.57D-03 MaxDP=1.35D-01              OVMax= 2.03D-01

 Cycle   2  Pass 1  IDiag  1:
 RMSU=  7.69D-04    CP:  9.82D-01
 E= -4069.33817943242     Delta-E=       -0.388891035476 Rises=F Damp=T
 DIIS: error= 1.27D-02 at cycle   2 NSaved=   2.
 NSaved= 2 IEnMin= 2 EnMin= -4069.33817943242     IErMin= 2 ErrMin= 1.27D-02
 ErrMax= 1.27D-02  0.00D+00 EMaxC= 1.00D-01 BMatC= 3.07D-01 BMatP= 1.69D+00
 IDIUse=3 WtCom= 8.73D-01 WtEn= 1.27D-01
 Coeff-Com: -0.213D+00 0.121D+01
 Coeff-En:   0.000D+00 0.100D+01
 Coeff:     -0.186D+00 0.119D+01
 Gap=     0.136 Goal=   None    Shift=    0.000
 RMSDP=7.65D-04 MaxDP=9.44D-02 DE=-3.89D-01 OVMax= 1.88D-01

 Cycle   3  Pass 1  IDiag  1:
 RMSU=  7.32D-04    CP:  9.68D-01  1.24D+00
 E= -4069.62775182392     Delta-E=       -0.289572391499 Rises=F Damp=F
 DIIS: error= 1.57D-02 at cycle   3 NSaved=   3.
 NSaved= 3 IEnMin= 3 EnMin= -4069.62775182392     IErMin= 2 ErrMin= 1.27D-02
 ErrMax= 1.57D-02  0.00D+00 EMaxC= 1.00D-01 BMatC= 2.02D-01 BMatP= 3.07D-01
 IDIUse=3 WtCom= 8.43D-01 WtEn= 1.57D-01
 Coeff-Com: -0.267D+00 0.652D+00 0.616D+00
 Coeff-En:   0.000D+00 0.000D+00 0.100D+01
 Coeff:     -0.225D+00 0.549D+00 0.676D+00
 Gap=     0.123 Goal=   None    Shift=    0.000
 RMSDP=5.09D-04 MaxDP=4.79D-02 DE=-2.90D-01 OVMax= 1.43D-01

 Cycle   4  Pass 1  IDiag  1:
 RMSU=  2.66D-04    CP:  9.65D-01  1.55D+00  5.05D-01
 E= -4069.76503358607     Delta-E=       -0.137281762145 Rises=F Damp=F
 DIIS: error= 7.24D-03 at cycle   4 NSaved=   4.
 NSaved= 4 IEnMin= 4 EnMin= -4069.76503358607     IErMin= 4 ErrMin= 7.24D-03
 ErrMax= 7.24D-03  0.00D+00 EMaxC= 1.00D-01 BMatC= 5.02D-02 BMatP= 2.02D-01
 IDIUse=3 WtCom= 9.28D-01 WtEn= 7.24D-02
 Coeff-Com: -0.109D+00 0.226D+00 0.409D+00 0.474D+00
 Coeff-En:   0.000D+00 0.000D+00 0.221D+00 0.779D+00
 Coeff:     -0.101D+00 0.210D+00 0.395D+00 0.496D+00
 Gap=     0.122 Goal=   None    Shift=    0.000
 RMSDP=2.00D-04 MaxDP=2.02D-02 DE=-1.37D-01 OVMax= 6.21D-02

 Cycle   5  Pass 1  IDiag  1:
 RMSU=  7.61D-05    CP:  9.64D-01  1.49D+00  6.89D-01  5.49D-01
 E= -4069.81052375284     Delta-E=       -0.045490166776 Rises=F Damp=F
 DIIS: error= 7.68D-04 at cycle   5 NSaved=   5.
 NSaved= 5 IEnMin= 5 EnMin= -4069.81052375284     IErMin= 5 ErrMin= 7.68D-04
 ErrMax= 7.68D-04  0.00D+00 EMaxC= 1.00D-01 BMatC= 1.18D-03 BMatP= 5.02D-02
 IDIUse=3 WtCom= 9.92D-01 WtEn= 7.68D-03
 Coeff-Com: -0.361D-01 0.708D-01 0.166D+00 0.250D+00 0.549D+00
 Coeff-En:   0.000D+00 0.000D+00 0.000D+00 0.000D+00 0.100D+01
 Coeff:     -0.358D-01 0.703D-01 0.165D+00 0.248D+00 0.553D+00
 Gap=     0.122 Goal=   None    Shift=    0.000
 RMSDP=4.14D-05 MaxDP=4.12D-03 DE=-4.55D-02 OVMax= 1.65D-02

 Cycle   6  Pass 1  IDiag  1:
 RMSU=  3.06D-05    CP:  9.64D-01  1.49D+00  6.81D-01  6.21D-01  7.54D-01
 E= -4069.81155016306     Delta-E=       -0.001026410220 Rises=F Damp=F
 DIIS: error= 2.11D-04 at cycle   6 NSaved=   6.
 NSaved= 6 IEnMin= 6 EnMin= -4069.81155016306     IErMin= 6 ErrMin= 2.11D-04
 ErrMax= 2.11D-04  0.00D+00 EMaxC= 1.00D-01 BMatC= 1.80D-04 BMatP= 1.18D-03
 IDIUse=3 WtCom= 9.98D-01 WtEn= 2.11D-03
 Coeff-Com:  0.220D-02-0.656D-02 0.113D-01 0.404D-01 0.307D+00 0.645D+00
 Coeff-En:   0.000D+00 0.000D+00 0.000D+00 0.000D+00 0.109D+00 0.891D+00
 Coeff:      0.219D-02-0.655D-02 0.113D-01 0.403D-01 0.307D+00 0.646D+00
 Gap=     0.122 Goal=   None    Shift=    0.000
 RMSDP=1.62D-05 MaxDP=1.18D-03 DE=-1.03D-03 OVMax= 7.24D-03

 Cycle   7  Pass 1  IDiag  1:
 RMSU=  1.08D-05    CP:  9.64D-01  1.50D+00  6.87D-01  6.21D-01  8.57D-01
                    CP:  7.44D-01
 E= -4069.81174578387     Delta-E=       -0.000195620803 Rises=F Damp=F
 DIIS: error= 8.07D-05 at cycle   7 NSaved=   7.
 NSaved= 7 IEnMin= 7 EnMin= -4069.81174578387     IErMin= 7 ErrMin= 8.07D-05
 ErrMax= 8.07D-05  0.00D+00 EMaxC= 1.00D-01 BMatC= 2.18D-05 BMatP= 1.80D-04
 IDIUse=1 WtCom= 1.00D+00 WtEn= 0.00D+00
 Coeff-Com:  0.448D-02-0.980D-02-0.891D-02-0.358D-02 0.104D+00 0.332D+00
 Coeff-Com:  0.582D+00
 Coeff:      0.448D-02-0.980D-02-0.891D-02-0.358D-02 0.104D+00 0.332D+00
 Coeff:      0.582D+00
 Gap=     0.122 Goal=   None    Shift=    0.000
 RMSDP=6.58D-06 MaxDP=1.06D-03 DE=-1.96D-04 OVMax= 3.29D-03

 Cycle   8  Pass 1  IDiag  1:
 RMSU=  4.71D-06    CP:  9.64D-01  1.50D+00  6.87D-01  6.26D-01  8.60D-01
                    CP:  8.70D-01  8.18D-01
 E= -4069.81177279075     Delta-E=       -0.000027006881 Rises=F Damp=F
 DIIS: error= 4.99D-05 at cycle   8 NSaved=   8.
 NSaved= 8 IEnMin= 8 EnMin= -4069.81177279075     IErMin= 8 ErrMin= 4.99D-05
 ErrMax= 4.99D-05  0.00D+00 EMaxC= 1.00D-01 BMatC= 4.89D-06 BMatP= 2.18D-05
 IDIUse=1 WtCom= 1.00D+00 WtEn= 0.00D+00
 Coeff-Com:  0.217D-02-0.430D-02-0.779D-02-0.122D-01-0.111D-01 0.336D-01
 Coeff-Com:  0.339D+00 0.660D+00
 Coeff:      0.217D-02-0.430D-02-0.779D-02-0.122D-01-0.111D-01 0.336D-01
 Coeff:      0.339D+00 0.660D+00
 Gap=     0.122 Goal=   None    Shift=    0.000
 RMSDP=3.30D-06 MaxDP=3.43D-04 DE=-2.70D-05 OVMax= 1.07D-03

 Cycle   9  Pass 1  IDiag  1:
 RMSU=  1.92D-06    CP:  9.64D-01  1.50D+00  6.88D-01  6.27D-01  8.77D-01
                    CP:  8.96D-01  1.01D+00  9.46D-01
 E= -4069.81178060299     Delta-E=       -0.000007812247 Rises=F Damp=F
 DIIS: error= 2.01D-05 at cycle   9 NSaved=   9.
 NSaved= 9 IEnMin= 9 EnMin= -4069.81178060299     IErMin= 9 ErrMin= 2.01D-05
 ErrMax= 2.01D-05  0.00D+00 EMaxC= 1.00D-01 BMatC= 7.04D-07 BMatP= 4.89D-06
 IDIUse=1 WtCom= 1.00D+00 WtEn= 0.00D+00
 Coeff-Com:  0.472D-03-0.785D-03-0.269D-02-0.603D-02-0.211D-01-0.390D-01
 Coeff-Com:  0.103D+00 0.328D+00 0.639D+00
 Coeff:      0.472D-03-0.785D-03-0.269D-02-0.603D-02-0.211D-01-0.390D-01
 Coeff:      0.103D+00 0.328D+00 0.639D+00
 Gap=     0.122 Goal=   None    Shift=    0.000
 RMSDP=1.42D-06 MaxDP=1.44D-04 DE=-7.81D-06 OVMax= 7.55D-04

 Cycle  10  Pass 1  IDiag  1:
 RMSU=  9.44D-07    CP:  9.64D-01  1.50D+00  6.88D-01  6.28D-01  8.81D-01
                    CP:  9.10D-01  1.06D+00  1.11D+00  1.06D+00
 E= -4069.81178221589     Delta-E=       -0.000001612894 Rises=F Damp=F
 DIIS: error= 1.04D-05 at cycle  10 NSaved=  10.
 NSaved=10 IEnMin=10 EnMin= -4069.81178221589     IErMin=10 ErrMin= 1.04D-05
 ErrMax= 1.04D-05  0.00D+00 EMaxC= 1.00D-01 BMatC= 1.73D-07 BMatP= 7.04D-07
 IDIUse=1 WtCom= 1.00D+00 WtEn= 0.00D+00
 Coeff-Com: -0.427D-03 0.895D-03 0.123D-02 0.111D-02-0.375D-02-0.311D-01
 Coeff-Com: -0.454D-01-0.760D-01 0.250D+00 0.903D+00
 Coeff:     -0.427D-03 0.895D-03 0.123D-02 0.111D-02-0.375D-02-0.311D-01
 Coeff:     -0.454D-01-0.760D-01 0.250D+00 0.903D+00
 Gap=     0.122 Goal=   None    Shift=    0.000
 RMSDP=1.23D-06 MaxDP=1.21D-04 DE=-1.61D-06 OVMax= 6.22D-04

 Cycle  11  Pass 1  IDiag  1:
 RMSU=  5.21D-07    CP:  9.64D-01  1.50D+00  6.88D-01  6.28D-01  8.83D-01
                    CP:  9.20D-01  1.11D+00  1.22D+00  1.39D+00  1.37D+00
 E= -4069.81178301256     Delta-E=       -0.000000796677 Rises=F Damp=F
 DIIS: error= 4.06D-06 at cycle  11 NSaved=  11.
 NSaved=11 IEnMin=11 EnMin= -4069.81178301256     IErMin=11 ErrMin= 4.06D-06
 ErrMax= 4.06D-06  0.00D+00 EMaxC= 1.00D-01 BMatC= 6.37D-08 BMatP= 1.73D-07
 IDIUse=1 WtCom= 1.00D+00 WtEn= 0.00D+00
 Coeff-Com: -0.331D-03 0.645D-03 0.134D-02 0.213D-02 0.442D-02-0.855D-02
 Coeff-Com: -0.428D-01-0.133D+00-0.263D-01 0.472D+00 0.730D+00
 Coeff:     -0.331D-03 0.645D-03 0.134D-02 0.213D-02 0.442D-02-0.855D-02
 Coeff:     -0.428D-01-0.133D+00-0.263D-01 0.472D+00 0.730D+00
 Gap=     0.122 Goal=   None    Shift=    0.000
 RMSDP=6.92D-07 MaxDP=6.13D-05 DE=-7.97D-07 OVMax= 3.81D-04

 Cycle  12  Pass 1  IDiag  1:
 RMSU=  2.66D-07    CP:  9.64D-01  1.50D+00  6.88D-01  6.28D-01  8.84D-01
                    CP:  9.22D-01  1.13D+00  1.29D+00  1.56D+00  1.76D+00
                    CP:  1.20D+00
 E= -4069.81178328039     Delta-E=       -0.000000267824 Rises=F Damp=F
 DIIS: error= 2.49D-06 at cycle  12 NSaved=  12.
 NSaved=12 IEnMin=12 EnMin= -4069.81178328039     IErMin=12 ErrMin= 2.49D-06
 ErrMax= 2.49D-06  0.00D+00 EMaxC= 1.00D-01 BMatC= 1.55D-08 BMatP= 6.37D-08
 IDIUse=1 WtCom= 1.00D+00 WtEn= 0.00D+00
 Coeff-Com: -0.527D-05-0.631D-05 0.200D-03 0.540D-03 0.339D-02 0.386D-02
 Coeff-Com:  0.231D-02-0.363D-01-0.691D-01-0.660D-01 0.256D+00 0.906D+00
 Coeff:     -0.527D-05-0.631D-05 0.200D-03 0.540D-03 0.339D-02 0.386D-02
 Coeff:      0.231D-02-0.363D-01-0.691D-01-0.660D-01 0.256D+00 0.906D+00
 Gap=     0.122 Goal=   None    Shift=    0.000
 RMSDP=4.37D-07 MaxDP=3.11D-05 DE=-2.68D-07 OVMax= 2.52D-04

 Cycle  13  Pass 1  IDiag  1:
 RMSU=  1.67D-07    CP:  9.64D-01  1.50D+00  6.88D-01  6.28D-01  8.84D-01
                    CP:  9.22D-01  1.14D+00  1.32D+00  1.67D+00  1.98D+00
                    CP:  1.61D+00  1.26D+00
 E= -4069.81178337346     Delta-E=       -0.000000093067 Rises=F Damp=F
 DIIS: error= 1.27D-06 at cycle  13 NSaved=  13.
 NSaved=13 IEnMin=13 EnMin= -4069.81178337346     IErMin=13 ErrMin= 1.27D-06
 ErrMax= 1.27D-06  0.00D+00 EMaxC= 1.00D-01 BMatC= 8.47D-09 BMatP= 1.55D-08
 IDIUse=1 WtCom= 1.00D+00 WtEn= 0.00D+00
 Coeff-Com:  0.120D-03-0.245D-03-0.368D-03-0.453D-03 0.623D-03 0.504D-02
 Coeff-Com:  0.194D-01 0.227D-01-0.337D-01-0.240D+00-0.156D+00 0.594D+00
 Coeff-Com:  0.790D+00
 Coeff:      0.120D-03-0.245D-03-0.368D-03-0.453D-03 0.623D-03 0.504D-02
 Coeff:      0.194D-01 0.227D-01-0.337D-01-0.240D+00-0.156D+00 0.594D+00
 Coeff:      0.790D+00
 Gap=     0.122 Goal=   None    Shift=    0.000
 RMSDP=3.45D-07 MaxDP=2.32D-05 DE=-9.31D-08 OVMax= 2.04D-04

 Cycle  14  Pass 1  IDiag  1:
 RMSU=  7.69D-08    CP:  9.64D-01  1.50D+00  6.88D-01  6.28D-01  8.84D-01
                    CP:  9.23D-01  1.14D+00  1.34D+00  1.75D+00  2.18D+00
                    CP:  1.87D+00  1.77D+00  1.09D+00
 E= -4069.81178341069     Delta-E=       -0.000000037235 Rises=F Damp=F
 DIIS: error= 6.94D-07 at cycle  14 NSaved=  14.
 NSaved=14 IEnMin=14 EnMin= -4069.81178341069     IErMin=14 ErrMin= 6.94D-07
 ErrMax= 6.94D-07  0.00D+00 EMaxC= 1.00D-01 BMatC= 1.30D-09 BMatP= 8.47D-09
 IDIUse=1 WtCom= 1.00D+00 WtEn= 0.00D+00
 Coeff-Com:  0.673D-04-0.133D-03-0.249D-03-0.391D-03-0.473D-03 0.129D-02
 Coeff-Com:  0.107D-01 0.194D-01 0.393D-02-0.101D+00-0.143D+00 0.906D-01
 Coeff-Com:  0.406D+00 0.713D+00
 Coeff:      0.673D-04-0.133D-03-0.249D-03-0.391D-03-0.473D-03 0.129D-02
 Coeff:      0.107D-01 0.194D-01 0.393D-02-0.101D+00-0.143D+00 0.906D-01
 Coeff:      0.406D+00 0.713D+00
 Gap=     0.122 Goal=   None    Shift=    0.000
 RMSDP=1.04D-07 MaxDP=6.85D-06 DE=-3.72D-08 OVMax= 5.68D-05

 Cycle  15  Pass 1  IDiag  1:
 RMSU=  3.85D-08    CP:  9.64D-01  1.50D+00  6.88D-01  6.28D-01  8.84D-01
                    CP:  9.23D-01  1.15D+00  1.34D+00  1.76D+00  2.22D+00
                    CP:  1.97D+00  1.91D+00  1.33D+00  1.03D+00
 E= -4069.81178341518     Delta-E=       -0.000000004493 Rises=F Damp=F
 DIIS: error= 3.22D-07 at cycle  15 NSaved=  15.
 NSaved=15 IEnMin=15 EnMin= -4069.81178341518     IErMin=15 ErrMin= 3.22D-07
 ErrMax= 3.22D-07  0.00D+00 EMaxC= 1.00D-01 BMatC= 2.26D-10 BMatP= 1.30D-09
 IDIUse=1 WtCom= 1.00D+00 WtEn= 0.00D+00
 Coeff-Com:  0.569D-05-0.959D-05-0.338D-04-0.835D-04-0.299D-03-0.512D-03
 Coeff-Com:  0.117D-02 0.263D-02 0.876D-02 0.115D-02-0.307D-01-0.726D-01
 Coeff-Com:  0.314D-01 0.294D+00 0.765D+00
 Coeff:      0.569D-05-0.959D-05-0.338D-04-0.835D-04-0.299D-03-0.512D-03
 Coeff:      0.117D-02 0.263D-02 0.876D-02 0.115D-02-0.307D-01-0.726D-01
 Coeff:      0.314D-01 0.294D+00 0.765D+00
 Gap=     0.122 Goal=   None    Shift=    0.000
 RMSDP=4.00D-08 MaxDP=2.67D-06 DE=-4.49D-09 OVMax= 2.77D-05

 Cycle  16  Pass 1  IDiag  1:
 RMSU=  1.87D-08    CP:  9.64D-01  1.50D+00  6.88D-01  6.28D-01  8.84D-01
                    CP:  9.23D-01  1.15D+00  1.35D+00  1.77D+00  2.24D+00
                    CP:  2.00D+00  1.97D+00  1.41D+00  1.24D+00  1.15D+00
 E= -4069.81178341574     Delta-E=       -0.000000000560 Rises=F Damp=F
 DIIS: error= 1.79D-07 at cycle  16 NSaved=  16.
 NSaved=16 IEnMin=16 EnMin= -4069.81178341574     IErMin=16 ErrMin= 1.79D-07
 ErrMax= 1.79D-07  0.00D+00 EMaxC= 1.00D-01 BMatC= 8.46D-11 BMatP= 2.26D-10
 IDIUse=1 WtCom= 1.00D+00 WtEn= 0.00D+00
 Coeff-Com: -0.141D-04 0.286D-04 0.466D-04 0.529D-04-0.292D-04-0.631D-03
 Coeff-Com: -0.192D-02-0.424D-02 0.444D-02 0.253D-01 0.208D-01-0.642D-01
 Coeff-Com: -0.813D-01-0.399D-01 0.399D+00 0.742D+00
 Coeff:     -0.141D-04 0.286D-04 0.466D-04 0.529D-04-0.292D-04-0.631D-03
 Coeff:     -0.192D-02-0.424D-02 0.444D-02 0.253D-01 0.208D-01-0.642D-01
 Coeff:     -0.813D-01-0.399D-01 0.399D+00 0.742D+00
 Gap=     0.122 Goal=   None    Shift=    0.000
 RMSDP=2.32D-08 MaxDP=1.63D-06 DE=-5.60D-10 OVMax= 1.25D-05

 Cycle  17  Pass 1  IDiag  1:
 RMSU=  1.04D-08    CP:  9.64D-01  1.50D+00  6.88D-01  6.28D-01  8.84D-01
                    CP:  9.23D-01  1.15D+00  1.35D+00  1.77D+00  2.24D+00
                    CP:  2.01D+00  2.00D+00  1.46D+00  1.34D+00  1.44D+00
                    CP:  1.25D+00
 E= -4069.81178341612     Delta-E=       -0.000000000378 Rises=F Damp=F
 DIIS: error= 9.37D-08 at cycle  17 NSaved=  17.
 NSaved=17 IEnMin=17 EnMin= -4069.81178341612     IErMin=17 ErrMin= 9.37D-08
 ErrMax= 9.37D-08  0.00D+00 EMaxC= 1.00D-01 BMatC= 1.80D-11 BMatP= 8.46D-11
 IDIUse=1 WtCom= 1.00D+00 WtEn= 0.00D+00
 Coeff-Com: -0.726D-05 0.141D-04 0.287D-04 0.426D-04 0.832D-04-0.126D-03
 Coeff-Com: -0.940D-03-0.281D-02 0.108D-03 0.929D-02 0.175D-01-0.741D-02
 Coeff-Com: -0.358D-01-0.102D+00-0.283D-01 0.290D+00 0.860D+00
 Coeff:     -0.726D-05 0.141D-04 0.287D-04 0.426D-04 0.832D-04-0.126D-03
 Coeff:     -0.940D-03-0.281D-02 0.108D-03 0.929D-02 0.175D-01-0.741D-02
 Coeff:     -0.358D-01-0.102D+00-0.283D-01 0.290D+00 0.860D+00
 Gap=     0.122 Goal=   None    Shift=    0.000
 RMSDP=1.37D-08 MaxDP=1.05D-06 DE=-3.78D-10 OVMax= 9.26D-06

 Cycle  18  Pass 1  IDiag  1:
 RMSU=  4.94D-09    CP:  9.64D-01  1.50D+00  6.88D-01  6.28D-01  8.84D-01
                    CP:  9.23D-01  1.15D+00  1.35D+00  1.77D+00  2.24D+00
                    CP:  2.02D+00  2.00D+00  1.47D+00  1.41D+00  1.61D+00
                    CP:  1.65D+00  1.39D+00
 E= -4069.81178341614     Delta-E=       -0.000000000015 Rises=F Damp=F
 DIIS: error= 5.88D-08 at cycle  18 NSaved=  18.
 NSaved=18 IEnMin=18 EnMin= -4069.81178341614     IErMin=18 ErrMin= 5.88D-08
 ErrMax= 5.88D-08  0.00D+00 EMaxC= 1.00D-01 BMatC= 7.27D-12 BMatP= 1.80D-11
 IDIUse=1 WtCom= 1.00D+00 WtEn= 0.00D+00
 Coeff-Com:  0.184D-05-0.400D-05-0.381D-05-0.674D-06 0.605D-04 0.176D-03
 Coeff-Com:  0.371D-03 0.162D-03-0.125D-02-0.585D-02 0.184D-03 0.193D-01
 Coeff-Com:  0.175D-01-0.335D-01-0.160D+00-0.187D+00 0.364D+00 0.986D+00
 Coeff:      0.184D-05-0.400D-05-0.381D-05-0.674D-06 0.605D-04 0.176D-03
 Coeff:      0.371D-03 0.162D-03-0.125D-02-0.585D-02 0.184D-03 0.193D-01
 Coeff:      0.175D-01-0.335D-01-0.160D+00-0.187D+00 0.364D+00 0.986D+00
 Gap=     0.122 Goal=   None    Shift=    0.000
 RMSDP=1.16D-08 MaxDP=7.82D-07 DE=-1.46D-11 OVMax= 6.34D-06

 Cycle  19  Pass 1  IDiag  1:
 RMSU=  2.88D-09    CP:  9.64D-01  1.50D+00  6.88D-01  6.28D-01  8.84D-01
                    CP:  9.23D-01  1.15D+00  1.35D+00  1.77D+00  2.24D+00
                    CP:  2.02D+00  2.01D+00  1.49D+00  1.45D+00  1.76D+00
                    CP:  1.98D+00  1.93D+00  1.34D+00
 E= -4069.81178341622     Delta-E=       -0.000000000087 Rises=F Damp=F
 DIIS: error= 3.06D-08 at cycle  19 NSaved=  19.
 NSaved=19 IEnMin=19 EnMin= -4069.81178341622     IErMin=19 ErrMin= 3.06D-08
 ErrMax= 3.06D-08  0.00D+00 EMaxC= 1.00D-01 BMatC= 1.57D-12 BMatP= 7.27D-12
 IDIUse=1 WtCom= 1.00D+00 WtEn= 0.00D+00
 Coeff-Com:  0.292D-05-0.589D-05-0.988D-05-0.122D-04 0.129D-04 0.121D-03
 Coeff-Com:  0.474D-03 0.795D-03-0.600D-03-0.601D-02-0.480D-02 0.122D-01
 Coeff-Com:  0.204D-01 0.109D-01-0.717D-01-0.182D+00-0.244D-01 0.504D+00
 Coeff-Com:  0.741D+00
 Coeff:      0.292D-05-0.589D-05-0.988D-05-0.122D-04 0.129D-04 0.121D-03
 Coeff:      0.474D-03 0.795D-03-0.600D-03-0.601D-02-0.480D-02 0.122D-01
 Coeff:      0.204D-01 0.109D-01-0.717D-01-0.182D+00-0.244D-01 0.504D+00
 Coeff:      0.741D+00
 Gap=     0.122 Goal=   None    Shift=    0.000
 RMSDP=4.64D-09 MaxDP=3.34D-07 DE=-8.73D-11 OVMax= 3.30D-06

 SCF Done:  E(RCAM-B3LYP) =  -4069.81178342     A.U. after   19 cycles
            NFock= 19  Conv=0.46D-08     -V/T= 2.0102
 KE= 4.028802077467D+03 PE=-3.695979179830D+04 EE= 1.512174421636D+04
 Leave Link  502 at Sat Sep  4 15:28:18 2021, MaxMem= 23488102400 cpu:           11832.7 elap:             516.7
 (Enter /sw/apps/gaussian-16.0/g16/l801.exe)
 DoSCS=F DFT=T ScalE2(SS,OS)=  1.000000  1.000000
 ExpMin= 3.36D-02 ExpMax= 4.95D+03 ExpMxC= 7.45D+02 IAcc=3 IRadAn=         5 AccDes= 0.00D+00
 HarFok:  IExCor=  205 AccDes= 0.00D+00 IRadAn=         5 IDoV=-2 UseB2=F ITyADJ=14
 ICtDFT= 12500011 ScaDFX=  1.000000  1.000000  1.000000  1.000000
 GSVD:  LWork=       -9588 too small for GESVD, short by       45590 words or       45590 for optimal perf.
 Largest valence mixing into a core orbital is  2.03D-04
 Largest core mixing into a valence orbital is  5.24D-05
 Range of M.O.s used for correlation:    95  1572
 NBasis=  1572 NAE=   312 NBE=   312 NFC=    94 NFV=     0
 NROrb=   1478 NOA=   218 NOB=   218 NVA=  1260 NVB=  1260
 Leave Link  801 at Sat Sep  4 15:28:19 2021, MaxMem= 23488102400 cpu:               8.6 elap:               0.4
 (Enter /sw/apps/gaussian-16.0/g16/l914.exe)
 RHF ground state
 Two-electron integrals replicated using symmetry.
 MDV= 23488102400 DFT=T DoStab=F Mixed=T DoRPA=T DoScal=F NonHer=T
 Making orbital integer symmetry assigments:
 Orbital symmetries:
       Occupied  (A) (A) (A) (A) (A) (A) (A) (A) (A) (A) (A) (A)
                 (A) (A) (A) (A) (A) (A) (A) (A) (A) (A) (A) (A)
                 (A) (A) (A) (A) (A) (A) (A) (A) (A) (A) (A) (A)
                 (A) (A) (A) (A) (A) (A) (A) (A) (A) (A) (A) (A)
                 (A) (A) (A) (A) (A) (A) (A) (A) (A) (A) (A) (A)
                 (A) (A) (A) (A) (A) (A) (A) (A) (A) (A) (A) (A)
                 (A) (A) (A) (A) (A) (A) (A) (A) (A) (A) (A) (A)
                 (A) (A) (A) (A) (A) (A) (A) (A) (A) (A) (A) (A)
                 (A) (A) (A) (A) (A) (A) (A) (A) (A) (A) (A) (A)
                 (A) (A) (A) (A) (A) (A) (A) (A) (A) (A) (A) (A)
                 (A) (A) (A) (A) (A) (A) (A) (A) (A) (A) (A) (A)
                 (A) (A) (A) (A) (A) (A) (A) (A) (A) (A) (A) (A)
                 (A) (A) (A) (A) (A) (A) (A) (A) (A) (A) (A) (A)
                 (A) (A) (A) (A) (A) (A) (A) (A) (A) (A) (A) (A)
                 (A) (A) (A) (A) (A) (A) (A) (A) (A) (A) (A) (A)
                 (A) (A) (A) (A) (A) (A) (A) (A) (A) (A) (A) (A)
                 (A) (A) (A) (A) (A) (A) (A) (A) (A) (A) (A) (A)
                 (A) (A) (A) (A) (A) (A) (A) (A) (A) (A) (A) (A)
                 (A) (A) (A) (A) (A) (A) (A) (A) (A) (A) (A) (A)
                 (A) (A) (A) (A) (A) (A) (A) (A) (A) (A) (A) (A)
                 (A) (A) (A) (A) (A) (A) (A) (A) (A) (A) (A) (A)
                 (A) (A) (A) (A) (A) (A) (A) (A) (A) (A) (A) (A)
                 (A) (A) (A) (A) (A) (A) (A) (A) (A) (A) (A) (A)
                 (A) (A) (A) (A) (A) (A) (A) (A) (A) (A) (A) (A)
                 (A) (A) (A) (A) (A) (A) (A) (A) (A) (A) (A) (A)
                 (A) (A) (A) (A) (A) (A) (A) (A) (A) (A) (A) (A)
       Virtual   (A) (A) (A) (A) (A) (A) (A) (A) (A) (A) (A) (A)
                 (A) (A) (A) (A) (A) (A) (A) (A) (A) (A) (A) (A)
                 (A) (A) (A) (A) (A) (A) (A) (A) (A) (A) (A) (A)
                 (A) (A) (A) (A) (A) (A) (A) (A) (A) (A) (A) (A)
                 (A) (A) (A) (A) (A) (A) (A) (A) (A) (A) (A) (A)
                 (A) (A) (A) (A) (A) (A) (A) (A) (A) (A) (A) (A)
                 (A) (A) (A) (A) (A) (A) (A) (A) (A) (A) (A) (A)
                 (A) (A) (A) (A) (A) (A) (A) (A) (A) (A) (A) (A)
                 (A) (A) (A) (A) (A) (A) (A) (A) (A) (A) (A) (A)
                 (A) (A) (A) (A) (A) (A) (A) (A) (A) (A) (A) (A)
                 (A) (A) (A) (A) (A) (A) (A) (A) (A) (A) (A) (A)
                 (A) (A) (A) (A) (A) (A) (A) (A) (A) (A) (A) (A)
                 (A) (A) (A) (A) (A) (A) (A) (A) (A) (A) (A) (A)
                 (A) (A) (A) (A) (A) (A) (A) (A) (A) (A) (A) (A)
                 (A) (A) (A) (A) (A) (A) (A) (A) (A) (A) (A) (A)
                 (A) (A) (A) (A) (A) (A) (A) (A) (A) (A) (A) (A)
                 (A) (A) (A) (A) (A) (A) (A) (A) (A) (A) (A) (A)
                 (A) (A) (A) (A) (A) (A) (A) (A) (A) (A) (A) (A)
                 (A) (A) (A) (A) (A) (A) (A) (A) (A) (A) (A) (A)
                 (A) (A) (A) (A) (A) (A) (A) (A) (A) (A) (A) (A)
                 (A) (A) (A) (A) (A) (A) (A) (A) (A) (A) (A) (A)
                 (A) (A) (A) (A) (A) (A) (A) (A) (A) (A) (A) (A)
                 (A) (A) (A) (A) (A) (A) (A) (A) (A) (A) (A) (A)
                 (A) (A) (A) (A) (A) (A) (A) (A) (A) (A) (A) (A)
                 (A) (A) (A) (A) (A) (A) (A) (A) (A) (A) (A) (A)
                 (A) (A) (A) (A) (A) (A) (A) (A) (A) (A) (A) (A)
                 (A) (A) (A) (A) (A) (A) (A) (A) (A) (A) (A) (A)
                 (A) (A) (A) (A) (A) (A) (A) (A) (A) (A) (A) (A)
                 (A) (A) (A) (A) (A) (A) (A) (A) (A) (A) (A) (A)
                 (A) (A) (A) (A) (A) (A) (A) (A) (A) (A) (A) (A)
                 (A) (A) (A) (A) (A) (A) (A) (A) (A) (A) (A) (A)
                 (A) (A) (A) (A) (A) (A) (A) (A) (A) (A) (A) (A)
                 (A) (A) (A) (A) (A) (A) (A) (A) (A) (A) (A) (A)
                 (A) (A) (A) (A) (A) (A) (A) (A) (A) (A) (A) (A)
                 (A) (A) (A) (A) (A) (A) (A) (A) (A) (A) (A) (A)
                 (A) (A) (A) (A) (A) (A) (A) (A) (A) (A) (A) (A)
                 (A) (A) (A) (A) (A) (A) (A) (A) (A) (A) (A) (A)
                 (A) (A) (A) (A) (A) (A) (A) (A) (A) (A) (A) (A)
                 (A) (A) (A) (A) (A) (A) (A) (A) (A) (A) (A) (A)
                 (A) (A) (A) (A) (A) (A) (A) (A) (A) (A) (A) (A)
                 (A) (A) (A) (A) (A) (A) (A) (A) (A) (A) (A) (A)
                 (A) (A) (A) (A) (A) (A) (A) (A) (A) (A) (A) (A)
                 (A) (A) (A) (A) (A) (A) (A) (A) (A) (A) (A) (A)
                 (A) (A) (A) (A) (A) (A) (A) (A) (A) (A) (A) (A)
                 (A) (A) (A) (A) (A) (A) (A) (A) (A) (A) (A) (A)
                 (A) (A) (A) (A) (A) (A) (A) (A) (A) (A) (A) (A)
                 (A) (A) (A) (A) (A) (A) (A) (A) (A) (A) (A) (A)
                 (A) (A) (A) (A) (A) (A) (A) (A) (A) (A) (A) (A)
                 (A) (A) (A) (A) (A) (A) (A) (A) (A) (A) (A) (A)
                 (A) (A) (A) (A) (A) (A) (A) (A) (A) (A) (A) (A)
                 (A) (A) (A) (A) (A) (A) (A) (A) (A) (A) (A) (A)
                 (A) (A) (A) (A) (A) (A) (A) (A) (A) (A) (A) (A)
                 (A) (A) (A) (A) (A) (A) (A) (A) (A) (A) (A) (A)
                 (A) (A) (A) (A) (A) (A) (A) (A) (A) (A) (A) (A)
                 (A) (A) (A) (A) (A) (A) (A) (A) (A) (A) (A) (A)
                 (A) (A) (A) (A) (A) (A) (A) (A) (A) (A) (A) (A)
                 (A) (A) (A) (A) (A) (A) (A) (A) (A) (A) (A) (A)
                 (A) (A) (A) (A) (A) (A) (A) (A) (A) (A) (A) (A)
                 (A) (A) (A) (A) (A) (A) (A) (A) (A) (A) (A) (A)
                 (A) (A) (A) (A) (A) (A) (A) (A) (A) (A) (A) (A)
                 (A) (A) (A) (A) (A) (A) (A) (A) (A) (A) (A) (A)
                 (A) (A) (A) (A) (A) (A) (A) (A) (A) (A) (A) (A)
                 (A) (A) (A) (A) (A) (A) (A) (A) (A) (A) (A) (A)
                 (A) (A) (A) (A) (A) (A) (A) (A) (A) (A) (A) (A)
                 (A) (A) (A) (A) (A) (A) (A) (A) (A) (A) (A) (A)
                 (A) (A) (A) (A) (A) (A) (A) (A) (A) (A) (A) (A)
                 (A) (A) (A) (A) (A) (A) (A) (A) (A) (A) (A) (A)
                 (A) (A) (A) (A) (A) (A) (A) (A) (A) (A) (A) (A)
                 (A) (A) (A) (A) (A) (A) (A) (A) (A) (A) (A) (A)
                 (A) (A) (A) (A) (A) (A) (A) (A) (A) (A) (A) (A)
                 (A) (A) (A) (A) (A) (A) (A) (A) (A) (A) (A) (A)
                 (A) (A) (A) (A) (A) (A) (A) (A) (A) (A) (A) (A)
                 (A) (A) (A) (A) (A) (A) (A) (A) (A) (A) (A) (A)
                 (A) (A) (A) (A) (A) (A) (A) (A) (A) (A) (A) (A)
                 (A) (A) (A) (A) (A) (A) (A) (A) (A) (A) (A) (A)
                 (A) (A) (A) (A) (A) (A) (A) (A) (A) (A) (A) (A)
                 (A) (A) (A) (A) (A) (A) (A) (A) (A) (A) (A) (A)
                 (A) (A) (A) (A) (A) (A) (A) (A) (A) (A) (A) (A)
                 (A) (A) (A) (A) (A) (A) (A) (A) (A) (A) (A) (A)
                 (A) (A) (A) (A) (A) (A) (A) (A) (A) (A) (A) (A)
                 (A) (A) (A) (A) (A) (A) (A) (A) (A) (A) (A) (A)
                 (A) (A) (A) (A) (A) (A) (A) (A) (A) (A) (A) (A)
                 (A) (A) (A) (A) (A) (A) (A) (A) (A) (A) (A) (A)
                 (A) (A) (A) (A) (A) (A) (A) (A) (A) (A) (A) (A)
                 (A) (A) (A) (A) (A) (A) (A) (A) (A) (A) (A) (A)
                 (A) (A) (A) (A) (A) (A) (A) (A) (A) (A) (A) (A)
                 (A) (A) (A) (A) (A) (A) (A) (A) (A) (A) (A) (A)
                 (A) (A) (A) (A) (A) (A) (A) (A) (A) (A) (A) (A)
                 (A) (A) (A) (A) (A) (A) (A) (A) (A) (A) (A) (A)
                 (A) (A) (A) (A) (A) (A) (A) (A) (A) (A) (A) (A)
                 (A) (A) (A) (A) (A) (A) (A) (A) (A) (A) (A) (A)
                 (A) (A) (A) (A) (A) (A) (A) (A) (A) (A) (A) (A)
                 (A) (A) (A) (A) (A) (A) (A) (A) (A) (A) (A) (A)
                 (A) (A) (A) (A) (A) (A) (A) (A) (A) (A) (A) (A)
                 (A) (A) (A) (A) (A) (A) (A) (A) (A) (A) (A) (A)
                 (A) (A) (A) (A) (A) (A) (A) (A) (A) (A) (A) (A)
                 (A) (A) (A) (A) (A) (A) (A) (A) (A) (A) (A) (A)
                 (A) (A) (A) (A) (A) (A) (A) (A) (A) (A) (A) (A)
                 (A) (A) (A) (A) (A) (A) (A) (A) (A) (A) (A) (A)
                 (A) (A) (A) (A) (A) (A) (A) (A) (A) (A) (A) (A)
                 (A) (A) (A) (A) (A) (A) (A) (A) (A) (A) (A) (A)
                 (A) (A) (A) (A) (A) (A) (A) (A) (A) (A) (A) (A)
                 (A) (A) (A) (A) (A) (A) (A) (A) (A) (A) (A) (A)
                 (A) (A) (A) (A) (A) (A) (A) (A) (A) (A) (A) (A)
                 (A) (A) (A) (A) (A) (A) (A) (A) (A) (A) (A) (A)
    20 initial guesses have been made.
 Convergence on wavefunction:    0.001000000000000
 Davidson Disk Diagonalization:  ConvIn= 1.00D-03 SkipCon=T Conv= 1.00D-03.
 Max sub-space:  2000 roots to seek:    20 dimension of matrix:       549360
 Iteration     1 Dimension    20 NMult     0 NNew     20
 CISAX will form    20 AO SS matrices at one time.
 NMat=    20 NSing=    20 JSym2X= 0.
 FoFJK:  IHMeth= 1 ICntrl=       0 DoSepK=T KAlg= 0 I1Cent=           0 FoldK=F
 IRaf=         1 NMat=      40 IRICut=       1 DoRegI=T DoRafI=F ISym2E= 0 IDoP0=3 IntGTp=3.
 FoFCou: FMM=T IPFlag=           0 FMFlag=      100000 FMFlg1=        2001
         NFxFlg=           0 DoJE=F BraDBF=F KetDBF=F FulRan=T
         wScrn=  0.000000 ICntrl=       500 IOpCl=  0 I1Cent=           0 NGrid=           0
         NMat0=   20 NMatS0=     20 NMatT0=    0 NMatD0=   20 NMtDS0=    0 NMtDT0=    0
 Symmetry not used in FoFCou.
 FMM levels:  10  Number of levels for PrismC:   9
 New state      1 was old state      7
 New state      2 was old state      6
 New state      3 was old state      2
 New state      4 was old state      3
 New state      5 was old state      1
 Excitation Energies [eV] at current iteration:
 Root      1 :     2.613570377487128
 Root      2 :     2.620043806960429
 Root      3 :     2.671386605717799
 Root      4 :     2.699084968385653
 Root      5 :     2.764017701315236
 Root      6 :     2.825611408399713
 Root      7 :     3.554795750947215
 Root      8 :     3.627283741974902
 Root      9 :     3.627667228257170
 Root     10 :     3.669152609245036
 Root     11 :     3.737622735027201
 Root     12 :     3.759244251148043
 Root     13 :     4.293903386898753
 Root     14 :     4.314854366301919
 Root     15 :     4.672583701476384
 Root     16 :     4.759461618301273
 Root     17 :     4.976675242887143
 Root     18 :     5.011447155760609
 Root     19 :     5.051745777888358
 Root     20 :     5.085645763573226
 Iteration     2 Dimension    30 NMult    20 NNew     10
 CISAX will form    10 AO SS matrices at one time.
 NMat=    10 NSing=    10 JSym2X= 0.
 New state      1 was old state      3
 Root      1 not converged, maximum delta is    0.159658811361023
 New state      2 was old state      4
 Root      2 not converged, maximum delta is    0.163122115626198
 New state      3 was old state      2
 Root      3 not converged, maximum delta is    0.368888565464328
 New state      4 was old state      1
 Root      4 not converged, maximum delta is    0.361028157304678
 Root      5 has converged.
 Excitation Energies [eV] at current iteration:
 Root      1 :     1.797208053819672   Change is   -0.874178551898126
 Root      2 :     1.810932217564026   Change is   -0.888152750821627
 Root      3 :     2.235116825602607   Change is   -0.384926981357822
 Root      4 :     2.239683946576609   Change is   -0.373886430910520
 Root      5 :     2.763936316251892   Change is   -0.000081385063344
 Iteration     3 Dimension    38 NMult    30 NNew      8
 CISAX will form     8 AO SS matrices at one time.
 NMat=     8 NSing=     8 JSym2X= 0.
 Root      1 not converged, maximum delta is    0.057570895371755
 Root      2 not converged, maximum delta is    0.058614838328027
 Root      3 not converged, maximum delta is    0.098720567489179
 Root      4 not converged, maximum delta is    0.098315128903582
 Root      5 has converged.
 Excitation Energies [eV] at current iteration:
 Root      1 :     1.690170743601689   Change is   -0.107037310217984
 Root      2 :     1.702419921208073   Change is   -0.108512296355953
 Root      3 :     2.193553243005355   Change is   -0.041563582597252
 Root      4 :     2.200702594607103   Change is   -0.038981351969506
 Root      5 :     2.763936316251862   Change is   -0.000000000000030
 Iteration     4 Dimension    46 NMult    38 NNew      8
 CISAX will form     8 AO SS matrices at one time.
 NMat=     8 NSing=     8 JSym2X= 0.
 Root      1 not converged, maximum delta is    0.011148696120860
 Root      2 not converged, maximum delta is    0.011194641014182
 Root      3 not converged, maximum delta is    0.010671617859083
 Root      4 not converged, maximum delta is    0.010578054224046
 Root      5 has converged.
 Excitation Energies [eV] at current iteration:
 Root      1 :     1.673435113103018   Change is   -0.016735630498671
 Root      2 :     1.685565002073907   Change is   -0.016854919134166
 Root      3 :     2.186226277546229   Change is   -0.007326965459126
 Root      4 :     2.193922820757650   Change is   -0.006779773849453
 Root      5 :     2.763936316251892   Change is    0.000000000000030
 Iteration     5 Dimension    54 NMult    46 NNew      8
 CISAX will form     8 AO SS matrices at one time.
 NMat=     8 NSing=     8 JSym2X= 0.
 Root      1 not converged, maximum delta is    0.001817292162878
 Root      2 not converged, maximum delta is    0.001848162437813
 Root      3 not converged, maximum delta is    0.002492327143710
 Root      4 not converged, maximum delta is    0.002337713434881
 Root      5 has converged.
 Excitation Energies [eV] at current iteration:
 Root      1 :     1.671669035793400   Change is   -0.001766077309618
 Root      2 :     1.683782059075354   Change is   -0.001782942998553
 Root      3 :     2.185374119116662   Change is   -0.000852158429567
 Root      4 :     2.193149068497376   Change is   -0.000773752260274
 Root      5 :     2.763936316251772   Change is   -0.000000000000119
 Iteration     6 Dimension    62 NMult    54 NNew      8
 CISAX will form     8 AO SS matrices at one time.
 NMat=     8 NSing=     8 JSym2X= 0.
 Root      1 not converged, maximum delta is    0.001136708654563
 Root      2 not converged, maximum delta is    0.001150295088573
 Root      3 not converged, maximum delta is    0.001067027152779
 Root      4 has converged.
 Root      5 has converged.
 Excitation Energies [eV] at current iteration:
 Root      1 :     1.671417342361285   Change is   -0.000251693432115
 Root      2 :     1.683526078961681   Change is   -0.000255980113673
 Root      3 :     2.185244929537271   Change is   -0.000129189579391
 Root      4 :     2.193031278291519   Change is   -0.000117790205857
 Root      5 :     2.763936316251921   Change is    0.000000000000148
 Iteration     7 Dimension    68 NMult    62 NNew      6
 CISAX will form     6 AO SS matrices at one time.
 NMat=     6 NSing=     6 JSym2X= 0.
 Root      1 has converged.
 Root      2 has converged.
 Root      3 has converged.
 Root      4 has converged.
 Root      5 has converged.
 Excitation Energies [eV] at current iteration:
 Root      1 :     1.671392958293427   Change is   -0.000024384067859
 Root      2 :     1.683501735518431   Change is   -0.000024343443250
[...]
 Alpha virt. eigenvalues --    1.85146   1.85270   1.85356   1.85488   1.85511
 Alpha virt. eigenvalues --    1.85864   1.85928   1.86360   1.86404   1.86554
 Alpha virt. eigenvalues --    1.86676   1.86780   1.86841   1.87031   1.87069
 Alpha virt. eigenvalues --    1.87438   1.87512   1.87670   1.87802   1.87864
 Alpha virt. eigenvalues --    1.88036   1.88036   1.88205   1.88531   1.88603
 Alpha virt. eigenvalues --    1.88812   1.88978   1.89104   1.89126   1.89625
 Alpha virt. eigenvalues --    1.89682   1.89745   1.89893   1.90114   1.90218
 Alpha virt. eigenvalues --    1.90744   1.90927   1.91341   1.91437   1.91447
 Alpha virt. eigenvalues --    1.91638   1.92149   1.92219   1.92604   1.92693
 Alpha virt. eigenvalues --    1.92980   1.93177   1.93340   1.93521   1.94280
 Alpha virt. eigenvalues --    1.94328   1.94688   1.94835   1.95480   1.95609
 Alpha virt. eigenvalues --    1.95715   1.95848   1.95981   1.96076   1.96153
 Alpha virt. eigenvalues --    1.96207   1.96509   1.96590   1.96894   1.96963
 Alpha virt. eigenvalues --    1.97446   1.97568   1.97833   1.97833   1.98160
 Alpha virt. eigenvalues --    1.98203   1.98386   1.98651   1.99099   1.99124
 Alpha virt. eigenvalues --    1.99806   1.99967   2.00658   2.00751   2.00985
 Alpha virt. eigenvalues --    2.01126   2.01457   2.01523   2.01638   2.01672
 Alpha virt. eigenvalues --    2.01705   2.01859   2.02738   2.02776   2.03162
 Alpha virt. eigenvalues --    2.03232   2.03392   2.03408   2.03469   2.03550
 Alpha virt. eigenvalues --    2.04026   2.04052   2.04956   2.04995   2.05512
 Alpha virt. eigenvalues --    2.05646   2.06075   2.06306   2.06884   2.07070
 Alpha virt. eigenvalues --    2.07180   2.07374   2.08557   2.08589   2.08974
 Alpha virt. eigenvalues --    2.09033   2.09576   2.09637   2.10784   2.11047
 Alpha virt. eigenvalues --    2.11178   2.11430   2.11518   2.11566   2.11721
 Alpha virt. eigenvalues --    2.11892   2.12452   2.12498   2.12801   2.12821
 Alpha virt. eigenvalues --    2.12829   2.12901   2.13674   2.13742   2.14141
 Alpha virt. eigenvalues --    2.14270   2.15330   2.15424   2.15915   2.16116
 Alpha virt. eigenvalues --    2.16522   2.16615   2.16751   2.17197   2.17410
 Alpha virt. eigenvalues --    2.17663   2.17700   2.17970   2.18020   2.18071
 Alpha virt. eigenvalues --    2.18309   2.18704   2.18850   2.19271   2.19628
 Alpha virt. eigenvalues --    2.19848   2.20025   2.20205   2.20269   2.20465
 Alpha virt. eigenvalues --    2.21156   2.21182   2.21665   2.21733   2.21787
 Alpha virt. eigenvalues --    2.21899   2.22675   2.22727   2.23312   2.23361
 Alpha virt. eigenvalues --    2.24393   2.24432   2.24965   2.25013   2.26283
 Alpha virt. eigenvalues --    2.26469   2.26774   2.27031   2.27089   2.27230
 Alpha virt. eigenvalues --    2.28126   2.28351   2.29263   2.29461   2.29722
 Alpha virt. eigenvalues --    2.29907   2.30437   2.30657   2.30862   2.31069
 Alpha virt. eigenvalues --    2.31160   2.31220   2.32119   2.32253   2.33121
 Alpha virt. eigenvalues --    2.33262   2.33452   2.33504   2.34134   2.34162
 Alpha virt. eigenvalues --    2.35330   2.35349   2.35784   2.35939   2.36351
 Alpha virt. eigenvalues --    2.36355   2.36457   2.36616   2.37661   2.37690
 Alpha virt. eigenvalues --    2.38257   2.38387   2.38814   2.38834   2.39601
 Alpha virt. eigenvalues --    2.39688   2.40177   2.40279   2.40469   2.40859
 Alpha virt. eigenvalues --    2.41241   2.41245   2.41683   2.41705   2.42020
 Alpha virt. eigenvalues --    2.42154   2.42827   2.42945   2.43104   2.43495
 Alpha virt. eigenvalues --    2.43991   2.44152   2.44721   2.44822   2.44892
 Alpha virt. eigenvalues --    2.45013   2.45543   2.45585   2.46297   2.46299
 Alpha virt. eigenvalues --    2.46469   2.46508   2.46787   2.46819   2.47248
 Alpha virt. eigenvalues --    2.47390   2.47706   2.47897   2.49309   2.49394
 Alpha virt. eigenvalues --    2.49897   2.50068   2.50459   2.50548   2.51101
 Alpha virt. eigenvalues --    2.51290   2.51618   2.51869   2.52415   2.52420
 Alpha virt. eigenvalues --    2.52794   2.53187   2.53912   2.53977   2.54149
 Alpha virt. eigenvalues --    2.54277   2.54782   2.54817   2.55514   2.55675
 Alpha virt. eigenvalues --    2.57857   2.58085   2.58638   2.58915   2.60186
 Alpha virt. eigenvalues --    2.60323   2.60592   2.60943   2.61704   2.61827
 Alpha virt. eigenvalues --    2.62441   2.62516   2.62945   2.63137   2.63922
 Alpha virt. eigenvalues --    2.64237   2.64245   2.64424   2.65069   2.65108
 Alpha virt. eigenvalues --    2.65765   2.65878   2.66773   2.66819   2.66900
 Alpha virt. eigenvalues --    2.67071   2.67901   2.67990   2.68819   2.68844
 Alpha virt. eigenvalues --    2.69004   2.69048   2.69384   2.69603   2.69987
 Alpha virt. eigenvalues --    2.70141   2.70966   2.71081   2.71900   2.72036
 Alpha virt. eigenvalues --    2.72502   2.72637   2.72752   2.72795   2.73274
 Alpha virt. eigenvalues --    2.73280   2.73483   2.73498   2.74499   2.74511
 Alpha virt. eigenvalues --    2.74961   2.75060   2.76521   2.76585   2.77070
 Alpha virt. eigenvalues --    2.77218   2.77445   2.77602   2.78185   2.78282
 Alpha virt. eigenvalues --    2.78689   2.78712   2.79121   2.79161   2.80249
 Alpha virt. eigenvalues --    2.80333   2.80564   2.80696   2.81104   2.81150
 Alpha virt. eigenvalues --    2.81919   2.81995   2.82334   2.82334   2.83735
 Alpha virt. eigenvalues --    2.83760   2.83833   2.83911   2.84518   2.84539
 Alpha virt. eigenvalues --    2.84877   2.84879   2.85661   2.85679   2.86656
 Alpha virt. eigenvalues --    2.86982   2.87183   2.87576   2.88148   2.88221
 Alpha virt. eigenvalues --    2.88500   2.88614   2.88863   2.88925   2.90479
 Alpha virt. eigenvalues --    2.90662   2.91064   2.91185   2.93137   2.93324
 Alpha virt. eigenvalues --    2.93767   2.94189   2.94555   2.94555   2.95339
 Alpha virt. eigenvalues --    2.95484   2.95854   2.96169   2.96364   2.96429
 Alpha virt. eigenvalues --    2.96880   2.97146   2.97787   2.98012   2.98195
 Alpha virt. eigenvalues --    2.98360   2.98368   2.98574   2.98594   2.98779
 Alpha virt. eigenvalues --    2.98877   2.98912   2.99583   2.99778   3.00007
 Alpha virt. eigenvalues --    3.00024   3.00202   3.00320   3.00442   3.01000
 Alpha virt. eigenvalues --    3.01897   3.01984   3.02020   3.02120   3.02702
 Alpha virt. eigenvalues --    3.02818   3.02955   3.03309   3.03320   3.03724
 Alpha virt. eigenvalues --    3.04056   3.04166   3.04424   3.04447   3.04540
 Alpha virt. eigenvalues --    3.04719   3.05296   3.05335   3.06101   3.06157
 Alpha virt. eigenvalues --    3.06779   3.06939   3.07902   3.08141   3.09336
 Alpha virt. eigenvalues --    3.09378   3.09672   3.10424   3.10442   3.10743
 Alpha virt. eigenvalues --    3.11331   3.11462   3.11877   3.11916   3.12181
 Alpha virt. eigenvalues --    3.12312   3.13262   3.13638   3.13650   3.13671
 Alpha virt. eigenvalues --    3.14059   3.14485   3.15925   3.15963   3.17256
 Alpha virt. eigenvalues --    3.17512   3.17852   3.18077   3.19014   3.19123
 Alpha virt. eigenvalues --    3.22274   3.22602   3.23938   3.24433   3.24660
 Alpha virt. eigenvalues --    3.25191   3.26497   3.26649   3.27389   3.27611
 Alpha virt. eigenvalues --    3.29067   3.29228   3.31371   3.31515   3.33176
 Alpha virt. eigenvalues --    3.33411   3.40271   3.40591   3.42797   3.42813
 Alpha virt. eigenvalues --    3.48650   3.48692   3.50014   3.50273   3.50829
 Alpha virt. eigenvalues --    3.51467   3.56545   3.56993   3.59096   3.59327
 Alpha virt. eigenvalues --    3.62507   3.62829   3.66086   3.66185   3.67152
 Alpha virt. eigenvalues --    3.67551   3.73244   3.74026   3.76035   3.76683
          Condensed to atoms (all electrons):
 Mulliken charges:
               1
     1  Mg   0.838640
     2  C   -0.003121
     3  C   -0.094248
     4  C   -0.045808
     5  C   -0.063819
     6  N   -0.256766
     7  C   -0.052541
     8  C   -0.014010
     9  C   -0.086970
    10  C    0.046234
    11  C    0.104796
    12  C    0.053528
    13  C   -0.071568
    14  H    0.035406
    15  N   -0.433145
    16  C    0.168360
    17  C   -0.177184
    18  C   -0.003969
    19  C    0.148690
    20  C    0.110177
    21  C    0.012303
    22  O   -0.249532
    23  C    0.062476
    24  N   -0.341130
    25  C    0.041241
    26  C   -0.028186
    27  C   -0.024019
    28  C    0.074799
    29  C    0.076144
    30  C    0.035103
    31  C   -0.004541
    32  N   -0.310489
    33  C    0.080385
    34  C   -0.169555
    35  C    0.008374
    36  C    0.082952
    37  C    0.127285
    38  C    0.046120
    39  O   -0.188391
    40  C   -0.005344
    41  C    0.212904
    42  O   -0.257387
    43  O   -0.304678
    44  C    0.157804
    45  H   -0.017616
    46  H   -0.016740
    47  H   -0.041275
    48  H    0.000952
    49  H   -0.004180
    50  H    0.025520
    51  H    0.016571
    52  H    0.016656
    53  H    0.011061
    54  H    0.043883
    55  H    0.018070
    56  H    0.017894
    57  H    0.005781
    58  H    0.026924
    59  H    0.039484
    60  H    0.037371
    61  H    0.035790
    62  H    0.031451
    63  H    0.016588
    64  H    0.009578
    65  H    0.023290
    66  H    0.012542
    67  H    0.004854
    68  H    0.006464
    69  H    0.004928
    70  H    0.008712
    71  H    0.018360
    72  H    0.028838
    73  H    0.047721
    74  H    0.009315
    75  H    0.046074
    76  H    0.035213
    77  H    0.043034
    78  H    0.046245
    79  H    0.053327
    80  Mg   0.837956
    81  C   -0.016761
    82  C   -0.087732
    83  C   -0.045634
    84  C   -0.064886
    85  N   -0.254597
    86  C   -0.049545
    87  C   -0.015177
    88  C   -0.090532
    89  C    0.045824
    90  C    0.114340
    91  C    0.062529
    92  C   -0.077852
    93  H    0.034651
    94  N   -0.423468
    95  C    0.162875
    96  C   -0.174725
    97  C   -0.008019
    98  C    0.152134
    99  C    0.099449
   100  C    0.015408
   101  O   -0.253401
   102  C    0.061265
   103  N   -0.350058
   104  C    0.037539
   105  C   -0.019815
   106  C   -0.034831
   107  C    0.088996
   108  C    0.073671
   109  C    0.034770
   110  C   -0.007640
   111  N   -0.324143
   112  C    0.078563
   113  C   -0.163106
   114  C    0.002416
   115  C    0.096203
   116  C    0.131448
   117  C    0.042489
   118  O   -0.187688
   119  C    0.000889
   120  C    0.211197
   121  O   -0.251243
   122  O   -0.305365
   123  C    0.152095
   124  H   -0.019667
   125  H   -0.015799
   126  H   -0.040548
   127  H   -0.000113
   128  H   -0.004548
   129  H    0.023306
   130  H    0.014467
   131  H    0.016614
   132  H    0.013699
   133  H    0.037552
   134  H    0.021208
   135  H    0.019418
   136  H    0.008758
   137  H    0.025781
   138  H    0.039555
   139  H    0.038030
   140  H    0.036116
   141  H    0.033867
   142  H    0.014209
   143  H    0.012485
   144  H    0.024905
   145  H    0.011704
   146  H    0.005792
   147  H    0.006136
   148  H    0.003603
   149  H    0.010830
   150  H    0.017799
   151  H    0.030174
   152  H    0.045929
   153  H    0.008350
   154  H    0.047219
   155  H    0.035762
   156  H    0.044057
   157  H    0.049505
   158  H    0.053358
 Sum of Mulliken charges =  -0.00000
 Mulliken charges with hydrogens summed into heavy atoms:
               1
     1  Mg   0.838640
     2  C   -0.003121
     3  C   -0.111864
     4  C   -0.062548
     5  C   -0.105095
     6  N   -0.256766
     7  C   -0.052541
     8  C   -0.013058
     9  C   -0.091150
    10  C    0.046234
    11  C    0.163543
    12  C    0.108472
    13  C   -0.000199
    15  N   -0.433145
    16  C    0.168360
    17  C   -0.177184
    18  C   -0.003969
    19  C    0.148690
    20  C    0.182367
    21  C    0.012303
    22  O   -0.249532
    23  C    0.167087
    24  N   -0.341130
    25  C    0.041241
    26  C   -0.011598
    27  C   -0.014441
    28  C    0.074799
    29  C    0.116831
    30  C    0.046496
    31  C    0.051369
    32  N   -0.310489
    33  C    0.080385
    34  C   -0.169555
    35  C    0.008374
    36  C    0.082952
    37  C    0.230394
    38  C    0.046120
    39  O   -0.188391
    40  C    0.029869
    41  C    0.212904
    42  O   -0.257387
    43  O   -0.304678
    44  C    0.300410
    80  Mg   0.837956
    81  C   -0.016761
    82  C   -0.107399
    83  C   -0.061432
    84  C   -0.105433
    85  N   -0.254597
    86  C   -0.049545
    87  C   -0.015291
    88  C   -0.095081
    89  C    0.045824
    90  C    0.168727
    91  C    0.113780
    92  C   -0.002575
    94  N   -0.423468
    95  C    0.162875
    96  C   -0.174725
    97  C   -0.008019
    98  C    0.152134
    99  C    0.173542
   100  C    0.015408
   101  O   -0.253401
   102  C    0.169278
   103  N   -0.350058
   104  C    0.037539
   105  C   -0.005605
   106  C   -0.022347
   107  C    0.088996
   108  C    0.116073
   109  C    0.044510
   110  C    0.051163
   111  N   -0.324143
   112  C    0.078563
   113  C   -0.163106
   114  C    0.002416
   115  C    0.096203
   116  C    0.232946
   117  C    0.042489
   118  O   -0.187688
   119  C    0.036651
   120  C    0.211197
   121  O   -0.251243
   122  O   -0.305365
   123  C    0.299015
 Electronic spatial extent (au):  <R**2>=         192837.9589
 Charge=             -0.0000 electrons
 Dipole moment (field-independent basis, Debye):
    X=              4.3823    Y=             -2.2155    Z=              6.9761  Tot=              8.5311
 Quadrupole moment (field-independent basis, Debye-Ang):
   XX=           -517.6016   YY=           -539.5234   ZZ=           -459.7178
   XY=            -15.5529   XZ=             -3.9976   YZ=             37.5270
 Traceless Quadrupole moment (field-independent basis, Debye-Ang):
   XX=            -11.9873   YY=            -33.9091   ZZ=             45.8964
   XY=            -15.5529   XZ=             -3.9976   YZ=             37.5270
 Octapole moment (field-independent basis, Debye-Ang**2):
  XXX=            842.7301  YYY=            268.5833  ZZZ=            127.9239  XYY=           -255.6917
  XXY=           -148.3889  XXZ=            511.4482  XZZ=            256.3439  YZZ=            -84.8341
  YYZ=            137.1556  XYZ=           -276.2012
 Hexadecapole moment (field-independent basis, Debye-Ang**3):
 XXXX=        -199730.6862 YYYY=         -40545.2214 ZZZZ=         -25753.2462 XXXY=           -166.8803
 XXXZ=            -39.3633 YYYX=          -2255.6282 YYYZ=            788.0263 ZZZX=          -1456.5919
 ZZZY=            354.1104 XXYY=         -40973.3698 XXZZ=         -34303.3941 YYZZ=         -11025.5374
 XXYZ=           2225.3211 YYXZ=           1959.2880 ZZXY=            674.9640
 N-N= 1.373943372106D+04 E-N=-3.695979179065D+04  KE= 4.028802077467D+03
 Leave Link  601 at Sat Sep  4 15:48:14 2021, MaxMem= 23488102400 cpu:              16.7 elap:               0.8
 (Enter /sw/apps/gaussian-16.0/g16/l9999.exe)
 1\1\GINC-BP1-COMPUTE00082\SP\RCAM-B3LYP TD-FC\def2SVP\C68H72Mg2N8O8\OF
 15641\04-Sep-2021\0\\#p cam-b3lyp/Def2SVP td=(nstates=5)\\TDDFT excite
 d states in gaussian\\0,1\Mg,0,0.,0.,0.\C,0,-0.217,-2.218,2.801\C,0,-1
 .255,2.442,2.026\C,0,-0.245,1.85,-2.564\C,0,0.146,-2.824,-2.037\N,0,-0
 .617,-0.009,2.126\C,0,-0.594,-0.908,3.105\C,0,-0.936,-0.309,4.502\C,0,
 -1.773,0.964,4.032\C,0,-1.155,1.168,2.66\C,0,-3.263,0.685,3.863\C,0,0.
 345,0.11,5.299\C,0,0.124,0.397,6.787\H,0,1.168,0.033,7.733\N,0,-0.185,
 1.961,-0.152\C,0,-0.703,2.8,0.777\C,0,-0.62,4.156,0.193\C,0,-0.187,4.0
 15,-1.225\C,0,-0.214,2.583,-1.38\C,0,-0.887,5.406,0.974\C,0,0.181,5.01
 3,-2.277\O,0,0.303,4.69,-3.508\C,0,0.31,6.414,-1.837\N,0,-0.265,-0.413
 ,-2.029\C,0,-0.279,0.569,-2.937\C,0,-0.196,0.024,-4.332\C,0,0.124,-1.5
 33,-4.18\C,0,0.086,-1.632,-2.635\C,0,-1.451,0.205,-5.197\C,0,1.373,-2.
 07,-4.923\C,0,2.626,-1.49,-4.306\N,0,0.15,-2.144,0.303\C,0,0.173,-3.13
 6,-0.688\C,0,0.173,-4.438,0.004\C,0,0.133,-4.111,1.358\C,0,0.083,-2.69
 5,1.502\C,0,0.149,-5.715,-0.623\C,0,0.096,-4.629,2.716\O,0,0.208,-5.74
 7,3.221\C,0,-0.255,-3.428,3.701\C,0,0.717,-3.482,4.848\O,0,1.931,-3.25
 5,4.669\O,0,0.038,-3.556,6.003\C,0,0.943,-3.583,7.183\H,0,-1.859,3.22,
 2.497\H,0,-0.218,2.453,-3.474\H,0,0.276,-3.747,-2.605\H,0,-1.554,-0.94
 9,5.132\H,0,-1.585,1.831,4.665\H,0,-3.484,-0.377,3.969\H,0,-3.511,1.02
 7,2.858\H,0,-3.852,1.301,4.543\H,0,0.669,1.096,4.966\H,0,1.13,-0.639,5
 .189\H,0,-0.844,0.026,7.125\H,0,0.062,1.477,6.921\H,0,-1.344,5.186,1.9
 38\H,0,-1.651,5.963,0.432\H,0,0.007,6.02,1.084\H,0,-0.635,6.744,-1.405
 \H,0,0.665,6.97,-2.704\H,0,1.048,6.466,-1.036\H,0,0.608,0.501,-4.891\H
 ,0,-0.692,-2.156,-4.547\H,0,-1.267,0.74,-6.129\H,0,-2.204,0.714,-4.596
 \H,0,-1.967,-0.72,-5.453\H,0,1.356,-1.759,-5.967\H,0,1.452,-3.157,-4.9
 02\H,0,2.714,-0.522,-4.798\H,0,3.487,-2.121,-4.529\H,0,2.495,-1.303,-3
 .24\H,0,0.867,-6.333,-0.084\H,0,0.404,-5.642,-1.68\H,0,-0.891,-5.999,-
 0.463\H,0,-1.283,-3.581,4.028\H,0,0.698,-4.478,7.755\H,0,0.833,-2.619,
 7.68\H,0,2.,-3.754,6.976\Mg,0,15.77297,1.41919,1.20588\C,0,15.82512,-2
 .09165,1.94773\C,0,14.60438,1.91858,4.37125\C,0,15.28837,4.46007,0.440
 62\C,0,15.83738,0.56489,-2.17225\N,0,15.31527,0.01547,2.8528\C,0,15.43
 258,-1.29046,3.04018\C,0,15.18868,-1.75509,4.50108\C,0,14.27588,-0.529
 27,4.99405\C,0,14.78228,0.55135,4.0409\C,0,12.79364,-0.73973,4.73329\C
 ,0,16.51874,-1.84978,5.32812\C,0,16.3952,-2.58919,6.6622\H,0,17.52263,
 -3.39858,7.11639\N,0,15.52537,3.01133,2.36448\C,0,15.062,3.03131,3.631
 83\C,0,15.04974,4.44648,4.03345\C,0,15.38755,5.27459,2.84398\C,0,15.39
 327,4.25989,1.80937\C,0,14.81608,4.88865,5.44884\C,0,15.64812,6.73959,
 2.66488\O,0,15.68871,7.27917,1.50297\C,0,15.76148,7.54022,3.89274\N,0,
 15.37576,2.37307,-0.59819\C,0,15.2604,3.71119,-0.66197\C,0,15.25118,4.
 19026,-2.09403\C,0,15.62913,2.9117,-2.97722\C,0,15.70751,1.84722,-1.86
 091\C,0,13.93062,4.77882,-2.59012\C,0,16.83454,3.05694,-3.94601\C,0,18
 .11547,3.20678,-3.15724\N,0,16.00788,-0.40119,0.0661\C,0,15.97823,-0.5
 3757,-1.33911\C,0,16.06631,-1.98157,-1.63833\C,0,16.11832,-2.59149,-0.
 37588\C,0,16.04597,-1.59913,0.63876\C,0,16.04111,-2.56519,-2.93635\C,0
 ,16.20726,-3.8499,0.32923\O,0,16.38028,-5.02171,-0.00342\C,0,15.89395,
 -3.59138,1.86592\C,0,16.94929,-4.28971,2.67901\O,0,18.13576,-3.92095,2
 .62501\O,0,16.35405,-5.12978,3.54523\C,0,17.35933,-5.83773,4.38191\H,0
 ,14.0227,2.16625,5.25962\H,0,15.23094,5.50274,0.11963\H,0,15.962,0.223
 97,-3.20226\H,0,14.64357,-2.68649,4.59652\H,0,14.49587,-0.26239,6.0244
 6\H,0,12.60951,-1.63011,4.15065\H,0,12.46173,0.13918,4.19626\H,0,12.24
 145,-0.74244,5.67743\H,0,16.78618,-0.84933,5.69188\H,0,17.30141,-2.290
 54,4.74181\H,0,15.46032,-3.15834,6.73299\H,0,16.32009,-1.84971,7.46316
 \H,0,14.43193,4.06874,6.06818\H,0,13.99858,5.61735,5.42536\H,0,15.6956
 9,5.35854,5.89398\H,0,14.84505,7.44691,4.47059\H,0,16.03632,8.54395,3.
 5628\H,0,16.56594,7.12355,4.50906\H,0,15.99879,4.95833,-2.24969\H,0,14
 .80172,2.61385,-3.63792\H,0,14.0299,5.81182,-2.97367\H,0,13.21444,4.74
 116,-1.78005\H,0,13.43112,4.20257,-3.36706\H,0,16.73127,3.96467,-4.545
 61\H,0,16.93723,2.22556,-4.6354\H,0,18.13347,4.27387,-2.91623\H,0,18.9
 7388,2.92453,-3.76345\H,0,18.0617,2.65599,-2.21099\H,0,16.80686,-3.329
 37,-2.94904\H,0,16.20941,-1.81974,-3.71079\H,0,15.01938,-2.95373,-2.95
 57\H,0,14.89615,-3.9831,2.06723\H,0,17.17952,-6.91016,4.25844\H,0,17.2
 4605,-5.42202,5.40079\H,0,18.3994,-5.76234,4.08694\\Version=ES64L-G16R
 evA.03\State=1-A\HF=-4069.8117834\RMSD=4.637e-09\PG=C01 [X(C68H72Mg2N8
 O8)]\\@


 WERE I TO AWAIT PERFECTION, MY BOOK WOULD NEVER BE FINISHED.
                                    -- HISTORY OF CHINESE WRITING

                                       TAI T'UNG, 13TH CENTURY
 Job cpu time:       0 days 11 hours 15 minutes 18.3 seconds.
 Elapsed time:       0 days  0 hours 28 minutes 43.7 seconds.
 File lengths (MBytes):  RWF=  13225 Int=      0 D2E=      0 Chk=    574 Scr=      1
 Normal termination of Gaussian 16 at Sat Sep  4 15:48:15 2021.
