 Entering Gaussian System, Link 0=g16
 Initial command:
 /sw/apps/gaussian-16.0/g16/l1.exe "/tmp/Gau-222045.inp" -scrdir="/tmp/"
 Entering Link 1 = /sw/apps/gaussian-16.0/g16/l1.exe PID=    222046.
  
 Copyright (c) 1988,1990,1992,1993,1995,1998,2003,2009,2016,
            Gaussian, Inc.  All Rights Reserved.
  
 This is part of the Gaussian(R) 16 program.  It is based on
 the Gaussian(R) 09 system (copyright 2009, Gaussian, Inc.),
 the Gaussian(R) 03 system (copyright 2003, Gaussian, Inc.),
 the Gaussian(R) 98 system (copyright 1998, Gaussian, Inc.),
 the Gaussian(R) 94 system (copyright 1995, Gaussian, Inc.),
 the Gaussian 92(TM) system (copyright 1992, Gaussian, Inc.),
 the Gaussian 90(TM) system (copyright 1990, Gaussian, Inc.),
 the Gaussian 88(TM) system (copyright 1988, Gaussian, Inc.),
 the Gaussian 86(TM) system (copyright 1986, Carnegie Mellon
 University), and the Gaussian 82(TM) system (copyright 1983,
 Carnegie Mellon University). Gaussian is a federally registered
 trademark of Gaussian, Inc.
  
 This software contains proprietary and confidential information,
 including trade secrets, belonging to Gaussian, Inc.
  
 This software is provided under written license and may be
 used, copied, transmitted, or stored only in accord with that
 written license.
  
 The following legend is applicable only to US Government
 contracts under FAR:
  
                    RESTRICTED RIGHTS LEGEND
  
 Use, reproduction and disclosure by the US Government is
 subject to restrictions as set forth in subparagraphs (a)
 and (c) of the Commercial Computer Software - Restricted
 Rights clause in FAR 52.227-19.
  
 Gaussian, Inc.
 340 Quinnipiac St., Bldg. 40, Wallingford CT 06492
  
  
 ---------------------------------------------------------------
 Warning -- This program may not be used in any manner that
 competes with the business of Gaussian, Inc. or will provide
 assistance to any competitor of Gaussian, Inc.  The licensee
 of this program is prohibited from giving any competitor of
 Gaussian, Inc. access to this program.  By using this program,
 the user acknowledges that Gaussian, Inc. is engaged in the
 business of creating and licensing software in the field of
 computational chemistry and represents and warrants to the
 licensee that it is not a competitor of Gaussian, Inc. and that
 it will not use this program in any manner prohibited above.
 ---------------------------------------------------------------
  

 Cite this work as:
 Gaussian 16, Revision A.03,
 M. J. Frisch, G. W. Trucks, H. B. Schlegel, G. E. Scuseria, 
 M. A. Robb, J. R. Cheeseman, G. Scalmani, V. Barone, 
 G. A. Petersson, H. Nakatsuji, X. Li, M. Caricato, A. V. Marenich, 
 J. Bloino, B. G. Janesko, R. Gomperts, B. Mennucci, H. P. Hratchian, 
 J. V. Ortiz, A. F. Izmaylov, J. L. Sonnenberg, D. Williams-Young, 
 F. Ding, F. Lipparini, F. Egidi, J. Goings, B. Peng, A. Petrone, 
 T. Henderson, D. Ranasinghe, V. G. Zakrzewski, J. Gao, N. Rega, 
 G. Zheng, W. Liang, M. Hada, M. Ehara, K. Toyota, R. Fukuda, 
 J. Hasegawa, M. Ishida, T. Nakajima, Y. Honda, O. Kitao, H. Nakai, 
 T. Vreven, K. Throssell, J. A. Montgomery, Jr., J. E. Peralta, 
 F. Ogliaro, M. J. Bearpark, J. J. Heyd, E. N. Brothers, K. N. Kudin, 
 V. N. Staroverov, T. A. Keith, R. Kobayashi, J. Normand, 
 K. Raghavachari, A. P. Rendell, J. C. Burant, S. S. Iyengar, 
 J. Tomasi, M. Cossi, J. M. Millam, M. Klene, C. Adamo, R. Cammi, 
 J. W. Ochterski, R. L. Martin, K. Morokuma, O. Farkas, 
 J. B. Foresman, and D. J. Fox, Gaussian, Inc., Wallingford CT, 2016.
 
 ******************************************
 Gaussian 16:  ES64L-G16RevA.03 25-Dec-2016
                12-Sep-2021 
 ******************************************
 %nproc=24
 Will use up to   24 processors via shared memory.
 %mem=175gb
 -----------------------------------
 #p cam-b3lyp/Def2SVP td=(nstates=5)
 -----------------------------------
 1/38=1,172=1/1;
 2/12=2,17=6,18=5,40=1/2;
 3/5=43,7=101,11=9,25=1,30=1,74=-40/1,2,3,8;
 4//1;
 5/5=2,38=5/2;
 8/6=1,10=1,108=5/1;
 9/41=5,42=1,70=2/14;
 6/7=2,8=2,9=2,10=2/1;
 99/5=1,9=1/99;
 Leave Link    1 at Sun Sep 12 02:50:34 2021, MaxMem= 23488102400 cpu:               0.8 elap:               0.0
 (Enter /sw/apps/gaussian-16.0/g16/l101.exe)
 --------------------------------
 TDDFT excited states in gaussian
 --------------------------------
 Symbolic Z-matrix:
 Charge =  0 Multiplicity = 1
 Mg                    0.        0.        0. 
 C                    -0.217    -2.218     2.801 
 C                    -1.255     2.442     2.026 
 C                    -0.245     1.85     -2.564 
 C                     0.146    -2.824    -2.037 
 N                    -0.617    -0.009     2.126 
 C                    -0.594    -0.908     3.105 
 C                    -0.936    -0.309     4.502 
 C                    -1.773     0.964     4.032 
 C                    -1.155     1.168     2.66 
 C                    -3.263     0.685     3.863 
 C                     0.345     0.11      5.299 
 C                     0.124     0.397     6.787 
 H                     1.168     0.033     7.733 
 N                    -0.185     1.961    -0.152 
 C                    -0.703     2.8       0.777 
 C                    -0.62      4.156     0.193 
 C                    -0.187     4.015    -1.225 
 C                    -0.214     2.583    -1.38 
 C                    -0.887     5.406     0.974 
 C                     0.181     5.013    -2.277 
 O                     0.303     4.69     -3.508 
 C                     0.31      6.414    -1.837 
 N                    -0.265    -0.413    -2.029 
 C                    -0.279     0.569    -2.937 
 C                    -0.196     0.024    -4.332 
 C                     0.124    -1.533    -4.18 
 C                     0.086    -1.632    -2.635 
 C                    -1.451     0.205    -5.197 
 C                     1.373    -2.07     -4.923 
 C                     2.626    -1.49     -4.306 
 N                     0.15     -2.144     0.303 
 C                     0.173    -3.136    -0.688 
 C                     0.173    -4.438     0.004 
 C                     0.133    -4.111     1.358 
 C                     0.083    -2.695     1.502 
 C                     0.149    -5.715    -0.623 
 C                     0.096    -4.629     2.716 
 O                     0.208    -5.747     3.221 
 C                    -0.255    -3.428     3.701 
 C                     0.717    -3.482     4.848 
 O                     1.931    -3.255     4.669 
 O                     0.038    -3.556     6.003 
 C                     0.943    -3.583     7.183 
 H                    -1.859     3.22      2.497 
 H                    -0.218     2.453    -3.474 
 H                     0.276    -3.747    -2.605 
 H                    -1.554    -0.949     5.132 
 H                    -1.585     1.831     4.665 
 H                    -3.484    -0.377     3.969 
 H                    -3.511     1.027     2.858 
 H                    -3.852     1.301     4.543 
 H                     0.669     1.096     4.966 
 H                     1.13     -0.639     5.189 
 H                    -0.844     0.026     7.125 
 H                     0.062     1.477     6.921 
 H                    -1.344     5.186     1.938 
 H                    -1.651     5.963     0.432 
 H                     0.007     6.02      1.084 
 H                    -0.635     6.744    -1.405 
 H                     0.665     6.97     -2.704 
 H                     1.048     6.466    -1.036 
 H                     0.608     0.501    -4.891 
 H                    -0.692    -2.156    -4.547 
 H                    -1.267     0.74     -6.129 
 H                    -2.204     0.714    -4.596 
 H                    -1.967    -0.72     -5.453 
 H                     1.356    -1.759    -5.967 
 H                     1.452    -3.157    -4.902 
 H                     2.714    -0.522    -4.798 
 H                     3.487    -2.121    -4.529 
 H                     2.495    -1.303    -3.24 
 H                     0.867    -6.333    -0.084 
 H                     0.404    -5.642    -1.68 
 H                    -0.891    -5.999    -0.463 
 H                    -1.283    -3.581     4.028 
 H                     0.698    -4.478     7.755 
 H                     0.833    -2.619     7.68 
 H                     2.       -3.754     6.976 
 Mg                    15.76199   1.42364   1.20638 
 C                     13.47888  -1.17182   2.17076 
 C                     13.06412   3.49452   0.94651 
 C                     17.68154   3.6005   -0.07583 
 C                     18.06514  -1.07771   0.4419 
 N                     13.60162   1.08843   1.54207 
 C                     12.85779   0.07792   1.96626 
 C                     11.37901   0.44694   2.26055 
 C                     11.25859   1.73485   1.30889 
 C                     12.72518   2.16065   1.28711 
 C                     10.83839   1.39625  -0.11172 
 C                     11.14465   0.82133   3.76618 
 C                     9.67599   0.89179   4.19024 
 H                     9.31934   0.45922   5.53863 
 N                     15.52465   3.38312   0.99975 
 C                     14.35846   4.05925   0.93565 
 C                     14.72263   5.47388   0.76136 
 C                     16.19507   5.55813   0.56256 
 C                     16.52881   4.1513    0.46489 
 C                     13.72533   6.59041   0.87173 
 C                     17.1438   6.71403   0.46247 
 O                     18.34832   6.56284   0.05125 
 C                     16.59383   8.04215   0.77086 
 N                     17.52547   1.28064   0.11457 
 C                     18.18701   2.38352  -0.27779 
 C                     19.56001   2.03811  -0.80309 
 C                     19.77646   0.4921   -0.45582 
 C                     18.39496   0.17467   0.15745 
 C                     19.77406   2.2579   -2.30051 
 C                     21.04806   0.12471   0.35702 
 C                     20.94589   0.68624   1.75689 
 N                     15.86867  -0.72026   1.45202 
 C                     16.91332  -1.57536   1.03775 
 C                     16.48028  -2.95952   1.3188 
 C                     15.19412  -2.81391   1.86016 
 C                     14.84181  -1.4376    1.8941 
 C                     17.22319  -4.13862   1.02908 
 C                     14.05014  -3.51228   2.40079 
 O                     13.80645  -4.68122   2.69734 
 C                     12.83836  -2.4894    2.50888 
 C                     12.22375  -2.63995   3.87347 
 O                     12.86732  -2.33666   4.89349 
 O                     10.91215  -2.90821   3.73885 
 C                     10.25627  -3.0553    5.06549 
 H                     12.2693   4.16331   0.61503 
 H                     18.42506   4.31776  -0.43108 
 H                     18.76545  -1.90722   0.32291 
 H                     10.65593  -0.3034    1.96403 
 H                     10.64415   2.50681   1.76484 
 H                     10.80456   0.32986  -0.27851 
 H                     11.57723   1.85649  -0.75463 
 H                     9.8876    1.88184  -0.34947 
 H                     11.43634   1.86755   3.92457 
 H                     11.67567   0.15013   4.4128 
 H                     9.01069   0.4307    3.45015 
 H                     9.37012   1.94065   4.20892 
 H                     12.69549   6.21274   0.85776 
 H                     13.80887   7.18546  -0.04413 
 H                     13.91089   7.23744   1.73173 
 H                     15.76207   8.25262   0.10278 
 H                     17.44342   8.72663   0.73133 
 H                     16.18443   8.02394   1.78707 
 H                     20.32347   2.62095  -0.30257 
 H                     19.86523  -0.1211   -1.36463 
 H                     20.61841   2.93643  -2.52576 
 H                     18.85509   2.6408   -2.7241 
 H                     19.93639   1.35177  -2.88171 
 H                     21.93199   0.58005  -0.09628 
 H                     21.22992  -0.94325   0.41521 
 H                     21.2795   1.72083   1.63274 
 H                     21.59684   0.14055   2.43699 
 H                     19.90337   0.71432   2.09456 
 H                     17.13288  -4.78365   1.89296 
 H                     18.26399  -3.90908   0.8104 
 H                     16.68697  -4.49479   0.1454 
 H                     12.13296  -2.73192   1.71316 
 H                     9.76884  -4.03511   5.07404 
 H                     9.60528  -2.16786   5.17694 
 H                     10.89739  -3.13042   5.93599 
 
 ITRead=  0  0  0  0  0  0  0  0  0  0  0  0  0  0  0  0  0  0  0  0
 ITRead=  0  0  0  0  0  0  0  0  0  0  0  0  0  0  0  0  0  0  0  0
 ITRead=  0  0  0  0  0  0  0  0  0  0  0  0  0  0  0  0  0  0  0  0
 ITRead=  0  0  0  0  0  0  0  0  0  0  0  0  0  0  0  0  0  0  0  0
 ITRead=  0  0  0  0  0  0  0  0  0  0  0  0  0  0  0  0  0  0  0  0
 ITRead=  0  0  0  0  0  0  0  0  0  0  0  0  0  0  0  0  0  0  0  0
 ITRead=  0  0  0  0  0  0  0  0  0  0  0  0  0  0  0  0  0  0  0  0
 ITRead=  0  0  0  0  0  0  0  0  0  0  0  0  0  0  0  0  0  0
 MicOpt= -1 -1 -1 -1 -1 -1 -1 -1 -1 -1 -1 -1 -1 -1 -1 -1 -1 -1 -1 -1
 MicOpt= -1 -1 -1 -1 -1 -1 -1 -1 -1 -1 -1 -1 -1 -1 -1 -1 -1 -1 -1 -1
 MicOpt= -1 -1 -1 -1 -1 -1 -1 -1 -1 -1 -1 -1 -1 -1 -1 -1 -1 -1 -1 -1
 MicOpt= -1 -1 -1 -1 -1 -1 -1 -1 -1 -1 -1 -1 -1 -1 -1 -1 -1 -1 -1 -1
 MicOpt= -1 -1 -1 -1 -1 -1 -1 -1 -1 -1 -1 -1 -1 -1 -1 -1 -1 -1 -1 -1
 MicOpt= -1 -1 -1 -1 -1 -1 -1 -1 -1 -1 -1 -1 -1 -1 -1 -1 -1 -1 -1 -1
 MicOpt= -1 -1 -1 -1 -1 -1 -1 -1 -1 -1 -1 -1 -1 -1 -1 -1 -1 -1 -1 -1
 MicOpt= -1 -1 -1 -1 -1 -1 -1 -1 -1 -1 -1 -1 -1 -1 -1 -1 -1 -1
 NAtoms=    158 NQM=      158 NQMF=       0 NMMI=      0 NMMIF=      0
                NMic=       0 NMicF=      0.
                    Isotopes and Nuclear Properties:
 (Nuclear quadrupole moments (NQMom) in fm**2, nuclear magnetic moments (NMagM)
  in nuclear magnetons)

  Atom         1           2           3           4           5           6           7           8           9          10
 IAtWgt=          24          12          12          12          12          14          12          12          12          12
 AtmWgt=  23.9850450  12.0000000  12.0000000  12.0000000  12.0000000  14.0030740  12.0000000  12.0000000  12.0000000  12.0000000
 NucSpn=           0           0           0           0           0           2           0           0           0           0
 AtZEff=  -0.0000000  -0.0000000  -0.0000000  -0.0000000  -0.0000000  -0.0000000  -0.0000000  -0.0000000  -0.0000000  -0.0000000
 NQMom=    0.0000000   0.0000000   0.0000000   0.0000000   0.0000000   2.0440000   0.0000000   0.0000000   0.0000000   0.0000000
 NMagM=    0.0000000   0.0000000   0.0000000   0.0000000   0.0000000   0.4037610   0.0000000   0.0000000   0.0000000   0.0000000
 AtZNuc=  12.0000000   6.0000000   6.0000000   6.0000000   6.0000000   7.0000000   6.0000000   6.0000000   6.0000000   6.0000000

  Atom        11          12          13          14          15          16          17          18          19          20
 IAtWgt=          12          12          12           1          14          12          12          12          12          12
 AtmWgt=  12.0000000  12.0000000  12.0000000   1.0078250  14.0030740  12.0000000  12.0000000  12.0000000  12.0000000  12.0000000
 NucSpn=           0           0           0           1           2           0           0           0           0           0
 AtZEff=  -0.0000000  -0.0000000  -0.0000000  -0.0000000  -0.0000000  -0.0000000  -0.0000000  -0.0000000  -0.0000000  -0.0000000
 NQMom=    0.0000000   0.0000000   0.0000000   0.0000000   2.0440000   0.0000000   0.0000000   0.0000000   0.0000000   0.0000000
 NMagM=    0.0000000   0.0000000   0.0000000   2.7928460   0.4037610   0.0000000   0.0000000   0.0000000   0.0000000   0.0000000
 AtZNuc=   6.0000000   6.0000000   6.0000000   1.0000000   7.0000000   6.0000000   6.0000000   6.0000000   6.0000000   6.0000000

  Atom        21          22          23          24          25          26          27          28          29          30
 IAtWgt=          12          16          12          14          12          12          12          12          12          12
 AtmWgt=  12.0000000  15.9949146  12.0000000  14.0030740  12.0000000  12.0000000  12.0000000  12.0000000  12.0000000  12.0000000
 NucSpn=           0           0           0           2           0           0           0           0           0           0
 AtZEff=  -0.0000000  -0.0000000  -0.0000000  -0.0000000  -0.0000000  -0.0000000  -0.0000000  -0.0000000  -0.0000000  -0.0000000
 NQMom=    0.0000000   0.0000000   0.0000000   2.0440000   0.0000000   0.0000000   0.0000000   0.0000000   0.0000000   0.0000000
 NMagM=    0.0000000   0.0000000   0.0000000   0.4037610   0.0000000   0.0000000   0.0000000   0.0000000   0.0000000   0.0000000
 AtZNuc=   6.0000000   8.0000000   6.0000000   7.0000000   6.0000000   6.0000000   6.0000000   6.0000000   6.0000000   6.0000000

  Atom        31          32          33          34          35          36          37          38          39          40
 IAtWgt=          12          14          12          12          12          12          12          12          16          12
 AtmWgt=  12.0000000  14.0030740  12.0000000  12.0000000  12.0000000  12.0000000  12.0000000  12.0000000  15.9949146  12.0000000
 NucSpn=           0           2           0           0           0           0           0           0           0           0
 AtZEff=  -0.0000000  -0.0000000  -0.0000000  -0.0000000  -0.0000000  -0.0000000  -0.0000000  -0.0000000  -0.0000000  -0.0000000
 NQMom=    0.0000000   2.0440000   0.0000000   0.0000000   0.0000000   0.0000000   0.0000000   0.0000000   0.0000000   0.0000000
 NMagM=    0.0000000   0.4037610   0.0000000   0.0000000   0.0000000   0.0000000   0.0000000   0.0000000   0.0000000   0.0000000
 AtZNuc=   6.0000000   7.0000000   6.0000000   6.0000000   6.0000000   6.0000000   6.0000000   6.0000000   8.0000000   6.0000000

  Atom        41          42          43          44          45          46          47          48          49          50
 IAtWgt=          12          16          16          12           1           1           1           1           1           1
 AtmWgt=  12.0000000  15.9949146  15.9949146  12.0000000   1.0078250   1.0078250   1.0078250   1.0078250   1.0078250   1.0078250
 NucSpn=           0           0           0           0           1           1           1           1           1           1
 AtZEff=  -0.0000000  -0.0000000  -0.0000000  -0.0000000  -0.0000000  -0.0000000  -0.0000000  -0.0000000  -0.0000000  -0.0000000
 NQMom=    0.0000000   0.0000000   0.0000000   0.0000000   0.0000000   0.0000000   0.0000000   0.0000000   0.0000000   0.0000000
 NMagM=    0.0000000   0.0000000   0.0000000   0.0000000   2.7928460   2.7928460   2.7928460   2.7928460   2.7928460   2.7928460
 AtZNuc=   6.0000000   8.0000000   8.0000000   6.0000000   1.0000000   1.0000000   1.0000000   1.0000000   1.0000000   1.0000000

  Atom        51          52          53          54          55          56          57          58          59          60
 IAtWgt=           1           1           1           1           1           1           1           1           1           1
 AtmWgt=   1.0078250   1.0078250   1.0078250   1.0078250   1.0078250   1.0078250   1.0078250   1.0078250   1.0078250   1.0078250
 NucSpn=           1           1           1           1           1           1           1           1           1           1
 AtZEff=  -0.0000000  -0.0000000  -0.0000000  -0.0000000  -0.0000000  -0.0000000  -0.0000000  -0.0000000  -0.0000000  -0.0000000
 NQMom=    0.0000000   0.0000000   0.0000000   0.0000000   0.0000000   0.0000000   0.0000000   0.0000000   0.0000000   0.0000000
 NMagM=    2.7928460   2.7928460   2.7928460   2.7928460   2.7928460   2.7928460   2.7928460   2.7928460   2.7928460   2.7928460
 AtZNuc=   1.0000000   1.0000000   1.0000000   1.0000000   1.0000000   1.0000000   1.0000000   1.0000000   1.0000000   1.0000000

  Atom        61          62          63          64          65          66          67          68          69          70
 IAtWgt=           1           1           1           1           1           1           1           1           1           1
 AtmWgt=   1.0078250   1.0078250   1.0078250   1.0078250   1.0078250   1.0078250   1.0078250   1.0078250   1.0078250   1.0078250
 NucSpn=           1           1           1           1           1           1           1           1           1           1
 AtZEff=  -0.0000000  -0.0000000  -0.0000000  -0.0000000  -0.0000000  -0.0000000  -0.0000000  -0.0000000  -0.0000000  -0.0000000
 NQMom=    0.0000000   0.0000000   0.0000000   0.0000000   0.0000000   0.0000000   0.0000000   0.0000000   0.0000000   0.0000000
 NMagM=    2.7928460   2.7928460   2.7928460   2.7928460   2.7928460   2.7928460   2.7928460   2.7928460   2.7928460   2.7928460
 AtZNuc=   1.0000000   1.0000000   1.0000000   1.0000000   1.0000000   1.0000000   1.0000000   1.0000000   1.0000000   1.0000000

  Atom        71          72          73          74          75          76          77          78          79          80
 IAtWgt=           1           1           1           1           1           1           1           1           1          24
 AtmWgt=   1.0078250   1.0078250   1.0078250   1.0078250   1.0078250   1.0078250   1.0078250   1.0078250   1.0078250  23.9850450
 NucSpn=           1           1           1           1           1           1           1           1           1           0
 AtZEff=  -0.0000000  -0.0000000  -0.0000000  -0.0000000  -0.0000000  -0.0000000  -0.0000000  -0.0000000  -0.0000000  -0.0000000
 NQMom=    0.0000000   0.0000000   0.0000000   0.0000000   0.0000000   0.0000000   0.0000000   0.0000000   0.0000000   0.0000000
 NMagM=    2.7928460   2.7928460   2.7928460   2.7928460   2.7928460   2.7928460   2.7928460   2.7928460   2.7928460   0.0000000
 AtZNuc=   1.0000000   1.0000000   1.0000000   1.0000000   1.0000000   1.0000000   1.0000000   1.0000000   1.0000000  12.0000000

  Atom        81          82          83          84          85          86          87          88          89          90
 IAtWgt=          12          12          12          12          14          12          12          12          12          12
 AtmWgt=  12.0000000  12.0000000  12.0000000  12.0000000  14.0030740  12.0000000  12.0000000  12.0000000  12.0000000  12.0000000
 NucSpn=           0           0           0           0           2           0           0           0           0           0
 AtZEff=  -0.0000000  -0.0000000  -0.0000000  -0.0000000  -0.0000000  -0.0000000  -0.0000000  -0.0000000  -0.0000000  -0.0000000
 NQMom=    0.0000000   0.0000000   0.0000000   0.0000000   2.0440000   0.0000000   0.0000000   0.0000000   0.0000000   0.0000000
 NMagM=    0.0000000   0.0000000   0.0000000   0.0000000   0.4037610   0.0000000   0.0000000   0.0000000   0.0000000   0.0000000
 AtZNuc=   6.0000000   6.0000000   6.0000000   6.0000000   7.0000000   6.0000000   6.0000000   6.0000000   6.0000000   6.0000000

  Atom        91          92          93          94          95          96          97          98          99         100
 IAtWgt=          12          12           1          14          12          12          12          12          12          12
 AtmWgt=  12.0000000  12.0000000   1.0078250  14.0030740  12.0000000  12.0000000  12.0000000  12.0000000  12.0000000  12.0000000
 NucSpn=           0           0           1           2           0           0           0           0           0           0
 AtZEff=  -0.0000000  -0.0000000  -0.0000000  -0.0000000  -0.0000000  -0.0000000  -0.0000000  -0.0000000  -0.0000000  -0.0000000
 NQMom=    0.0000000   0.0000000   0.0000000   2.0440000   0.0000000   0.0000000   0.0000000   0.0000000   0.0000000   0.0000000
 NMagM=    0.0000000   0.0000000   2.7928460   0.4037610   0.0000000   0.0000000   0.0000000   0.0000000   0.0000000   0.0000000
 AtZNuc=   6.0000000   6.0000000   1.0000000   7.0000000   6.0000000   6.0000000   6.0000000   6.0000000   6.0000000   6.0000000

  Atom       101         102         103         104         105         106         107         108         109         110
 IAtWgt=          16          12          14          12          12          12          12          12          12          12
 AtmWgt=  15.9949146  12.0000000  14.0030740  12.0000000  12.0000000  12.0000000  12.0000000  12.0000000  12.0000000  12.0000000
 NucSpn=           0           0           2           0           0           0           0           0           0           0
 AtZEff=  -0.0000000  -0.0000000  -0.0000000  -0.0000000  -0.0000000  -0.0000000  -0.0000000  -0.0000000  -0.0000000  -0.0000000
 NQMom=    0.0000000   0.0000000   2.0440000   0.0000000   0.0000000   0.0000000   0.0000000   0.0000000   0.0000000   0.0000000
 NMagM=    0.0000000   0.0000000   0.4037610   0.0000000   0.0000000   0.0000000   0.0000000   0.0000000   0.0000000   0.0000000
 AtZNuc=   8.0000000   6.0000000   7.0000000   6.0000000   6.0000000   6.0000000   6.0000000   6.0000000   6.0000000   6.0000000

  Atom       111         112         113         114         115         116         117         118         119         120
 IAtWgt=          14          12          12          12          12          12          12          16          12          12
 AtmWgt=  14.0030740  12.0000000  12.0000000  12.0000000  12.0000000  12.0000000  12.0000000  15.9949146  12.0000000  12.0000000
 NucSpn=           2           0           0           0           0           0           0           0           0           0
 AtZEff=  -0.0000000  -0.0000000  -0.0000000  -0.0000000  -0.0000000  -0.0000000  -0.0000000  -0.0000000  -0.0000000  -0.0000000
 NQMom=    2.0440000   0.0000000   0.0000000   0.0000000   0.0000000   0.0000000   0.0000000   0.0000000   0.0000000   0.0000000
 NMagM=    0.4037610   0.0000000   0.0000000   0.0000000   0.0000000   0.0000000   0.0000000   0.0000000   0.0000000   0.0000000
 AtZNuc=   7.0000000   6.0000000   6.0000000   6.0000000   6.0000000   6.0000000   6.0000000   8.0000000   6.0000000   6.0000000

  Atom       121         122         123         124         125         126         127         128         129         130
 IAtWgt=          16          16          12           1           1           1           1           1           1           1
 AtmWgt=  15.9949146  15.9949146  12.0000000   1.0078250   1.0078250   1.0078250   1.0078250   1.0078250   1.0078250   1.0078250
 NucSpn=           0           0           0           1           1           1           1           1           1           1
 AtZEff=  -0.0000000  -0.0000000  -0.0000000  -0.0000000  -0.0000000  -0.0000000  -0.0000000  -0.0000000  -0.0000000  -0.0000000
 NQMom=    0.0000000   0.0000000   0.0000000   0.0000000   0.0000000   0.0000000   0.0000000   0.0000000   0.0000000   0.0000000
 NMagM=    0.0000000   0.0000000   0.0000000   2.7928460   2.7928460   2.7928460   2.7928460   2.7928460   2.7928460   2.7928460
 AtZNuc=   8.0000000   8.0000000   6.0000000   1.0000000   1.0000000   1.0000000   1.0000000   1.0000000   1.0000000   1.0000000

  Atom       131         132         133         134         135         136         137         138         139         140
 IAtWgt=           1           1           1           1           1           1           1           1           1           1
 AtmWgt=   1.0078250   1.0078250   1.0078250   1.0078250   1.0078250   1.0078250   1.0078250   1.0078250   1.0078250   1.0078250
 NucSpn=           1           1           1           1           1           1           1           1           1           1
 AtZEff=  -0.0000000  -0.0000000  -0.0000000  -0.0000000  -0.0000000  -0.0000000  -0.0000000  -0.0000000  -0.0000000  -0.0000000
 NQMom=    0.0000000   0.0000000   0.0000000   0.0000000   0.0000000   0.0000000   0.0000000   0.0000000   0.0000000   0.0000000
 NMagM=    2.7928460   2.7928460   2.7928460   2.7928460   2.7928460   2.7928460   2.7928460   2.7928460   2.7928460   2.7928460
 AtZNuc=   1.0000000   1.0000000   1.0000000   1.0000000   1.0000000   1.0000000   1.0000000   1.0000000   1.0000000   1.0000000

  Atom       141         142         143         144         145         146         147         148         149         150
 IAtWgt=           1           1           1           1           1           1           1           1           1           1
 AtmWgt=   1.0078250   1.0078250   1.0078250   1.0078250   1.0078250   1.0078250   1.0078250   1.0078250   1.0078250   1.0078250
 NucSpn=           1           1           1           1           1           1           1           1           1           1
 AtZEff=  -0.0000000  -0.0000000  -0.0000000  -0.0000000  -0.0000000  -0.0000000  -0.0000000  -0.0000000  -0.0000000  -0.0000000
 NQMom=    0.0000000   0.0000000   0.0000000   0.0000000   0.0000000   0.0000000   0.0000000   0.0000000   0.0000000   0.0000000
 NMagM=    2.7928460   2.7928460   2.7928460   2.7928460   2.7928460   2.7928460   2.7928460   2.7928460   2.7928460   2.7928460
 AtZNuc=   1.0000000   1.0000000   1.0000000   1.0000000   1.0000000   1.0000000   1.0000000   1.0000000   1.0000000   1.0000000

  Atom       151         152         153         154         155         156         157         158
 IAtWgt=           1           1           1           1           1           1           1           1
 AtmWgt=   1.0078250   1.0078250   1.0078250   1.0078250   1.0078250   1.0078250   1.0078250   1.0078250
 NucSpn=           1           1           1           1           1           1           1           1
 AtZEff=  -0.0000000  -0.0000000  -0.0000000  -0.0000000  -0.0000000  -0.0000000  -0.0000000  -0.0000000
 NQMom=    0.0000000   0.0000000   0.0000000   0.0000000   0.0000000   0.0000000   0.0000000   0.0000000
 NMagM=    2.7928460   2.7928460   2.7928460   2.7928460   2.7928460   2.7928460   2.7928460   2.7928460
 AtZNuc=   1.0000000   1.0000000   1.0000000   1.0000000   1.0000000   1.0000000   1.0000000   1.0000000
 Leave Link  101 at Sun Sep 12 02:50:34 2021, MaxMem= 23488102400 cpu:               3.8 elap:               0.2
 (Enter /sw/apps/gaussian-16.0/g16/l202.exe)
 Stoichiometry    C68H72Mg2N8O8
 Framework group  C1[X(C68H72Mg2N8O8)]
 Deg. of freedom   468
 Full point group                 C1      NOp   1
 Largest Abelian subgroup         C1      NOp   1
 Largest concise Abelian subgroup C1      NOp   1
                         Standard orientation:                         
 ---------------------------------------------------------------------
 Center     Atomic      Atomic             Coordinates (Angstroms)
 Number     Number       Type             X           Y           Z
 ---------------------------------------------------------------------
      1         12           0        7.529169    0.946992    0.558766
      2          6           0        7.953329   -2.381455   -0.687724
      3          6           0        8.504097    2.062836   -2.514908
      4          6           0        7.600968    3.878553    1.766003
      5          6           0        7.697206   -0.392902    3.771570
      6          7           0        8.125506   -0.121449   -1.286081
      7          6           0        8.188424   -1.398107   -1.651260
      8          6           0        8.453835   -1.592746   -3.174101
      9          6           0        9.156880   -0.196513   -3.487565
     10          6           0        8.532672    0.642377   -2.386406
     11          6           0       10.669299   -0.218216   -3.291043
     12          6           0        7.129222   -1.763444   -3.991410
     13          6           0        7.306206   -2.280485   -5.422039
     14          1           0        6.298022   -3.172888   -5.973880
     15          7           0        7.509038    2.704697   -0.342854
     16          6           0        7.928340    2.973475   -1.602707
     17          6           0        7.708761    4.421754   -1.805079
     18          6           0        7.305060    5.007941   -0.496834
     19          6           0        7.483232    3.877408    0.378111
     20          6           0        7.836669    5.095164   -3.136960
     21          6           0        6.843562    6.373595   -0.096660
     22          8           0        6.766602    6.733952    1.127592
     23          6           0        6.564763    7.319979   -1.191955
     24          7           0        7.853320    1.681679    2.485628
     25          6           0        7.772150    2.990764    2.747722
     26          6           0        7.758631    3.252094    4.224700
     27          6           0        7.602191    1.825433    4.924643
     28          6           0        7.637133    0.935801    3.657518
     29          6           0        8.995123    3.964840    4.789583
     30          6           0        6.422713    1.653310    5.914402
     31          6           0        5.110621    1.715718    5.164991
     32          7           0        7.601981   -1.041943    1.424723
     33          6           0        7.691495   -1.365995    2.786211
     34          6           0        7.821953   -2.832079    2.873651
     35          6           0        7.815896   -3.260397    1.547622
     36          6           0        7.716067   -2.131141    0.685586
     37          6           0        7.984944   -3.584336    4.070303
     38          6           0        7.895331   -4.407412    0.657732
     39          8           0        7.896736   -5.629098    0.815766
     40          6           0        8.110161   -3.875229   -0.827683
     41          6           0        7.139387   -4.603965   -1.716418
     42          8           0        5.909864   -4.420738   -1.606568
     43          8           0        7.812496   -5.213859   -2.704090
     44          6           0        6.905241   -5.931302   -3.639138
     45          1           0        9.019231    2.526991   -3.358198
     46          1           0        7.518742    4.863911    2.229409
     47          1           0        7.669465   -0.889004    4.743458
     48          1           0        9.130060   -2.412760   -3.416426
     49          1           0        8.873691    0.191121   -4.465965
     50          1           0       10.999408   -1.155286   -2.842882
     51          1           0       10.888701    0.618937   -2.628072
     52          1           0       11.184696   -0.002095   -4.227224
     53          1           0        6.706586   -0.780684   -4.200270
     54          1           0        6.427965   -2.407373   -3.459508
     55          1           0        8.304814   -2.689894   -5.577199
     56          1           0        7.253591   -1.429819   -6.101597
     57          1           0        8.305935    4.442679   -3.872214
     58          1           0        8.542732    5.915917   -3.012266
     59          1           0        6.882365    5.482288   -3.494411
     60          1           0        7.466268    7.453676   -1.790255
     61          1           0        6.160908    8.215169   -0.720377
     62          1           0        5.818551    6.882103   -1.855566
     63          1           0        6.913902    3.880980    4.502839
     64          1           0        8.482069    1.558626    5.510563
     65          1           0        8.764076    4.890758    5.316838
     66          1           0        9.685495    4.145519    3.966157
     67          1           0        9.607345    3.358459    5.456594
     68          1           0        6.415975    2.465016    6.641061
     69          1           0        6.457829    0.714114    6.466605
     70          1           0        4.925924    2.786477    5.086293
     71          1           0        4.322391    1.224543    5.736526
     72          1           0        5.212188    1.327220    4.151462
     73          1           0        7.331042   -4.451330    3.977025
     74          1           0        7.732753   -2.990650    4.948676
     75          1           0        9.047564   -3.820689    4.017081
     76          1           0        9.145696   -4.088982   -1.090547
     77          1           0        7.237738   -6.968751   -3.676301
     78          1           0        6.909405   -5.364964   -4.570615
     79          1           0        5.873777   -6.057508   -3.308241
     80         12           0       -8.304977    0.185820   -0.230473
     81          6           0       -5.770898   -2.325825    0.155684
     82          6           0       -5.836739    2.306214   -1.253364
     83          6           0      -10.430943    2.539831   -0.150782
     84          6           0      -10.326827   -1.729712    1.864412
     85          7           0       -6.124330   -0.090940   -0.476314
     86          6           0       -5.282402   -1.106627   -0.358468
     87          6           0       -3.852982   -0.822492   -0.892882
     88          6           0       -3.859990    0.777810   -0.759259
     89          6           0       -5.362873    1.025836   -0.871031
     90          6           0       -3.394496    1.270189    0.600973
     91          6           0       -3.672017   -1.273546   -2.384798
     92          6           0       -2.222498   -1.311317   -2.873903
     93          1           0       -1.834049   -2.353775   -3.819874
     94          7           0       -8.272430    1.975276   -1.088012
     95          6           0       -7.182971    2.680905   -1.457373
     96          6           0       -7.691810    3.940533   -2.021816
     97          6           0       -9.163220    3.991197   -1.804826
     98          6           0       -9.346917    2.821400   -0.969409
     99          6           0       -6.817928    4.913841   -2.758315
    100          6           0      -10.226915    4.943074   -2.261658
    101          8           0      -11.405410    4.928079   -1.757918
    102          6           0       -9.821743    5.954151   -3.249096
    103          7           0      -10.034371    0.486717    0.883535
    104          6           0      -10.804413    1.571022    0.685434
    105          6           0      -12.129135    1.436822    1.397809
    106          6           0      -12.185420   -0.073981    1.919250
    107          6           0      -10.783568   -0.547041    1.476047
    108          6           0      -12.352211    2.389015    2.572525
    109          6           0      -13.418450   -0.918836    1.496748
    110          6           0      -13.387640   -1.167078    0.005837
    111          7           0       -8.188603   -1.769325    0.681608
    112          6           0       -9.134356   -2.365907    1.544019
    113          6           0       -8.561134   -3.649761    1.997390
    114          6           0       -7.301980   -3.700713    1.380612
    115          6           0       -7.096074   -2.521847    0.614205
    116          6           0       -9.173946   -4.560641    2.903420
    117          6           0       -6.095809   -4.478821    1.212114
    118          8           0       -5.733565   -5.604394    1.552134
    119          6           0       -4.998807   -3.565525    0.512933
    120          6           0       -4.383505   -4.355511   -0.609494
    121          8           0       -5.064006   -4.687024   -1.596219
    122          8           0       -3.049918   -4.401236   -0.436768
    123          6           0       -2.393613   -5.164919   -1.531227
    124          1           0       -5.113537    3.114127   -1.368059
    125          1           0      -11.242436    3.270846   -0.174904
    126          1           0      -10.935353   -2.430005    2.440576
    127          1           0       -3.052775   -1.242032   -0.295024
    128          1           0       -3.333713    1.245610   -1.587235
    129          1           0       -3.247727    0.456355    1.295438
    130          1           0       -4.171953    1.934326    0.955266
    131          1           0       -2.497801    1.886944    0.491997
    132          1           0       -4.073034   -0.494276   -3.045609
    133          1           0       -4.135323   -2.226135   -2.553711
    134          1           0       -1.506254   -1.258302   -2.044961
    135          1           0       -2.028345   -0.405994   -3.454167
    136          1           0       -5.754112    4.688305   -2.613991
    137          1           0       -6.955499    5.890735   -2.282272
    138          1           0       -7.077592    4.996350   -3.815881
    139          1           0       -9.010920    6.552891   -2.841018
    140          1           0      -10.737987    6.483080   -3.518561
    141          1           0       -9.421397    5.441361   -4.130794
    142          1           0      -12.953700    1.604131    0.715756
    143          1           0      -12.201693   -0.125515    3.017844
    144          1           0      -13.261031    3.010583    2.464050
    145          1           0      -11.474813    3.013318    2.677243
    146          1           0      -12.413757    1.911384    3.548894
    147          1           0      -14.341302   -0.370432    1.701063
    148          1           0      -13.487937   -1.870084    2.013755
    149          1           0      -13.826709   -0.253289   -0.405618
    150          1           0      -13.983645   -2.040963   -0.249411
    151          1           0      -12.356723   -1.231676   -0.361172
    152          1           0       -9.023963   -5.552115    2.497227
    153          1           0      -10.231155   -4.339800    3.035000
    154          1           0       -8.595828   -4.354443    3.808153
    155          1           0       -4.265102   -3.294691    1.273132
    156          1           0       -1.806324   -5.958700   -1.059323
    157          1           0       -1.840137   -4.415750   -2.128025
    158          1           0       -3.030761   -5.738735   -2.193967
 ---------------------------------------------------------------------
 Rotational constants (GHZ):           0.0254615           0.0061792           0.0056973
 Leave Link  202 at Sun Sep 12 02:50:34 2021, MaxMem= 23488102400 cpu:               0.2 elap:               0.0
 (Enter /sw/apps/gaussian-16.0/g16/l301.exe)
 Standard basis: def2SVP (5D, 7F)
 Ernie: Thresh=  0.10000D-02 Tol=  0.10000D-05 Strict=F.
 There are  1658 symmetry adapted cartesian basis functions of A   symmetry.
 There are  1572 symmetry adapted basis functions of A   symmetry.
  1572 basis functions,  2678 primitive gaussians,  1658 cartesian basis functions
   312 alpha electrons      312 beta electrons
       nuclear repulsion energy     13968.3705529556 Hartrees.
 IExCor=20419 DFT=T Ex+Corr=CAM-B3LYP ExCW=0 ScaHFX=  1.000000
 ScaDFX=  1.000000  1.000000  1.000000  0.810000 ScalE2=  1.000000  1.000000
 IRadAn=      5 IRanWt=     -1 IRanGd=            0 ICorTp=0 IEmpDi=  4
 HFx  wShort=  0.000000 wLong=  0.330000 cFull=  0.190000 cShort=  0.000000 cLong=  0.460000
 DFx  wShort=  0.000000 wLong=  0.330000 cFull=  0.190000 cShort=  0.000000 cLong=  0.460000
 NAtoms=  158 NActive=  158 NUniq=  158 SFac= 1.00D+00 NAtFMM=   60 NAOKFM=T Big=T
 Integral buffers will be    131072 words long.
 Raffenetti 1 integral format.
 Two-electron integral symmetry is turned on.
 Leave Link  301 at Sun Sep 12 02:50:34 2021, MaxMem= 23488102400 cpu:               1.3 elap:               0.1
 (Enter /sw/apps/gaussian-16.0/g16/l302.exe)
 NPDir=0 NMtPBC=     1 NCelOv=     1 NCel=       1 NClECP=     1 NCelD=      1
         NCelK=      1 NCelE2=     1 NClLst=     1 CellRange=     0.0.
 One-electron integrals computed using PRISM.
 One-electron integral symmetry used in STVInt
   1 Symmetry operations used in ECPInt.
 ECPInt:  NShTT=  271216 NPrTT=  987664 LenC2=  115512 LenP2D=  254882.
 LDataN:  DoStor=T MaxTD1= 4 Len=   56
 NBasis=  1572 RedAO= T EigKep=  3.36D-04  NBF=  1572
 NBsUse=  1572 1.00D-06 EigRej= -1.00D+00 NBFU=  1572
 Precomputing XC quadrature grid using
 IXCGrd= 4 IRadAn=           5 IRanWt=          -1 IRanGd=           0 AccXCQ= 0.00D+00.
 Generated NRdTot=       0 NPtTot=           0 NUsed=           0 NTot=          32
 NSgBfM=  1300  1269  1281  1291  1300 MxSgAt=   158 MxSgA2=   158.
 Leave Link  302 at Sun Sep 12 02:50:39 2021, MaxMem= 23488102400 cpu:             120.7 elap:               5.1
 (Enter /sw/apps/gaussian-16.0/g16/l303.exe)
 DipDrv:  MaxL=1.
 Leave Link  303 at Sun Sep 12 02:50:40 2021, MaxMem= 23488102400 cpu:               9.3 elap:               0.4
 (Enter /sw/apps/gaussian-16.0/g16/l308.exe)
 Leave Link  308 at Sun Sep 12 02:50:41 2021, MaxMem= 23488102400 cpu:              15.4 elap:               0.7
 (Enter /sw/apps/gaussian-16.0/g16/l401.exe)
 ExpMin= 3.36D-02 ExpMax= 4.95D+03 ExpMxC= 7.45D+02 IAcc=3 IRadAn=         5 AccDes= 0.00D+00
 Harris functional with IExCor=20419 and IRadAn=       5 diagonalized for initial guess.
 HarFok:  IExCor=20419 AccDes= 0.00D+00 IRadAn=         5 IDoV= 1 UseB2=F ITyADJ=14
 ICtDFT=  3500011 ScaDFX=  1.000000  1.000000  1.000000  1.000000
 FoFCou: FMM=F IPFlag=           0 FMFlag=      100000 FMFlg1=        2001
         NFxFlg=           0 DoJE=T BraDBF=F KetDBF=T FulRan=T
         wScrn=  0.000000 ICntrl=       500 IOpCl=  0 I1Cent=   200000004 NGrid=           0
         NMat0=    1 NMatS0=      1 NMatT0=    0 NMatD0=    1 NMtDS0=    0 NMtDT0=    0
 Petite list used in FoFCou.
 Harris En= -3918.65801641916    
 JPrj=0 DoOrth=F DoCkMO=F.
 Leave Link  401 at Sun Sep 12 02:50:47 2021, MaxMem= 23488102400 cpu:             165.5 elap:               6.9
 (Enter /sw/apps/gaussian-16.0/g16/l502.exe)
 Integral symmetry usage will be decided dynamically.
 Closed shell SCF:
 Using DIIS extrapolation, IDIIS=  1040.
 NGot= 23488102400 LenX= 23482547354 LenY= 23479796732
 Requested convergence on RMS density matrix=1.00D-08 within 128 cycles.
 Requested convergence on MAX density matrix=1.00D-06.
 Requested convergence on             energy=1.00D-06.
 No special actions if energy rises.
 Fock matrices will be formed incrementally for  20 cycles.

 Cycle   1  Pass 1  IDiag  1:
 FoFJK:  IHMeth= 1 ICntrl=       0 DoSepK=T KAlg= 0 I1Cent=           0 FoldK=F
 IRaf=         1 NMat=       1 IRICut=       1 DoRegI=T DoRafI=F ISym2E= 0 IDoP0=0 IntGTp=1.
 FoFCou: FMM=T IPFlag=           0 FMFlag=      100000 FMFlg1=        2001
         NFxFlg=           0 DoJE=T BraDBF=F KetDBF=F FulRan=T
         wScrn=  0.000000 ICntrl=       500 IOpCl=  0 I1Cent=           0 NGrid=           0
         NMat0=    1 NMatS0=      1 NMatT0=    0 NMatD0=    1 NMtDS0=    0 NMtDT0=    0
 Symmetry not used in FoFCou.
 FMM levels:  10  Number of levels for PrismC:   9
 E= -4068.94929537492    
 DIIS: error= 2.04D-02 at cycle   1 NSaved=   1.
 NSaved= 1 IEnMin= 1 EnMin= -4068.94929537492     IErMin= 1 ErrMin= 2.04D-02
 ErrMax= 2.04D-02  0.00D+00 EMaxC= 1.00D-01 BMatC= 1.69D+00 BMatP= 1.69D+00
 IDIUse=3 WtCom= 7.96D-01 WtEn= 2.04D-01
 Coeff-Com:  0.100D+01
 Coeff-En:   0.100D+01
 Coeff:      0.100D+01
 Gap=     0.120 Goal=   None    Shift=    0.000
 GapD=    0.120 DampG=1.000 DampE=0.500 DampFc=0.5000 IDamp=-1.
 Damping current iteration by 5.00D-01
 RMSDP=1.57D-03 MaxDP=1.35D-01              OVMax= 2.05D-01

 Cycle   2  Pass 1  IDiag  1:
 RMSU=  7.69D-04    CP:  9.82D-01
 E= -4069.33825729552     Delta-E=       -0.388961920595 Rises=F Damp=T
 DIIS: error= 1.27D-02 at cycle   2 NSaved=   2.
 NSaved= 2 IEnMin= 2 EnMin= -4069.33825729552     IErMin= 2 ErrMin= 1.27D-02
 ErrMax= 1.27D-02  0.00D+00 EMaxC= 1.00D-01 BMatC= 3.07D-01 BMatP= 1.69D+00
 IDIUse=3 WtCom= 8.73D-01 WtEn= 1.27D-01
 Coeff-Com: -0.213D+00 0.121D+01
 Coeff-En:   0.000D+00 0.100D+01
 Coeff:     -0.186D+00 0.119D+01
 Gap=     0.135 Goal=   None    Shift=    0.000
 RMSDP=7.65D-04 MaxDP=9.45D-02 DE=-3.89D-01 OVMax= 1.88D-01

 Cycle   3  Pass 1  IDiag  1:
 RMSU=  7.32D-04    CP:  9.68D-01  1.24D+00
 E= -4069.62802884167     Delta-E=       -0.289771546159 Rises=F Damp=F
 DIIS: error= 1.56D-02 at cycle   3 NSaved=   3.
 NSaved= 3 IEnMin= 3 EnMin= -4069.62802884167     IErMin= 2 ErrMin= 1.27D-02
 ErrMax= 1.56D-02  0.00D+00 EMaxC= 1.00D-01 BMatC= 2.01D-01 BMatP= 3.07D-01
 IDIUse=3 WtCom= 8.44D-01 WtEn= 1.56D-01
 Coeff-Com: -0.267D+00 0.651D+00 0.616D+00
 Coeff-En:   0.000D+00 0.000D+00 0.100D+01
 Coeff:     -0.225D+00 0.549D+00 0.676D+00
 Gap=     0.122 Goal=   None    Shift=    0.000
 RMSDP=5.08D-04 MaxDP=4.78D-02 DE=-2.90D-01 OVMax= 1.44D-01

 Cycle   4  Pass 1  IDiag  1:
 RMSU=  2.65D-04    CP:  9.65D-01  1.55D+00  5.06D-01
 E= -4069.76530946203     Delta-E=       -0.137280620351 Rises=F Damp=F
 DIIS: error= 7.18D-03 at cycle   4 NSaved=   4.
 NSaved= 4 IEnMin= 4 EnMin= -4069.76530946203     IErMin= 4 ErrMin= 7.18D-03
 ErrMax= 7.18D-03  0.00D+00 EMaxC= 1.00D-01 BMatC= 4.99D-02 BMatP= 2.01D-01
 IDIUse=3 WtCom= 9.28D-01 WtEn= 7.18D-02
 Coeff-Com: -0.109D+00 0.226D+00 0.408D+00 0.475D+00
 Coeff-En:   0.000D+00 0.000D+00 0.220D+00 0.780D+00
 Coeff:     -0.101D+00 0.210D+00 0.395D+00 0.497D+00
 Gap=     0.121 Goal=   None    Shift=    0.000
 RMSDP=2.00D-04 MaxDP=1.94D-02 DE=-1.37D-01 OVMax= 6.25D-02

 Cycle   5  Pass 1  IDiag  1:
 RMSU=  7.59D-05    CP:  9.64D-01  1.49D+00  6.89D-01  5.49D-01
 E= -4069.81055493636     Delta-E=       -0.045245474332 Rises=F Damp=F
 DIIS: error= 7.57D-04 at cycle   5 NSaved=   5.
 NSaved= 5 IEnMin= 5 EnMin= -4069.81055493636     IErMin= 5 ErrMin= 7.57D-04
 ErrMax= 7.57D-04  0.00D+00 EMaxC= 1.00D-01 BMatC= 1.16D-03 BMatP= 4.99D-02
 IDIUse=3 WtCom= 9.92D-01 WtEn= 7.57D-03
 Coeff-Com: -0.360D-01 0.706D-01 0.165D+00 0.249D+00 0.551D+00
 Coeff-En:   0.000D+00 0.000D+00 0.000D+00 0.000D+00 0.100D+01
 Coeff:     -0.357D-01 0.701D-01 0.164D+00 0.247D+00 0.554D+00
 Gap=     0.120 Goal=   None    Shift=    0.000
 RMSDP=4.13D-05 MaxDP=4.17D-03 DE=-4.52D-02 OVMax= 1.69D-02

 Cycle   6  Pass 1  IDiag  1:
 RMSU=  3.06D-05    CP:  9.64D-01  1.49D+00  6.81D-01  6.22D-01  7.56D-01
 E= -4069.81156763902     Delta-E=       -0.001012702658 Rises=F Damp=F
 DIIS: error= 2.08D-04 at cycle   6 NSaved=   6.
 NSaved= 6 IEnMin= 6 EnMin= -4069.81156763902     IErMin= 6 ErrMin= 2.08D-04
 ErrMax= 2.08D-04  0.00D+00 EMaxC= 1.00D-01 BMatC= 1.81D-04 BMatP= 1.16D-03
 IDIUse=3 WtCom= 9.98D-01 WtEn= 2.08D-03
 Coeff-Com:  0.217D-02-0.651D-02 0.114D-01 0.405D-01 0.309D+00 0.643D+00
 Coeff-En:   0.000D+00 0.000D+00 0.000D+00 0.000D+00 0.112D+00 0.888D+00
 Coeff:      0.217D-02-0.650D-02 0.114D-01 0.404D-01 0.309D+00 0.644D+00
 Gap=     0.121 Goal=   None    Shift=    0.000
 RMSDP=1.62D-05 MaxDP=1.20D-03 DE=-1.01D-03 OVMax= 7.33D-03

 Cycle   7  Pass 1  IDiag  1:
 RMSU=  1.08D-05    CP:  9.64D-01  1.50D+00  6.87D-01  6.21D-01  8.59D-01
                    CP:  7.41D-01
 E= -4069.81176453765     Delta-E=       -0.000196898636 Rises=F Damp=F
 DIIS: error= 8.52D-05 at cycle   7 NSaved=   7.
 NSaved= 7 IEnMin= 7 EnMin= -4069.81176453765     IErMin= 7 ErrMin= 8.52D-05
 ErrMax= 8.52D-05  0.00D+00 EMaxC= 1.00D-01 BMatC= 2.19D-05 BMatP= 1.81D-04
 IDIUse=1 WtCom= 1.00D+00 WtEn= 0.00D+00
 Coeff-Com:  0.448D-02-0.981D-02-0.890D-02-0.357D-02 0.105D+00 0.332D+00
 Coeff-Com:  0.581D+00
 Coeff:      0.448D-02-0.981D-02-0.890D-02-0.357D-02 0.105D+00 0.332D+00
 Coeff:      0.581D+00
 Gap=     0.121 Goal=   None    Shift=    0.000
 RMSDP=6.63D-06 MaxDP=1.09D-03 DE=-1.97D-04 OVMax= 3.40D-03

 Cycle   8  Pass 1  IDiag  1:
 RMSU=  4.73D-06    CP:  9.64D-01  1.50D+00  6.88D-01  6.26D-01  8.63D-01
                    CP:  8.68D-01  8.18D-01
 E= -4069.81179184178     Delta-E=       -0.000027304133 Rises=F Damp=F
 DIIS: error= 5.01D-05 at cycle   8 NSaved=   8.
 NSaved= 8 IEnMin= 8 EnMin= -4069.81179184178     IErMin= 8 ErrMin= 5.01D-05
 ErrMax= 5.01D-05  0.00D+00 EMaxC= 1.00D-01 BMatC= 4.93D-06 BMatP= 2.19D-05
 IDIUse=1 WtCom= 1.00D+00 WtEn= 0.00D+00
 Coeff-Com:  0.218D-02-0.431D-02-0.780D-02-0.122D-01-0.111D-01 0.331D-01
 Coeff-Com:  0.339D+00 0.661D+00
 Coeff:      0.218D-02-0.431D-02-0.780D-02-0.122D-01-0.111D-01 0.331D-01
 Coeff:      0.339D+00 0.661D+00
 Gap=     0.121 Goal=   None    Shift=    0.000
 RMSDP=3.31D-06 MaxDP=3.47D-04 DE=-2.73D-05 OVMax= 1.05D-03

 Cycle   9  Pass 1  IDiag  1:
 RMSU=  1.93D-06    CP:  9.64D-01  1.50D+00  6.88D-01  6.27D-01  8.80D-01
                    CP:  8.95D-01  1.01D+00  9.49D-01
 E= -4069.81179977377     Delta-E=       -0.000007931987 Rises=F Damp=F
 DIIS: error= 2.01D-05 at cycle   9 NSaved=   9.
 NSaved= 9 IEnMin= 9 EnMin= -4069.81179977377     IErMin= 9 ErrMin= 2.01D-05
 ErrMax= 2.01D-05  0.00D+00 EMaxC= 1.00D-01 BMatC= 7.10D-07 BMatP= 4.93D-06
 IDIUse=1 WtCom= 1.00D+00 WtEn= 0.00D+00
 Coeff-Com:  0.470D-03-0.781D-03-0.268D-02-0.604D-02-0.212D-01-0.395D-01
 Coeff-Com:  0.103D+00 0.327D+00 0.640D+00
 Coeff:      0.470D-03-0.781D-03-0.268D-02-0.604D-02-0.212D-01-0.395D-01
 Coeff:      0.103D+00 0.327D+00 0.640D+00
 Gap=     0.121 Goal=   None    Shift=    0.000
 RMSDP=1.44D-06 MaxDP=1.44D-04 DE=-7.93D-06 OVMax= 7.57D-04

 Cycle  10  Pass 1  IDiag  1:
 RMSU=  9.50D-07    CP:  9.64D-01  1.50D+00  6.88D-01  6.28D-01  8.83D-01
                    CP:  9.08D-01  1.06D+00  1.11D+00  1.06D+00
 E= -4069.81180142273     Delta-E=       -0.000001648958 Rises=F Damp=F
 DIIS: error= 1.05D-05 at cycle  10 NSaved=  10.
 NSaved=10 IEnMin=10 EnMin= -4069.81180142273     IErMin=10 ErrMin= 1.05D-05
 ErrMax= 1.05D-05  0.00D+00 EMaxC= 1.00D-01 BMatC= 1.78D-07 BMatP= 7.10D-07
 IDIUse=1 WtCom= 1.00D+00 WtEn= 0.00D+00
 Coeff-Com: -0.435D-03 0.911D-03 0.126D-02 0.115D-02-0.367D-02-0.314D-01
 Coeff-Com: -0.459D-01-0.788D-01 0.250D+00 0.907D+00
 Coeff:     -0.435D-03 0.911D-03 0.126D-02 0.115D-02-0.367D-02-0.314D-01
 Coeff:     -0.459D-01-0.788D-01 0.250D+00 0.907D+00
 Gap=     0.121 Goal=   None    Shift=    0.000
 RMSDP=1.25D-06 MaxDP=1.25D-04 DE=-1.65D-06 OVMax= 6.27D-04

 Cycle  11  Pass 1  IDiag  1:
 RMSU=  5.26D-07    CP:  9.64D-01  1.50D+00  6.88D-01  6.28D-01  8.86D-01
                    CP:  9.18D-01  1.11D+00  1.23D+00  1.41D+00  1.38D+00
 E= -4069.81180224936     Delta-E=       -0.000000826629 Rises=F Damp=F
 DIIS: error= 4.25D-06 at cycle  11 NSaved=  11.
 NSaved=11 IEnMin=11 EnMin= -4069.81180224936     IErMin=11 ErrMin= 4.25D-06
 ErrMax= 4.25D-06  0.00D+00 EMaxC= 1.00D-01 BMatC= 6.59D-08 BMatP= 1.78D-07
 IDIUse=1 WtCom= 1.00D+00 WtEn= 0.00D+00
 Coeff-Com: -0.335D-03 0.652D-03 0.136D-02 0.216D-02 0.456D-02-0.860D-02
 Coeff-Com: -0.429D-01-0.135D+00-0.283D-01 0.475D+00 0.731D+00
 Coeff:     -0.335D-03 0.652D-03 0.136D-02 0.216D-02 0.456D-02-0.860D-02
 Coeff:     -0.429D-01-0.135D+00-0.283D-01 0.475D+00 0.731D+00
 Gap=     0.121 Goal=   None    Shift=    0.000
 RMSDP=7.06D-07 MaxDP=5.99D-05 DE=-8.27D-07 OVMax= 3.85D-04

 Cycle  12  Pass 1  IDiag  1:
 RMSU=  2.68D-07    CP:  9.64D-01  1.50D+00  6.88D-01  6.28D-01  8.87D-01
                    CP:  9.21D-01  1.13D+00  1.30D+00  1.57D+00  1.77D+00
                    CP:  1.20D+00
 E= -4069.81180252789     Delta-E=       -0.000000278527 Rises=F Damp=F
 DIIS: error= 2.50D-06 at cycle  12 NSaved=  12.
 NSaved=12 IEnMin=12 EnMin= -4069.81180252789     IErMin=12 ErrMin= 2.50D-06
 ErrMax= 2.50D-06  0.00D+00 EMaxC= 1.00D-01 BMatC= 1.60D-08 BMatP= 6.59D-08
 IDIUse=1 WtCom= 1.00D+00 WtEn= 0.00D+00
 Coeff-Com: -0.279D-05-0.116D-04 0.193D-03 0.533D-03 0.346D-02 0.399D-02
 Coeff-Com:  0.283D-02-0.361D-01-0.705D-01-0.694D-01 0.251D+00 0.914D+00
 Coeff:     -0.279D-05-0.116D-04 0.193D-03 0.533D-03 0.346D-02 0.399D-02
 Coeff:      0.283D-02-0.361D-01-0.705D-01-0.694D-01 0.251D+00 0.914D+00
 Gap=     0.121 Goal=   None    Shift=    0.000
 RMSDP=4.51D-07 MaxDP=2.98D-05 DE=-2.79D-07 OVMax= 2.55D-04

 Cycle  13  Pass 1  IDiag  1:
 RMSU=  1.69D-07    CP:  9.64D-01  1.50D+00  6.88D-01  6.28D-01  8.87D-01
                    CP:  9.21D-01  1.14D+00  1.32D+00  1.69D+00  2.00D+00
                    CP:  1.62D+00  1.26D+00
 E= -4069.81180262542     Delta-E=       -0.000000097534 Rises=F Damp=F
 DIIS: error= 1.34D-06 at cycle  13 NSaved=  13.
 NSaved=13 IEnMin=13 EnMin= -4069.81180262542     IErMin=13 ErrMin= 1.34D-06
 ErrMax= 1.34D-06  0.00D+00 EMaxC= 1.00D-01 BMatC= 8.77D-09 BMatP= 1.60D-08
 IDIUse=1 WtCom= 1.00D+00 WtEn= 0.00D+00
 Coeff-Com:  0.122D-03-0.249D-03-0.375D-03-0.464D-03 0.626D-03 0.508D-02
 Coeff-Com:  0.197D-01 0.231D-01-0.338D-01-0.241D+00-0.159D+00 0.599D+00
 Coeff-Com:  0.787D+00
 Coeff:      0.122D-03-0.249D-03-0.375D-03-0.464D-03 0.626D-03 0.508D-02
 Coeff:      0.197D-01 0.231D-01-0.338D-01-0.241D+00-0.159D+00 0.599D+00
 Coeff:      0.787D+00
 Gap=     0.121 Goal=   None    Shift=    0.000
 RMSDP=3.51D-07 MaxDP=2.18D-05 DE=-9.75D-08 OVMax= 2.06D-04

 Cycle  14  Pass 1  IDiag  1:
 RMSU=  7.77D-08    CP:  9.64D-01  1.50D+00  6.88D-01  6.28D-01  8.87D-01
                    CP:  9.22D-01  1.15D+00  1.35D+00  1.77D+00  2.20D+00
                    CP:  1.88D+00  1.78D+00  1.09D+00
 E= -4069.81180266339     Delta-E=       -0.000000037973 Rises=F Damp=F
 DIIS: error= 6.86D-07 at cycle  14 NSaved=  14.
 NSaved=14 IEnMin=14 EnMin= -4069.81180266339     IErMin=14 ErrMin= 6.86D-07
 ErrMax= 6.86D-07  0.00D+00 EMaxC= 1.00D-01 BMatC= 1.34D-09 BMatP= 8.77D-09
 IDIUse=1 WtCom= 1.00D+00 WtEn= 0.00D+00
 Coeff-Com:  0.679D-04-0.134D-03-0.252D-03-0.396D-03-0.482D-03 0.128D-02
 Coeff-Com:  0.107D-01 0.195D-01 0.420D-02-0.101D+00-0.144D+00 0.936D-01
 Coeff-Com:  0.406D+00 0.711D+00
 Coeff:      0.679D-04-0.134D-03-0.252D-03-0.396D-03-0.482D-03 0.128D-02
 Coeff:      0.107D-01 0.195D-01 0.420D-02-0.101D+00-0.144D+00 0.936D-01
 Coeff:      0.406D+00 0.711D+00
 Gap=     0.121 Goal=   None    Shift=    0.000
 RMSDP=1.05D-07 MaxDP=7.19D-06 DE=-3.80D-08 OVMax= 5.60D-05

 Cycle  15  Pass 1  IDiag  1:
 RMSU=  3.89D-08    CP:  9.64D-01  1.50D+00  6.88D-01  6.28D-01  8.87D-01
                    CP:  9.22D-01  1.15D+00  1.35D+00  1.78D+00  2.24D+00
                    CP:  1.99D+00  1.92D+00  1.33D+00  1.03D+00
 E= -4069.81180266781     Delta-E=       -0.000000004413 Rises=F Damp=F
 DIIS: error= 3.27D-07 at cycle  15 NSaved=  15.
 NSaved=15 IEnMin=15 EnMin= -4069.81180266781     IErMin=15 ErrMin= 3.27D-07
 ErrMax= 3.27D-07  0.00D+00 EMaxC= 1.00D-01 BMatC= 2.31D-10 BMatP= 1.34D-09
 IDIUse=1 WtCom= 1.00D+00 WtEn= 0.00D+00
 Coeff-Com:  0.549D-05-0.916D-05-0.332D-04-0.832D-04-0.302D-03-0.524D-03
 Coeff-Com:  0.114D-02 0.257D-02 0.886D-02 0.144D-02-0.306D-01-0.720D-01
 Coeff-Com:  0.315D-01 0.293D+00 0.765D+00
 Coeff:      0.549D-05-0.916D-05-0.332D-04-0.832D-04-0.302D-03-0.524D-03
 Coeff:      0.114D-02 0.257D-02 0.886D-02 0.144D-02-0.306D-01-0.720D-01
 Coeff:      0.315D-01 0.293D+00 0.765D+00
 Gap=     0.121 Goal=   None    Shift=    0.000
 RMSDP=4.03D-08 MaxDP=2.69D-06 DE=-4.41D-09 OVMax= 2.77D-05

 Cycle  16  Pass 1  IDiag  1:
 RMSU=  1.89D-08    CP:  9.64D-01  1.50D+00  6.88D-01  6.29D-01  8.87D-01
                    CP:  9.22D-01  1.15D+00  1.35D+00  1.79D+00  2.26D+00
                    CP:  2.01D+00  1.98D+00  1.40D+00  1.24D+00  1.15D+00
 E= -4069.81180266858     Delta-E=       -0.000000000779 Rises=F Damp=F
 DIIS: error= 1.80D-07 at cycle  16 NSaved=  16.
 NSaved=16 IEnMin=16 EnMin= -4069.81180266858     IErMin=16 ErrMin= 1.80D-07
 ErrMax= 1.80D-07  0.00D+00 EMaxC= 1.00D-01 BMatC= 8.61D-11 BMatP= 2.31D-10
 IDIUse=1 WtCom= 1.00D+00 WtEn= 0.00D+00
 Coeff-Com: -0.144D-04 0.291D-04 0.473D-04 0.541D-04-0.290D-04-0.637D-03
 Coeff-Com: -0.195D-02-0.429D-02 0.444D-02 0.255D-01 0.209D-01-0.648D-01
 Coeff-Com: -0.813D-01-0.398D-01 0.400D+00 0.742D+00
 Coeff:     -0.144D-04 0.291D-04 0.473D-04 0.541D-04-0.290D-04-0.637D-03
 Coeff:     -0.195D-02-0.429D-02 0.444D-02 0.255D-01 0.209D-01-0.648D-01
 Coeff:     -0.813D-01-0.398D-01 0.400D+00 0.742D+00
 Gap=     0.121 Goal=   None    Shift=    0.000
 RMSDP=2.34D-08 MaxDP=1.54D-06 DE=-7.79D-10 OVMax= 1.23D-05

 Cycle  17  Pass 1  IDiag  1:
 RMSU=  1.05D-08    CP:  9.64D-01  1.50D+00  6.88D-01  6.29D-01  8.87D-01
                    CP:  9.22D-01  1.15D+00  1.35D+00  1.79D+00  2.26D+00
                    CP:  2.02D+00  2.00D+00  1.45D+00  1.34D+00  1.44D+00
                    CP:  1.25D+00
 E= -4069.81180266897     Delta-E=       -0.000000000386 Rises=F Damp=F
 DIIS: error= 9.52D-08 at cycle  17 NSaved=  17.
 NSaved=17 IEnMin=17 EnMin= -4069.81180266897     IErMin=17 ErrMin= 9.52D-08
 ErrMax= 9.52D-08  0.00D+00 EMaxC= 1.00D-01 BMatC= 1.84D-11 BMatP= 8.61D-11
 IDIUse=1 WtCom= 1.00D+00 WtEn= 0.00D+00
 Coeff-Com: -0.738D-05 0.144D-04 0.291D-04 0.433D-04 0.846D-04-0.127D-03
 Coeff-Com: -0.950D-03-0.284D-02 0.868D-04 0.938D-02 0.176D-01-0.783D-02
 Coeff-Com: -0.361D-01-0.101D+00-0.275D-01 0.294D+00 0.855D+00
 Coeff:     -0.738D-05 0.144D-04 0.291D-04 0.433D-04 0.846D-04-0.127D-03
 Coeff:     -0.950D-03-0.284D-02 0.868D-04 0.938D-02 0.176D-01-0.783D-02
 Coeff:     -0.361D-01-0.101D+00-0.275D-01 0.294D+00 0.855D+00
 Gap=     0.121 Goal=   None    Shift=    0.000
 RMSDP=1.37D-08 MaxDP=9.52D-07 DE=-3.86D-10 OVMax= 9.23D-06

 Cycle  18  Pass 1  IDiag  1:
 RMSU=  5.05D-09    CP:  9.64D-01  1.50D+00  6.88D-01  6.29D-01  8.87D-01
                    CP:  9.22D-01  1.15D+00  1.35D+00  1.79D+00  2.26D+00
                    CP:  2.03D+00  2.01D+00  1.47D+00  1.40D+00  1.61D+00
                    CP:  1.65D+00  1.37D+00
 E= -4069.81180266912     Delta-E=       -0.000000000153 Rises=F Damp=F
 DIIS: error= 6.01D-08 at cycle  18 NSaved=  18.
 NSaved=18 IEnMin=18 EnMin= -4069.81180266912     IErMin=18 ErrMin= 6.01D-08
 ErrMax= 6.01D-08  0.00D+00 EMaxC= 1.00D-01 BMatC= 7.48D-12 BMatP= 1.84D-11
 IDIUse=1 WtCom= 1.00D+00 WtEn= 0.00D+00
 Coeff-Com:  0.174D-05-0.381D-05-0.343D-05-0.668D-07 0.618D-04 0.175D-03
 Coeff-Com:  0.355D-03 0.127D-03-0.127D-02-0.564D-02 0.435D-03 0.190D-01
 Coeff-Com:  0.164D-01-0.352D-01-0.160D+00-0.177D+00 0.375D+00 0.968D+00
 Coeff:      0.174D-05-0.381D-05-0.343D-05-0.668D-07 0.618D-04 0.175D-03
 Coeff:      0.355D-03 0.127D-03-0.127D-02-0.564D-02 0.435D-03 0.190D-01
 Coeff:      0.164D-01-0.352D-01-0.160D+00-0.177D+00 0.375D+00 0.968D+00
 Gap=     0.121 Goal=   None    Shift=    0.000
 RMSDP=1.16D-08 MaxDP=7.31D-07 DE=-1.53D-10 OVMax= 6.05D-06

 Cycle  19  Pass 1  IDiag  1:
 RMSU=  2.97D-09    CP:  9.64D-01  1.50D+00  6.88D-01  6.29D-01  8.87D-01
                    CP:  9.22D-01  1.15D+00  1.35D+00  1.79D+00  2.26D+00
                    CP:  2.03D+00  2.02D+00  1.48D+00  1.45D+00  1.76D+00
                    CP:  1.97D+00  1.91D+00  1.31D+00
 E= -4069.81180266908     Delta-E=        0.000000000047 Rises=F Damp=F
 DIIS: error= 3.19D-08 at cycle  19 NSaved=  19.
 NSaved=19 IEnMin=18 EnMin= -4069.81180266912     IErMin=19 ErrMin= 3.19D-08
 ErrMax= 3.19D-08  0.00D+00 EMaxC= 1.00D-01 BMatC= 1.70D-12 BMatP= 7.48D-12
 IDIUse=1 WtCom= 1.00D+00 WtEn= 0.00D+00
 Coeff-Com:  0.298D-05-0.602D-05-0.100D-04-0.124D-04 0.141D-04 0.125D-03
 Coeff-Com:  0.482D-03 0.805D-03-0.630D-03-0.609D-02-0.480D-02 0.127D-01
 Coeff-Com:  0.205D-01 0.991D-02-0.752D-01-0.184D+00-0.155D-01 0.514D+00
 Coeff-Com:  0.727D+00
 Coeff:      0.298D-05-0.602D-05-0.100D-04-0.124D-04 0.141D-04 0.125D-03
 Coeff:      0.482D-03 0.805D-03-0.630D-03-0.609D-02-0.480D-02 0.127D-01
 Coeff:      0.205D-01 0.991D-02-0.752D-01-0.184D+00-0.155D-01 0.514D+00
 Coeff:      0.727D+00
 Gap=     0.121 Goal=   None    Shift=    0.000
 RMSDP=4.70D-09 MaxDP=3.34D-07 DE= 4.73D-11 OVMax= 3.34D-06

 SCF Done:  E(RCAM-B3LYP) =  -4069.81180267     A.U. after   19 cycles
            NFock= 19  Conv=0.47D-08     -V/T= 2.0102
 KE= 4.028802365753D+03 PE=-3.741749540762D+04 EE= 1.535051068624D+04
 Leave Link  502 at Sun Sep 12 02:59:48 2021, MaxMem= 23488102400 cpu:           12391.5 elap:             540.1
 (Enter /sw/apps/gaussian-16.0/g16/l801.exe)
 DoSCS=F DFT=T ScalE2(SS,OS)=  1.000000  1.000000
 ExpMin= 3.36D-02 ExpMax= 4.95D+03 ExpMxC= 7.45D+02 IAcc=3 IRadAn=         5 AccDes= 0.00D+00
 HarFok:  IExCor=  205 AccDes= 0.00D+00 IRadAn=         5 IDoV=-2 UseB2=F ITyADJ=14
 ICtDFT= 12500011 ScaDFX=  1.000000  1.000000  1.000000  1.000000
 GSVD:  LWork=       -9588 too small for GESVD, short by       45590 words or       45590 for optimal perf.
 Largest valence mixing into a core orbital is  2.03D-04
 Largest core mixing into a valence orbital is  5.24D-05
 Range of M.O.s used for correlation:    95  1572
 NBasis=  1572 NAE=   312 NBE=   312 NFC=    94 NFV=     0
 NROrb=   1478 NOA=   218 NOB=   218 NVA=  1260 NVB=  1260
 Leave Link  801 at Sun Sep 12 02:59:48 2021, MaxMem= 23488102400 cpu:               8.3 elap:               0.4
 (Enter /sw/apps/gaussian-16.0/g16/l914.exe)
 RHF ground state
 Two-electron integrals replicated using symmetry.
 MDV= 23488102400 DFT=T DoStab=F Mixed=T DoRPA=T DoScal=F NonHer=T
 Making orbital integer symmetry assigments:
 Orbital symmetries:
       Occupied  (A) (A) (A) (A) (A) (A) (A) (A) (A) (A) (A) (A)
                 (A) (A) (A) (A) (A) (A) (A) (A) (A) (A) (A) (A)
                 (A) (A) (A) (A) (A) (A) (A) (A) (A) (A) (A) (A)
                 (A) (A) (A) (A) (A) (A) (A) (A) (A) (A) (A) (A)
                 (A) (A) (A) (A) (A) (A) (A) (A) (A) (A) (A) (A)
                 (A) (A) (A) (A) (A) (A) (A) (A) (A) (A) (A) (A)
                 (A) (A) (A) (A) (A) (A) (A) (A) (A) (A) (A) (A)
                 (A) (A) (A) (A) (A) (A) (A) (A) (A) (A) (A) (A)
                 (A) (A) (A) (A) (A) (A) (A) (A) (A) (A) (A) (A)
                 (A) (A) (A) (A) (A) (A) (A) (A) (A) (A) (A) (A)
                 (A) (A) (A) (A) (A) (A) (A) (A) (A) (A) (A) (A)
                 (A) (A) (A) (A) (A) (A) (A) (A) (A) (A) (A) (A)
                 (A) (A) (A) (A) (A) (A) (A) (A) (A) (A) (A) (A)
                 (A) (A) (A) (A) (A) (A) (A) (A) (A) (A) (A) (A)
                 (A) (A) (A) (A) (A) (A) (A) (A) (A) (A) (A) (A)
                 (A) (A) (A) (A) (A) (A) (A) (A) (A) (A) (A) (A)
                 (A) (A) (A) (A) (A) (A) (A) (A) (A) (A) (A) (A)
                 (A) (A) (A) (A) (A) (A) (A) (A) (A) (A) (A) (A)
                 (A) (A) (A) (A) (A) (A) (A) (A) (A) (A) (A) (A)
                 (A) (A) (A) (A) (A) (A) (A) (A) (A) (A) (A) (A)
                 (A) (A) (A) (A) (A) (A) (A) (A) (A) (A) (A) (A)
                 (A) (A) (A) (A) (A) (A) (A) (A) (A) (A) (A) (A)
                 (A) (A) (A) (A) (A) (A) (A) (A) (A) (A) (A) (A)
                 (A) (A) (A) (A) (A) (A) (A) (A) (A) (A) (A) (A)
                 (A) (A) (A) (A) (A) (A) (A) (A) (A) (A) (A) (A)
                 (A) (A) (A) (A) (A) (A) (A) (A) (A) (A) (A) (A)
       Virtual   (A) (A) (A) (A) (A) (A) (A) (A) (A) (A) (A) (A)
                 (A) (A) (A) (A) (A) (A) (A) (A) (A) (A) (A) (A)
                 (A) (A) (A) (A) (A) (A) (A) (A) (A) (A) (A) (A)
                 (A) (A) (A) (A) (A) (A) (A) (A) (A) (A) (A) (A)
                 (A) (A) (A) (A) (A) (A) (A) (A) (A) (A) (A) (A)
                 (A) (A) (A) (A) (A) (A) (A) (A) (A) (A) (A) (A)
                 (A) (A) (A) (A) (A) (A) (A) (A) (A) (A) (A) (A)
                 (A) (A) (A) (A) (A) (A) (A) (A) (A) (A) (A) (A)
                 (A) (A) (A) (A) (A) (A) (A) (A) (A) (A) (A) (A)
                 (A) (A) (A) (A) (A) (A) (A) (A) (A) (A) (A) (A)
                 (A) (A) (A) (A) (A) (A) (A) (A) (A) (A) (A) (A)
                 (A) (A) (A) (A) (A) (A) (A) (A) (A) (A) (A) (A)
                 (A) (A) (A) (A) (A) (A) (A) (A) (A) (A) (A) (A)
                 (A) (A) (A) (A) (A) (A) (A) (A) (A) (A) (A) (A)
                 (A) (A) (A) (A) (A) (A) (A) (A) (A) (A) (A) (A)
                 (A) (A) (A) (A) (A) (A) (A) (A) (A) (A) (A) (A)
                 (A) (A) (A) (A) (A) (A) (A) (A) (A) (A) (A) (A)
                 (A) (A) (A) (A) (A) (A) (A) (A) (A) (A) (A) (A)
                 (A) (A) (A) (A) (A) (A) (A) (A) (A) (A) (A) (A)
                 (A) (A) (A) (A) (A) (A) (A) (A) (A) (A) (A) (A)
                 (A) (A) (A) (A) (A) (A) (A) (A) (A) (A) (A) (A)
                 (A) (A) (A) (A) (A) (A) (A) (A) (A) (A) (A) (A)
                 (A) (A) (A) (A) (A) (A) (A) (A) (A) (A) (A) (A)
                 (A) (A) (A) (A) (A) (A) (A) (A) (A) (A) (A) (A)
                 (A) (A) (A) (A) (A) (A) (A) (A) (A) (A) (A) (A)
                 (A) (A) (A) (A) (A) (A) (A) (A) (A) (A) (A) (A)
                 (A) (A) (A) (A) (A) (A) (A) (A) (A) (A) (A) (A)
                 (A) (A) (A) (A) (A) (A) (A) (A) (A) (A) (A) (A)
                 (A) (A) (A) (A) (A) (A) (A) (A) (A) (A) (A) (A)
                 (A) (A) (A) (A) (A) (A) (A) (A) (A) (A) (A) (A)
                 (A) (A) (A) (A) (A) (A) (A) (A) (A) (A) (A) (A)
                 (A) (A) (A) (A) (A) (A) (A) (A) (A) (A) (A) (A)
                 (A) (A) (A) (A) (A) (A) (A) (A) (A) (A) (A) (A)
                 (A) (A) (A) (A) (A) (A) (A) (A) (A) (A) (A) (A)
                 (A) (A) (A) (A) (A) (A) (A) (A) (A) (A) (A) (A)
                 (A) (A) (A) (A) (A) (A) (A) (A) (A) (A) (A) (A)
                 (A) (A) (A) (A) (A) (A) (A) (A) (A) (A) (A) (A)
                 (A) (A) (A) (A) (A) (A) (A) (A) (A) (A) (A) (A)
                 (A) (A) (A) (A) (A) (A) (A) (A) (A) (A) (A) (A)
                 (A) (A) (A) (A) (A) (A) (A) (A) (A) (A) (A) (A)
                 (A) (A) (A) (A) (A) (A) (A) (A) (A) (A) (A) (A)
                 (A) (A) (A) (A) (A) (A) (A) (A) (A) (A) (A) (A)
                 (A) (A) (A) (A) (A) (A) (A) (A) (A) (A) (A) (A)
                 (A) (A) (A) (A) (A) (A) (A) (A) (A) (A) (A) (A)
                 (A) (A) (A) (A) (A) (A) (A) (A) (A) (A) (A) (A)
                 (A) (A) (A) (A) (A) (A) (A) (A) (A) (A) (A) (A)
                 (A) (A) (A) (A) (A) (A) (A) (A) (A) (A) (A) (A)
                 (A) (A) (A) (A) (A) (A) (A) (A) (A) (A) (A) (A)
                 (A) (A) (A) (A) (A) (A) (A) (A) (A) (A) (A) (A)
                 (A) (A) (A) (A) (A) (A) (A) (A) (A) (A) (A) (A)
                 (A) (A) (A) (A) (A) (A) (A) (A) (A) (A) (A) (A)
                 (A) (A) (A) (A) (A) (A) (A) (A) (A) (A) (A) (A)
                 (A) (A) (A) (A) (A) (A) (A) (A) (A) (A) (A) (A)
                 (A) (A) (A) (A) (A) (A) (A) (A) (A) (A) (A) (A)
                 (A) (A) (A) (A) (A) (A) (A) (A) (A) (A) (A) (A)
                 (A) (A) (A) (A) (A) (A) (A) (A) (A) (A) (A) (A)
                 (A) (A) (A) (A) (A) (A) (A) (A) (A) (A) (A) (A)
                 (A) (A) (A) (A) (A) (A) (A) (A) (A) (A) (A) (A)
                 (A) (A) (A) (A) (A) (A) (A) (A) (A) (A) (A) (A)
                 (A) (A) (A) (A) (A) (A) (A) (A) (A) (A) (A) (A)
                 (A) (A) (A) (A) (A) (A) (A) (A) (A) (A) (A) (A)
                 (A) (A) (A) (A) (A) (A) (A) (A) (A) (A) (A) (A)
                 (A) (A) (A) (A) (A) (A) (A) (A) (A) (A) (A) (A)
                 (A) (A) (A) (A) (A) (A) (A) (A) (A) (A) (A) (A)
                 (A) (A) (A) (A) (A) (A) (A) (A) (A) (A) (A) (A)
                 (A) (A) (A) (A) (A) (A) (A) (A) (A) (A) (A) (A)
                 (A) (A) (A) (A) (A) (A) (A) (A) (A) (A) (A) (A)
                 (A) (A) (A) (A) (A) (A) (A) (A) (A) (A) (A) (A)
                 (A) (A) (A) (A) (A) (A) (A) (A) (A) (A) (A) (A)
                 (A) (A) (A) (A) (A) (A) (A) (A) (A) (A) (A) (A)
                 (A) (A) (A) (A) (A) (A) (A) (A) (A) (A) (A) (A)
                 (A) (A) (A) (A) (A) (A) (A) (A) (A) (A) (A) (A)
                 (A) (A) (A) (A) (A) (A) (A) (A) (A) (A) (A) (A)
                 (A) (A) (A) (A) (A) (A) (A) (A) (A) (A) (A) (A)
                 (A) (A) (A) (A) (A) (A) (A) (A) (A) (A) (A) (A)
                 (A) (A) (A) (A) (A) (A) (A) (A) (A) (A) (A) (A)
                 (A) (A) (A) (A) (A) (A) (A) (A) (A) (A) (A) (A)
                 (A) (A) (A) (A) (A) (A) (A) (A) (A) (A) (A) (A)
                 (A) (A) (A) (A) (A) (A) (A) (A) (A) (A) (A) (A)
                 (A) (A) (A) (A) (A) (A) (A) (A) (A) (A) (A) (A)
                 (A) (A) (A) (A) (A) (A) (A) (A) (A) (A) (A) (A)
                 (A) (A) (A) (A) (A) (A) (A) (A) (A) (A) (A) (A)
                 (A) (A) (A) (A) (A) (A) (A) (A) (A) (A) (A) (A)
                 (A) (A) (A) (A) (A) (A) (A) (A) (A) (A) (A) (A)
                 (A) (A) (A) (A) (A) (A) (A) (A) (A) (A) (A) (A)
                 (A) (A) (A) (A) (A) (A) (A) (A) (A) (A) (A) (A)
                 (A) (A) (A) (A) (A) (A) (A) (A) (A) (A) (A) (A)
                 (A) (A) (A) (A) (A) (A) (A) (A) (A) (A) (A) (A)
                 (A) (A) (A) (A) (A) (A) (A) (A) (A) (A) (A) (A)
                 (A) (A) (A) (A) (A) (A) (A) (A) (A) (A) (A) (A)
                 (A) (A) (A) (A) (A) (A) (A) (A) (A) (A) (A) (A)
                 (A) (A) (A) (A) (A) (A) (A) (A) (A) (A) (A) (A)
                 (A) (A) (A) (A) (A) (A) (A) (A) (A) (A) (A) (A)
                 (A) (A) (A) (A) (A) (A) (A) (A) (A) (A) (A) (A)
                 (A) (A) (A) (A) (A) (A) (A) (A) (A) (A) (A) (A)
                 (A) (A) (A) (A) (A) (A) (A) (A) (A) (A) (A) (A)
                 (A) (A) (A) (A) (A) (A) (A) (A) (A) (A) (A) (A)
                 (A) (A) (A) (A) (A) (A) (A) (A) (A) (A) (A) (A)
                 (A) (A) (A) (A) (A) (A) (A) (A) (A) (A) (A) (A)
                 (A) (A) (A) (A) (A) (A) (A) (A) (A) (A) (A) (A)
                 (A) (A) (A) (A) (A) (A) (A) (A) (A) (A) (A) (A)
                 (A) (A) (A) (A) (A) (A) (A) (A) (A) (A) (A) (A)
                 (A) (A) (A) (A) (A) (A) (A) (A) (A) (A) (A) (A)
                 (A) (A) (A) (A) (A) (A) (A) (A) (A) (A) (A) (A)
                 (A) (A) (A) (A) (A) (A) (A) (A) (A) (A) (A) (A)
    20 initial guesses have been made.
 Convergence on wavefunction:    0.001000000000000
 Davidson Disk Diagonalization:  ConvIn= 1.00D-03 SkipCon=T Conv= 1.00D-03.
 Max sub-space:  2000 roots to seek:    20 dimension of matrix:       549360
 Iteration     1 Dimension    20 NMult     0 NNew     20
 CISAX will form    20 AO SS matrices at one time.
 NMat=    20 NSing=    20 JSym2X= 0.
 FoFJK:  IHMeth= 1 ICntrl=       0 DoSepK=T KAlg= 0 I1Cent=           0 FoldK=F
 IRaf=         1 NMat=      40 IRICut=       1 DoRegI=T DoRafI=F ISym2E= 0 IDoP0=3 IntGTp=3.
 FoFCou: FMM=T IPFlag=           0 FMFlag=      100000 FMFlg1=        2001
         NFxFlg=           0 DoJE=F BraDBF=F KetDBF=F FulRan=T
         wScrn=  0.000000 ICntrl=       500 IOpCl=  0 I1Cent=           0 NGrid=           0
         NMat0=   20 NMatS0=     20 NMatT0=    0 NMatD0=   20 NMtDS0=    0 NMtDT0=    0
 Symmetry not used in FoFCou.
 FMM levels:  10  Number of levels for PrismC:   9
 New state      1 was old state      7
 New state      2 was old state      6
 New state      3 was old state      2
 New state      4 was old state      3
 New state      5 was old state      1
 Excitation Energies [eV] at current iteration:
 Root      1 :     2.613971199476911
 Root      2 :     2.620449394843432
 Root      3 :     2.667453866529588
 Root      4 :     2.703349194286545
 Root      5 :     2.719081921793204
 Root      6 :     2.852427388792248
 Root      7 :     3.506645993899308
 Root      8 :     3.625984409368805
 Root      9 :     3.654284376174897
 Root     10 :     3.667044188244174
 Root     11 :     3.738074831445715
 Root     12 :     3.761201380450718
 Root     13 :     4.299718639977426
 Root     14 :     4.306708924068520
 Root     15 :     4.626670984726762
 Root     16 :     4.800802816906406
 Root     17 :     4.929951537988304
 Root     18 :     4.978246772968738
 Root     19 :     5.077434476102619
 Root     20 :     5.090880867051101
 Iteration     2 Dimension    30 NMult    20 NNew     10
 CISAX will form    10 AO SS matrices at one time.
 NMat=    10 NSing=    10 JSym2X= 0.
 New state      1 was old state      3
 Root      1 not converged, maximum delta is    0.150682268637152
 New state      2 was old state      4
 Root      2 not converged, maximum delta is    0.155071720581969
 New state      3 was old state      2
 Root      3 not converged, maximum delta is    0.255507064379087
 New state      4 was old state      1
 Root      4 not converged, maximum delta is    0.243620834779826
 Root      5 not converged, maximum delta is    0.012851462234771
 Excitation Energies [eV] at current iteration:
 Root      1 :     1.794551159766576   Change is   -0.872902706763011
 Root      2 :     1.813275707578004   Change is   -0.890073486708541
 Root      3 :     2.235559004406713   Change is   -0.384890390436719
 Root      4 :     2.239386119453754   Change is   -0.374585080023158
 Root      5 :     2.717879388267749   Change is   -0.001202533525455
 Iteration     3 Dimension    40 NMult    30 NNew     10
 CISAX will form    10 AO SS matrices at one time.
 NMat=    10 NSing=    10 JSym2X= 0.
 Root      1 not converged, maximum delta is    0.054681648492644
 Root      2 not converged, maximum delta is    0.055658177104647
 Root      3 not converged, maximum delta is    0.074258098143853
 Root      4 not converged, maximum delta is    0.073878334417703
 Root      5 has converged.
 Excitation Energies [eV] at current iteration:
 Root      1 :     1.687779136818252   Change is   -0.106772022948325
 Root      2 :     1.704533908887167   Change is   -0.108741798690837
 Root      3 :     2.193689159092481   Change is   -0.041869845314232
 Root      4 :     2.200288756589000   Change is   -0.039097362864754
 Root      5 :     2.717877733708226   Change is   -0.000001654559523
 Iteration     4 Dimension    48 NMult    40 NNew      8
 CISAX will form     8 AO SS matrices at one time.
 NMat=     8 NSing=     8 JSym2X= 0.
 Root      1 not converged, maximum delta is    0.010585475610342
 Root      2 not converged, maximum delta is    0.010506209053530
 Root      3 not converged, maximum delta is    0.009961435859385
 Root      4 not converged, maximum delta is    0.009014747747461
 Root      5 has converged.
 Excitation Energies [eV] at current iteration:
 Root      1 :     1.671029376896072   Change is   -0.016749759922179
 Root      2 :     1.687695485125932   Change is   -0.016838423761235
 Root      3 :     2.186323484403598   Change is   -0.007365674688883
 Root      4 :     2.193490812744557   Change is   -0.006797943844443
 Root      5 :     2.717877733707349   Change is   -0.000000000000877
 Iteration     5 Dimension    56 NMult    48 NNew      8
 CISAX will form     8 AO SS matrices at one time.
 NMat=     8 NSing=     8 JSym2X= 0.
 Root      1 not converged, maximum delta is    0.001716745737310
 Root      2 not converged, maximum delta is    0.001747171147700
 Root      3 not converged, maximum delta is    0.002514799054899
 Root      4 not converged, maximum delta is    0.002366981306009
 Root      5 has converged.
 Excitation Energies [eV] at current iteration:
 Root      1 :     1.669264751766827   Change is   -0.001764625129246
 Root      2 :     1.685907482669289   Change is   -0.001788002456644
 Root      3 :     2.185466537800946   Change is   -0.000856946602652
 Root      4 :     2.192712430272867   Change is   -0.000778382471690
 Root      5 :     2.717877733704354   Change is   -0.000000000002994
 Iteration     6 Dimension    64 NMult    56 NNew      8
 CISAX will form     8 AO SS matrices at one time.
 NMat=     8 NSing=     8 JSym2X= 0.
 Root      1 not converged, maximum delta is    0.001082765979198
 Root      2 not converged, maximum delta is    0.001088851275946
 Root      3 not converged, maximum delta is    0.001085134427427
 Root      4 not converged, maximum delta is    0.001012170374363
 Root      5 has converged.
 Excitation Energies [eV] at current iteration:
 Root      1 :     1.669013564731245   Change is   -0.000251187035582
 Root      2 :     1.685650498848836   Change is   -0.000256983820453
 Root      3 :     2.185336633263516   Change is   -0.000129904537430
 Root      4 :     2.192593949539866   Change is   -0.000118480733002
 Root      5 :     2.717877733702781   Change is   -0.000000000001573
 Iteration     7 Dimension    72 NMult    64 NNew      8
 CISAX will form     8 AO SS matrices at one time.
 NMat=     8 NSing=     8 JSym2X= 0.
 Root      1 has converged.
 Root      2 has converged.
 Root      3 has converged.
 Root      4 has converged.
 Root      5 has converged.
 Excitation Energies [eV] at current iteration:
 Root      1 :     1.668989165295752   Change is   -0.000024399435493
[...]
 Alpha virt. eigenvalues --    1.83632   1.83656   1.83918   1.83938   1.84287
 Alpha virt. eigenvalues --    1.84348   1.84576   1.84704   1.84848   1.84997
 Alpha virt. eigenvalues --    1.85168   1.85185   1.85356   1.85392   1.85549
 Alpha virt. eigenvalues --    1.85764   1.85960   1.86255   1.86429   1.86445
 Alpha virt. eigenvalues --    1.86682   1.86716   1.86866   1.86942   1.87140
 Alpha virt. eigenvalues --    1.87343   1.87551   1.87579   1.87763   1.87870
 Alpha virt. eigenvalues --    1.87935   1.88066   1.88252   1.88430   1.88635
 Alpha virt. eigenvalues --    1.88724   1.89002   1.89028   1.89142   1.89516
 Alpha virt. eigenvalues --    1.89634   1.89713   1.89926   1.90015   1.90259
 Alpha virt. eigenvalues --    1.90653   1.90973   1.91251   1.91344   1.91480
 Alpha virt. eigenvalues --    1.91681   1.92056   1.92259   1.92519   1.92748
 Alpha virt. eigenvalues --    1.92880   1.93208   1.93236   1.93546   1.94180
 Alpha virt. eigenvalues --    1.94362   1.94584   1.94865   1.95376   1.95626
 Alpha virt. eigenvalues --    1.95628   1.95893   1.95902   1.96050   1.96107
 Alpha virt. eigenvalues --    1.96266   1.96494   1.96552   1.96793   1.96994
 Alpha virt. eigenvalues --    1.97350   1.97628   1.97738   1.97885   1.98068
 Alpha virt. eigenvalues --    1.98248   1.98477   1.98580   1.99035   1.99132
 Alpha virt. eigenvalues --    1.99718   2.00015   2.00559   2.00785   2.00893
 Alpha virt. eigenvalues --    2.01177   2.01374   2.01544   2.01571   2.01615
 Alpha virt. eigenvalues --    2.01704   2.01913   2.02681   2.02782   2.03137
 Alpha virt. eigenvalues --    2.03195   2.03299   2.03382   2.03461   2.03603
 Alpha virt. eigenvalues --    2.03933   2.04101   2.04850   2.05023   2.05407
 Alpha virt. eigenvalues --    2.05677   2.05970   2.06349   2.06803   2.07091
 Alpha virt. eigenvalues --    2.07149   2.07412   2.08471   2.08581   2.08875
 Alpha virt. eigenvalues --    2.09074   2.09482   2.09683   2.10675   2.11067
 Alpha virt. eigenvalues --    2.11081   2.11432   2.11463   2.11619   2.11625
 Alpha virt. eigenvalues --    2.11923   2.12361   2.12548   2.12697   2.12735
 Alpha virt. eigenvalues --    2.12849   2.12935   2.13660   2.13722   2.14041
 Alpha virt. eigenvalues --    2.14290   2.15228   2.15455   2.15828   2.16154
 Alpha virt. eigenvalues --    2.16418   2.16643   2.16663   2.17231   2.17314
 Alpha virt. eigenvalues --    2.17601   2.17688   2.17971   2.18008   2.18047
 Alpha virt. eigenvalues --    2.18220   2.18765   2.18771   2.19330   2.19537
 Alpha virt. eigenvalues --    2.19892   2.19929   2.20117   2.20318   2.20510
 Alpha virt. eigenvalues --    2.21047   2.21200   2.21562   2.21648   2.21828
 Alpha virt. eigenvalues --    2.21961   2.22575   2.22757   2.23214   2.23392
 Alpha virt. eigenvalues --    2.24287   2.24462   2.24852   2.25036   2.26194
 Alpha virt. eigenvalues --    2.26515   2.26673   2.27000   2.27073   2.27282
 Alpha virt. eigenvalues --    2.28032   2.28383   2.29162   2.29484   2.29628
 Alpha virt. eigenvalues --    2.29944   2.30348   2.30718   2.30963   2.30981
 Alpha virt. eigenvalues --    2.31084   2.31251   2.32011   2.32277   2.33026
 Alpha virt. eigenvalues --    2.33303   2.33356   2.33542   2.34037   2.34197
 Alpha virt. eigenvalues --    2.35271   2.35412   2.35690   2.35972   2.36247
 Alpha virt. eigenvalues --    2.36385   2.36479   2.36513   2.37559   2.37715
 Alpha virt. eigenvalues --    2.38141   2.38411   2.38748   2.38867   2.39503
 Alpha virt. eigenvalues --    2.39725   2.40077   2.40308   2.40378   2.40910
 Alpha virt. eigenvalues --    2.41162   2.41299   2.41577   2.41742   2.41940
 Alpha virt. eigenvalues --    2.42219   2.42834   2.42847   2.43272   2.43438
 Alpha virt. eigenvalues --    2.44037   2.44062   2.44623   2.44798   2.44858
 Alpha virt. eigenvalues --    2.45050   2.45448   2.45615   2.46187   2.46329
 Alpha virt. eigenvalues --    2.46375   2.46543   2.46693   2.46866   2.47156
 Alpha virt. eigenvalues --    2.47430   2.47606   2.47929   2.49200   2.49414
 Alpha virt. eigenvalues --    2.49918   2.49958   2.50435   2.50485   2.51012
 Alpha virt. eigenvalues --    2.51343   2.51654   2.51773   2.52327   2.52491
 Alpha virt. eigenvalues --    2.52702   2.53222   2.53810   2.54003   2.54031
 Alpha virt. eigenvalues --    2.54301   2.54684   2.54853   2.55406   2.55706
 Alpha virt. eigenvalues --    2.57750   2.58111   2.58539   2.58939   2.60099
 Alpha virt. eigenvalues --    2.60380   2.60502   2.60982   2.61598   2.61851
 Alpha virt. eigenvalues --    2.62423   2.62480   2.62850   2.63173   2.63826
 Alpha virt. eigenvalues --    2.64141   2.64266   2.64442   2.64972   2.65141
 Alpha virt. eigenvalues --    2.65674   2.65925   2.66666   2.66801   2.66842
 Alpha virt. eigenvalues --    2.67093   2.67799   2.68018   2.68743   2.68850
 Alpha virt. eigenvalues --    2.68915   2.69120   2.69281   2.69636   2.69890
 Alpha virt. eigenvalues --    2.70168   2.70873   2.71130   2.71944   2.71962
 Alpha virt. eigenvalues --    2.72549   2.72579   2.72727   2.72836   2.73166
 Alpha virt. eigenvalues --    2.73300   2.73425   2.73584   2.74405   2.74550
 Alpha virt. eigenvalues --    2.74867   2.75103   2.76484   2.76549   2.77109
 Alpha virt. eigenvalues --    2.77127   2.77338   2.77633   2.78064   2.78310
 Alpha virt. eigenvalues --    2.78620   2.78724   2.79022   2.79209   2.80224
 Alpha virt. eigenvalues --    2.80282   2.80477   2.80766   2.81015   2.81186
 Alpha virt. eigenvalues --    2.81825   2.82049   2.82234   2.82365   2.83638
 Alpha virt. eigenvalues --    2.83659   2.83859   2.83972   2.84440   2.84547
 Alpha virt. eigenvalues --    2.84775   2.84901   2.85548   2.85714   2.86715
 Alpha virt. eigenvalues --    2.86889   2.87303   2.87506   2.88030   2.88251
 Alpha virt. eigenvalues --    2.88412   2.88644   2.88824   2.88896   2.90389
 Alpha virt. eigenvalues --    2.90700   2.91084   2.91092   2.93045   2.93361
 Alpha virt. eigenvalues --    2.93801   2.94088   2.94439   2.94576   2.95256
 Alpha virt. eigenvalues --    2.95536   2.95989   2.96100   2.96330   2.96405
 Alpha virt. eigenvalues --    2.96992   2.97071   2.97706   2.98039   2.98087
 Alpha virt. eigenvalues --    2.98269   2.98440   2.98511   2.98610   2.98775
 Alpha virt. eigenvalues --    2.98806   2.98943   2.99468   2.99801   2.99920
 Alpha virt. eigenvalues --    3.00112   3.00120   3.00351   3.00354   3.01039
 Alpha virt. eigenvalues --    3.01882   3.01916   3.01920   3.02170   3.02626
 Alpha virt. eigenvalues --    3.02874   3.02911   3.03209   3.03336   3.03754
 Alpha virt. eigenvalues --    3.04063   3.04093   3.04363   3.04440   3.04466
 Alpha virt. eigenvalues --    3.04749   3.05193   3.05357   3.06004   3.06187
 Alpha virt. eigenvalues --    3.06692   3.06968   3.07922   3.08028   3.09284
 Alpha virt. eigenvalues --    3.09356   3.09578   3.10332   3.10509   3.10780
 Alpha virt. eigenvalues --    3.11227   3.11479   3.11833   3.11895   3.12070
 Alpha virt. eigenvalues --    3.12366   3.13168   3.13528   3.13686   3.13707
 Alpha virt. eigenvalues --    3.13992   3.14604   3.15811   3.15980   3.17161
 Alpha virt. eigenvalues --    3.17549   3.17877   3.17955   3.19012   3.19042
 Alpha virt. eigenvalues --    3.22201   3.22697   3.23839   3.24473   3.24578
 Alpha virt. eigenvalues --    3.25246   3.26397   3.26680   3.27426   3.27512
 Alpha virt. eigenvalues --    3.28996   3.29333   3.31408   3.31416   3.33204
 Alpha virt. eigenvalues --    3.33307   3.40414   3.40530   3.42695   3.42824
 Alpha virt. eigenvalues --    3.48559   3.48732   3.49912   3.50301   3.50860
 Alpha virt. eigenvalues --    3.51362   3.56439   3.57022   3.58990   3.59352
 Alpha virt. eigenvalues --    3.62544   3.62732   3.66060   3.66112   3.67083
 Alpha virt. eigenvalues --    3.67671   3.73172   3.74117   3.75960   3.76762
          Condensed to atoms (all electrons):
 Mulliken charges:
               1
     1  Mg   0.837822
     2  C   -0.003207
     3  C   -0.094283
     4  C   -0.046002
     5  C   -0.063840
     6  N   -0.256804
     7  C   -0.052473
     8  C   -0.013926
     9  C   -0.086936
    10  C    0.046072
    11  C    0.104747
    12  C    0.053517
    13  C   -0.071822
    14  H    0.035997
    15  N   -0.433133
    16  C    0.168070
    17  C   -0.177380
    18  C   -0.004265
    19  C    0.148405
    20  C    0.110164
    21  C    0.011812
    22  O   -0.249642
    23  C    0.062714
    24  N   -0.341096
    25  C    0.041158
    26  C   -0.028158
    27  C   -0.024101
    28  C    0.074801
    29  C    0.076083
    30  C    0.035108
    31  C   -0.004547
    32  N   -0.310564
    33  C    0.080391
    34  C   -0.169378
    35  C    0.008605
    36  C    0.082857
    37  C    0.127236
    38  C    0.046257
    39  O   -0.187735
    40  C   -0.005354
    41  C    0.213124
    42  O   -0.257700
    43  O   -0.304600
    44  C    0.157678
    45  H   -0.017450
    46  H   -0.016820
    47  H   -0.041050
    48  H    0.001267
    49  H   -0.004098
    50  H    0.025676
    51  H    0.016551
    52  H    0.016886
    53  H    0.010660
    54  H    0.043700
    55  H    0.018338
    56  H    0.017930
    57  H    0.005994
    58  H    0.027068
    59  H    0.038868
    60  H    0.037723
    61  H    0.035526
    62  H    0.030644
    63  H    0.016339
    64  H    0.009845
    65  H    0.023314
    66  H    0.012657
    67  H    0.005055
    68  H    0.006640
    69  H    0.005222
    70  H    0.008436
    71  H    0.018400
    72  H    0.028440
    73  H    0.048117
    74  H    0.009392
    75  H    0.046337
    76  H    0.035504
    77  H    0.043521
    78  H    0.046376
    79  H    0.053320
    80  Mg   0.837615
    81  C   -0.016812
    82  C   -0.087869
    83  C   -0.045696
    84  C   -0.065150
    85  N   -0.254565
    86  C   -0.049776
    87  C   -0.015099
    88  C   -0.090419
    89  C    0.045761
    90  C    0.114453
    91  C    0.062626
    92  C   -0.078078
    93  H    0.035230
    94  N   -0.423447
    95  C    0.162801
    96  C   -0.174772
    97  C   -0.008030
    98  C    0.152049
    99  C    0.099457
   100  C    0.015410
   101  O   -0.253428
   102  C    0.061270
   103  N   -0.350092
   104  C    0.037451
   105  C   -0.019763
   106  C   -0.034811
   107  C    0.089025
   108  C    0.073728
   109  C    0.034790
   110  C   -0.007644
   111  N   -0.324143
   112  C    0.078572
   113  C   -0.163266
   114  C    0.002452
   115  C    0.096138
   116  C    0.131498
   117  C    0.042301
   118  O   -0.187207
   119  C    0.001144
   120  C    0.211295
   121  O   -0.251674
   122  O   -0.305059
   123  C    0.151944
   124  H   -0.019825
   125  H   -0.015847
   126  H   -0.040623
   127  H    0.000618
   128  H   -0.004595
   129  H    0.022879
   130  H    0.014027
   131  H    0.016437
   132  H    0.013149
   133  H    0.037629
   134  H    0.022754
   135  H    0.018478
   136  H    0.008576
   137  H    0.025903
   138  H    0.039345
   139  H    0.038126
   140  H    0.036112
   141  H    0.033710
   142  H    0.014211
   143  H    0.012308
   144  H    0.024911
   145  H    0.011630
   146  H    0.005533
   147  H    0.006066
   148  H    0.003598
   149  H    0.010813
   150  H    0.017794
   151  H    0.030233
   152  H    0.046088
   153  H    0.008296
   154  H    0.047000
   155  H    0.035722
   156  H    0.045747
   157  H    0.050433
   158  H    0.052553
 Sum of Mulliken charges =  -0.00000
 Mulliken charges with hydrogens summed into heavy atoms:
               1
     1  Mg   0.837822
     2  C   -0.003207
     3  C   -0.111734
     4  C   -0.062822
     5  C   -0.104890
     6  N   -0.256804
     7  C   -0.052473
     8  C   -0.012659
     9  C   -0.091034
    10  C    0.046072
    11  C    0.163860
    12  C    0.107877
    13  C    0.000444
    15  N   -0.433133
    16  C    0.168070
    17  C   -0.177380
    18  C   -0.004265
    19  C    0.148405
    20  C    0.182095
    21  C    0.011812
    22  O   -0.249642
    23  C    0.166606
    24  N   -0.341096
    25  C    0.041158
    26  C   -0.011819
    27  C   -0.014256
    28  C    0.074801
    29  C    0.117110
    30  C    0.046970
    31  C    0.050728
    32  N   -0.310564
    33  C    0.080391
    34  C   -0.169378
    35  C    0.008605
    36  C    0.082857
    37  C    0.231082
    38  C    0.046257
    39  O   -0.187735
    40  C    0.030151
    41  C    0.213124
    42  O   -0.257700
    43  O   -0.304600
    44  C    0.300896
    80  Mg   0.837615
    81  C   -0.016812
    82  C   -0.107693
    83  C   -0.061543
    84  C   -0.105773
    85  N   -0.254565
    86  C   -0.049776
    87  C   -0.014482
    88  C   -0.095015
    89  C    0.045761
    90  C    0.167796
    91  C    0.113404
    92  C   -0.001617
    94  N   -0.423447
    95  C    0.162801
    96  C   -0.174772
    97  C   -0.008030
    98  C    0.152049
    99  C    0.173280
   100  C    0.015410
   101  O   -0.253428
   102  C    0.169218
   103  N   -0.350092
   104  C    0.037451
   105  C   -0.005552
   106  C   -0.022503
   107  C    0.089025
   108  C    0.115802
   109  C    0.044454
   110  C    0.051196
   111  N   -0.324143
   112  C    0.078572
   113  C   -0.163266
   114  C    0.002452
   115  C    0.096138
   116  C    0.232882
   117  C    0.042301
   118  O   -0.187207
   119  C    0.036866
   120  C    0.211295
   121  O   -0.251674
   122  O   -0.305059
   123  C    0.300677
 Electronic spatial extent (au):  <R**2>=         183344.2994
 Charge=             -0.0000 electrons
 Dipole moment (field-independent basis, Debye):
    X=              4.4096    Y=              6.5255    Z=             -3.3046  Tot=              8.5409
 Quadrupole moment (field-independent basis, Debye-Ang):
   XX=           -494.4218   YY=           -562.0633   ZZ=           -464.2519
   XY=             12.5795   XZ=            -41.2690   YZ=             -7.6049
 Traceless Quadrupole moment (field-independent basis, Debye-Ang):
   XX=             12.4905   YY=            -55.1510   ZZ=             42.6605
   XY=             12.5795   XZ=            -41.2690   YZ=             -7.6049
 Octapole moment (field-independent basis, Debye-Ang**2):
  XXX=            289.2309  YYY=            114.8572  ZZZ=             28.1244  XYY=             39.5655
  XXY=            -79.0254  XXZ=             63.2070  XZZ=            253.3445  YZZ=              4.7949
  YYZ=           -280.0587  XYZ=             28.5336
 Hexadecapole moment (field-independent basis, Debye-Ang**3):
 XXXX=        -193455.4855 YYYY=         -36687.9635 ZZZZ=         -17694.5948 XXXY=           5889.8619
 XXXZ=          -5927.9471 YYYX=           -712.6826 YYYZ=            -36.9738 ZZZX=            395.3046
 ZZZY=            165.8683 XXYY=         -42663.6115 XXZZ=         -33116.6796 YYZZ=          -8285.2476
 XXYZ=           -574.5600 YYXZ=          -1152.7107 ZZXY=           -340.3405
 N-N= 1.396837055296D+04 E-N=-3.741749539910D+04  KE= 4.028802365753D+03
 Leave Link  601 at Sun Sep 12 03:21:23 2021, MaxMem= 23488102400 cpu:              14.9 elap:               0.7
 (Enter /sw/apps/gaussian-16.0/g16/l9999.exe)
 1\1\GINC-BP1-COMPUTE00090\SP\RCAM-B3LYP TD-FC\def2SVP\C68H72Mg2N8O8\OF
 15641\12-Sep-2021\0\\#p cam-b3lyp/Def2SVP td=(nstates=5)\\TDDFT excite
 d states in gaussian\\0,1\Mg,0,0.,0.,0.\C,0,-0.217,-2.218,2.801\C,0,-1
 .255,2.442,2.026\C,0,-0.245,1.85,-2.564\C,0,0.146,-2.824,-2.037\N,0,-0
 .617,-0.009,2.126\C,0,-0.594,-0.908,3.105\C,0,-0.936,-0.309,4.502\C,0,
 -1.773,0.964,4.032\C,0,-1.155,1.168,2.66\C,0,-3.263,0.685,3.863\C,0,0.
 345,0.11,5.299\C,0,0.124,0.397,6.787\H,0,1.168,0.033,7.733\N,0,-0.185,
 1.961,-0.152\C,0,-0.703,2.8,0.777\C,0,-0.62,4.156,0.193\C,0,-0.187,4.0
 15,-1.225\C,0,-0.214,2.583,-1.38\C,0,-0.887,5.406,0.974\C,0,0.181,5.01
 3,-2.277\O,0,0.303,4.69,-3.508\C,0,0.31,6.414,-1.837\N,0,-0.265,-0.413
 ,-2.029\C,0,-0.279,0.569,-2.937\C,0,-0.196,0.024,-4.332\C,0,0.124,-1.5
 33,-4.18\C,0,0.086,-1.632,-2.635\C,0,-1.451,0.205,-5.197\C,0,1.373,-2.
 07,-4.923\C,0,2.626,-1.49,-4.306\N,0,0.15,-2.144,0.303\C,0,0.173,-3.13
 6,-0.688\C,0,0.173,-4.438,0.004\C,0,0.133,-4.111,1.358\C,0,0.083,-2.69
 5,1.502\C,0,0.149,-5.715,-0.623\C,0,0.096,-4.629,2.716\O,0,0.208,-5.74
 7,3.221\C,0,-0.255,-3.428,3.701\C,0,0.717,-3.482,4.848\O,0,1.931,-3.25
 5,4.669\O,0,0.038,-3.556,6.003\C,0,0.943,-3.583,7.183\H,0,-1.859,3.22,
 2.497\H,0,-0.218,2.453,-3.474\H,0,0.276,-3.747,-2.605\H,0,-1.554,-0.94
 9,5.132\H,0,-1.585,1.831,4.665\H,0,-3.484,-0.377,3.969\H,0,-3.511,1.02
 7,2.858\H,0,-3.852,1.301,4.543\H,0,0.669,1.096,4.966\H,0,1.13,-0.639,5
 .189\H,0,-0.844,0.026,7.125\H,0,0.062,1.477,6.921\H,0,-1.344,5.186,1.9
 38\H,0,-1.651,5.963,0.432\H,0,0.007,6.02,1.084\H,0,-0.635,6.744,-1.405
 \H,0,0.665,6.97,-2.704\H,0,1.048,6.466,-1.036\H,0,0.608,0.501,-4.891\H
 ,0,-0.692,-2.156,-4.547\H,0,-1.267,0.74,-6.129\H,0,-2.204,0.714,-4.596
 \H,0,-1.967,-0.72,-5.453\H,0,1.356,-1.759,-5.967\H,0,1.452,-3.157,-4.9
 02\H,0,2.714,-0.522,-4.798\H,0,3.487,-2.121,-4.529\H,0,2.495,-1.303,-3
 .24\H,0,0.867,-6.333,-0.084\H,0,0.404,-5.642,-1.68\H,0,-0.891,-5.999,-
 0.463\H,0,-1.283,-3.581,4.028\H,0,0.698,-4.478,7.755\H,0,0.833,-2.619,
 7.68\H,0,2.,-3.754,6.976\Mg,0,15.76199,1.42364,1.20638\C,0,13.47888,-1
 .17182,2.17076\C,0,13.06412,3.49452,0.94651\C,0,17.68154,3.6005,-0.075
 83\C,0,18.06514,-1.07771,0.4419\N,0,13.60162,1.08843,1.54207\C,0,12.85
 779,0.07792,1.96626\C,0,11.37901,0.44694,2.26055\C,0,11.25859,1.73485,
 1.30889\C,0,12.72518,2.16065,1.28711\C,0,10.83839,1.39625,-0.11172\C,0
 ,11.14465,0.82133,3.76618\C,0,9.67599,0.89179,4.19024\H,0,9.31934,0.45
 922,5.53863\N,0,15.52465,3.38312,0.99975\C,0,14.35846,4.05925,0.93565\
 C,0,14.72263,5.47388,0.76136\C,0,16.19507,5.55813,0.56256\C,0,16.52881
 ,4.1513,0.46489\C,0,13.72533,6.59041,0.87173\C,0,17.1438,6.71403,0.462
 47\O,0,18.34832,6.56284,0.05125\C,0,16.59383,8.04215,0.77086\N,0,17.52
 547,1.28064,0.11457\C,0,18.18701,2.38352,-0.27779\C,0,19.56001,2.03811
 ,-0.80309\C,0,19.77646,0.4921,-0.45582\C,0,18.39496,0.17467,0.15745\C,
 0,19.77406,2.2579,-2.30051\C,0,21.04806,0.12471,0.35702\C,0,20.94589,0
 .68624,1.75689\N,0,15.86867,-0.72026,1.45202\C,0,16.91332,-1.57536,1.0
 3775\C,0,16.48028,-2.95952,1.3188\C,0,15.19412,-2.81391,1.86016\C,0,14
 .84181,-1.4376,1.8941\C,0,17.22319,-4.13862,1.02908\C,0,14.05014,-3.51
 228,2.40079\O,0,13.80645,-4.68122,2.69734\C,0,12.83836,-2.4894,2.50888
 \C,0,12.22375,-2.63995,3.87347\O,0,12.86732,-2.33666,4.89349\O,0,10.91
 215,-2.90821,3.73885\C,0,10.25627,-3.0553,5.06549\H,0,12.2693,4.16331,
 0.61503\H,0,18.42506,4.31776,-0.43108\H,0,18.76545,-1.90722,0.32291\H,
 0,10.65593,-0.3034,1.96403\H,0,10.64415,2.50681,1.76484\H,0,10.80456,0
 .32986,-0.27851\H,0,11.57723,1.85649,-0.75463\H,0,9.8876,1.88184,-0.34
 947\H,0,11.43634,1.86755,3.92457\H,0,11.67567,0.15013,4.4128\H,0,9.010
 69,0.4307,3.45015\H,0,9.37012,1.94065,4.20892\H,0,12.69549,6.21274,0.8
 5776\H,0,13.80887,7.18546,-0.04413\H,0,13.91089,7.23744,1.73173\H,0,15
 .76207,8.25262,0.10278\H,0,17.44342,8.72663,0.73133\H,0,16.18443,8.023
 94,1.78707\H,0,20.32347,2.62095,-0.30257\H,0,19.86523,-0.1211,-1.36463
 \H,0,20.61841,2.93643,-2.52576\H,0,18.85509,2.6408,-2.7241\H,0,19.9363
 9,1.35177,-2.88171\H,0,21.93199,0.58005,-0.09628\H,0,21.22992,-0.94325
 ,0.41521\H,0,21.2795,1.72083,1.63274\H,0,21.59684,0.14055,2.43699\H,0,
 19.90337,0.71432,2.09456\H,0,17.13288,-4.78365,1.89296\H,0,18.26399,-3
 .90908,0.8104\H,0,16.68697,-4.49479,0.1454\H,0,12.13296,-2.73192,1.713
 16\H,0,9.76884,-4.03511,5.07404\H,0,9.60528,-2.16786,5.17694\H,0,10.89
 739,-3.13042,5.93599\\Version=ES64L-G16RevA.03\State=1-A\HF=-4069.8118
 027\RMSD=4.704e-09\PG=C01 [X(C68H72Mg2N8O8)]\\@


 NATURE WILL TELL YOU A DIRECT LIE IF SHE CAN.

                                -- CHARLES DARWIN
 Job cpu time:       0 days 12 hours  5 minutes 23.8 seconds.
 Elapsed time:       0 days  0 hours 30 minutes 49.1 seconds.
 File lengths (MBytes):  RWF=  13225 Int=      0 D2E=      0 Chk=    574 Scr=      1
 Normal termination of Gaussian 16 at Sun Sep 12 03:21:24 2021.
