 Entering Gaussian System, Link 0=g16
 Initial command:
 /sw/apps/gaussian-16.0/g16/l1.exe "/tmp/Gau-76058.inp" -scrdir="/tmp/"
 Entering Link 1 = /sw/apps/gaussian-16.0/g16/l1.exe PID=     76059.
  
 Copyright (c) 1988,1990,1992,1993,1995,1998,2003,2009,2016,
            Gaussian, Inc.  All Rights Reserved.
  
 This is part of the Gaussian(R) 16 program.  It is based on
 the Gaussian(R) 09 system (copyright 2009, Gaussian, Inc.),
 the Gaussian(R) 03 system (copyright 2003, Gaussian, Inc.),
 the Gaussian(R) 98 system (copyright 1998, Gaussian, Inc.),
 the Gaussian(R) 94 system (copyright 1995, Gaussian, Inc.),
 the Gaussian 92(TM) system (copyright 1992, Gaussian, Inc.),
 the Gaussian 90(TM) system (copyright 1990, Gaussian, Inc.),
 the Gaussian 88(TM) system (copyright 1988, Gaussian, Inc.),
 the Gaussian 86(TM) system (copyright 1986, Carnegie Mellon
 University), and the Gaussian 82(TM) system (copyright 1983,
 Carnegie Mellon University). Gaussian is a federally registered
 trademark of Gaussian, Inc.
  
 This software contains proprietary and confidential information,
 including trade secrets, belonging to Gaussian, Inc.
  
 This software is provided under written license and may be
 used, copied, transmitted, or stored only in accord with that
 written license.
  
 The following legend is applicable only to US Government
 contracts under FAR:
  
                    RESTRICTED RIGHTS LEGEND
  
 Use, reproduction and disclosure by the US Government is
 subject to restrictions as set forth in subparagraphs (a)
 and (c) of the Commercial Computer Software - Restricted
 Rights clause in FAR 52.227-19.
  
 Gaussian, Inc.
 340 Quinnipiac St., Bldg. 40, Wallingford CT 06492
  
  
 ---------------------------------------------------------------
 Warning -- This program may not be used in any manner that
 competes with the business of Gaussian, Inc. or will provide
 assistance to any competitor of Gaussian, Inc.  The licensee
 of this program is prohibited from giving any competitor of
 Gaussian, Inc. access to this program.  By using this program,
 the user acknowledges that Gaussian, Inc. is engaged in the
 business of creating and licensing software in the field of
 computational chemistry and represents and warrants to the
 licensee that it is not a competitor of Gaussian, Inc. and that
 it will not use this program in any manner prohibited above.
 ---------------------------------------------------------------
  

 Cite this work as:
 Gaussian 16, Revision A.03,
 M. J. Frisch, G. W. Trucks, H. B. Schlegel, G. E. Scuseria, 
 M. A. Robb, J. R. Cheeseman, G. Scalmani, V. Barone, 
 G. A. Petersson, H. Nakatsuji, X. Li, M. Caricato, A. V. Marenich, 
 J. Bloino, B. G. Janesko, R. Gomperts, B. Mennucci, H. P. Hratchian, 
 J. V. Ortiz, A. F. Izmaylov, J. L. Sonnenberg, D. Williams-Young, 
 F. Ding, F. Lipparini, F. Egidi, J. Goings, B. Peng, A. Petrone, 
 T. Henderson, D. Ranasinghe, V. G. Zakrzewski, J. Gao, N. Rega, 
 G. Zheng, W. Liang, M. Hada, M. Ehara, K. Toyota, R. Fukuda, 
 J. Hasegawa, M. Ishida, T. Nakajima, Y. Honda, O. Kitao, H. Nakai, 
 T. Vreven, K. Throssell, J. A. Montgomery, Jr., J. E. Peralta, 
 F. Ogliaro, M. J. Bearpark, J. J. Heyd, E. N. Brothers, K. N. Kudin, 
 V. N. Staroverov, T. A. Keith, R. Kobayashi, J. Normand, 
 K. Raghavachari, A. P. Rendell, J. C. Burant, S. S. Iyengar, 
 J. Tomasi, M. Cossi, J. M. Millam, M. Klene, C. Adamo, R. Cammi, 
 J. W. Ochterski, R. L. Martin, K. Morokuma, O. Farkas, 
 J. B. Foresman, and D. J. Fox, Gaussian, Inc., Wallingford CT, 2016.
 
 ******************************************
 Gaussian 16:  ES64L-G16RevA.03 25-Dec-2016
                 4-Sep-2021 
 ******************************************
 %nproc=24
 Will use up to   24 processors via shared memory.
 %mem=175gb
 -----------------------------------
 #p cam-b3lyp/Def2SVP td=(nstates=5)
 -----------------------------------
 1/38=1,172=1/1;
 2/12=2,17=6,18=5,40=1/2;
 3/5=43,7=101,11=9,25=1,30=1,74=-40/1,2,3,8;
 4//1;
 5/5=2,38=5/2;
 8/6=1,10=1,108=5/1;
 9/41=5,42=1,70=2/14;
 6/7=2,8=2,9=2,10=2/1;
 99/5=1,9=1/99;
 Leave Link    1 at Sat Sep  4 11:30:44 2021, MaxMem= 23488102400 cpu:               0.8 elap:               0.0
 (Enter /sw/apps/gaussian-16.0/g16/l101.exe)
 --------------------------------
 TDDFT excited states in gaussian
 --------------------------------
 Symbolic Z-matrix:
 Charge =  0 Multiplicity = 1
 Mg                    0.        0.        0. 
 C                    -0.217    -2.218     2.801 
 C                    -1.255     2.442     2.026 
 C                    -0.245     1.85     -2.564 
 C                     0.146    -2.824    -2.037 
 N                    -0.617    -0.009     2.126 
 C                    -0.594    -0.908     3.105 
 C                    -0.936    -0.309     4.502 
 C                    -1.773     0.964     4.032 
 C                    -1.155     1.168     2.66 
 C                    -3.263     0.685     3.863 
 C                     0.345     0.11      5.299 
 C                     0.124     0.397     6.787 
 H                     1.168     0.033     7.733 
 N                    -0.185     1.961    -0.152 
 C                    -0.703     2.8       0.777 
 C                    -0.62      4.156     0.193 
 C                    -0.187     4.015    -1.225 
 C                    -0.214     2.583    -1.38 
 C                    -0.887     5.406     0.974 
 C                     0.181     5.013    -2.277 
 O                     0.303     4.69     -3.508 
 C                     0.31      6.414    -1.837 
 N                    -0.265    -0.413    -2.029 
 C                    -0.279     0.569    -2.937 
 C                    -0.196     0.024    -4.332 
 C                     0.124    -1.533    -4.18 
 C                     0.086    -1.632    -2.635 
 C                    -1.451     0.205    -5.197 
 C                     1.373    -2.07     -4.923 
 C                     2.626    -1.49     -4.306 
 N                     0.15     -2.144     0.303 
 C                     0.173    -3.136    -0.688 
 C                     0.173    -4.438     0.004 
 C                     0.133    -4.111     1.358 
 C                     0.083    -2.695     1.502 
 C                     0.149    -5.715    -0.623 
 C                     0.096    -4.629     2.716 
 O                     0.208    -5.747     3.221 
 C                    -0.255    -3.428     3.701 
 C                     0.717    -3.482     4.848 
 O                     1.931    -3.255     4.669 
 O                     0.038    -3.556     6.003 
 C                     0.943    -3.583     7.183 
 H                    -1.859     3.22      2.497 
 H                    -0.218     2.453    -3.474 
 H                     0.276    -3.747    -2.605 
 H                    -1.554    -0.949     5.132 
 H                    -1.585     1.831     4.665 
 H                    -3.484    -0.377     3.969 
 H                    -3.511     1.027     2.858 
 H                    -3.852     1.301     4.543 
 H                     0.669     1.096     4.966 
 H                     1.13     -0.639     5.189 
 H                    -0.844     0.026     7.125 
 H                     0.062     1.477     6.921 
 H                    -1.344     5.186     1.938 
 H                    -1.651     5.963     0.432 
 H                     0.007     6.02      1.084 
 H                    -0.635     6.744    -1.405 
 H                     0.665     6.97     -2.704 
 H                     1.048     6.466    -1.036 
 H                     0.608     0.501    -4.891 
 H                    -0.692    -2.156    -4.547 
 H                    -1.267     0.74     -6.129 
 H                    -2.204     0.714    -4.596 
 H                    -1.967    -0.72     -5.453 
 H                     1.356    -1.759    -5.967 
 H                     1.452    -3.157    -4.902 
 H                     2.714    -0.522    -4.798 
 H                     3.487    -2.121    -4.529 
 H                     2.495    -1.303    -3.24 
 H                     0.867    -6.333    -0.084 
 H                     0.404    -5.642    -1.68 
 H                    -0.891    -5.999    -0.463 
 H                    -1.283    -3.581     4.028 
 H                     0.698    -4.478     7.755 
 H                     0.833    -2.619     7.68 
 H                     2.       -3.754     6.976 
 Mg                    15.77395   1.41273   1.20066 
 C                     15.97719  -0.7231   -1.67614 
 C                     15.00244  -1.36541   3.02311 
 C                     15.14664   3.32007   3.65748 
 C                     15.42942   4.10005  -0.99145 
 N                     15.54945  -0.71343   0.63384 
 C                     15.7111  -1.41645  -0.47701 
 C                     15.65972  -2.95501  -0.27769 
 C                     14.79542  -2.99349   1.07522 
 C                     15.16044  -1.62119   1.63757 
 C                     13.29592  -3.02602   0.8307 
 C                     17.0842  -3.57836  -0.0672 
 C                     17.14095  -5.1038   -0.17482 
 H                     18.32972  -5.71643  -0.76132 
 N                     15.64669   1.00962   3.1397 
 C                     15.34527  -0.17774   3.70592 
 C                     15.35972   0.05405   5.15858 
 C                     15.53214   1.5125    5.39919 
 C                     15.42532   2.01751   4.04506 
 C                     15.29764  -1.06143   6.16122 
 C                     15.74372   2.32043   6.64365 
 O                     15.62959   3.59706   6.64517 
 C                     15.99643   1.56603   7.87998 
 N                     15.13823   3.38823   1.32561 
 C                     14.99345   3.99381   2.51735 
 C                     14.7971   5.48201   2.3527 
 C                     15.08288   5.78484   0.80861 
 C                     15.31811   4.34305   0.30729 
 C                     13.41519   6.01629   2.72855 
 C                     16.155    6.86251   0.48948 
 C                     17.52187   6.3704    0.90766 
 N                     15.89479   1.70149  -0.93711 
 C                     15.69182   2.90453  -1.64816 
 C                     15.76589   2.57767  -3.08694 
 C                     15.98565   1.19222  -3.11365 
 C                     16.02425   0.68776  -1.78567 
 C                     15.58823   3.49696  -4.15908 
 C                     16.18315   0.04009  -3.96353 
 O                     16.33275  -0.13212  -5.17253 
 C                     16.06031  -1.27123  -3.07373 
 C                     17.22062  -2.16872  -3.40647 
 O                     18.38467  -1.82223  -3.13903 
 O                     16.75257  -3.37249  -3.78364 
 C                     17.86634  -4.30127  -4.11335 
 H                     14.53243  -2.13051   3.64165 
 H                     15.03208   4.03987   4.47126 
 H                     15.42985   4.89828  -1.73676 
 H                     15.14648  -3.49783  -1.06235 
 H                     15.13812  -3.78166   1.74059 
 H                     13.05525  -2.8982   -0.21423 
 H                     12.88478  -2.21378   1.41574 
 H                     12.86634  -3.94292   1.24431 
 H                     17.3783  -3.45302   0.98282 
 H                     17.79462  -3.14182  -0.74201 
 H                     16.23192  -5.51925  -0.6265 
 H                     17.1543  -5.52261   0.83435 
 H                     15.00777  -2.00922   5.69106 
 H                     14.47156  -0.83273   6.84324 
 H                     16.21806  -1.15839   6.74096 
 H                     15.1612   0.89663   8.07169 
 H                     16.21102   2.31758   8.64222 
 H                     16.87855   0.93362   7.72982 
 H                     15.50641   6.03479   2.95636 
 H                     14.1844   6.15424   0.29276 
 H                     13.44842   6.8072    3.50149 
 H                     12.80673   5.18554   3.06047 
 H                     12.8321   6.41283   1.89911 
 H                     15.96236   7.7707    1.06589 
 H                     16.1845   7.14571  -0.55738 
 H                     17.55205   6.60407   1.97611 
 H                     18.30228   6.90055   0.3655 
 H                     17.59615   5.28145   0.80616 
 H                     16.35904   3.27965  -4.88649 
 H                     15.64582   4.52696  -3.81331 
 H                     14.57875   3.22799  -4.48136 
 H                     15.10223  -1.73713  -3.3074 
 H                     17.69044  -4.6624   -5.13136 
 H                     17.8745  -5.05671  -3.30527 
 H                     18.85992  -3.87893  -4.2075 
 
 ITRead=  0  0  0  0  0  0  0  0  0  0  0  0  0  0  0  0  0  0  0  0
 ITRead=  0  0  0  0  0  0  0  0  0  0  0  0  0  0  0  0  0  0  0  0
 ITRead=  0  0  0  0  0  0  0  0  0  0  0  0  0  0  0  0  0  0  0  0
 ITRead=  0  0  0  0  0  0  0  0  0  0  0  0  0  0  0  0  0  0  0  0
 ITRead=  0  0  0  0  0  0  0  0  0  0  0  0  0  0  0  0  0  0  0  0
 ITRead=  0  0  0  0  0  0  0  0  0  0  0  0  0  0  0  0  0  0  0  0
 ITRead=  0  0  0  0  0  0  0  0  0  0  0  0  0  0  0  0  0  0  0  0
 ITRead=  0  0  0  0  0  0  0  0  0  0  0  0  0  0  0  0  0  0
 MicOpt= -1 -1 -1 -1 -1 -1 -1 -1 -1 -1 -1 -1 -1 -1 -1 -1 -1 -1 -1 -1
 MicOpt= -1 -1 -1 -1 -1 -1 -1 -1 -1 -1 -1 -1 -1 -1 -1 -1 -1 -1 -1 -1
 MicOpt= -1 -1 -1 -1 -1 -1 -1 -1 -1 -1 -1 -1 -1 -1 -1 -1 -1 -1 -1 -1
 MicOpt= -1 -1 -1 -1 -1 -1 -1 -1 -1 -1 -1 -1 -1 -1 -1 -1 -1 -1 -1 -1
 MicOpt= -1 -1 -1 -1 -1 -1 -1 -1 -1 -1 -1 -1 -1 -1 -1 -1 -1 -1 -1 -1
 MicOpt= -1 -1 -1 -1 -1 -1 -1 -1 -1 -1 -1 -1 -1 -1 -1 -1 -1 -1 -1 -1
 MicOpt= -1 -1 -1 -1 -1 -1 -1 -1 -1 -1 -1 -1 -1 -1 -1 -1 -1 -1 -1 -1
 MicOpt= -1 -1 -1 -1 -1 -1 -1 -1 -1 -1 -1 -1 -1 -1 -1 -1 -1 -1
 NAtoms=    158 NQM=      158 NQMF=       0 NMMI=      0 NMMIF=      0
                NMic=       0 NMicF=      0.
                    Isotopes and Nuclear Properties:
 (Nuclear quadrupole moments (NQMom) in fm**2, nuclear magnetic moments (NMagM)
  in nuclear magnetons)

  Atom         1           2           3           4           5           6           7           8           9          10
 IAtWgt=          24          12          12          12          12          14          12          12          12          12
 AtmWgt=  23.9850450  12.0000000  12.0000000  12.0000000  12.0000000  14.0030740  12.0000000  12.0000000  12.0000000  12.0000000
 NucSpn=           0           0           0           0           0           2           0           0           0           0
 AtZEff=  -0.0000000  -0.0000000  -0.0000000  -0.0000000  -0.0000000  -0.0000000  -0.0000000  -0.0000000  -0.0000000  -0.0000000
 NQMom=    0.0000000   0.0000000   0.0000000   0.0000000   0.0000000   2.0440000   0.0000000   0.0000000   0.0000000   0.0000000
 NMagM=    0.0000000   0.0000000   0.0000000   0.0000000   0.0000000   0.4037610   0.0000000   0.0000000   0.0000000   0.0000000
 AtZNuc=  12.0000000   6.0000000   6.0000000   6.0000000   6.0000000   7.0000000   6.0000000   6.0000000   6.0000000   6.0000000

  Atom        11          12          13          14          15          16          17          18          19          20
 IAtWgt=          12          12          12           1          14          12          12          12          12          12
 AtmWgt=  12.0000000  12.0000000  12.0000000   1.0078250  14.0030740  12.0000000  12.0000000  12.0000000  12.0000000  12.0000000
 NucSpn=           0           0           0           1           2           0           0           0           0           0
 AtZEff=  -0.0000000  -0.0000000  -0.0000000  -0.0000000  -0.0000000  -0.0000000  -0.0000000  -0.0000000  -0.0000000  -0.0000000
 NQMom=    0.0000000   0.0000000   0.0000000   0.0000000   2.0440000   0.0000000   0.0000000   0.0000000   0.0000000   0.0000000
 NMagM=    0.0000000   0.0000000   0.0000000   2.7928460   0.4037610   0.0000000   0.0000000   0.0000000   0.0000000   0.0000000
 AtZNuc=   6.0000000   6.0000000   6.0000000   1.0000000   7.0000000   6.0000000   6.0000000   6.0000000   6.0000000   6.0000000

  Atom        21          22          23          24          25          26          27          28          29          30
 IAtWgt=          12          16          12          14          12          12          12          12          12          12
 AtmWgt=  12.0000000  15.9949146  12.0000000  14.0030740  12.0000000  12.0000000  12.0000000  12.0000000  12.0000000  12.0000000
 NucSpn=           0           0           0           2           0           0           0           0           0           0
 AtZEff=  -0.0000000  -0.0000000  -0.0000000  -0.0000000  -0.0000000  -0.0000000  -0.0000000  -0.0000000  -0.0000000  -0.0000000
 NQMom=    0.0000000   0.0000000   0.0000000   2.0440000   0.0000000   0.0000000   0.0000000   0.0000000   0.0000000   0.0000000
 NMagM=    0.0000000   0.0000000   0.0000000   0.4037610   0.0000000   0.0000000   0.0000000   0.0000000   0.0000000   0.0000000
 AtZNuc=   6.0000000   8.0000000   6.0000000   7.0000000   6.0000000   6.0000000   6.0000000   6.0000000   6.0000000   6.0000000

  Atom        31          32          33          34          35          36          37          38          39          40
 IAtWgt=          12          14          12          12          12          12          12          12          16          12
 AtmWgt=  12.0000000  14.0030740  12.0000000  12.0000000  12.0000000  12.0000000  12.0000000  12.0000000  15.9949146  12.0000000
 NucSpn=           0           2           0           0           0           0           0           0           0           0
 AtZEff=  -0.0000000  -0.0000000  -0.0000000  -0.0000000  -0.0000000  -0.0000000  -0.0000000  -0.0000000  -0.0000000  -0.0000000
 NQMom=    0.0000000   2.0440000   0.0000000   0.0000000   0.0000000   0.0000000   0.0000000   0.0000000   0.0000000   0.0000000
 NMagM=    0.0000000   0.4037610   0.0000000   0.0000000   0.0000000   0.0000000   0.0000000   0.0000000   0.0000000   0.0000000
 AtZNuc=   6.0000000   7.0000000   6.0000000   6.0000000   6.0000000   6.0000000   6.0000000   6.0000000   8.0000000   6.0000000

  Atom        41          42          43          44          45          46          47          48          49          50
 IAtWgt=          12          16          16          12           1           1           1           1           1           1
 AtmWgt=  12.0000000  15.9949146  15.9949146  12.0000000   1.0078250   1.0078250   1.0078250   1.0078250   1.0078250   1.0078250
 NucSpn=           0           0           0           0           1           1           1           1           1           1
 AtZEff=  -0.0000000  -0.0000000  -0.0000000  -0.0000000  -0.0000000  -0.0000000  -0.0000000  -0.0000000  -0.0000000  -0.0000000
 NQMom=    0.0000000   0.0000000   0.0000000   0.0000000   0.0000000   0.0000000   0.0000000   0.0000000   0.0000000   0.0000000
 NMagM=    0.0000000   0.0000000   0.0000000   0.0000000   2.7928460   2.7928460   2.7928460   2.7928460   2.7928460   2.7928460
 AtZNuc=   6.0000000   8.0000000   8.0000000   6.0000000   1.0000000   1.0000000   1.0000000   1.0000000   1.0000000   1.0000000

  Atom        51          52          53          54          55          56          57          58          59          60
 IAtWgt=           1           1           1           1           1           1           1           1           1           1
 AtmWgt=   1.0078250   1.0078250   1.0078250   1.0078250   1.0078250   1.0078250   1.0078250   1.0078250   1.0078250   1.0078250
 NucSpn=           1           1           1           1           1           1           1           1           1           1
 AtZEff=  -0.0000000  -0.0000000  -0.0000000  -0.0000000  -0.0000000  -0.0000000  -0.0000000  -0.0000000  -0.0000000  -0.0000000
 NQMom=    0.0000000   0.0000000   0.0000000   0.0000000   0.0000000   0.0000000   0.0000000   0.0000000   0.0000000   0.0000000
 NMagM=    2.7928460   2.7928460   2.7928460   2.7928460   2.7928460   2.7928460   2.7928460   2.7928460   2.7928460   2.7928460
 AtZNuc=   1.0000000   1.0000000   1.0000000   1.0000000   1.0000000   1.0000000   1.0000000   1.0000000   1.0000000   1.0000000

  Atom        61          62          63          64          65          66          67          68          69          70
 IAtWgt=           1           1           1           1           1           1           1           1           1           1
 AtmWgt=   1.0078250   1.0078250   1.0078250   1.0078250   1.0078250   1.0078250   1.0078250   1.0078250   1.0078250   1.0078250
 NucSpn=           1           1           1           1           1           1           1           1           1           1
 AtZEff=  -0.0000000  -0.0000000  -0.0000000  -0.0000000  -0.0000000  -0.0000000  -0.0000000  -0.0000000  -0.0000000  -0.0000000
 NQMom=    0.0000000   0.0000000   0.0000000   0.0000000   0.0000000   0.0000000   0.0000000   0.0000000   0.0000000   0.0000000
 NMagM=    2.7928460   2.7928460   2.7928460   2.7928460   2.7928460   2.7928460   2.7928460   2.7928460   2.7928460   2.7928460
 AtZNuc=   1.0000000   1.0000000   1.0000000   1.0000000   1.0000000   1.0000000   1.0000000   1.0000000   1.0000000   1.0000000

  Atom        71          72          73          74          75          76          77          78          79          80
 IAtWgt=           1           1           1           1           1           1           1           1           1          24
 AtmWgt=   1.0078250   1.0078250   1.0078250   1.0078250   1.0078250   1.0078250   1.0078250   1.0078250   1.0078250  23.9850450
 NucSpn=           1           1           1           1           1           1           1           1           1           0
 AtZEff=  -0.0000000  -0.0000000  -0.0000000  -0.0000000  -0.0000000  -0.0000000  -0.0000000  -0.0000000  -0.0000000  -0.0000000
 NQMom=    0.0000000   0.0000000   0.0000000   0.0000000   0.0000000   0.0000000   0.0000000   0.0000000   0.0000000   0.0000000
 NMagM=    2.7928460   2.7928460   2.7928460   2.7928460   2.7928460   2.7928460   2.7928460   2.7928460   2.7928460   0.0000000
 AtZNuc=   1.0000000   1.0000000   1.0000000   1.0000000   1.0000000   1.0000000   1.0000000   1.0000000   1.0000000  12.0000000

  Atom        81          82          83          84          85          86          87          88          89          90
 IAtWgt=          12          12          12          12          14          12          12          12          12          12
 AtmWgt=  12.0000000  12.0000000  12.0000000  12.0000000  14.0030740  12.0000000  12.0000000  12.0000000  12.0000000  12.0000000
 NucSpn=           0           0           0           0           2           0           0           0           0           0
 AtZEff=  -0.0000000  -0.0000000  -0.0000000  -0.0000000  -0.0000000  -0.0000000  -0.0000000  -0.0000000  -0.0000000  -0.0000000
 NQMom=    0.0000000   0.0000000   0.0000000   0.0000000   2.0440000   0.0000000   0.0000000   0.0000000   0.0000000   0.0000000
 NMagM=    0.0000000   0.0000000   0.0000000   0.0000000   0.4037610   0.0000000   0.0000000   0.0000000   0.0000000   0.0000000
 AtZNuc=   6.0000000   6.0000000   6.0000000   6.0000000   7.0000000   6.0000000   6.0000000   6.0000000   6.0000000   6.0000000

  Atom        91          92          93          94          95          96          97          98          99         100
 IAtWgt=          12          12           1          14          12          12          12          12          12          12
 AtmWgt=  12.0000000  12.0000000   1.0078250  14.0030740  12.0000000  12.0000000  12.0000000  12.0000000  12.0000000  12.0000000
 NucSpn=           0           0           1           2           0           0           0           0           0           0
 AtZEff=  -0.0000000  -0.0000000  -0.0000000  -0.0000000  -0.0000000  -0.0000000  -0.0000000  -0.0000000  -0.0000000  -0.0000000
 NQMom=    0.0000000   0.0000000   0.0000000   2.0440000   0.0000000   0.0000000   0.0000000   0.0000000   0.0000000   0.0000000
 NMagM=    0.0000000   0.0000000   2.7928460   0.4037610   0.0000000   0.0000000   0.0000000   0.0000000   0.0000000   0.0000000
 AtZNuc=   6.0000000   6.0000000   1.0000000   7.0000000   6.0000000   6.0000000   6.0000000   6.0000000   6.0000000   6.0000000

  Atom       101         102         103         104         105         106         107         108         109         110
 IAtWgt=          16          12          14          12          12          12          12          12          12          12
 AtmWgt=  15.9949146  12.0000000  14.0030740  12.0000000  12.0000000  12.0000000  12.0000000  12.0000000  12.0000000  12.0000000
 NucSpn=           0           0           2           0           0           0           0           0           0           0
 AtZEff=  -0.0000000  -0.0000000  -0.0000000  -0.0000000  -0.0000000  -0.0000000  -0.0000000  -0.0000000  -0.0000000  -0.0000000
 NQMom=    0.0000000   0.0000000   2.0440000   0.0000000   0.0000000   0.0000000   0.0000000   0.0000000   0.0000000   0.0000000
 NMagM=    0.0000000   0.0000000   0.4037610   0.0000000   0.0000000   0.0000000   0.0000000   0.0000000   0.0000000   0.0000000
 AtZNuc=   8.0000000   6.0000000   7.0000000   6.0000000   6.0000000   6.0000000   6.0000000   6.0000000   6.0000000   6.0000000

  Atom       111         112         113         114         115         116         117         118         119         120
 IAtWgt=          14          12          12          12          12          12          12          16          12          12
 AtmWgt=  14.0030740  12.0000000  12.0000000  12.0000000  12.0000000  12.0000000  12.0000000  15.9949146  12.0000000  12.0000000
 NucSpn=           2           0           0           0           0           0           0           0           0           0
 AtZEff=  -0.0000000  -0.0000000  -0.0000000  -0.0000000  -0.0000000  -0.0000000  -0.0000000  -0.0000000  -0.0000000  -0.0000000
 NQMom=    2.0440000   0.0000000   0.0000000   0.0000000   0.0000000   0.0000000   0.0000000   0.0000000   0.0000000   0.0000000
 NMagM=    0.4037610   0.0000000   0.0000000   0.0000000   0.0000000   0.0000000   0.0000000   0.0000000   0.0000000   0.0000000
 AtZNuc=   7.0000000   6.0000000   6.0000000   6.0000000   6.0000000   6.0000000   6.0000000   8.0000000   6.0000000   6.0000000

  Atom       121         122         123         124         125         126         127         128         129         130
 IAtWgt=          16          16          12           1           1           1           1           1           1           1
 AtmWgt=  15.9949146  15.9949146  12.0000000   1.0078250   1.0078250   1.0078250   1.0078250   1.0078250   1.0078250   1.0078250
 NucSpn=           0           0           0           1           1           1           1           1           1           1
 AtZEff=  -0.0000000  -0.0000000  -0.0000000  -0.0000000  -0.0000000  -0.0000000  -0.0000000  -0.0000000  -0.0000000  -0.0000000
 NQMom=    0.0000000   0.0000000   0.0000000   0.0000000   0.0000000   0.0000000   0.0000000   0.0000000   0.0000000   0.0000000
 NMagM=    0.0000000   0.0000000   0.0000000   2.7928460   2.7928460   2.7928460   2.7928460   2.7928460   2.7928460   2.7928460
 AtZNuc=   8.0000000   8.0000000   6.0000000   1.0000000   1.0000000   1.0000000   1.0000000   1.0000000   1.0000000   1.0000000

  Atom       131         132         133         134         135         136         137         138         139         140
 IAtWgt=           1           1           1           1           1           1           1           1           1           1
 AtmWgt=   1.0078250   1.0078250   1.0078250   1.0078250   1.0078250   1.0078250   1.0078250   1.0078250   1.0078250   1.0078250
 NucSpn=           1           1           1           1           1           1           1           1           1           1
 AtZEff=  -0.0000000  -0.0000000  -0.0000000  -0.0000000  -0.0000000  -0.0000000  -0.0000000  -0.0000000  -0.0000000  -0.0000000
 NQMom=    0.0000000   0.0000000   0.0000000   0.0000000   0.0000000   0.0000000   0.0000000   0.0000000   0.0000000   0.0000000
 NMagM=    2.7928460   2.7928460   2.7928460   2.7928460   2.7928460   2.7928460   2.7928460   2.7928460   2.7928460   2.7928460
 AtZNuc=   1.0000000   1.0000000   1.0000000   1.0000000   1.0000000   1.0000000   1.0000000   1.0000000   1.0000000   1.0000000

  Atom       141         142         143         144         145         146         147         148         149         150
 IAtWgt=           1           1           1           1           1           1           1           1           1           1
 AtmWgt=   1.0078250   1.0078250   1.0078250   1.0078250   1.0078250   1.0078250   1.0078250   1.0078250   1.0078250   1.0078250
 NucSpn=           1           1           1           1           1           1           1           1           1           1
 AtZEff=  -0.0000000  -0.0000000  -0.0000000  -0.0000000  -0.0000000  -0.0000000  -0.0000000  -0.0000000  -0.0000000  -0.0000000
 NQMom=    0.0000000   0.0000000   0.0000000   0.0000000   0.0000000   0.0000000   0.0000000   0.0000000   0.0000000   0.0000000
 NMagM=    2.7928460   2.7928460   2.7928460   2.7928460   2.7928460   2.7928460   2.7928460   2.7928460   2.7928460   2.7928460
 AtZNuc=   1.0000000   1.0000000   1.0000000   1.0000000   1.0000000   1.0000000   1.0000000   1.0000000   1.0000000   1.0000000

  Atom       151         152         153         154         155         156         157         158
 IAtWgt=           1           1           1           1           1           1           1           1
 AtmWgt=   1.0078250   1.0078250   1.0078250   1.0078250   1.0078250   1.0078250   1.0078250   1.0078250
 NucSpn=           1           1           1           1           1           1           1           1
 AtZEff=  -0.0000000  -0.0000000  -0.0000000  -0.0000000  -0.0000000  -0.0000000  -0.0000000  -0.0000000
 NQMom=    0.0000000   0.0000000   0.0000000   0.0000000   0.0000000   0.0000000   0.0000000   0.0000000
 NMagM=    2.7928460   2.7928460   2.7928460   2.7928460   2.7928460   2.7928460   2.7928460   2.7928460
 AtZNuc=   1.0000000   1.0000000   1.0000000   1.0000000   1.0000000   1.0000000   1.0000000   1.0000000
 Leave Link  101 at Sat Sep  4 11:30:44 2021, MaxMem= 23488102400 cpu:               3.7 elap:               0.2
 (Enter /sw/apps/gaussian-16.0/g16/l202.exe)
 Stoichiometry    C68H72Mg2N8O8
 Framework group  C1[X(C68H72Mg2N8O8)]
 Deg. of freedom   468
 Full point group                 C1      NOp   1
 Largest Abelian subgroup         C1      NOp   1
 Largest concise Abelian subgroup C1      NOp   1
                         Standard orientation:                         
 ---------------------------------------------------------------------
 Center     Atomic      Atomic             Coordinates (Angstroms)
 Number     Number       Type             X           Y           Z
 ---------------------------------------------------------------------
      1         12           0        7.820024   -0.811445    0.364077
      2          6           0        8.253798    1.905577   -1.925430
      3          6           0        8.936546    1.276252    2.821303
      4          6           0        7.878361   -3.312862    2.312444
      5          6           0        7.836734   -2.943437   -2.392732
      6          7           0        8.479371    1.301522    0.328354
      7          6           0        8.541353    2.248595   -0.602442
      8          6           0        8.867679    3.659417   -0.027578
      9          6           0        9.600794    3.219489    1.318157
     10          6           0        8.941775    1.866803    1.522744
     11          6           0       11.103286    3.014106    1.154335
     12          6           0        7.576319    4.493482    0.269839
     13          6           0        7.806374    5.986443    0.521824
     14          1           0        6.810930    6.937640    0.051013
     15          7           0        7.859796   -0.897764    2.337353
     16          6           0        8.334733    0.050696    3.180054
     17          6           0        8.142120   -0.483732    4.545326
     18          6           0        7.691551   -1.897818    4.421060
     19          6           0        7.818711   -2.103481    3.000880
     20          6           0        8.334064    0.335780    5.784401
     21          6           0        7.231031   -2.907346    5.424506
     22          8           0        7.107547   -4.146547    5.135183
     23          6           0        7.010220   -2.416165    6.796740
     24          7           0        8.072644   -2.858125    0.040162
     25          6           0        7.997144   -3.731177    1.050639
     26          6           0        7.925230   -5.142747    0.548407
     27          6           0        7.721666   -5.039817   -1.032011
     28          6           0        7.798274   -3.500178   -1.180038
     29          6           0        9.145948   -6.023218    0.849452
     30          6           0        6.499784   -5.778707   -1.633229
     31          6           0        5.221042   -5.119349   -1.167221
     32          7           0        7.831452   -0.581300   -1.794151
     33          6           0        7.859901   -1.605961   -2.751196
     34          6           0        7.968055   -0.960232   -4.072334
     35          6           0        8.011994    0.403483   -3.789147
     36          6           0        7.962548    0.596212   -2.378933
     37          6           0        8.071387   -1.632030   -5.322312
     38          6           0        8.114039    1.741569   -4.348586
     39          8           0        8.093402    2.208914   -5.488171
     40          6           0        8.397452    2.761694   -3.159112
     41          6           0        7.455526    3.923333   -3.322457
     42          8           0        6.224901    3.774212   -3.178616
     43          8           0        8.161553    5.062661   -3.385699
     44          6           0        7.285164    6.257021   -3.518363
     45          1           0        9.492288    1.763384    3.624917
     46          1           0        7.789303   -4.200490    2.942225
     47          1           0        7.762144   -3.541084   -3.303065
     48          1           0        9.543021    4.255366   -0.641729
     49          1           0        9.363653    3.885821    2.147306
     50          1           0       11.402514    3.078758    0.108293
     51          1           0       11.305358    2.017454    1.547203
     52          1           0       11.660038    3.704653    1.788329
     53          1           0        7.175231    4.201183    1.240277
     54          1           0        6.845369    4.371333   -0.530235
     55          1           0        8.805339    6.293792    0.211159
     56          1           0        7.792952    6.157162    1.598334
     57          1           0        8.825357    1.283109    5.565896
     58          1           0        9.044616   -0.199932    6.413558
     59          1           0        7.400496    0.483290    6.327562
     60          1           0        7.937553   -1.989854    7.179965
     61          1           0        6.598360   -3.256596    7.354321
     62          1           0        6.286912   -1.600730    6.767775
     63          1           0        7.077632   -5.670142    0.984135
     64          1           0        8.572853   -5.443045   -1.581158
     65          1           0        8.904794   -6.932402    1.400754
     66          1           0        9.872350   -5.418308    1.391406
     67          1           0        9.722056   -6.320761   -0.026325
     68          1           0        6.472949   -6.811276   -1.286779
     69          1           0        6.499926   -5.794488   -2.723184
     70          1           0        5.053340   -5.575387   -0.192163
     71          1           0        4.403477   -5.348902   -1.851402
     72          1           0        5.359949   -4.049959   -1.007236
     73          1           0        7.411049   -1.102283   -6.008818
     74          1           0        7.790239   -2.681071   -5.232475
     75          1           0        9.132230   -1.500776   -5.535007
     76          1           0        9.440282    3.064634   -3.247738
     77          1           0        7.605786    6.792746   -4.411914
     78          1           0        7.335399    6.785523   -2.566224
     79          1           0        6.239263    6.063127   -3.758851
     80         12           0       -7.986928    0.720724    0.582298
     81          6           0       -8.094147   -2.225216   -1.464407
     82          6           0       -6.979753    2.430341   -2.192125
     83          6           0       -7.448917    3.231381    2.446319
     84          6           0       -7.882204   -1.381466    3.359989
     85          7           0       -7.621115    0.075638   -1.501518
     86          6           0       -7.754241   -1.056143   -2.176576
     87          6           0       -7.587837   -0.911942   -3.713147
     88          6           0       -6.695554    0.423067   -3.734157
     89          6           0       -7.147147    1.039727   -2.411856
     90          6           0       -5.202929    0.150710   -3.649066
     91          6           0       -8.958988   -0.697971   -4.445386
     92          6           0       -8.907628   -0.858071   -5.966406
     93          1           0      -10.060791   -1.444319   -6.643900
     94          7           0       -7.791302    2.641814    0.124356
     95          6           0       -7.393426    3.160483   -1.056305
     96          6           0       -7.394892    4.620414   -0.875316
     97          6           0       -7.667223    4.915156    0.557744
     98          6           0       -7.624837    3.577903    1.114584
     99          6           0       -7.231955    5.581979   -2.016491
    100          6           0       -7.911120    6.190821    1.305670
    101          8           0       -7.889464    6.235135    2.586443
    102          6           0       -8.083383    7.404221    0.493587
    103          7           0       -7.493096    0.903568    2.593529
    104          6           0       -7.368103    2.113056    3.167504
    105          6           0       -7.283131    1.997287    4.670761
    106          6           0       -7.621520    0.470159    5.003872
    107          6           0       -7.762220   -0.077196    3.566507
    108          6           0       -5.936018    2.366834    5.291337
    109          6           0       -8.774954    0.208353    6.010702
    110          6           0      -10.093892    0.633430    5.406471
    111          7           0       -8.171956   -1.403074    0.933430
    112          6           0       -8.070955   -2.074953    2.171360
    113          6           0       -8.150611   -3.522767    1.888690
    114          6           0       -8.270255   -3.594180    0.492601
    115          6           0       -8.245188   -2.284260   -0.057837
    116          6           0       -8.061737   -4.564968    2.854123
    117          6           0       -8.401369   -4.480326   -0.641533
    118          8           0       -8.562814   -5.691752   -0.783307
    119          6           0       -8.166007   -3.639481   -1.969681
    120          6           0       -9.265037   -3.982683   -2.937601
    121          8           0      -10.445360   -3.682410   -2.686075
    122          8           0       -8.719091   -4.410234   -4.090654
    123          6           0       -9.769391   -4.752342   -5.086474
    124          1           0       -6.443184    3.013098   -2.941369
    125          1           0       -7.370029    4.067757    3.144692
    126          1           0       -7.955500   -2.098150    4.180750
    127          1           0       -7.052879   -1.724260   -4.190347
    128          1           0       -6.966780    1.066380   -4.567199
    129          1           0       -4.993516   -0.893233   -3.468874
    130          1           0       -4.839646    0.756453   -2.829223
    131          1           0       -4.699901    0.524089   -4.545653
    132          1           0       -9.239857    0.360908   -4.377301
    133          1           0       -9.712714   -1.344184   -4.039262
    134          1           0       -7.980390   -1.340291   -6.299037
    135          1           0       -8.870080    0.135843   -6.418877
    136          1           0       -6.884070    5.073697   -2.924238
    137          1           0       -6.410784    6.256691   -1.751339
    138          1           0       -8.130934    6.174366   -2.199764
    139          1           0       -7.198255    7.557294   -0.119254
    140          1           0       -8.336063    8.196114    1.201362
    141          1           0       -8.920418    7.247781   -0.195995
    142          1           0       -8.018023    2.632612    5.149706
    143          1           0       -6.762787   -0.048424    5.454952
    144          1           0       -6.010473    3.167550    6.051199
    145          1           0       -5.262505    2.658406    4.496412
    146          1           0       -5.400153    1.541513    5.757065
    147          1           0       -8.636660    0.812761    6.910554
    148          1           0       -8.846209   -0.827216    6.326150
    149          1           0      -10.119030    1.709798    5.601147
    150          1           0      -10.921459    0.124306    5.896329
    151          1           0      -10.091404    0.495091    4.319049
    152          1           0       -8.829544   -5.285625    2.605882
    153          1           0       -8.186475   -4.182255    3.864937
    154          1           0       -7.042266   -4.914544    2.670453
    155          1           0       -7.181761   -3.906512   -2.356379
    156          1           0       -9.588709   -5.785398   -5.399281
    157          1           0       -9.706469   -3.971279   -5.867327
    158          1           0      -10.792589   -4.813769   -4.734724
 ---------------------------------------------------------------------
 Rotational constants (GHZ):           0.0203685           0.0057900           0.0056740
 Leave Link  202 at Sat Sep  4 11:30:45 2021, MaxMem= 23488102400 cpu:               0.2 elap:               0.0
 (Enter /sw/apps/gaussian-16.0/g16/l301.exe)
 Standard basis: def2SVP (5D, 7F)
 Ernie: Thresh=  0.10000D-02 Tol=  0.10000D-05 Strict=F.
 There are  1658 symmetry adapted cartesian basis functions of A   symmetry.
 There are  1572 symmetry adapted basis functions of A   symmetry.
  1572 basis functions,  2678 primitive gaussians,  1658 cartesian basis functions
   312 alpha electrons      312 beta electrons
       nuclear repulsion energy     13733.3083901062 Hartrees.
 IExCor=20419 DFT=T Ex+Corr=CAM-B3LYP ExCW=0 ScaHFX=  1.000000
 ScaDFX=  1.000000  1.000000  1.000000  0.810000 ScalE2=  1.000000  1.000000
 IRadAn=      5 IRanWt=     -1 IRanGd=            0 ICorTp=0 IEmpDi=  4
 HFx  wShort=  0.000000 wLong=  0.330000 cFull=  0.190000 cShort=  0.000000 cLong=  0.460000
 DFx  wShort=  0.000000 wLong=  0.330000 cFull=  0.190000 cShort=  0.000000 cLong=  0.460000
 NAtoms=  158 NActive=  158 NUniq=  158 SFac= 1.00D+00 NAtFMM=   60 NAOKFM=T Big=T
 Integral buffers will be    131072 words long.
 Raffenetti 1 integral format.
 Two-electron integral symmetry is turned on.
 Leave Link  301 at Sat Sep  4 11:30:45 2021, MaxMem= 23488102400 cpu:               1.3 elap:               0.1
 (Enter /sw/apps/gaussian-16.0/g16/l302.exe)
 NPDir=0 NMtPBC=     1 NCelOv=     1 NCel=       1 NClECP=     1 NCelD=      1
         NCelK=      1 NCelE2=     1 NClLst=     1 CellRange=     0.0.
 One-electron integrals computed using PRISM.
 One-electron integral symmetry used in STVInt
   1 Symmetry operations used in ECPInt.
 ECPInt:  NShTT=  271216 NPrTT=  987664 LenC2=  107340 LenP2D=  244274.
 LDataN:  DoStor=T MaxTD1= 4 Len=   56
 NBasis=  1572 RedAO= T EigKep=  3.36D-04  NBF=  1572
 NBsUse=  1572 1.00D-06 EigRej= -1.00D+00 NBFU=  1572
 Precomputing XC quadrature grid using
 IXCGrd= 4 IRadAn=           5 IRanWt=          -1 IRanGd=           0 AccXCQ= 0.00D+00.
 Generated NRdTot=       0 NPtTot=           0 NUsed=           0 NTot=          32
 NSgBfM=   836   819   819   826   836 MxSgAt=   158 MxSgA2=   147.
 Leave Link  302 at Sat Sep  4 11:30:49 2021, MaxMem= 23488102400 cpu:             104.3 elap:               4.4
 (Enter /sw/apps/gaussian-16.0/g16/l303.exe)
 DipDrv:  MaxL=1.
 Leave Link  303 at Sat Sep  4 11:30:49 2021, MaxMem= 23488102400 cpu:               8.5 elap:               0.4
 (Enter /sw/apps/gaussian-16.0/g16/l308.exe)
 Leave Link  308 at Sat Sep  4 11:30:50 2021, MaxMem= 23488102400 cpu:              13.6 elap:               0.6
 (Enter /sw/apps/gaussian-16.0/g16/l401.exe)
 ExpMin= 3.36D-02 ExpMax= 4.95D+03 ExpMxC= 7.45D+02 IAcc=3 IRadAn=         5 AccDes= 0.00D+00
 Harris functional with IExCor=20419 and IRadAn=       5 diagonalized for initial guess.
 HarFok:  IExCor=20419 AccDes= 0.00D+00 IRadAn=         5 IDoV= 1 UseB2=F ITyADJ=14
 ICtDFT=  3500011 ScaDFX=  1.000000  1.000000  1.000000  1.000000
 FoFCou: FMM=F IPFlag=           0 FMFlag=      100000 FMFlg1=        2001
         NFxFlg=           0 DoJE=T BraDBF=F KetDBF=T FulRan=T
         wScrn=  0.000000 ICntrl=       500 IOpCl=  0 I1Cent=   200000004 NGrid=           0
         NMat0=    1 NMatS0=      1 NMatT0=    0 NMatD0=    1 NMtDS0=    0 NMtDT0=    0
 Petite list used in FoFCou.
 Harris En= -3918.65800962892    
 JPrj=0 DoOrth=F DoCkMO=F.
 Leave Link  401 at Sat Sep  4 11:30:57 2021, MaxMem= 23488102400 cpu:             155.9 elap:               6.5
 (Enter /sw/apps/gaussian-16.0/g16/l502.exe)
 Integral symmetry usage will be decided dynamically.
 Closed shell SCF:
 Using DIIS extrapolation, IDIIS=  1040.
 NGot= 23488102400 LenX= 23482547354 LenY= 23479796732
 Requested convergence on RMS density matrix=1.00D-08 within 128 cycles.
 Requested convergence on MAX density matrix=1.00D-06.
 Requested convergence on             energy=1.00D-06.
 No special actions if energy rises.
 Fock matrices will be formed incrementally for  20 cycles.

 Cycle   1  Pass 1  IDiag  1:
 FoFJK:  IHMeth= 1 ICntrl=       0 DoSepK=T KAlg= 0 I1Cent=           0 FoldK=F
 IRaf=         1 NMat=       1 IRICut=       1 DoRegI=T DoRafI=F ISym2E= 0 IDoP0=0 IntGTp=1.
 FoFCou: FMM=T IPFlag=           0 FMFlag=      100000 FMFlg1=        2001
         NFxFlg=           0 DoJE=T BraDBF=F KetDBF=F FulRan=T
         wScrn=  0.000000 ICntrl=       500 IOpCl=  0 I1Cent=           0 NGrid=           0
         NMat0=    1 NMatS0=      1 NMatT0=    0 NMatD0=    1 NMtDS0=    0 NMtDT0=    0
 Symmetry not used in FoFCou.
 FMM levels:  10  Number of levels for PrismC:   9
 E= -4068.94972207426    
 DIIS: error= 2.04D-02 at cycle   1 NSaved=   1.
 NSaved= 1 IEnMin= 1 EnMin= -4068.94972207426     IErMin= 1 ErrMin= 2.04D-02
 ErrMax= 2.04D-02  0.00D+00 EMaxC= 1.00D-01 BMatC= 1.69D+00 BMatP= 1.69D+00
 IDIUse=3 WtCom= 7.96D-01 WtEn= 2.04D-01
 Coeff-Com:  0.100D+01
 Coeff-En:   0.100D+01
 Coeff:      0.100D+01
 Gap=     0.120 Goal=   None    Shift=    0.000
 GapD=    0.120 DampG=1.000 DampE=0.500 DampFc=0.5000 IDamp=-1.
 Damping current iteration by 5.00D-01
 RMSDP=1.57D-03 MaxDP=1.35D-01              OVMax= 2.01D-01

 Cycle   2  Pass 1  IDiag  1:
 RMSU=  7.69D-04    CP:  9.82D-01
 E= -4069.33868354664     Delta-E=       -0.388961472374 Rises=F Damp=T
 DIIS: error= 1.27D-02 at cycle   2 NSaved=   2.
 NSaved= 2 IEnMin= 2 EnMin= -4069.33868354664     IErMin= 2 ErrMin= 1.27D-02
 ErrMax= 1.27D-02  0.00D+00 EMaxC= 1.00D-01 BMatC= 3.06D-01 BMatP= 1.69D+00
 IDIUse=3 WtCom= 8.73D-01 WtEn= 1.27D-01
 Coeff-Com: -0.213D+00 0.121D+01
 Coeff-En:   0.000D+00 0.100D+01
 Coeff:     -0.186D+00 0.119D+01
 Gap=     0.136 Goal=   None    Shift=    0.000
 RMSDP=7.64D-04 MaxDP=9.44D-02 DE=-3.89D-01 OVMax= 1.86D-01

 Cycle   3  Pass 1  IDiag  1:
 RMSU=  7.31D-04    CP:  9.68D-01  1.24D+00
 E= -4069.62903036379     Delta-E=       -0.290346817157 Rises=F Damp=F
 DIIS: error= 1.57D-02 at cycle   3 NSaved=   3.
 NSaved= 3 IEnMin= 3 EnMin= -4069.62903036379     IErMin= 2 ErrMin= 1.27D-02
 ErrMax= 1.57D-02  0.00D+00 EMaxC= 1.00D-01 BMatC= 2.01D-01 BMatP= 3.06D-01
 IDIUse=3 WtCom= 8.43D-01 WtEn= 1.57D-01
 Coeff-Com: -0.267D+00 0.651D+00 0.616D+00
 Coeff-En:   0.000D+00 0.000D+00 0.100D+01
 Coeff:     -0.225D+00 0.549D+00 0.676D+00
 Gap=     0.123 Goal=   None    Shift=    0.000
 RMSDP=5.06D-04 MaxDP=4.75D-02 DE=-2.90D-01 OVMax= 1.39D-01

 Cycle   4  Pass 1  IDiag  1:
 RMSU=  2.64D-04    CP:  9.65D-01  1.55D+00  5.07D-01
 E= -4069.76588971685     Delta-E=       -0.136859353057 Rises=F Damp=F
 DIIS: error= 7.25D-03 at cycle   4 NSaved=   4.
 NSaved= 4 IEnMin= 4 EnMin= -4069.76588971685     IErMin= 4 ErrMin= 7.25D-03
 ErrMax= 7.25D-03  0.00D+00 EMaxC= 1.00D-01 BMatC= 4.98D-02 BMatP= 2.01D-01
 IDIUse=3 WtCom= 9.27D-01 WtEn= 7.25D-02
 Coeff-Com: -0.109D+00 0.225D+00 0.408D+00 0.475D+00
 Coeff-En:   0.000D+00 0.000D+00 0.219D+00 0.781D+00
 Coeff:     -0.101D+00 0.209D+00 0.394D+00 0.497D+00
 Gap=     0.122 Goal=   None    Shift=    0.000
 RMSDP=1.98D-04 MaxDP=2.07D-02 DE=-1.37D-01 OVMax= 5.93D-02

 Cycle   5  Pass 1  IDiag  1:
 RMSU=  7.50D-05    CP:  9.64D-01  1.49D+00  6.89D-01  5.52D-01
 E= -4069.81072406065     Delta-E=       -0.044834343797 Rises=F Damp=F
 DIIS: error= 7.87D-04 at cycle   5 NSaved=   5.
 NSaved= 5 IEnMin= 5 EnMin= -4069.81072406065     IErMin= 5 ErrMin= 7.87D-04
 ErrMax= 7.87D-04  0.00D+00 EMaxC= 1.00D-01 BMatC= 1.13D-03 BMatP= 4.98D-02
 IDIUse=3 WtCom= 9.92D-01 WtEn= 7.87D-03
 Coeff-Com: -0.354D-01 0.694D-01 0.163D+00 0.248D+00 0.555D+00
 Coeff-En:   0.000D+00 0.000D+00 0.000D+00 0.000D+00 0.100D+01
 Coeff:     -0.351D-01 0.689D-01 0.162D+00 0.246D+00 0.558D+00
 Gap=     0.122 Goal=   None    Shift=    0.000
 RMSDP=3.99D-05 MaxDP=4.12D-03 DE=-4.48D-02 OVMax= 1.52D-02

 Cycle   6  Pass 1  IDiag  1:
 RMSU=  2.98D-05    CP:  9.64D-01  1.49D+00  6.82D-01  6.23D-01  7.65D-01
 E= -4069.81168957188     Delta-E=       -0.000965511230 Rises=F Damp=F
 DIIS: error= 2.25D-04 at cycle   6 NSaved=   6.
 NSaved= 6 IEnMin= 6 EnMin= -4069.81168957188     IErMin= 6 ErrMin= 2.25D-04
 ErrMax= 2.25D-04  0.00D+00 EMaxC= 1.00D-01 BMatC= 1.72D-04 BMatP= 1.13D-03
 IDIUse=3 WtCom= 9.98D-01 WtEn= 2.25D-03
 Coeff-Com:  0.236D-02-0.685D-02 0.105D-01 0.392D-01 0.307D+00 0.648D+00
 Coeff-En:   0.000D+00 0.000D+00 0.000D+00 0.000D+00 0.102D+00 0.898D+00
 Coeff:      0.235D-02-0.683D-02 0.105D-01 0.392D-01 0.307D+00 0.648D+00
 Gap=     0.122 Goal=   None    Shift=    0.000
 RMSDP=1.55D-05 MaxDP=1.22D-03 DE=-9.66D-04 OVMax= 6.84D-03

 Cycle   7  Pass 1  IDiag  1:
 RMSU=  1.05D-05    CP:  9.64D-01  1.50D+00  6.87D-01  6.22D-01  8.64D-01
                    CP:  7.51D-01
 E= -4069.81187247479     Delta-E=       -0.000182902913 Rises=F Damp=F
 DIIS: error= 7.62D-05 at cycle   7 NSaved=   7.
 NSaved= 7 IEnMin= 7 EnMin= -4069.81187247479     IErMin= 7 ErrMin= 7.62D-05
 ErrMax= 7.62D-05  0.00D+00 EMaxC= 1.00D-01 BMatC= 1.98D-05 BMatP= 1.72D-04
 IDIUse=1 WtCom= 1.00D+00 WtEn= 0.00D+00
 Coeff-Com:  0.442D-02-0.966D-02-0.900D-02-0.404D-02 0.101D+00 0.326D+00
 Coeff-Com:  0.591D+00
 Coeff:      0.442D-02-0.966D-02-0.900D-02-0.404D-02 0.101D+00 0.326D+00
 Coeff:      0.591D+00
 Gap=     0.122 Goal=   None    Shift=    0.000
 RMSDP=6.44D-06 MaxDP=1.09D-03 DE=-1.83D-04 OVMax= 3.21D-03

 Cycle   8  Pass 1  IDiag  1:
 RMSU=  4.63D-06    CP:  9.64D-01  1.50D+00  6.88D-01  6.27D-01  8.69D-01
                    CP:  8.78D-01  8.27D-01
 E= -4069.81189706835     Delta-E=       -0.000024593559 Rises=F Damp=F
 DIIS: error= 4.79D-05 at cycle   8 NSaved=   8.
 NSaved= 8 IEnMin= 8 EnMin= -4069.81189706835     IErMin= 8 ErrMin= 4.79D-05
 ErrMax= 4.79D-05  0.00D+00 EMaxC= 1.00D-01 BMatC= 4.74D-06 BMatP= 1.98D-05
 IDIUse=1 WtCom= 1.00D+00 WtEn= 0.00D+00
 Coeff-Com:  0.214D-02-0.423D-02-0.772D-02-0.122D-01-0.124D-01 0.334D-01
 Coeff-Com:  0.348D+00 0.653D+00
 Coeff:      0.214D-02-0.423D-02-0.772D-02-0.122D-01-0.124D-01 0.334D-01
 Coeff:      0.348D+00 0.653D+00
 Gap=     0.122 Goal=   None    Shift=    0.000
 RMSDP=3.23D-06 MaxDP=3.23D-04 DE=-2.46D-05 OVMax= 1.12D-03

 Cycle   9  Pass 1  IDiag  1:
 RMSU=  1.89D-06    CP:  9.64D-01  1.50D+00  6.89D-01  6.29D-01  8.86D-01
                    CP:  9.03D-01  1.03D+00  9.33D-01
 E= -4069.81190463285     Delta-E=       -0.000007564504 Rises=F Damp=F
 DIIS: error= 1.99D-05 at cycle   9 NSaved=   9.
 NSaved= 9 IEnMin= 9 EnMin= -4069.81190463285     IErMin= 9 ErrMin= 1.99D-05
 ErrMax= 1.99D-05  0.00D+00 EMaxC= 1.00D-01 BMatC= 6.73D-07 BMatP= 4.74D-06
 IDIUse=1 WtCom= 1.00D+00 WtEn= 0.00D+00
 Coeff-Com:  0.463D-03-0.769D-03-0.265D-02-0.598D-02-0.215D-01-0.379D-01
 Coeff-Com:  0.106D+00 0.325D+00 0.637D+00
 Coeff:      0.463D-03-0.769D-03-0.265D-02-0.598D-02-0.215D-01-0.379D-01
 Coeff:      0.106D+00 0.325D+00 0.637D+00
 Gap=     0.122 Goal=   None    Shift=    0.000
 RMSDP=1.40D-06 MaxDP=1.43D-04 DE=-7.56D-06 OVMax= 7.38D-04

 Cycle  10  Pass 1  IDiag  1:
 RMSU=  9.30D-07    CP:  9.64D-01  1.50D+00  6.89D-01  6.29D-01  8.89D-01
                    CP:  9.17D-01  1.07D+00  1.10D+00  1.05D+00
 E= -4069.81190618033     Delta-E=       -0.000001547476 Rises=F Damp=F
 DIIS: error= 1.02D-05 at cycle  10 NSaved=  10.
 NSaved=10 IEnMin=10 EnMin= -4069.81190618033     IErMin=10 ErrMin= 1.02D-05
 ErrMax= 1.02D-05  0.00D+00 EMaxC= 1.00D-01 BMatC= 1.70D-07 BMatP= 6.73D-07
 IDIUse=1 WtCom= 1.00D+00 WtEn= 0.00D+00
 Coeff-Com: -0.425D-03 0.890D-03 0.123D-02 0.113D-02-0.381D-02-0.308D-01
 Coeff-Com: -0.471D-01-0.765D-01 0.259D+00 0.897D+00
 Coeff:     -0.425D-03 0.890D-03 0.123D-02 0.113D-02-0.381D-02-0.308D-01
 Coeff:     -0.471D-01-0.765D-01 0.259D+00 0.897D+00
 Gap=     0.122 Goal=   None    Shift=    0.000
 RMSDP=1.21D-06 MaxDP=1.21D-04 DE=-1.55D-06 OVMax= 6.05D-04

 Cycle  11  Pass 1  IDiag  1:
 RMSU=  5.07D-07    CP:  9.64D-01  1.50D+00  6.89D-01  6.29D-01  8.91D-01
                    CP:  9.27D-01  1.12D+00  1.21D+00  1.38D+00  1.37D+00
 E= -4069.81190695017     Delta-E=       -0.000000769840 Rises=F Damp=F
 DIIS: error= 3.88D-06 at cycle  11 NSaved=  11.
 NSaved=11 IEnMin=11 EnMin= -4069.81190695017     IErMin=11 ErrMin= 3.88D-06
 ErrMax= 3.88D-06  0.00D+00 EMaxC= 1.00D-01 BMatC= 5.88D-08 BMatP= 1.70D-07
 IDIUse=1 WtCom= 1.00D+00 WtEn= 0.00D+00
 Coeff-Com: -0.324D-03 0.630D-03 0.131D-02 0.211D-02 0.443D-02-0.829D-02
 Coeff-Com: -0.441D-01-0.132D+00-0.195D-01 0.459D+00 0.737D+00
 Coeff:     -0.324D-03 0.630D-03 0.131D-02 0.211D-02 0.443D-02-0.829D-02
 Coeff:     -0.441D-01-0.132D+00-0.195D-01 0.459D+00 0.737D+00
 Gap=     0.122 Goal=   None    Shift=    0.000
 RMSDP=6.76D-07 MaxDP=5.78D-05 DE=-7.70D-07 OVMax= 3.67D-04

 Cycle  12  Pass 1  IDiag  1:
 RMSU=  2.59D-07    CP:  9.64D-01  1.50D+00  6.89D-01  6.30D-01  8.92D-01
                    CP:  9.30D-01  1.14D+00  1.27D+00  1.55D+00  1.75D+00
                    CP:  1.21D+00
 E= -4069.81190720499     Delta-E=       -0.000000254826 Rises=F Damp=F
 DIIS: error= 2.31D-06 at cycle  12 NSaved=  12.
 NSaved=12 IEnMin=12 EnMin= -4069.81190720499     IErMin=12 ErrMin= 2.31D-06
 ErrMax= 2.31D-06  0.00D+00 EMaxC= 1.00D-01 BMatC= 1.43D-08 BMatP= 5.88D-08
 IDIUse=1 WtCom= 1.00D+00 WtEn= 0.00D+00
 Coeff-Com:  0.255D-05-0.213D-04 0.167D-03 0.491D-03 0.325D-02 0.408D-02
 Coeff-Com:  0.315D-02-0.342D-01-0.661D-01-0.816D-01 0.248D+00 0.923D+00
 Coeff:      0.255D-05-0.213D-04 0.167D-03 0.491D-03 0.325D-02 0.408D-02
 Coeff:      0.315D-02-0.342D-01-0.661D-01-0.816D-01 0.248D+00 0.923D+00
 Gap=     0.122 Goal=   None    Shift=    0.000
 RMSDP=4.33D-07 MaxDP=3.02D-05 DE=-2.55D-07 OVMax= 2.48D-04

 Cycle  13  Pass 1  IDiag  1:
 RMSU=  1.63D-07    CP:  9.64D-01  1.50D+00  6.89D-01  6.30D-01  8.92D-01
                    CP:  9.30D-01  1.15D+00  1.30D+00  1.66D+00  1.98D+00
                    CP:  1.62D+00  1.28D+00
 E= -4069.81190729466     Delta-E=       -0.000000089662 Rises=F Damp=F
 DIIS: error= 1.26D-06 at cycle  13 NSaved=  13.
 NSaved=13 IEnMin=13 EnMin= -4069.81190729466     IErMin=13 ErrMin= 1.26D-06
 ErrMax= 1.26D-06  0.00D+00 EMaxC= 1.00D-01 BMatC= 7.87D-09 BMatP= 1.43D-08
 IDIUse=1 WtCom= 1.00D+00 WtEn= 0.00D+00
 Coeff-Com:  0.119D-03-0.244D-03-0.370D-03-0.460D-03 0.541D-03 0.505D-02
 Coeff-Com:  0.200D-01 0.225D-01-0.339D-01-0.241D+00-0.155D+00 0.601D+00
 Coeff-Com:  0.782D+00
 Coeff:      0.119D-03-0.244D-03-0.370D-03-0.460D-03 0.541D-03 0.505D-02
 Coeff:      0.200D-01 0.225D-01-0.339D-01-0.241D+00-0.155D+00 0.601D+00
 Coeff:      0.782D+00
 Gap=     0.122 Goal=   None    Shift=    0.000
 RMSDP=3.32D-07 MaxDP=2.16D-05 DE=-8.97D-08 OVMax= 1.92D-04

 Cycle  14  Pass 1  IDiag  1:
 RMSU=  7.49D-08    CP:  9.64D-01  1.50D+00  6.89D-01  6.30D-01  8.93D-01
                    CP:  9.31D-01  1.16D+00  1.32D+00  1.74D+00  2.17D+00
                    CP:  1.88D+00  1.79D+00  1.08D+00
 E= -4069.81190732918     Delta-E=       -0.000000034524 Rises=F Damp=F
 DIIS: error= 6.35D-07 at cycle  14 NSaved=  14.
 NSaved=14 IEnMin=14 EnMin= -4069.81190732918     IErMin=14 ErrMin= 6.35D-07
 ErrMax= 6.35D-07  0.00D+00 EMaxC= 1.00D-01 BMatC= 1.22D-09 BMatP= 7.87D-09
 IDIUse=1 WtCom= 1.00D+00 WtEn= 0.00D+00
 Coeff-Com:  0.658D-04-0.130D-03-0.244D-03-0.385D-03-0.493D-03 0.129D-02
 Coeff-Com:  0.109D-01 0.189D-01 0.350D-02-0.989D-01-0.141D+00 0.949D-01
 Coeff-Com:  0.403D+00 0.708D+00
 Coeff:      0.658D-04-0.130D-03-0.244D-03-0.385D-03-0.493D-03 0.129D-02
 Coeff:      0.109D-01 0.189D-01 0.350D-02-0.989D-01-0.141D+00 0.949D-01
 Coeff:      0.403D+00 0.708D+00
 Gap=     0.122 Goal=   None    Shift=    0.000
 RMSDP=9.91D-08 MaxDP=6.60D-06 DE=-3.45D-08 OVMax= 5.32D-05

 Cycle  15  Pass 1  IDiag  1:
 RMSU=  3.79D-08    CP:  9.64D-01  1.50D+00  6.89D-01  6.30D-01  8.93D-01
                    CP:  9.31D-01  1.16D+00  1.33D+00  1.75D+00  2.21D+00
                    CP:  1.99D+00  1.93D+00  1.32D+00  1.02D+00
 E= -4069.81190733303     Delta-E=       -0.000000003845 Rises=F Damp=F
 DIIS: error= 3.32D-07 at cycle  15 NSaved=  15.
 NSaved=15 IEnMin=15 EnMin= -4069.81190733303     IErMin=15 ErrMin= 3.32D-07
 ErrMax= 3.32D-07  0.00D+00 EMaxC= 1.00D-01 BMatC= 2.25D-10 BMatP= 1.22D-09
 IDIUse=1 WtCom= 1.00D+00 WtEn= 0.00D+00
 Coeff-Com:  0.503D-05-0.828D-05-0.312D-04-0.796D-04-0.299D-03-0.511D-03
 Coeff-Com:  0.113D-02 0.241D-02 0.876D-02 0.198D-02-0.306D-01-0.732D-01
 Coeff-Com:  0.276D-01 0.298D+00 0.765D+00
 Coeff:      0.503D-05-0.828D-05-0.312D-04-0.796D-04-0.299D-03-0.511D-03
 Coeff:      0.113D-02 0.241D-02 0.876D-02 0.198D-02-0.306D-01-0.732D-01
 Coeff:      0.276D-01 0.298D+00 0.765D+00
 Gap=     0.122 Goal=   None    Shift=    0.000
 RMSDP=4.07D-08 MaxDP=2.61D-06 DE=-3.85D-09 OVMax= 2.66D-05

 Cycle  16  Pass 1  IDiag  1:
 RMSU=  1.85D-08    CP:  9.64D-01  1.50D+00  6.89D-01  6.30D-01  8.93D-01
                    CP:  9.31D-01  1.16D+00  1.33D+00  1.76D+00  2.22D+00
                    CP:  2.01D+00  1.99D+00  1.40D+00  1.24D+00  1.15D+00
 E= -4069.81190733361     Delta-E=       -0.000000000586 Rises=F Damp=F
 DIIS: error= 1.63D-07 at cycle  16 NSaved=  16.
 NSaved=16 IEnMin=16 EnMin= -4069.81190733361     IErMin=16 ErrMin= 1.63D-07
 ErrMax= 1.63D-07  0.00D+00 EMaxC= 1.00D-01 BMatC= 8.01D-11 BMatP= 2.25D-10
 IDIUse=1 WtCom= 1.00D+00 WtEn= 0.00D+00
 Coeff-Com: -0.142D-04 0.287D-04 0.471D-04 0.543D-04-0.241D-04-0.631D-03
 Coeff-Com: -0.201D-02-0.427D-02 0.467D-02 0.255D-01 0.206D-01-0.649D-01
 Coeff-Com: -0.841D-01-0.356D-01 0.397D+00 0.743D+00
 Coeff:     -0.142D-04 0.287D-04 0.471D-04 0.543D-04-0.241D-04-0.631D-03
 Coeff:     -0.201D-02-0.427D-02 0.467D-02 0.255D-01 0.206D-01-0.649D-01
 Coeff:     -0.841D-01-0.356D-01 0.397D+00 0.743D+00
 Gap=     0.122 Goal=   None    Shift=    0.000
 RMSDP=2.26D-08 MaxDP=1.56D-06 DE=-5.86D-10 OVMax= 1.31D-05

 Cycle  17  Pass 1  IDiag  1:
 RMSU=  1.03D-08    CP:  9.64D-01  1.50D+00  6.89D-01  6.30D-01  8.93D-01
                    CP:  9.31D-01  1.16D+00  1.33D+00  1.76D+00  2.23D+00
                    CP:  2.03D+00  2.02D+00  1.45D+00  1.34D+00  1.44D+00
                    CP:  1.25D+00
 E= -4069.81190733406     Delta-E=       -0.000000000447 Rises=F Damp=F
 DIIS: error= 1.01D-07 at cycle  17 NSaved=  17.
 NSaved=17 IEnMin=17 EnMin= -4069.81190733406     IErMin=17 ErrMin= 1.01D-07
 ErrMax= 1.01D-07  0.00D+00 EMaxC= 1.00D-01 BMatC= 1.79D-11 BMatP= 8.01D-11
 IDIUse=1 WtCom= 1.00D+00 WtEn= 0.00D+00
 Coeff-Com: -0.719D-05 0.140D-04 0.285D-04 0.426D-04 0.850D-04-0.124D-03
 Coeff-Com: -0.983D-03-0.281D-02 0.226D-03 0.917D-02 0.175D-01-0.735D-02
 Coeff-Com: -0.375D-01-0.102D+00-0.322D-01 0.299D+00 0.857D+00
 Coeff:     -0.719D-05 0.140D-04 0.285D-04 0.426D-04 0.850D-04-0.124D-03
 Coeff:     -0.983D-03-0.281D-02 0.226D-03 0.917D-02 0.175D-01-0.735D-02
 Coeff:     -0.375D-01-0.102D+00-0.322D-01 0.299D+00 0.857D+00
 Gap=     0.122 Goal=   None    Shift=    0.000
 RMSDP=1.37D-08 MaxDP=1.03D-06 DE=-4.47D-10 OVMax= 8.64D-06

 Cycle  18  Pass 1  IDiag  1:
 RMSU=  4.82D-09    CP:  9.64D-01  1.50D+00  6.89D-01  6.30D-01  8.93D-01
                    CP:  9.31D-01  1.16D+00  1.33D+00  1.76D+00  2.23D+00
                    CP:  2.03D+00  2.02D+00  1.46D+00  1.41D+00  1.62D+00
                    CP:  1.66D+00  1.39D+00
 E= -4069.81190733431     Delta-E=       -0.000000000255 Rises=F Damp=F
 DIIS: error= 5.23D-08 at cycle  18 NSaved=  18.
 NSaved=18 IEnMin=18 EnMin= -4069.81190733431     IErMin=18 ErrMin= 5.23D-08
 ErrMax= 5.23D-08  0.00D+00 EMaxC= 1.00D-01 BMatC= 6.80D-12 BMatP= 1.79D-11
 IDIUse=1 WtCom= 1.00D+00 WtEn= 0.00D+00
 Coeff-Com:  0.206D-05-0.443D-05-0.465D-05-0.189D-05 0.588D-04 0.182D-03
 Coeff-Com:  0.411D-03 0.216D-03-0.128D-02-0.623D-02-0.487D-04 0.205D-01
 Coeff-Com:  0.185D-01-0.330D-01-0.163D+00-0.188D+00 0.347D+00 0.101D+01
 Coeff:      0.206D-05-0.443D-05-0.465D-05-0.189D-05 0.588D-04 0.182D-03
 Coeff:      0.411D-03 0.216D-03-0.128D-02-0.623D-02-0.487D-04 0.205D-01
 Coeff:      0.185D-01-0.330D-01-0.163D+00-0.188D+00 0.347D+00 0.101D+01
 Gap=     0.122 Goal=   None    Shift=    0.000
 RMSDP=1.17D-08 MaxDP=7.71D-07 DE=-2.55D-10 OVMax= 6.97D-06

 Cycle  19  Pass 1  IDiag  1:
 RMSU=  2.79D-09    CP:  9.64D-01  1.50D+00  6.89D-01  6.30D-01  8.93D-01
                    CP:  9.31D-01  1.16D+00  1.33D+00  1.76D+00  2.23D+00
                    CP:  2.03D+00  2.03D+00  1.48D+00  1.46D+00  1.77D+00
                    CP:  2.00D+00  1.93D+00  1.38D+00
 E= -4069.81190733415     Delta-E=        0.000000000164 Rises=F Damp=F
 DIIS: error= 4.09D-08 at cycle  19 NSaved=  19.
 NSaved=19 IEnMin=18 EnMin= -4069.81190733431     IErMin=19 ErrMin= 4.09D-08
 ErrMax= 4.09D-08  0.00D+00 EMaxC= 1.00D-01 BMatC= 1.49D-12 BMatP= 6.80D-12
 IDIUse=1 WtCom= 1.00D+00 WtEn= 0.00D+00
 Coeff-Com:  0.293D-05-0.590D-05-0.100D-04-0.126D-04 0.107D-04 0.121D-03
 Coeff-Com:  0.490D-03 0.801D-03-0.625D-03-0.605D-02-0.484D-02 0.124D-01
 Coeff-Com:  0.204D-01 0.109D-01-0.712D-01-0.180D+00-0.351D-01 0.502D+00
 Coeff-Com:  0.750D+00
 Coeff:      0.293D-05-0.590D-05-0.100D-04-0.126D-04 0.107D-04 0.121D-03
 Coeff:      0.490D-03 0.801D-03-0.625D-03-0.605D-02-0.484D-02 0.124D-01
 Coeff:      0.204D-01 0.109D-01-0.712D-01-0.180D+00-0.351D-01 0.502D+00
 Coeff:      0.750D+00
 Gap=     0.122 Goal=   None    Shift=    0.000
 RMSDP=4.66D-09 MaxDP=3.15D-07 DE= 1.64D-10 OVMax= 2.74D-06

 SCF Done:  E(RCAM-B3LYP) =  -4069.81190733     A.U. after   19 cycles
            NFock= 19  Conv=0.47D-08     -V/T= 2.0102
 KE= 4.028802030138D+03 PE=-3.694752630893D+04 EE= 1.511560398135D+04
 Leave Link  502 at Sat Sep  4 11:39:26 2021, MaxMem= 23488102400 cpu:           11627.3 elap:             508.9
 (Enter /sw/apps/gaussian-16.0/g16/l801.exe)
 DoSCS=F DFT=T ScalE2(SS,OS)=  1.000000  1.000000
 ExpMin= 3.36D-02 ExpMax= 4.95D+03 ExpMxC= 7.45D+02 IAcc=3 IRadAn=         5 AccDes= 0.00D+00
 HarFok:  IExCor=  205 AccDes= 0.00D+00 IRadAn=         5 IDoV=-2 UseB2=F ITyADJ=14
 ICtDFT= 12500011 ScaDFX=  1.000000  1.000000  1.000000  1.000000
 GSVD:  LWork=       -9588 too small for GESVD, short by       45590 words or       45590 for optimal perf.
 Largest valence mixing into a core orbital is  2.03D-04
 Largest core mixing into a valence orbital is  5.24D-05
 Range of M.O.s used for correlation:    95  1572
 NBasis=  1572 NAE=   312 NBE=   312 NFC=    94 NFV=     0
 NROrb=   1478 NOA=   218 NOB=   218 NVA=  1260 NVB=  1260
 Leave Link  801 at Sat Sep  4 11:39:26 2021, MaxMem= 23488102400 cpu:               9.0 elap:               0.4
 (Enter /sw/apps/gaussian-16.0/g16/l914.exe)
 RHF ground state
 Two-electron integrals replicated using symmetry.
 MDV= 23488102400 DFT=T DoStab=F Mixed=T DoRPA=T DoScal=F NonHer=T
 Making orbital integer symmetry assigments:
 Orbital symmetries:
       Occupied  (A) (A) (A) (A) (A) (A) (A) (A) (A) (A) (A) (A)
                 (A) (A) (A) (A) (A) (A) (A) (A) (A) (A) (A) (A)
                 (A) (A) (A) (A) (A) (A) (A) (A) (A) (A) (A) (A)
                 (A) (A) (A) (A) (A) (A) (A) (A) (A) (A) (A) (A)
                 (A) (A) (A) (A) (A) (A) (A) (A) (A) (A) (A) (A)
                 (A) (A) (A) (A) (A) (A) (A) (A) (A) (A) (A) (A)
                 (A) (A) (A) (A) (A) (A) (A) (A) (A) (A) (A) (A)
                 (A) (A) (A) (A) (A) (A) (A) (A) (A) (A) (A) (A)
                 (A) (A) (A) (A) (A) (A) (A) (A) (A) (A) (A) (A)
                 (A) (A) (A) (A) (A) (A) (A) (A) (A) (A) (A) (A)
                 (A) (A) (A) (A) (A) (A) (A) (A) (A) (A) (A) (A)
                 (A) (A) (A) (A) (A) (A) (A) (A) (A) (A) (A) (A)
                 (A) (A) (A) (A) (A) (A) (A) (A) (A) (A) (A) (A)
                 (A) (A) (A) (A) (A) (A) (A) (A) (A) (A) (A) (A)
                 (A) (A) (A) (A) (A) (A) (A) (A) (A) (A) (A) (A)
                 (A) (A) (A) (A) (A) (A) (A) (A) (A) (A) (A) (A)
                 (A) (A) (A) (A) (A) (A) (A) (A) (A) (A) (A) (A)
                 (A) (A) (A) (A) (A) (A) (A) (A) (A) (A) (A) (A)
                 (A) (A) (A) (A) (A) (A) (A) (A) (A) (A) (A) (A)
                 (A) (A) (A) (A) (A) (A) (A) (A) (A) (A) (A) (A)
                 (A) (A) (A) (A) (A) (A) (A) (A) (A) (A) (A) (A)
                 (A) (A) (A) (A) (A) (A) (A) (A) (A) (A) (A) (A)
                 (A) (A) (A) (A) (A) (A) (A) (A) (A) (A) (A) (A)
                 (A) (A) (A) (A) (A) (A) (A) (A) (A) (A) (A) (A)
                 (A) (A) (A) (A) (A) (A) (A) (A) (A) (A) (A) (A)
                 (A) (A) (A) (A) (A) (A) (A) (A) (A) (A) (A) (A)
       Virtual   (A) (A) (A) (A) (A) (A) (A) (A) (A) (A) (A) (A)
                 (A) (A) (A) (A) (A) (A) (A) (A) (A) (A) (A) (A)
                 (A) (A) (A) (A) (A) (A) (A) (A) (A) (A) (A) (A)
                 (A) (A) (A) (A) (A) (A) (A) (A) (A) (A) (A) (A)
                 (A) (A) (A) (A) (A) (A) (A) (A) (A) (A) (A) (A)
                 (A) (A) (A) (A) (A) (A) (A) (A) (A) (A) (A) (A)
                 (A) (A) (A) (A) (A) (A) (A) (A) (A) (A) (A) (A)
                 (A) (A) (A) (A) (A) (A) (A) (A) (A) (A) (A) (A)
                 (A) (A) (A) (A) (A) (A) (A) (A) (A) (A) (A) (A)
                 (A) (A) (A) (A) (A) (A) (A) (A) (A) (A) (A) (A)
                 (A) (A) (A) (A) (A) (A) (A) (A) (A) (A) (A) (A)
                 (A) (A) (A) (A) (A) (A) (A) (A) (A) (A) (A) (A)
                 (A) (A) (A) (A) (A) (A) (A) (A) (A) (A) (A) (A)
                 (A) (A) (A) (A) (A) (A) (A) (A) (A) (A) (A) (A)
                 (A) (A) (A) (A) (A) (A) (A) (A) (A) (A) (A) (A)
                 (A) (A) (A) (A) (A) (A) (A) (A) (A) (A) (A) (A)
                 (A) (A) (A) (A) (A) (A) (A) (A) (A) (A) (A) (A)
                 (A) (A) (A) (A) (A) (A) (A) (A) (A) (A) (A) (A)
                 (A) (A) (A) (A) (A) (A) (A) (A) (A) (A) (A) (A)
                 (A) (A) (A) (A) (A) (A) (A) (A) (A) (A) (A) (A)
                 (A) (A) (A) (A) (A) (A) (A) (A) (A) (A) (A) (A)
                 (A) (A) (A) (A) (A) (A) (A) (A) (A) (A) (A) (A)
                 (A) (A) (A) (A) (A) (A) (A) (A) (A) (A) (A) (A)
                 (A) (A) (A) (A) (A) (A) (A) (A) (A) (A) (A) (A)
                 (A) (A) (A) (A) (A) (A) (A) (A) (A) (A) (A) (A)
                 (A) (A) (A) (A) (A) (A) (A) (A) (A) (A) (A) (A)
                 (A) (A) (A) (A) (A) (A) (A) (A) (A) (A) (A) (A)
                 (A) (A) (A) (A) (A) (A) (A) (A) (A) (A) (A) (A)
                 (A) (A) (A) (A) (A) (A) (A) (A) (A) (A) (A) (A)
                 (A) (A) (A) (A) (A) (A) (A) (A) (A) (A) (A) (A)
                 (A) (A) (A) (A) (A) (A) (A) (A) (A) (A) (A) (A)
                 (A) (A) (A) (A) (A) (A) (A) (A) (A) (A) (A) (A)
                 (A) (A) (A) (A) (A) (A) (A) (A) (A) (A) (A) (A)
                 (A) (A) (A) (A) (A) (A) (A) (A) (A) (A) (A) (A)
                 (A) (A) (A) (A) (A) (A) (A) (A) (A) (A) (A) (A)
                 (A) (A) (A) (A) (A) (A) (A) (A) (A) (A) (A) (A)
                 (A) (A) (A) (A) (A) (A) (A) (A) (A) (A) (A) (A)
                 (A) (A) (A) (A) (A) (A) (A) (A) (A) (A) (A) (A)
                 (A) (A) (A) (A) (A) (A) (A) (A) (A) (A) (A) (A)
                 (A) (A) (A) (A) (A) (A) (A) (A) (A) (A) (A) (A)
                 (A) (A) (A) (A) (A) (A) (A) (A) (A) (A) (A) (A)
                 (A) (A) (A) (A) (A) (A) (A) (A) (A) (A) (A) (A)
                 (A) (A) (A) (A) (A) (A) (A) (A) (A) (A) (A) (A)
                 (A) (A) (A) (A) (A) (A) (A) (A) (A) (A) (A) (A)
                 (A) (A) (A) (A) (A) (A) (A) (A) (A) (A) (A) (A)
                 (A) (A) (A) (A) (A) (A) (A) (A) (A) (A) (A) (A)
                 (A) (A) (A) (A) (A) (A) (A) (A) (A) (A) (A) (A)
                 (A) (A) (A) (A) (A) (A) (A) (A) (A) (A) (A) (A)
                 (A) (A) (A) (A) (A) (A) (A) (A) (A) (A) (A) (A)
                 (A) (A) (A) (A) (A) (A) (A) (A) (A) (A) (A) (A)
                 (A) (A) (A) (A) (A) (A) (A) (A) (A) (A) (A) (A)
                 (A) (A) (A) (A) (A) (A) (A) (A) (A) (A) (A) (A)
                 (A) (A) (A) (A) (A) (A) (A) (A) (A) (A) (A) (A)
                 (A) (A) (A) (A) (A) (A) (A) (A) (A) (A) (A) (A)
                 (A) (A) (A) (A) (A) (A) (A) (A) (A) (A) (A) (A)
                 (A) (A) (A) (A) (A) (A) (A) (A) (A) (A) (A) (A)
                 (A) (A) (A) (A) (A) (A) (A) (A) (A) (A) (A) (A)
                 (A) (A) (A) (A) (A) (A) (A) (A) (A) (A) (A) (A)
                 (A) (A) (A) (A) (A) (A) (A) (A) (A) (A) (A) (A)
                 (A) (A) (A) (A) (A) (A) (A) (A) (A) (A) (A) (A)
                 (A) (A) (A) (A) (A) (A) (A) (A) (A) (A) (A) (A)
                 (A) (A) (A) (A) (A) (A) (A) (A) (A) (A) (A) (A)
                 (A) (A) (A) (A) (A) (A) (A) (A) (A) (A) (A) (A)
                 (A) (A) (A) (A) (A) (A) (A) (A) (A) (A) (A) (A)
                 (A) (A) (A) (A) (A) (A) (A) (A) (A) (A) (A) (A)
                 (A) (A) (A) (A) (A) (A) (A) (A) (A) (A) (A) (A)
                 (A) (A) (A) (A) (A) (A) (A) (A) (A) (A) (A) (A)
                 (A) (A) (A) (A) (A) (A) (A) (A) (A) (A) (A) (A)
                 (A) (A) (A) (A) (A) (A) (A) (A) (A) (A) (A) (A)
                 (A) (A) (A) (A) (A) (A) (A) (A) (A) (A) (A) (A)
                 (A) (A) (A) (A) (A) (A) (A) (A) (A) (A) (A) (A)
                 (A) (A) (A) (A) (A) (A) (A) (A) (A) (A) (A) (A)
                 (A) (A) (A) (A) (A) (A) (A) (A) (A) (A) (A) (A)
                 (A) (A) (A) (A) (A) (A) (A) (A) (A) (A) (A) (A)
                 (A) (A) (A) (A) (A) (A) (A) (A) (A) (A) (A) (A)
                 (A) (A) (A) (A) (A) (A) (A) (A) (A) (A) (A) (A)
                 (A) (A) (A) (A) (A) (A) (A) (A) (A) (A) (A) (A)
                 (A) (A) (A) (A) (A) (A) (A) (A) (A) (A) (A) (A)
                 (A) (A) (A) (A) (A) (A) (A) (A) (A) (A) (A) (A)
                 (A) (A) (A) (A) (A) (A) (A) (A) (A) (A) (A) (A)
                 (A) (A) (A) (A) (A) (A) (A) (A) (A) (A) (A) (A)
                 (A) (A) (A) (A) (A) (A) (A) (A) (A) (A) (A) (A)
                 (A) (A) (A) (A) (A) (A) (A) (A) (A) (A) (A) (A)
                 (A) (A) (A) (A) (A) (A) (A) (A) (A) (A) (A) (A)
                 (A) (A) (A) (A) (A) (A) (A) (A) (A) (A) (A) (A)
                 (A) (A) (A) (A) (A) (A) (A) (A) (A) (A) (A) (A)
                 (A) (A) (A) (A) (A) (A) (A) (A) (A) (A) (A) (A)
                 (A) (A) (A) (A) (A) (A) (A) (A) (A) (A) (A) (A)
                 (A) (A) (A) (A) (A) (A) (A) (A) (A) (A) (A) (A)
                 (A) (A) (A) (A) (A) (A) (A) (A) (A) (A) (A) (A)
                 (A) (A) (A) (A) (A) (A) (A) (A) (A) (A) (A) (A)
                 (A) (A) (A) (A) (A) (A) (A) (A) (A) (A) (A) (A)
                 (A) (A) (A) (A) (A) (A) (A) (A) (A) (A) (A) (A)
                 (A) (A) (A) (A) (A) (A) (A) (A) (A) (A) (A) (A)
                 (A) (A) (A) (A) (A) (A) (A) (A) (A) (A) (A) (A)
                 (A) (A) (A) (A) (A) (A) (A) (A) (A) (A) (A) (A)
                 (A) (A) (A) (A) (A) (A) (A) (A) (A) (A) (A) (A)
                 (A) (A) (A) (A) (A) (A) (A) (A) (A) (A) (A) (A)
                 (A) (A) (A) (A) (A) (A) (A) (A) (A) (A) (A) (A)
                 (A) (A) (A) (A) (A) (A) (A) (A) (A) (A) (A) (A)
                 (A) (A) (A) (A) (A) (A) (A) (A) (A) (A) (A) (A)
                 (A) (A) (A) (A) (A) (A) (A) (A) (A) (A) (A) (A)
                 (A) (A) (A) (A) (A) (A) (A) (A) (A) (A) (A) (A)
                 (A) (A) (A) (A) (A) (A) (A) (A) (A) (A) (A) (A)
                 (A) (A) (A) (A) (A) (A) (A) (A) (A) (A) (A) (A)
    20 initial guesses have been made.
 Convergence on wavefunction:    0.001000000000000
 Davidson Disk Diagonalization:  ConvIn= 1.00D-03 SkipCon=T Conv= 1.00D-03.
 Max sub-space:  2000 roots to seek:    20 dimension of matrix:       549360
 Iteration     1 Dimension    20 NMult     0 NNew     20
 CISAX will form    20 AO SS matrices at one time.
 NMat=    20 NSing=    20 JSym2X= 0.
 FoFJK:  IHMeth= 1 ICntrl=       0 DoSepK=T KAlg= 0 I1Cent=           0 FoldK=F
 IRaf=         1 NMat=      40 IRICut=       1 DoRegI=T DoRafI=F ISym2E= 0 IDoP0=3 IntGTp=3.
 FoFCou: FMM=T IPFlag=           0 FMFlag=      100000 FMFlg1=        2001
         NFxFlg=           0 DoJE=F BraDBF=F KetDBF=F FulRan=T
         wScrn=  0.000000 ICntrl=       500 IOpCl=  0 I1Cent=           0 NGrid=           0
         NMat0=   20 NMatS0=     20 NMatT0=    0 NMatD0=   20 NMtDS0=    0 NMtDT0=    0
 Symmetry not used in FoFCou.
 FMM levels:  10  Number of levels for PrismC:   9
 New state      1 was old state      7
 New state      2 was old state      6
 New state      3 was old state      2
 New state      4 was old state      3
 New state      5 was old state      1
 Excitation Energies [eV] at current iteration:
 Root      1 :     2.613794284958619
 Root      2 :     2.620022827818433
 Root      3 :     2.679355897307551
 Root      4 :     2.691272882389316
 Root      5 :     2.763392052224459
 Root      6 :     2.826444683581804
 Root      7 :     3.554705503370226
 Root      8 :     3.628248460713879
 Root      9 :     3.629489730380093
 Root     10 :     3.670837697852768
 Root     11 :     3.735517105286717
 Root     12 :     3.758831413902477
 Root     13 :     4.301715875597281
 Root     14 :     4.307678961296146
 Root     15 :     4.672295587011800
 Root     16 :     4.759562217904157
 Root     17 :     4.976967617146305
 Root     18 :     5.010182478920101
 Root     19 :     5.054189870687277
 Root     20 :     5.087248605943667
 Iteration     2 Dimension    30 NMult    20 NNew     10
 CISAX will form    10 AO SS matrices at one time.
 NMat=    10 NSing=    10 JSym2X= 0.
 New state      1 was old state      3
 Root      1 not converged, maximum delta is    0.179384076886391
 New state      2 was old state      4
 Root      2 not converged, maximum delta is    0.181381890726658
 New state      3 was old state      2
 Root      3 not converged, maximum delta is    0.065841870825833
 New state      4 was old state      1
 Root      4 not converged, maximum delta is    0.091570592167564
 Root      5 has converged.
 Excitation Energies [eV] at current iteration:
 Root      1 :     1.800451314218882   Change is   -0.878904583088668
 Root      2 :     1.807705846664644   Change is   -0.883567035724672
 Root      3 :     2.236086368581030   Change is   -0.383936459237403
 Root      4 :     2.239142373582861   Change is   -0.374651911375759
 Root      5 :     2.763309128427546   Change is   -0.000082923796913
 Iteration     3 Dimension    38 NMult    30 NNew      8
 CISAX will form     8 AO SS matrices at one time.
 NMat=     8 NSing=     8 JSym2X= 0.
 Root      1 not converged, maximum delta is    0.065230371898828
 Root      2 not converged, maximum delta is    0.066438254058670
 Root      3 not converged, maximum delta is    0.044528260416504
 Root      4 not converged, maximum delta is    0.042328085777170
 Root      5 has converged.
 Excitation Energies [eV] at current iteration:
 Root      1 :     1.693268753460001   Change is   -0.107182560758881
 Root      2 :     1.699358796380080   Change is   -0.108347050284564
 Root      3 :     2.194247861666454   Change is   -0.041838506914576
 Root      4 :     2.200378078603646   Change is   -0.038764294979215
 Root      5 :     2.763309128427576   Change is    0.000000000000030
 Iteration     4 Dimension    46 NMult    38 NNew      8
 CISAX will form     8 AO SS matrices at one time.
 NMat=     8 NSing=     8 JSym2X= 0.
 Root      1 not converged, maximum delta is    0.012420096643780
 Root      2 not converged, maximum delta is    0.012630669672085
 Root      3 not converged, maximum delta is    0.009808339397756
 Root      4 not converged, maximum delta is    0.008810839404467
 Root      5 has converged.
 Excitation Energies [eV] at current iteration:
 Root      1 :     1.676543971182738   Change is   -0.016724782277264
 Root      2 :     1.682487374047295   Change is   -0.016871422332784
 Root      3 :     2.186909433215069   Change is   -0.007338428451385
 Root      4 :     2.193621237396938   Change is   -0.006756841206707
 Root      5 :     2.763309128427517   Change is   -0.000000000000059
 Iteration     5 Dimension    54 NMult    46 NNew      8
 CISAX will form     8 AO SS matrices at one time.
 NMat=     8 NSing=     8 JSym2X= 0.
 Root      1 not converged, maximum delta is    0.002043383367629
 Root      2 not converged, maximum delta is    0.002075923120800
 Root      3 not converged, maximum delta is    0.002528610700761
 Root      4 not converged, maximum delta is    0.002384513211073
 Root      5 has converged.
 Excitation Energies [eV] at current iteration:
 Root      1 :     1.674771414019332   Change is   -0.001772557163406
 Root      2 :     1.680710715945353   Change is   -0.001776658101943
 Root      3 :     2.186054787029795   Change is   -0.000854646185274
 Root      4 :     2.192847958308110   Change is   -0.000773279088829
 Root      5 :     2.763309128427427   Change is   -0.000000000000089
 Iteration     6 Dimension    62 NMult    54 NNew      8
 CISAX will form     8 AO SS matrices at one time.
 NMat=     8 NSing=     8 JSym2X= 0.
 Root      1 not converged, maximum delta is    0.001284085947231
 Root      2 not converged, maximum delta is    0.001309699681643
 Root      3 not converged, maximum delta is    0.001085549251831
 Root      4 not converged, maximum delta is    0.001010424304410
 Root      5 has converged.
 Excitation Energies [eV] at current iteration:
 Root      1 :     1.674518531509149   Change is   -0.000252882510183
 Root      2 :     1.680455291077130   Change is   -0.000255424868223
 Root      3 :     2.185925323340159   Change is   -0.000129463689636
 Root      4 :     2.192730523148339   Change is   -0.000117435159771
 Root      5 :     2.763309128427517   Change is    0.000000000000089
 Iteration     7 Dimension    70 NMult    62 NNew      8
 CISAX will form     8 AO SS matrices at one time.
 NMat=     8 NSing=     8 JSym2X= 0.
 Root      1 has converged.
 Root      2 has converged.
 Root      3 has converged.
 Root      4 has converged.
 Root      5 has converged.
 Excitation Energies [eV] at current iteration:
 Root      1 :     1.674494233427775   Change is   -0.000024298081373
[...]
 Alpha virt. eigenvalues --    1.84445   1.84541   1.84808   1.84823   1.85099
 Alpha virt. eigenvalues --    1.85141   1.85270   1.85369   1.85490   1.85512
 Alpha virt. eigenvalues --    1.85864   1.85928   1.86361   1.86404   1.86556
 Alpha virt. eigenvalues --    1.86675   1.86781   1.86836   1.87028   1.87058
 Alpha virt. eigenvalues --    1.87440   1.87511   1.87669   1.87794   1.87866
 Alpha virt. eigenvalues --    1.88031   1.88037   1.88206   1.88535   1.88606
 Alpha virt. eigenvalues --    1.88818   1.88978   1.89095   1.89129   1.89627
 Alpha virt. eigenvalues --    1.89687   1.89745   1.89897   1.90114   1.90219
 Alpha virt. eigenvalues --    1.90743   1.90920   1.91343   1.91434   1.91439
 Alpha virt. eigenvalues --    1.91639   1.92148   1.92217   1.92616   1.92691
 Alpha virt. eigenvalues --    1.92979   1.93174   1.93339   1.93515   1.94282
 Alpha virt. eigenvalues --    1.94321   1.94690   1.94832   1.95481   1.95596
 Alpha virt. eigenvalues --    1.95718   1.95842   1.95984   1.96072   1.96154
 Alpha virt. eigenvalues --    1.96200   1.96502   1.96590   1.96897   1.96967
 Alpha virt. eigenvalues --    1.97446   1.97556   1.97824   1.97832   1.98161
 Alpha virt. eigenvalues --    1.98198   1.98374   1.98652   1.99096   1.99127
 Alpha virt. eigenvalues --    1.99811   1.99970   2.00657   2.00746   2.00985
 Alpha virt. eigenvalues --    2.01122   2.01465   2.01516   2.01636   2.01672
 Alpha virt. eigenvalues --    2.01706   2.01855   2.02734   2.02780   2.03151
 Alpha virt. eigenvalues --    2.03236   2.03392   2.03406   2.03469   2.03546
 Alpha virt. eigenvalues --    2.04028   2.04047   2.04957   2.04996   2.05512
 Alpha virt. eigenvalues --    2.05648   2.06075   2.06305   2.06883   2.07059
 Alpha virt. eigenvalues --    2.07174   2.07367   2.08562   2.08589   2.08974
 Alpha virt. eigenvalues --    2.09032   2.09579   2.09637   2.10784   2.11038
 Alpha virt. eigenvalues --    2.11175   2.11429   2.11528   2.11563   2.11723
 Alpha virt. eigenvalues --    2.11899   2.12457   2.12495   2.12802   2.12822
 Alpha virt. eigenvalues --    2.12829   2.12897   2.13676   2.13755   2.14141
 Alpha virt. eigenvalues --    2.14257   2.15331   2.15424   2.15916   2.16110
 Alpha virt. eigenvalues --    2.16521   2.16615   2.16742   2.17192   2.17411
 Alpha virt. eigenvalues --    2.17655   2.17702   2.17967   2.18013   2.18067
 Alpha virt. eigenvalues --    2.18308   2.18698   2.18854   2.19265   2.19631
 Alpha virt. eigenvalues --    2.19850   2.20030   2.20198   2.20262   2.20468
 Alpha virt. eigenvalues --    2.21156   2.21174   2.21663   2.21727   2.21785
 Alpha virt. eigenvalues --    2.21892   2.22676   2.22729   2.23308   2.23352
 Alpha virt. eigenvalues --    2.24391   2.24426   2.24965   2.25012   2.26283
 Alpha virt. eigenvalues --    2.26465   2.26775   2.27026   2.27087   2.27225
 Alpha virt. eigenvalues --    2.28130   2.28352   2.29264   2.29462   2.29724
 Alpha virt. eigenvalues --    2.29905   2.30443   2.30650   2.30853   2.31072
 Alpha virt. eigenvalues --    2.31158   2.31215   2.32120   2.32250   2.33123
 Alpha virt. eigenvalues --    2.33263   2.33453   2.33495   2.34138   2.34153
 Alpha virt. eigenvalues --    2.35317   2.35348   2.35787   2.35944   2.36354
 Alpha virt. eigenvalues --    2.36354   2.36450   2.36615   2.37656   2.37682
 Alpha virt. eigenvalues --    2.38258   2.38392   2.38819   2.38844   2.39602
 Alpha virt. eigenvalues --    2.39687   2.40179   2.40268   2.40473   2.40859
 Alpha virt. eigenvalues --    2.41241   2.41256   2.41685   2.41700   2.42018
 Alpha virt. eigenvalues --    2.42146   2.42821   2.42946   2.43081   2.43495
 Alpha virt. eigenvalues --    2.43993   2.44154   2.44721   2.44823   2.44895
 Alpha virt. eigenvalues --    2.45008   2.45537   2.45585   2.46296   2.46302
 Alpha virt. eigenvalues --    2.46465   2.46507   2.46784   2.46815   2.47242
 Alpha virt. eigenvalues --    2.47380   2.47706   2.47893   2.49310   2.49393
 Alpha virt. eigenvalues --    2.49890   2.50069   2.50466   2.50549   2.51104
 Alpha virt. eigenvalues --    2.51284   2.51623   2.51873   2.52416   2.52424
 Alpha virt. eigenvalues --    2.52798   2.53188   2.53913   2.53978   2.54149
 Alpha virt. eigenvalues --    2.54281   2.54778   2.54808   2.55512   2.55671
 Alpha virt. eigenvalues --    2.57858   2.58087   2.58639   2.58912   2.60186
 Alpha virt. eigenvalues --    2.60317   2.60601   2.60946   2.61705   2.61828
 Alpha virt. eigenvalues --    2.62441   2.62522   2.62943   2.63132   2.63926
 Alpha virt. eigenvalues --    2.64242   2.64247   2.64410   2.65071   2.65102
 Alpha virt. eigenvalues --    2.65773   2.65878   2.66773   2.66816   2.66903
 Alpha virt. eigenvalues --    2.67073   2.67901   2.67985   2.68819   2.68846
 Alpha virt. eigenvalues --    2.69005   2.69040   2.69385   2.69600   2.69988
 Alpha virt. eigenvalues --    2.70136   2.70967   2.71076   2.71893   2.72034
 Alpha virt. eigenvalues --    2.72491   2.72632   2.72744   2.72793   2.73274
 Alpha virt. eigenvalues --    2.73275   2.73466   2.73492   2.74495   2.74504
 Alpha virt. eigenvalues --    2.74959   2.75056   2.76514   2.76583   2.77064
 Alpha virt. eigenvalues --    2.77212   2.77447   2.77606   2.78187   2.78288
 Alpha virt. eigenvalues --    2.78682   2.78712   2.79122   2.79158   2.80260
 Alpha virt. eigenvalues --    2.80333   2.80564   2.80689   2.81093   2.81145
 Alpha virt. eigenvalues --    2.81918   2.81989   2.82327   2.82332   2.83728
 Alpha virt. eigenvalues --    2.83759   2.83840   2.83899   2.84515   2.84533
 Alpha virt. eigenvalues --    2.84867   2.84876   2.85661   2.85681   2.86645
 Alpha virt. eigenvalues --    2.86979   2.87168   2.87574   2.88148   2.88228
 Alpha virt. eigenvalues --    2.88494   2.88606   2.88859   2.88921   2.90485
 Alpha virt. eigenvalues --    2.90657   2.91056   2.91184   2.93140   2.93323
 Alpha virt. eigenvalues --    2.93765   2.94189   2.94553   2.94555   2.95352
 Alpha virt. eigenvalues --    2.95486   2.95833   2.96168   2.96358   2.96430
 Alpha virt. eigenvalues --    2.96863   2.97147   2.97794   2.98019   2.98198
 Alpha virt. eigenvalues --    2.98351   2.98362   2.98573   2.98581   2.98774
 Alpha virt. eigenvalues --    2.98874   2.98911   2.99584   2.99780   3.00007
 Alpha virt. eigenvalues --    3.00010   3.00204   3.00328   3.00444   3.00998
 Alpha virt. eigenvalues --    3.01888   3.01986   3.02023   3.02121   3.02701
 Alpha virt. eigenvalues --    3.02813   3.02961   3.03319   3.03323   3.03721
 Alpha virt. eigenvalues --    3.04049   3.04165   3.04419   3.04430   3.04541
 Alpha virt. eigenvalues --    3.04711   3.05298   3.05339   3.06106   3.06147
 Alpha virt. eigenvalues --    3.06789   3.06936   3.07909   3.08144   3.09331
 Alpha virt. eigenvalues --    3.09389   3.09684   3.10431   3.10445   3.10744
 Alpha virt. eigenvalues --    3.11334   3.11448   3.11864   3.11924   3.12181
 Alpha virt. eigenvalues --    3.12309   3.13267   3.13637   3.13648   3.13669
 Alpha virt. eigenvalues --    3.14056   3.14465   3.15925   3.15953   3.17247
 Alpha virt. eigenvalues --    3.17506   3.17857   3.18077   3.19016   3.19121
 Alpha virt. eigenvalues --    3.22267   3.22585   3.23932   3.24427   3.24647
 Alpha virt. eigenvalues --    3.25180   3.26491   3.26645   3.27384   3.27608
 Alpha virt. eigenvalues --    3.29059   3.29209   3.31367   3.31511   3.33175
 Alpha virt. eigenvalues --    3.33409   3.40247   3.40584   3.42802   3.42813
 Alpha virt. eigenvalues --    3.48640   3.48684   3.50013   3.50273   3.50828
 Alpha virt. eigenvalues --    3.51466   3.56542   3.56991   3.59094   3.59324
 Alpha virt. eigenvalues --    3.62502   3.62822   3.66093   3.66187   3.67144
 Alpha virt. eigenvalues --    3.67530   3.73232   3.74007   3.76022   3.76665
          Condensed to atoms (all electrons):
 Mulliken charges:
               1
     1  Mg   0.838650
     2  C   -0.003086
     3  C   -0.094125
     4  C   -0.045801
     5  C   -0.063922
     6  N   -0.256811
     7  C   -0.052515
     8  C   -0.014000
     9  C   -0.087012
    10  C    0.046355
    11  C    0.104780
    12  C    0.053448
    13  C   -0.071783
    14  H    0.035869
    15  N   -0.433177
    16  C    0.168483
    17  C   -0.177079
    18  C   -0.003909
    19  C    0.148722
    20  C    0.110153
    21  C    0.012334
    22  O   -0.249404
    23  C    0.062449
    24  N   -0.341142
    25  C    0.041299
    26  C   -0.028251
    27  C   -0.023987
    28  C    0.074814
    29  C    0.076123
    30  C    0.035108
    31  C   -0.004544
    32  N   -0.310406
    33  C    0.080289
    34  C   -0.169887
    35  C    0.008234
    36  C    0.082872
    37  C    0.127372
    38  C    0.045899
    39  O   -0.188799
    40  C   -0.005259
    41  C    0.212849
    42  O   -0.257496
    43  O   -0.304656
    44  C    0.157840
    45  H   -0.017495
    46  H   -0.016640
    47  H   -0.041477
    48  H    0.000900
    49  H   -0.003962
    50  H    0.025469
    51  H    0.016525
    52  H    0.016758
    53  H    0.011285
    54  H    0.043855
    55  H    0.017934
    56  H    0.018137
    57  H    0.005934
    58  H    0.026964
    59  H    0.039645
    60  H    0.037411
    61  H    0.035805
    62  H    0.031468
    63  H    0.016751
    64  H    0.009517
    65  H    0.023428
    66  H    0.012531
    67  H    0.004830
    68  H    0.006667
    69  H    0.004666
    70  H    0.009041
    71  H    0.018207
    72  H    0.028692
    73  H    0.047192
    74  H    0.009156
    75  H    0.046071
    76  H    0.035213
    77  H    0.042872
    78  H    0.046550
    79  H    0.053207
    80  Mg   0.837970
    81  C   -0.016792
    82  C   -0.087533
    83  C   -0.045582
    84  C   -0.064944
    85  N   -0.254622
    86  C   -0.049682
    87  C   -0.015107
    88  C   -0.090504
    89  C    0.045693
    90  C    0.114193
    91  C    0.062477
    92  C   -0.077882
    93  H    0.034601
    94  N   -0.423548
    95  C    0.162867
    96  C   -0.174314
    97  C   -0.007940
    98  C    0.152258
    99  C    0.099242
   100  C    0.015515
   101  O   -0.253486
   102  C    0.061215
   103  N   -0.350051
   104  C    0.037585
   105  C   -0.019802
   106  C   -0.034781
   107  C    0.088917
   108  C    0.073725
   109  C    0.034807
   110  C   -0.007633
   111  N   -0.324098
   112  C    0.078418
   113  C   -0.163240
   114  C    0.002253
   115  C    0.096144
   116  C    0.131499
   117  C    0.042312
   118  O   -0.188052
   119  C    0.000975
   120  C    0.211207
   121  O   -0.251115
   122  O   -0.305548
   123  C    0.152079
   124  H   -0.018941
   125  H   -0.015847
   126  H   -0.040677
   127  H   -0.000517
   128  H   -0.004189
   129  H    0.022464
   130  H    0.014886
   131  H    0.017266
   132  H    0.013844
   133  H    0.037471
   134  H    0.021046
   135  H    0.019738
   136  H    0.009200
   137  H    0.026417
   138  H    0.039644
   139  H    0.038407
   140  H    0.036105
   141  H    0.033890
   142  H    0.014200
   143  H    0.012287
   144  H    0.024723
   145  H    0.011827
   146  H    0.005450
   147  H    0.005956
   148  H    0.003566
   149  H    0.010816
   150  H    0.017778
   151  H    0.030267
   152  H    0.045842
   153  H    0.008330
   154  H    0.046999
   155  H    0.035200
   156  H    0.043789
   157  H    0.049626
   158  H    0.053441
 Sum of Mulliken charges =  -0.00000
 Mulliken charges with hydrogens summed into heavy atoms:
               1
     1  Mg   0.838650
     2  C   -0.003086
     3  C   -0.111620
     4  C   -0.062441
     5  C   -0.105399
     6  N   -0.256811
     7  C   -0.052515
     8  C   -0.013100
     9  C   -0.090974
    10  C    0.046355
    11  C    0.163532
    12  C    0.108588
    13  C    0.000156
    15  N   -0.433177
    16  C    0.168483
    17  C   -0.177079
    18  C   -0.003909
    19  C    0.148722
    20  C    0.182696
    21  C    0.012334
    22  O   -0.249404
    23  C    0.167134
    24  N   -0.341142
    25  C    0.041299
    26  C   -0.011501
    27  C   -0.014470
    28  C    0.074814
    29  C    0.116913
    30  C    0.046441
    31  C    0.051396
    32  N   -0.310406
    33  C    0.080289
    34  C   -0.169887
    35  C    0.008234
    36  C    0.082872
    37  C    0.229790
    38  C    0.045899
    39  O   -0.188799
    40  C    0.029954
    41  C    0.212849
    42  O   -0.257496
    43  O   -0.304656
    44  C    0.300469
    80  Mg   0.837970
    81  C   -0.016792
    82  C   -0.106473
    83  C   -0.061430
    84  C   -0.105620
    85  N   -0.254622
    86  C   -0.049682
    87  C   -0.015624
    88  C   -0.094693
    89  C    0.045693
    90  C    0.168808
    91  C    0.113792
    92  C   -0.002498
    94  N   -0.423548
    95  C    0.162867
    96  C   -0.174314
    97  C   -0.007940
    98  C    0.152258
    99  C    0.174503
   100  C    0.015515
   101  O   -0.253486
   102  C    0.169616
   103  N   -0.350051
   104  C    0.037585
   105  C   -0.005602
   106  C   -0.022494
   107  C    0.088917
   108  C    0.115725
   109  C    0.044329
   110  C    0.051229
   111  N   -0.324098
   112  C    0.078418
   113  C   -0.163240
   114  C    0.002253
   115  C    0.096144
   116  C    0.232669
   117  C    0.042312
   118  O   -0.188052
   119  C    0.036175
   120  C    0.211207
   121  O   -0.251115
   122  O   -0.305548
   123  C    0.298935
 Electronic spatial extent (au):  <R**2>=         193543.3362
 Charge=             -0.0000 electrons
 Dipole moment (field-independent basis, Debye):
    X=              4.5000    Y=              4.1247    Z=              1.5699  Tot=              6.3030
 Quadrupole moment (field-independent basis, Debye-Ang):
   XX=           -519.1982   YY=           -513.2920   ZZ=           -485.6458
   XY=            -15.7857   XZ=             48.9016   YZ=             11.5543
 Traceless Quadrupole moment (field-independent basis, Debye-Ang):
   XX=            -13.1529   YY=             -7.2466   ZZ=             20.3995
   XY=            -15.7857   XZ=             48.9016   YZ=             11.5543
 Octapole moment (field-independent basis, Debye-Ang**2):
  XXX=            898.7138  YYY=            254.5018  ZZZ=            170.1970  XYY=            355.8732
  XXY=            416.5471  XXZ=            157.6294  XZZ=           -362.6698  YZZ=            -94.2283
  YYZ=           -287.9235  XYZ=            377.8971
 Hexadecapole moment (field-independent basis, Debye-Ang**3):
 XXXX=        -201122.1952 YYYY=         -35094.3598 ZZZZ=         -30454.9987 XXXY=           -881.0052
 XXXZ=           3226.1187 YYYX=            -25.0257 YYYZ=           -725.2545 ZZZX=           2104.3037
 ZZZY=            898.1581 XXYY=         -39284.7000 XXZZ=         -36125.8149 YYZZ=         -11277.7863
 XXYZ=           1015.0389 YYXZ=            268.3414 ZZXY=           1217.4167
 N-N= 1.373330839011D+04 E-N=-3.694752630076D+04  KE= 4.028802030138D+03
 Leave Link  601 at Sat Sep  4 11:59:07 2021, MaxMem= 23488102400 cpu:              18.2 elap:               0.9
 (Enter /sw/apps/gaussian-16.0/g16/l9999.exe)
 1\1\GINC-BP1-COMPUTE00098\SP\RCAM-B3LYP TD-FC\def2SVP\C68H72Mg2N8O8\OF
 15641\04-Sep-2021\0\\#p cam-b3lyp/Def2SVP td=(nstates=5)\\TDDFT excite
 d states in gaussian\\0,1\Mg,0,0.,0.,0.\C,0,-0.217,-2.218,2.801\C,0,-1
 .255,2.442,2.026\C,0,-0.245,1.85,-2.564\C,0,0.146,-2.824,-2.037\N,0,-0
 .617,-0.009,2.126\C,0,-0.594,-0.908,3.105\C,0,-0.936,-0.309,4.502\C,0,
 -1.773,0.964,4.032\C,0,-1.155,1.168,2.66\C,0,-3.263,0.685,3.863\C,0,0.
 345,0.11,5.299\C,0,0.124,0.397,6.787\H,0,1.168,0.033,7.733\N,0,-0.185,
 1.961,-0.152\C,0,-0.703,2.8,0.777\C,0,-0.62,4.156,0.193\C,0,-0.187,4.0
 15,-1.225\C,0,-0.214,2.583,-1.38\C,0,-0.887,5.406,0.974\C,0,0.181,5.01
 3,-2.277\O,0,0.303,4.69,-3.508\C,0,0.31,6.414,-1.837\N,0,-0.265,-0.413
 ,-2.029\C,0,-0.279,0.569,-2.937\C,0,-0.196,0.024,-4.332\C,0,0.124,-1.5
 33,-4.18\C,0,0.086,-1.632,-2.635\C,0,-1.451,0.205,-5.197\C,0,1.373,-2.
 07,-4.923\C,0,2.626,-1.49,-4.306\N,0,0.15,-2.144,0.303\C,0,0.173,-3.13
 6,-0.688\C,0,0.173,-4.438,0.004\C,0,0.133,-4.111,1.358\C,0,0.083,-2.69
 5,1.502\C,0,0.149,-5.715,-0.623\C,0,0.096,-4.629,2.716\O,0,0.208,-5.74
 7,3.221\C,0,-0.255,-3.428,3.701\C,0,0.717,-3.482,4.848\O,0,1.931,-3.25
 5,4.669\O,0,0.038,-3.556,6.003\C,0,0.943,-3.583,7.183\H,0,-1.859,3.22,
 2.497\H,0,-0.218,2.453,-3.474\H,0,0.276,-3.747,-2.605\H,0,-1.554,-0.94
 9,5.132\H,0,-1.585,1.831,4.665\H,0,-3.484,-0.377,3.969\H,0,-3.511,1.02
 7,2.858\H,0,-3.852,1.301,4.543\H,0,0.669,1.096,4.966\H,0,1.13,-0.639,5
 .189\H,0,-0.844,0.026,7.125\H,0,0.062,1.477,6.921\H,0,-1.344,5.186,1.9
 38\H,0,-1.651,5.963,0.432\H,0,0.007,6.02,1.084\H,0,-0.635,6.744,-1.405
 \H,0,0.665,6.97,-2.704\H,0,1.048,6.466,-1.036\H,0,0.608,0.501,-4.891\H
 ,0,-0.692,-2.156,-4.547\H,0,-1.267,0.74,-6.129\H,0,-2.204,0.714,-4.596
 \H,0,-1.967,-0.72,-5.453\H,0,1.356,-1.759,-5.967\H,0,1.452,-3.157,-4.9
 02\H,0,2.714,-0.522,-4.798\H,0,3.487,-2.121,-4.529\H,0,2.495,-1.303,-3
 .24\H,0,0.867,-6.333,-0.084\H,0,0.404,-5.642,-1.68\H,0,-0.891,-5.999,-
 0.463\H,0,-1.283,-3.581,4.028\H,0,0.698,-4.478,7.755\H,0,0.833,-2.619,
 7.68\H,0,2.,-3.754,6.976\Mg,0,15.77395,1.41273,1.20066\C,0,15.97719,-0
 .7231,-1.67614\C,0,15.00244,-1.36541,3.02311\C,0,15.14664,3.32007,3.65
 748\C,0,15.42942,4.10005,-0.99145\N,0,15.54945,-0.71343,0.63384\C,0,15
 .7111,-1.41645,-0.47701\C,0,15.65972,-2.95501,-0.27769\C,0,14.79542,-2
 .99349,1.07522\C,0,15.16044,-1.62119,1.63757\C,0,13.29592,-3.02602,0.8
 307\C,0,17.0842,-3.57836,-0.0672\C,0,17.14095,-5.1038,-0.17482\H,0,18.
 32972,-5.71643,-0.76132\N,0,15.64669,1.00962,3.1397\C,0,15.34527,-0.17
 774,3.70592\C,0,15.35972,0.05405,5.15858\C,0,15.53214,1.5125,5.39919\C
 ,0,15.42532,2.01751,4.04506\C,0,15.29764,-1.06143,6.16122\C,0,15.74372
 ,2.32043,6.64365\O,0,15.62959,3.59706,6.64517\C,0,15.99643,1.56603,7.8
 7998\N,0,15.13823,3.38823,1.32561\C,0,14.99345,3.99381,2.51735\C,0,14.
 7971,5.48201,2.3527\C,0,15.08288,5.78484,0.80861\C,0,15.31811,4.34305,
 0.30729\C,0,13.41519,6.01629,2.72855\C,0,16.155,6.86251,0.48948\C,0,17
 .52187,6.3704,0.90766\N,0,15.89479,1.70149,-0.93711\C,0,15.69182,2.904
 53,-1.64816\C,0,15.76589,2.57767,-3.08694\C,0,15.98565,1.19222,-3.1136
 5\C,0,16.02425,0.68776,-1.78567\C,0,15.58823,3.49696,-4.15908\C,0,16.1
 8315,0.04009,-3.96353\O,0,16.33275,-0.13212,-5.17253\C,0,16.06031,-1.2
 7123,-3.07373\C,0,17.22062,-2.16872,-3.40647\O,0,18.38467,-1.82223,-3.
 13903\O,0,16.75257,-3.37249,-3.78364\C,0,17.86634,-4.30127,-4.11335\H,
 0,14.53243,-2.13051,3.64165\H,0,15.03208,4.03987,4.47126\H,0,15.42985,
 4.89828,-1.73676\H,0,15.14648,-3.49783,-1.06235\H,0,15.13812,-3.78166,
 1.74059\H,0,13.05525,-2.8982,-0.21423\H,0,12.88478,-2.21378,1.41574\H,
 0,12.86634,-3.94292,1.24431\H,0,17.3783,-3.45302,0.98282\H,0,17.79462,
 -3.14182,-0.74201\H,0,16.23192,-5.51925,-0.6265\H,0,17.1543,-5.52261,0
 .83435\H,0,15.00777,-2.00922,5.69106\H,0,14.47156,-0.83273,6.84324\H,0
 ,16.21806,-1.15839,6.74096\H,0,15.1612,0.89663,8.07169\H,0,16.21102,2.
 31758,8.64222\H,0,16.87855,0.93362,7.72982\H,0,15.50641,6.03479,2.9563
 6\H,0,14.1844,6.15424,0.29276\H,0,13.44842,6.8072,3.50149\H,0,12.80673
 ,5.18554,3.06047\H,0,12.8321,6.41283,1.89911\H,0,15.96236,7.7707,1.065
 89\H,0,16.1845,7.14571,-0.55738\H,0,17.55205,6.60407,1.97611\H,0,18.30
 228,6.90055,0.3655\H,0,17.59615,5.28145,0.80616\H,0,16.35904,3.27965,-
 4.88649\H,0,15.64582,4.52696,-3.81331\H,0,14.57875,3.22799,-4.48136\H,
 0,15.10223,-1.73713,-3.3074\H,0,17.69044,-4.6624,-5.13136\H,0,17.8745,
 -5.05671,-3.30527\H,0,18.85992,-3.87893,-4.2075\\Version=ES64L-G16RevA
 .03\State=1-A\HF=-4069.8119073\RMSD=4.665e-09\PG=C01 [X(C68H72Mg2N8O8)
 ]\\@


 THE PROMISED LAND ALWAYS LIES ON THE OTHER SIDE OF A WILDERNESS.

                         -- HAVELOCK ELLIS
 Job cpu time:       0 days 11 hours  6 minutes 21.8 seconds.
 Elapsed time:       0 days  0 hours 28 minutes 22.0 seconds.
 File lengths (MBytes):  RWF=  13225 Int=      0 D2E=      0 Chk=    574 Scr=      1
 Normal termination of Gaussian 16 at Sat Sep  4 11:59:08 2021.
