 Entering Gaussian System, Link 0=g16
 Initial command:
 /sw/apps/gaussian-16.0/g16/l1.exe "/tmp/Gau-159314.inp" -scrdir="/tmp/"
 Entering Link 1 = /sw/apps/gaussian-16.0/g16/l1.exe PID=    159315.
  
 Copyright (c) 1988,1990,1992,1993,1995,1998,2003,2009,2016,
            Gaussian, Inc.  All Rights Reserved.
  
 This is part of the Gaussian(R) 16 program.  It is based on
 the Gaussian(R) 09 system (copyright 2009, Gaussian, Inc.),
 the Gaussian(R) 03 system (copyright 2003, Gaussian, Inc.),
 the Gaussian(R) 98 system (copyright 1998, Gaussian, Inc.),
 the Gaussian(R) 94 system (copyright 1995, Gaussian, Inc.),
 the Gaussian 92(TM) system (copyright 1992, Gaussian, Inc.),
 the Gaussian 90(TM) system (copyright 1990, Gaussian, Inc.),
 the Gaussian 88(TM) system (copyright 1988, Gaussian, Inc.),
 the Gaussian 86(TM) system (copyright 1986, Carnegie Mellon
 University), and the Gaussian 82(TM) system (copyright 1983,
 Carnegie Mellon University). Gaussian is a federally registered
 trademark of Gaussian, Inc.
  
 This software contains proprietary and confidential information,
 including trade secrets, belonging to Gaussian, Inc.
  
 This software is provided under written license and may be
 used, copied, transmitted, or stored only in accord with that
 written license.
  
 The following legend is applicable only to US Government
 contracts under FAR:
  
                    RESTRICTED RIGHTS LEGEND
  
 Use, reproduction and disclosure by the US Government is
 subject to restrictions as set forth in subparagraphs (a)
 and (c) of the Commercial Computer Software - Restricted
 Rights clause in FAR 52.227-19.
  
 Gaussian, Inc.
 340 Quinnipiac St., Bldg. 40, Wallingford CT 06492
  
  
 ---------------------------------------------------------------
 Warning -- This program may not be used in any manner that
 competes with the business of Gaussian, Inc. or will provide
 assistance to any competitor of Gaussian, Inc.  The licensee
 of this program is prohibited from giving any competitor of
 Gaussian, Inc. access to this program.  By using this program,
 the user acknowledges that Gaussian, Inc. is engaged in the
 business of creating and licensing software in the field of
 computational chemistry and represents and warrants to the
 licensee that it is not a competitor of Gaussian, Inc. and that
 it will not use this program in any manner prohibited above.
 ---------------------------------------------------------------
  

 Cite this work as:
 Gaussian 16, Revision A.03,
 M. J. Frisch, G. W. Trucks, H. B. Schlegel, G. E. Scuseria, 
 M. A. Robb, J. R. Cheeseman, G. Scalmani, V. Barone, 
 G. A. Petersson, H. Nakatsuji, X. Li, M. Caricato, A. V. Marenich, 
 J. Bloino, B. G. Janesko, R. Gomperts, B. Mennucci, H. P. Hratchian, 
 J. V. Ortiz, A. F. Izmaylov, J. L. Sonnenberg, D. Williams-Young, 
 F. Ding, F. Lipparini, F. Egidi, J. Goings, B. Peng, A. Petrone, 
 T. Henderson, D. Ranasinghe, V. G. Zakrzewski, J. Gao, N. Rega, 
 G. Zheng, W. Liang, M. Hada, M. Ehara, K. Toyota, R. Fukuda, 
 J. Hasegawa, M. Ishida, T. Nakajima, Y. Honda, O. Kitao, H. Nakai, 
 T. Vreven, K. Throssell, J. A. Montgomery, Jr., J. E. Peralta, 
 F. Ogliaro, M. J. Bearpark, J. J. Heyd, E. N. Brothers, K. N. Kudin, 
 V. N. Staroverov, T. A. Keith, R. Kobayashi, J. Normand, 
 K. Raghavachari, A. P. Rendell, J. C. Burant, S. S. Iyengar, 
 J. Tomasi, M. Cossi, J. M. Millam, M. Klene, C. Adamo, R. Cammi, 
 J. W. Ochterski, R. L. Martin, K. Morokuma, O. Farkas, 
 J. B. Foresman, and D. J. Fox, Gaussian, Inc., Wallingford CT, 2016.
 
 ******************************************
 Gaussian 16:  ES64L-G16RevA.03 25-Dec-2016
                11-Sep-2021 
 ******************************************
 %nproc=24
 Will use up to   24 processors via shared memory.
 %mem=175gb
 -----------------------------------
 #p cam-b3lyp/Def2SVP td=(nstates=5)
 -----------------------------------
 1/38=1,172=1/1;
 2/12=2,17=6,18=5,40=1/2;
 3/5=43,7=101,11=9,25=1,30=1,74=-40/1,2,3,8;
 4//1;
 5/5=2,38=5/2;
 8/6=1,10=1,108=5/1;
 9/41=5,42=1,70=2/14;
 6/7=2,8=2,9=2,10=2/1;
 99/5=1,9=1/99;
 Leave Link    1 at Sat Sep 11 20:32:44 2021, MaxMem= 23488102400 cpu:               0.6 elap:               0.0
 (Enter /sw/apps/gaussian-16.0/g16/l101.exe)
 --------------------------------
 TDDFT excited states in gaussian
 --------------------------------
 Symbolic Z-matrix:
 Charge =  0 Multiplicity = 1
 Mg                    0.        0.        0. 
 C                    -0.217    -2.218     2.801 
 C                    -1.255     2.442     2.026 
 C                    -0.245     1.85     -2.564 
 C                     0.146    -2.824    -2.037 
 N                    -0.617    -0.009     2.126 
 C                    -0.594    -0.908     3.105 
 C                    -0.936    -0.309     4.502 
 C                    -1.773     0.964     4.032 
 C                    -1.155     1.168     2.66 
 C                    -3.263     0.685     3.863 
 C                     0.345     0.11      5.299 
 C                     0.124     0.397     6.787 
 H                     1.168     0.033     7.733 
 N                    -0.185     1.961    -0.152 
 C                    -0.703     2.8       0.777 
 C                    -0.62      4.156     0.193 
 C                    -0.187     4.015    -1.225 
 C                    -0.214     2.583    -1.38 
 C                    -0.887     5.406     0.974 
 C                     0.181     5.013    -2.277 
 O                     0.303     4.69     -3.508 
 C                     0.31      6.414    -1.837 
 N                    -0.265    -0.413    -2.029 
 C                    -0.279     0.569    -2.937 
 C                    -0.196     0.024    -4.332 
 C                     0.124    -1.533    -4.18 
 C                     0.086    -1.632    -2.635 
 C                    -1.451     0.205    -5.197 
 C                     1.373    -2.07     -4.923 
 C                     2.626    -1.49     -4.306 
 N                     0.15     -2.144     0.303 
 C                     0.173    -3.136    -0.688 
 C                     0.173    -4.438     0.004 
 C                     0.133    -4.111     1.358 
 C                     0.083    -2.695     1.502 
 C                     0.149    -5.715    -0.623 
 C                     0.096    -4.629     2.716 
 O                     0.208    -5.747     3.221 
 C                    -0.255    -3.428     3.701 
 C                     0.717    -3.482     4.848 
 O                     1.931    -3.255     4.669 
 O                     0.038    -3.556     6.003 
 C                     0.943    -3.583     7.183 
 H                    -1.859     3.22      2.497 
 H                    -0.218     2.453    -3.474 
 H                     0.276    -3.747    -2.605 
 H                    -1.554    -0.949     5.132 
 H                    -1.585     1.831     4.665 
 H                    -3.484    -0.377     3.969 
 H                    -3.511     1.027     2.858 
 H                    -3.852     1.301     4.543 
 H                     0.669     1.096     4.966 
 H                     1.13     -0.639     5.189 
 H                    -0.844     0.026     7.125 
 H                     0.062     1.477     6.921 
 H                    -1.344     5.186     1.938 
 H                    -1.651     5.963     0.432 
 H                     0.007     6.02      1.084 
 H                    -0.635     6.744    -1.405 
 H                     0.665     6.97     -2.704 
 H                     1.048     6.466    -1.036 
 H                     0.608     0.501    -4.891 
 H                    -0.692    -2.156    -4.547 
 H                    -1.267     0.74     -6.129 
 H                    -2.204     0.714    -4.596 
 H                    -1.967    -0.72     -5.453 
 H                     1.356    -1.759    -5.967 
 H                     1.452    -3.157    -4.902 
 H                     2.714    -0.522    -4.798 
 H                     3.487    -2.121    -4.529 
 H                     2.495    -1.303    -3.24 
 H                     0.867    -6.333    -0.084 
 H                     0.404    -5.642    -1.68 
 H                    -0.891    -5.999    -0.463 
 H                    -1.283    -3.581     4.028 
 H                     0.698    -4.478     7.755 
 H                     0.833    -2.619     7.68 
 H                     2.       -3.754     6.976 
 Mg                    15.7635   1.42169   1.1877 
 C                     17.50366  -1.15152  -0.60938 
 C                     17.57091   3.69008  -0.60739 
 C                     14.58277   3.69517   3.05976 
 C                     14.96362  -0.98299   3.58006 
 N                     17.3069   1.17801  -0.3778 
 C                     17.84301   0.15336  -1.02358 
 C                     18.73476   0.54939  -2.23085 
 C                     19.12406   2.03604  -1.76481 
 C                     17.91154   2.34278  -0.88823 
 C                     20.3683   2.08727  -0.89385 
 C                     17.93913   0.56121  -3.5832 
 C                     18.8086   0.63614  -4.84024 
 H                     18.37166  -0.08462  -6.03275 
 N                     15.65726   3.38441   0.91378 
 C                     16.45596   4.14141   0.13257 
 C                     15.97955   5.52426   0.29046 
 C                     14.94013   5.54359   1.35533 
 C                     15.03669   4.18225   1.84269 
 C                     16.45049   6.65171  -0.58159 
 C                     14.02136   6.61423   1.86107 
 O                     13.3658   6.47797   2.95401 
 C                     13.98315   7.86427   1.08813 
 N                     15.07936   1.41757   3.15093 
 C                     14.56852   2.52994   3.70734 
 C                     13.8915   2.2211    5.02137 
 C                     13.84282   0.62534   5.11496 
 C                     14.61374   0.2725    3.824 
 C                     14.57265   2.78326   6.26893 
 C                     12.45072  -0.02399   5.34541 
 C                     11.57634   0.18464   4.12997 
 N                     15.98656  -0.71904   1.37631 
 C                     15.60509  -1.52307   2.47271 
 C                     16.06472  -2.89737   2.18554 
 C                     16.70705  -2.79214   0.94263 
 C                     16.66933  -1.44335   0.49673 
 C                     15.91096  -4.02238   3.04392 
 C                     17.41772  -3.51339  -0.0886 
 O                     17.67609  -4.69762  -0.29972 
 C                     18.07588  -2.45979  -1.08015 
 C                     17.76955  -2.89245  -2.4878 
 O                     16.59874  -2.89676  -2.90707 
 O                     18.92211  -3.02033  -3.17015 
 C                     18.66966  -3.43728  -4.57523 
 H                     18.24307   4.47736  -0.94982 
 H                     14.06764   4.41949   3.69496 
 H                     14.66726  -1.80852   4.2307 
 H                     19.62984  -0.04924  -2.35015 
 H                     19.16505   2.71718  -2.61081 
 H                     20.71892   1.09958  -0.63369 
 H                     20.0826   2.63373  -0.00458 
 H                     21.14398   2.68628  -1.37948 
 H                     17.39809   1.51207  -3.67203 
 H                     17.28375  -0.28557  -3.64708 
 H                     19.86253   0.42114  -4.62586 
 H                     18.81308   1.6686   -5.19804 
 H                     17.33597   6.36742  -1.1634 
 H                     16.80663   7.44444   0.08521 
 H                     15.65731   7.05324  -1.21587 
 H                     14.98139   8.29345   1.04597 
 H                     13.20445   8.47181   1.55332 
 H                     13.69783   7.62921   0.05664 
 H                     12.87878   2.60493   5.03423 
 H                     14.44555   0.24782   5.95403 
 H                     13.91005   3.43081   6.87367 
 H                     15.45619   3.32599   5.96018 
 H                     14.98476   2.03699   6.94601 
 H                     11.9406   0.46052   6.18159 
 H                     12.50044  -1.08436   5.56929 
 H                     11.17384   1.19013   4.28517 
 H                     10.78166  -0.55798   4.09773 
 H                     12.17629   0.20768   3.21281 
 H                     15.60161  -4.85021   2.41982 
 H                     15.18702  -3.82529   3.83185 
 H                     16.92846  -4.11056   3.43404 
 H                     19.14795  -2.44687  -0.87996 
 H                     19.24867  -4.35     -4.74659 
 H                     18.92011  -2.5576   -5.19748 
 H                     17.66975  -3.77073  -4.82712 
 
 ITRead=  0  0  0  0  0  0  0  0  0  0  0  0  0  0  0  0  0  0  0  0
 ITRead=  0  0  0  0  0  0  0  0  0  0  0  0  0  0  0  0  0  0  0  0
 ITRead=  0  0  0  0  0  0  0  0  0  0  0  0  0  0  0  0  0  0  0  0
 ITRead=  0  0  0  0  0  0  0  0  0  0  0  0  0  0  0  0  0  0  0  0
 ITRead=  0  0  0  0  0  0  0  0  0  0  0  0  0  0  0  0  0  0  0  0
 ITRead=  0  0  0  0  0  0  0  0  0  0  0  0  0  0  0  0  0  0  0  0
 ITRead=  0  0  0  0  0  0  0  0  0  0  0  0  0  0  0  0  0  0  0  0
 ITRead=  0  0  0  0  0  0  0  0  0  0  0  0  0  0  0  0  0  0
 MicOpt= -1 -1 -1 -1 -1 -1 -1 -1 -1 -1 -1 -1 -1 -1 -1 -1 -1 -1 -1 -1
 MicOpt= -1 -1 -1 -1 -1 -1 -1 -1 -1 -1 -1 -1 -1 -1 -1 -1 -1 -1 -1 -1
 MicOpt= -1 -1 -1 -1 -1 -1 -1 -1 -1 -1 -1 -1 -1 -1 -1 -1 -1 -1 -1 -1
 MicOpt= -1 -1 -1 -1 -1 -1 -1 -1 -1 -1 -1 -1 -1 -1 -1 -1 -1 -1 -1 -1
 MicOpt= -1 -1 -1 -1 -1 -1 -1 -1 -1 -1 -1 -1 -1 -1 -1 -1 -1 -1 -1 -1
 MicOpt= -1 -1 -1 -1 -1 -1 -1 -1 -1 -1 -1 -1 -1 -1 -1 -1 -1 -1 -1 -1
 MicOpt= -1 -1 -1 -1 -1 -1 -1 -1 -1 -1 -1 -1 -1 -1 -1 -1 -1 -1 -1 -1
 MicOpt= -1 -1 -1 -1 -1 -1 -1 -1 -1 -1 -1 -1 -1 -1 -1 -1 -1 -1
 NAtoms=    158 NQM=      158 NQMF=       0 NMMI=      0 NMMIF=      0
                NMic=       0 NMicF=      0.
                    Isotopes and Nuclear Properties:
 (Nuclear quadrupole moments (NQMom) in fm**2, nuclear magnetic moments (NMagM)
  in nuclear magnetons)

  Atom         1           2           3           4           5           6           7           8           9          10
 IAtWgt=          24          12          12          12          12          14          12          12          12          12
 AtmWgt=  23.9850450  12.0000000  12.0000000  12.0000000  12.0000000  14.0030740  12.0000000  12.0000000  12.0000000  12.0000000
 NucSpn=           0           0           0           0           0           2           0           0           0           0
 AtZEff=  -0.0000000  -0.0000000  -0.0000000  -0.0000000  -0.0000000  -0.0000000  -0.0000000  -0.0000000  -0.0000000  -0.0000000
 NQMom=    0.0000000   0.0000000   0.0000000   0.0000000   0.0000000   2.0440000   0.0000000   0.0000000   0.0000000   0.0000000
 NMagM=    0.0000000   0.0000000   0.0000000   0.0000000   0.0000000   0.4037610   0.0000000   0.0000000   0.0000000   0.0000000
 AtZNuc=  12.0000000   6.0000000   6.0000000   6.0000000   6.0000000   7.0000000   6.0000000   6.0000000   6.0000000   6.0000000

  Atom        11          12          13          14          15          16          17          18          19          20
 IAtWgt=          12          12          12           1          14          12          12          12          12          12
 AtmWgt=  12.0000000  12.0000000  12.0000000   1.0078250  14.0030740  12.0000000  12.0000000  12.0000000  12.0000000  12.0000000
 NucSpn=           0           0           0           1           2           0           0           0           0           0
 AtZEff=  -0.0000000  -0.0000000  -0.0000000  -0.0000000  -0.0000000  -0.0000000  -0.0000000  -0.0000000  -0.0000000  -0.0000000
 NQMom=    0.0000000   0.0000000   0.0000000   0.0000000   2.0440000   0.0000000   0.0000000   0.0000000   0.0000000   0.0000000
 NMagM=    0.0000000   0.0000000   0.0000000   2.7928460   0.4037610   0.0000000   0.0000000   0.0000000   0.0000000   0.0000000
 AtZNuc=   6.0000000   6.0000000   6.0000000   1.0000000   7.0000000   6.0000000   6.0000000   6.0000000   6.0000000   6.0000000

  Atom        21          22          23          24          25          26          27          28          29          30
 IAtWgt=          12          16          12          14          12          12          12          12          12          12
 AtmWgt=  12.0000000  15.9949146  12.0000000  14.0030740  12.0000000  12.0000000  12.0000000  12.0000000  12.0000000  12.0000000
 NucSpn=           0           0           0           2           0           0           0           0           0           0
 AtZEff=  -0.0000000  -0.0000000  -0.0000000  -0.0000000  -0.0000000  -0.0000000  -0.0000000  -0.0000000  -0.0000000  -0.0000000
 NQMom=    0.0000000   0.0000000   0.0000000   2.0440000   0.0000000   0.0000000   0.0000000   0.0000000   0.0000000   0.0000000
 NMagM=    0.0000000   0.0000000   0.0000000   0.4037610   0.0000000   0.0000000   0.0000000   0.0000000   0.0000000   0.0000000
 AtZNuc=   6.0000000   8.0000000   6.0000000   7.0000000   6.0000000   6.0000000   6.0000000   6.0000000   6.0000000   6.0000000

  Atom        31          32          33          34          35          36          37          38          39          40
 IAtWgt=          12          14          12          12          12          12          12          12          16          12
 AtmWgt=  12.0000000  14.0030740  12.0000000  12.0000000  12.0000000  12.0000000  12.0000000  12.0000000  15.9949146  12.0000000
 NucSpn=           0           2           0           0           0           0           0           0           0           0
 AtZEff=  -0.0000000  -0.0000000  -0.0000000  -0.0000000  -0.0000000  -0.0000000  -0.0000000  -0.0000000  -0.0000000  -0.0000000
 NQMom=    0.0000000   2.0440000   0.0000000   0.0000000   0.0000000   0.0000000   0.0000000   0.0000000   0.0000000   0.0000000
 NMagM=    0.0000000   0.4037610   0.0000000   0.0000000   0.0000000   0.0000000   0.0000000   0.0000000   0.0000000   0.0000000
 AtZNuc=   6.0000000   7.0000000   6.0000000   6.0000000   6.0000000   6.0000000   6.0000000   6.0000000   8.0000000   6.0000000

  Atom        41          42          43          44          45          46          47          48          49          50
 IAtWgt=          12          16          16          12           1           1           1           1           1           1
 AtmWgt=  12.0000000  15.9949146  15.9949146  12.0000000   1.0078250   1.0078250   1.0078250   1.0078250   1.0078250   1.0078250
 NucSpn=           0           0           0           0           1           1           1           1           1           1
 AtZEff=  -0.0000000  -0.0000000  -0.0000000  -0.0000000  -0.0000000  -0.0000000  -0.0000000  -0.0000000  -0.0000000  -0.0000000
 NQMom=    0.0000000   0.0000000   0.0000000   0.0000000   0.0000000   0.0000000   0.0000000   0.0000000   0.0000000   0.0000000
 NMagM=    0.0000000   0.0000000   0.0000000   0.0000000   2.7928460   2.7928460   2.7928460   2.7928460   2.7928460   2.7928460
 AtZNuc=   6.0000000   8.0000000   8.0000000   6.0000000   1.0000000   1.0000000   1.0000000   1.0000000   1.0000000   1.0000000

  Atom        51          52          53          54          55          56          57          58          59          60
 IAtWgt=           1           1           1           1           1           1           1           1           1           1
 AtmWgt=   1.0078250   1.0078250   1.0078250   1.0078250   1.0078250   1.0078250   1.0078250   1.0078250   1.0078250   1.0078250
 NucSpn=           1           1           1           1           1           1           1           1           1           1
 AtZEff=  -0.0000000  -0.0000000  -0.0000000  -0.0000000  -0.0000000  -0.0000000  -0.0000000  -0.0000000  -0.0000000  -0.0000000
 NQMom=    0.0000000   0.0000000   0.0000000   0.0000000   0.0000000   0.0000000   0.0000000   0.0000000   0.0000000   0.0000000
 NMagM=    2.7928460   2.7928460   2.7928460   2.7928460   2.7928460   2.7928460   2.7928460   2.7928460   2.7928460   2.7928460
 AtZNuc=   1.0000000   1.0000000   1.0000000   1.0000000   1.0000000   1.0000000   1.0000000   1.0000000   1.0000000   1.0000000

  Atom        61          62          63          64          65          66          67          68          69          70
 IAtWgt=           1           1           1           1           1           1           1           1           1           1
 AtmWgt=   1.0078250   1.0078250   1.0078250   1.0078250   1.0078250   1.0078250   1.0078250   1.0078250   1.0078250   1.0078250
 NucSpn=           1           1           1           1           1           1           1           1           1           1
 AtZEff=  -0.0000000  -0.0000000  -0.0000000  -0.0000000  -0.0000000  -0.0000000  -0.0000000  -0.0000000  -0.0000000  -0.0000000
 NQMom=    0.0000000   0.0000000   0.0000000   0.0000000   0.0000000   0.0000000   0.0000000   0.0000000   0.0000000   0.0000000
 NMagM=    2.7928460   2.7928460   2.7928460   2.7928460   2.7928460   2.7928460   2.7928460   2.7928460   2.7928460   2.7928460
 AtZNuc=   1.0000000   1.0000000   1.0000000   1.0000000   1.0000000   1.0000000   1.0000000   1.0000000   1.0000000   1.0000000

  Atom        71          72          73          74          75          76          77          78          79          80
 IAtWgt=           1           1           1           1           1           1           1           1           1          24
 AtmWgt=   1.0078250   1.0078250   1.0078250   1.0078250   1.0078250   1.0078250   1.0078250   1.0078250   1.0078250  23.9850450
 NucSpn=           1           1           1           1           1           1           1           1           1           0
 AtZEff=  -0.0000000  -0.0000000  -0.0000000  -0.0000000  -0.0000000  -0.0000000  -0.0000000  -0.0000000  -0.0000000  -0.0000000
 NQMom=    0.0000000   0.0000000   0.0000000   0.0000000   0.0000000   0.0000000   0.0000000   0.0000000   0.0000000   0.0000000
 NMagM=    2.7928460   2.7928460   2.7928460   2.7928460   2.7928460   2.7928460   2.7928460   2.7928460   2.7928460   0.0000000
 AtZNuc=   1.0000000   1.0000000   1.0000000   1.0000000   1.0000000   1.0000000   1.0000000   1.0000000   1.0000000  12.0000000

  Atom        81          82          83          84          85          86          87          88          89          90
 IAtWgt=          12          12          12          12          14          12          12          12          12          12
 AtmWgt=  12.0000000  12.0000000  12.0000000  12.0000000  14.0030740  12.0000000  12.0000000  12.0000000  12.0000000  12.0000000
 NucSpn=           0           0           0           0           2           0           0           0           0           0
 AtZEff=  -0.0000000  -0.0000000  -0.0000000  -0.0000000  -0.0000000  -0.0000000  -0.0000000  -0.0000000  -0.0000000  -0.0000000
 NQMom=    0.0000000   0.0000000   0.0000000   0.0000000   2.0440000   0.0000000   0.0000000   0.0000000   0.0000000   0.0000000
 NMagM=    0.0000000   0.0000000   0.0000000   0.0000000   0.4037610   0.0000000   0.0000000   0.0000000   0.0000000   0.0000000
 AtZNuc=   6.0000000   6.0000000   6.0000000   6.0000000   7.0000000   6.0000000   6.0000000   6.0000000   6.0000000   6.0000000

  Atom        91          92          93          94          95          96          97          98          99         100
 IAtWgt=          12          12           1          14          12          12          12          12          12          12
 AtmWgt=  12.0000000  12.0000000   1.0078250  14.0030740  12.0000000  12.0000000  12.0000000  12.0000000  12.0000000  12.0000000
 NucSpn=           0           0           1           2           0           0           0           0           0           0
 AtZEff=  -0.0000000  -0.0000000  -0.0000000  -0.0000000  -0.0000000  -0.0000000  -0.0000000  -0.0000000  -0.0000000  -0.0000000
 NQMom=    0.0000000   0.0000000   0.0000000   2.0440000   0.0000000   0.0000000   0.0000000   0.0000000   0.0000000   0.0000000
 NMagM=    0.0000000   0.0000000   2.7928460   0.4037610   0.0000000   0.0000000   0.0000000   0.0000000   0.0000000   0.0000000
 AtZNuc=   6.0000000   6.0000000   1.0000000   7.0000000   6.0000000   6.0000000   6.0000000   6.0000000   6.0000000   6.0000000

  Atom       101         102         103         104         105         106         107         108         109         110
 IAtWgt=          16          12          14          12          12          12          12          12          12          12
 AtmWgt=  15.9949146  12.0000000  14.0030740  12.0000000  12.0000000  12.0000000  12.0000000  12.0000000  12.0000000  12.0000000
 NucSpn=           0           0           2           0           0           0           0           0           0           0
 AtZEff=  -0.0000000  -0.0000000  -0.0000000  -0.0000000  -0.0000000  -0.0000000  -0.0000000  -0.0000000  -0.0000000  -0.0000000
 NQMom=    0.0000000   0.0000000   2.0440000   0.0000000   0.0000000   0.0000000   0.0000000   0.0000000   0.0000000   0.0000000
 NMagM=    0.0000000   0.0000000   0.4037610   0.0000000   0.0000000   0.0000000   0.0000000   0.0000000   0.0000000   0.0000000
 AtZNuc=   8.0000000   6.0000000   7.0000000   6.0000000   6.0000000   6.0000000   6.0000000   6.0000000   6.0000000   6.0000000

  Atom       111         112         113         114         115         116         117         118         119         120
 IAtWgt=          14          12          12          12          12          12          12          16          12          12
 AtmWgt=  14.0030740  12.0000000  12.0000000  12.0000000  12.0000000  12.0000000  12.0000000  15.9949146  12.0000000  12.0000000
 NucSpn=           2           0           0           0           0           0           0           0           0           0
 AtZEff=  -0.0000000  -0.0000000  -0.0000000  -0.0000000  -0.0000000  -0.0000000  -0.0000000  -0.0000000  -0.0000000  -0.0000000
 NQMom=    2.0440000   0.0000000   0.0000000   0.0000000   0.0000000   0.0000000   0.0000000   0.0000000   0.0000000   0.0000000
 NMagM=    0.4037610   0.0000000   0.0000000   0.0000000   0.0000000   0.0000000   0.0000000   0.0000000   0.0000000   0.0000000
 AtZNuc=   7.0000000   6.0000000   6.0000000   6.0000000   6.0000000   6.0000000   6.0000000   8.0000000   6.0000000   6.0000000

  Atom       121         122         123         124         125         126         127         128         129         130
 IAtWgt=          16          16          12           1           1           1           1           1           1           1
 AtmWgt=  15.9949146  15.9949146  12.0000000   1.0078250   1.0078250   1.0078250   1.0078250   1.0078250   1.0078250   1.0078250
 NucSpn=           0           0           0           1           1           1           1           1           1           1
 AtZEff=  -0.0000000  -0.0000000  -0.0000000  -0.0000000  -0.0000000  -0.0000000  -0.0000000  -0.0000000  -0.0000000  -0.0000000
 NQMom=    0.0000000   0.0000000   0.0000000   0.0000000   0.0000000   0.0000000   0.0000000   0.0000000   0.0000000   0.0000000
 NMagM=    0.0000000   0.0000000   0.0000000   2.7928460   2.7928460   2.7928460   2.7928460   2.7928460   2.7928460   2.7928460
 AtZNuc=   8.0000000   8.0000000   6.0000000   1.0000000   1.0000000   1.0000000   1.0000000   1.0000000   1.0000000   1.0000000

  Atom       131         132         133         134         135         136         137         138         139         140
 IAtWgt=           1           1           1           1           1           1           1           1           1           1
 AtmWgt=   1.0078250   1.0078250   1.0078250   1.0078250   1.0078250   1.0078250   1.0078250   1.0078250   1.0078250   1.0078250
 NucSpn=           1           1           1           1           1           1           1           1           1           1
 AtZEff=  -0.0000000  -0.0000000  -0.0000000  -0.0000000  -0.0000000  -0.0000000  -0.0000000  -0.0000000  -0.0000000  -0.0000000
 NQMom=    0.0000000   0.0000000   0.0000000   0.0000000   0.0000000   0.0000000   0.0000000   0.0000000   0.0000000   0.0000000
 NMagM=    2.7928460   2.7928460   2.7928460   2.7928460   2.7928460   2.7928460   2.7928460   2.7928460   2.7928460   2.7928460
 AtZNuc=   1.0000000   1.0000000   1.0000000   1.0000000   1.0000000   1.0000000   1.0000000   1.0000000   1.0000000   1.0000000

  Atom       141         142         143         144         145         146         147         148         149         150
 IAtWgt=           1           1           1           1           1           1           1           1           1           1
 AtmWgt=   1.0078250   1.0078250   1.0078250   1.0078250   1.0078250   1.0078250   1.0078250   1.0078250   1.0078250   1.0078250
 NucSpn=           1           1           1           1           1           1           1           1           1           1
 AtZEff=  -0.0000000  -0.0000000  -0.0000000  -0.0000000  -0.0000000  -0.0000000  -0.0000000  -0.0000000  -0.0000000  -0.0000000
 NQMom=    0.0000000   0.0000000   0.0000000   0.0000000   0.0000000   0.0000000   0.0000000   0.0000000   0.0000000   0.0000000
 NMagM=    2.7928460   2.7928460   2.7928460   2.7928460   2.7928460   2.7928460   2.7928460   2.7928460   2.7928460   2.7928460
 AtZNuc=   1.0000000   1.0000000   1.0000000   1.0000000   1.0000000   1.0000000   1.0000000   1.0000000   1.0000000   1.0000000

  Atom       151         152         153         154         155         156         157         158
 IAtWgt=           1           1           1           1           1           1           1           1
 AtmWgt=   1.0078250   1.0078250   1.0078250   1.0078250   1.0078250   1.0078250   1.0078250   1.0078250
 NucSpn=           1           1           1           1           1           1           1           1
 AtZEff=  -0.0000000  -0.0000000  -0.0000000  -0.0000000  -0.0000000  -0.0000000  -0.0000000  -0.0000000
 NQMom=    0.0000000   0.0000000   0.0000000   0.0000000   0.0000000   0.0000000   0.0000000   0.0000000
 NMagM=    2.7928460   2.7928460   2.7928460   2.7928460   2.7928460   2.7928460   2.7928460   2.7928460
 AtZNuc=   1.0000000   1.0000000   1.0000000   1.0000000   1.0000000   1.0000000   1.0000000   1.0000000
 Leave Link  101 at Sat Sep 11 20:32:44 2021, MaxMem= 23488102400 cpu:               3.2 elap:               0.2
 (Enter /sw/apps/gaussian-16.0/g16/l202.exe)
 Stoichiometry    C68H72Mg2N8O8
 Framework group  C1[X(C68H72Mg2N8O8)]
 Deg. of freedom   468
 Full point group                 C1      NOp   1
 Largest Abelian subgroup         C1      NOp   1
 Largest concise Abelian subgroup C1      NOp   1
                         Standard orientation:                         
 ---------------------------------------------------------------------
 Center     Atomic      Atomic             Coordinates (Angstroms)
 Number     Number       Type             X           Y           Z
 ---------------------------------------------------------------------
      1         12           0        8.020463    0.559425    0.895873
      2          6           0        8.493720   -2.406011   -1.052057
      3          6           0        9.191577    2.324521   -1.779195
      4          6           0        8.041434    3.136595    2.743677
      5          6           0        7.979752   -1.480484    3.721253
      6          7           0        8.720552   -0.073442   -1.106625
      7          6           0        8.795546   -1.234405   -1.749829
      8          6           0        9.152565   -1.082773   -3.258776
      9          6           0        9.884769    0.332426   -3.203234
     10          6           0        9.200768    0.911862   -1.977542
     11          6           0       11.382009    0.233430   -2.929424
     12          6           0        7.879411   -1.033762   -4.168945
     13          6           0        8.139906   -1.215048   -5.667154
     14          1           0        7.160435   -1.935989   -6.466046
     15          7           0        8.069975    2.476317    0.420557
     16          6           0        8.568136    3.015788   -0.717903
     17          6           0        8.373078    4.476537   -0.596066
     18          6           0        7.894387    4.757975    0.785868
     19          6           0        8.009297    3.454229    1.387881
     20          6           0        8.588092    5.432688   -1.728892
     21          6           0        7.420143    6.006324    1.460295
     22          8           0        7.270915    6.079908    2.727927
     23          6           0        7.216875    7.183209    0.596196
     24          7           0        8.231360    0.828568    2.955174
     25          6           0        8.144752    2.044979    3.504561
     26          6           0        8.042498    1.963204    4.998816
     27          6           0        7.831826    0.418379    5.343613
     28          6           0        7.937497   -0.159748    3.910828
     29          6           0        9.247589    2.501288    5.782546
     30          6           0        6.592346    0.051163    6.197582
     31          6           0        5.329387    0.311352    5.407434
     32          7           0        8.023866   -1.575588    1.286705
     33          6           0        8.026844   -2.203155    2.540828
     34          6           0        8.139880   -3.653105    2.298057
     35          6           0        8.211966   -3.767845    0.911160
     36          6           0        8.174444   -2.469996    0.325949
     37          6           0        8.222890   -4.661570    3.298328
     38          6           0        8.336768   -4.683434   -0.211327
     39          8           0        8.318623   -5.908728   -0.337091
     40          6           0        8.646846   -3.831689   -1.520606
     41          6           0        7.726755   -4.317378   -2.607274
     42          8           0        6.494316   -4.137130   -2.529998
     43          8           0        8.454423   -4.700819   -3.667469
     44          6           0        7.600669   -5.166355   -4.792873
     45          1           0        9.761330    2.957191   -2.462607
     46          1           0        7.938783    3.992035    3.414589
     47          1           0        7.888285   -2.184216    4.550620
     48          1           0        9.835800   -1.840621   -3.642548
     49          1           0        9.665433    0.938856   -4.081788
     50          1           0       11.676375   -0.788090   -2.689075
     51          1           0       11.566936    0.892534   -2.080968
     52          1           0       11.955745    0.645803   -3.759817
     53          1           0        7.478342   -0.020255   -4.171671
     54          1           0        7.141603   -1.766425   -3.840050
     55          1           0        9.142843   -1.600100   -5.853597
     56          1           0        8.136040   -0.230999   -6.136017
     57          1           0        9.096438    4.954745   -2.565372
     58          1           0        9.291724    6.187799   -1.379011
     59          1           0        7.660729    5.911853   -2.043109
     60          1           0        8.154525    7.429923    0.097706
     61          1           0        6.791986    7.956051    1.235755
     62          1           0        6.509403    6.924460   -0.192145
     63          1           0        7.187344    2.530525    5.363896
     64          1           0        8.671817    0.005918    5.903046
     65          1           0        8.991998    3.287578    6.493269
     66          1           0        9.988741    2.849645    5.063775
     67          1           0        9.812721    1.745652    6.327575
     68          1           0        6.547446    0.675937    7.088978
     69          1           0        6.585870   -0.989671    6.521422
     70          1           0        5.158499    1.375664    5.565134
     71          1           0        4.503565   -0.279735    5.804731
     72          1           0        5.489985    0.161831    4.339568
     73          1           0        7.569013   -5.469994    2.971428
     74          1           0        7.921923   -4.278220    4.273040
     75          1           0        9.284836   -4.902782    3.254241
     76          1           0        9.694838   -4.002550   -1.764818
     77          1           0        7.926467   -6.175081   -5.046963
     78          1           0        7.666683   -4.402942   -5.568274
     79          1           0        6.549820   -5.342018   -4.560066
     80         12           0       -7.742864    0.348726   -0.946104
     81          6           0       -9.380002   -1.649046    1.545432
     82          6           0       -9.765254    2.925397    0.005410
     83          6           0       -6.640828    1.997395   -3.422967
     84          6           0       -6.692383   -2.620746   -2.437547
     85          7           0       -9.327778    0.496364    0.589639
     86          6           0       -9.820559   -0.309420    1.518204
     87          6           0      -10.783592    0.379207    2.522156
     88          6           0      -11.250990    1.609401    1.601809
     89          6           0      -10.027448    1.713926    0.693676
     90          6           0      -12.460382    1.289931    0.738886
     91          6           0      -10.044722    0.876552    3.813952
     92          6           0      -10.966406    1.278788    4.967402
     93          1           0      -10.530670    1.005830    6.334193
     94          7           0       -7.776828    2.299800   -1.307692
     95          6           0       -8.653918    3.202485   -0.820729
     96          6           0       -8.263559    4.496539   -1.401430
     97          6           0       -7.186244    4.256818   -2.399750
     98          6           0       -7.173698    2.808047   -2.431280
     99          6           0       -8.841812    5.802874   -0.940441
    100          6           0       -6.320511    5.178948   -3.203718
    101          8           0       -5.614581    4.754428   -4.185701
    102          6           0       -6.395244    6.608136   -2.867069
    103          7           0       -6.982610   -0.223154   -2.794698
    104          6           0       -6.524336    0.691907   -3.666801
    105          6           0       -5.776897    0.036000   -4.803258
    106          6           0       -5.619746   -1.499447   -4.384589
    107          6           0       -6.416395   -1.483795   -3.061525
    108          6           0       -6.443513    0.123265   -6.175994
    109          6           0       -4.179929   -2.082101   -4.373585
    110          6           0       -3.370050   -1.435860   -3.272754
    111          7           0       -7.817057   -1.752587   -0.449080
    112          6           0       -7.340374   -2.830437   -1.226955
    113          6           0       -7.719692   -4.074369   -0.526113
    114          6           0       -8.416338   -3.630909    0.608132
    115          6           0       -8.485081   -2.211495    0.603349
    116          6           0       -7.458385   -5.397847   -0.980240
    117          6           0       -9.118395   -4.041179    1.802905
    118          8           0       -9.306526   -5.114215    2.374681
    119          6           0       -9.883200   -2.781039    2.397497
    120          6           0       -9.605160   -2.723383    3.874616
    121          8           0       -8.454151   -2.507499    4.293155
    122          8           0      -10.772973   -2.715479    4.542822
    123          6           0      -10.549585   -2.647810    6.011612
    124          1           0      -10.500766    3.727808    0.068867
    125          1           0       -6.149642    2.520834   -4.246511
    126          1           0       -6.316824   -3.584711   -2.787389
    127          1           0      -11.641408   -0.216520    2.810285
    128          1           0      -11.370189    2.517526    2.187001
    129          1           0      -12.734720    0.247258    0.799888
    130          1           0      -12.176180    1.547789   -0.272935
    131          1           0      -13.292411    1.951652    0.996144
    132          1           0       -9.571310    1.844609    3.605396
    133          1           0       -9.338144    0.144755    4.154335
    134          1           0      -11.994589    0.928822    4.814708
    135          1           0      -11.052936    2.368007    4.978802
    136          1           0       -9.729064    5.651113   -0.313424
    137          1           0       -9.222568    6.315788   -1.830286
    138          1           0       -8.102525    6.442206   -0.453222
    139          1           0       -7.420424    6.952647   -2.980097
    140          1           0       -5.640332    7.094473   -3.487926
    141          1           0       -6.136223    6.732497   -1.809679
    142          1           0       -4.791888    0.470916   -4.920304
    143          1           0       -6.162601   -2.166391   -5.070400
    144          1           0       -5.801454    0.594736   -6.943811
    145          1           0       -7.372369    0.667874   -6.070383
    146          1           0       -6.778495   -0.827138   -6.587956
    147          1           0       -3.670002   -1.849287   -5.311637
    148          1           0       -4.150916   -3.159542   -4.250062
    149          1           0       -3.028682   -0.503473   -3.732348
    150          1           0       -2.530175   -2.068666   -2.993098
    151          1           0       -4.006118   -1.169723   -2.420556
    152          1           0       -7.120280   -5.960938   -0.120522
    153          1           0       -6.718289   -5.405692   -1.777712
    154          1           0       -8.451613   -5.680545   -1.339205
    155          1           0      -10.945015   -2.912278    2.185598
    156          1           0      -11.073681   -3.500563    6.454116
    157          1           0      -10.881803   -1.638135    6.318117
    158          1           0       -9.540696   -2.808887    6.373073
 ---------------------------------------------------------------------
 Rotational constants (GHZ):           0.0217745           0.0054668           0.0053964
 Leave Link  202 at Sat Sep 11 20:32:44 2021, MaxMem= 23488102400 cpu:               0.2 elap:               0.0
 (Enter /sw/apps/gaussian-16.0/g16/l301.exe)
 Standard basis: def2SVP (5D, 7F)
 Ernie: Thresh=  0.10000D-02 Tol=  0.10000D-05 Strict=F.
 There are  1658 symmetry adapted cartesian basis functions of A   symmetry.
 There are  1572 symmetry adapted basis functions of A   symmetry.
  1572 basis functions,  2678 primitive gaussians,  1658 cartesian basis functions
   312 alpha electrons      312 beta electrons
       nuclear repulsion energy     13691.3664261603 Hartrees.
 IExCor=20419 DFT=T Ex+Corr=CAM-B3LYP ExCW=0 ScaHFX=  1.000000
 ScaDFX=  1.000000  1.000000  1.000000  0.810000 ScalE2=  1.000000  1.000000
 IRadAn=      5 IRanWt=     -1 IRanGd=            0 ICorTp=0 IEmpDi=  4
 HFx  wShort=  0.000000 wLong=  0.330000 cFull=  0.190000 cShort=  0.000000 cLong=  0.460000
 DFx  wShort=  0.000000 wLong=  0.330000 cFull=  0.190000 cShort=  0.000000 cLong=  0.460000
 NAtoms=  158 NActive=  158 NUniq=  158 SFac= 1.00D+00 NAtFMM=   60 NAOKFM=T Big=T
 Integral buffers will be    131072 words long.
 Raffenetti 1 integral format.
 Two-electron integral symmetry is turned on.
 Leave Link  301 at Sat Sep 11 20:32:44 2021, MaxMem= 23488102400 cpu:               1.3 elap:               0.1
 (Enter /sw/apps/gaussian-16.0/g16/l302.exe)
 NPDir=0 NMtPBC=     1 NCelOv=     1 NCel=       1 NClECP=     1 NCelD=      1
         NCelK=      1 NCelE2=     1 NClLst=     1 CellRange=     0.0.
 One-electron integrals computed using PRISM.
 One-electron integral symmetry used in STVInt
   1 Symmetry operations used in ECPInt.
 ECPInt:  NShTT=  271216 NPrTT=  987664 LenC2=  108021 LenP2D=  245093.
 LDataN:  DoStor=T MaxTD1= 4 Len=   56
 NBasis=  1572 RedAO= T EigKep=  3.36D-04  NBF=  1572
 NBsUse=  1572 1.00D-06 EigRej= -1.00D+00 NBFU=  1572
 Precomputing XC quadrature grid using
 IXCGrd= 4 IRadAn=           5 IRanWt=          -1 IRanGd=           0 AccXCQ= 0.00D+00.
 Generated NRdTot=       0 NPtTot=           0 NUsed=           0 NTot=          32
 NSgBfM=   981   958   962   971   981 MxSgAt=   158 MxSgA2=   157.
 Leave Link  302 at Sat Sep 11 20:32:49 2021, MaxMem= 23488102400 cpu:             111.0 elap:               4.6
 (Enter /sw/apps/gaussian-16.0/g16/l303.exe)
 DipDrv:  MaxL=1.
 Leave Link  303 at Sat Sep 11 20:32:49 2021, MaxMem= 23488102400 cpu:               9.4 elap:               0.4
 (Enter /sw/apps/gaussian-16.0/g16/l308.exe)
 Leave Link  308 at Sat Sep 11 20:32:50 2021, MaxMem= 23488102400 cpu:              16.3 elap:               0.8
 (Enter /sw/apps/gaussian-16.0/g16/l401.exe)
 ExpMin= 3.36D-02 ExpMax= 4.95D+03 ExpMxC= 7.45D+02 IAcc=3 IRadAn=         5 AccDes= 0.00D+00
 Harris functional with IExCor=20419 and IRadAn=       5 diagonalized for initial guess.
 HarFok:  IExCor=20419 AccDes= 0.00D+00 IRadAn=         5 IDoV= 1 UseB2=F ITyADJ=14
 ICtDFT=  3500011 ScaDFX=  1.000000  1.000000  1.000000  1.000000
 FoFCou: FMM=F IPFlag=           0 FMFlag=      100000 FMFlg1=        2001
         NFxFlg=           0 DoJE=T BraDBF=F KetDBF=T FulRan=T
         wScrn=  0.000000 ICntrl=       500 IOpCl=  0 I1Cent=   200000004 NGrid=           0
         NMat0=    1 NMatS0=      1 NMatT0=    0 NMatD0=    1 NMtDS0=    0 NMtDT0=    0
 Petite list used in FoFCou.
 Harris En= -3918.65801033232    
 JPrj=0 DoOrth=F DoCkMO=F.
 Leave Link  401 at Sat Sep 11 20:32:57 2021, MaxMem= 23488102400 cpu:             161.1 elap:               6.7
 (Enter /sw/apps/gaussian-16.0/g16/l502.exe)
 Integral symmetry usage will be decided dynamically.
 Closed shell SCF:
 Using DIIS extrapolation, IDIIS=  1040.
 NGot= 23488102400 LenX= 23482547354 LenY= 23479796732
 Requested convergence on RMS density matrix=1.00D-08 within 128 cycles.
 Requested convergence on MAX density matrix=1.00D-06.
 Requested convergence on             energy=1.00D-06.
 No special actions if energy rises.
 Fock matrices will be formed incrementally for  20 cycles.

 Cycle   1  Pass 1  IDiag  1:
 FoFJK:  IHMeth= 1 ICntrl=       0 DoSepK=T KAlg= 0 I1Cent=           0 FoldK=F
 IRaf=         1 NMat=       1 IRICut=       1 DoRegI=T DoRafI=F ISym2E= 0 IDoP0=0 IntGTp=1.
 FoFCou: FMM=T IPFlag=           0 FMFlag=      100000 FMFlg1=        2001
         NFxFlg=           0 DoJE=T BraDBF=F KetDBF=F FulRan=T
         wScrn=  0.000000 ICntrl=       500 IOpCl=  0 I1Cent=           0 NGrid=           0
         NMat0=    1 NMatS0=      1 NMatT0=    0 NMatD0=    1 NMtDS0=    0 NMtDT0=    0
 Symmetry not used in FoFCou.
 FMM levels:  10  Number of levels for PrismC:   9
 E= -4068.94913539989    
 DIIS: error= 2.04D-02 at cycle   1 NSaved=   1.
 NSaved= 1 IEnMin= 1 EnMin= -4068.94913539989     IErMin= 1 ErrMin= 2.04D-02
 ErrMax= 2.04D-02  0.00D+00 EMaxC= 1.00D-01 BMatC= 1.69D+00 BMatP= 1.69D+00
 IDIUse=3 WtCom= 7.96D-01 WtEn= 2.04D-01
 Coeff-Com:  0.100D+01
 Coeff-En:   0.100D+01
 Coeff:      0.100D+01
 Gap=     0.120 Goal=   None    Shift=    0.000
 GapD=    0.120 DampG=1.000 DampE=0.500 DampFc=0.5000 IDamp=-1.
 Damping current iteration by 5.00D-01
 RMSDP=1.57D-03 MaxDP=1.35D-01              OVMax= 2.04D-01

 Cycle   2  Pass 1  IDiag  1:
 RMSU=  7.70D-04    CP:  9.82D-01
 E= -4069.33796488473     Delta-E=       -0.388829484840 Rises=F Damp=T
 DIIS: error= 1.27D-02 at cycle   2 NSaved=   2.
 NSaved= 2 IEnMin= 2 EnMin= -4069.33796488473     IErMin= 2 ErrMin= 1.27D-02
 ErrMax= 1.27D-02  0.00D+00 EMaxC= 1.00D-01 BMatC= 3.07D-01 BMatP= 1.69D+00
 IDIUse=3 WtCom= 8.73D-01 WtEn= 1.27D-01
 Coeff-Com: -0.213D+00 0.121D+01
 Coeff-En:   0.000D+00 0.100D+01
 Coeff:     -0.186D+00 0.119D+01
 Gap=     0.138 Goal=   None    Shift=    0.000
 RMSDP=7.65D-04 MaxDP=9.44D-02 DE=-3.89D-01 OVMax= 1.88D-01

 Cycle   3  Pass 1  IDiag  1:
 RMSU=  7.33D-04    CP:  9.68D-01  1.24D+00
 E= -4069.62713409173     Delta-E=       -0.289169207001 Rises=F Damp=F
 DIIS: error= 1.58D-02 at cycle   3 NSaved=   3.
 NSaved= 3 IEnMin= 3 EnMin= -4069.62713409173     IErMin= 2 ErrMin= 1.27D-02
 ErrMax= 1.58D-02  0.00D+00 EMaxC= 1.00D-01 BMatC= 2.02D-01 BMatP= 3.07D-01
 IDIUse=3 WtCom= 8.42D-01 WtEn= 1.58D-01
 Coeff-Com: -0.267D+00 0.652D+00 0.615D+00
 Coeff-En:   0.000D+00 0.000D+00 0.100D+01
 Coeff:     -0.225D+00 0.549D+00 0.676D+00
 Gap=     0.125 Goal=   None    Shift=    0.000
 RMSDP=5.10D-04 MaxDP=4.80D-02 DE=-2.89D-01 OVMax= 1.45D-01

 Cycle   4  Pass 1  IDiag  1:
 RMSU=  2.66D-04    CP:  9.65D-01  1.55D+00  5.04D-01
 E= -4069.76445513606     Delta-E=       -0.137321044334 Rises=F Damp=F
 DIIS: error= 7.36D-03 at cycle   4 NSaved=   4.
 NSaved= 4 IEnMin= 4 EnMin= -4069.76445513606     IErMin= 4 ErrMin= 7.36D-03
 ErrMax= 7.36D-03  0.00D+00 EMaxC= 1.00D-01 BMatC= 5.09D-02 BMatP= 2.02D-01
 IDIUse=3 WtCom= 9.26D-01 WtEn= 7.36D-02
 Coeff-Com: -0.109D+00 0.226D+00 0.409D+00 0.474D+00
 Coeff-En:   0.000D+00 0.000D+00 0.223D+00 0.777D+00
 Coeff:     -0.101D+00 0.210D+00 0.395D+00 0.496D+00
 Gap=     0.123 Goal=   None    Shift=    0.000
 RMSDP=2.02D-04 MaxDP=2.05D-02 DE=-1.37D-01 OVMax= 6.37D-02

 Cycle   5  Pass 1  IDiag  1:
 RMSU=  7.67D-05    CP:  9.64D-01  1.49D+00  6.89D-01  5.47D-01
 E= -4069.81048899307     Delta-E=       -0.046033857001 Rises=F Damp=F
 DIIS: error= 7.82D-04 at cycle   5 NSaved=   5.
 NSaved= 5 IEnMin= 5 EnMin= -4069.81048899307     IErMin= 5 ErrMin= 7.82D-04
 ErrMax= 7.82D-04  0.00D+00 EMaxC= 1.00D-01 BMatC= 1.21D-03 BMatP= 5.09D-02
 IDIUse=3 WtCom= 9.92D-01 WtEn= 7.82D-03
 Coeff-Com: -0.363D-01 0.713D-01 0.167D+00 0.251D+00 0.547D+00
 Coeff-En:   0.000D+00 0.000D+00 0.000D+00 0.000D+00 0.100D+01
 Coeff:     -0.360D-01 0.707D-01 0.166D+00 0.249D+00 0.550D+00
 Gap=     0.122 Goal=   None    Shift=    0.000
 RMSDP=4.18D-05 MaxDP=4.17D-03 DE=-4.60D-02 OVMax= 1.73D-02

 Cycle   6  Pass 1  IDiag  1:
 RMSU=  3.07D-05    CP:  9.64D-01  1.49D+00  6.81D-01  6.20D-01  7.50D-01
 E= -4069.81154371779     Delta-E=       -0.001054724722 Rises=F Damp=F
 DIIS: error= 2.11D-04 at cycle   6 NSaved=   6.
 NSaved= 6 IEnMin= 6 EnMin= -4069.81154371779     IErMin= 6 ErrMin= 2.11D-04
 ErrMax= 2.11D-04  0.00D+00 EMaxC= 1.00D-01 BMatC= 1.81D-04 BMatP= 1.21D-03
 IDIUse=3 WtCom= 9.98D-01 WtEn= 2.11D-03
 Coeff-Com:  0.220D-02-0.658D-02 0.115D-01 0.407D-01 0.305D+00 0.647D+00
 Coeff-En:   0.000D+00 0.000D+00 0.000D+00 0.000D+00 0.105D+00 0.895D+00
 Coeff:      0.220D-02-0.657D-02 0.115D-01 0.406D-01 0.305D+00 0.648D+00
 Gap=     0.123 Goal=   None    Shift=    0.000
 RMSDP=1.62D-05 MaxDP=1.21D-03 DE=-1.05D-03 OVMax= 7.48D-03

 Cycle   7  Pass 1  IDiag  1:
 RMSU=  1.09D-05    CP:  9.64D-01  1.50D+00  6.86D-01  6.20D-01  8.53D-01
                    CP:  7.46D-01
 E= -4069.81173954943     Delta-E=       -0.000195831639 Rises=F Damp=F
 DIIS: error= 8.70D-05 at cycle   7 NSaved=   7.
 NSaved= 7 IEnMin= 7 EnMin= -4069.81173954943     IErMin= 7 ErrMin= 8.70D-05
 ErrMax= 8.70D-05  0.00D+00 EMaxC= 1.00D-01 BMatC= 2.21D-05 BMatP= 1.81D-04
 IDIUse=1 WtCom= 1.00D+00 WtEn= 0.00D+00
 Coeff-Com:  0.449D-02-0.983D-02-0.891D-02-0.349D-02 0.104D+00 0.333D+00
 Coeff-Com:  0.581D+00
 Coeff:      0.449D-02-0.983D-02-0.891D-02-0.349D-02 0.104D+00 0.333D+00
 Coeff:      0.581D+00
 Gap=     0.123 Goal=   None    Shift=    0.000
 RMSDP=6.62D-06 MaxDP=1.11D-03 DE=-1.96D-04 OVMax= 3.45D-03

 Cycle   8  Pass 1  IDiag  1:
 RMSU=  4.73D-06    CP:  9.64D-01  1.50D+00  6.87D-01  6.25D-01  8.56D-01
                    CP:  8.72D-01  8.16D-01
 E= -4069.81176692543     Delta-E=       -0.000027376005 Rises=F Damp=F
 DIIS: error= 5.04D-05 at cycle   8 NSaved=   8.
 NSaved= 8 IEnMin= 8 EnMin= -4069.81176692543     IErMin= 8 ErrMin= 5.04D-05
 ErrMax= 5.04D-05  0.00D+00 EMaxC= 1.00D-01 BMatC= 4.89D-06 BMatP= 2.21D-05
 IDIUse=1 WtCom= 1.00D+00 WtEn= 0.00D+00
 Coeff-Com:  0.217D-02-0.431D-02-0.779D-02-0.121D-01-0.109D-01 0.341D-01
 Coeff-Com:  0.338D+00 0.661D+00
 Coeff:      0.217D-02-0.431D-02-0.779D-02-0.121D-01-0.109D-01 0.341D-01
 Coeff:      0.338D+00 0.661D+00
 Gap=     0.123 Goal=   None    Shift=    0.000
 RMSDP=3.31D-06 MaxDP=3.56D-04 DE=-2.74D-05 OVMax= 1.08D-03

 Cycle   9  Pass 1  IDiag  1:
 RMSU=  1.93D-06    CP:  9.64D-01  1.50D+00  6.87D-01  6.26D-01  8.73D-01
                    CP:  8.99D-01  1.01D+00  9.47D-01
 E= -4069.81177478234     Delta-E=       -0.000007856906 Rises=F Damp=F
 DIIS: error= 1.97D-05 at cycle   9 NSaved=   9.
 NSaved= 9 IEnMin= 9 EnMin= -4069.81177478234     IErMin= 9 ErrMin= 1.97D-05
 ErrMax= 1.97D-05  0.00D+00 EMaxC= 1.00D-01 BMatC= 7.13D-07 BMatP= 4.89D-06
 IDIUse=1 WtCom= 1.00D+00 WtEn= 0.00D+00
 Coeff-Com:  0.468D-03-0.778D-03-0.269D-02-0.603D-02-0.210D-01-0.392D-01
 Coeff-Com:  0.101D+00 0.329D+00 0.639D+00
 Coeff:      0.468D-03-0.778D-03-0.269D-02-0.603D-02-0.210D-01-0.392D-01
 Coeff:      0.101D+00 0.329D+00 0.639D+00
 Gap=     0.123 Goal=   None    Shift=    0.000
 RMSDP=1.44D-06 MaxDP=1.50D-04 DE=-7.86D-06 OVMax= 7.53D-04

 Cycle  10  Pass 1  IDiag  1:
 RMSU=  9.48D-07    CP:  9.64D-01  1.50D+00  6.87D-01  6.26D-01  8.77D-01
                    CP:  9.12D-01  1.06D+00  1.11D+00  1.06D+00
 E= -4069.81177641987     Delta-E=       -0.000001637534 Rises=F Damp=F
 DIIS: error= 9.94D-06 at cycle  10 NSaved=  10.
 NSaved=10 IEnMin=10 EnMin= -4069.81177641987     IErMin=10 ErrMin= 9.94D-06
 ErrMax= 9.94D-06  0.00D+00 EMaxC= 1.00D-01 BMatC= 1.72D-07 BMatP= 7.13D-07
 IDIUse=1 WtCom= 1.00D+00 WtEn= 0.00D+00
 Coeff-Com: -0.428D-03 0.896D-03 0.123D-02 0.110D-02-0.372D-02-0.311D-01
 Coeff-Com: -0.458D-01-0.749D-01 0.248D+00 0.905D+00
 Coeff:     -0.428D-03 0.896D-03 0.123D-02 0.110D-02-0.372D-02-0.311D-01
 Coeff:     -0.458D-01-0.749D-01 0.248D+00 0.905D+00
 Gap=     0.123 Goal=   None    Shift=    0.000
 RMSDP=1.24D-06 MaxDP=1.23D-04 DE=-1.64D-06 OVMax= 6.26D-04

 Cycle  11  Pass 1  IDiag  1:
 RMSU=  5.24D-07    CP:  9.64D-01  1.50D+00  6.88D-01  6.27D-01  8.79D-01
                    CP:  9.22D-01  1.11D+00  1.23D+00  1.39D+00  1.37D+00
 E= -4069.81177722537     Delta-E=       -0.000000805496 Rises=F Damp=F
 DIIS: error= 4.13D-06 at cycle  11 NSaved=  11.
 NSaved=11 IEnMin=11 EnMin= -4069.81177722537     IErMin=11 ErrMin= 4.13D-06
 ErrMax= 4.13D-06  0.00D+00 EMaxC= 1.00D-01 BMatC= 6.36D-08 BMatP= 1.72D-07
 IDIUse=1 WtCom= 1.00D+00 WtEn= 0.00D+00
 Coeff-Com: -0.331D-03 0.644D-03 0.134D-02 0.213D-02 0.443D-02-0.840D-02
 Coeff-Com: -0.429D-01-0.132D+00-0.292D-01 0.472D+00 0.733D+00
 Coeff:     -0.331D-03 0.644D-03 0.134D-02 0.213D-02 0.443D-02-0.840D-02
 Coeff:     -0.429D-01-0.132D+00-0.292D-01 0.472D+00 0.733D+00
 Gap=     0.123 Goal=   None    Shift=    0.000
 RMSDP=6.99D-07 MaxDP=6.22D-05 DE=-8.05D-07 OVMax= 3.86D-04

 Cycle  12  Pass 1  IDiag  1:
 RMSU=  2.67D-07    CP:  9.64D-01  1.50D+00  6.87D-01  6.27D-01  8.80D-01
                    CP:  9.25D-01  1.13D+00  1.29D+00  1.56D+00  1.76D+00
                    CP:  1.20D+00
 E= -4069.81177749675     Delta-E=       -0.000000271386 Rises=F Damp=F
 DIIS: error= 2.45D-06 at cycle  12 NSaved=  12.
 NSaved=12 IEnMin=12 EnMin= -4069.81177749675     IErMin=12 ErrMin= 2.45D-06
 ErrMax= 2.45D-06  0.00D+00 EMaxC= 1.00D-01 BMatC= 1.53D-08 BMatP= 6.36D-08
 IDIUse=1 WtCom= 1.00D+00 WtEn= 0.00D+00
 Coeff-Com: -0.199D-05-0.129D-04 0.189D-03 0.525D-03 0.335D-02 0.402D-02
 Coeff-Com:  0.263D-02-0.351D-01-0.694D-01-0.706D-01 0.250D+00 0.914D+00
 Coeff:     -0.199D-05-0.129D-04 0.189D-03 0.525D-03 0.335D-02 0.402D-02
 Coeff:      0.263D-02-0.351D-01-0.694D-01-0.706D-01 0.250D+00 0.914D+00
 Gap=     0.123 Goal=   None    Shift=    0.000
 RMSDP=4.42D-07 MaxDP=2.73D-05 DE=-2.71D-07 OVMax= 2.55D-04

 Cycle  13  Pass 1  IDiag  1:
 RMSU=  1.67D-07    CP:  9.64D-01  1.50D+00  6.87D-01  6.27D-01  8.80D-01
                    CP:  9.25D-01  1.13D+00  1.32D+00  1.67D+00  1.99D+00
                    CP:  1.61D+00  1.27D+00
 E= -4069.81177759096     Delta-E=       -0.000000094202 Rises=F Damp=F
 DIIS: error= 1.34D-06 at cycle  13 NSaved=  13.
 NSaved=13 IEnMin=13 EnMin= -4069.81177759096     IErMin=13 ErrMin= 1.34D-06
 ErrMax= 1.34D-06  0.00D+00 EMaxC= 1.00D-01 BMatC= 8.41D-09 BMatP= 1.53D-08
 IDIUse=1 WtCom= 1.00D+00 WtEn= 0.00D+00
 Coeff-Com:  0.120D-03-0.246D-03-0.371D-03-0.457D-03 0.597D-03 0.505D-02
 Coeff-Com:  0.194D-01 0.231D-01-0.328D-01-0.241D+00-0.159D+00 0.597D+00
 Coeff-Com:  0.789D+00
 Coeff:      0.120D-03-0.246D-03-0.371D-03-0.457D-03 0.597D-03 0.505D-02
 Coeff:      0.194D-01 0.231D-01-0.328D-01-0.241D+00-0.159D+00 0.597D+00
 Coeff:      0.789D+00
 Gap=     0.123 Goal=   None    Shift=    0.000
 RMSDP=3.46D-07 MaxDP=2.20D-05 DE=-9.42D-08 OVMax= 2.06D-04

 Cycle  14  Pass 1  IDiag  1:
 RMSU=  7.70D-08    CP:  9.64D-01  1.50D+00  6.87D-01  6.27D-01  8.80D-01
                    CP:  9.26D-01  1.14D+00  1.34D+00  1.75D+00  2.19D+00
                    CP:  1.87D+00  1.78D+00  1.09D+00
 E= -4069.81177762809     Delta-E=       -0.000000037136 Rises=F Damp=F
 DIIS: error= 6.81D-07 at cycle  14 NSaved=  14.
 NSaved=14 IEnMin=14 EnMin= -4069.81177762809     IErMin=14 ErrMin= 6.81D-07
 ErrMax= 6.81D-07  0.00D+00 EMaxC= 1.00D-01 BMatC= 1.28D-09 BMatP= 8.41D-09
 IDIUse=1 WtCom= 1.00D+00 WtEn= 0.00D+00
 Coeff-Com:  0.668D-04-0.132D-03-0.248D-03-0.388D-03-0.470D-03 0.126D-02
 Coeff-Com:  0.106D-01 0.193D-01 0.439D-02-0.100D+00-0.143D+00 0.923D-01
 Coeff-Com:  0.403D+00 0.713D+00
 Coeff:      0.668D-04-0.132D-03-0.248D-03-0.388D-03-0.470D-03 0.126D-02
 Coeff:      0.106D-01 0.193D-01 0.439D-02-0.100D+00-0.143D+00 0.923D-01
 Coeff:      0.403D+00 0.713D+00
 Gap=     0.123 Goal=   None    Shift=    0.000
 RMSDP=1.03D-07 MaxDP=6.93D-06 DE=-3.71D-08 OVMax= 5.63D-05

 Cycle  15  Pass 1  IDiag  1:
 RMSU=  3.84D-08    CP:  9.64D-01  1.50D+00  6.87D-01  6.27D-01  8.80D-01
                    CP:  9.26D-01  1.14D+00  1.35D+00  1.76D+00  2.23D+00
                    CP:  1.98D+00  1.92D+00  1.33D+00  1.03D+00
 E= -4069.81177763233     Delta-E=       -0.000000004235 Rises=F Damp=F
 DIIS: error= 3.13D-07 at cycle  15 NSaved=  15.
 NSaved=15 IEnMin=15 EnMin= -4069.81177763233     IErMin=15 ErrMin= 3.13D-07
 ErrMax= 3.13D-07  0.00D+00 EMaxC= 1.00D-01 BMatC= 2.28D-10 BMatP= 1.28D-09
 IDIUse=1 WtCom= 1.00D+00 WtEn= 0.00D+00
 Coeff-Com:  0.532D-05-0.885D-05-0.327D-04-0.819D-04-0.295D-03-0.527D-03
 Coeff-Com:  0.111D-02 0.252D-02 0.877D-02 0.176D-02-0.303D-01-0.725D-01
 Coeff-Com:  0.288D-01 0.297D+00 0.764D+00
 Coeff:      0.532D-05-0.885D-05-0.327D-04-0.819D-04-0.295D-03-0.527D-03
 Coeff:      0.111D-02 0.252D-02 0.877D-02 0.176D-02-0.303D-01-0.725D-01
 Coeff:      0.288D-01 0.297D+00 0.764D+00
 Gap=     0.123 Goal=   None    Shift=    0.000
 RMSDP=4.03D-08 MaxDP=2.06D-06 DE=-4.23D-09 OVMax= 2.83D-05

 Cycle  16  Pass 1  IDiag  1:
 RMSU=  1.89D-08    CP:  9.64D-01  1.50D+00  6.87D-01  6.27D-01  8.80D-01
                    CP:  9.26D-01  1.14D+00  1.35D+00  1.77D+00  2.24D+00
                    CP:  2.00D+00  1.98D+00  1.40D+00  1.24D+00  1.14D+00
 E= -4069.81177763306     Delta-E=       -0.000000000735 Rises=F Damp=F
 DIIS: error= 1.83D-07 at cycle  16 NSaved=  16.
 NSaved=16 IEnMin=16 EnMin= -4069.81177763306     IErMin=16 ErrMin= 1.83D-07
 ErrMax= 1.83D-07  0.00D+00 EMaxC= 1.00D-01 BMatC= 8.38D-11 BMatP= 2.28D-10
 IDIUse=1 WtCom= 1.00D+00 WtEn= 0.00D+00
 Coeff-Com: -0.140D-04 0.285D-04 0.463D-04 0.523D-04-0.289D-04-0.631D-03
 Coeff-Com: -0.191D-02-0.421D-02 0.432D-02 0.253D-01 0.204D-01-0.640D-01
 Coeff-Com: -0.817D-01-0.358D-01 0.399D+00 0.739D+00
 Coeff:     -0.140D-04 0.285D-04 0.463D-04 0.523D-04-0.289D-04-0.631D-03
 Coeff:     -0.191D-02-0.421D-02 0.432D-02 0.253D-01 0.204D-01-0.640D-01
 Coeff:     -0.817D-01-0.358D-01 0.399D+00 0.739D+00
 Gap=     0.123 Goal=   None    Shift=    0.000
 RMSDP=2.29D-08 MaxDP=1.33D-06 DE=-7.35D-10 OVMax= 1.22D-05

 Cycle  17  Pass 1  IDiag  1:
 RMSU=  1.05D-08    CP:  9.64D-01  1.50D+00  6.87D-01  6.27D-01  8.80D-01
                    CP:  9.26D-01  1.14D+00  1.35D+00  1.77D+00  2.25D+00
                    CP:  2.01D+00  2.01D+00  1.45D+00  1.34D+00  1.44D+00
                    CP:  1.24D+00
 E= -4069.81177763323     Delta-E=       -0.000000000171 Rises=F Damp=F
 DIIS: error= 9.16D-08 at cycle  17 NSaved=  17.
 NSaved=17 IEnMin=17 EnMin= -4069.81177763323     IErMin=17 ErrMin= 9.16D-08
 ErrMax= 9.16D-08  0.00D+00 EMaxC= 1.00D-01 BMatC= 1.80D-11 BMatP= 8.38D-11
 IDIUse=1 WtCom= 1.00D+00 WtEn= 0.00D+00
 Coeff-Com: -0.722D-05 0.141D-04 0.285D-04 0.422D-04 0.821D-04-0.126D-03
 Coeff-Com: -0.930D-03-0.279D-02 0.760D-04 0.938D-02 0.173D-01-0.758D-02
 Coeff-Com: -0.364D-01-0.100D+00-0.261D-01 0.294D+00 0.854D+00
 Coeff:     -0.722D-05 0.141D-04 0.285D-04 0.422D-04 0.821D-04-0.126D-03
 Coeff:     -0.930D-03-0.279D-02 0.760D-04 0.938D-02 0.173D-01-0.758D-02
 Coeff:     -0.364D-01-0.100D+00-0.261D-01 0.294D+00 0.854D+00
 Gap=     0.123 Goal=   None    Shift=    0.000
 RMSDP=1.36D-08 MaxDP=7.98D-07 DE=-1.71D-10 OVMax= 9.51D-06

 Cycle  18  Pass 1  IDiag  1:
 RMSU=  5.07D-09    CP:  9.64D-01  1.50D+00  6.87D-01  6.27D-01  8.80D-01
                    CP:  9.26D-01  1.14D+00  1.35D+00  1.77D+00  2.25D+00
                    CP:  2.02D+00  2.01D+00  1.47D+00  1.41D+00  1.60D+00
                    CP:  1.64D+00  1.37D+00
 E= -4069.81177763343     Delta-E=       -0.000000000200 Rises=F Damp=F
 DIIS: error= 6.27D-08 at cycle  18 NSaved=  18.
 NSaved=18 IEnMin=18 EnMin= -4069.81177763343     IErMin=18 ErrMin= 6.27D-08
 ErrMax= 6.27D-08  0.00D+00 EMaxC= 1.00D-01 BMatC= 7.52D-12 BMatP= 1.80D-11
 IDIUse=1 WtCom= 1.00D+00 WtEn= 0.00D+00
 Coeff-Com:  0.161D-05-0.355D-05-0.296D-05 0.572D-06 0.612D-04 0.171D-03
 Coeff-Com:  0.337D-03 0.854D-04-0.124D-02-0.550D-02 0.631D-03 0.189D-01
 Coeff-Com:  0.159D-01-0.367D-01-0.159D+00-0.174D+00 0.383D+00 0.957D+00
 Coeff:      0.161D-05-0.355D-05-0.296D-05 0.572D-06 0.612D-04 0.171D-03
 Coeff:      0.337D-03 0.854D-04-0.124D-02-0.550D-02 0.631D-03 0.189D-01
 Coeff:      0.159D-01-0.367D-01-0.159D+00-0.174D+00 0.383D+00 0.957D+00
 Gap=     0.123 Goal=   None    Shift=    0.000
 RMSDP=1.15D-08 MaxDP=6.45D-07 DE=-2.00D-10 OVMax= 6.04D-06

 Cycle  19  Pass 1  IDiag  1:
 RMSU=  3.02D-09    CP:  9.64D-01  1.50D+00  6.87D-01  6.27D-01  8.80D-01
                    CP:  9.26D-01  1.14D+00  1.35D+00  1.77D+00  2.25D+00
                    CP:  2.02D+00  2.02D+00  1.48D+00  1.45D+00  1.75D+00
                    CP:  1.95D+00  1.91D+00  1.29D+00
 E= -4069.81177763341     Delta-E=        0.000000000018 Rises=F Damp=F
 DIIS: error= 3.05D-08 at cycle  19 NSaved=  19.
 NSaved=19 IEnMin=18 EnMin= -4069.81177763343     IErMin=19 ErrMin= 3.05D-08
 ErrMax= 3.05D-08  0.00D+00 EMaxC= 1.00D-01 BMatC= 1.83D-12 BMatP= 7.52D-12
 IDIUse=1 WtCom= 1.00D+00 WtEn= 0.00D+00
 Coeff-Com:  0.299D-05-0.605D-05-0.100D-04-0.122D-04 0.151D-04 0.129D-03
 Coeff-Com:  0.487D-03 0.804D-03-0.630D-03-0.621D-02-0.476D-02 0.131D-01
 Coeff-Com:  0.210D-01 0.921D-02-0.787D-01-0.190D+00-0.974D-02 0.529D+00
 Coeff-Com:  0.716D+00
 Coeff:      0.299D-05-0.605D-05-0.100D-04-0.122D-04 0.151D-04 0.129D-03
 Coeff:      0.487D-03 0.804D-03-0.630D-03-0.621D-02-0.476D-02 0.131D-01
 Coeff:      0.210D-01 0.921D-02-0.787D-01-0.190D+00-0.974D-02 0.529D+00
 Coeff:      0.716D+00
 Gap=     0.123 Goal=   None    Shift=    0.000
 RMSDP=4.84D-09 MaxDP=3.43D-07 DE= 1.82D-11 OVMax= 3.55D-06

 SCF Done:  E(RCAM-B3LYP) =  -4069.81177763     A.U. after   19 cycles
            NFock= 19  Conv=0.48D-08     -V/T= 2.0102
 KE= 4.028802051888D+03 PE=-3.686403822841D+04 EE= 1.507405797273D+04
 Leave Link  502 at Sat Sep 11 20:41:37 2021, MaxMem= 23488102400 cpu:           11890.2 elap:             519.9
 (Enter /sw/apps/gaussian-16.0/g16/l801.exe)
 DoSCS=F DFT=T ScalE2(SS,OS)=  1.000000  1.000000
 ExpMin= 3.36D-02 ExpMax= 4.95D+03 ExpMxC= 7.45D+02 IAcc=3 IRadAn=         5 AccDes= 0.00D+00
 HarFok:  IExCor=  205 AccDes= 0.00D+00 IRadAn=         5 IDoV=-2 UseB2=F ITyADJ=14
 ICtDFT= 12500011 ScaDFX=  1.000000  1.000000  1.000000  1.000000
 GSVD:  LWork=       -9588 too small for GESVD, short by       45590 words or       45590 for optimal perf.
 Largest valence mixing into a core orbital is  2.03D-04
 Largest core mixing into a valence orbital is  5.24D-05
 Range of M.O.s used for correlation:    95  1572
 NBasis=  1572 NAE=   312 NBE=   312 NFC=    94 NFV=     0
 NROrb=   1478 NOA=   218 NOB=   218 NVA=  1260 NVB=  1260
 Leave Link  801 at Sat Sep 11 20:41:37 2021, MaxMem= 23488102400 cpu:               8.3 elap:               0.4
 (Enter /sw/apps/gaussian-16.0/g16/l914.exe)
 RHF ground state
 Two-electron integrals replicated using symmetry.
 MDV= 23488102400 DFT=T DoStab=F Mixed=T DoRPA=T DoScal=F NonHer=T
 Making orbital integer symmetry assigments:
 Orbital symmetries:
       Occupied  (A) (A) (A) (A) (A) (A) (A) (A) (A) (A) (A) (A)
                 (A) (A) (A) (A) (A) (A) (A) (A) (A) (A) (A) (A)
                 (A) (A) (A) (A) (A) (A) (A) (A) (A) (A) (A) (A)
                 (A) (A) (A) (A) (A) (A) (A) (A) (A) (A) (A) (A)
                 (A) (A) (A) (A) (A) (A) (A) (A) (A) (A) (A) (A)
                 (A) (A) (A) (A) (A) (A) (A) (A) (A) (A) (A) (A)
                 (A) (A) (A) (A) (A) (A) (A) (A) (A) (A) (A) (A)
                 (A) (A) (A) (A) (A) (A) (A) (A) (A) (A) (A) (A)
                 (A) (A) (A) (A) (A) (A) (A) (A) (A) (A) (A) (A)
                 (A) (A) (A) (A) (A) (A) (A) (A) (A) (A) (A) (A)
                 (A) (A) (A) (A) (A) (A) (A) (A) (A) (A) (A) (A)
                 (A) (A) (A) (A) (A) (A) (A) (A) (A) (A) (A) (A)
                 (A) (A) (A) (A) (A) (A) (A) (A) (A) (A) (A) (A)
                 (A) (A) (A) (A) (A) (A) (A) (A) (A) (A) (A) (A)
                 (A) (A) (A) (A) (A) (A) (A) (A) (A) (A) (A) (A)
                 (A) (A) (A) (A) (A) (A) (A) (A) (A) (A) (A) (A)
                 (A) (A) (A) (A) (A) (A) (A) (A) (A) (A) (A) (A)
                 (A) (A) (A) (A) (A) (A) (A) (A) (A) (A) (A) (A)
                 (A) (A) (A) (A) (A) (A) (A) (A) (A) (A) (A) (A)
                 (A) (A) (A) (A) (A) (A) (A) (A) (A) (A) (A) (A)
                 (A) (A) (A) (A) (A) (A) (A) (A) (A) (A) (A) (A)
                 (A) (A) (A) (A) (A) (A) (A) (A) (A) (A) (A) (A)
                 (A) (A) (A) (A) (A) (A) (A) (A) (A) (A) (A) (A)
                 (A) (A) (A) (A) (A) (A) (A) (A) (A) (A) (A) (A)
                 (A) (A) (A) (A) (A) (A) (A) (A) (A) (A) (A) (A)
                 (A) (A) (A) (A) (A) (A) (A) (A) (A) (A) (A) (A)
       Virtual   (A) (A) (A) (A) (A) (A) (A) (A) (A) (A) (A) (A)
                 (A) (A) (A) (A) (A) (A) (A) (A) (A) (A) (A) (A)
                 (A) (A) (A) (A) (A) (A) (A) (A) (A) (A) (A) (A)
                 (A) (A) (A) (A) (A) (A) (A) (A) (A) (A) (A) (A)
                 (A) (A) (A) (A) (A) (A) (A) (A) (A) (A) (A) (A)
                 (A) (A) (A) (A) (A) (A) (A) (A) (A) (A) (A) (A)
                 (A) (A) (A) (A) (A) (A) (A) (A) (A) (A) (A) (A)
                 (A) (A) (A) (A) (A) (A) (A) (A) (A) (A) (A) (A)
                 (A) (A) (A) (A) (A) (A) (A) (A) (A) (A) (A) (A)
                 (A) (A) (A) (A) (A) (A) (A) (A) (A) (A) (A) (A)
                 (A) (A) (A) (A) (A) (A) (A) (A) (A) (A) (A) (A)
                 (A) (A) (A) (A) (A) (A) (A) (A) (A) (A) (A) (A)
                 (A) (A) (A) (A) (A) (A) (A) (A) (A) (A) (A) (A)
                 (A) (A) (A) (A) (A) (A) (A) (A) (A) (A) (A) (A)
                 (A) (A) (A) (A) (A) (A) (A) (A) (A) (A) (A) (A)
                 (A) (A) (A) (A) (A) (A) (A) (A) (A) (A) (A) (A)
                 (A) (A) (A) (A) (A) (A) (A) (A) (A) (A) (A) (A)
                 (A) (A) (A) (A) (A) (A) (A) (A) (A) (A) (A) (A)
                 (A) (A) (A) (A) (A) (A) (A) (A) (A) (A) (A) (A)
                 (A) (A) (A) (A) (A) (A) (A) (A) (A) (A) (A) (A)
                 (A) (A) (A) (A) (A) (A) (A) (A) (A) (A) (A) (A)
                 (A) (A) (A) (A) (A) (A) (A) (A) (A) (A) (A) (A)
                 (A) (A) (A) (A) (A) (A) (A) (A) (A) (A) (A) (A)
                 (A) (A) (A) (A) (A) (A) (A) (A) (A) (A) (A) (A)
                 (A) (A) (A) (A) (A) (A) (A) (A) (A) (A) (A) (A)
                 (A) (A) (A) (A) (A) (A) (A) (A) (A) (A) (A) (A)
                 (A) (A) (A) (A) (A) (A) (A) (A) (A) (A) (A) (A)
                 (A) (A) (A) (A) (A) (A) (A) (A) (A) (A) (A) (A)
                 (A) (A) (A) (A) (A) (A) (A) (A) (A) (A) (A) (A)
                 (A) (A) (A) (A) (A) (A) (A) (A) (A) (A) (A) (A)
                 (A) (A) (A) (A) (A) (A) (A) (A) (A) (A) (A) (A)
                 (A) (A) (A) (A) (A) (A) (A) (A) (A) (A) (A) (A)
                 (A) (A) (A) (A) (A) (A) (A) (A) (A) (A) (A) (A)
                 (A) (A) (A) (A) (A) (A) (A) (A) (A) (A) (A) (A)
                 (A) (A) (A) (A) (A) (A) (A) (A) (A) (A) (A) (A)
                 (A) (A) (A) (A) (A) (A) (A) (A) (A) (A) (A) (A)
                 (A) (A) (A) (A) (A) (A) (A) (A) (A) (A) (A) (A)
                 (A) (A) (A) (A) (A) (A) (A) (A) (A) (A) (A) (A)
                 (A) (A) (A) (A) (A) (A) (A) (A) (A) (A) (A) (A)
                 (A) (A) (A) (A) (A) (A) (A) (A) (A) (A) (A) (A)
                 (A) (A) (A) (A) (A) (A) (A) (A) (A) (A) (A) (A)
                 (A) (A) (A) (A) (A) (A) (A) (A) (A) (A) (A) (A)
                 (A) (A) (A) (A) (A) (A) (A) (A) (A) (A) (A) (A)
                 (A) (A) (A) (A) (A) (A) (A) (A) (A) (A) (A) (A)
                 (A) (A) (A) (A) (A) (A) (A) (A) (A) (A) (A) (A)
                 (A) (A) (A) (A) (A) (A) (A) (A) (A) (A) (A) (A)
                 (A) (A) (A) (A) (A) (A) (A) (A) (A) (A) (A) (A)
                 (A) (A) (A) (A) (A) (A) (A) (A) (A) (A) (A) (A)
                 (A) (A) (A) (A) (A) (A) (A) (A) (A) (A) (A) (A)
                 (A) (A) (A) (A) (A) (A) (A) (A) (A) (A) (A) (A)
                 (A) (A) (A) (A) (A) (A) (A) (A) (A) (A) (A) (A)
                 (A) (A) (A) (A) (A) (A) (A) (A) (A) (A) (A) (A)
                 (A) (A) (A) (A) (A) (A) (A) (A) (A) (A) (A) (A)
                 (A) (A) (A) (A) (A) (A) (A) (A) (A) (A) (A) (A)
                 (A) (A) (A) (A) (A) (A) (A) (A) (A) (A) (A) (A)
                 (A) (A) (A) (A) (A) (A) (A) (A) (A) (A) (A) (A)
                 (A) (A) (A) (A) (A) (A) (A) (A) (A) (A) (A) (A)
                 (A) (A) (A) (A) (A) (A) (A) (A) (A) (A) (A) (A)
                 (A) (A) (A) (A) (A) (A) (A) (A) (A) (A) (A) (A)
                 (A) (A) (A) (A) (A) (A) (A) (A) (A) (A) (A) (A)
                 (A) (A) (A) (A) (A) (A) (A) (A) (A) (A) (A) (A)
                 (A) (A) (A) (A) (A) (A) (A) (A) (A) (A) (A) (A)
                 (A) (A) (A) (A) (A) (A) (A) (A) (A) (A) (A) (A)
                 (A) (A) (A) (A) (A) (A) (A) (A) (A) (A) (A) (A)
                 (A) (A) (A) (A) (A) (A) (A) (A) (A) (A) (A) (A)
                 (A) (A) (A) (A) (A) (A) (A) (A) (A) (A) (A) (A)
                 (A) (A) (A) (A) (A) (A) (A) (A) (A) (A) (A) (A)
                 (A) (A) (A) (A) (A) (A) (A) (A) (A) (A) (A) (A)
                 (A) (A) (A) (A) (A) (A) (A) (A) (A) (A) (A) (A)
                 (A) (A) (A) (A) (A) (A) (A) (A) (A) (A) (A) (A)
                 (A) (A) (A) (A) (A) (A) (A) (A) (A) (A) (A) (A)
                 (A) (A) (A) (A) (A) (A) (A) (A) (A) (A) (A) (A)
                 (A) (A) (A) (A) (A) (A) (A) (A) (A) (A) (A) (A)
                 (A) (A) (A) (A) (A) (A) (A) (A) (A) (A) (A) (A)
                 (A) (A) (A) (A) (A) (A) (A) (A) (A) (A) (A) (A)
                 (A) (A) (A) (A) (A) (A) (A) (A) (A) (A) (A) (A)
                 (A) (A) (A) (A) (A) (A) (A) (A) (A) (A) (A) (A)
                 (A) (A) (A) (A) (A) (A) (A) (A) (A) (A) (A) (A)
                 (A) (A) (A) (A) (A) (A) (A) (A) (A) (A) (A) (A)
                 (A) (A) (A) (A) (A) (A) (A) (A) (A) (A) (A) (A)
                 (A) (A) (A) (A) (A) (A) (A) (A) (A) (A) (A) (A)
                 (A) (A) (A) (A) (A) (A) (A) (A) (A) (A) (A) (A)
                 (A) (A) (A) (A) (A) (A) (A) (A) (A) (A) (A) (A)
                 (A) (A) (A) (A) (A) (A) (A) (A) (A) (A) (A) (A)
                 (A) (A) (A) (A) (A) (A) (A) (A) (A) (A) (A) (A)
                 (A) (A) (A) (A) (A) (A) (A) (A) (A) (A) (A) (A)
                 (A) (A) (A) (A) (A) (A) (A) (A) (A) (A) (A) (A)
                 (A) (A) (A) (A) (A) (A) (A) (A) (A) (A) (A) (A)
                 (A) (A) (A) (A) (A) (A) (A) (A) (A) (A) (A) (A)
                 (A) (A) (A) (A) (A) (A) (A) (A) (A) (A) (A) (A)
                 (A) (A) (A) (A) (A) (A) (A) (A) (A) (A) (A) (A)
                 (A) (A) (A) (A) (A) (A) (A) (A) (A) (A) (A) (A)
                 (A) (A) (A) (A) (A) (A) (A) (A) (A) (A) (A) (A)
                 (A) (A) (A) (A) (A) (A) (A) (A) (A) (A) (A) (A)
                 (A) (A) (A) (A) (A) (A) (A) (A) (A) (A) (A) (A)
                 (A) (A) (A) (A) (A) (A) (A) (A) (A) (A) (A) (A)
                 (A) (A) (A) (A) (A) (A) (A) (A) (A) (A) (A) (A)
                 (A) (A) (A) (A) (A) (A) (A) (A) (A) (A) (A) (A)
                 (A) (A) (A) (A) (A) (A) (A) (A) (A) (A) (A) (A)
                 (A) (A) (A) (A) (A) (A) (A) (A) (A) (A) (A) (A)
                 (A) (A) (A) (A) (A) (A) (A) (A) (A) (A) (A) (A)
                 (A) (A) (A) (A) (A) (A) (A) (A) (A) (A) (A) (A)
                 (A) (A) (A) (A) (A) (A) (A) (A) (A) (A) (A) (A)
                 (A) (A) (A) (A) (A) (A) (A) (A) (A) (A) (A) (A)
                 (A) (A) (A) (A) (A) (A) (A) (A) (A) (A) (A) (A)
    20 initial guesses have been made.
 Convergence on wavefunction:    0.001000000000000
 Davidson Disk Diagonalization:  ConvIn= 1.00D-03 SkipCon=T Conv= 1.00D-03.
 Max sub-space:  2000 roots to seek:    20 dimension of matrix:       549360
 Iteration     1 Dimension    20 NMult     0 NNew     20
 CISAX will form    20 AO SS matrices at one time.
 NMat=    20 NSing=    20 JSym2X= 0.
 FoFJK:  IHMeth= 1 ICntrl=       0 DoSepK=T KAlg= 0 I1Cent=           0 FoldK=F
 IRaf=         1 NMat=      40 IRICut=       1 DoRegI=T DoRafI=F ISym2E= 0 IDoP0=3 IntGTp=3.
 FoFCou: FMM=T IPFlag=           0 FMFlag=      100000 FMFlg1=        2001
         NFxFlg=           0 DoJE=F BraDBF=F KetDBF=F FulRan=T
         wScrn=  0.000000 ICntrl=       500 IOpCl=  0 I1Cent=           0 NGrid=           0
         NMat0=   20 NMatS0=     20 NMatT0=    0 NMatD0=   20 NMtDS0=    0 NMtDT0=    0
 Symmetry not used in FoFCou.
 FMM levels:  10  Number of levels for PrismC:   9
 New state      1 was old state      8
 New state      2 was old state      5
 New state      3 was old state      2
 New state      4 was old state      3
 New state      5 was old state      1
 Excitation Energies [eV] at current iteration:
 Root      1 :     2.613867797663467
 Root      2 :     2.618893279395022
 Root      3 :     2.668771070456290
 Root      4 :     2.701702956812760
 Root      5 :     2.805653450006456
 Root      6 :     2.817072775004824
 Root      7 :     3.607663973252997
 Root      8 :     3.611741546108760
 Root      9 :     3.627010449985463
 Root     10 :     3.668953691952197
 Root     11 :     3.737815766726361
 Root     12 :     3.759431732684639
 Root     13 :     4.295039970182942
 Root     14 :     4.314041614959892
 Root     15 :     4.726306982074672
 Root     16 :     4.728015509402306
 Root     17 :     5.021015350305634
 Root     18 :     5.032262299065330
 Root     19 :     5.048255338581750
 Root     20 :     5.065396146862369
 Iteration     2 Dimension    30 NMult    20 NNew     10
 CISAX will form    10 AO SS matrices at one time.
 NMat=    10 NSing=    10 JSym2X= 0.
 New state      1 was old state      3
 Root      1 not converged, maximum delta is    0.154648954443552
 New state      2 was old state      4
 Root      2 not converged, maximum delta is    0.158602644879928
 New state      3 was old state      2
 Root      3 not converged, maximum delta is    0.208107152254452
 New state      4 was old state      1
 Root      4 not converged, maximum delta is    0.218259961432717
 Root      5 not converged, maximum delta is    0.001821777717971
 Excitation Energies [eV] at current iteration:
 Root      1 :     1.795391580350718   Change is   -0.873379490105573
 Root      2 :     1.812627085944310   Change is   -0.889075870868450
 Root      3 :     2.235112303518223   Change is   -0.383780975876799
 Root      4 :     2.239373298737654   Change is   -0.374494498925814
 Root      5 :     2.805514039032224   Change is   -0.000139410974232
 Iteration     3 Dimension    40 NMult    30 NNew     10
 CISAX will form    10 AO SS matrices at one time.
 NMat=    10 NSing=    10 JSym2X= 0.
 Root      1 not converged, maximum delta is    0.056059525202636
 Root      2 not converged, maximum delta is    0.057058544424149
 Root      3 not converged, maximum delta is    0.075040947951865
 Root      4 not converged, maximum delta is    0.074831976972212
 Root      5 has converged.
 Excitation Energies [eV] at current iteration:
 Root      1 :     1.688510897576643   Change is   -0.106880682774074
 Root      2 :     1.703963305636143   Change is   -0.108663780308167
 Root      3 :     2.193719870527657   Change is   -0.041392432990567
 Root      4 :     2.200375221061404   Change is   -0.038998077676250
 Root      5 :     2.805513627376404   Change is   -0.000000411655820
 Iteration     4 Dimension    48 NMult    40 NNew      8
 CISAX will form     8 AO SS matrices at one time.
 NMat=     8 NSing=     8 JSym2X= 0.
 Root      1 not converged, maximum delta is    0.010840963298139
 Root      2 not converged, maximum delta is    0.010824097924578
 Root      3 not converged, maximum delta is    0.009895492809664
 Root      4 not converged, maximum delta is    0.009151677566872
 Root      5 has converged.
 Excitation Energies [eV] at current iteration:
 Root      1 :     1.671758182356748   Change is   -0.016752715219895
 Root      2 :     1.687125947902374   Change is   -0.016837357733769
 Root      3 :     2.186413938760331   Change is   -0.007305931767326
 Root      4 :     2.193586098138953   Change is   -0.006789122922451
 Root      5 :     2.805513627376404   Change is    0.000000000000000
 Iteration     5 Dimension    56 NMult    48 NNew      8
 CISAX will form     8 AO SS matrices at one time.
 NMat=     8 NSing=     8 JSym2X= 0.
 Root      1 not converged, maximum delta is    0.001786525071139
 Root      2 not converged, maximum delta is    0.001795427105981
 Root      3 not converged, maximum delta is    0.002476085600571
 Root      4 not converged, maximum delta is    0.002352155420248
 Root      5 has converged.
 Excitation Energies [eV] at current iteration:
 Root      1 :     1.669993933278870   Change is   -0.001764249077878
 Root      2 :     1.685341754825973   Change is   -0.001784193076401
 Root      3 :     2.185567923998057   Change is   -0.000846014762274
 Root      4 :     2.192809925086192   Change is   -0.000776173052762
 Root      5 :     2.805513627376374   Change is   -0.000000000000029
 Iteration     6 Dimension    64 NMult    56 NNew      8
 CISAX will form     8 AO SS matrices at one time.
 NMat=     8 NSing=     8 JSym2X= 0.
 Root      1 not converged, maximum delta is    0.001108326480644
 Root      2 not converged, maximum delta is    0.001116449518701
 Root      3 not converged, maximum delta is    0.001058248921178
 Root      4 has converged.
 Root      5 has converged.
 Excitation Energies [eV] at current iteration:
 Root      1 :     1.669742731144196   Change is   -0.000251202134674
 Root      2 :     1.685085200845196   Change is   -0.000256553980777
 Root      3 :     2.185439375696717   Change is   -0.000128548301340
 Root      4 :     2.192691871767628   Change is   -0.000118053318564
 Root      5 :     2.805513627376404   Change is    0.000000000000029
 Iteration     7 Dimension    70 NMult    64 NNew      6
 CISAX will form     6 AO SS matrices at one time.
 NMat=     6 NSing=     6 JSym2X= 0.
 Root      1 has converged.
 Root      2 has converged.
 Root      3 has converged.
 Root      4 has converged.
 Root      5 has converged.
 Excitation Energies [eV] at current iteration:
 Root      1 :     1.669718331117731   Change is   -0.000024400026465
[...]
 Alpha virt. eigenvalues --    1.84567   1.84576   1.84805   1.84932   1.85174
 Alpha virt. eigenvalues --    1.85234   1.85349   1.85398   1.85508   1.85606
 Alpha virt. eigenvalues --    1.85927   1.85993   1.86413   1.86488   1.86672
 Alpha virt. eigenvalues --    1.86679   1.86865   1.86908   1.87084   1.87165
 Alpha virt. eigenvalues --    1.87508   1.87570   1.87792   1.87799   1.87992
 Alpha virt. eigenvalues --    1.88039   1.88165   1.88200   1.88590   1.88658
 Alpha virt. eigenvalues --    1.88938   1.88954   1.89106   1.89255   1.89670
 Alpha virt. eigenvalues --    1.89748   1.89870   1.89896   1.90206   1.90240
 Alpha virt. eigenvalues --    1.90873   1.90915   1.91453   1.91468   1.91560
 Alpha virt. eigenvalues --    1.91605   1.92204   1.92277   1.92683   1.92741
 Alpha virt. eigenvalues --    1.93106   1.93173   1.93466   1.93534   1.94348
 Alpha virt. eigenvalues --    1.94413   1.94811   1.94832   1.95605   1.95634
 Alpha virt. eigenvalues --    1.95836   1.95847   1.96078   1.96113   1.96193
 Alpha virt. eigenvalues --    1.96283   1.96516   1.96720   1.96952   1.97021
 Alpha virt. eigenvalues --    1.97575   1.97575   1.97831   1.97964   1.98187
 Alpha virt. eigenvalues --    1.98290   1.98372   1.98784   1.99091   1.99253
 Alpha virt. eigenvalues --    1.99937   1.99945   2.00753   2.00786   2.01112
 Alpha virt. eigenvalues --    2.01115   2.01542   2.01594   2.01621   2.01801
 Alpha virt. eigenvalues --    2.01836   2.01841   2.02729   2.02906   2.03166
 Alpha virt. eigenvalues --    2.03358   2.03395   2.03522   2.03538   2.03601
 Alpha virt. eigenvalues --    2.04046   2.04155   2.04997   2.05083   2.05638
 Alpha virt. eigenvalues --    2.05647   2.06200   2.06298   2.07016   2.07047
 Alpha virt. eigenvalues --    2.07307   2.07371   2.08561   2.08710   2.09023
 Alpha virt. eigenvalues --    2.09103   2.09628   2.09707   2.10911   2.11073
 Alpha virt. eigenvalues --    2.11306   2.11428   2.11545   2.11654   2.11848
 Alpha virt. eigenvalues --    2.11876   2.12480   2.12584   2.12822   2.12890
 Alpha virt. eigenvalues --    2.12927   2.12958   2.13640   2.13878   2.14263
 Alpha virt. eigenvalues --    2.14274   2.15428   2.15458   2.16042   2.16098
 Alpha virt. eigenvalues --    2.16611   2.16648   2.16877   2.17193   2.17537
 Alpha virt. eigenvalues --    2.17669   2.17825   2.17946   2.18037   2.18198
 Alpha virt. eigenvalues --    2.18438   2.18682   2.18982   2.19249   2.19759
 Alpha virt. eigenvalues --    2.19832   2.20156   2.20263   2.20333   2.20450
 Alpha virt. eigenvalues --    2.21208   2.21283   2.21778   2.21791   2.21862
 Alpha virt. eigenvalues --    2.21889   2.22719   2.22803   2.23370   2.23440
 Alpha virt. eigenvalues --    2.24452   2.24519   2.25032   2.25093   2.26414
 Alpha virt. eigenvalues --    2.26453   2.26902   2.27025   2.27217   2.27219
 Alpha virt. eigenvalues --    2.28255   2.28325   2.29390   2.29452   2.29852
 Alpha virt. eigenvalues --    2.29892   2.30570   2.30630   2.30832   2.31201
 Alpha virt. eigenvalues --    2.31222   2.31290   2.32244   2.32257   2.33242
 Alpha virt. eigenvalues --    2.33251   2.33507   2.33583   2.34163   2.34264
 Alpha virt. eigenvalues --    2.35310   2.35481   2.35912   2.35916   2.36342
 Alpha virt. eigenvalues --    2.36480   2.36482   2.36743   2.37710   2.37789
 Alpha virt. eigenvalues --    2.38381   2.38391   2.38785   2.38968   2.39679
 Alpha virt. eigenvalues --    2.39729   2.40297   2.40307   2.40601   2.40834
 Alpha virt. eigenvalues --    2.41221   2.41381   2.41725   2.41815   2.42137
 Alpha virt. eigenvalues --    2.42151   2.42851   2.43072   2.43073   2.43630
 Alpha virt. eigenvalues --    2.43981   2.44280   2.44813   2.44848   2.44999
 Alpha virt. eigenvalues --    2.45021   2.45583   2.45669   2.46285   2.46421
 Alpha virt. eigenvalues --    2.46505   2.46596   2.46807   2.46915   2.47374
 Alpha virt. eigenvalues --    2.47396   2.47833   2.47899   2.49404   2.49432
 Alpha virt. eigenvalues --    2.49930   2.50199   2.50470   2.50678   2.51233
 Alpha virt. eigenvalues --    2.51271   2.51616   2.52001   2.52396   2.52550
 Alpha virt. eigenvalues --    2.52924   2.53165   2.53975   2.54038   2.54268
 Alpha virt. eigenvalues --    2.54277   2.54819   2.54908   2.55638   2.55670
 Alpha virt. eigenvalues --    2.57982   2.58079   2.58762   2.58906   2.60298
 Alpha virt. eigenvalues --    2.60318   2.60723   2.60918   2.61823   2.61829
 Alpha virt. eigenvalues --    2.62429   2.62647   2.63073   2.63130   2.64050
 Alpha virt. eigenvalues --    2.64213   2.64371   2.64447   2.65104   2.65198
 Alpha virt. eigenvalues --    2.65854   2.65897   2.66841   2.66904   2.67027
 Alpha virt. eigenvalues --    2.67055   2.67985   2.68028   2.68823   2.68974
 Alpha virt. eigenvalues --    2.69027   2.69135   2.69516   2.69601   2.70119
 Alpha virt. eigenvalues --    2.70150   2.71067   2.71097   2.71890   2.72166
 Alpha virt. eigenvalues --    2.72488   2.72730   2.72766   2.72928   2.73302
 Alpha virt. eigenvalues --    2.73403   2.73463   2.73634   2.74510   2.74628
 Alpha virt. eigenvalues --    2.75049   2.75090   2.76526   2.76713   2.77063
 Alpha virt. eigenvalues --    2.77347   2.77571   2.77590   2.78276   2.78305
 Alpha virt. eigenvalues --    2.78685   2.78842   2.79144   2.79249   2.80245
 Alpha virt. eigenvalues --    2.80458   2.80679   2.80697   2.81144   2.81230
 Alpha virt. eigenvalues --    2.81978   2.82048   2.82332   2.82461   2.83832
 Alpha virt. eigenvalues --    2.83864   2.83883   2.83895   2.84523   2.84665
 Alpha virt. eigenvalues --    2.84887   2.85005   2.85679   2.85785   2.86655
 Alpha virt. eigenvalues --    2.87111   2.87164   2.87710   2.88216   2.88271
 Alpha virt. eigenvalues --    2.88620   2.88628   2.88866   2.89053   2.90613
 Alpha virt. eigenvalues --    2.90657   2.91063   2.91310   2.93267   2.93307
 Alpha virt. eigenvalues --    2.93761   2.94317   2.94570   2.94679   2.95454
 Alpha virt. eigenvalues --    2.95474   2.95823   2.96304   2.96380   2.96563
 Alpha virt. eigenvalues --    2.96863   2.97281   2.97921   2.98015   2.98321
 Alpha virt. eigenvalues --    2.98338   2.98486   2.98559   2.98718   2.98775
 Alpha virt. eigenvalues --    2.98915   2.98999   2.99714   2.99808   3.00002
 Alpha virt. eigenvalues --    3.00138   3.00328   3.00332   3.00572   3.00980
 Alpha virt. eigenvalues --    3.01911   3.02091   3.02115   3.02142   3.02797
 Alpha virt. eigenvalues --    3.02832   3.03087   3.03290   3.03443   3.03699
 Alpha virt. eigenvalues --    3.04049   3.04297   3.04434   3.04572   3.04673
 Alpha virt. eigenvalues --    3.04734   3.05334   3.05413   3.06146   3.06228
 Alpha virt. eigenvalues --    3.06913   3.06920   3.07904   3.08265   3.09343
 Alpha virt. eigenvalues --    3.09512   3.09803   3.10408   3.10554   3.10719
 Alpha virt. eigenvalues --    3.11449   3.11467   3.11927   3.12050   3.12283
 Alpha virt. eigenvalues --    3.12313   3.13395   3.13631   3.13680   3.13765
 Alpha virt. eigenvalues --    3.14193   3.14454   3.16019   3.16057   3.17382
 Alpha virt. eigenvalues --    3.17508   3.17857   3.18198   3.19017   3.19248
 Alpha virt. eigenvalues --    3.22408   3.22581   3.24066   3.24424   3.24788
 Alpha virt. eigenvalues --    3.25179   3.26625   3.26644   3.27380   3.27739
 Alpha virt. eigenvalues --    3.29203   3.29205   3.31363   3.31643   3.33170
 Alpha virt. eigenvalues --    3.33539   3.40241   3.40727   3.42791   3.42935
 Alpha virt. eigenvalues --    3.48683   3.48777   3.50143   3.50267   3.50819
 Alpha virt. eigenvalues --    3.51595   3.56672   3.56988   3.59223   3.59329
 Alpha virt. eigenvalues --    3.62500   3.62956   3.66082   3.66304   3.67287
 Alpha virt. eigenvalues --    3.67525   3.73377   3.74005   3.76166   3.76665
          Condensed to atoms (all electrons):
 Mulliken charges:
               1
     1  Mg   0.838961
     2  C   -0.003055
     3  C   -0.094116
     4  C   -0.045821
     5  C   -0.063862
     6  N   -0.256777
     7  C   -0.052483
     8  C   -0.014033
     9  C   -0.087004
    10  C    0.046316
    11  C    0.104836
    12  C    0.053481
    13  C   -0.071684
    14  H    0.035774
    15  N   -0.433101
    16  C    0.168449
    17  C   -0.177161
    18  C   -0.004009
    19  C    0.148747
    20  C    0.110197
    21  C    0.012329
    22  O   -0.249727
    23  C    0.062448
    24  N   -0.341161
    25  C    0.041246
    26  C   -0.028131
    27  C   -0.024024
    28  C    0.074934
    29  C    0.076227
    30  C    0.035099
    31  C   -0.004563
    32  N   -0.310487
    33  C    0.080492
    34  C   -0.169521
    35  C    0.008319
    36  C    0.083087
    37  C    0.127265
    38  C    0.046155
    39  O   -0.188488
    40  C   -0.005351
    41  C    0.212876
    42  O   -0.257130
    43  O   -0.304786
    44  C    0.157781
    45  H   -0.017730
    46  H   -0.016908
    47  H   -0.041337
    48  H    0.000825
    49  H   -0.004071
    50  H    0.025409
    51  H    0.016438
    52  H    0.016534
    53  H    0.011362
    54  H    0.044046
    55  H    0.017808
    56  H    0.018010
    57  H    0.005810
    58  H    0.026648
    59  H    0.039701
    60  H    0.037226
    61  H    0.035459
    62  H    0.031734
    63  H    0.016609
    64  H    0.009367
    65  H    0.023098
    66  H    0.012413
    67  H    0.004685
    68  H    0.006277
    69  H    0.004888
    70  H    0.008681
    71  H    0.018793
    72  H    0.029002
    73  H    0.047769
    74  H    0.009323
    75  H    0.045868
    76  H    0.035048
    77  H    0.042868
    78  H    0.046326
    79  H    0.053484
    80  Mg   0.838080
    81  C   -0.016836
    82  C   -0.087891
    83  C   -0.045527
    84  C   -0.064721
    85  N   -0.254551
    86  C   -0.049819
    87  C   -0.015115
    88  C   -0.090484
    89  C    0.045733
    90  C    0.114425
    91  C    0.062543
    92  C   -0.077831
    93  H    0.034839
    94  N   -0.423427
    95  C    0.162861
    96  C   -0.174764
    97  C   -0.007928
    98  C    0.152124
    99  C    0.099412
   100  C    0.015482
   101  O   -0.253501
   102  C    0.061252
   103  N   -0.350135
   104  C    0.037576
   105  C   -0.019723
   106  C   -0.034977
   107  C    0.089155
   108  C    0.073788
   109  C    0.034683
   110  C   -0.007888
   111  N   -0.324196
   112  C    0.078666
   113  C   -0.162740
   114  C    0.002237
   115  C    0.096364
   116  C    0.131385
   117  C    0.042530
   118  O   -0.187760
   119  C    0.000830
   120  C    0.211258
   121  O   -0.250850
   122  O   -0.305690
   123  C    0.152039
   124  H   -0.019888
   125  H   -0.015807
   126  H   -0.040025
   127  H   -0.000733
   128  H   -0.004432
   129  H    0.022399
   130  H    0.014370
   131  H    0.016107
   132  H    0.013956
   133  H    0.037776
   134  H    0.020693
   135  H    0.019515
   136  H    0.008672
   137  H    0.025874
   138  H    0.039662
   139  H    0.038149
   140  H    0.035935
   141  H    0.033967
   142  H    0.014377
   143  H    0.012285
   144  H    0.024789
   145  H    0.011408
   146  H    0.005590
   147  H    0.006100
   148  H    0.004186
   149  H    0.010509
   150  H    0.019860
   151  H    0.029852
   152  H    0.046407
   153  H    0.009024
   154  H    0.046752
   155  H    0.034888
   156  H    0.043841
   157  H    0.049391
   158  H    0.053645
 Sum of Mulliken charges =  -0.00000
 Mulliken charges with hydrogens summed into heavy atoms:
               1
     1  Mg   0.838961
     2  C   -0.003055
     3  C   -0.111847
     4  C   -0.062729
     5  C   -0.105199
     6  N   -0.256777
     7  C   -0.052483
     8  C   -0.013208
     9  C   -0.091075
    10  C    0.046316
    11  C    0.163218
    12  C    0.108889
    13  C   -0.000092
    15  N   -0.433101
    16  C    0.168449
    17  C   -0.177161
    18  C   -0.004009
    19  C    0.148747
    20  C    0.182356
    21  C    0.012329
    22  O   -0.249727
    23  C    0.166866
    24  N   -0.341161
    25  C    0.041246
    26  C   -0.011523
    27  C   -0.014658
    28  C    0.074934
    29  C    0.116422
    30  C    0.046264
    31  C    0.051913
    32  N   -0.310487
    33  C    0.080492
    34  C   -0.169521
    35  C    0.008319
    36  C    0.083087
    37  C    0.230225
    38  C    0.046155
    39  O   -0.188488
    40  C    0.029697
    41  C    0.212876
    42  O   -0.257130
    43  O   -0.304786
    44  C    0.300458
    80  Mg   0.838080
    81  C   -0.016836
    82  C   -0.107780
    83  C   -0.061334
    84  C   -0.104746
    85  N   -0.254551
    86  C   -0.049819
    87  C   -0.015848
    88  C   -0.094916
    89  C    0.045733
    90  C    0.167300
    91  C    0.114275
    92  C   -0.002784
    94  N   -0.423427
    95  C    0.162861
    96  C   -0.174764
    97  C   -0.007928
    98  C    0.152124
    99  C    0.173620
   100  C    0.015482
   101  O   -0.253501
   102  C    0.169303
   103  N   -0.350135
   104  C    0.037576
   105  C   -0.005346
   106  C   -0.022692
   107  C    0.089155
   108  C    0.115575
   109  C    0.044969
   110  C    0.052334
   111  N   -0.324196
   112  C    0.078666
   113  C   -0.162740
   114  C    0.002237
   115  C    0.096364
   116  C    0.233568
   117  C    0.042530
   118  O   -0.187760
   119  C    0.035717
   120  C    0.211258
   121  O   -0.250850
   122  O   -0.305690
   123  C    0.298917
 Electronic spatial extent (au):  <R**2>=         201340.6594
 Charge=             -0.0000 electrons
 Dipole moment (field-independent basis, Debye):
    X=             -0.2251    Y=              6.9911    Z=             -2.5793  Tot=              7.4552
 Quadrupole moment (field-independent basis, Debye-Ang):
   XX=           -430.0737   YY=           -537.9668   ZZ=           -474.1860
   XY=            -18.9712   XZ=            -27.5777   YZ=             10.6856
 Traceless Quadrupole moment (field-independent basis, Debye-Ang):
   XX=             50.6685   YY=            -57.2246   ZZ=              6.5561
   XY=            -18.9712   XZ=            -27.5777   YZ=             10.6856
 Octapole moment (field-independent basis, Debye-Ang**2):
  XXX=           -306.9662  YYY=            315.4816  ZZZ=            141.9191  XYY=           -171.8911
  XXY=            732.4580  XXZ=            -78.1949  XZZ=            185.4435  YZZ=           -225.6142
  YYZ=           -190.6204  XYZ=           -302.6777
 Hexadecapole moment (field-independent basis, Debye-Ang**3):
 XXXX=        -200441.8633 YYYY=         -32814.5638 ZZZZ=         -28565.2864 XXXY=          -2975.9239
 XXXZ=          -4799.7555 YYYX=           -598.0624 YYYZ=           -101.2655 ZZZX=          -1445.7171
 ZZZY=            373.1856 XXYY=         -42402.2215 XXZZ=         -37196.6529 YYZZ=         -10548.9530
 XXYZ=           -111.4142 YYXZ=           -668.2431 ZZXY=           -181.0862
 N-N= 1.369136642616D+04 E-N=-3.686403822037D+04  KE= 4.028802051888D+03
 Leave Link  601 at Sat Sep 11 21:02:43 2021, MaxMem= 23488102400 cpu:              16.3 elap:               0.8
 (Enter /sw/apps/gaussian-16.0/g16/l9999.exe)
 1\1\GINC-BP1-COMPUTE00092\SP\RCAM-B3LYP TD-FC\def2SVP\C68H72Mg2N8O8\OF
 15641\11-Sep-2021\0\\#p cam-b3lyp/Def2SVP td=(nstates=5)\\TDDFT excite
 d states in gaussian\\0,1\Mg,0,0.,0.,0.\C,0,-0.217,-2.218,2.801\C,0,-1
 .255,2.442,2.026\C,0,-0.245,1.85,-2.564\C,0,0.146,-2.824,-2.037\N,0,-0
 .617,-0.009,2.126\C,0,-0.594,-0.908,3.105\C,0,-0.936,-0.309,4.502\C,0,
 -1.773,0.964,4.032\C,0,-1.155,1.168,2.66\C,0,-3.263,0.685,3.863\C,0,0.
 345,0.11,5.299\C,0,0.124,0.397,6.787\H,0,1.168,0.033,7.733\N,0,-0.185,
 1.961,-0.152\C,0,-0.703,2.8,0.777\C,0,-0.62,4.156,0.193\C,0,-0.187,4.0
 15,-1.225\C,0,-0.214,2.583,-1.38\C,0,-0.887,5.406,0.974\C,0,0.181,5.01
 3,-2.277\O,0,0.303,4.69,-3.508\C,0,0.31,6.414,-1.837\N,0,-0.265,-0.413
 ,-2.029\C,0,-0.279,0.569,-2.937\C,0,-0.196,0.024,-4.332\C,0,0.124,-1.5
 33,-4.18\C,0,0.086,-1.632,-2.635\C,0,-1.451,0.205,-5.197\C,0,1.373,-2.
 07,-4.923\C,0,2.626,-1.49,-4.306\N,0,0.15,-2.144,0.303\C,0,0.173,-3.13
 6,-0.688\C,0,0.173,-4.438,0.004\C,0,0.133,-4.111,1.358\C,0,0.083,-2.69
 5,1.502\C,0,0.149,-5.715,-0.623\C,0,0.096,-4.629,2.716\O,0,0.208,-5.74
 7,3.221\C,0,-0.255,-3.428,3.701\C,0,0.717,-3.482,4.848\O,0,1.931,-3.25
 5,4.669\O,0,0.038,-3.556,6.003\C,0,0.943,-3.583,7.183\H,0,-1.859,3.22,
 2.497\H,0,-0.218,2.453,-3.474\H,0,0.276,-3.747,-2.605\H,0,-1.554,-0.94
 9,5.132\H,0,-1.585,1.831,4.665\H,0,-3.484,-0.377,3.969\H,0,-3.511,1.02
 7,2.858\H,0,-3.852,1.301,4.543\H,0,0.669,1.096,4.966\H,0,1.13,-0.639,5
 .189\H,0,-0.844,0.026,7.125\H,0,0.062,1.477,6.921\H,0,-1.344,5.186,1.9
 38\H,0,-1.651,5.963,0.432\H,0,0.007,6.02,1.084\H,0,-0.635,6.744,-1.405
 \H,0,0.665,6.97,-2.704\H,0,1.048,6.466,-1.036\H,0,0.608,0.501,-4.891\H
 ,0,-0.692,-2.156,-4.547\H,0,-1.267,0.74,-6.129\H,0,-2.204,0.714,-4.596
 \H,0,-1.967,-0.72,-5.453\H,0,1.356,-1.759,-5.967\H,0,1.452,-3.157,-4.9
 02\H,0,2.714,-0.522,-4.798\H,0,3.487,-2.121,-4.529\H,0,2.495,-1.303,-3
 .24\H,0,0.867,-6.333,-0.084\H,0,0.404,-5.642,-1.68\H,0,-0.891,-5.999,-
 0.463\H,0,-1.283,-3.581,4.028\H,0,0.698,-4.478,7.755\H,0,0.833,-2.619,
 7.68\H,0,2.,-3.754,6.976\Mg,0,15.7635,1.42169,1.1877\C,0,17.50366,-1.1
 5152,-0.60938\C,0,17.57091,3.69008,-0.60739\C,0,14.58277,3.69517,3.059
 76\C,0,14.96362,-0.98299,3.58006\N,0,17.3069,1.17801,-0.3778\C,0,17.84
 301,0.15336,-1.02358\C,0,18.73476,0.54939,-2.23085\C,0,19.12406,2.0360
 4,-1.76481\C,0,17.91154,2.34278,-0.88823\C,0,20.3683,2.08727,-0.89385\
 C,0,17.93913,0.56121,-3.5832\C,0,18.8086,0.63614,-4.84024\H,0,18.37166
 ,-0.08462,-6.03275\N,0,15.65726,3.38441,0.91378\C,0,16.45596,4.14141,0
 .13257\C,0,15.97955,5.52426,0.29046\C,0,14.94013,5.54359,1.35533\C,0,1
 5.03669,4.18225,1.84269\C,0,16.45049,6.65171,-0.58159\C,0,14.02136,6.6
 1423,1.86107\O,0,13.3658,6.47797,2.95401\C,0,13.98315,7.86427,1.08813\
 N,0,15.07936,1.41757,3.15093\C,0,14.56852,2.52994,3.70734\C,0,13.8915,
 2.2211,5.02137\C,0,13.84282,0.62534,5.11496\C,0,14.61374,0.2725,3.824\
 C,0,14.57265,2.78326,6.26893\C,0,12.45072,-0.02399,5.34541\C,0,11.5763
 4,0.18464,4.12997\N,0,15.98656,-0.71904,1.37631\C,0,15.60509,-1.52307,
 2.47271\C,0,16.06472,-2.89737,2.18554\C,0,16.70705,-2.79214,0.94263\C,
 0,16.66933,-1.44335,0.49673\C,0,15.91096,-4.02238,3.04392\C,0,17.41772
 ,-3.51339,-0.0886\O,0,17.67609,-4.69762,-0.29972\C,0,18.07588,-2.45979
 ,-1.08015\C,0,17.76955,-2.89245,-2.4878\O,0,16.59874,-2.89676,-2.90707
 \O,0,18.92211,-3.02033,-3.17015\C,0,18.66966,-3.43728,-4.57523\H,0,18.
 24307,4.47736,-0.94982\H,0,14.06764,4.41949,3.69496\H,0,14.66726,-1.80
 852,4.2307\H,0,19.62984,-0.04924,-2.35015\H,0,19.16505,2.71718,-2.6108
 1\H,0,20.71892,1.09958,-0.63369\H,0,20.0826,2.63373,-0.00458\H,0,21.14
 398,2.68628,-1.37948\H,0,17.39809,1.51207,-3.67203\H,0,17.28375,-0.285
 57,-3.64708\H,0,19.86253,0.42114,-4.62586\H,0,18.81308,1.6686,-5.19804
 \H,0,17.33597,6.36742,-1.1634\H,0,16.80663,7.44444,0.08521\H,0,15.6573
 1,7.05324,-1.21587\H,0,14.98139,8.29345,1.04597\H,0,13.20445,8.47181,1
 .55332\H,0,13.69783,7.62921,0.05664\H,0,12.87878,2.60493,5.03423\H,0,1
 4.44555,0.24782,5.95403\H,0,13.91005,3.43081,6.87367\H,0,15.45619,3.32
 599,5.96018\H,0,14.98476,2.03699,6.94601\H,0,11.9406,0.46052,6.18159\H
 ,0,12.50044,-1.08436,5.56929\H,0,11.17384,1.19013,4.28517\H,0,10.78166
 ,-0.55798,4.09773\H,0,12.17629,0.20768,3.21281\H,0,15.60161,-4.85021,2
 .41982\H,0,15.18702,-3.82529,3.83185\H,0,16.92846,-4.11056,3.43404\H,0
 ,19.14795,-2.44687,-0.87996\H,0,19.24867,-4.35,-4.74659\H,0,18.92011,-
 2.5576,-5.19748\H,0,17.66975,-3.77073,-4.82712\\Version=ES64L-G16RevA.
 03\State=1-A\HF=-4069.8117776\RMSD=4.840e-09\PG=C01 [X(C68H72Mg2N8O8)]
 \\@


 YOU KNOW YOU'VE SPOKEN TOO LONG WHEN THE AUDIENCE STOPS LOOKING AT
 THEIR WATCHES AND STARTS SHAKING THEM.
 Job cpu time:       0 days 11 hours 45 minutes 37.7 seconds.
 Elapsed time:       0 days  0 hours 30 minutes  0.0 seconds.
 File lengths (MBytes):  RWF=  13225 Int=      0 D2E=      0 Chk=    574 Scr=      1
 Normal termination of Gaussian 16 at Sat Sep 11 21:02:44 2021.
