 Entering Gaussian System, Link 0=g16
 Initial command:
 /sw/apps/gaussian-16.0/g16/l1.exe "/tmp/Gau-217877.inp" -scrdir="/tmp/"
 Entering Link 1 = /sw/apps/gaussian-16.0/g16/l1.exe PID=    217878.
  
 Copyright (c) 1988,1990,1992,1993,1995,1998,2003,2009,2016,
            Gaussian, Inc.  All Rights Reserved.
  
 This is part of the Gaussian(R) 16 program.  It is based on
 the Gaussian(R) 09 system (copyright 2009, Gaussian, Inc.),
 the Gaussian(R) 03 system (copyright 2003, Gaussian, Inc.),
 the Gaussian(R) 98 system (copyright 1998, Gaussian, Inc.),
 the Gaussian(R) 94 system (copyright 1995, Gaussian, Inc.),
 the Gaussian 92(TM) system (copyright 1992, Gaussian, Inc.),
 the Gaussian 90(TM) system (copyright 1990, Gaussian, Inc.),
 the Gaussian 88(TM) system (copyright 1988, Gaussian, Inc.),
 the Gaussian 86(TM) system (copyright 1986, Carnegie Mellon
 University), and the Gaussian 82(TM) system (copyright 1983,
 Carnegie Mellon University). Gaussian is a federally registered
 trademark of Gaussian, Inc.
  
 This software contains proprietary and confidential information,
 including trade secrets, belonging to Gaussian, Inc.
  
 This software is provided under written license and may be
 used, copied, transmitted, or stored only in accord with that
 written license.
  
 The following legend is applicable only to US Government
 contracts under FAR:
  
                    RESTRICTED RIGHTS LEGEND
  
 Use, reproduction and disclosure by the US Government is
 subject to restrictions as set forth in subparagraphs (a)
 and (c) of the Commercial Computer Software - Restricted
 Rights clause in FAR 52.227-19.
  
 Gaussian, Inc.
 340 Quinnipiac St., Bldg. 40, Wallingford CT 06492
  
  
 ---------------------------------------------------------------
 Warning -- This program may not be used in any manner that
 competes with the business of Gaussian, Inc. or will provide
 assistance to any competitor of Gaussian, Inc.  The licensee
 of this program is prohibited from giving any competitor of
 Gaussian, Inc. access to this program.  By using this program,
 the user acknowledges that Gaussian, Inc. is engaged in the
 business of creating and licensing software in the field of
 computational chemistry and represents and warrants to the
 licensee that it is not a competitor of Gaussian, Inc. and that
 it will not use this program in any manner prohibited above.
 ---------------------------------------------------------------
  

 Cite this work as:
 Gaussian 16, Revision A.03,
 M. J. Frisch, G. W. Trucks, H. B. Schlegel, G. E. Scuseria, 
 M. A. Robb, J. R. Cheeseman, G. Scalmani, V. Barone, 
 G. A. Petersson, H. Nakatsuji, X. Li, M. Caricato, A. V. Marenich, 
 J. Bloino, B. G. Janesko, R. Gomperts, B. Mennucci, H. P. Hratchian, 
 J. V. Ortiz, A. F. Izmaylov, J. L. Sonnenberg, D. Williams-Young, 
 F. Ding, F. Lipparini, F. Egidi, J. Goings, B. Peng, A. Petrone, 
 T. Henderson, D. Ranasinghe, V. G. Zakrzewski, J. Gao, N. Rega, 
 G. Zheng, W. Liang, M. Hada, M. Ehara, K. Toyota, R. Fukuda, 
 J. Hasegawa, M. Ishida, T. Nakajima, Y. Honda, O. Kitao, H. Nakai, 
 T. Vreven, K. Throssell, J. A. Montgomery, Jr., J. E. Peralta, 
 F. Ogliaro, M. J. Bearpark, J. J. Heyd, E. N. Brothers, K. N. Kudin, 
 V. N. Staroverov, T. A. Keith, R. Kobayashi, J. Normand, 
 K. Raghavachari, A. P. Rendell, J. C. Burant, S. S. Iyengar, 
 J. Tomasi, M. Cossi, J. M. Millam, M. Klene, C. Adamo, R. Cammi, 
 J. W. Ochterski, R. L. Martin, K. Morokuma, O. Farkas, 
 J. B. Foresman, and D. J. Fox, Gaussian, Inc., Wallingford CT, 2016.
 
 ******************************************
 Gaussian 16:  ES64L-G16RevA.03 25-Dec-2016
                11-Sep-2021 
 ******************************************
 %nproc=24
 Will use up to   24 processors via shared memory.
 %mem=175gb
 -----------------------------------
 #p cam-b3lyp/Def2SVP td=(nstates=5)
 -----------------------------------
 1/38=1,172=1/1;
 2/12=2,17=6,18=5,40=1/2;
 3/5=43,7=101,11=9,25=1,30=1,74=-40/1,2,3,8;
 4//1;
 5/5=2,38=5/2;
 8/6=1,10=1,108=5/1;
 9/41=5,42=1,70=2/14;
 6/7=2,8=2,9=2,10=2/1;
 99/5=1,9=1/99;
 Leave Link    1 at Sat Sep 11 22:46:32 2021, MaxMem= 23488102400 cpu:               0.9 elap:               0.0
 (Enter /sw/apps/gaussian-16.0/g16/l101.exe)
 --------------------------------
 TDDFT excited states in gaussian
 --------------------------------
 Symbolic Z-matrix:
 Charge =  0 Multiplicity = 1
 Mg                    0.        0.        0. 
 C                    -0.217    -2.218     2.801 
 C                    -1.255     2.442     2.026 
 C                    -0.245     1.85     -2.564 
 C                     0.146    -2.824    -2.037 
 N                    -0.617    -0.009     2.126 
 C                    -0.594    -0.908     3.105 
 C                    -0.936    -0.309     4.502 
 C                    -1.773     0.964     4.032 
 C                    -1.155     1.168     2.66 
 C                    -3.263     0.685     3.863 
 C                     0.345     0.11      5.299 
 C                     0.124     0.397     6.787 
 H                     1.168     0.033     7.733 
 N                    -0.185     1.961    -0.152 
 C                    -0.703     2.8       0.777 
 C                    -0.62      4.156     0.193 
 C                    -0.187     4.015    -1.225 
 C                    -0.214     2.583    -1.38 
 C                    -0.887     5.406     0.974 
 C                     0.181     5.013    -2.277 
 O                     0.303     4.69     -3.508 
 C                     0.31      6.414    -1.837 
 N                    -0.265    -0.413    -2.029 
 C                    -0.279     0.569    -2.937 
 C                    -0.196     0.024    -4.332 
 C                     0.124    -1.533    -4.18 
 C                     0.086    -1.632    -2.635 
 C                    -1.451     0.205    -5.197 
 C                     1.373    -2.07     -4.923 
 C                     2.626    -1.49     -4.306 
 N                     0.15     -2.144     0.303 
 C                     0.173    -3.136    -0.688 
 C                     0.173    -4.438     0.004 
 C                     0.133    -4.111     1.358 
 C                     0.083    -2.695     1.502 
 C                     0.149    -5.715    -0.623 
 C                     0.096    -4.629     2.716 
 O                     0.208    -5.747     3.221 
 C                    -0.255    -3.428     3.701 
 C                     0.717    -3.482     4.848 
 O                     1.931    -3.255     4.669 
 O                     0.038    -3.556     6.003 
 C                     0.943    -3.583     7.183 
 H                    -1.859     3.22      2.497 
 H                    -0.218     2.453    -3.474 
 H                     0.276    -3.747    -2.605 
 H                    -1.554    -0.949     5.132 
 H                    -1.585     1.831     4.665 
 H                    -3.484    -0.377     3.969 
 H                    -3.511     1.027     2.858 
 H                    -3.852     1.301     4.543 
 H                     0.669     1.096     4.966 
 H                     1.13     -0.639     5.189 
 H                    -0.844     0.026     7.125 
 H                     0.062     1.477     6.921 
 H                    -1.344     5.186     1.938 
 H                    -1.651     5.963     0.432 
 H                     0.007     6.02      1.084 
 H                    -0.635     6.744    -1.405 
 H                     0.665     6.97     -2.704 
 H                     1.048     6.466    -1.036 
 H                     0.608     0.501    -4.891 
 H                    -0.692    -2.156    -4.547 
 H                    -1.267     0.74     -6.129 
 H                    -2.204     0.714    -4.596 
 H                    -1.967    -0.72     -5.453 
 H                     1.356    -1.759    -5.967 
 H                     1.452    -3.157    -4.902 
 H                     2.714    -0.522    -4.798 
 H                     3.487    -2.121    -4.529 
 H                     2.495    -1.303    -3.24 
 H                     0.867    -6.333    -0.084 
 H                     0.404    -5.642    -1.68 
 H                    -0.891    -5.999    -0.463 
 H                    -1.283    -3.581     4.028 
 H                     0.698    -4.478     7.755 
 H                     0.833    -2.619     7.68 
 H                     2.       -3.754     6.976 
 Mg                    15.77421   1.41824   1.19073 
 C                     15.44137   4.43096  -0.73068 
 C                     15.26659  -0.30849  -1.70674 
 C                     15.61314  -1.23815   2.91847 
 C                     15.11757   3.32378   4.03387 
 N                     15.41281   2.08703  -0.88638 
 C                     15.36874   3.25599  -1.50761 
 C                     15.32027   3.15998  -3.05616 
 C                     14.69792   1.68532  -3.18629 
 C                     15.18144   1.09821  -1.86184 
 C                     13.17833   1.67145  -3.18846 
 C                     16.74663   3.24079  -3.70498 
 C                     16.75278   3.46399  -5.21888 
 H                     17.81165   4.28695  -5.7968 
 N                     15.97013  -0.48061   0.64801 
 C                     15.74492  -1.00475  -0.57504 
 C                     16.01087  -2.44622  -0.4502 
 C                     16.25174  -2.75618   0.98529 
 C                     15.92672  -1.47938   1.5888 
 C                     16.09714  -3.36339  -1.63544 
 C                     16.68841  -4.00003   1.69829 
 O                     16.60255  -4.1112    2.9723 
 C                     17.13199  -5.11851   0.85347 
 N                     15.20987   1.0472    3.15699 
 C                     15.2823  -0.19148   3.67501 
 C                     15.09156  -0.16837   5.17283 
 C                     15.11689   1.37655   5.58536 
 C                     15.23369   2.01127   4.18219 
 C                     13.80497  -0.81182   5.68961 
 C                     16.14115   1.79743   6.67459 
 C                     17.54877   1.65502   6.14194 
 N                     15.53582   3.51937   1.63399 
 C                     15.23979   4.09846   2.88743 
 C                     15.06145   5.54815   2.66604 
 C                     15.24484   5.70983   1.28447 
 C                     15.49821   4.44701   0.68398 
 C                     14.72312   6.50646   3.66268 
 C                     15.27119   6.66017   0.19596 
 O                     15.2095   7.88605   0.11137 
 C                     15.27437   5.85734  -1.17584 
 C                     16.34246   6.44617  -2.05616 
 O                     17.54194   6.35797  -1.73978 
 O                     15.79239   6.82179  -3.22522 
 C                     16.81449   7.40189  -4.13659 
 H                     14.89288  -0.94271  -2.5111 
 H                     15.65345  -2.10831   3.57777 
 H                     15.00776   3.99992   4.88443 
 H                     14.67002   3.88164  -3.5359 
 H                     15.1324   1.14573  -4.0238 
 H                     12.76622   2.64814  -2.98261 
 H                     12.88946   0.96883  -2.4178 
 H                     12.80649   1.25626  -4.12956 
 H                     17.21747   2.25035  -3.65917 
 H                     17.34085   3.99462  -3.22616 
 H                     15.77183   3.78173  -5.59267 
 H                     16.92884   2.50411  -5.71045 
 H                     15.71208  -2.88399  -2.5439 
 H                     15.40392  -4.19108  -1.45039 
 H                     17.10051  -3.76884  -1.78213 
 H                     16.32787  -5.40249   0.17877 
 H                     17.48848  -5.88395   1.54548 
 H                     17.9625  -4.7754    0.22646 
 H                     15.90442  -0.67932   5.67412 
 H                     14.15161   1.70373   5.9989 
 H                     13.98542  -1.62158   6.42159 
 H                     13.24479  -1.1834    4.84187 
 H                     13.09768  -0.12443   6.15053 
 H                     16.06807   1.13389   7.53976 
 H                     15.9981   2.81126   7.0333 
 H                     17.76495   0.59368   6.29661 
 H                     18.23643   2.28385   6.70383 
 H                     17.58223   1.84437   5.06274 
 H                     15.35441   7.36849   3.49276 
 H                     14.85988   6.10377   4.66413 
 H                     13.66822   6.66951   3.42635 
 H                     14.28111   5.95601  -1.61546 
 H                     16.46069   8.39774  -4.42086 
 H                     16.94432   6.66251  -4.94913 
 H                     17.78611   7.63452  -3.71672 
 
 ITRead=  0  0  0  0  0  0  0  0  0  0  0  0  0  0  0  0  0  0  0  0
 ITRead=  0  0  0  0  0  0  0  0  0  0  0  0  0  0  0  0  0  0  0  0
 ITRead=  0  0  0  0  0  0  0  0  0  0  0  0  0  0  0  0  0  0  0  0
 ITRead=  0  0  0  0  0  0  0  0  0  0  0  0  0  0  0  0  0  0  0  0
 ITRead=  0  0  0  0  0  0  0  0  0  0  0  0  0  0  0  0  0  0  0  0
 ITRead=  0  0  0  0  0  0  0  0  0  0  0  0  0  0  0  0  0  0  0  0
 ITRead=  0  0  0  0  0  0  0  0  0  0  0  0  0  0  0  0  0  0  0  0
 ITRead=  0  0  0  0  0  0  0  0  0  0  0  0  0  0  0  0  0  0
 MicOpt= -1 -1 -1 -1 -1 -1 -1 -1 -1 -1 -1 -1 -1 -1 -1 -1 -1 -1 -1 -1
 MicOpt= -1 -1 -1 -1 -1 -1 -1 -1 -1 -1 -1 -1 -1 -1 -1 -1 -1 -1 -1 -1
 MicOpt= -1 -1 -1 -1 -1 -1 -1 -1 -1 -1 -1 -1 -1 -1 -1 -1 -1 -1 -1 -1
 MicOpt= -1 -1 -1 -1 -1 -1 -1 -1 -1 -1 -1 -1 -1 -1 -1 -1 -1 -1 -1 -1
 MicOpt= -1 -1 -1 -1 -1 -1 -1 -1 -1 -1 -1 -1 -1 -1 -1 -1 -1 -1 -1 -1
 MicOpt= -1 -1 -1 -1 -1 -1 -1 -1 -1 -1 -1 -1 -1 -1 -1 -1 -1 -1 -1 -1
 MicOpt= -1 -1 -1 -1 -1 -1 -1 -1 -1 -1 -1 -1 -1 -1 -1 -1 -1 -1 -1 -1
 MicOpt= -1 -1 -1 -1 -1 -1 -1 -1 -1 -1 -1 -1 -1 -1 -1 -1 -1 -1
 NAtoms=    158 NQM=      158 NQMF=       0 NMMI=      0 NMMIF=      0
                NMic=       0 NMicF=      0.
                    Isotopes and Nuclear Properties:
 (Nuclear quadrupole moments (NQMom) in fm**2, nuclear magnetic moments (NMagM)
  in nuclear magnetons)

  Atom         1           2           3           4           5           6           7           8           9          10
 IAtWgt=          24          12          12          12          12          14          12          12          12          12
 AtmWgt=  23.9850450  12.0000000  12.0000000  12.0000000  12.0000000  14.0030740  12.0000000  12.0000000  12.0000000  12.0000000
 NucSpn=           0           0           0           0           0           2           0           0           0           0
 AtZEff=  -0.0000000  -0.0000000  -0.0000000  -0.0000000  -0.0000000  -0.0000000  -0.0000000  -0.0000000  -0.0000000  -0.0000000
 NQMom=    0.0000000   0.0000000   0.0000000   0.0000000   0.0000000   2.0440000   0.0000000   0.0000000   0.0000000   0.0000000
 NMagM=    0.0000000   0.0000000   0.0000000   0.0000000   0.0000000   0.4037610   0.0000000   0.0000000   0.0000000   0.0000000
 AtZNuc=  12.0000000   6.0000000   6.0000000   6.0000000   6.0000000   7.0000000   6.0000000   6.0000000   6.0000000   6.0000000

  Atom        11          12          13          14          15          16          17          18          19          20
 IAtWgt=          12          12          12           1          14          12          12          12          12          12
 AtmWgt=  12.0000000  12.0000000  12.0000000   1.0078250  14.0030740  12.0000000  12.0000000  12.0000000  12.0000000  12.0000000
 NucSpn=           0           0           0           1           2           0           0           0           0           0
 AtZEff=  -0.0000000  -0.0000000  -0.0000000  -0.0000000  -0.0000000  -0.0000000  -0.0000000  -0.0000000  -0.0000000  -0.0000000
 NQMom=    0.0000000   0.0000000   0.0000000   0.0000000   2.0440000   0.0000000   0.0000000   0.0000000   0.0000000   0.0000000
 NMagM=    0.0000000   0.0000000   0.0000000   2.7928460   0.4037610   0.0000000   0.0000000   0.0000000   0.0000000   0.0000000
 AtZNuc=   6.0000000   6.0000000   6.0000000   1.0000000   7.0000000   6.0000000   6.0000000   6.0000000   6.0000000   6.0000000

  Atom        21          22          23          24          25          26          27          28          29          30
 IAtWgt=          12          16          12          14          12          12          12          12          12          12
 AtmWgt=  12.0000000  15.9949146  12.0000000  14.0030740  12.0000000  12.0000000  12.0000000  12.0000000  12.0000000  12.0000000
 NucSpn=           0           0           0           2           0           0           0           0           0           0
 AtZEff=  -0.0000000  -0.0000000  -0.0000000  -0.0000000  -0.0000000  -0.0000000  -0.0000000  -0.0000000  -0.0000000  -0.0000000
 NQMom=    0.0000000   0.0000000   0.0000000   2.0440000   0.0000000   0.0000000   0.0000000   0.0000000   0.0000000   0.0000000
 NMagM=    0.0000000   0.0000000   0.0000000   0.4037610   0.0000000   0.0000000   0.0000000   0.0000000   0.0000000   0.0000000
 AtZNuc=   6.0000000   8.0000000   6.0000000   7.0000000   6.0000000   6.0000000   6.0000000   6.0000000   6.0000000   6.0000000

  Atom        31          32          33          34          35          36          37          38          39          40
 IAtWgt=          12          14          12          12          12          12          12          12          16          12
 AtmWgt=  12.0000000  14.0030740  12.0000000  12.0000000  12.0000000  12.0000000  12.0000000  12.0000000  15.9949146  12.0000000
 NucSpn=           0           2           0           0           0           0           0           0           0           0
 AtZEff=  -0.0000000  -0.0000000  -0.0000000  -0.0000000  -0.0000000  -0.0000000  -0.0000000  -0.0000000  -0.0000000  -0.0000000
 NQMom=    0.0000000   2.0440000   0.0000000   0.0000000   0.0000000   0.0000000   0.0000000   0.0000000   0.0000000   0.0000000
 NMagM=    0.0000000   0.4037610   0.0000000   0.0000000   0.0000000   0.0000000   0.0000000   0.0000000   0.0000000   0.0000000
 AtZNuc=   6.0000000   7.0000000   6.0000000   6.0000000   6.0000000   6.0000000   6.0000000   6.0000000   8.0000000   6.0000000

  Atom        41          42          43          44          45          46          47          48          49          50
 IAtWgt=          12          16          16          12           1           1           1           1           1           1
 AtmWgt=  12.0000000  15.9949146  15.9949146  12.0000000   1.0078250   1.0078250   1.0078250   1.0078250   1.0078250   1.0078250
 NucSpn=           0           0           0           0           1           1           1           1           1           1
 AtZEff=  -0.0000000  -0.0000000  -0.0000000  -0.0000000  -0.0000000  -0.0000000  -0.0000000  -0.0000000  -0.0000000  -0.0000000
 NQMom=    0.0000000   0.0000000   0.0000000   0.0000000   0.0000000   0.0000000   0.0000000   0.0000000   0.0000000   0.0000000
 NMagM=    0.0000000   0.0000000   0.0000000   0.0000000   2.7928460   2.7928460   2.7928460   2.7928460   2.7928460   2.7928460
 AtZNuc=   6.0000000   8.0000000   8.0000000   6.0000000   1.0000000   1.0000000   1.0000000   1.0000000   1.0000000   1.0000000

  Atom        51          52          53          54          55          56          57          58          59          60
 IAtWgt=           1           1           1           1           1           1           1           1           1           1
 AtmWgt=   1.0078250   1.0078250   1.0078250   1.0078250   1.0078250   1.0078250   1.0078250   1.0078250   1.0078250   1.0078250
 NucSpn=           1           1           1           1           1           1           1           1           1           1
 AtZEff=  -0.0000000  -0.0000000  -0.0000000  -0.0000000  -0.0000000  -0.0000000  -0.0000000  -0.0000000  -0.0000000  -0.0000000
 NQMom=    0.0000000   0.0000000   0.0000000   0.0000000   0.0000000   0.0000000   0.0000000   0.0000000   0.0000000   0.0000000
 NMagM=    2.7928460   2.7928460   2.7928460   2.7928460   2.7928460   2.7928460   2.7928460   2.7928460   2.7928460   2.7928460
 AtZNuc=   1.0000000   1.0000000   1.0000000   1.0000000   1.0000000   1.0000000   1.0000000   1.0000000   1.0000000   1.0000000

  Atom        61          62          63          64          65          66          67          68          69          70
 IAtWgt=           1           1           1           1           1           1           1           1           1           1
 AtmWgt=   1.0078250   1.0078250   1.0078250   1.0078250   1.0078250   1.0078250   1.0078250   1.0078250   1.0078250   1.0078250
 NucSpn=           1           1           1           1           1           1           1           1           1           1
 AtZEff=  -0.0000000  -0.0000000  -0.0000000  -0.0000000  -0.0000000  -0.0000000  -0.0000000  -0.0000000  -0.0000000  -0.0000000
 NQMom=    0.0000000   0.0000000   0.0000000   0.0000000   0.0000000   0.0000000   0.0000000   0.0000000   0.0000000   0.0000000
 NMagM=    2.7928460   2.7928460   2.7928460   2.7928460   2.7928460   2.7928460   2.7928460   2.7928460   2.7928460   2.7928460
 AtZNuc=   1.0000000   1.0000000   1.0000000   1.0000000   1.0000000   1.0000000   1.0000000   1.0000000   1.0000000   1.0000000

  Atom        71          72          73          74          75          76          77          78          79          80
 IAtWgt=           1           1           1           1           1           1           1           1           1          24
 AtmWgt=   1.0078250   1.0078250   1.0078250   1.0078250   1.0078250   1.0078250   1.0078250   1.0078250   1.0078250  23.9850450
 NucSpn=           1           1           1           1           1           1           1           1           1           0
 AtZEff=  -0.0000000  -0.0000000  -0.0000000  -0.0000000  -0.0000000  -0.0000000  -0.0000000  -0.0000000  -0.0000000  -0.0000000
 NQMom=    0.0000000   0.0000000   0.0000000   0.0000000   0.0000000   0.0000000   0.0000000   0.0000000   0.0000000   0.0000000
 NMagM=    2.7928460   2.7928460   2.7928460   2.7928460   2.7928460   2.7928460   2.7928460   2.7928460   2.7928460   0.0000000
 AtZNuc=   1.0000000   1.0000000   1.0000000   1.0000000   1.0000000   1.0000000   1.0000000   1.0000000   1.0000000  12.0000000

  Atom        81          82          83          84          85          86          87          88          89          90
 IAtWgt=          12          12          12          12          14          12          12          12          12          12
 AtmWgt=  12.0000000  12.0000000  12.0000000  12.0000000  14.0030740  12.0000000  12.0000000  12.0000000  12.0000000  12.0000000
 NucSpn=           0           0           0           0           2           0           0           0           0           0
 AtZEff=  -0.0000000  -0.0000000  -0.0000000  -0.0000000  -0.0000000  -0.0000000  -0.0000000  -0.0000000  -0.0000000  -0.0000000
 NQMom=    0.0000000   0.0000000   0.0000000   0.0000000   2.0440000   0.0000000   0.0000000   0.0000000   0.0000000   0.0000000
 NMagM=    0.0000000   0.0000000   0.0000000   0.0000000   0.4037610   0.0000000   0.0000000   0.0000000   0.0000000   0.0000000
 AtZNuc=   6.0000000   6.0000000   6.0000000   6.0000000   7.0000000   6.0000000   6.0000000   6.0000000   6.0000000   6.0000000

  Atom        91          92          93          94          95          96          97          98          99         100
 IAtWgt=          12          12           1          14          12          12          12          12          12          12
 AtmWgt=  12.0000000  12.0000000   1.0078250  14.0030740  12.0000000  12.0000000  12.0000000  12.0000000  12.0000000  12.0000000
 NucSpn=           0           0           1           2           0           0           0           0           0           0
 AtZEff=  -0.0000000  -0.0000000  -0.0000000  -0.0000000  -0.0000000  -0.0000000  -0.0000000  -0.0000000  -0.0000000  -0.0000000
 NQMom=    0.0000000   0.0000000   0.0000000   2.0440000   0.0000000   0.0000000   0.0000000   0.0000000   0.0000000   0.0000000
 NMagM=    0.0000000   0.0000000   2.7928460   0.4037610   0.0000000   0.0000000   0.0000000   0.0000000   0.0000000   0.0000000
 AtZNuc=   6.0000000   6.0000000   1.0000000   7.0000000   6.0000000   6.0000000   6.0000000   6.0000000   6.0000000   6.0000000

  Atom       101         102         103         104         105         106         107         108         109         110
 IAtWgt=          16          12          14          12          12          12          12          12          12          12
 AtmWgt=  15.9949146  12.0000000  14.0030740  12.0000000  12.0000000  12.0000000  12.0000000  12.0000000  12.0000000  12.0000000
 NucSpn=           0           0           2           0           0           0           0           0           0           0
 AtZEff=  -0.0000000  -0.0000000  -0.0000000  -0.0000000  -0.0000000  -0.0000000  -0.0000000  -0.0000000  -0.0000000  -0.0000000
 NQMom=    0.0000000   0.0000000   2.0440000   0.0000000   0.0000000   0.0000000   0.0000000   0.0000000   0.0000000   0.0000000
 NMagM=    0.0000000   0.0000000   0.4037610   0.0000000   0.0000000   0.0000000   0.0000000   0.0000000   0.0000000   0.0000000
 AtZNuc=   8.0000000   6.0000000   7.0000000   6.0000000   6.0000000   6.0000000   6.0000000   6.0000000   6.0000000   6.0000000

  Atom       111         112         113         114         115         116         117         118         119         120
 IAtWgt=          14          12          12          12          12          12          12          16          12          12
 AtmWgt=  14.0030740  12.0000000  12.0000000  12.0000000  12.0000000  12.0000000  12.0000000  15.9949146  12.0000000  12.0000000
 NucSpn=           2           0           0           0           0           0           0           0           0           0
 AtZEff=  -0.0000000  -0.0000000  -0.0000000  -0.0000000  -0.0000000  -0.0000000  -0.0000000  -0.0000000  -0.0000000  -0.0000000
 NQMom=    2.0440000   0.0000000   0.0000000   0.0000000   0.0000000   0.0000000   0.0000000   0.0000000   0.0000000   0.0000000
 NMagM=    0.4037610   0.0000000   0.0000000   0.0000000   0.0000000   0.0000000   0.0000000   0.0000000   0.0000000   0.0000000
 AtZNuc=   7.0000000   6.0000000   6.0000000   6.0000000   6.0000000   6.0000000   6.0000000   8.0000000   6.0000000   6.0000000

  Atom       121         122         123         124         125         126         127         128         129         130
 IAtWgt=          16          16          12           1           1           1           1           1           1           1
 AtmWgt=  15.9949146  15.9949146  12.0000000   1.0078250   1.0078250   1.0078250   1.0078250   1.0078250   1.0078250   1.0078250
 NucSpn=           0           0           0           1           1           1           1           1           1           1
 AtZEff=  -0.0000000  -0.0000000  -0.0000000  -0.0000000  -0.0000000  -0.0000000  -0.0000000  -0.0000000  -0.0000000  -0.0000000
 NQMom=    0.0000000   0.0000000   0.0000000   0.0000000   0.0000000   0.0000000   0.0000000   0.0000000   0.0000000   0.0000000
 NMagM=    0.0000000   0.0000000   0.0000000   2.7928460   2.7928460   2.7928460   2.7928460   2.7928460   2.7928460   2.7928460
 AtZNuc=   8.0000000   8.0000000   6.0000000   1.0000000   1.0000000   1.0000000   1.0000000   1.0000000   1.0000000   1.0000000

  Atom       131         132         133         134         135         136         137         138         139         140
 IAtWgt=           1           1           1           1           1           1           1           1           1           1
 AtmWgt=   1.0078250   1.0078250   1.0078250   1.0078250   1.0078250   1.0078250   1.0078250   1.0078250   1.0078250   1.0078250
 NucSpn=           1           1           1           1           1           1           1           1           1           1
 AtZEff=  -0.0000000  -0.0000000  -0.0000000  -0.0000000  -0.0000000  -0.0000000  -0.0000000  -0.0000000  -0.0000000  -0.0000000
 NQMom=    0.0000000   0.0000000   0.0000000   0.0000000   0.0000000   0.0000000   0.0000000   0.0000000   0.0000000   0.0000000
 NMagM=    2.7928460   2.7928460   2.7928460   2.7928460   2.7928460   2.7928460   2.7928460   2.7928460   2.7928460   2.7928460
 AtZNuc=   1.0000000   1.0000000   1.0000000   1.0000000   1.0000000   1.0000000   1.0000000   1.0000000   1.0000000   1.0000000

  Atom       141         142         143         144         145         146         147         148         149         150
 IAtWgt=           1           1           1           1           1           1           1           1           1           1
 AtmWgt=   1.0078250   1.0078250   1.0078250   1.0078250   1.0078250   1.0078250   1.0078250   1.0078250   1.0078250   1.0078250
 NucSpn=           1           1           1           1           1           1           1           1           1           1
 AtZEff=  -0.0000000  -0.0000000  -0.0000000  -0.0000000  -0.0000000  -0.0000000  -0.0000000  -0.0000000  -0.0000000  -0.0000000
 NQMom=    0.0000000   0.0000000   0.0000000   0.0000000   0.0000000   0.0000000   0.0000000   0.0000000   0.0000000   0.0000000
 NMagM=    2.7928460   2.7928460   2.7928460   2.7928460   2.7928460   2.7928460   2.7928460   2.7928460   2.7928460   2.7928460
 AtZNuc=   1.0000000   1.0000000   1.0000000   1.0000000   1.0000000   1.0000000   1.0000000   1.0000000   1.0000000   1.0000000

  Atom       151         152         153         154         155         156         157         158
 IAtWgt=           1           1           1           1           1           1           1           1
 AtmWgt=   1.0078250   1.0078250   1.0078250   1.0078250   1.0078250   1.0078250   1.0078250   1.0078250
 NucSpn=           1           1           1           1           1           1           1           1
 AtZEff=  -0.0000000  -0.0000000  -0.0000000  -0.0000000  -0.0000000  -0.0000000  -0.0000000  -0.0000000
 NQMom=    0.0000000   0.0000000   0.0000000   0.0000000   0.0000000   0.0000000   0.0000000   0.0000000
 NMagM=    2.7928460   2.7928460   2.7928460   2.7928460   2.7928460   2.7928460   2.7928460   2.7928460
 AtZNuc=   1.0000000   1.0000000   1.0000000   1.0000000   1.0000000   1.0000000   1.0000000   1.0000000
 Leave Link  101 at Sat Sep 11 22:46:32 2021, MaxMem= 23488102400 cpu:               3.5 elap:               0.2
 (Enter /sw/apps/gaussian-16.0/g16/l202.exe)
 Stoichiometry    C68H72Mg2N8O8
 Framework group  C1[X(C68H72Mg2N8O8)]
 Deg. of freedom   468
 Full point group                 C1      NOp   1
 Largest Abelian subgroup         C1      NOp   1
 Largest concise Abelian subgroup C1      NOp   1
                         Standard orientation:                         
 ---------------------------------------------------------------------
 Center     Atomic      Atomic             Coordinates (Angstroms)
 Number     Number       Type             X           Y           Z
 ---------------------------------------------------------------------
      1         12           0        7.799714    0.923268    0.209219
      2          6           0        8.428743   -2.576854   -0.197823
      3          6           0        8.668010    1.308788   -3.068051
      4          6           0        7.691202    4.060089    0.662210
      5          6           0        8.087979    0.424981    3.646409
      6          7           0        8.446116   -0.526411   -1.333908
      7          6           0        8.588981   -1.847327   -1.377975
      8          6           0        8.851106   -2.392844   -2.813620
      9          6           0        9.457767   -1.075811   -3.476482
     10          6           0        8.791065   -0.032301   -2.597551
     11          6           0       10.970267   -0.956134   -3.319888
     12          6           0        7.532316   -2.839419   -3.529926
     13          6           0        7.728307   -3.679668   -4.795202
     14          1           0        6.775317   -4.740074   -5.086229
     15          7           0        7.655093    2.401590   -1.093278
     16          6           0        8.043023    2.378345   -2.391067
     17          6           0        7.726810    3.716557   -2.935015
     18          6           0        7.298819    4.579833   -1.799377
     19          6           0        7.559696    3.711447   -0.679900
     20          6           0        7.796698    4.049329   -4.393825
     21          6           0        6.752768    5.971064   -1.732770
     22          8           0        6.664767    6.615225   -0.631912
     23          6           0        6.401335    6.601093   -3.018305
     24          7           0        8.094508    2.126427    1.889439
     25          6           0        7.930255    3.452322    1.826134
     26          6           0        7.914623    4.066523    3.194510
     27          6           0        7.859286    2.848246    4.225284
     28          6           0        7.939666    1.678910    3.213127
     29          6           0        9.107342    4.970262    3.536107
     30          6           0        6.703768    2.852291    5.257361
     31          6           0        5.382861    2.648669    4.549660
     32          7           0        8.011716   -0.784302    1.532210
     33          6           0        8.136138   -0.758500    2.928823
     34          6           0        8.363428   -2.147572    3.368009
     35          6           0        8.372022   -2.887522    2.187227
     36          6           0        8.189531   -2.012414    1.078545
     37          6           0        8.587598   -2.572002    4.707427
     38          6           0        8.517526   -4.210661    1.602429
     39          8           0        8.600723   -5.353849    2.053751
     40          6           0        8.681854   -4.046866    0.026994
     41          6           0        7.752025   -5.029241   -0.631538
     42          8           0        6.514306   -4.900211   -0.537884
     43          8           0        8.453643   -5.820370   -1.457606
     44          6           0        7.585980   -6.799293   -2.165438
     45          1           0        9.142970    1.582587   -4.012185
     46          1           0        7.549189    5.122068    0.873094
     47          1           0        8.102740    0.181610    4.710367
     48          1           0        9.577199   -3.204309   -2.865938
     49          1           0        9.139816   -0.957999   -4.512218
     50          1           0       11.365709   -1.732702   -2.665297
     51          1           0       11.140973    0.029831   -2.887193
     52          1           0       11.460826   -0.945080   -4.293545
     53          1           0        7.043984   -1.965622   -3.961287
     54          1           0        6.880279   -3.374895   -2.838956
     55          1           0        8.750007   -4.052770   -4.871591
     56          1           0        7.613066   -3.026474   -5.660220
     57          1           0        8.300284    3.266423   -4.959517
     58          1           0        8.448597    4.917191   -4.491560
     59          1           0        6.815459    4.277876   -4.810079
     60          1           0        7.285994    6.638863   -3.654310
     61          1           0        5.944406    7.558166   -2.769154
     62          1           0        5.678768    5.969071   -3.535406
     63          1           0        7.033307    4.691543    3.332563
     64          1           0        8.760687    2.787583    4.835586
     65          1           0        8.821388    5.981286    3.827252
     66          1           0        9.775962    4.985374    2.675870
     67          1           0        9.764792    4.584565    4.314833
     68          1           0        6.651151    3.815425    5.763869
     69          1           0        6.806066    2.081141    6.020979
     70          1           0        5.127489    3.654077    4.216835
     71          1           0        4.634420    2.265390    5.244026
     72          1           0        5.499404    2.030460    3.659311
     73          1           0        7.991099   -3.473712    4.845551
     74          1           0        8.305922   -1.797618    5.420583
     75          1           0        9.662844   -2.748755    4.685964
     76          1           0        9.726462   -4.254816   -0.202512
     77          1           0        7.985461   -7.791844   -1.956891
     78          1           0        7.543495   -6.479499   -3.206750
     79          1           0        6.568440   -6.903334   -1.787116
     80         12           0       -7.968950   -0.969052    0.056491
     81          6           0       -8.172174    2.516876   -0.771810
     82          6           0       -7.232481   -0.014736    3.247337
     83          6           0       -7.340973   -4.008721    0.714898
     84          6           0       -7.587892   -1.613163   -3.347275
     85          7           0       -7.758899    1.023313    0.993846
     86          6           0       -7.919507    2.276029    0.594793
     87          6           0       -7.882420    3.325104    1.738315
     88          6           0       -7.027002    2.485611    2.807140
     89          6           0       -7.383909    1.072634    2.350227
     90          6           0       -5.526323    2.671576    2.656377
     91          6           0       -9.313422    3.663096    2.286033
     92          6           0       -9.382410    4.899471    3.185126
     93          1           0      -10.572607    5.742951    3.118551
     94          7           0       -7.857309   -1.908684    1.800965
     95          6           0       -7.569523   -1.363952    3.001690
     96          6           0       -7.591143   -2.476592    3.963830
     97          6           0       -7.752727   -3.747894    3.207254
     98          6           0       -7.633108   -3.262240    1.847139
     99          6           0       -7.544825   -2.268429    5.449750
    100          6           0       -7.965284   -5.167822    3.637182
    101          8           0       -7.840350   -6.145371    2.817657
    102          6           0       -8.232147   -5.387167    5.066222
    103          7           0       -7.317320   -2.559552   -1.113132
    104          6           0       -7.174915   -3.789838   -0.589648
    105          6           0       -6.964934   -4.822094   -1.671655
    106          6           0       -7.238424   -4.060391   -3.051007
    107          6           0       -7.482702   -2.634986   -2.508837
    108          6           0       -5.580938   -5.469534   -1.713837
    109          6           0       -8.299343   -4.682151   -3.999972
    110          6           0       -9.672940   -4.578147   -3.377233
    111          7           0       -8.073886    0.186043   -1.766364
    112          6           0       -7.856262   -0.276215   -3.082817
    113          6           0       -7.924049    0.900018   -3.974053
    114          6           0       -8.155358    1.976800   -3.104833
    115          6           0       -8.206585    1.507723   -1.764370
    116          6           0       -7.731863    0.887298   -5.384379
    117          6           0       -8.357260    3.405065   -3.015437
    118          8           0       -8.500695    4.314854   -3.831190
    119          6           0       -8.251130    3.835886   -1.489164
    120          6           0       -9.416876    4.734023   -1.177900
    121          8           0      -10.579622    4.293879   -1.208275
    122          8           0       -8.956687    5.899082   -0.686745
    123          6           0      -10.076173    6.819330   -0.352536
    124          1           0       -6.772862    0.173610    4.217990
    125          1           0       -7.225438   -5.083143    0.875362
    126          1           0       -7.576868   -1.744111   -4.431437
    127          1           0       -7.368860    4.246880    1.492647
    128          1           0       -7.380540    2.659498    3.820119
    129          1           0       -5.278005    3.247103    1.777037
    130          1           0       -5.111999    1.674416    2.585354
    131          1           0       -5.107133    3.107917    3.567532
    132          1           0       -9.613055    2.890446    3.005750
    133          1           0      -10.015858    3.761790    1.481379
    134          1           0       -8.474111    5.510371    3.116310
    135          1           0       -9.405653    4.570186    4.226778
    136          1           0       -7.260043   -1.239795    5.703141
    137          1           0       -6.721149   -2.880520    5.832855
    138          1           0       -8.469658   -2.569717    5.946307
    139          1           0       -7.403833   -4.996353    5.652423
    140          1           0       -8.445152   -6.453489    5.163421
    141          1           0       -9.118621   -4.808726    5.349389
    142          1           0       -7.673330   -5.635438   -1.572911
    143          1           0       -6.333618   -4.008750   -3.674295
    144          1           0       -5.612336   -6.572427   -1.631922
    145          1           0       -4.981644   -5.046074   -0.918812
    146          1           0       -4.989310   -5.237523   -2.597782
    147          1           0       -8.102646   -5.747700   -4.141609
    148          1           0       -8.319857   -4.224922   -4.983592
    149          1           0       -9.707862   -5.444903   -2.710440
    150          1           0      -10.445408   -4.636647   -4.141364
    151          1           0       -9.755793   -3.679740   -2.754620
    152          1           0       -8.499894    1.520028   -5.808970
    153          1           0       -7.782899   -0.123582   -5.783480
    154          1           0       -6.722692    1.303045   -5.447457
    155          1           0       -7.295579    4.345139   -1.358199
    156          1           0       -9.896939    7.751497   -0.897183
    157          1           0      -10.095822    6.877097    0.752017
    158          1           0      -11.065535    6.554358   -0.706662
 ---------------------------------------------------------------------
 Rotational constants (GHZ):           0.0203939           0.0059331           0.0055098
 Leave Link  202 at Sat Sep 11 22:46:32 2021, MaxMem= 23488102400 cpu:               0.2 elap:               0.0
 (Enter /sw/apps/gaussian-16.0/g16/l301.exe)
 Standard basis: def2SVP (5D, 7F)
 Ernie: Thresh=  0.10000D-02 Tol=  0.10000D-05 Strict=F.
 There are  1658 symmetry adapted cartesian basis functions of A   symmetry.
 There are  1572 symmetry adapted basis functions of A   symmetry.
  1572 basis functions,  2678 primitive gaussians,  1658 cartesian basis functions
   312 alpha electrons      312 beta electrons
       nuclear repulsion energy     13730.0025198803 Hartrees.
 IExCor=20419 DFT=T Ex+Corr=CAM-B3LYP ExCW=0 ScaHFX=  1.000000
 ScaDFX=  1.000000  1.000000  1.000000  0.810000 ScalE2=  1.000000  1.000000
 IRadAn=      5 IRanWt=     -1 IRanGd=            0 ICorTp=0 IEmpDi=  4
 HFx  wShort=  0.000000 wLong=  0.330000 cFull=  0.190000 cShort=  0.000000 cLong=  0.460000
 DFx  wShort=  0.000000 wLong=  0.330000 cFull=  0.190000 cShort=  0.000000 cLong=  0.460000
 NAtoms=  158 NActive=  158 NUniq=  158 SFac= 1.00D+00 NAtFMM=   60 NAOKFM=T Big=T
 Integral buffers will be    131072 words long.
 Raffenetti 1 integral format.
 Two-electron integral symmetry is turned on.
 Leave Link  301 at Sat Sep 11 22:46:32 2021, MaxMem= 23488102400 cpu:               1.3 elap:               0.1
 (Enter /sw/apps/gaussian-16.0/g16/l302.exe)
 NPDir=0 NMtPBC=     1 NCelOv=     1 NCel=       1 NClECP=     1 NCelD=      1
         NCelK=      1 NCelE2=     1 NClLst=     1 CellRange=     0.0.
 One-electron integrals computed using PRISM.
 One-electron integral symmetry used in STVInt
   1 Symmetry operations used in ECPInt.
 ECPInt:  NShTT=  271216 NPrTT=  987664 LenC2=  107304 LenP2D=  244295.
 LDataN:  DoStor=T MaxTD1= 4 Len=   56
 NBasis=  1572 RedAO= T EigKep=  3.36D-04  NBF=  1572
 NBsUse=  1572 1.00D-06 EigRej= -1.00D+00 NBFU=  1572
 Precomputing XC quadrature grid using
 IXCGrd= 4 IRadAn=           5 IRanWt=          -1 IRanGd=           0 AccXCQ= 0.00D+00.
 Generated NRdTot=       0 NPtTot=           0 NUsed=           0 NTot=          32
 NSgBfM=   846   828   835   844   846 MxSgAt=   158 MxSgA2=   145.
 Leave Link  302 at Sat Sep 11 22:46:37 2021, MaxMem= 23488102400 cpu:             114.2 elap:               4.8
 (Enter /sw/apps/gaussian-16.0/g16/l303.exe)
 DipDrv:  MaxL=1.
 Leave Link  303 at Sat Sep 11 22:46:37 2021, MaxMem= 23488102400 cpu:               8.9 elap:               0.4
 (Enter /sw/apps/gaussian-16.0/g16/l308.exe)
 Leave Link  308 at Sat Sep 11 22:46:38 2021, MaxMem= 23488102400 cpu:              12.0 elap:               0.6
 (Enter /sw/apps/gaussian-16.0/g16/l401.exe)
 ExpMin= 3.36D-02 ExpMax= 4.95D+03 ExpMxC= 7.45D+02 IAcc=3 IRadAn=         5 AccDes= 0.00D+00
 Harris functional with IExCor=20419 and IRadAn=       5 diagonalized for initial guess.
 HarFok:  IExCor=20419 AccDes= 0.00D+00 IRadAn=         5 IDoV= 1 UseB2=F ITyADJ=14
 ICtDFT=  3500011 ScaDFX=  1.000000  1.000000  1.000000  1.000000
 FoFCou: FMM=F IPFlag=           0 FMFlag=      100000 FMFlg1=        2001
         NFxFlg=           0 DoJE=T BraDBF=F KetDBF=T FulRan=T
         wScrn=  0.000000 ICntrl=       500 IOpCl=  0 I1Cent=   200000004 NGrid=           0
         NMat0=    1 NMatS0=      1 NMatT0=    0 NMatD0=    1 NMtDS0=    0 NMtDT0=    0
 Petite list used in FoFCou.
 Harris En= -3918.65801892331    
 JPrj=0 DoOrth=F DoCkMO=F.
 Leave Link  401 at Sat Sep 11 22:46:45 2021, MaxMem= 23488102400 cpu:             159.3 elap:               6.7
 (Enter /sw/apps/gaussian-16.0/g16/l502.exe)
 Integral symmetry usage will be decided dynamically.
 Closed shell SCF:
 Using DIIS extrapolation, IDIIS=  1040.
 NGot= 23488102400 LenX= 23482547354 LenY= 23479796732
 Requested convergence on RMS density matrix=1.00D-08 within 128 cycles.
 Requested convergence on MAX density matrix=1.00D-06.
 Requested convergence on             energy=1.00D-06.
 No special actions if energy rises.
 Fock matrices will be formed incrementally for  20 cycles.

 Cycle   1  Pass 1  IDiag  1:
 FoFJK:  IHMeth= 1 ICntrl=       0 DoSepK=T KAlg= 0 I1Cent=           0 FoldK=F
 IRaf=         1 NMat=       1 IRICut=       1 DoRegI=T DoRafI=F ISym2E= 0 IDoP0=0 IntGTp=1.
 FoFCou: FMM=T IPFlag=           0 FMFlag=      100000 FMFlg1=        2001
         NFxFlg=           0 DoJE=T BraDBF=F KetDBF=F FulRan=T
         wScrn=  0.000000 ICntrl=       500 IOpCl=  0 I1Cent=           0 NGrid=           0
         NMat0=    1 NMatS0=      1 NMatT0=    0 NMatD0=    1 NMtDS0=    0 NMtDT0=    0
 Symmetry not used in FoFCou.
 FMM levels:  10  Number of levels for PrismC:   9
 E= -4068.94954237467    
 DIIS: error= 2.04D-02 at cycle   1 NSaved=   1.
 NSaved= 1 IEnMin= 1 EnMin= -4068.94954237467     IErMin= 1 ErrMin= 2.04D-02
 ErrMax= 2.04D-02  0.00D+00 EMaxC= 1.00D-01 BMatC= 1.69D+00 BMatP= 1.69D+00
 IDIUse=3 WtCom= 7.96D-01 WtEn= 2.04D-01
 Coeff-Com:  0.100D+01
 Coeff-En:   0.100D+01
 Coeff:      0.100D+01
 Gap=     0.120 Goal=   None    Shift=    0.000
 GapD=    0.120 DampG=1.000 DampE=0.500 DampFc=0.5000 IDamp=-1.
 Damping current iteration by 5.00D-01
 RMSDP=1.57D-03 MaxDP=1.35D-01              OVMax= 2.01D-01

 Cycle   2  Pass 1  IDiag  1:
 RMSU=  7.69D-04    CP:  9.82D-01
 E= -4069.33852322074     Delta-E=       -0.388980846070 Rises=F Damp=T
 DIIS: error= 1.27D-02 at cycle   2 NSaved=   2.
 NSaved= 2 IEnMin= 2 EnMin= -4069.33852322074     IErMin= 2 ErrMin= 1.27D-02
 ErrMax= 1.27D-02  0.00D+00 EMaxC= 1.00D-01 BMatC= 3.07D-01 BMatP= 1.69D+00
 IDIUse=3 WtCom= 8.73D-01 WtEn= 1.27D-01
 Coeff-Com: -0.213D+00 0.121D+01
 Coeff-En:   0.000D+00 0.100D+01
 Coeff:     -0.186D+00 0.119D+01
 Gap=     0.136 Goal=   None    Shift=    0.000
 RMSDP=7.64D-04 MaxDP=9.42D-02 DE=-3.89D-01 OVMax= 1.87D-01

 Cycle   3  Pass 1  IDiag  1:
 RMSU=  7.31D-04    CP:  9.68D-01  1.24D+00
 E= -4069.62888211812     Delta-E=       -0.290358897382 Rises=F Damp=F
 DIIS: error= 1.57D-02 at cycle   3 NSaved=   3.
 NSaved= 3 IEnMin= 3 EnMin= -4069.62888211812     IErMin= 2 ErrMin= 1.27D-02
 ErrMax= 1.57D-02  0.00D+00 EMaxC= 1.00D-01 BMatC= 2.01D-01 BMatP= 3.07D-01
 IDIUse=3 WtCom= 8.43D-01 WtEn= 1.57D-01
 Coeff-Com: -0.267D+00 0.651D+00 0.616D+00
 Coeff-En:   0.000D+00 0.000D+00 0.100D+01
 Coeff:     -0.225D+00 0.549D+00 0.676D+00
 Gap=     0.124 Goal=   None    Shift=    0.000
 RMSDP=5.05D-04 MaxDP=4.86D-02 DE=-2.90D-01 OVMax= 1.40D-01

 Cycle   4  Pass 1  IDiag  1:
 RMSU=  2.64D-04    CP:  9.65D-01  1.55D+00  5.08D-01
 E= -4069.76574298201     Delta-E=       -0.136860863888 Rises=F Damp=F
 DIIS: error= 7.30D-03 at cycle   4 NSaved=   4.
 NSaved= 4 IEnMin= 4 EnMin= -4069.76574298201     IErMin= 4 ErrMin= 7.30D-03
 ErrMax= 7.30D-03  0.00D+00 EMaxC= 1.00D-01 BMatC= 5.00D-02 BMatP= 2.01D-01
 IDIUse=3 WtCom= 9.27D-01 WtEn= 7.30D-02
 Coeff-Com: -0.108D+00 0.225D+00 0.408D+00 0.475D+00
 Coeff-En:   0.000D+00 0.000D+00 0.219D+00 0.781D+00
 Coeff:     -0.101D+00 0.209D+00 0.394D+00 0.497D+00
 Gap=     0.122 Goal=   None    Shift=    0.000
 RMSDP=1.98D-04 MaxDP=2.03D-02 DE=-1.37D-01 OVMax= 6.01D-02

 Cycle   5  Pass 1  IDiag  1:
 RMSU=  7.49D-05    CP:  9.64D-01  1.49D+00  6.89D-01  5.52D-01
 E= -4069.81063424873     Delta-E=       -0.044891266720 Rises=F Damp=F
 DIIS: error= 8.04D-04 at cycle   5 NSaved=   5.
 NSaved= 5 IEnMin= 5 EnMin= -4069.81063424873     IErMin= 5 ErrMin= 8.04D-04
 ErrMax= 8.04D-04  0.00D+00 EMaxC= 1.00D-01 BMatC= 1.13D-03 BMatP= 5.00D-02
 IDIUse=3 WtCom= 9.92D-01 WtEn= 8.04D-03
 Coeff-Com: -0.352D-01 0.690D-01 0.163D+00 0.247D+00 0.556D+00
 Coeff-En:   0.000D+00 0.000D+00 0.000D+00 0.000D+00 0.100D+01
 Coeff:     -0.349D-01 0.685D-01 0.162D+00 0.245D+00 0.559D+00
 Gap=     0.122 Goal=   None    Shift=    0.000
 RMSDP=3.96D-05 MaxDP=4.18D-03 DE=-4.49D-02 OVMax= 1.58D-02

 Cycle   6  Pass 1  IDiag  1:
 RMSU=  2.96D-05    CP:  9.64D-01  1.49D+00  6.82D-01  6.23D-01  7.68D-01
 E= -4069.81159249287     Delta-E=       -0.000958244142 Rises=F Damp=F
 DIIS: error= 2.28D-04 at cycle   6 NSaved=   6.
 NSaved= 6 IEnMin= 6 EnMin= -4069.81159249287     IErMin= 6 ErrMin= 2.28D-04
 ErrMax= 2.28D-04  0.00D+00 EMaxC= 1.00D-01 BMatC= 1.69D-04 BMatP= 1.13D-03
 IDIUse=3 WtCom= 9.98D-01 WtEn= 2.28D-03
 Coeff-Com:  0.243D-02-0.700D-02 0.102D-01 0.388D-01 0.306D+00 0.649D+00
 Coeff-En:   0.000D+00 0.000D+00 0.000D+00 0.000D+00 0.975D-01 0.903D+00
 Coeff:      0.243D-02-0.698D-02 0.102D-01 0.387D-01 0.306D+00 0.650D+00
 Gap=     0.122 Goal=   None    Shift=    0.000
 RMSDP=1.53D-05 MaxDP=1.28D-03 DE=-9.58D-04 OVMax= 7.08D-03

 Cycle   7  Pass 1  IDiag  1:
 RMSU=  1.04D-05    CP:  9.64D-01  1.50D+00  6.88D-01  6.23D-01  8.65D-01
                    CP:  7.55D-01
 E= -4069.81177178192     Delta-E=       -0.000179289047 Rises=F Damp=F
 DIIS: error= 8.34D-05 at cycle   7 NSaved=   7.
 NSaved= 7 IEnMin= 7 EnMin= -4069.81177178192     IErMin= 7 ErrMin= 8.34D-05
 ErrMax= 8.34D-05  0.00D+00 EMaxC= 1.00D-01 BMatC= 1.91D-05 BMatP= 1.69D-04
 IDIUse=1 WtCom= 1.00D+00 WtEn= 0.00D+00
 Coeff-Com:  0.441D-02-0.962D-02-0.906D-02-0.424D-02 0.990D-01 0.324D+00
 Coeff-Com:  0.595D+00
 Coeff:      0.441D-02-0.962D-02-0.906D-02-0.424D-02 0.990D-01 0.324D+00
 Coeff:      0.595D+00
 Gap=     0.122 Goal=   None    Shift=    0.000
 RMSDP=6.36D-06 MaxDP=1.15D-03 DE=-1.79D-04 OVMax= 3.45D-03

 Cycle   8  Pass 1  IDiag  1:
 RMSU=  4.59D-06    CP:  9.64D-01  1.50D+00  6.88D-01  6.27D-01  8.71D-01
                    CP:  8.81D-01  8.33D-01
 E= -4069.81179552225     Delta-E=       -0.000023740333 Rises=F Damp=F
 DIIS: error= 4.93D-05 at cycle   8 NSaved=   8.
 NSaved= 8 IEnMin= 8 EnMin= -4069.81179552225     IErMin= 8 ErrMin= 4.93D-05
 ErrMax= 4.93D-05  0.00D+00 EMaxC= 1.00D-01 BMatC= 4.64D-06 BMatP= 1.91D-05
 IDIUse=1 WtCom= 1.00D+00 WtEn= 0.00D+00
 Coeff-Com:  0.211D-02-0.418D-02-0.767D-02-0.121D-01-0.130D-01 0.329D-01
 Coeff-Com:  0.351D+00 0.651D+00
 Coeff:      0.211D-02-0.418D-02-0.767D-02-0.121D-01-0.130D-01 0.329D-01
 Coeff:      0.351D+00 0.651D+00
 Gap=     0.122 Goal=   None    Shift=    0.000
 RMSDP=3.21D-06 MaxDP=3.60D-04 DE=-2.37D-05 OVMax= 1.18D-03

 Cycle   9  Pass 1  IDiag  1:
 RMSU=  1.88D-06    CP:  9.64D-01  1.50D+00  6.89D-01  6.29D-01  8.87D-01
                    CP:  9.06D-01  1.03D+00  9.29D-01
 E= -4069.81180293745     Delta-E=       -0.000007415201 Rises=F Damp=F
 DIIS: error= 1.98D-05 at cycle   9 NSaved=   9.
 NSaved= 9 IEnMin= 9 EnMin= -4069.81180293745     IErMin= 9 ErrMin= 1.98D-05
 ErrMax= 1.98D-05  0.00D+00 EMaxC= 1.00D-01 BMatC= 6.62D-07 BMatP= 4.64D-06
 IDIUse=1 WtCom= 1.00D+00 WtEn= 0.00D+00
 Coeff-Com:  0.456D-03-0.756D-03-0.263D-02-0.593D-02-0.216D-01-0.375D-01
 Coeff-Com:  0.107D+00 0.325D+00 0.636D+00
 Coeff:      0.456D-03-0.756D-03-0.263D-02-0.593D-02-0.216D-01-0.375D-01
 Coeff:      0.107D+00 0.325D+00 0.636D+00
 Gap=     0.122 Goal=   None    Shift=    0.000
 RMSDP=1.39D-06 MaxDP=1.57D-04 DE=-7.42D-06 OVMax= 7.65D-04

 Cycle  10  Pass 1  IDiag  1:
 RMSU=  9.25D-07    CP:  9.64D-01  1.50D+00  6.89D-01  6.29D-01  8.90D-01
                    CP:  9.20D-01  1.08D+00  1.10D+00  1.05D+00
 E= -4069.81180446363     Delta-E=       -0.000001526176 Rises=F Damp=F
 DIIS: error= 1.08D-05 at cycle  10 NSaved=  10.
 NSaved=10 IEnMin=10 EnMin= -4069.81180446363     IErMin=10 ErrMin= 1.08D-05
 ErrMax= 1.08D-05  0.00D+00 EMaxC= 1.00D-01 BMatC= 1.67D-07 BMatP= 6.62D-07
 IDIUse=1 WtCom= 1.00D+00 WtEn= 0.00D+00
 Coeff-Com: -0.425D-03 0.890D-03 0.123D-02 0.114D-02-0.383D-02-0.306D-01
 Coeff-Com: -0.484D-01-0.756D-01 0.261D+00 0.894D+00
 Coeff:     -0.425D-03 0.890D-03 0.123D-02 0.114D-02-0.383D-02-0.306D-01
 Coeff:     -0.484D-01-0.756D-01 0.261D+00 0.894D+00
 Gap=     0.122 Goal=   None    Shift=    0.000
 RMSDP=1.20D-06 MaxDP=1.30D-04 DE=-1.53D-06 OVMax= 5.95D-04

 Cycle  11  Pass 1  IDiag  1:
 RMSU=  5.04D-07    CP:  9.64D-01  1.50D+00  6.89D-01  6.30D-01  8.93D-01
                    CP:  9.31D-01  1.13D+00  1.21D+00  1.38D+00  1.37D+00
 E= -4069.81180522441     Delta-E=       -0.000000760781 Rises=F Damp=F
 DIIS: error= 3.75D-06 at cycle  11 NSaved=  11.
 NSaved=11 IEnMin=11 EnMin= -4069.81180522441     IErMin=11 ErrMin= 3.75D-06
 ErrMax= 3.75D-06  0.00D+00 EMaxC= 1.00D-01 BMatC= 5.70D-08 BMatP= 1.67D-07
 IDIUse=1 WtCom= 1.00D+00 WtEn= 0.00D+00
 Coeff-Com: -0.321D-03 0.624D-03 0.131D-02 0.210D-02 0.438D-02-0.817D-02
 Coeff-Com: -0.449D-01-0.131D+00-0.179D-01 0.457D+00 0.737D+00
 Coeff:     -0.321D-03 0.624D-03 0.131D-02 0.210D-02 0.438D-02-0.817D-02
 Coeff:     -0.449D-01-0.131D+00-0.179D-01 0.457D+00 0.737D+00
 Gap=     0.122 Goal=   None    Shift=    0.000
 RMSDP=6.69D-07 MaxDP=5.45D-05 DE=-7.61D-07 OVMax= 3.48D-04

 Cycle  12  Pass 1  IDiag  1:
 RMSU=  2.57D-07    CP:  9.64D-01  1.50D+00  6.89D-01  6.30D-01  8.94D-01
                    CP:  9.33D-01  1.15D+00  1.27D+00  1.55D+00  1.75D+00
                    CP:  1.21D+00
 E= -4069.81180547456     Delta-E=       -0.000000250147 Rises=F Damp=F
 DIIS: error= 2.39D-06 at cycle  12 NSaved=  12.
 NSaved=12 IEnMin=12 EnMin= -4069.81180547456     IErMin=12 ErrMin= 2.39D-06
 ErrMax= 2.39D-06  0.00D+00 EMaxC= 1.00D-01 BMatC= 1.35D-08 BMatP= 5.70D-08
 IDIUse=1 WtCom= 1.00D+00 WtEn= 0.00D+00
 Coeff-Com:  0.639D-05-0.288D-04 0.151D-03 0.468D-03 0.318D-02 0.424D-02
 Coeff-Com:  0.341D-02-0.328D-01-0.666D-01-0.860D-01 0.240D+00 0.934D+00
 Coeff:      0.639D-05-0.288D-04 0.151D-03 0.468D-03 0.318D-02 0.424D-02
 Coeff:      0.341D-02-0.328D-01-0.666D-01-0.860D-01 0.240D+00 0.934D+00
 Gap=     0.122 Goal=   None    Shift=    0.000
 RMSDP=4.35D-07 MaxDP=3.03D-05 DE=-2.50D-07 OVMax= 2.49D-04

 Cycle  13  Pass 1  IDiag  1:
 RMSU=  1.62D-07    CP:  9.64D-01  1.50D+00  6.89D-01  6.30D-01  8.94D-01
                    CP:  9.33D-01  1.16D+00  1.30D+00  1.66D+00  1.98D+00
                    CP:  1.62D+00  1.29D+00
 E= -4069.81180556352     Delta-E=       -0.000000088963 Rises=F Damp=F
 DIIS: error= 1.37D-06 at cycle  13 NSaved=  13.
 NSaved=13 IEnMin=13 EnMin= -4069.81180556352     IErMin=13 ErrMin= 1.37D-06
 ErrMax= 1.37D-06  0.00D+00 EMaxC= 1.00D-01 BMatC= 7.73D-09 BMatP= 1.35D-08
 IDIUse=1 WtCom= 1.00D+00 WtEn= 0.00D+00
 Coeff-Com:  0.119D-03-0.243D-03-0.369D-03-0.459D-03 0.518D-03 0.511D-02
 Coeff-Com:  0.201D-01 0.225D-01-0.352D-01-0.240D+00-0.157D+00 0.612D+00
 Coeff-Com:  0.773D+00
 Coeff:      0.119D-03-0.243D-03-0.369D-03-0.459D-03 0.518D-03 0.511D-02
 Coeff:      0.201D-01 0.225D-01-0.352D-01-0.240D+00-0.157D+00 0.612D+00
 Coeff:      0.773D+00
 Gap=     0.122 Goal=   None    Shift=    0.000
 RMSDP=3.27D-07 MaxDP=2.14D-05 DE=-8.90D-08 OVMax= 1.76D-04

 Cycle  14  Pass 1  IDiag  1:
 RMSU=  7.51D-08    CP:  9.64D-01  1.50D+00  6.89D-01  6.30D-01  8.94D-01
                    CP:  9.34D-01  1.16D+00  1.32D+00  1.73D+00  2.16D+00
                    CP:  1.88D+00  1.80D+00  1.08D+00
 E= -4069.81180559713     Delta-E=       -0.000000033608 Rises=F Damp=F
 DIIS: error= 7.67D-07 at cycle  14 NSaved=  14.
 NSaved=14 IEnMin=14 EnMin= -4069.81180559713     IErMin=14 ErrMin= 7.67D-07
 ErrMax= 7.67D-07  0.00D+00 EMaxC= 1.00D-01 BMatC= 1.17D-09 BMatP= 7.73D-09
 IDIUse=1 WtCom= 1.00D+00 WtEn= 0.00D+00
 Coeff-Com:  0.652D-04-0.128D-03-0.242D-03-0.382D-03-0.495D-03 0.131D-02
 Coeff-Com:  0.109D-01 0.188D-01 0.284D-02-0.978D-01-0.142D+00 0.103D+00
 Coeff-Com:  0.396D+00 0.708D+00
 Coeff:      0.652D-04-0.128D-03-0.242D-03-0.382D-03-0.495D-03 0.131D-02
 Coeff:      0.109D-01 0.188D-01 0.284D-02-0.978D-01-0.142D+00 0.103D+00
 Coeff:      0.396D+00 0.708D+00
 Gap=     0.122 Goal=   None    Shift=    0.000
 RMSDP=9.79D-08 MaxDP=6.41D-06 DE=-3.36D-08 OVMax= 6.07D-05

 Cycle  15  Pass 1  IDiag  1:
 RMSU=  3.83D-08    CP:  9.64D-01  1.50D+00  6.89D-01  6.30D-01  8.94D-01
                    CP:  9.34D-01  1.16D+00  1.32D+00  1.75D+00  2.20D+00
                    CP:  1.99D+00  1.94D+00  1.31D+00  1.01D+00
 E= -4069.81180560056     Delta-E=       -0.000000003434 Rises=F Damp=F
 DIIS: error= 4.56D-07 at cycle  15 NSaved=  15.
 NSaved=15 IEnMin=15 EnMin= -4069.81180560056     IErMin=15 ErrMin= 4.56D-07
 ErrMax= 4.56D-07  0.00D+00 EMaxC= 1.00D-01 BMatC= 2.46D-10 BMatP= 1.17D-09
 IDIUse=1 WtCom= 1.00D+00 WtEn= 0.00D+00
 Coeff-Com:  0.627D-05-0.107D-04-0.361D-04-0.873D-04-0.315D-03-0.483D-03
 Coeff-Com:  0.133D-02 0.290D-02 0.883D-02 0.556D-03-0.346D-01-0.694D-01
 Coeff-Com:  0.287D-01 0.323D+00 0.739D+00
 Coeff:      0.627D-05-0.107D-04-0.361D-04-0.873D-04-0.315D-03-0.483D-03
 Coeff:      0.133D-02 0.290D-02 0.883D-02 0.556D-03-0.346D-01-0.694D-01
 Coeff:      0.287D-01 0.323D+00 0.739D+00
 Gap=     0.122 Goal=   None    Shift=    0.000
 RMSDP=4.11D-08 MaxDP=2.62D-06 DE=-3.43D-09 OVMax= 2.36D-05

 Cycle  16  Pass 1  IDiag  1:
 RMSU=  1.87D-08    CP:  9.64D-01  1.50D+00  6.89D-01  6.30D-01  8.94D-01
                    CP:  9.34D-01  1.17D+00  1.33D+00  1.75D+00  2.22D+00
                    CP:  2.01D+00  2.00D+00  1.39D+00  1.24D+00  1.13D+00
 E= -4069.81180560156     Delta-E=       -0.000000000997 Rises=F Damp=F
 DIIS: error= 2.42D-07 at cycle  16 NSaved=  16.
 NSaved=16 IEnMin=16 EnMin= -4069.81180560156     IErMin=16 ErrMin= 2.42D-07
 ErrMax= 2.42D-07  0.00D+00 EMaxC= 1.00D-01 BMatC= 7.76D-11 BMatP= 2.46D-10
 IDIUse=1 WtCom= 1.00D+00 WtEn= 0.00D+00
 Coeff-Com: -0.139D-04 0.281D-04 0.458D-04 0.520D-04-0.300D-04-0.633D-03
 Coeff-Com: -0.200D-02-0.413D-02 0.486D-02 0.253D-01 0.192D-01-0.646D-01
 Coeff-Com: -0.869D-01-0.161D-01 0.384D+00 0.741D+00
 Coeff:     -0.139D-04 0.281D-04 0.458D-04 0.520D-04-0.300D-04-0.633D-03
 Coeff:     -0.200D-02-0.413D-02 0.486D-02 0.253D-01 0.192D-01-0.646D-01
 Coeff:     -0.869D-01-0.161D-01 0.384D+00 0.741D+00
 Gap=     0.122 Goal=   None    Shift=    0.000
 RMSDP=2.29D-08 MaxDP=1.57D-06 DE=-9.97D-10 OVMax= 1.63D-05

 Cycle  17  Pass 1  IDiag  1:
 RMSU=  1.12D-08    CP:  9.64D-01  1.50D+00  6.89D-01  6.30D-01  8.94D-01
                    CP:  9.34D-01  1.17D+00  1.33D+00  1.75D+00  2.22D+00
                    CP:  2.03D+00  2.03D+00  1.43D+00  1.33D+00  1.43D+00
                    CP:  1.21D+00
 E= -4069.81180560191     Delta-E=       -0.000000000353 Rises=F Damp=F
 DIIS: error= 1.30D-07 at cycle  17 NSaved=  17.
 NSaved=17 IEnMin=17 EnMin= -4069.81180560191     IErMin=17 ErrMin= 1.30D-07
 ErrMax= 1.30D-07  0.00D+00 EMaxC= 1.00D-01 BMatC= 2.21D-11 BMatP= 7.76D-11
 IDIUse=1 WtCom= 1.00D+00 WtEn= 0.00D+00
 Coeff-Com: -0.841D-05 0.165D-04 0.326D-04 0.476D-04 0.814D-04-0.178D-03
 Coeff-Com: -0.120D-02-0.312D-02 0.620D-03 0.116D-01 0.192D-01-0.127D-01
 Coeff-Com: -0.479D-01-0.991D-01-0.220D-01 0.367D+00 0.788D+00
 Coeff:     -0.841D-05 0.165D-04 0.326D-04 0.476D-04 0.814D-04-0.178D-03
 Coeff:     -0.120D-02-0.312D-02 0.620D-03 0.116D-01 0.192D-01-0.127D-01
 Coeff:     -0.479D-01-0.991D-01-0.220D-01 0.367D+00 0.788D+00
 Gap=     0.122 Goal=   None    Shift=    0.000
 RMSDP=1.40D-08 MaxDP=9.51D-07 DE=-3.53D-10 OVMax= 8.17D-06

 Cycle  18  Pass 1  IDiag  1:
 RMSU=  5.42D-09    CP:  9.64D-01  1.50D+00  6.89D-01  6.30D-01  8.94D-01
                    CP:  9.34D-01  1.17D+00  1.33D+00  1.75D+00  2.23D+00
                    CP:  2.03D+00  2.04D+00  1.45D+00  1.40D+00  1.60D+00
                    CP:  1.61D+00  1.29D+00
 E= -4069.81180560214     Delta-E=       -0.000000000226 Rises=F Damp=F
 DIIS: error= 7.00D-08 at cycle  18 NSaved=  18.
 NSaved=18 IEnMin=18 EnMin= -4069.81180560214     IErMin=18 ErrMin= 7.00D-08
 ErrMax= 7.00D-08  0.00D+00 EMaxC= 1.00D-01 BMatC= 7.07D-12 BMatP= 2.21D-11
 IDIUse=1 WtCom= 1.00D+00 WtEn= 0.00D+00
 Coeff-Com:  0.633D-06-0.161D-05 0.689D-06 0.558D-05 0.663D-04 0.144D-03
 Coeff-Com:  0.194D-03-0.290D-03-0.115D-02-0.397D-02 0.294D-02 0.176D-01
 Coeff-Com:  0.955D-02-0.449D-01-0.154D+00-0.846D-01 0.376D+00 0.883D+00
 Coeff:      0.633D-06-0.161D-05 0.689D-06 0.558D-05 0.663D-04 0.144D-03
 Coeff:      0.194D-03-0.290D-03-0.115D-02-0.397D-02 0.294D-02 0.176D-01
 Coeff:      0.955D-02-0.449D-01-0.154D+00-0.846D-01 0.376D+00 0.883D+00
 Gap=     0.122 Goal=   None    Shift=    0.000
 RMSDP=1.05D-08 MaxDP=8.61D-07 DE=-2.26D-10 OVMax= 7.31D-06

 Cycle  19  Pass 1  IDiag  1:
 RMSU=  3.31D-09    CP:  9.64D-01  1.50D+00  6.89D-01  6.30D-01  8.94D-01
                    CP:  9.34D-01  1.17D+00  1.33D+00  1.75D+00  2.23D+00
                    CP:  2.03D+00  2.04D+00  1.46D+00  1.44D+00  1.73D+00
                    CP:  1.89D+00  1.79D+00  1.16D+00
 E= -4069.81180560201     Delta-E=        0.000000000124 Rises=F Damp=F
 DIIS: error= 3.46D-08 at cycle  19 NSaved=  19.
 NSaved=19 IEnMin=18 EnMin= -4069.81180560214     IErMin=19 ErrMin= 3.46D-08
 ErrMax= 3.46D-08  0.00D+00 EMaxC= 1.00D-01 BMatC= 3.08D-12 BMatP= 7.07D-12
 IDIUse=1 WtCom= 1.00D+00 WtEn= 0.00D+00
 Coeff-Com:  0.337D-05-0.682D-05-0.111D-04-0.133D-04 0.190D-04 0.156D-03
 Coeff-Com:  0.575D-03 0.885D-03-0.897D-03-0.711D-02-0.503D-02 0.163D-01
 Coeff-Com:  0.240D-01 0.532D-02-0.999D-01-0.199D+00-0.517D-01 0.590D+00
 Coeff-Com:  0.727D+00
 Coeff:      0.337D-05-0.682D-05-0.111D-04-0.133D-04 0.190D-04 0.156D-03
 Coeff:      0.575D-03 0.885D-03-0.897D-03-0.711D-02-0.503D-02 0.163D-01
 Coeff:      0.240D-01 0.532D-02-0.999D-01-0.199D+00-0.517D-01 0.590D+00
 Coeff:      0.727D+00
 Gap=     0.122 Goal=   None    Shift=    0.000
 RMSDP=6.82D-09 MaxDP=4.50D-07 DE= 1.24D-10 OVMax= 3.75D-06

 SCF Done:  E(RCAM-B3LYP) =  -4069.81180560     A.U. after   19 cycles
            NFock= 19  Conv=0.68D-08     -V/T= 2.0102
 KE= 4.028801890268D+03 PE=-3.694092152115D+04 EE= 1.511230530540D+04
 Leave Link  502 at Sat Sep 11 22:55:20 2021, MaxMem= 23488102400 cpu:           11794.3 elap:             515.5
 (Enter /sw/apps/gaussian-16.0/g16/l801.exe)
 DoSCS=F DFT=T ScalE2(SS,OS)=  1.000000  1.000000
 ExpMin= 3.36D-02 ExpMax= 4.95D+03 ExpMxC= 7.45D+02 IAcc=3 IRadAn=         5 AccDes= 0.00D+00
 HarFok:  IExCor=  205 AccDes= 0.00D+00 IRadAn=         5 IDoV=-2 UseB2=F ITyADJ=14
 ICtDFT= 12500011 ScaDFX=  1.000000  1.000000  1.000000  1.000000
 GSVD:  LWork=       -9588 too small for GESVD, short by       45590 words or       45590 for optimal perf.
 Largest valence mixing into a core orbital is  2.03D-04
 Largest core mixing into a valence orbital is  5.24D-05
 Range of M.O.s used for correlation:    95  1572
 NBasis=  1572 NAE=   312 NBE=   312 NFC=    94 NFV=     0
 NROrb=   1478 NOA=   218 NOB=   218 NVA=  1260 NVB=  1260
 Leave Link  801 at Sat Sep 11 22:55:21 2021, MaxMem= 23488102400 cpu:               9.4 elap:               0.4
 (Enter /sw/apps/gaussian-16.0/g16/l914.exe)
 RHF ground state
 Two-electron integrals replicated using symmetry.
 MDV= 23488102400 DFT=T DoStab=F Mixed=T DoRPA=T DoScal=F NonHer=T
 Making orbital integer symmetry assigments:
 Orbital symmetries:
       Occupied  (A) (A) (A) (A) (A) (A) (A) (A) (A) (A) (A) (A)
                 (A) (A) (A) (A) (A) (A) (A) (A) (A) (A) (A) (A)
                 (A) (A) (A) (A) (A) (A) (A) (A) (A) (A) (A) (A)
                 (A) (A) (A) (A) (A) (A) (A) (A) (A) (A) (A) (A)
                 (A) (A) (A) (A) (A) (A) (A) (A) (A) (A) (A) (A)
                 (A) (A) (A) (A) (A) (A) (A) (A) (A) (A) (A) (A)
                 (A) (A) (A) (A) (A) (A) (A) (A) (A) (A) (A) (A)
                 (A) (A) (A) (A) (A) (A) (A) (A) (A) (A) (A) (A)
                 (A) (A) (A) (A) (A) (A) (A) (A) (A) (A) (A) (A)
                 (A) (A) (A) (A) (A) (A) (A) (A) (A) (A) (A) (A)
                 (A) (A) (A) (A) (A) (A) (A) (A) (A) (A) (A) (A)
                 (A) (A) (A) (A) (A) (A) (A) (A) (A) (A) (A) (A)
                 (A) (A) (A) (A) (A) (A) (A) (A) (A) (A) (A) (A)
                 (A) (A) (A) (A) (A) (A) (A) (A) (A) (A) (A) (A)
                 (A) (A) (A) (A) (A) (A) (A) (A) (A) (A) (A) (A)
                 (A) (A) (A) (A) (A) (A) (A) (A) (A) (A) (A) (A)
                 (A) (A) (A) (A) (A) (A) (A) (A) (A) (A) (A) (A)
                 (A) (A) (A) (A) (A) (A) (A) (A) (A) (A) (A) (A)
                 (A) (A) (A) (A) (A) (A) (A) (A) (A) (A) (A) (A)
                 (A) (A) (A) (A) (A) (A) (A) (A) (A) (A) (A) (A)
                 (A) (A) (A) (A) (A) (A) (A) (A) (A) (A) (A) (A)
                 (A) (A) (A) (A) (A) (A) (A) (A) (A) (A) (A) (A)
                 (A) (A) (A) (A) (A) (A) (A) (A) (A) (A) (A) (A)
                 (A) (A) (A) (A) (A) (A) (A) (A) (A) (A) (A) (A)
                 (A) (A) (A) (A) (A) (A) (A) (A) (A) (A) (A) (A)
                 (A) (A) (A) (A) (A) (A) (A) (A) (A) (A) (A) (A)
       Virtual   (A) (A) (A) (A) (A) (A) (A) (A) (A) (A) (A) (A)
                 (A) (A) (A) (A) (A) (A) (A) (A) (A) (A) (A) (A)
                 (A) (A) (A) (A) (A) (A) (A) (A) (A) (A) (A) (A)
                 (A) (A) (A) (A) (A) (A) (A) (A) (A) (A) (A) (A)
                 (A) (A) (A) (A) (A) (A) (A) (A) (A) (A) (A) (A)
                 (A) (A) (A) (A) (A) (A) (A) (A) (A) (A) (A) (A)
                 (A) (A) (A) (A) (A) (A) (A) (A) (A) (A) (A) (A)
                 (A) (A) (A) (A) (A) (A) (A) (A) (A) (A) (A) (A)
                 (A) (A) (A) (A) (A) (A) (A) (A) (A) (A) (A) (A)
                 (A) (A) (A) (A) (A) (A) (A) (A) (A) (A) (A) (A)
                 (A) (A) (A) (A) (A) (A) (A) (A) (A) (A) (A) (A)
                 (A) (A) (A) (A) (A) (A) (A) (A) (A) (A) (A) (A)
                 (A) (A) (A) (A) (A) (A) (A) (A) (A) (A) (A) (A)
                 (A) (A) (A) (A) (A) (A) (A) (A) (A) (A) (A) (A)
                 (A) (A) (A) (A) (A) (A) (A) (A) (A) (A) (A) (A)
                 (A) (A) (A) (A) (A) (A) (A) (A) (A) (A) (A) (A)
                 (A) (A) (A) (A) (A) (A) (A) (A) (A) (A) (A) (A)
                 (A) (A) (A) (A) (A) (A) (A) (A) (A) (A) (A) (A)
                 (A) (A) (A) (A) (A) (A) (A) (A) (A) (A) (A) (A)
                 (A) (A) (A) (A) (A) (A) (A) (A) (A) (A) (A) (A)
                 (A) (A) (A) (A) (A) (A) (A) (A) (A) (A) (A) (A)
                 (A) (A) (A) (A) (A) (A) (A) (A) (A) (A) (A) (A)
                 (A) (A) (A) (A) (A) (A) (A) (A) (A) (A) (A) (A)
                 (A) (A) (A) (A) (A) (A) (A) (A) (A) (A) (A) (A)
                 (A) (A) (A) (A) (A) (A) (A) (A) (A) (A) (A) (A)
                 (A) (A) (A) (A) (A) (A) (A) (A) (A) (A) (A) (A)
                 (A) (A) (A) (A) (A) (A) (A) (A) (A) (A) (A) (A)
                 (A) (A) (A) (A) (A) (A) (A) (A) (A) (A) (A) (A)
                 (A) (A) (A) (A) (A) (A) (A) (A) (A) (A) (A) (A)
                 (A) (A) (A) (A) (A) (A) (A) (A) (A) (A) (A) (A)
                 (A) (A) (A) (A) (A) (A) (A) (A) (A) (A) (A) (A)
                 (A) (A) (A) (A) (A) (A) (A) (A) (A) (A) (A) (A)
                 (A) (A) (A) (A) (A) (A) (A) (A) (A) (A) (A) (A)
                 (A) (A) (A) (A) (A) (A) (A) (A) (A) (A) (A) (A)
                 (A) (A) (A) (A) (A) (A) (A) (A) (A) (A) (A) (A)
                 (A) (A) (A) (A) (A) (A) (A) (A) (A) (A) (A) (A)
                 (A) (A) (A) (A) (A) (A) (A) (A) (A) (A) (A) (A)
                 (A) (A) (A) (A) (A) (A) (A) (A) (A) (A) (A) (A)
                 (A) (A) (A) (A) (A) (A) (A) (A) (A) (A) (A) (A)
                 (A) (A) (A) (A) (A) (A) (A) (A) (A) (A) (A) (A)
                 (A) (A) (A) (A) (A) (A) (A) (A) (A) (A) (A) (A)
                 (A) (A) (A) (A) (A) (A) (A) (A) (A) (A) (A) (A)
                 (A) (A) (A) (A) (A) (A) (A) (A) (A) (A) (A) (A)
                 (A) (A) (A) (A) (A) (A) (A) (A) (A) (A) (A) (A)
                 (A) (A) (A) (A) (A) (A) (A) (A) (A) (A) (A) (A)
                 (A) (A) (A) (A) (A) (A) (A) (A) (A) (A) (A) (A)
                 (A) (A) (A) (A) (A) (A) (A) (A) (A) (A) (A) (A)
                 (A) (A) (A) (A) (A) (A) (A) (A) (A) (A) (A) (A)
                 (A) (A) (A) (A) (A) (A) (A) (A) (A) (A) (A) (A)
                 (A) (A) (A) (A) (A) (A) (A) (A) (A) (A) (A) (A)
                 (A) (A) (A) (A) (A) (A) (A) (A) (A) (A) (A) (A)
                 (A) (A) (A) (A) (A) (A) (A) (A) (A) (A) (A) (A)
                 (A) (A) (A) (A) (A) (A) (A) (A) (A) (A) (A) (A)
                 (A) (A) (A) (A) (A) (A) (A) (A) (A) (A) (A) (A)
                 (A) (A) (A) (A) (A) (A) (A) (A) (A) (A) (A) (A)
                 (A) (A) (A) (A) (A) (A) (A) (A) (A) (A) (A) (A)
                 (A) (A) (A) (A) (A) (A) (A) (A) (A) (A) (A) (A)
                 (A) (A) (A) (A) (A) (A) (A) (A) (A) (A) (A) (A)
                 (A) (A) (A) (A) (A) (A) (A) (A) (A) (A) (A) (A)
                 (A) (A) (A) (A) (A) (A) (A) (A) (A) (A) (A) (A)
                 (A) (A) (A) (A) (A) (A) (A) (A) (A) (A) (A) (A)
                 (A) (A) (A) (A) (A) (A) (A) (A) (A) (A) (A) (A)
                 (A) (A) (A) (A) (A) (A) (A) (A) (A) (A) (A) (A)
                 (A) (A) (A) (A) (A) (A) (A) (A) (A) (A) (A) (A)
                 (A) (A) (A) (A) (A) (A) (A) (A) (A) (A) (A) (A)
                 (A) (A) (A) (A) (A) (A) (A) (A) (A) (A) (A) (A)
                 (A) (A) (A) (A) (A) (A) (A) (A) (A) (A) (A) (A)
                 (A) (A) (A) (A) (A) (A) (A) (A) (A) (A) (A) (A)
                 (A) (A) (A) (A) (A) (A) (A) (A) (A) (A) (A) (A)
                 (A) (A) (A) (A) (A) (A) (A) (A) (A) (A) (A) (A)
                 (A) (A) (A) (A) (A) (A) (A) (A) (A) (A) (A) (A)
                 (A) (A) (A) (A) (A) (A) (A) (A) (A) (A) (A) (A)
                 (A) (A) (A) (A) (A) (A) (A) (A) (A) (A) (A) (A)
                 (A) (A) (A) (A) (A) (A) (A) (A) (A) (A) (A) (A)
                 (A) (A) (A) (A) (A) (A) (A) (A) (A) (A) (A) (A)
                 (A) (A) (A) (A) (A) (A) (A) (A) (A) (A) (A) (A)
                 (A) (A) (A) (A) (A) (A) (A) (A) (A) (A) (A) (A)
                 (A) (A) (A) (A) (A) (A) (A) (A) (A) (A) (A) (A)
                 (A) (A) (A) (A) (A) (A) (A) (A) (A) (A) (A) (A)
                 (A) (A) (A) (A) (A) (A) (A) (A) (A) (A) (A) (A)
                 (A) (A) (A) (A) (A) (A) (A) (A) (A) (A) (A) (A)
                 (A) (A) (A) (A) (A) (A) (A) (A) (A) (A) (A) (A)
                 (A) (A) (A) (A) (A) (A) (A) (A) (A) (A) (A) (A)
                 (A) (A) (A) (A) (A) (A) (A) (A) (A) (A) (A) (A)
                 (A) (A) (A) (A) (A) (A) (A) (A) (A) (A) (A) (A)
                 (A) (A) (A) (A) (A) (A) (A) (A) (A) (A) (A) (A)
                 (A) (A) (A) (A) (A) (A) (A) (A) (A) (A) (A) (A)
                 (A) (A) (A) (A) (A) (A) (A) (A) (A) (A) (A) (A)
                 (A) (A) (A) (A) (A) (A) (A) (A) (A) (A) (A) (A)
                 (A) (A) (A) (A) (A) (A) (A) (A) (A) (A) (A) (A)
                 (A) (A) (A) (A) (A) (A) (A) (A) (A) (A) (A) (A)
                 (A) (A) (A) (A) (A) (A) (A) (A) (A) (A) (A) (A)
                 (A) (A) (A) (A) (A) (A) (A) (A) (A) (A) (A) (A)
                 (A) (A) (A) (A) (A) (A) (A) (A) (A) (A) (A) (A)
                 (A) (A) (A) (A) (A) (A) (A) (A) (A) (A) (A) (A)
                 (A) (A) (A) (A) (A) (A) (A) (A) (A) (A) (A) (A)
                 (A) (A) (A) (A) (A) (A) (A) (A) (A) (A) (A) (A)
                 (A) (A) (A) (A) (A) (A) (A) (A) (A) (A) (A) (A)
                 (A) (A) (A) (A) (A) (A) (A) (A) (A) (A) (A) (A)
                 (A) (A) (A) (A) (A) (A) (A) (A) (A) (A) (A) (A)
                 (A) (A) (A) (A) (A) (A) (A) (A) (A) (A) (A) (A)
                 (A) (A) (A) (A) (A) (A) (A) (A) (A) (A) (A) (A)
                 (A) (A) (A) (A) (A) (A) (A) (A) (A) (A) (A) (A)
                 (A) (A) (A) (A) (A) (A) (A) (A) (A) (A) (A) (A)
                 (A) (A) (A) (A) (A) (A) (A) (A) (A) (A) (A) (A)
    20 initial guesses have been made.
 Convergence on wavefunction:    0.001000000000000
 Davidson Disk Diagonalization:  ConvIn= 1.00D-03 SkipCon=T Conv= 1.00D-03.
 Max sub-space:  2000 roots to seek:    20 dimension of matrix:       549360
 Iteration     1 Dimension    20 NMult     0 NNew     20
 CISAX will form    20 AO SS matrices at one time.
 NMat=    20 NSing=    20 JSym2X= 0.
 FoFJK:  IHMeth= 1 ICntrl=       0 DoSepK=T KAlg= 0 I1Cent=           0 FoldK=F
 IRaf=         1 NMat=      40 IRICut=       1 DoRegI=T DoRafI=F ISym2E= 0 IDoP0=3 IntGTp=3.
 FoFCou: FMM=T IPFlag=           0 FMFlag=      100000 FMFlg1=        2001
         NFxFlg=           0 DoJE=F BraDBF=F KetDBF=F FulRan=T
         wScrn=  0.000000 ICntrl=       500 IOpCl=  0 I1Cent=           0 NGrid=           0
         NMat0=   20 NMatS0=     20 NMatT0=    0 NMatD0=   20 NMtDS0=    0 NMtDT0=    0
 Symmetry not used in FoFCou.
 FMM levels:  10  Number of levels for PrismC:   9
 New state      1 was old state      7
 New state      2 was old state      6
 New state      3 was old state      2
 New state      4 was old state      3
 New state      5 was old state      1
 Excitation Energies [eV] at current iteration:
 Root      1 :     2.614118400331574
 Root      2 :     2.619470988313162
 Root      3 :     2.668866547128635
 Root      4 :     2.702086057141659
 Root      5 :     2.766248298733905
 Root      6 :     2.824291406305242
 Root      7 :     3.557623729894688
 Root      8 :     3.626123848506877
 Root      9 :     3.631280374725803
 Root     10 :     3.669761362407593
 Root     11 :     3.734386314638741
 Root     12 :     3.758078488940261
 Root     13 :     4.293350210647957
 Root     14 :     4.317877921326698
 Root     15 :     4.673521921338039
 Root     16 :     4.758360303924664
 Root     17 :     4.979320370826465
 Root     18 :     5.012048316684306
 Root     19 :     5.050622845746593
 Root     20 :     5.082708478823135
 Iteration     2 Dimension    30 NMult    20 NNew     10
 CISAX will form    10 AO SS matrices at one time.
 NMat=    10 NSing=    10 JSym2X= 0.
 New state      1 was old state      3
 Root      1 not converged, maximum delta is    0.156317688894707
 New state      2 was old state      4
 Root      2 not converged, maximum delta is    0.159911288016159
 New state      3 was old state      2
 Root      3 not converged, maximum delta is    0.421602915120493
 New state      4 was old state      1
 Root      4 not converged, maximum delta is    0.413877275204221
 Root      5 has converged.
 Excitation Energies [eV] at current iteration:
 Root      1 :     1.796020775229766   Change is   -0.872845771898870
 Root      2 :     1.812647893980759   Change is   -0.889438163160899
 Root      3 :     2.235026357204328   Change is   -0.384444631108834
 Root      4 :     2.240083555188007   Change is   -0.374034845143568
 Root      5 :     2.766167387787405   Change is   -0.000080910946500
 Iteration     3 Dimension    38 NMult    30 NNew      8
 CISAX will form     8 AO SS matrices at one time.
 NMat=     8 NSing=     8 JSym2X= 0.
 Root      1 not converged, maximum delta is    0.056860684367387
 Root      2 not converged, maximum delta is    0.057751940718687
 Root      3 not converged, maximum delta is    0.080766170999687
 Root      4 not converged, maximum delta is    0.080373690367314
 Root      5 has converged.
 Excitation Energies [eV] at current iteration:
 Root      1 :     1.689113827923374   Change is   -0.106906947306392
 Root      2 :     1.703998066209445   Change is   -0.108649827771314
 Root      3 :     2.193985237840849   Change is   -0.041041119363479
 Root      4 :     2.200909624137724   Change is   -0.039173931050283
 Root      5 :     2.766167387787464   Change is    0.000000000000059
 Iteration     4 Dimension    46 NMult    38 NNew      8
 CISAX will form     8 AO SS matrices at one time.
 NMat=     8 NSing=     8 JSym2X= 0.
 Root      1 not converged, maximum delta is    0.010980309026204
 Root      2 not converged, maximum delta is    0.010964003224507
 Root      3 not converged, maximum delta is    0.011574671850197
 Root      4 not converged, maximum delta is    0.011461616382796
 Root      5 has converged.
 Excitation Energies [eV] at current iteration:
 Root      1 :     1.672380838903372   Change is   -0.016732989020002
 Root      2 :     1.687137020213093   Change is   -0.016861045996352
 Root      3 :     2.186744769944216   Change is   -0.007240467896633
 Root      4 :     2.194105413990767   Change is   -0.006804210146957
 Root      5 :     2.766167387787524   Change is    0.000000000000059
 Iteration     5 Dimension    54 NMult    46 NNew      8
 CISAX will form     8 AO SS matrices at one time.
 NMat=     8 NSing=     8 JSym2X= 0.
 Root      1 not converged, maximum delta is    0.001792033061690
 Root      2 not converged, maximum delta is    0.001806460843965
 Root      3 not converged, maximum delta is    0.002451011824879
 Root      4 not converged, maximum delta is    0.002328761380996
 Root      5 has converged.
 Excitation Energies [eV] at current iteration:
 Root      1 :     1.670619006942199   Change is   -0.001761831961173
 Root      2 :     1.685348535243416   Change is   -0.001788484969677
 Root      3 :     2.185903953165665   Change is   -0.000840816778551
 Root      4 :     2.193326179320550   Change is   -0.000779234670217
 Root      5 :     2.766167387787434   Change is   -0.000000000000089
 Iteration     6 Dimension    62 NMult    54 NNew      8
 CISAX will form     8 AO SS matrices at one time.
 NMat=     8 NSing=     8 JSym2X= 0.
 Root      1 not converged, maximum delta is    0.001113312353992
 Root      2 not converged, maximum delta is    0.001129014193430
 Root      3 not converged, maximum delta is    0.001034132278442
 Root      4 has converged.
 Root      5 has converged.
 Excitation Energies [eV] at current iteration:
 Root      1 :     1.670368060272254   Change is   -0.000250946669945
 Root      2 :     1.685091703348783   Change is   -0.000256831894633
 Root      3 :     2.185776901968862   Change is   -0.000127051196802
 Root      4 :     2.193207752648825   Change is   -0.000118426671725
 Root      5 :     2.766167387787494   Change is    0.000000000000060
 Iteration     7 Dimension    68 NMult    62 NNew      6
 CISAX will form     6 AO SS matrices at one time.
 NMat=     6 NSing=     6 JSym2X= 0.
 Root      1 has converged.
 Root      2 has converged.
 Root      3 has converged.
 Root      4 has converged.
 Root      5 has converged.
 Excitation Energies [eV] at current iteration:
 Root      1 :     1.670343689342150   Change is   -0.000024370930104
 Root      2 :     1.685067301474649   Change is   -0.000024401874134
[...]
 Alpha virt. eigenvalues --    1.83534   1.83755   1.83920   1.84022   1.84226
 Alpha virt. eigenvalues --    1.84444   1.84546   1.84812   1.84817   1.85085
 Alpha virt. eigenvalues --    1.85141   1.85274   1.85376   1.85499   1.85513
 Alpha virt. eigenvalues --    1.85865   1.85921   1.86354   1.86409   1.86557
 Alpha virt. eigenvalues --    1.86675   1.86778   1.86852   1.87027   1.87054
 Alpha virt. eigenvalues --    1.87440   1.87500   1.87681   1.87788   1.87865
 Alpha virt. eigenvalues --    1.88037   1.88041   1.88199   1.88539   1.88599
 Alpha virt. eigenvalues --    1.88830   1.88964   1.89096   1.89112   1.89632
 Alpha virt. eigenvalues --    1.89687   1.89752   1.89901   1.90121   1.90212
 Alpha virt. eigenvalues --    1.90749   1.90915   1.91347   1.91437   1.91458
 Alpha virt. eigenvalues --    1.91610   1.92152   1.92198   1.92629   1.92676
 Alpha virt. eigenvalues --    1.92979   1.93172   1.93328   1.93527   1.94267
 Alpha virt. eigenvalues --    1.94327   1.94688   1.94844   1.95457   1.95619
 Alpha virt. eigenvalues --    1.95727   1.95827   1.95995   1.96070   1.96138
 Alpha virt. eigenvalues --    1.96186   1.96500   1.96587   1.96900   1.96960
 Alpha virt. eigenvalues --    1.97441   1.97555   1.97814   1.97824   1.98171
 Alpha virt. eigenvalues --    1.98184   1.98357   1.98680   1.99095   1.99138
 Alpha virt. eigenvalues --    1.99828   1.99949   2.00653   2.00742   2.00999
 Alpha virt. eigenvalues --    2.01113   2.01485   2.01530   2.01620   2.01662
 Alpha virt. eigenvalues --    2.01723   2.01837   2.02728   2.02785   2.03169
 Alpha virt. eigenvalues --    2.03226   2.03394   2.03407   2.03487   2.03533
 Alpha virt. eigenvalues --    2.04034   2.04042   2.04959   2.04998   2.05514
 Alpha virt. eigenvalues --    2.05652   2.06082   2.06306   2.06908   2.07040
 Alpha virt. eigenvalues --    2.07180   2.07360   2.08583   2.08589   2.08984
 Alpha virt. eigenvalues --    2.09017   2.09594   2.09627   2.10760   2.11055
 Alpha virt. eigenvalues --    2.11182   2.11422   2.11541   2.11542   2.11731
 Alpha virt. eigenvalues --    2.11886   2.12466   2.12479   2.12806   2.12821
 Alpha virt. eigenvalues --    2.12831   2.12885   2.13644   2.13774   2.14125
 Alpha virt. eigenvalues --    2.14283   2.15335   2.15426   2.15927   2.16098
 Alpha virt. eigenvalues --    2.16516   2.16612   2.16754   2.17181   2.17412
 Alpha virt. eigenvalues --    2.17678   2.17702   2.17950   2.18022   2.18056
 Alpha virt. eigenvalues --    2.18330   2.18682   2.18871   2.19243   2.19642
 Alpha virt. eigenvalues --    2.19830   2.20042   2.20207   2.20252   2.20453
 Alpha virt. eigenvalues --    2.21133   2.21196   2.21671   2.21744   2.21774
 Alpha virt. eigenvalues --    2.21884   2.22677   2.22719   2.23303   2.23356
 Alpha virt. eigenvalues --    2.24391   2.24432   2.24939   2.25027   2.26301
 Alpha virt. eigenvalues --    2.26452   2.26774   2.27023   2.27103   2.27213
 Alpha virt. eigenvalues --    2.28138   2.28330   2.29266   2.29455   2.29737
 Alpha virt. eigenvalues --    2.29892   2.30456   2.30629   2.30828   2.31076
 Alpha virt. eigenvalues --    2.31184   2.31215   2.32114   2.32261   2.33137
 Alpha virt. eigenvalues --    2.33247   2.33454   2.33495   2.34126   2.34157
 Alpha virt. eigenvalues --    2.35302   2.35371   2.35801   2.35923   2.36335
 Alpha virt. eigenvalues --    2.36348   2.36465   2.36626   2.37641   2.37688
 Alpha virt. eigenvalues --    2.38257   2.38402   2.38791   2.38862   2.39611
 Alpha virt. eigenvalues --    2.39679   2.40167   2.40282   2.40487   2.40835
 Alpha virt. eigenvalues --    2.41218   2.41268   2.41672   2.41703   2.42040
 Alpha virt. eigenvalues --    2.42130   2.42841   2.42927   2.43055   2.43538
 Alpha virt. eigenvalues --    2.43990   2.44172   2.44732   2.44817   2.44901
 Alpha virt. eigenvalues --    2.44997   2.45540   2.45578   2.46298   2.46305
 Alpha virt. eigenvalues --    2.46476   2.46503   2.46800   2.46801   2.47243
 Alpha virt. eigenvalues --    2.47382   2.47707   2.47899   2.49303   2.49413
 Alpha virt. eigenvalues --    2.49898   2.50048   2.50467   2.50536   2.51120
 Alpha virt. eigenvalues --    2.51268   2.51620   2.51886   2.52394   2.52438
 Alpha virt. eigenvalues --    2.52807   2.53169   2.53912   2.53981   2.54153
 Alpha virt. eigenvalues --    2.54302   2.54779   2.54810   2.55517   2.55674
 Alpha virt. eigenvalues --    2.57863   2.58088   2.58635   2.58915   2.60206
 Alpha virt. eigenvalues --    2.60296   2.60612   2.60927   2.61707   2.61831
 Alpha virt. eigenvalues --    2.62433   2.62530   2.62949   2.63126   2.63936
 Alpha virt. eigenvalues --    2.64220   2.64222   2.64438   2.65069   2.65102
 Alpha virt. eigenvalues --    2.65788   2.65859   2.66759   2.66820   2.66905
 Alpha virt. eigenvalues --    2.67062   2.67898   2.67983   2.68819   2.68852
 Alpha virt. eigenvalues --    2.69021   2.69022   2.69371   2.69590   2.69985
 Alpha virt. eigenvalues --    2.70135   2.70970   2.71062   2.71885   2.72049
 Alpha virt. eigenvalues --    2.72478   2.72650   2.72722   2.72828   2.73253
 Alpha virt. eigenvalues --    2.73287   2.73447   2.73531   2.74498   2.74502
 Alpha virt. eigenvalues --    2.74969   2.75047   2.76515   2.76577   2.77054
 Alpha virt. eigenvalues --    2.77228   2.77455   2.77605   2.78191   2.78300
 Alpha virt. eigenvalues --    2.78685   2.78723   2.79128   2.79147   2.80265
 Alpha virt. eigenvalues --    2.80346   2.80589   2.80673   2.81112   2.81138
 Alpha virt. eigenvalues --    2.81932   2.81973   2.82326   2.82330   2.83749
 Alpha virt. eigenvalues --    2.83769   2.83844   2.83884   2.84517   2.84535
 Alpha virt. eigenvalues --    2.84867   2.84881   2.85663   2.85688   2.86643
 Alpha virt. eigenvalues --    2.86985   2.87148   2.87605   2.88158   2.88235
 Alpha virt. eigenvalues --    2.88494   2.88597   2.88859   2.88925   2.90487
 Alpha virt. eigenvalues --    2.90645   2.91063   2.91169   2.93152   2.93310
 Alpha virt. eigenvalues --    2.93760   2.94191   2.94546   2.94568   2.95366
 Alpha virt. eigenvalues --    2.95458   2.95807   2.96197   2.96359   2.96422
 Alpha virt. eigenvalues --    2.96844   2.97173   2.97817   2.98028   2.98212
 Alpha virt. eigenvalues --    2.98336   2.98351   2.98560   2.98594   2.98751
 Alpha virt. eigenvalues --    2.98878   2.98908   2.99567   2.99790   2.99991
 Alpha virt. eigenvalues --    3.00033   3.00218   3.00327   3.00459   3.00979
 Alpha virt. eigenvalues --    3.01891   3.01964   3.02038   3.02104   3.02739
 Alpha virt. eigenvalues --    3.02803   3.02974   3.03313   3.03327   3.03693
 Alpha virt. eigenvalues --    3.04039   3.04145   3.04415   3.04437   3.04527
 Alpha virt. eigenvalues --    3.04696   3.05285   3.05351   3.06106   3.06163
 Alpha virt. eigenvalues --    3.06802   3.06929   3.07918   3.08140   3.09357
 Alpha virt. eigenvalues --    3.09400   3.09690   3.10411   3.10439   3.10726
 Alpha virt. eigenvalues --    3.11313   3.11484   3.11883   3.11944   3.12136
 Alpha virt. eigenvalues --    3.12287   3.13282   3.13625   3.13629   3.13678
 Alpha virt. eigenvalues --    3.14094   3.14442   3.15888   3.15971   3.17257
 Alpha virt. eigenvalues --    3.17498   3.17875   3.18075   3.19021   3.19123
 Alpha virt. eigenvalues --    3.22307   3.22566   3.23944   3.24417   3.24673
 Alpha virt. eigenvalues --    3.25165   3.26499   3.26639   3.27377   3.27616
 Alpha virt. eigenvalues --    3.29103   3.29187   3.31361   3.31522   3.33171
 Alpha virt. eigenvalues --    3.33414   3.40222   3.40635   3.42811   3.42820
 Alpha virt. eigenvalues --    3.48657   3.48674   3.50018   3.50267   3.50822
 Alpha virt. eigenvalues --    3.51472   3.56547   3.56992   3.59091   3.59328
 Alpha virt. eigenvalues --    3.62496   3.62835   3.66114   3.66191   3.67189
 Alpha virt. eigenvalues --    3.67507   3.73273   3.73985   3.76058   3.76645
          Condensed to atoms (all electrons):
 Mulliken charges:
               1
     1  Mg   0.838620
     2  C   -0.002929
     3  C   -0.093952
     4  C   -0.045965
     5  C   -0.064093
     6  N   -0.256769
     7  C   -0.052479
     8  C   -0.014023
     9  C   -0.087016
    10  C    0.046309
    11  C    0.104785
    12  C    0.053441
    13  C   -0.071851
    14  H    0.036132
    15  N   -0.433182
    16  C    0.168410
    17  C   -0.176985
    18  C   -0.003952
    19  C    0.148734
    20  C    0.110117
    21  C    0.012305
    22  O   -0.249728
    23  C    0.062439
    24  N   -0.341099
    25  C    0.041244
    26  C   -0.028186
    27  C   -0.023910
    28  C    0.074735
    29  C    0.076164
    30  C    0.035199
    31  C   -0.004421
    32  N   -0.310447
    33  C    0.080297
    34  C   -0.169880
    35  C    0.008379
    36  C    0.082899
    37  C    0.127351
    38  C    0.046083
    39  O   -0.188408
    40  C   -0.005307
    41  C    0.212891
    42  O   -0.257148
    43  O   -0.304772
    44  C    0.157667
    45  H   -0.017415
    46  H   -0.016882
    47  H   -0.041711
    48  H    0.000998
    49  H   -0.003893
    50  H    0.025495
    51  H    0.016444
    52  H    0.016798
    53  H    0.011240
    54  H    0.044067
    55  H    0.017934
    56  H    0.018059
    57  H    0.005981
    58  H    0.026971
    59  H    0.039879
    60  H    0.037450
    61  H    0.035828
    62  H    0.031741
    63  H    0.016345
    64  H    0.009486
    65  H    0.023157
    66  H    0.012723
    67  H    0.004753
    68  H    0.006192
    69  H    0.004605
    70  H    0.008647
    71  H    0.017427
    72  H    0.029195
    73  H    0.047476
    74  H    0.008864
    75  H    0.046066
    76  H    0.035222
    77  H    0.043026
    78  H    0.046434
    79  H    0.053697
    80  Mg   0.837958
    81  C   -0.016900
    82  C   -0.087698
    83  C   -0.045255
    84  C   -0.064835
    85  N   -0.254576
    86  C   -0.049863
    87  C   -0.015104
    88  C   -0.090525
    89  C    0.045813
    90  C    0.114329
    91  C    0.062533
    92  C   -0.077813
    93  H    0.034658
    94  N   -0.423597
    95  C    0.163044
    96  C   -0.174344
    97  C   -0.007559
    98  C    0.152209
    99  C    0.099245
   100  C    0.015754
   101  O   -0.252929
   102  C    0.061176
   103  N   -0.350032
   104  C    0.037718
   105  C   -0.019982
   106  C   -0.034669
   107  C    0.088863
   108  C    0.073452
   109  C    0.034760
   110  C   -0.007637
   111  N   -0.324032
   112  C    0.078364
   113  C   -0.163336
   114  C    0.002110
   115  C    0.096142
   116  C    0.131530
   117  C    0.042181
   118  O   -0.188345
   119  C    0.000992
   120  C    0.211201
   121  O   -0.251108
   122  O   -0.305607
   123  C    0.152091
   124  H   -0.019487
   125  H   -0.015271
   126  H   -0.040747
   127  H   -0.000695
   128  H   -0.004416
   129  H    0.022485
   130  H    0.014835
   131  H    0.016310
   132  H    0.013888
   133  H    0.037572
   134  H    0.020812
   135  H    0.019572
   136  H    0.008743
   137  H    0.026614
   138  H    0.039712
   139  H    0.038542
   140  H    0.036482
   141  H    0.033678
   142  H    0.014312
   143  H    0.012362
   144  H    0.025275
   145  H    0.012490
   146  H    0.005793
   147  H    0.006232
   148  H    0.003353
   149  H    0.010980
   150  H    0.017679
   151  H    0.030107
   152  H    0.045743
   153  H    0.008339
   154  H    0.046610
   155  H    0.034967
   156  H    0.043751
   157  H    0.049528
   158  H    0.053471
 Sum of Mulliken charges =  -0.00000
 Mulliken charges with hydrogens summed into heavy atoms:
               1
     1  Mg   0.838620
     2  C   -0.002929
     3  C   -0.111367
     4  C   -0.062847
     5  C   -0.105804
     6  N   -0.256769
     7  C   -0.052479
     8  C   -0.013024
     9  C   -0.090909
    10  C    0.046309
    11  C    0.163522
    12  C    0.108748
    13  C    0.000273
    15  N   -0.433182
    16  C    0.168410
    17  C   -0.176985
    18  C   -0.003952
    19  C    0.148734
    20  C    0.182947
    21  C    0.012305
    22  O   -0.249728
    23  C    0.167457
    24  N   -0.341099
    25  C    0.041244
    26  C   -0.011840
    27  C   -0.014423
    28  C    0.074735
    29  C    0.116797
    30  C    0.045996
    31  C    0.050848
    32  N   -0.310447
    33  C    0.080297
    34  C   -0.169880
    35  C    0.008379
    36  C    0.082899
    37  C    0.229758
    38  C    0.046083
    39  O   -0.188408
    40  C    0.029915
    41  C    0.212891
    42  O   -0.257148
    43  O   -0.304772
    44  C    0.300824
    80  Mg   0.837958
    81  C   -0.016900
    82  C   -0.107185
    83  C   -0.060527
    84  C   -0.105582
    85  N   -0.254576
    86  C   -0.049863
    87  C   -0.015798
    88  C   -0.094941
    89  C    0.045813
    90  C    0.167960
    91  C    0.113993
    92  C   -0.002771
    94  N   -0.423597
    95  C    0.163044
    96  C   -0.174344
    97  C   -0.007559
    98  C    0.152209
    99  C    0.174313
   100  C    0.015754
   101  O   -0.252929
   102  C    0.169878
   103  N   -0.350032
   104  C    0.037718
   105  C   -0.005671
   106  C   -0.022307
   107  C    0.088863
   108  C    0.117009
   109  C    0.044345
   110  C    0.051130
   111  N   -0.324032
   112  C    0.078364
   113  C   -0.163336
   114  C    0.002110
   115  C    0.096142
   116  C    0.232222
   117  C    0.042181
   118  O   -0.188345
   119  C    0.035959
   120  C    0.211201
   121  O   -0.251108
   122  O   -0.305607
   123  C    0.298842
 Electronic spatial extent (au):  <R**2>=         194016.4884
 Charge=             -0.0000 electrons
 Dipole moment (field-independent basis, Debye):
    X=              3.8471    Y=              1.8936    Z=              0.3757  Tot=              4.3043
 Quadrupole moment (field-independent basis, Debye-Ang):
   XX=           -521.2194   YY=           -547.3135   ZZ=           -450.4713
   XY=             23.0297   XZ=            -69.2117   YZ=             43.5753
 Traceless Quadrupole moment (field-independent basis, Debye-Ang):
   XX=            -14.8847   YY=            -40.9787   ZZ=             55.8634
   XY=             23.0297   XZ=            -69.2117   YZ=             43.5753
 Octapole moment (field-independent basis, Debye-Ang**2):
  XXX=            763.8502  YYY=             91.8977  ZZZ=            107.5319  XYY=           -156.3839
  XXY=             83.5628  XXZ=             60.8044  XZZ=            151.0964  YZZ=            -51.5535
  YYZ=           -152.8705  XYZ=           -134.4388
 Hexadecapole moment (field-independent basis, Debye-Ang**3):
 XXXX=        -202093.0824 YYYY=         -42153.7634 ZZZZ=         -24335.5052 XXXY=           1501.7400
 XXXZ=          -5715.9593 YYYX=          -3153.4471 YYYZ=           1306.4947 ZZZX=           -847.4522
 ZZZY=            -91.0630 XXYY=         -41513.3462 XXZZ=         -33954.0874 YYZZ=         -10760.6163
 XXYZ=           2941.0098 YYXZ=          -1432.9745 ZZXY=           1635.8799
 N-N= 1.373000251988D+04 E-N=-3.694092151907D+04  KE= 4.028801890268D+03
 Leave Link  601 at Sat Sep 11 23:15:02 2021, MaxMem= 23488102400 cpu:              16.5 elap:               0.8
 (Enter /sw/apps/gaussian-16.0/g16/l9999.exe)
 1\1\GINC-BP1-COMPUTE00090\SP\RCAM-B3LYP TD-FC\def2SVP\C68H72Mg2N8O8\OF
 15641\11-Sep-2021\0\\#p cam-b3lyp/Def2SVP td=(nstates=5)\\TDDFT excite
 d states in gaussian\\0,1\Mg,0,0.,0.,0.\C,0,-0.217,-2.218,2.801\C,0,-1
 .255,2.442,2.026\C,0,-0.245,1.85,-2.564\C,0,0.146,-2.824,-2.037\N,0,-0
 .617,-0.009,2.126\C,0,-0.594,-0.908,3.105\C,0,-0.936,-0.309,4.502\C,0,
 -1.773,0.964,4.032\C,0,-1.155,1.168,2.66\C,0,-3.263,0.685,3.863\C,0,0.
 345,0.11,5.299\C,0,0.124,0.397,6.787\H,0,1.168,0.033,7.733\N,0,-0.185,
 1.961,-0.152\C,0,-0.703,2.8,0.777\C,0,-0.62,4.156,0.193\C,0,-0.187,4.0
 15,-1.225\C,0,-0.214,2.583,-1.38\C,0,-0.887,5.406,0.974\C,0,0.181,5.01
 3,-2.277\O,0,0.303,4.69,-3.508\C,0,0.31,6.414,-1.837\N,0,-0.265,-0.413
 ,-2.029\C,0,-0.279,0.569,-2.937\C,0,-0.196,0.024,-4.332\C,0,0.124,-1.5
 33,-4.18\C,0,0.086,-1.632,-2.635\C,0,-1.451,0.205,-5.197\C,0,1.373,-2.
 07,-4.923\C,0,2.626,-1.49,-4.306\N,0,0.15,-2.144,0.303\C,0,0.173,-3.13
 6,-0.688\C,0,0.173,-4.438,0.004\C,0,0.133,-4.111,1.358\C,0,0.083,-2.69
 5,1.502\C,0,0.149,-5.715,-0.623\C,0,0.096,-4.629,2.716\O,0,0.208,-5.74
 7,3.221\C,0,-0.255,-3.428,3.701\C,0,0.717,-3.482,4.848\O,0,1.931,-3.25
 5,4.669\O,0,0.038,-3.556,6.003\C,0,0.943,-3.583,7.183\H,0,-1.859,3.22,
 2.497\H,0,-0.218,2.453,-3.474\H,0,0.276,-3.747,-2.605\H,0,-1.554,-0.94
 9,5.132\H,0,-1.585,1.831,4.665\H,0,-3.484,-0.377,3.969\H,0,-3.511,1.02
 7,2.858\H,0,-3.852,1.301,4.543\H,0,0.669,1.096,4.966\H,0,1.13,-0.639,5
 .189\H,0,-0.844,0.026,7.125\H,0,0.062,1.477,6.921\H,0,-1.344,5.186,1.9
 38\H,0,-1.651,5.963,0.432\H,0,0.007,6.02,1.084\H,0,-0.635,6.744,-1.405
 \H,0,0.665,6.97,-2.704\H,0,1.048,6.466,-1.036\H,0,0.608,0.501,-4.891\H
 ,0,-0.692,-2.156,-4.547\H,0,-1.267,0.74,-6.129\H,0,-2.204,0.714,-4.596
 \H,0,-1.967,-0.72,-5.453\H,0,1.356,-1.759,-5.967\H,0,1.452,-3.157,-4.9
 02\H,0,2.714,-0.522,-4.798\H,0,3.487,-2.121,-4.529\H,0,2.495,-1.303,-3
 .24\H,0,0.867,-6.333,-0.084\H,0,0.404,-5.642,-1.68\H,0,-0.891,-5.999,-
 0.463\H,0,-1.283,-3.581,4.028\H,0,0.698,-4.478,7.755\H,0,0.833,-2.619,
 7.68\H,0,2.,-3.754,6.976\Mg,0,15.77421,1.41824,1.19073\C,0,15.44137,4.
 43096,-0.73068\C,0,15.26659,-0.30849,-1.70674\C,0,15.61314,-1.23815,2.
 91847\C,0,15.11757,3.32378,4.03387\N,0,15.41281,2.08703,-0.88638\C,0,1
 5.36874,3.25599,-1.50761\C,0,15.32027,3.15998,-3.05616\C,0,14.69792,1.
 68532,-3.18629\C,0,15.18144,1.09821,-1.86184\C,0,13.17833,1.67145,-3.1
 8846\C,0,16.74663,3.24079,-3.70498\C,0,16.75278,3.46399,-5.21888\H,0,1
 7.81165,4.28695,-5.7968\N,0,15.97013,-0.48061,0.64801\C,0,15.74492,-1.
 00475,-0.57504\C,0,16.01087,-2.44622,-0.4502\C,0,16.25174,-2.75618,0.9
 8529\C,0,15.92672,-1.47938,1.5888\C,0,16.09714,-3.36339,-1.63544\C,0,1
 6.68841,-4.00003,1.69829\O,0,16.60255,-4.1112,2.9723\C,0,17.13199,-5.1
 1851,0.85347\N,0,15.20987,1.0472,3.15699\C,0,15.2823,-0.19148,3.67501\
 C,0,15.09156,-0.16837,5.17283\C,0,15.11689,1.37655,5.58536\C,0,15.2336
 9,2.01127,4.18219\C,0,13.80497,-0.81182,5.68961\C,0,16.14115,1.79743,6
 .67459\C,0,17.54877,1.65502,6.14194\N,0,15.53582,3.51937,1.63399\C,0,1
 5.23979,4.09846,2.88743\C,0,15.06145,5.54815,2.66604\C,0,15.24484,5.70
 983,1.28447\C,0,15.49821,4.44701,0.68398\C,0,14.72312,6.50646,3.66268\
 C,0,15.27119,6.66017,0.19596\O,0,15.2095,7.88605,0.11137\C,0,15.27437,
 5.85734,-1.17584\C,0,16.34246,6.44617,-2.05616\O,0,17.54194,6.35797,-1
 .73978\O,0,15.79239,6.82179,-3.22522\C,0,16.81449,7.40189,-4.13659\H,0
 ,14.89288,-0.94271,-2.5111\H,0,15.65345,-2.10831,3.57777\H,0,15.00776,
 3.99992,4.88443\H,0,14.67002,3.88164,-3.5359\H,0,15.1324,1.14573,-4.02
 38\H,0,12.76622,2.64814,-2.98261\H,0,12.88946,0.96883,-2.4178\H,0,12.8
 0649,1.25626,-4.12956\H,0,17.21747,2.25035,-3.65917\H,0,17.34085,3.994
 62,-3.22616\H,0,15.77183,3.78173,-5.59267\H,0,16.92884,2.50411,-5.7104
 5\H,0,15.71208,-2.88399,-2.5439\H,0,15.40392,-4.19108,-1.45039\H,0,17.
 10051,-3.76884,-1.78213\H,0,16.32787,-5.40249,0.17877\H,0,17.48848,-5.
 88395,1.54548\H,0,17.9625,-4.7754,0.22646\H,0,15.90442,-0.67932,5.6741
 2\H,0,14.15161,1.70373,5.9989\H,0,13.98542,-1.62158,6.42159\H,0,13.244
 79,-1.1834,4.84187\H,0,13.09768,-0.12443,6.15053\H,0,16.06807,1.13389,
 7.53976\H,0,15.9981,2.81126,7.0333\H,0,17.76495,0.59368,6.29661\H,0,18
 .23643,2.28385,6.70383\H,0,17.58223,1.84437,5.06274\H,0,15.35441,7.368
 49,3.49276\H,0,14.85988,6.10377,4.66413\H,0,13.66822,6.66951,3.42635\H
 ,0,14.28111,5.95601,-1.61546\H,0,16.46069,8.39774,-4.42086\H,0,16.9443
 2,6.66251,-4.94913\H,0,17.78611,7.63452,-3.71672\\Version=ES64L-G16Rev
 A.03\State=1-A\HF=-4069.8118056\RMSD=6.819e-09\PG=C01 [X(C68H72Mg2N8O8
 )]\\@


 One man practicing sportsmanship is far better than 50 preaching it.
 -- Knute K. Rockne
 Job cpu time:       0 days 11 hours  9 minutes 43.2 seconds.
 Elapsed time:       0 days  0 hours 28 minutes 30.3 seconds.
 File lengths (MBytes):  RWF=  13225 Int=      0 D2E=      0 Chk=    574 Scr=      1
 Normal termination of Gaussian 16 at Sat Sep 11 23:15:03 2021.
