 Entering Gaussian System, Link 0=g16
 Initial command:
 /sw/apps/gaussian-16.0/g16/l1.exe "/tmp/Gau-269018.inp" -scrdir="/tmp/"
 Entering Link 1 = /sw/apps/gaussian-16.0/g16/l1.exe PID=    269019.
  
 Copyright (c) 1988,1990,1992,1993,1995,1998,2003,2009,2016,
            Gaussian, Inc.  All Rights Reserved.
  
 This is part of the Gaussian(R) 16 program.  It is based on
 the Gaussian(R) 09 system (copyright 2009, Gaussian, Inc.),
 the Gaussian(R) 03 system (copyright 2003, Gaussian, Inc.),
 the Gaussian(R) 98 system (copyright 1998, Gaussian, Inc.),
 the Gaussian(R) 94 system (copyright 1995, Gaussian, Inc.),
 the Gaussian 92(TM) system (copyright 1992, Gaussian, Inc.),
 the Gaussian 90(TM) system (copyright 1990, Gaussian, Inc.),
 the Gaussian 88(TM) system (copyright 1988, Gaussian, Inc.),
 the Gaussian 86(TM) system (copyright 1986, Carnegie Mellon
 University), and the Gaussian 82(TM) system (copyright 1983,
 Carnegie Mellon University). Gaussian is a federally registered
 trademark of Gaussian, Inc.
  
 This software contains proprietary and confidential information,
 including trade secrets, belonging to Gaussian, Inc.
  
 This software is provided under written license and may be
 used, copied, transmitted, or stored only in accord with that
 written license.
  
 The following legend is applicable only to US Government
 contracts under FAR:
  
                    RESTRICTED RIGHTS LEGEND
  
 Use, reproduction and disclosure by the US Government is
 subject to restrictions as set forth in subparagraphs (a)
 and (c) of the Commercial Computer Software - Restricted
 Rights clause in FAR 52.227-19.
  
 Gaussian, Inc.
 340 Quinnipiac St., Bldg. 40, Wallingford CT 06492
  
  
 ---------------------------------------------------------------
 Warning -- This program may not be used in any manner that
 competes with the business of Gaussian, Inc. or will provide
 assistance to any competitor of Gaussian, Inc.  The licensee
 of this program is prohibited from giving any competitor of
 Gaussian, Inc. access to this program.  By using this program,
 the user acknowledges that Gaussian, Inc. is engaged in the
 business of creating and licensing software in the field of
 computational chemistry and represents and warrants to the
 licensee that it is not a competitor of Gaussian, Inc. and that
 it will not use this program in any manner prohibited above.
 ---------------------------------------------------------------
  

 Cite this work as:
 Gaussian 16, Revision A.03,
 M. J. Frisch, G. W. Trucks, H. B. Schlegel, G. E. Scuseria, 
 M. A. Robb, J. R. Cheeseman, G. Scalmani, V. Barone, 
 G. A. Petersson, H. Nakatsuji, X. Li, M. Caricato, A. V. Marenich, 
 J. Bloino, B. G. Janesko, R. Gomperts, B. Mennucci, H. P. Hratchian, 
 J. V. Ortiz, A. F. Izmaylov, J. L. Sonnenberg, D. Williams-Young, 
 F. Ding, F. Lipparini, F. Egidi, J. Goings, B. Peng, A. Petrone, 
 T. Henderson, D. Ranasinghe, V. G. Zakrzewski, J. Gao, N. Rega, 
 G. Zheng, W. Liang, M. Hada, M. Ehara, K. Toyota, R. Fukuda, 
 J. Hasegawa, M. Ishida, T. Nakajima, Y. Honda, O. Kitao, H. Nakai, 
 T. Vreven, K. Throssell, J. A. Montgomery, Jr., J. E. Peralta, 
 F. Ogliaro, M. J. Bearpark, J. J. Heyd, E. N. Brothers, K. N. Kudin, 
 V. N. Staroverov, T. A. Keith, R. Kobayashi, J. Normand, 
 K. Raghavachari, A. P. Rendell, J. C. Burant, S. S. Iyengar, 
 J. Tomasi, M. Cossi, J. M. Millam, M. Klene, C. Adamo, R. Cammi, 
 J. W. Ochterski, R. L. Martin, K. Morokuma, O. Farkas, 
 J. B. Foresman, and D. J. Fox, Gaussian, Inc., Wallingford CT, 2016.
 
 ******************************************
 Gaussian 16:  ES64L-G16RevA.03 25-Dec-2016
                 9-Sep-2021 
 ******************************************
 %nproc=24
 Will use up to   24 processors via shared memory.
 %mem=175gb
 -----------------------------------
 #p cam-b3lyp/Def2SVP td=(nstates=5)
 -----------------------------------
 1/38=1,172=1/1;
 2/12=2,17=6,18=5,40=1/2;
 3/5=43,7=101,11=9,25=1,30=1,74=-40/1,2,3,8;
 4//1;
 5/5=2,38=5/2;
 8/6=1,10=1,108=5/1;
 9/41=5,42=1,70=2/14;
 6/7=2,8=2,9=2,10=2/1;
 99/5=1,9=1/99;
 Leave Link    1 at Thu Sep  9 05:06:11 2021, MaxMem= 23488102400 cpu:               0.6 elap:               0.0
 (Enter /sw/apps/gaussian-16.0/g16/l101.exe)
 --------------------------------
 TDDFT excited states in gaussian
 --------------------------------
 Symbolic Z-matrix:
 Charge =  0 Multiplicity = 1
 Mg                    0.        0.        0. 
 C                    -0.217    -2.218     2.801 
 C                    -1.255     2.442     2.026 
 C                    -0.245     1.85     -2.564 
 C                     0.146    -2.824    -2.037 
 N                    -0.617    -0.009     2.126 
 C                    -0.594    -0.908     3.105 
 C                    -0.936    -0.309     4.502 
 C                    -1.773     0.964     4.032 
 C                    -1.155     1.168     2.66 
 C                    -3.263     0.685     3.863 
 C                     0.345     0.11      5.299 
 C                     0.124     0.397     6.787 
 H                     1.168     0.033     7.733 
 N                    -0.185     1.961    -0.152 
 C                    -0.703     2.8       0.777 
 C                    -0.62      4.156     0.193 
 C                    -0.187     4.015    -1.225 
 C                    -0.214     2.583    -1.38 
 C                    -0.887     5.406     0.974 
 C                     0.181     5.013    -2.277 
 O                     0.303     4.69     -3.508 
 C                     0.31      6.414    -1.837 
 N                    -0.265    -0.413    -2.029 
 C                    -0.279     0.569    -2.937 
 C                    -0.196     0.024    -4.332 
 C                     0.124    -1.533    -4.18 
 C                     0.086    -1.632    -2.635 
 C                    -1.451     0.205    -5.197 
 C                     1.373    -2.07     -4.923 
 C                     2.626    -1.49     -4.306 
 N                     0.15     -2.144     0.303 
 C                     0.173    -3.136    -0.688 
 C                     0.173    -4.438     0.004 
 C                     0.133    -4.111     1.358 
 C                     0.083    -2.695     1.502 
 C                     0.149    -5.715    -0.623 
 C                     0.096    -4.629     2.716 
 O                     0.208    -5.747     3.221 
 C                    -0.255    -3.428     3.701 
 C                     0.717    -3.482     4.848 
 O                     1.931    -3.255     4.669 
 O                     0.038    -3.556     6.003 
 C                     0.943    -3.583     7.183 
 H                    -1.859     3.22      2.497 
 H                    -0.218     2.453    -3.474 
 H                     0.276    -3.747    -2.605 
 H                    -1.554    -0.949     5.132 
 H                    -1.585     1.831     4.665 
 H                    -3.484    -0.377     3.969 
 H                    -3.511     1.027     2.858 
 H                    -3.852     1.301     4.543 
 H                     0.669     1.096     4.966 
 H                     1.13     -0.639     5.189 
 H                    -0.844     0.026     7.125 
 H                     0.062     1.477     6.921 
 H                    -1.344     5.186     1.938 
 H                    -1.651     5.963     0.432 
 H                     0.007     6.02      1.084 
 H                    -0.635     6.744    -1.405 
 H                     0.665     6.97     -2.704 
 H                     1.048     6.466    -1.036 
 H                     0.608     0.501    -4.891 
 H                    -0.692    -2.156    -4.547 
 H                    -1.267     0.74     -6.129 
 H                    -2.204     0.714    -4.596 
 H                    -1.967    -0.72     -5.453 
 H                     1.356    -1.759    -5.967 
 H                     1.452    -3.157    -4.902 
 H                     2.714    -0.522    -4.798 
 H                     3.487    -2.121    -4.529 
 H                     2.495    -1.303    -3.24 
 H                     0.867    -6.333    -0.084 
 H                     0.404    -5.642    -1.68 
 H                    -0.891    -5.999    -0.463 
 H                    -1.283    -3.581     4.028 
 H                     0.698    -4.478     7.755 
 H                     0.833    -2.619     7.68 
 H                     2.       -3.754     6.976 
 Mg                    7.88974   0.71047   0.60709 
 C                     7.89789  -2.67951   1.78483 
 C                     6.69249   1.61433   3.67045 
 C                     7.44461   3.63511  -0.53997 
 C                     7.98158  -0.56247  -2.63589 
 N                     7.40003  -0.47086   2.41178 
 C                     7.50192  -1.74384   2.76318 
 C                     7.23762  -2.01885   4.26787 
 C                     6.33222  -0.73274   4.59197 
 C                     6.85987   0.21489   3.51668 
 C                     4.85078  -0.96123   4.34207 
 C                     8.5577   -2.02052   5.11606 
 C                     8.41229  -2.58514   6.53091 
 H                     9.52642  -3.3409    7.09662 
 N                     7.6461    2.43781   1.55339 
 C                     7.1694    2.62113   2.80256 
 C                     7.16737   4.07563   3.02298 
 C                     7.52639   4.74454   1.74299 
 C                     7.53278   3.60775   0.84423 
 C                     6.9231    4.69436   4.36869 
 C                     7.80388   6.17302   1.38432 
 O                     7.86246   6.56179   0.16438 
 C                     7.91229   7.12069   2.5031 
 N                     7.5217    1.43333  -1.30716 
 C                     7.42077   2.75376  -1.53997 
 C                     7.43181   3.04897  -3.02088 
 C                     7.80606   1.66619  -3.73183 
 C                     7.86154   0.74993  -2.48974 
 C                     6.12276   3.58211  -3.60271 
 C                     9.02321   1.67777  -4.69675 
 C                     10.29708   1.91431  -3.91785 
 N                     8.11815  -1.24082  -0.29201 
 C                     8.10216  -1.55259  -1.66919 
 C                     8.17862  -3.02348  -1.7835 
 C                     8.21083  -3.4702   -0.45388 
 C                     8.1378   -2.35751   0.42707 
 C                     8.16134  -3.76549  -2.9981 
 C                     8.27929  -4.63067   0.40479 
 O                     8.44383  -5.8365    0.22412 
 C                     7.9522   -4.17816   1.89296 
 C                     8.99154  -4.77798   2.79989 
 O                     10.18225  -4.42943   2.71412 
 O                     8.37847  -5.49714   3.75765 
 C                     9.3674   -6.10308   4.6886 
 H                     6.10389   1.97689   4.51365 
 H                     7.40133   4.62958  -0.99011 
 H                     8.11371  -1.03133  -3.61333 
 H                     6.68198  -2.926     4.4731 
 H                     6.54388  -0.34034   5.58322 
 H                     4.66377  -1.91616   3.87379 
 H                     4.53368  -0.15395   3.69493 
 H                     4.2885   -0.84029   5.27242 
 H                     8.83148  -0.98466   5.35436 
 H                     9.34205  -2.53842   4.59915 
 H                     7.47091  -3.13259   6.66151 
 H                     8.3362   -1.75015   7.23163 
 H                     6.52394   3.96229   5.08154 
 H                     6.11343   5.42151   4.24409 
 H                     7.80267   5.20872   4.76171 
 H                     6.98881   7.10891   3.07713 
 H                     8.20094   8.07248   2.05293 
 H                     8.70578   6.77776   3.17644 
 H                     8.1889    3.78474  -3.26291 
 H                     6.98276   1.29493  -4.35967 
 H                     6.23674   4.55775  -4.11183 
 H                     5.39759   3.65297  -2.80293 
 H                     5.62572   2.91715  -4.30698 
 H                     8.9357    2.50375  -5.40685 
 H                     9.12474   0.76541  -5.27492 
 H                     10.32345   3.00304  -3.81265 
 H                     11.159    1.55048  -4.47351 
 H                     10.22753   1.48741  -2.9106 
 H                     8.91929  -4.53193  -2.90552 
 H                     8.34557  -3.12488  -3.85801 
 H                     7.13594  -4.14433  -2.98065 
 H                     6.94834  -4.53262   2.12999 
 H                     9.17792  -7.1809    4.69874 
 H                     9.24748  -5.56154   5.64573 
 H                     10.4113  -6.07458   4.39891 
 
 ITRead=  0  0  0  0  0  0  0  0  0  0  0  0  0  0  0  0  0  0  0  0
 ITRead=  0  0  0  0  0  0  0  0  0  0  0  0  0  0  0  0  0  0  0  0
 ITRead=  0  0  0  0  0  0  0  0  0  0  0  0  0  0  0  0  0  0  0  0
 ITRead=  0  0  0  0  0  0  0  0  0  0  0  0  0  0  0  0  0  0  0  0
 ITRead=  0  0  0  0  0  0  0  0  0  0  0  0  0  0  0  0  0  0  0  0
 ITRead=  0  0  0  0  0  0  0  0  0  0  0  0  0  0  0  0  0  0  0  0
 ITRead=  0  0  0  0  0  0  0  0  0  0  0  0  0  0  0  0  0  0  0  0
 ITRead=  0  0  0  0  0  0  0  0  0  0  0  0  0  0  0  0  0  0
 MicOpt= -1 -1 -1 -1 -1 -1 -1 -1 -1 -1 -1 -1 -1 -1 -1 -1 -1 -1 -1 -1
 MicOpt= -1 -1 -1 -1 -1 -1 -1 -1 -1 -1 -1 -1 -1 -1 -1 -1 -1 -1 -1 -1
 MicOpt= -1 -1 -1 -1 -1 -1 -1 -1 -1 -1 -1 -1 -1 -1 -1 -1 -1 -1 -1 -1
 MicOpt= -1 -1 -1 -1 -1 -1 -1 -1 -1 -1 -1 -1 -1 -1 -1 -1 -1 -1 -1 -1
 MicOpt= -1 -1 -1 -1 -1 -1 -1 -1 -1 -1 -1 -1 -1 -1 -1 -1 -1 -1 -1 -1
 MicOpt= -1 -1 -1 -1 -1 -1 -1 -1 -1 -1 -1 -1 -1 -1 -1 -1 -1 -1 -1 -1
 MicOpt= -1 -1 -1 -1 -1 -1 -1 -1 -1 -1 -1 -1 -1 -1 -1 -1 -1 -1 -1 -1
 MicOpt= -1 -1 -1 -1 -1 -1 -1 -1 -1 -1 -1 -1 -1 -1 -1 -1 -1 -1
 NAtoms=    158 NQM=      158 NQMF=       0 NMMI=      0 NMMIF=      0
                NMic=       0 NMicF=      0.
                    Isotopes and Nuclear Properties:
 (Nuclear quadrupole moments (NQMom) in fm**2, nuclear magnetic moments (NMagM)
  in nuclear magnetons)

  Atom         1           2           3           4           5           6           7           8           9          10
 IAtWgt=          24          12          12          12          12          14          12          12          12          12
 AtmWgt=  23.9850450  12.0000000  12.0000000  12.0000000  12.0000000  14.0030740  12.0000000  12.0000000  12.0000000  12.0000000
 NucSpn=           0           0           0           0           0           2           0           0           0           0
 AtZEff=  -0.0000000  -0.0000000  -0.0000000  -0.0000000  -0.0000000  -0.0000000  -0.0000000  -0.0000000  -0.0000000  -0.0000000
 NQMom=    0.0000000   0.0000000   0.0000000   0.0000000   0.0000000   2.0440000   0.0000000   0.0000000   0.0000000   0.0000000
 NMagM=    0.0000000   0.0000000   0.0000000   0.0000000   0.0000000   0.4037610   0.0000000   0.0000000   0.0000000   0.0000000
 AtZNuc=  12.0000000   6.0000000   6.0000000   6.0000000   6.0000000   7.0000000   6.0000000   6.0000000   6.0000000   6.0000000

  Atom        11          12          13          14          15          16          17          18          19          20
 IAtWgt=          12          12          12           1          14          12          12          12          12          12
 AtmWgt=  12.0000000  12.0000000  12.0000000   1.0078250  14.0030740  12.0000000  12.0000000  12.0000000  12.0000000  12.0000000
 NucSpn=           0           0           0           1           2           0           0           0           0           0
 AtZEff=  -0.0000000  -0.0000000  -0.0000000  -0.0000000  -0.0000000  -0.0000000  -0.0000000  -0.0000000  -0.0000000  -0.0000000
 NQMom=    0.0000000   0.0000000   0.0000000   0.0000000   2.0440000   0.0000000   0.0000000   0.0000000   0.0000000   0.0000000
 NMagM=    0.0000000   0.0000000   0.0000000   2.7928460   0.4037610   0.0000000   0.0000000   0.0000000   0.0000000   0.0000000
 AtZNuc=   6.0000000   6.0000000   6.0000000   1.0000000   7.0000000   6.0000000   6.0000000   6.0000000   6.0000000   6.0000000

  Atom        21          22          23          24          25          26          27          28          29          30
 IAtWgt=          12          16          12          14          12          12          12          12          12          12
 AtmWgt=  12.0000000  15.9949146  12.0000000  14.0030740  12.0000000  12.0000000  12.0000000  12.0000000  12.0000000  12.0000000
 NucSpn=           0           0           0           2           0           0           0           0           0           0
 AtZEff=  -0.0000000  -0.0000000  -0.0000000  -0.0000000  -0.0000000  -0.0000000  -0.0000000  -0.0000000  -0.0000000  -0.0000000
 NQMom=    0.0000000   0.0000000   0.0000000   2.0440000   0.0000000   0.0000000   0.0000000   0.0000000   0.0000000   0.0000000
 NMagM=    0.0000000   0.0000000   0.0000000   0.4037610   0.0000000   0.0000000   0.0000000   0.0000000   0.0000000   0.0000000
 AtZNuc=   6.0000000   8.0000000   6.0000000   7.0000000   6.0000000   6.0000000   6.0000000   6.0000000   6.0000000   6.0000000

  Atom        31          32          33          34          35          36          37          38          39          40
 IAtWgt=          12          14          12          12          12          12          12          12          16          12
 AtmWgt=  12.0000000  14.0030740  12.0000000  12.0000000  12.0000000  12.0000000  12.0000000  12.0000000  15.9949146  12.0000000
 NucSpn=           0           2           0           0           0           0           0           0           0           0
 AtZEff=  -0.0000000  -0.0000000  -0.0000000  -0.0000000  -0.0000000  -0.0000000  -0.0000000  -0.0000000  -0.0000000  -0.0000000
 NQMom=    0.0000000   2.0440000   0.0000000   0.0000000   0.0000000   0.0000000   0.0000000   0.0000000   0.0000000   0.0000000
 NMagM=    0.0000000   0.4037610   0.0000000   0.0000000   0.0000000   0.0000000   0.0000000   0.0000000   0.0000000   0.0000000
 AtZNuc=   6.0000000   7.0000000   6.0000000   6.0000000   6.0000000   6.0000000   6.0000000   6.0000000   8.0000000   6.0000000

  Atom        41          42          43          44          45          46          47          48          49          50
 IAtWgt=          12          16          16          12           1           1           1           1           1           1
 AtmWgt=  12.0000000  15.9949146  15.9949146  12.0000000   1.0078250   1.0078250   1.0078250   1.0078250   1.0078250   1.0078250
 NucSpn=           0           0           0           0           1           1           1           1           1           1
 AtZEff=  -0.0000000  -0.0000000  -0.0000000  -0.0000000  -0.0000000  -0.0000000  -0.0000000  -0.0000000  -0.0000000  -0.0000000
 NQMom=    0.0000000   0.0000000   0.0000000   0.0000000   0.0000000   0.0000000   0.0000000   0.0000000   0.0000000   0.0000000
 NMagM=    0.0000000   0.0000000   0.0000000   0.0000000   2.7928460   2.7928460   2.7928460   2.7928460   2.7928460   2.7928460
 AtZNuc=   6.0000000   8.0000000   8.0000000   6.0000000   1.0000000   1.0000000   1.0000000   1.0000000   1.0000000   1.0000000

  Atom        51          52          53          54          55          56          57          58          59          60
 IAtWgt=           1           1           1           1           1           1           1           1           1           1
 AtmWgt=   1.0078250   1.0078250   1.0078250   1.0078250   1.0078250   1.0078250   1.0078250   1.0078250   1.0078250   1.0078250
 NucSpn=           1           1           1           1           1           1           1           1           1           1
 AtZEff=  -0.0000000  -0.0000000  -0.0000000  -0.0000000  -0.0000000  -0.0000000  -0.0000000  -0.0000000  -0.0000000  -0.0000000
 NQMom=    0.0000000   0.0000000   0.0000000   0.0000000   0.0000000   0.0000000   0.0000000   0.0000000   0.0000000   0.0000000
 NMagM=    2.7928460   2.7928460   2.7928460   2.7928460   2.7928460   2.7928460   2.7928460   2.7928460   2.7928460   2.7928460
 AtZNuc=   1.0000000   1.0000000   1.0000000   1.0000000   1.0000000   1.0000000   1.0000000   1.0000000   1.0000000   1.0000000

  Atom        61          62          63          64          65          66          67          68          69          70
 IAtWgt=           1           1           1           1           1           1           1           1           1           1
 AtmWgt=   1.0078250   1.0078250   1.0078250   1.0078250   1.0078250   1.0078250   1.0078250   1.0078250   1.0078250   1.0078250
 NucSpn=           1           1           1           1           1           1           1           1           1           1
 AtZEff=  -0.0000000  -0.0000000  -0.0000000  -0.0000000  -0.0000000  -0.0000000  -0.0000000  -0.0000000  -0.0000000  -0.0000000
 NQMom=    0.0000000   0.0000000   0.0000000   0.0000000   0.0000000   0.0000000   0.0000000   0.0000000   0.0000000   0.0000000
 NMagM=    2.7928460   2.7928460   2.7928460   2.7928460   2.7928460   2.7928460   2.7928460   2.7928460   2.7928460   2.7928460
 AtZNuc=   1.0000000   1.0000000   1.0000000   1.0000000   1.0000000   1.0000000   1.0000000   1.0000000   1.0000000   1.0000000

  Atom        71          72          73          74          75          76          77          78          79          80
 IAtWgt=           1           1           1           1           1           1           1           1           1          24
 AtmWgt=   1.0078250   1.0078250   1.0078250   1.0078250   1.0078250   1.0078250   1.0078250   1.0078250   1.0078250  23.9850450
 NucSpn=           1           1           1           1           1           1           1           1           1           0
 AtZEff=  -0.0000000  -0.0000000  -0.0000000  -0.0000000  -0.0000000  -0.0000000  -0.0000000  -0.0000000  -0.0000000  -0.0000000
 NQMom=    0.0000000   0.0000000   0.0000000   0.0000000   0.0000000   0.0000000   0.0000000   0.0000000   0.0000000   0.0000000
 NMagM=    2.7928460   2.7928460   2.7928460   2.7928460   2.7928460   2.7928460   2.7928460   2.7928460   2.7928460   0.0000000
 AtZNuc=   1.0000000   1.0000000   1.0000000   1.0000000   1.0000000   1.0000000   1.0000000   1.0000000   1.0000000  12.0000000

  Atom        81          82          83          84          85          86          87          88          89          90
 IAtWgt=          12          12          12          12          14          12          12          12          12          12
 AtmWgt=  12.0000000  12.0000000  12.0000000  12.0000000  14.0030740  12.0000000  12.0000000  12.0000000  12.0000000  12.0000000
 NucSpn=           0           0           0           0           2           0           0           0           0           0
 AtZEff=  -0.0000000  -0.0000000  -0.0000000  -0.0000000  -0.0000000  -0.0000000  -0.0000000  -0.0000000  -0.0000000  -0.0000000
 NQMom=    0.0000000   0.0000000   0.0000000   0.0000000   2.0440000   0.0000000   0.0000000   0.0000000   0.0000000   0.0000000
 NMagM=    0.0000000   0.0000000   0.0000000   0.0000000   0.4037610   0.0000000   0.0000000   0.0000000   0.0000000   0.0000000
 AtZNuc=   6.0000000   6.0000000   6.0000000   6.0000000   7.0000000   6.0000000   6.0000000   6.0000000   6.0000000   6.0000000

  Atom        91          92          93          94          95          96          97          98          99         100
 IAtWgt=          12          12           1          14          12          12          12          12          12          12
 AtmWgt=  12.0000000  12.0000000   1.0078250  14.0030740  12.0000000  12.0000000  12.0000000  12.0000000  12.0000000  12.0000000
 NucSpn=           0           0           1           2           0           0           0           0           0           0
 AtZEff=  -0.0000000  -0.0000000  -0.0000000  -0.0000000  -0.0000000  -0.0000000  -0.0000000  -0.0000000  -0.0000000  -0.0000000
 NQMom=    0.0000000   0.0000000   0.0000000   2.0440000   0.0000000   0.0000000   0.0000000   0.0000000   0.0000000   0.0000000
 NMagM=    0.0000000   0.0000000   2.7928460   0.4037610   0.0000000   0.0000000   0.0000000   0.0000000   0.0000000   0.0000000
 AtZNuc=   6.0000000   6.0000000   1.0000000   7.0000000   6.0000000   6.0000000   6.0000000   6.0000000   6.0000000   6.0000000

  Atom       101         102         103         104         105         106         107         108         109         110
 IAtWgt=          16          12          14          12          12          12          12          12          12          12
 AtmWgt=  15.9949146  12.0000000  14.0030740  12.0000000  12.0000000  12.0000000  12.0000000  12.0000000  12.0000000  12.0000000
 NucSpn=           0           0           2           0           0           0           0           0           0           0
 AtZEff=  -0.0000000  -0.0000000  -0.0000000  -0.0000000  -0.0000000  -0.0000000  -0.0000000  -0.0000000  -0.0000000  -0.0000000
 NQMom=    0.0000000   0.0000000   2.0440000   0.0000000   0.0000000   0.0000000   0.0000000   0.0000000   0.0000000   0.0000000
 NMagM=    0.0000000   0.0000000   0.4037610   0.0000000   0.0000000   0.0000000   0.0000000   0.0000000   0.0000000   0.0000000
 AtZNuc=   8.0000000   6.0000000   7.0000000   6.0000000   6.0000000   6.0000000   6.0000000   6.0000000   6.0000000   6.0000000

  Atom       111         112         113         114         115         116         117         118         119         120
 IAtWgt=          14          12          12          12          12          12          12          16          12          12
 AtmWgt=  14.0030740  12.0000000  12.0000000  12.0000000  12.0000000  12.0000000  12.0000000  15.9949146  12.0000000  12.0000000
 NucSpn=           2           0           0           0           0           0           0           0           0           0
 AtZEff=  -0.0000000  -0.0000000  -0.0000000  -0.0000000  -0.0000000  -0.0000000  -0.0000000  -0.0000000  -0.0000000  -0.0000000
 NQMom=    2.0440000   0.0000000   0.0000000   0.0000000   0.0000000   0.0000000   0.0000000   0.0000000   0.0000000   0.0000000
 NMagM=    0.4037610   0.0000000   0.0000000   0.0000000   0.0000000   0.0000000   0.0000000   0.0000000   0.0000000   0.0000000
 AtZNuc=   7.0000000   6.0000000   6.0000000   6.0000000   6.0000000   6.0000000   6.0000000   8.0000000   6.0000000   6.0000000

  Atom       121         122         123         124         125         126         127         128         129         130
 IAtWgt=          16          16          12           1           1           1           1           1           1           1
 AtmWgt=  15.9949146  15.9949146  12.0000000   1.0078250   1.0078250   1.0078250   1.0078250   1.0078250   1.0078250   1.0078250
 NucSpn=           0           0           0           1           1           1           1           1           1           1
 AtZEff=  -0.0000000  -0.0000000  -0.0000000  -0.0000000  -0.0000000  -0.0000000  -0.0000000  -0.0000000  -0.0000000  -0.0000000
 NQMom=    0.0000000   0.0000000   0.0000000   0.0000000   0.0000000   0.0000000   0.0000000   0.0000000   0.0000000   0.0000000
 NMagM=    0.0000000   0.0000000   0.0000000   2.7928460   2.7928460   2.7928460   2.7928460   2.7928460   2.7928460   2.7928460
 AtZNuc=   8.0000000   8.0000000   6.0000000   1.0000000   1.0000000   1.0000000   1.0000000   1.0000000   1.0000000   1.0000000

  Atom       131         132         133         134         135         136         137         138         139         140
 IAtWgt=           1           1           1           1           1           1           1           1           1           1
 AtmWgt=   1.0078250   1.0078250   1.0078250   1.0078250   1.0078250   1.0078250   1.0078250   1.0078250   1.0078250   1.0078250
 NucSpn=           1           1           1           1           1           1           1           1           1           1
 AtZEff=  -0.0000000  -0.0000000  -0.0000000  -0.0000000  -0.0000000  -0.0000000  -0.0000000  -0.0000000  -0.0000000  -0.0000000
 NQMom=    0.0000000   0.0000000   0.0000000   0.0000000   0.0000000   0.0000000   0.0000000   0.0000000   0.0000000   0.0000000
 NMagM=    2.7928460   2.7928460   2.7928460   2.7928460   2.7928460   2.7928460   2.7928460   2.7928460   2.7928460   2.7928460
 AtZNuc=   1.0000000   1.0000000   1.0000000   1.0000000   1.0000000   1.0000000   1.0000000   1.0000000   1.0000000   1.0000000

  Atom       141         142         143         144         145         146         147         148         149         150
 IAtWgt=           1           1           1           1           1           1           1           1           1           1
 AtmWgt=   1.0078250   1.0078250   1.0078250   1.0078250   1.0078250   1.0078250   1.0078250   1.0078250   1.0078250   1.0078250
 NucSpn=           1           1           1           1           1           1           1           1           1           1
 AtZEff=  -0.0000000  -0.0000000  -0.0000000  -0.0000000  -0.0000000  -0.0000000  -0.0000000  -0.0000000  -0.0000000  -0.0000000
 NQMom=    0.0000000   0.0000000   0.0000000   0.0000000   0.0000000   0.0000000   0.0000000   0.0000000   0.0000000   0.0000000
 NMagM=    2.7928460   2.7928460   2.7928460   2.7928460   2.7928460   2.7928460   2.7928460   2.7928460   2.7928460   2.7928460
 AtZNuc=   1.0000000   1.0000000   1.0000000   1.0000000   1.0000000   1.0000000   1.0000000   1.0000000   1.0000000   1.0000000

  Atom       151         152         153         154         155         156         157         158
 IAtWgt=           1           1           1           1           1           1           1           1
 AtmWgt=   1.0078250   1.0078250   1.0078250   1.0078250   1.0078250   1.0078250   1.0078250   1.0078250
 NucSpn=           1           1           1           1           1           1           1           1
 AtZEff=  -0.0000000  -0.0000000  -0.0000000  -0.0000000  -0.0000000  -0.0000000  -0.0000000  -0.0000000
 NQMom=    0.0000000   0.0000000   0.0000000   0.0000000   0.0000000   0.0000000   0.0000000   0.0000000
 NMagM=    2.7928460   2.7928460   2.7928460   2.7928460   2.7928460   2.7928460   2.7928460   2.7928460
 AtZNuc=   1.0000000   1.0000000   1.0000000   1.0000000   1.0000000   1.0000000   1.0000000   1.0000000
 Leave Link  101 at Thu Sep  9 05:06:11 2021, MaxMem= 23488102400 cpu:               3.3 elap:               0.2
 (Enter /sw/apps/gaussian-16.0/g16/l202.exe)
 Stoichiometry    C68H72Mg2N8O8
 Framework group  C1[X(C68H72Mg2N8O8)]
 Deg. of freedom   468
 Full point group                 C1      NOp   1
 Largest Abelian subgroup         C1      NOp   1
 Largest concise Abelian subgroup C1      NOp   1
                         Standard orientation:                         
 ---------------------------------------------------------------------
 Center     Atomic      Atomic             Coordinates (Angstroms)
 Number     Number       Type             X           Y           Z
 ---------------------------------------------------------------------
      1         12           0        3.901252   -0.328797   -0.590994
      2          6           0        3.824317    3.173922    0.141980
      3          6           0        5.263772   -0.794665    2.502479
      4          6           0        4.399045   -3.358145   -1.385899
      5          6           0        3.613026    0.519879   -3.958832
      6          7           0        4.427639    1.088370    1.026164
      7          6           0        4.292377    2.398641    1.205232
      8          6           0        4.623619    2.861441    2.655566
      9          6           0        5.578650    1.661252    3.090838
     10          6           0        5.035921    0.575713    2.178164
     11          6           0        7.047149    1.897986    2.753245
     12          6           0        3.348688    2.936523    3.561461
     13          6           0        3.530654    3.685447    4.884849
     14          1           0        2.422822    4.475518    5.400450
     15          7           0        4.249059   -1.909922    0.541228
     16          6           0        4.794073   -1.913779    1.781482
     17          6           0        4.844193   -3.331103    2.200245
     18          6           0        4.459925   -4.165736    1.028144
     19          6           0        4.378310   -3.166538   -0.006419
     20          6           0        5.178282   -3.765908    3.594188
     21          6           0        4.216721   -5.632707    0.863889
     22          8           0        4.119901   -6.181457   -0.286795
     23          6           0        4.182551   -6.435376    2.099848
     24          7           0        4.215436   -1.283631   -2.420534
     25          6           0        4.345475   -2.612915   -2.491795
     26          6           0        4.276428   -3.092976   -3.911201
     27          6           0        3.826580   -1.832844   -4.782668
     28          6           0        3.792983   -0.768314   -3.658427
     29          6           0        5.576392   -3.672804   -4.485575
     30          6           0        2.570124   -2.005718   -5.672528
     31          6           0        1.343393   -2.166170   -4.802767
     32          7           0        3.567417    1.491738   -1.724682
     33          6           0        3.505662    1.616654   -3.120124
     34          6           0        3.372774    3.054245   -3.419690
     35          6           0        3.383193    3.671175   -2.170237
     36          6           0        3.540663    2.683976   -1.155873
     37          6           0        3.320004    3.633528   -4.718182
     38          6           0        3.322673    4.936939   -1.457470
     39          8           0        3.100686    6.104620   -1.781100
     40          6           0        3.728105    4.677130    0.060407
     41          6           0        2.708587    5.364541    0.927216
     42          8           0        1.525096    4.969908    0.958506
     43          8           0        3.331415    6.217569    1.754845
     44          6           0        2.379435    6.911263    2.662962
     45          1           0        5.908367   -1.036407    3.349827
     46          1           0        4.457930   -4.402322   -1.700011
     47          1           0        3.432857    0.852388   -4.982761
     48          1           0        5.161869    3.807317    2.719044
     49          1           0        5.434950    1.385080    4.135253
     50          1           0        7.177699    2.797615    2.151959
     51          1           0        7.362881    1.017106    2.193909
     52          1           0        7.655219    1.912182    3.658136
     53          1           0        3.118791    1.941199    3.941644
     54          1           0        2.511320    3.370412    3.013848
     55          1           0        4.451060    4.270039    4.888701
     56          1           0        3.673533    2.950014    5.676634
     57          1           0        5.576152   -2.942519    4.186029
     58          1           0        6.006131   -4.470597    3.518115
     59          1           0        4.332655   -4.244176    4.088665
     60          1           0        5.132421   -6.329218    2.624277
     61          1           0        3.909233   -7.445013    1.795249
     62          1           0        3.418805   -6.029176    2.763657
     63          1           0        3.536941   -3.885208   -4.020537
     64          1           0        4.604365   -1.518471   -5.479012
     65          1           0        5.474364   -4.692791   -4.856953
     66          1           0        6.342457   -3.612701   -3.713033
     67          1           0        6.026609   -3.082945   -5.283565
     68          1           0        2.654912   -2.908071   -6.277107
     69          1           0        2.403382   -1.167561   -6.349242
     70          1           0        1.353626   -3.228378   -4.561021
     71          1           0        0.444444   -1.901327   -5.360404
     72          1           0        1.445047   -1.617809   -3.866042
     73          1           0        2.533198    4.387024   -4.684292
     74          1           0        3.115342    2.881065   -5.479441
     75          1           0        4.326412    4.044352   -4.797067
     76          1           0        4.726207    5.093181    0.193884
     77          1           0        2.528130    7.982450    2.526283
     78          1           0        2.545892    6.500338    3.658872
     79          1           0        1.321527    6.817106    2.415362
     80         12           0       -3.924329   -1.179121    0.485363
     81          6           0       -4.252798    2.165175   -0.774358
     82          6           0       -2.785351    0.188484    3.395163
     83          6           0       -3.199250   -4.109362    1.462785
     84          6           0       -3.984623   -2.281667   -2.820160
     85          7           0       -3.605554    0.918913    1.108982
     86          6           0       -3.823591    2.108095    0.568013
     87          6           0       -3.644272    3.301491    1.544348
     88          6           0       -2.652706    2.603784    2.597377
     89          6           0       -3.057993    1.146457    2.386179
     90          6           0       -1.185355    2.749517    2.230001
     91          6           0       -4.993974    3.727659    2.221641
     92          6           0       -4.952601    5.074890    2.946209
     93          1           0       -6.146074    5.915987    2.920446
     94          7           0       -3.582006   -1.875782    2.311843
     95          6           0       -3.143883   -1.177370    3.380273
     96          6           0       -3.034240   -2.149503    4.478951
     97          6           0       -3.285529   -3.509301    3.928938
     98          6           0       -3.346148   -3.213306    2.511612
     99          6           0       -2.796639   -1.743110    5.904370
    100          6           0       -3.432555   -4.855467    4.571137
    101          8           0       -3.409569   -5.936192    3.882418
    102          6           0       -3.510484   -4.876521    6.039123
    103          7           0       -3.421122   -2.920797   -0.532320
    104          6           0       -3.205109   -4.070730    0.130186
    105          6           0       -3.131555   -5.242139   -0.819948
    106          6           0       -3.585989   -4.670492   -2.242728
    107          6           0       -3.765797   -3.182066   -1.871708
    108          6           0       -1.761152   -5.906038   -0.952645
    109          6           0       -4.757596   -5.401853   -2.953435
    110          6           0       -6.039319   -5.198080   -2.178164
    111          7           0       -4.271389   -0.279661   -1.448184
    112          6           0       -4.223872   -0.918104   -2.706839
    113          6           0       -4.413318    0.127703   -3.732913
    114          6           0       -4.535881    1.314739   -2.995072
    115          6           0       -4.410095    1.031686   -1.608153
    116          6           0       -4.405712   -0.077734   -5.141412
    117          6           0       -4.732448    2.744324   -3.074690
    118          8           0       -4.985625    3.537249   -3.980731
    119          6           0       -4.431554    3.376048   -1.647528
    120          6           0       -5.552056    4.322045   -1.312719
    121          8           0       -6.706433    3.895921   -1.132535
    122          8           0       -5.038538    5.537110   -1.047639
    123          6           0       -6.110314    6.507544   -0.699260
    124          1           0       -2.204718    0.500656    4.263667
    125          1           0       -3.057868   -5.153578    1.751046
    126          1           0       -4.113653   -2.557978   -3.868816
    127          1           0       -3.172101    4.175362    1.111704
    128          1           0       -2.872767    2.917169    3.614587
    129          1           0       -1.056464    3.197943    1.256117
    130          1           0       -0.778187    1.746960    2.241768
    131          1           0       -0.653899    3.299834    3.011693
    132          1           0       -5.193336    3.062992    3.072064
    133          1           0       -5.795432    3.725243    1.508703
    134          1           0       -4.064337    5.659865    2.678355
    135          1           0       -4.838637    4.889631    4.017049
    136          1           0       -2.487129   -0.693191    5.977064
    137          1           0       -1.926811   -2.307743    6.257111
    138          1           0       -3.647519   -1.963352    6.552575
    139          1           0       -2.615301   -4.420154    6.454865
    140          1           0       -3.703103   -5.917294    6.306640
    141          1           0       -4.355928   -4.254448    6.353547
    142          1           0       -3.816592   -6.026070   -0.521120
    143          1           0       -2.770018   -4.714464   -2.979001
    144          1           0       -1.775476   -6.987296   -0.718673
    145          1           0       -1.066121   -5.386356   -0.306577
    146          1           0       -1.290532   -5.802732   -1.928894
    147          1           0       -4.574997   -6.479069   -2.973616
    148          1           0       -4.908140   -5.081468   -3.978949
    149          1           0       -5.982567   -5.966335   -1.401209
    150          1           0       -6.904079   -5.349920   -2.820948
    151          1           0       -6.045697   -4.222875   -1.677597
    152          1           0       -5.225866    0.501088   -5.544899
    153          1           0       -4.502459   -1.132568   -5.389873
    154          1           0       -3.415594    0.313450   -5.390230
    155          1           0       -3.469957    3.886737   -1.711471
    156          1           0       -6.008485    7.355364   -1.383755
    157          1           0       -5.986778    6.714216    0.380448
    158          1           0       -7.135772    6.209151   -0.883265
 ---------------------------------------------------------------------
 Rotational constants (GHZ):           0.0203922           0.0173639           0.0143678
 Leave Link  202 at Thu Sep  9 05:06:11 2021, MaxMem= 23488102400 cpu:               0.2 elap:               0.0
 (Enter /sw/apps/gaussian-16.0/g16/l301.exe)
 Standard basis: def2SVP (5D, 7F)
 Ernie: Thresh=  0.10000D-02 Tol=  0.10000D-05 Strict=F.
 There are  1658 symmetry adapted cartesian basis functions of A   symmetry.
 There are  1572 symmetry adapted basis functions of A   symmetry.
  1572 basis functions,  2678 primitive gaussians,  1658 cartesian basis functions
   312 alpha electrons      312 beta electrons
       nuclear repulsion energy     15954.7377541662 Hartrees.
 IExCor=20419 DFT=T Ex+Corr=CAM-B3LYP ExCW=0 ScaHFX=  1.000000
 ScaDFX=  1.000000  1.000000  1.000000  0.810000 ScalE2=  1.000000  1.000000
 IRadAn=      5 IRanWt=     -1 IRanGd=            0 ICorTp=0 IEmpDi=  4
 HFx  wShort=  0.000000 wLong=  0.330000 cFull=  0.190000 cShort=  0.000000 cLong=  0.460000
 DFx  wShort=  0.000000 wLong=  0.330000 cFull=  0.190000 cShort=  0.000000 cLong=  0.460000
 NAtoms=  158 NActive=  158 NUniq=  158 SFac= 1.00D+00 NAtFMM=   60 NAOKFM=T Big=T
 Integral buffers will be    131072 words long.
 Raffenetti 1 integral format.
 Two-electron integral symmetry is turned on.
 Leave Link  301 at Thu Sep  9 05:06:11 2021, MaxMem= 23488102400 cpu:               1.3 elap:               0.1
 (Enter /sw/apps/gaussian-16.0/g16/l302.exe)
 NPDir=0 NMtPBC=     1 NCelOv=     1 NCel=       1 NClECP=     1 NCelD=      1
         NCelK=      1 NCelE2=     1 NClLst=     1 CellRange=     0.0.
 One-electron integrals computed using PRISM.
 One-electron integral symmetry used in STVInt
   1 Symmetry operations used in ECPInt.
 ECPInt:  NShTT=  271216 NPrTT=  987664 LenC2=  164162 LenP2D=  344706.
 LDataN:  DoStor=T MaxTD1= 4 Len=   56
 NBasis=  1572 RedAO= T EigKep=  3.35D-04  NBF=  1572
 NBsUse=  1572 1.00D-06 EigRej= -1.00D+00 NBFU=  1572
 Precomputing XC quadrature grid using
 IXCGrd= 4 IRadAn=           5 IRanWt=          -1 IRanGd=           0 AccXCQ= 0.00D+00.
 Generated NRdTot=       0 NPtTot=           0 NUsed=           0 NTot=          32
 NSgBfM=  1254  1238  1247  1250  1254 MxSgAt=   158 MxSgA2=   158.
 Leave Link  302 at Thu Sep  9 05:06:17 2021, MaxMem= 23488102400 cpu:             130.2 elap:               5.4
 (Enter /sw/apps/gaussian-16.0/g16/l303.exe)
 DipDrv:  MaxL=1.
 Leave Link  303 at Thu Sep  9 05:06:17 2021, MaxMem= 23488102400 cpu:              10.0 elap:               0.5
 (Enter /sw/apps/gaussian-16.0/g16/l308.exe)
 Leave Link  308 at Thu Sep  9 05:06:18 2021, MaxMem= 23488102400 cpu:              15.9 elap:               0.8
 (Enter /sw/apps/gaussian-16.0/g16/l401.exe)
 ExpMin= 3.36D-02 ExpMax= 4.95D+03 ExpMxC= 7.45D+02 IAcc=3 IRadAn=         5 AccDes= 0.00D+00
 Harris functional with IExCor=20419 and IRadAn=       5 diagonalized for initial guess.
 HarFok:  IExCor=20419 AccDes= 0.00D+00 IRadAn=         5 IDoV= 1 UseB2=F ITyADJ=14
 ICtDFT=  3500011 ScaDFX=  1.000000  1.000000  1.000000  1.000000
 FoFCou: FMM=F IPFlag=           0 FMFlag=      100000 FMFlg1=        2001
         NFxFlg=           0 DoJE=T BraDBF=F KetDBF=T FulRan=T
         wScrn=  0.000000 ICntrl=       500 IOpCl=  0 I1Cent=   200000004 NGrid=           0
         NMat0=    1 NMatS0=      1 NMatT0=    0 NMatD0=    1 NMtDS0=    0 NMtDT0=    0
 Petite list used in FoFCou.
 Harris En= -3918.66004449125    
 JPrj=0 DoOrth=F DoCkMO=F.
 Leave Link  401 at Thu Sep  9 05:06:27 2021, MaxMem= 23488102400 cpu:             204.2 elap:               8.5
 (Enter /sw/apps/gaussian-16.0/g16/l502.exe)
 Integral symmetry usage will be decided dynamically.
 Closed shell SCF:
 Using DIIS extrapolation, IDIIS=  1040.
 NGot= 23488102400 LenX= 23482547354 LenY= 23479796732
 Requested convergence on RMS density matrix=1.00D-08 within 128 cycles.
 Requested convergence on MAX density matrix=1.00D-06.
 Requested convergence on             energy=1.00D-06.
 No special actions if energy rises.
 Fock matrices will be formed incrementally for  20 cycles.

 Cycle   1  Pass 1  IDiag  1:
 FoFJK:  IHMeth= 1 ICntrl=       0 DoSepK=T KAlg= 0 I1Cent=           0 FoldK=F
 IRaf=         1 NMat=       1 IRICut=       1 DoRegI=T DoRafI=F ISym2E= 0 IDoP0=0 IntGTp=1.
 FoFCou: FMM=T IPFlag=           0 FMFlag=      100000 FMFlg1=        2001
         NFxFlg=           0 DoJE=T BraDBF=F KetDBF=F FulRan=T
         wScrn=  0.000000 ICntrl=       500 IOpCl=  0 I1Cent=           0 NGrid=           0
         NMat0=    1 NMatS0=      1 NMatT0=    0 NMatD0=    1 NMtDS0=    0 NMtDT0=    0
 Symmetry not used in FoFCou.
 FMM levels:  10  Number of levels for PrismC:   9
 E= -4068.94969261428    
 DIIS: error= 2.02D-02 at cycle   1 NSaved=   1.
 NSaved= 1 IEnMin= 1 EnMin= -4068.94969261428     IErMin= 1 ErrMin= 2.02D-02
 ErrMax= 2.02D-02  0.00D+00 EMaxC= 1.00D-01 BMatC= 1.69D+00 BMatP= 1.69D+00
 IDIUse=3 WtCom= 7.98D-01 WtEn= 2.02D-01
 Coeff-Com:  0.100D+01
 Coeff-En:   0.100D+01
 Coeff:      0.100D+01
 Gap=     0.120 Goal=   None    Shift=    0.000
 GapD=    0.120 DampG=1.000 DampE=0.500 DampFc=0.5000 IDamp=-1.
 Damping current iteration by 5.00D-01
 RMSDP=1.58D-03 MaxDP=1.37D-01              OVMax= 2.06D-01

 Cycle   2  Pass 1  IDiag  1:
 RMSU=  7.73D-04    CP:  9.82D-01
 E= -4069.33896221791     Delta-E=       -0.389269603638 Rises=F Damp=T
 DIIS: error= 1.26D-02 at cycle   2 NSaved=   2.
 NSaved= 2 IEnMin= 2 EnMin= -4069.33896221791     IErMin= 2 ErrMin= 1.26D-02
 ErrMax= 1.26D-02  0.00D+00 EMaxC= 1.00D-01 BMatC= 3.07D-01 BMatP= 1.69D+00
 IDIUse=3 WtCom= 8.74D-01 WtEn= 1.26D-01
 Coeff-Com: -0.213D+00 0.121D+01
 Coeff-En:   0.000D+00 0.100D+01
 Coeff:     -0.187D+00 0.119D+01
 Gap=     0.132 Goal=   None    Shift=    0.000
 RMSDP=7.72D-04 MaxDP=9.46D-02 DE=-3.89D-01 OVMax= 1.96D-01

 Cycle   3  Pass 1  IDiag  1:
 RMSU=  7.41D-04    CP:  9.68D-01  1.23D+00
 E= -4069.62548472449     Delta-E=       -0.286522506576 Rises=F Damp=F
 DIIS: error= 1.52D-02 at cycle   3 NSaved=   3.
 NSaved= 3 IEnMin= 3 EnMin= -4069.62548472449     IErMin= 2 ErrMin= 1.26D-02
 ErrMax= 1.52D-02  0.00D+00 EMaxC= 1.00D-01 BMatC= 2.03D-01 BMatP= 3.07D-01
 IDIUse=3 WtCom= 8.48D-01 WtEn= 1.52D-01
 Coeff-Com: -0.268D+00 0.653D+00 0.614D+00
 Coeff-En:   0.000D+00 0.000D+00 0.100D+01
 Coeff:     -0.227D+00 0.554D+00 0.673D+00
 Gap=     0.118 Goal=   None    Shift=    0.000
 RMSDP=5.23D-04 MaxDP=4.67D-02 DE=-2.87D-01 OVMax= 1.59D-01

 Cycle   4  Pass 1  IDiag  1:
 RMSU=  2.72D-04    CP:  9.64D-01  1.55D+00  4.95D-01
 E= -4069.76450407422     Delta-E=       -0.139019349732 Rises=F Damp=F
 DIIS: error= 6.69D-03 at cycle   4 NSaved=   4.
 NSaved= 4 IEnMin= 4 EnMin= -4069.76450407422     IErMin= 4 ErrMin= 6.69D-03
 ErrMax= 6.69D-03  0.00D+00 EMaxC= 1.00D-01 BMatC= 5.05D-02 BMatP= 2.03D-01
 IDIUse=3 WtCom= 9.33D-01 WtEn= 6.69D-02
 Coeff-Com: -0.111D+00 0.231D+00 0.409D+00 0.471D+00
 Coeff-En:   0.000D+00 0.000D+00 0.226D+00 0.774D+00
 Coeff:     -0.103D+00 0.215D+00 0.396D+00 0.492D+00
 Gap=     0.118 Goal=   None    Shift=    0.000
 RMSDP=2.11D-04 MaxDP=1.82D-02 DE=-1.39D-01 OVMax= 7.63D-02

 Cycle   5  Pass 1  IDiag  1:
 RMSU=  8.21D-05    CP:  9.64D-01  1.49D+00  6.85D-01  5.36D-01
 E= -4069.81178739075     Delta-E=       -0.047283316526 Rises=F Damp=F
 DIIS: error= 6.54D-04 at cycle   5 NSaved=   5.
 NSaved= 5 IEnMin= 5 EnMin= -4069.81178739075     IErMin= 5 ErrMin= 6.54D-04
 ErrMax= 6.54D-04  0.00D+00 EMaxC= 1.00D-01 BMatC= 1.46D-03 BMatP= 5.05D-02
 IDIUse=3 WtCom= 9.93D-01 WtEn= 6.54D-03
 Coeff-Com: -0.409D-01 0.808D-01 0.181D+00 0.263D+00 0.517D+00
 Coeff-En:   0.000D+00 0.000D+00 0.000D+00 0.000D+00 0.100D+01
 Coeff:     -0.406D-01 0.803D-01 0.179D+00 0.261D+00 0.520D+00
 Gap=     0.118 Goal=   None    Shift=    0.000
 RMSDP=4.95D-05 MaxDP=5.21D-03 DE=-4.73D-02 OVMax= 2.49D-02

 Cycle   6  Pass 1  IDiag  1:
 RMSU=  3.47D-05    CP:  9.64D-01  1.49D+00  6.75D-01  6.17D-01  6.87D-01
 E= -4069.81318592555     Delta-E=       -0.001398534798 Rises=F Damp=F
 DIIS: error= 2.49D-04 at cycle   6 NSaved=   6.
 NSaved= 6 IEnMin= 6 EnMin= -4069.81318592555     IErMin= 6 ErrMin= 2.49D-04
 ErrMax= 2.49D-04  0.00D+00 EMaxC= 1.00D-01 BMatC= 2.33D-04 BMatP= 1.46D-03
 IDIUse=3 WtCom= 9.98D-01 WtEn= 2.49D-03
 Coeff-Com:  0.995D-03-0.427D-02 0.166D-01 0.466D-01 0.306D+00 0.634D+00
 Coeff-En:   0.000D+00 0.000D+00 0.000D+00 0.000D+00 0.137D+00 0.863D+00
 Coeff:      0.993D-03-0.426D-02 0.166D-01 0.465D-01 0.305D+00 0.635D+00
 Gap=     0.118 Goal=   None    Shift=    0.000
 RMSDP=1.92D-05 MaxDP=1.42D-03 DE=-1.40D-03 OVMax= 9.23D-03

 Cycle   7  Pass 1  IDiag  1:
 RMSU=  1.19D-05    CP:  9.64D-01  1.50D+00  6.81D-01  6.13D-01  8.13D-01
                    CP:  7.25D-01
 E= -4069.81345612794     Delta-E=       -0.000270202392 Rises=F Damp=F
 DIIS: error= 1.36D-04 at cycle   7 NSaved=   7.
 NSaved= 7 IEnMin= 7 EnMin= -4069.81345612794     IErMin= 7 ErrMin= 1.36D-04
 ErrMax= 1.36D-04  0.00D+00 EMaxC= 1.00D-01 BMatC= 3.13D-05 BMatP= 2.33D-04
 IDIUse=3 WtCom= 9.99D-01 WtEn= 1.36D-03
 Coeff-Com:  0.463D-02-0.102D-01-0.843D-02-0.239D-02 0.112D+00 0.347D+00
 Coeff-Com:  0.557D+00
 Coeff-En:   0.000D+00 0.000D+00 0.000D+00 0.000D+00 0.000D+00 0.000D+00
 Coeff-En:   0.100D+01
 Coeff:      0.462D-02-0.102D-01-0.842D-02-0.239D-02 0.112D+00 0.346D+00
 Coeff:      0.558D+00
 Gap=     0.118 Goal=   None    Shift=    0.000
 RMSDP=6.97D-06 MaxDP=1.20D-03 DE=-2.70D-04 OVMax= 3.60D-03

 Cycle   8  Pass 1  IDiag  1:
 RMSU=  4.96D-06    CP:  9.64D-01  1.50D+00  6.82D-01  6.19D-01  8.11D-01
                    CP:  8.38D-01  8.06D-01
 E= -4069.81349341955     Delta-E=       -0.000037291607 Rises=F Damp=F
 DIIS: error= 5.74D-05 at cycle   8 NSaved=   8.
 NSaved= 8 IEnMin= 8 EnMin= -4069.81349341955     IErMin= 8 ErrMin= 5.74D-05
 ErrMax= 5.74D-05  0.00D+00 EMaxC= 1.00D-01 BMatC= 4.77D-06 BMatP= 3.13D-05
 IDIUse=1 WtCom= 1.00D+00 WtEn= 0.00D+00
 Coeff-Com:  0.231D-02-0.460D-02-0.797D-02-0.121D-01-0.682D-02 0.332D-01
 Coeff-Com:  0.291D+00 0.705D+00
 Coeff:      0.231D-02-0.460D-02-0.797D-02-0.121D-01-0.682D-02 0.332D-01
 Coeff:      0.291D+00 0.705D+00
 Gap=     0.118 Goal=   None    Shift=    0.000
 RMSDP=3.49D-06 MaxDP=4.58D-04 DE=-3.73D-05 OVMax= 1.23D-03

 Cycle   9  Pass 1  IDiag  1:
 RMSU=  2.04D-06    CP:  9.64D-01  1.50D+00  6.83D-01  6.20D-01  8.27D-01
                    CP:  8.68D-01  9.88D-01  9.91D-01
 E= -4069.81350118518     Delta-E=       -0.000007765637 Rises=F Damp=F
 DIIS: error= 2.02D-05 at cycle   9 NSaved=   9.
 NSaved= 9 IEnMin= 9 EnMin= -4069.81350118518     IErMin= 9 ErrMin= 2.02D-05
 ErrMax= 2.02D-05  0.00D+00 EMaxC= 1.00D-01 BMatC= 8.65D-07 BMatP= 4.77D-06
 IDIUse=1 WtCom= 1.00D+00 WtEn= 0.00D+00
 Coeff-Com:  0.557D-03-0.950D-03-0.296D-02-0.632D-02-0.193D-01-0.398D-01
 Coeff-Com:  0.811D-01 0.366D+00 0.622D+00
 Coeff:      0.557D-03-0.950D-03-0.296D-02-0.632D-02-0.193D-01-0.398D-01
 Coeff:      0.811D-01 0.366D+00 0.622D+00
 Gap=     0.119 Goal=   None    Shift=    0.000
 RMSDP=1.48D-06 MaxDP=1.32D-04 DE=-7.77D-06 OVMax= 7.32D-04

 Cycle  10  Pass 1  IDiag  1:
 RMSU=  9.94D-07    CP:  9.64D-01  1.50D+00  6.83D-01  6.21D-01  8.31D-01
                    CP:  8.78D-01  1.03D+00  1.16D+00  1.03D+00
 E= -4069.81350298654     Delta-E=       -0.000001801356 Rises=F Damp=F
 DIIS: error= 9.79D-06 at cycle  10 NSaved=  10.
 NSaved=10 IEnMin=10 EnMin= -4069.81350298654     IErMin=10 ErrMin= 9.79D-06
 ErrMax= 9.79D-06  0.00D+00 EMaxC= 1.00D-01 BMatC= 1.71D-07 BMatP= 8.65D-07
 IDIUse=1 WtCom= 1.00D+00 WtEn= 0.00D+00
 Coeff-Com: -0.399D-03 0.849D-03 0.107D-02 0.782D-03-0.404D-02-0.308D-01
 Coeff-Com: -0.406D-01-0.493D-01 0.220D+00 0.902D+00
 Coeff:     -0.399D-03 0.849D-03 0.107D-02 0.782D-03-0.404D-02-0.308D-01
 Coeff:     -0.406D-01-0.493D-01 0.220D+00 0.902D+00
 Gap=     0.119 Goal=   None    Shift=    0.000
 RMSDP=1.23D-06 MaxDP=1.26D-04 DE=-1.80D-06 OVMax= 6.66D-04

 Cycle  11  Pass 1  IDiag  1:
 RMSU=  5.75D-07    CP:  9.64D-01  1.50D+00  6.83D-01  6.21D-01  8.33D-01
                    CP:  8.87D-01  1.07D+00  1.26D+00  1.36D+00  1.31D+00
 E= -4069.81350378230     Delta-E=       -0.000000795757 Rises=F Damp=F
 DIIS: error= 4.53D-06 at cycle  11 NSaved=  11.
 NSaved=11 IEnMin=11 EnMin= -4069.81350378230     IErMin=11 ErrMin= 4.53D-06
 ErrMax= 4.53D-06  0.00D+00 EMaxC= 1.00D-01 BMatC= 8.28D-08 BMatP= 1.71D-07
 IDIUse=1 WtCom= 1.00D+00 WtEn= 0.00D+00
 Coeff-Com: -0.365D-03 0.715D-03 0.139D-02 0.209D-02 0.384D-02-0.967D-02
 Coeff-Com: -0.402D-01-0.126D+00-0.452D-01 0.532D+00 0.681D+00
 Coeff:     -0.365D-03 0.715D-03 0.139D-02 0.209D-02 0.384D-02-0.967D-02
 Coeff:     -0.402D-01-0.126D+00-0.452D-01 0.532D+00 0.681D+00
 Gap=     0.119 Goal=   None    Shift=    0.000
 RMSDP=7.12D-07 MaxDP=7.12D-05 DE=-7.96D-07 OVMax= 3.73D-04

 Cycle  12  Pass 1  IDiag  1:
 RMSU=  2.89D-07    CP:  9.64D-01  1.50D+00  6.83D-01  6.21D-01  8.34D-01
                    CP:  8.89D-01  1.09D+00  1.33D+00  1.50D+00  1.71D+00
                    CP:  1.12D+00
 E= -4069.81350407289     Delta-E=       -0.000000290598 Rises=F Damp=F
 DIIS: error= 2.53D-06 at cycle  12 NSaved=  12.
 NSaved=12 IEnMin=12 EnMin= -4069.81350407289     IErMin=12 ErrMin= 2.53D-06
 ErrMax= 2.53D-06  0.00D+00 EMaxC= 1.00D-01 BMatC= 1.91D-08 BMatP= 8.28D-08
 IDIUse=1 WtCom= 1.00D+00 WtEn= 0.00D+00
 Coeff-Com: -0.539D-04 0.892D-04 0.373D-03 0.765D-03 0.374D-02 0.246D-02
 Coeff-Com: -0.295D-02-0.452D-01-0.823D-01 0.194D-01 0.273D+00 0.830D+00
 Coeff:     -0.539D-04 0.892D-04 0.373D-03 0.765D-03 0.374D-02 0.246D-02
 Coeff:     -0.295D-02-0.452D-01-0.823D-01 0.194D-01 0.273D+00 0.830D+00
 Gap=     0.119 Goal=   None    Shift=    0.000
 RMSDP=4.24D-07 MaxDP=2.90D-05 DE=-2.91D-07 OVMax= 2.41D-04

 Cycle  13  Pass 1  IDiag  1:
 RMSU=  1.72D-07    CP:  9.64D-01  1.50D+00  6.83D-01  6.21D-01  8.34D-01
                    CP:  8.89D-01  1.10D+00  1.35D+00  1.60D+00  1.90D+00
                    CP:  1.51D+00  1.18D+00
 E= -4069.81350417051     Delta-E=       -0.000000097618 Rises=F Damp=F
 DIIS: error= 1.74D-06 at cycle  13 NSaved=  13.
 NSaved=13 IEnMin=13 EnMin= -4069.81350417051     IErMin=13 ErrMin= 1.74D-06
 ErrMax= 1.74D-06  0.00D+00 EMaxC= 1.00D-01 BMatC= 1.01D-08 BMatP= 1.91D-08
 IDIUse=1 WtCom= 1.00D+00 WtEn= 0.00D+00
 Coeff-Com:  0.114D-03-0.236D-03-0.331D-03-0.389D-03 0.978D-03 0.451D-02
 Coeff-Com:  0.165D-01 0.220D-01-0.349D-01-0.219D+00-0.174D+00 0.538D+00
 Coeff-Com:  0.847D+00
 Coeff:      0.114D-03-0.236D-03-0.331D-03-0.389D-03 0.978D-03 0.451D-02
 Coeff:      0.165D-01 0.220D-01-0.349D-01-0.219D+00-0.174D+00 0.538D+00
 Coeff:      0.847D+00
 Gap=     0.119 Goal=   None    Shift=    0.000
 RMSDP=3.74D-07 MaxDP=2.50D-05 DE=-9.76D-08 OVMax= 2.16D-04

 Cycle  14  Pass 1  IDiag  1:
 RMSU=  8.30D-08    CP:  9.64D-01  1.50D+00  6.83D-01  6.21D-01  8.34D-01
                    CP:  8.90D-01  1.10D+00  1.38D+00  1.68D+00  2.11D+00
                    CP:  1.76D+00  1.71D+00  1.19D+00
 E= -4069.81350421691     Delta-E=       -0.000000046399 Rises=F Damp=F
 DIIS: error= 1.00D-06 at cycle  14 NSaved=  14.
 NSaved=14 IEnMin=14 EnMin= -4069.81350421691     IErMin=14 ErrMin= 1.00D-06
 ErrMax= 1.00D-06  0.00D+00 EMaxC= 1.00D-01 BMatC= 1.52D-09 BMatP= 1.01D-08
 IDIUse=1 WtCom= 1.00D+00 WtEn= 0.00D+00
 Coeff-Com:  0.736D-04-0.146D-03-0.264D-03-0.405D-03-0.348D-03 0.116D-02
 Coeff-Com:  0.975D-02 0.215D-01 0.506D-02-0.105D+00-0.158D+00 0.626D-01
 Coeff-Com:  0.414D+00 0.750D+00
 Coeff:      0.736D-04-0.146D-03-0.264D-03-0.405D-03-0.348D-03 0.116D-02
 Coeff:      0.975D-02 0.215D-01 0.506D-02-0.105D+00-0.158D+00 0.626D-01
 Coeff:      0.414D+00 0.750D+00
 Gap=     0.119 Goal=   None    Shift=    0.000
 RMSDP=1.28D-07 MaxDP=8.66D-06 DE=-4.64D-08 OVMax= 7.72D-05

 Cycle  15  Pass 1  IDiag  1:
 RMSU=  4.09D-08    CP:  9.64D-01  1.50D+00  6.83D-01  6.21D-01  8.34D-01
                    CP:  8.90D-01  1.10D+00  1.38D+00  1.70D+00  2.16D+00
                    CP:  1.88D+00  1.88D+00  1.45D+00  1.06D+00
 E= -4069.81350422273     Delta-E=       -0.000000005821 Rises=F Damp=F
 DIIS: error= 5.43D-07 at cycle  15 NSaved=  15.
 NSaved=15 IEnMin=15 EnMin= -4069.81350422273     IErMin=15 ErrMin= 5.43D-07
 ErrMax= 5.43D-07  0.00D+00 EMaxC= 1.00D-01 BMatC= 2.77D-10 BMatP= 1.52D-09
 IDIUse=1 WtCom= 1.00D+00 WtEn= 0.00D+00
 Coeff-Com:  0.121D-04-0.223D-04-0.561D-04-0.115D-03-0.292D-03-0.459D-03
 Coeff-Com:  0.165D-02 0.472D-02 0.879D-02-0.647D-02-0.386D-01-0.666D-01
 Coeff-Com:  0.419D-01 0.334D+00 0.722D+00
 Coeff:      0.121D-04-0.223D-04-0.561D-04-0.115D-03-0.292D-03-0.459D-03
 Coeff:      0.165D-02 0.472D-02 0.879D-02-0.647D-02-0.386D-01-0.666D-01
 Coeff:      0.419D-01 0.334D+00 0.722D+00
 Gap=     0.119 Goal=   None    Shift=    0.000
 RMSDP=3.85D-08 MaxDP=2.81D-06 DE=-5.82D-09 OVMax= 2.47D-05

 Cycle  16  Pass 1  IDiag  1:
 RMSU=  1.95D-08    CP:  9.64D-01  1.50D+00  6.83D-01  6.21D-01  8.34D-01
                    CP:  8.90D-01  1.10D+00  1.39D+00  1.70D+00  2.17D+00
                    CP:  1.90D+00  1.93D+00  1.53D+00  1.25D+00  1.12D+00
 E= -4069.81350422354     Delta-E=       -0.000000000808 Rises=F Damp=F
 DIIS: error= 2.52D-07 at cycle  16 NSaved=  16.
 NSaved=16 IEnMin=16 EnMin= -4069.81350422354     IErMin=16 ErrMin= 2.52D-07
 ErrMax= 2.52D-07  0.00D+00 EMaxC= 1.00D-01 BMatC= 9.30D-11 BMatP= 2.77D-10
 IDIUse=1 WtCom= 1.00D+00 WtEn= 0.00D+00
 Coeff-Com: -0.126D-04 0.257D-04 0.394D-04 0.405D-04-0.477D-04-0.597D-03
 Coeff-Com: -0.148D-02-0.365D-02 0.372D-02 0.226D-01 0.204D-01-0.539D-01
 Coeff-Com: -0.809D-01-0.260D-01 0.366D+00 0.753D+00
 Coeff:     -0.126D-04 0.257D-04 0.394D-04 0.405D-04-0.477D-04-0.597D-03
 Coeff:     -0.148D-02-0.365D-02 0.372D-02 0.226D-01 0.204D-01-0.539D-01
 Coeff:     -0.809D-01-0.260D-01 0.366D+00 0.753D+00
 Gap=     0.119 Goal=   None    Shift=    0.000
 RMSDP=2.46D-08 MaxDP=1.82D-06 DE=-8.08D-10 OVMax= 1.72D-05

 Cycle  17  Pass 1  IDiag  1:
 RMSU=  1.13D-08    CP:  9.64D-01  1.50D+00  6.83D-01  6.21D-01  8.34D-01
                    CP:  8.90D-01  1.11D+00  1.39D+00  1.70D+00  2.18D+00
                    CP:  1.91D+00  1.95D+00  1.57D+00  1.34D+00  1.40D+00
                    CP:  1.20D+00
 E= -4069.81350422357     Delta-E=       -0.000000000029 Rises=F Damp=F
 DIIS: error= 1.29D-07 at cycle  17 NSaved=  17.
 NSaved=17 IEnMin=17 EnMin= -4069.81350422357     IErMin=17 ErrMin= 1.29D-07
 ErrMax= 1.29D-07  0.00D+00 EMaxC= 1.00D-01 BMatC= 2.33D-11 BMatP= 9.30D-11
 IDIUse=1 WtCom= 1.00D+00 WtEn= 0.00D+00
 Coeff-Com: -0.885D-05 0.174D-04 0.329D-04 0.458D-04 0.691D-04-0.184D-03
 Coeff-Com: -0.956D-03-0.313D-02-0.387D-04 0.117D-01 0.197D-01-0.932D-02
 Coeff-Com: -0.437D-01-0.970D-01-0.148D-01 0.346D+00 0.792D+00
 Coeff:     -0.885D-05 0.174D-04 0.329D-04 0.458D-04 0.691D-04-0.184D-03
 Coeff:     -0.956D-03-0.313D-02-0.387D-04 0.117D-01 0.197D-01-0.932D-02
 Coeff:     -0.437D-01-0.970D-01-0.148D-01 0.346D+00 0.792D+00
 Gap=     0.119 Goal=   None    Shift=    0.000
 RMSDP=1.35D-08 MaxDP=1.02D-06 DE=-2.91D-11 OVMax= 8.27D-06

 Cycle  18  Pass 1  IDiag  1:
 RMSU=  5.47D-09    CP:  9.64D-01  1.50D+00  6.83D-01  6.21D-01  8.34D-01
                    CP:  8.90D-01  1.11D+00  1.39D+00  1.70D+00  2.18D+00
                    CP:  1.91D+00  1.96D+00  1.59D+00  1.40D+00  1.55D+00
                    CP:  1.58D+00  1.34D+00
 E= -4069.81350422384     Delta-E=       -0.000000000273 Rises=F Damp=F
 DIIS: error= 6.90D-08 at cycle  18 NSaved=  18.
 NSaved=18 IEnMin=18 EnMin= -4069.81350422384     IErMin=18 ErrMin= 6.90D-08
 ErrMax= 6.90D-08  0.00D+00 EMaxC= 1.00D-01 BMatC= 7.95D-12 BMatP= 2.33D-11
 IDIUse=1 WtCom= 1.00D+00 WtEn= 0.00D+00
 Coeff-Com: -0.325D-07-0.282D-06 0.292D-05 0.781D-05 0.667D-04 0.111D-03
 Coeff-Com:  0.134D-03-0.384D-03-0.109D-02-0.266D-02 0.262D-02 0.136D-01
 Coeff-Com:  0.100D-01-0.388D-01-0.138D+00-0.982D-01 0.366D+00 0.887D+00
 Coeff:     -0.325D-07-0.282D-06 0.292D-05 0.781D-05 0.667D-04 0.111D-03
 Coeff:      0.134D-03-0.384D-03-0.109D-02-0.266D-02 0.262D-02 0.136D-01
 Coeff:      0.100D-01-0.388D-01-0.138D+00-0.982D-01 0.366D+00 0.887D+00
 Gap=     0.119 Goal=   None    Shift=    0.000
 RMSDP=1.03D-08 MaxDP=7.59D-07 DE=-2.73D-10 OVMax= 7.35D-06

 Cycle  19  Pass 1  IDiag  1:
 RMSU=  3.21D-09    CP:  9.64D-01  1.50D+00  6.83D-01  6.21D-01  8.34D-01
                    CP:  8.90D-01  1.11D+00  1.39D+00  1.70D+00  2.18D+00
                    CP:  1.92D+00  1.96D+00  1.60D+00  1.43D+00  1.67D+00
                    CP:  1.83D+00  1.84D+00  1.22D+00
 E= -4069.81350422367     Delta-E=        0.000000000167 Rises=F Damp=F
 DIIS: error= 3.14D-08 at cycle  19 NSaved=  19.
 NSaved=19 IEnMin=18 EnMin= -4069.81350422384     IErMin=19 ErrMin= 3.14D-08
 ErrMax= 3.14D-08  0.00D+00 EMaxC= 1.00D-01 BMatC= 2.98D-12 BMatP= 7.95D-12
 IDIUse=1 WtCom= 1.00D+00 WtEn= 0.00D+00
 Coeff-Com:  0.321D-05-0.652D-05-0.103D-04-0.121D-04 0.230D-04 0.135D-03
 Coeff-Com:  0.462D-03 0.883D-03-0.627D-03-0.638D-02-0.579D-02 0.119D-01
 Coeff-Com:  0.239D-01 0.117D-01-0.863D-01-0.203D+00-0.800D-01 0.555D+00
 Coeff-Com:  0.778D+00
 Coeff:      0.321D-05-0.652D-05-0.103D-04-0.121D-04 0.230D-04 0.135D-03
 Coeff:      0.462D-03 0.883D-03-0.627D-03-0.638D-02-0.579D-02 0.119D-01
 Coeff:      0.239D-01 0.117D-01-0.863D-01-0.203D+00-0.800D-01 0.555D+00
 Coeff:      0.778D+00
 Gap=     0.119 Goal=   None    Shift=    0.000
 RMSDP=7.02D-09 MaxDP=4.94D-07 DE= 1.67D-10 OVMax= 4.21D-06

 SCF Done:  E(RCAM-B3LYP) =  -4069.81350422     A.U. after   19 cycles
            NFock= 19  Conv=0.70D-08     -V/T= 2.0102
 KE= 4.028793223454D+03 PE=-4.139078859540D+04 EE= 1.733744411356D+04
 Leave Link  502 at Thu Sep  9 05:19:00 2021, MaxMem= 23488102400 cpu:           17419.0 elap:             753.4
 (Enter /sw/apps/gaussian-16.0/g16/l801.exe)
 DoSCS=F DFT=T ScalE2(SS,OS)=  1.000000  1.000000
 ExpMin= 3.36D-02 ExpMax= 4.95D+03 ExpMxC= 7.45D+02 IAcc=3 IRadAn=         5 AccDes= 0.00D+00
 HarFok:  IExCor=  205 AccDes= 0.00D+00 IRadAn=         5 IDoV=-2 UseB2=F ITyADJ=14
 ICtDFT= 12500011 ScaDFX=  1.000000  1.000000  1.000000  1.000000
 GSVD:  LWork=       -9588 too small for GESVD, short by       45590 words or       45590 for optimal perf.
 Largest valence mixing into a core orbital is  2.03D-04
 Largest core mixing into a valence orbital is  5.25D-05
 Range of M.O.s used for correlation:    95  1572
 NBasis=  1572 NAE=   312 NBE=   312 NFC=    94 NFV=     0
 NROrb=   1478 NOA=   218 NOB=   218 NVA=  1260 NVB=  1260
 Leave Link  801 at Thu Sep  9 05:19:00 2021, MaxMem= 23488102400 cpu:               7.7 elap:               0.3
 (Enter /sw/apps/gaussian-16.0/g16/l914.exe)
 RHF ground state
 Two-electron integrals replicated using symmetry.
 MDV= 23488102400 DFT=T DoStab=F Mixed=T DoRPA=T DoScal=F NonHer=T
 Making orbital integer symmetry assigments:
 Orbital symmetries:
       Occupied  (A) (A) (A) (A) (A) (A) (A) (A) (A) (A) (A) (A)
                 (A) (A) (A) (A) (A) (A) (A) (A) (A) (A) (A) (A)
                 (A) (A) (A) (A) (A) (A) (A) (A) (A) (A) (A) (A)
                 (A) (A) (A) (A) (A) (A) (A) (A) (A) (A) (A) (A)
                 (A) (A) (A) (A) (A) (A) (A) (A) (A) (A) (A) (A)
                 (A) (A) (A) (A) (A) (A) (A) (A) (A) (A) (A) (A)
                 (A) (A) (A) (A) (A) (A) (A) (A) (A) (A) (A) (A)
                 (A) (A) (A) (A) (A) (A) (A) (A) (A) (A) (A) (A)
                 (A) (A) (A) (A) (A) (A) (A) (A) (A) (A) (A) (A)
                 (A) (A) (A) (A) (A) (A) (A) (A) (A) (A) (A) (A)
                 (A) (A) (A) (A) (A) (A) (A) (A) (A) (A) (A) (A)
                 (A) (A) (A) (A) (A) (A) (A) (A) (A) (A) (A) (A)
                 (A) (A) (A) (A) (A) (A) (A) (A) (A) (A) (A) (A)
                 (A) (A) (A) (A) (A) (A) (A) (A) (A) (A) (A) (A)
                 (A) (A) (A) (A) (A) (A) (A) (A) (A) (A) (A) (A)
                 (A) (A) (A) (A) (A) (A) (A) (A) (A) (A) (A) (A)
                 (A) (A) (A) (A) (A) (A) (A) (A) (A) (A) (A) (A)
                 (A) (A) (A) (A) (A) (A) (A) (A) (A) (A) (A) (A)
                 (A) (A) (A) (A) (A) (A) (A) (A) (A) (A) (A) (A)
                 (A) (A) (A) (A) (A) (A) (A) (A) (A) (A) (A) (A)
                 (A) (A) (A) (A) (A) (A) (A) (A) (A) (A) (A) (A)
                 (A) (A) (A) (A) (A) (A) (A) (A) (A) (A) (A) (A)
                 (A) (A) (A) (A) (A) (A) (A) (A) (A) (A) (A) (A)
                 (A) (A) (A) (A) (A) (A) (A) (A) (A) (A) (A) (A)
                 (A) (A) (A) (A) (A) (A) (A) (A) (A) (A) (A) (A)
                 (A) (A) (A) (A) (A) (A) (A) (A) (A) (A) (A) (A)
       Virtual   (A) (A) (A) (A) (A) (A) (A) (A) (A) (A) (A) (A)
                 (A) (A) (A) (A) (A) (A) (A) (A) (A) (A) (A) (A)
                 (A) (A) (A) (A) (A) (A) (A) (A) (A) (A) (A) (A)
                 (A) (A) (A) (A) (A) (A) (A) (A) (A) (A) (A) (A)
                 (A) (A) (A) (A) (A) (A) (A) (A) (A) (A) (A) (A)
                 (A) (A) (A) (A) (A) (A) (A) (A) (A) (A) (A) (A)
                 (A) (A) (A) (A) (A) (A) (A) (A) (A) (A) (A) (A)
                 (A) (A) (A) (A) (A) (A) (A) (A) (A) (A) (A) (A)
                 (A) (A) (A) (A) (A) (A) (A) (A) (A) (A) (A) (A)
                 (A) (A) (A) (A) (A) (A) (A) (A) (A) (A) (A) (A)
                 (A) (A) (A) (A) (A) (A) (A) (A) (A) (A) (A) (A)
                 (A) (A) (A) (A) (A) (A) (A) (A) (A) (A) (A) (A)
                 (A) (A) (A) (A) (A) (A) (A) (A) (A) (A) (A) (A)
                 (A) (A) (A) (A) (A) (A) (A) (A) (A) (A) (A) (A)
                 (A) (A) (A) (A) (A) (A) (A) (A) (A) (A) (A) (A)
                 (A) (A) (A) (A) (A) (A) (A) (A) (A) (A) (A) (A)
                 (A) (A) (A) (A) (A) (A) (A) (A) (A) (A) (A) (A)
                 (A) (A) (A) (A) (A) (A) (A) (A) (A) (A) (A) (A)
                 (A) (A) (A) (A) (A) (A) (A) (A) (A) (A) (A) (A)
                 (A) (A) (A) (A) (A) (A) (A) (A) (A) (A) (A) (A)
                 (A) (A) (A) (A) (A) (A) (A) (A) (A) (A) (A) (A)
                 (A) (A) (A) (A) (A) (A) (A) (A) (A) (A) (A) (A)
                 (A) (A) (A) (A) (A) (A) (A) (A) (A) (A) (A) (A)
                 (A) (A) (A) (A) (A) (A) (A) (A) (A) (A) (A) (A)
                 (A) (A) (A) (A) (A) (A) (A) (A) (A) (A) (A) (A)
                 (A) (A) (A) (A) (A) (A) (A) (A) (A) (A) (A) (A)
                 (A) (A) (A) (A) (A) (A) (A) (A) (A) (A) (A) (A)
                 (A) (A) (A) (A) (A) (A) (A) (A) (A) (A) (A) (A)
                 (A) (A) (A) (A) (A) (A) (A) (A) (A) (A) (A) (A)
                 (A) (A) (A) (A) (A) (A) (A) (A) (A) (A) (A) (A)
                 (A) (A) (A) (A) (A) (A) (A) (A) (A) (A) (A) (A)
                 (A) (A) (A) (A) (A) (A) (A) (A) (A) (A) (A) (A)
                 (A) (A) (A) (A) (A) (A) (A) (A) (A) (A) (A) (A)
                 (A) (A) (A) (A) (A) (A) (A) (A) (A) (A) (A) (A)
                 (A) (A) (A) (A) (A) (A) (A) (A) (A) (A) (A) (A)
                 (A) (A) (A) (A) (A) (A) (A) (A) (A) (A) (A) (A)
                 (A) (A) (A) (A) (A) (A) (A) (A) (A) (A) (A) (A)
                 (A) (A) (A) (A) (A) (A) (A) (A) (A) (A) (A) (A)
                 (A) (A) (A) (A) (A) (A) (A) (A) (A) (A) (A) (A)
                 (A) (A) (A) (A) (A) (A) (A) (A) (A) (A) (A) (A)
                 (A) (A) (A) (A) (A) (A) (A) (A) (A) (A) (A) (A)
                 (A) (A) (A) (A) (A) (A) (A) (A) (A) (A) (A) (A)
                 (A) (A) (A) (A) (A) (A) (A) (A) (A) (A) (A) (A)
                 (A) (A) (A) (A) (A) (A) (A) (A) (A) (A) (A) (A)
                 (A) (A) (A) (A) (A) (A) (A) (A) (A) (A) (A) (A)
                 (A) (A) (A) (A) (A) (A) (A) (A) (A) (A) (A) (A)
                 (A) (A) (A) (A) (A) (A) (A) (A) (A) (A) (A) (A)
                 (A) (A) (A) (A) (A) (A) (A) (A) (A) (A) (A) (A)
                 (A) (A) (A) (A) (A) (A) (A) (A) (A) (A) (A) (A)
                 (A) (A) (A) (A) (A) (A) (A) (A) (A) (A) (A) (A)
                 (A) (A) (A) (A) (A) (A) (A) (A) (A) (A) (A) (A)
                 (A) (A) (A) (A) (A) (A) (A) (A) (A) (A) (A) (A)
                 (A) (A) (A) (A) (A) (A) (A) (A) (A) (A) (A) (A)
                 (A) (A) (A) (A) (A) (A) (A) (A) (A) (A) (A) (A)
                 (A) (A) (A) (A) (A) (A) (A) (A) (A) (A) (A) (A)
                 (A) (A) (A) (A) (A) (A) (A) (A) (A) (A) (A) (A)
                 (A) (A) (A) (A) (A) (A) (A) (A) (A) (A) (A) (A)
                 (A) (A) (A) (A) (A) (A) (A) (A) (A) (A) (A) (A)
                 (A) (A) (A) (A) (A) (A) (A) (A) (A) (A) (A) (A)
                 (A) (A) (A) (A) (A) (A) (A) (A) (A) (A) (A) (A)
                 (A) (A) (A) (A) (A) (A) (A) (A) (A) (A) (A) (A)
                 (A) (A) (A) (A) (A) (A) (A) (A) (A) (A) (A) (A)
                 (A) (A) (A) (A) (A) (A) (A) (A) (A) (A) (A) (A)
                 (A) (A) (A) (A) (A) (A) (A) (A) (A) (A) (A) (A)
                 (A) (A) (A) (A) (A) (A) (A) (A) (A) (A) (A) (A)
                 (A) (A) (A) (A) (A) (A) (A) (A) (A) (A) (A) (A)
                 (A) (A) (A) (A) (A) (A) (A) (A) (A) (A) (A) (A)
                 (A) (A) (A) (A) (A) (A) (A) (A) (A) (A) (A) (A)
                 (A) (A) (A) (A) (A) (A) (A) (A) (A) (A) (A) (A)
                 (A) (A) (A) (A) (A) (A) (A) (A) (A) (A) (A) (A)
                 (A) (A) (A) (A) (A) (A) (A) (A) (A) (A) (A) (A)
                 (A) (A) (A) (A) (A) (A) (A) (A) (A) (A) (A) (A)
                 (A) (A) (A) (A) (A) (A) (A) (A) (A) (A) (A) (A)
                 (A) (A) (A) (A) (A) (A) (A) (A) (A) (A) (A) (A)
                 (A) (A) (A) (A) (A) (A) (A) (A) (A) (A) (A) (A)
                 (A) (A) (A) (A) (A) (A) (A) (A) (A) (A) (A) (A)
                 (A) (A) (A) (A) (A) (A) (A) (A) (A) (A) (A) (A)
                 (A) (A) (A) (A) (A) (A) (A) (A) (A) (A) (A) (A)
                 (A) (A) (A) (A) (A) (A) (A) (A) (A) (A) (A) (A)
                 (A) (A) (A) (A) (A) (A) (A) (A) (A) (A) (A) (A)
                 (A) (A) (A) (A) (A) (A) (A) (A) (A) (A) (A) (A)
                 (A) (A) (A) (A) (A) (A) (A) (A) (A) (A) (A) (A)
                 (A) (A) (A) (A) (A) (A) (A) (A) (A) (A) (A) (A)
                 (A) (A) (A) (A) (A) (A) (A) (A) (A) (A) (A) (A)
                 (A) (A) (A) (A) (A) (A) (A) (A) (A) (A) (A) (A)
                 (A) (A) (A) (A) (A) (A) (A) (A) (A) (A) (A) (A)
                 (A) (A) (A) (A) (A) (A) (A) (A) (A) (A) (A) (A)
                 (A) (A) (A) (A) (A) (A) (A) (A) (A) (A) (A) (A)
                 (A) (A) (A) (A) (A) (A) (A) (A) (A) (A) (A) (A)
                 (A) (A) (A) (A) (A) (A) (A) (A) (A) (A) (A) (A)
                 (A) (A) (A) (A) (A) (A) (A) (A) (A) (A) (A) (A)
                 (A) (A) (A) (A) (A) (A) (A) (A) (A) (A) (A) (A)
                 (A) (A) (A) (A) (A) (A) (A) (A) (A) (A) (A) (A)
                 (A) (A) (A) (A) (A) (A) (A) (A) (A) (A) (A) (A)
                 (A) (A) (A) (A) (A) (A) (A) (A) (A) (A) (A) (A)
                 (A) (A) (A) (A) (A) (A) (A) (A) (A) (A) (A) (A)
                 (A) (A) (A) (A) (A) (A) (A) (A) (A) (A) (A) (A)
                 (A) (A) (A) (A) (A) (A) (A) (A) (A) (A) (A) (A)
                 (A) (A) (A) (A) (A) (A) (A) (A) (A) (A) (A) (A)
                 (A) (A) (A) (A) (A) (A) (A) (A) (A) (A) (A) (A)
                 (A) (A) (A) (A) (A) (A) (A) (A) (A) (A) (A) (A)
                 (A) (A) (A) (A) (A) (A) (A) (A) (A) (A) (A) (A)
                 (A) (A) (A) (A) (A) (A) (A) (A) (A) (A) (A) (A)
                 (A) (A) (A) (A) (A) (A) (A) (A) (A) (A) (A) (A)
                 (A) (A) (A) (A) (A) (A) (A) (A) (A) (A) (A) (A)
    20 initial guesses have been made.
 Convergence on wavefunction:    0.001000000000000
 Davidson Disk Diagonalization:  ConvIn= 1.00D-03 SkipCon=T Conv= 1.00D-03.
 Max sub-space:  2000 roots to seek:    20 dimension of matrix:       549360
 Iteration     1 Dimension    20 NMult     0 NNew     20
 CISAX will form    20 AO SS matrices at one time.
 NMat=    20 NSing=    20 JSym2X= 0.
 FoFJK:  IHMeth= 1 ICntrl=       0 DoSepK=T KAlg= 0 I1Cent=           0 FoldK=F
 IRaf=         1 NMat=      40 IRICut=       1 DoRegI=T DoRafI=F ISym2E= 0 IDoP0=3 IntGTp=3.
 FoFCou: FMM=T IPFlag=           0 FMFlag=      100000 FMFlg1=        2001
         NFxFlg=           0 DoJE=F BraDBF=F KetDBF=F FulRan=T
         wScrn=  0.000000 ICntrl=       500 IOpCl=  0 I1Cent=           0 NGrid=           0
         NMat0=   20 NMatS0=     20 NMatT0=    0 NMatD0=   20 NMtDS0=    0 NMtDT0=    0
 Symmetry not used in FoFCou.
 FMM levels:  10  Number of levels for PrismC:   9
 New state      2 was old state      4
 New state      4 was old state      7
 New state      5 was old state      6
 Excitation Energies [eV] at current iteration:
 Root      1 :     2.209837850854674
 Root      2 :     2.474528376041463
 Root      3 :     2.590456773532801
 Root      4 :     2.611713252999039
 Root      5 :     2.635825441814708
 Root      6 :     2.761360192239475
 Root      7 :     2.989101165730968
 Root      8 :     3.272945569302154
 Root      9 :     3.624742303291089
 Root     10 :     3.670388071574989
 Root     11 :     3.746910686556785
 Root     12 :     3.754380374856136
 Root     13 :     4.108081948881352
 Root     14 :     4.231774233435557
 Root     15 :     4.369841661264963
 Root     16 :     4.410657441904851
 Root     17 :     4.456403211578153
 Root     18 :     4.499676336289490
 Root     19 :     4.607092493929078
 Root     20 :     4.718144748575082
 Iteration     2 Dimension    30 NMult    20 NNew     10
 CISAX will form    10 AO SS matrices at one time.
 NMat=    10 NSing=    10 JSym2X= 0.
 New state      1 was old state      3
 Root      1 not converged, maximum delta is    0.246296884135403
 New state      2 was old state      1
 Root      2 not converged, maximum delta is    0.024341771680921
 New state      3 was old state      4
 Root      3 not converged, maximum delta is    0.343320218797250
 New state      4 was old state      5
 Root      4 not converged, maximum delta is    0.277248606011210
 New state      5 was old state      2
 Root      5 not converged, maximum delta is    0.004889178210498
 Excitation Energies [eV] at current iteration:
 Root      1 :     1.763344766907287   Change is   -0.827112006625514
 Root      2 :     2.208558227869108   Change is   -0.001279622985566
 Root      3 :     2.215210339639756   Change is   -0.396502913359284
 Root      4 :     2.245947218946923   Change is   -0.389878222867786
 Root      5 :     2.472959238839207   Change is   -0.001569137202256
 Iteration     3 Dimension    40 NMult    30 NNew     10
 CISAX will form    10 AO SS matrices at one time.
 NMat=    10 NSing=    10 JSym2X= 0.
 Root      1 not converged, maximum delta is    0.053695035331647
 New state      2 was old state      3
 Root      2 not converged, maximum delta is    0.223293493449909
 New state      3 was old state      4
 Root      3 not converged, maximum delta is    0.142054113448610
 New state      4 was old state      2
 Root      4 not converged, maximum delta is    0.027493320811752
 No map to state      5
 Excitation Energies [eV] at current iteration:
 Root      1 :     1.660119910439263   Change is   -0.103224856468024
 Root      2 :     2.095239586385114   Change is   -0.119970753254641
 Root      3 :     2.199147383484637   Change is   -0.046799835462285
 Root      4 :     2.208566079802840   Change is    0.000007851933732
 Root      5 :     2.317320792700806
 Iteration     4 Dimension    50 NMult    40 NNew     10
 CISAX will form    10 AO SS matrices at one time.
 NMat=    10 NSing=    10 JSym2X= 0.
 Root      1 not converged, maximum delta is    0.011639180851664
 Root      2 not converged, maximum delta is    0.355425660187430
 Root      3 not converged, maximum delta is    0.507021243744478
 New state      4 was old state      5
 Root      4 not converged, maximum delta is    0.376797825717841
 New state      5 was old state      4
 Root      5 not converged, maximum delta is    0.040691920129572
 Excitation Energies [eV] at current iteration:
 Root      1 :     1.643718984850572   Change is   -0.016400925588691
 Root      2 :     1.762843413737997   Change is   -0.332396172647117
 Root      3 :     2.179488993476083   Change is   -0.019658390008554
 Root      4 :     2.201132863403447   Change is   -0.116187929297359
 Root      5 :     2.208605698881762   Change is    0.000039619078922
 Iteration     5 Dimension    60 NMult    50 NNew     10
 CISAX will form    10 AO SS matrices at one time.
 NMat=    10 NSing=    10 JSym2X= 0.
 Root      1 not converged, maximum delta is    0.001468774937464
 Root      2 not converged, maximum delta is    0.019795395399504
 Root      3 not converged, maximum delta is    0.038656516529379
 Root      4 not converged, maximum delta is    0.037144409760854
 Root      5 not converged, maximum delta is    0.011779295478238
 Excitation Energies [eV] at current iteration:
 Root      1 :     1.642024571634708   Change is   -0.001694413215864
 Root      2 :     1.712260894153869   Change is   -0.050582519584128
 Root      3 :     2.177141557527337   Change is   -0.002347435948746
 Root      4 :     2.198823450767361   Change is   -0.002309412636086
 Root      5 :     2.208594121943109   Change is   -0.000011576938653
 Iteration     6 Dimension    70 NMult    60 NNew     10
 CISAX will form    10 AO SS matrices at one time.
 NMat=    10 NSing=    10 JSym2X= 0.
 Root      1 has converged.
 Root      2 not converged, maximum delta is    0.008753027385363
 Root      3 not converged, maximum delta is    0.004886360964556
 Root      4 not converged, maximum delta is    0.004752512396391
 Root      5 not converged, maximum delta is    0.001058006169727
 Excitation Energies [eV] at current iteration:
 Root      1 :     1.641783254557680   Change is   -0.000241317077028
 Root      2 :     1.703828055375402   Change is   -0.008432838778467
 Root      3 :     2.176768607476111   Change is   -0.000372950051226
 Root      4 :     2.198538929220267   Change is   -0.000284521547094
 Root      5 :     2.208593009027872   Change is   -0.000001112915237
 Iteration     7 Dimension    78 NMult    70 NNew      8
 CISAX will form     8 AO SS matrices at one time.
 NMat=     8 NSing=     8 JSym2X= 0.
 Root      1 has converged.
[...]
 Alpha virt. eigenvalues --    1.83607   1.83902   1.83950   1.84270   1.84320
 Alpha virt. eigenvalues --    1.84666   1.84759   1.84828   1.85014   1.85215
 Alpha virt. eigenvalues --    1.85307   1.85422   1.85482   1.85529   1.85739
 Alpha virt. eigenvalues --    1.85998   1.86267   1.86331   1.86468   1.86646
 Alpha virt. eigenvalues --    1.86697   1.86850   1.86973   1.87097   1.87284
 Alpha virt. eigenvalues --    1.87367   1.87519   1.87719   1.87893   1.87941
 Alpha virt. eigenvalues --    1.88112   1.88309   1.88393   1.88512   1.88657
 Alpha virt. eigenvalues --    1.88999   1.89151   1.89289   1.89544   1.89627
 Alpha virt. eigenvalues --    1.89838   1.89945   1.90118   1.90181   1.90525
 Alpha virt. eigenvalues --    1.90899   1.91168   1.91298   1.91602   1.91759
 Alpha virt. eigenvalues --    1.92007   1.92197   1.92389   1.92798   1.92904
 Alpha virt. eigenvalues --    1.93181   1.93240   1.93626   1.93800   1.94205
 Alpha virt. eigenvalues --    1.94575   1.94605   1.95092   1.95362   1.95606
 Alpha virt. eigenvalues --    1.95789   1.95859   1.96033   1.96225   1.96397
 Alpha virt. eigenvalues --    1.96503   1.96560   1.96773   1.96889   1.97288
 Alpha virt. eigenvalues --    1.97347   1.97686   1.97847   1.98001   1.98158
 Alpha virt. eigenvalues --    1.98423   1.98645   1.98756   1.98998   1.99466
 Alpha virt. eigenvalues --    1.99648   2.00389   2.00544   2.00874   2.01114
 Alpha virt. eigenvalues --    2.01275   2.01476   2.01583   2.01596   2.01801
 Alpha virt. eigenvalues --    2.01976   2.02355   2.02622   2.03017   2.03111
 Alpha virt. eigenvalues --    2.03251   2.03309   2.03516   2.03833   2.03868
 Alpha virt. eigenvalues --    2.03964   2.04353   2.04849   2.05231   2.05408
 Alpha virt. eigenvalues --    2.05889   2.06004   2.06560   2.06978   2.07070
 Alpha virt. eigenvalues --    2.07421   2.07659   2.08521   2.08721   2.08923
 Alpha virt. eigenvalues --    2.09320   2.09519   2.09927   2.10688   2.11034
 Alpha virt. eigenvalues --    2.11261   2.11295   2.11613   2.11708   2.11915
 Alpha virt. eigenvalues --    2.12173   2.12473   2.12665   2.12722   2.12914
 Alpha virt. eigenvalues --    2.13287   2.13372   2.13732   2.14036   2.14368
 Alpha virt. eigenvalues --    2.14625   2.15272   2.15680   2.15793   2.16433
 Alpha virt. eigenvalues --    2.16511   2.16650   2.16982   2.17353   2.17484
 Alpha virt. eigenvalues --    2.17613   2.17893   2.17987   2.18161   2.18294
 Alpha virt. eigenvalues --    2.18519   2.18874   2.19183   2.19490   2.19766
 Alpha virt. eigenvalues --    2.20009   2.20060   2.20368   2.20608   2.20948
 Alpha virt. eigenvalues --    2.21068   2.21411   2.21567   2.21619   2.22099
 Alpha virt. eigenvalues --    2.22181   2.22576   2.23093   2.23222   2.23631
 Alpha virt. eigenvalues --    2.24308   2.24684   2.24925   2.25228   2.26125
 Alpha virt. eigenvalues --    2.26641   2.26794   2.26948   2.27334   2.27603
 Alpha virt. eigenvalues --    2.27980   2.28905   2.29165   2.29648   2.29891
 Alpha virt. eigenvalues --    2.30227   2.30501   2.30874   2.31006   2.31166
 Alpha virt. eigenvalues --    2.31370   2.31542   2.32036   2.32508   2.33013
 Alpha virt. eigenvalues --    2.33296   2.33620   2.33807   2.34002   2.34504
 Alpha virt. eigenvalues --    2.35129   2.35638   2.35672   2.36264   2.36395
 Alpha virt. eigenvalues --    2.36498   2.36626   2.36693   2.37580   2.37920
 Alpha virt. eigenvalues --    2.38183   2.38584   2.38654   2.39235   2.39477
 Alpha virt. eigenvalues --    2.39969   2.40080   2.40291   2.40536   2.41055
 Alpha virt. eigenvalues --    2.41257   2.41581   2.41628   2.41858   2.41955
 Alpha virt. eigenvalues --    2.42475   2.42844   2.43054   2.43177   2.43431
 Alpha virt. eigenvalues --    2.43981   2.44317   2.44600   2.44741   2.45110
 Alpha virt. eigenvalues --    2.45384   2.45488   2.45864   2.46227   2.46341
 Alpha virt. eigenvalues --    2.46553   2.46664   2.46784   2.47104   2.47153
 Alpha virt. eigenvalues --    2.47599   2.47638   2.48163   2.49244   2.49596
 Alpha virt. eigenvalues --    2.49968   2.50129   2.50467   2.50676   2.51106
 Alpha virt. eigenvalues --    2.51665   2.51792   2.51856   2.52289   2.52671
 Alpha virt. eigenvalues --    2.52811   2.53629   2.53828   2.54104   2.54271
 Alpha virt. eigenvalues --    2.54475   2.54672   2.55084   2.55435   2.55965
 Alpha virt. eigenvalues --    2.57752   2.58384   2.58509   2.59347   2.60006
 Alpha virt. eigenvalues --    2.60403   2.60705   2.61393   2.61601   2.62169
 Alpha virt. eigenvalues --    2.62349   2.62762   2.62817   2.63449   2.63790
 Alpha virt. eigenvalues --    2.64130   2.64641   2.64695   2.64934   2.65428
 Alpha virt. eigenvalues --    2.65647   2.66276   2.66664   2.66765   2.67080
 Alpha virt. eigenvalues --    2.67511   2.67788   2.68382   2.68674   2.68857
 Alpha virt. eigenvalues --    2.69083   2.69256   2.69443   2.69859   2.70019
 Alpha virt. eigenvalues --    2.70455   2.70802   2.71474   2.71848   2.72184
 Alpha virt. eigenvalues --    2.72466   2.72582   2.72801   2.73116   2.73150
 Alpha virt. eigenvalues --    2.73184   2.73527   2.73810   2.74357   2.74790
 Alpha virt. eigenvalues --    2.74807   2.75356   2.76465   2.76801   2.77089
 Alpha virt. eigenvalues --    2.77321   2.77359   2.77876   2.78111   2.78482
 Alpha virt. eigenvalues --    2.78508   2.78966   2.78980   2.79490   2.80154
 Alpha virt. eigenvalues --    2.80378   2.80438   2.80970   2.81009   2.81405
 Alpha virt. eigenvalues --    2.81765   2.82211   2.82302   2.82636   2.83561
 Alpha virt. eigenvalues --    2.83681   2.84023   2.84217   2.84440   2.84736
 Alpha virt. eigenvalues --    2.84779   2.85132   2.85562   2.85901   2.86792
 Alpha virt. eigenvalues --    2.86925   2.87349   2.87514   2.88084   2.88372
 Alpha virt. eigenvalues --    2.88423   2.88802   2.88912   2.89107   2.90299
 Alpha virt. eigenvalues --    2.91025   2.91090   2.91417   2.92988   2.93681
 Alpha virt. eigenvalues --    2.94031   2.94166   2.94478   2.94771   2.95125
 Alpha virt. eigenvalues --    2.95842   2.95915   2.96205   2.96336   2.96621
 Alpha virt. eigenvalues --    2.96975   2.97248   2.97748   2.98078   2.98200
 Alpha virt. eigenvalues --    2.98249   2.98497   2.98747   2.98817   2.98884
 Alpha virt. eigenvalues --    2.99103   2.99322   2.99540   2.99780   2.99992
 Alpha virt. eigenvalues --    3.00098   3.00334   3.00372   3.00552   3.01436
 Alpha virt. eigenvalues --    3.01864   3.01879   3.02266   3.02465   3.02562
 Alpha virt. eigenvalues --    3.02950   3.03085   3.03240   3.03806   3.04072
 Alpha virt. eigenvalues --    3.04222   3.04407   3.04449   3.04631   3.04775
 Alpha virt. eigenvalues --    3.05077   3.05216   3.05596   3.05950   3.06480
 Alpha virt. eigenvalues --    3.06649   3.07443   3.08071   3.08159   3.09440
 Alpha virt. eigenvalues --    3.09566   3.10113   3.10281   3.10867   3.11211
 Alpha virt. eigenvalues --    3.11437   3.11714   3.11808   3.12062   3.12147
 Alpha virt. eigenvalues --    3.12794   3.13263   3.13548   3.13862   3.13881
 Alpha virt. eigenvalues --    3.14074   3.14848   3.15839   3.16152   3.17150
 Alpha virt. eigenvalues --    3.17773   3.18013   3.18022   3.19040   3.19220
 Alpha virt. eigenvalues --    3.22002   3.22924   3.23816   3.24482   3.24701
 Alpha virt. eigenvalues --    3.25469   3.26379   3.26909   3.27482   3.27678
 Alpha virt. eigenvalues --    3.28765   3.29557   3.31381   3.31640   3.33299
 Alpha virt. eigenvalues --    3.33443   3.40485   3.40616   3.42743   3.42991
 Alpha virt. eigenvalues --    3.48517   3.48958   3.49897   3.50547   3.51116
 Alpha virt. eigenvalues --    3.51353   3.56439   3.57230   3.58992   3.59566
 Alpha virt. eigenvalues --    3.62740   3.62762   3.66136   3.66235   3.67051
 Alpha virt. eigenvalues --    3.67888   3.73301   3.74337   3.76225   3.76982
          Condensed to atoms (all electrons):
 Mulliken charges:
               1
     1  Mg   0.838901
     2  C   -0.004465
     3  C   -0.094871
     4  C   -0.045442
     5  C   -0.063057
     6  N   -0.256671
     7  C   -0.053531
     8  C   -0.013779
     9  C   -0.086695
    10  C    0.045987
    11  C    0.104742
    12  C    0.049697
    13  C   -0.070902
    14  H    0.032030
    15  N   -0.433364
    16  C    0.168855
    17  C   -0.176779
    18  C   -0.002957
    19  C    0.148948
    20  C    0.110082
    21  C    0.013261
    22  O   -0.249611
    23  C    0.061920
    24  N   -0.340891
    25  C    0.041382
    26  C   -0.028255
    27  C   -0.023895
    28  C    0.074592
    29  C    0.076058
    30  C    0.034978
    31  C   -0.004442
    32  N   -0.310638
    33  C    0.080393
    34  C   -0.168543
    35  C    0.008377
    36  C    0.082670
    37  C    0.127111
    38  C    0.045577
    39  O   -0.187868
    40  C   -0.006197
    41  C    0.215199
    42  O   -0.258793
    43  O   -0.303461
    44  C    0.157418
    45  H   -0.017605
    46  H   -0.016564
    47  H   -0.040648
    48  H    0.001042
    49  H   -0.004660
    50  H    0.025722
    51  H    0.017190
    52  H    0.016861
    53  H    0.010485
    54  H    0.045731
    55  H    0.019700
    56  H    0.018293
    57  H    0.005165
    58  H    0.027308
    59  H    0.040220
    60  H    0.036829
    61  H    0.036760
    62  H    0.033582
    63  H    0.016138
    64  H    0.009937
    65  H    0.023383
    66  H    0.012727
    67  H    0.005157
    68  H    0.006197
    69  H    0.005605
    70  H    0.007038
    71  H    0.017505
    72  H    0.030819
    73  H    0.049231
    74  H    0.009968
    75  H    0.046046
    76  H    0.035925
    77  H    0.044834
    78  H    0.046225
    79  H    0.051664
    80  Mg   0.836211
    81  C   -0.016553
    82  C   -0.088248
    83  C   -0.046797
    84  C   -0.066016
    85  N   -0.255479
    86  C   -0.046771
    87  C   -0.015398
    88  C   -0.093067
    89  C    0.047086
    90  C    0.117116
    91  C    0.062487
    92  C   -0.076874
    93  H    0.032370
    94  N   -0.423409
    95  C    0.163070
    96  C   -0.176085
    97  C   -0.009114
    98  C    0.152197
    99  C    0.100308
   100  C    0.014193
   101  O   -0.254068
   102  C    0.061627
   103  N   -0.350555
   104  C    0.037774
   105  C   -0.019898
   106  C   -0.034458
   107  C    0.089302
   108  C    0.073618
   109  C    0.034888
   110  C   -0.007493
   111  N   -0.324322
   112  C    0.079091
   113  C   -0.163997
   114  C    0.002982
   115  C    0.095933
   116  C    0.131202
   117  C    0.042346
   118  O   -0.187925
   119  C    0.000820
   120  C    0.210531
   121  O   -0.252490
   122  O   -0.303487
   123  C    0.152724
   124  H   -0.021017
   125  H   -0.016687
   126  H   -0.041924
   127  H    0.006088
   128  H   -0.008570
   129  H    0.039652
   130  H    0.007070
   131  H    0.015399
   132  H    0.012201
   133  H    0.036523
   134  H    0.022558
   135  H    0.017748
   136  H    0.008189
   137  H    0.023030
   138  H    0.038937
   139  H    0.036414
   140  H    0.035384
   141  H    0.034025
   142  H    0.013479
   143  H    0.011846
   144  H    0.024884
   145  H    0.012805
   146  H    0.006651
   147  H    0.005871
   148  H    0.002725
   149  H    0.010677
   150  H    0.017161
   151  H    0.030459
   152  H    0.045756
   153  H    0.007520
   154  H    0.045701
   155  H    0.041900
   156  H    0.043825
   157  H    0.049235
   158  H    0.052224
 Sum of Mulliken charges =  -0.00000
 Mulliken charges with hydrogens summed into heavy atoms:
               1
     1  Mg   0.838901
     2  C   -0.004465
     3  C   -0.112475
     4  C   -0.062006
     5  C   -0.103705
     6  N   -0.256671
     7  C   -0.053531
     8  C   -0.012737
     9  C   -0.091355
    10  C    0.045987
    11  C    0.164516
    12  C    0.105913
    13  C   -0.000879
    15  N   -0.433364
    16  C    0.168855
    17  C   -0.176779
    18  C   -0.002957
    19  C    0.148948
    20  C    0.182775
    21  C    0.013261
    22  O   -0.249611
    23  C    0.169091
    24  N   -0.340891
    25  C    0.041382
    26  C   -0.012117
    27  C   -0.013958
    28  C    0.074592
    29  C    0.117324
    30  C    0.046781
    31  C    0.050921
    32  N   -0.310638
    33  C    0.080393
    34  C   -0.168543
    35  C    0.008377
    36  C    0.082670
    37  C    0.232357
    38  C    0.045577
    39  O   -0.187868
    40  C    0.029728
    41  C    0.215199
    42  O   -0.258793
    43  O   -0.303461
    44  C    0.300141
    80  Mg   0.836211
    81  C   -0.016553
    82  C   -0.109265
    83  C   -0.063484
    84  C   -0.107939
    85  N   -0.255479
    86  C   -0.046771
    87  C   -0.009310
    88  C   -0.101637
    89  C    0.047086
    90  C    0.179237
    91  C    0.111212
    92  C   -0.004199
    94  N   -0.423409
    95  C    0.163070
    96  C   -0.176085
    97  C   -0.009114
    98  C    0.152197
    99  C    0.170464
   100  C    0.014193
   101  O   -0.254068
   102  C    0.167450
   103  N   -0.350555
   104  C    0.037774
   105  C   -0.006419
   106  C   -0.022612
   107  C    0.089302
   108  C    0.117958
   109  C    0.043483
   110  C    0.050805
   111  N   -0.324322
   112  C    0.079091
   113  C   -0.163997
   114  C    0.002982
   115  C    0.095933
   116  C    0.230180
   117  C    0.042346
   118  O   -0.187925
   119  C    0.042720
   120  C    0.210531
   121  O   -0.252490
   122  O   -0.303487
   123  C    0.298008
 Electronic spatial extent (au):  <R**2>=          87410.1874
 Charge=              0.0000 electrons
 Dipole moment (field-independent basis, Debye):
    X=              5.6503    Y=             -1.3227    Z=              6.3876  Tot=              8.6300
 Quadrupole moment (field-independent basis, Debye-Ang):
   XX=           -518.7545   YY=           -541.1386   ZZ=           -459.0154
   XY=              3.2704   XZ=              1.4675   YZ=             41.5594
 Traceless Quadrupole moment (field-independent basis, Debye-Ang):
   XX=            -12.4517   YY=            -34.8358   ZZ=             47.2875
   XY=              3.2704   XZ=              1.4675   YZ=             41.5594
 Octapole moment (field-independent basis, Debye-Ang**2):
  XXX=            288.7792  YYY=            292.6664  ZZZ=             82.9660  XYY=           -126.5091
  XXY=            -11.4028  XXZ=            180.6715  XZZ=            126.6379  YZZ=            -96.7601
  YYZ=            134.3934  XYZ=           -132.9595
 Hexadecapole moment (field-independent basis, Debye-Ang**3):
 XXXX=         -53156.1435 YYYY=         -41588.7899 ZZZZ=         -24798.2540 XXXY=            259.2666
 XXXZ=            136.0837 YYYX=          -1260.5235 YYYZ=           1380.5234 ZZZX=           -596.4170
 ZZZY=             74.2481 XXYY=         -15400.6940 XXZZ=         -12461.8115 YYZZ=         -11003.9351
 XXYZ=            472.2325 YYXZ=            800.4798 ZZXY=            258.0692
 N-N= 1.595473775417D+04 E-N=-4.139078858938D+04  KE= 4.028793223454D+03
 Leave Link  601 at Thu Sep  9 05:50:27 2021, MaxMem= 23488102400 cpu:              17.4 elap:               0.9
 (Enter /sw/apps/gaussian-16.0/g16/l9999.exe)
 1\1\GINC-BP1-COMPUTE00083\SP\RCAM-B3LYP TD-FC\def2SVP\C68H72Mg2N8O8\OF
 15641\09-Sep-2021\0\\#p cam-b3lyp/Def2SVP td=(nstates=5)\\TDDFT excite
 d states in gaussian\\0,1\Mg,0,0.,0.,0.\C,0,-0.217,-2.218,2.801\C,0,-1
 .255,2.442,2.026\C,0,-0.245,1.85,-2.564\C,0,0.146,-2.824,-2.037\N,0,-0
 .617,-0.009,2.126\C,0,-0.594,-0.908,3.105\C,0,-0.936,-0.309,4.502\C,0,
 -1.773,0.964,4.032\C,0,-1.155,1.168,2.66\C,0,-3.263,0.685,3.863\C,0,0.
 345,0.11,5.299\C,0,0.124,0.397,6.787\H,0,1.168,0.033,7.733\N,0,-0.185,
 1.961,-0.152\C,0,-0.703,2.8,0.777\C,0,-0.62,4.156,0.193\C,0,-0.187,4.0
 15,-1.225\C,0,-0.214,2.583,-1.38\C,0,-0.887,5.406,0.974\C,0,0.181,5.01
 3,-2.277\O,0,0.303,4.69,-3.508\C,0,0.31,6.414,-1.837\N,0,-0.265,-0.413
 ,-2.029\C,0,-0.279,0.569,-2.937\C,0,-0.196,0.024,-4.332\C,0,0.124,-1.5
 33,-4.18\C,0,0.086,-1.632,-2.635\C,0,-1.451,0.205,-5.197\C,0,1.373,-2.
 07,-4.923\C,0,2.626,-1.49,-4.306\N,0,0.15,-2.144,0.303\C,0,0.173,-3.13
 6,-0.688\C,0,0.173,-4.438,0.004\C,0,0.133,-4.111,1.358\C,0,0.083,-2.69
 5,1.502\C,0,0.149,-5.715,-0.623\C,0,0.096,-4.629,2.716\O,0,0.208,-5.74
 7,3.221\C,0,-0.255,-3.428,3.701\C,0,0.717,-3.482,4.848\O,0,1.931,-3.25
 5,4.669\O,0,0.038,-3.556,6.003\C,0,0.943,-3.583,7.183\H,0,-1.859,3.22,
 2.497\H,0,-0.218,2.453,-3.474\H,0,0.276,-3.747,-2.605\H,0,-1.554,-0.94
 9,5.132\H,0,-1.585,1.831,4.665\H,0,-3.484,-0.377,3.969\H,0,-3.511,1.02
 7,2.858\H,0,-3.852,1.301,4.543\H,0,0.669,1.096,4.966\H,0,1.13,-0.639,5
 .189\H,0,-0.844,0.026,7.125\H,0,0.062,1.477,6.921\H,0,-1.344,5.186,1.9
 38\H,0,-1.651,5.963,0.432\H,0,0.007,6.02,1.084\H,0,-0.635,6.744,-1.405
 \H,0,0.665,6.97,-2.704\H,0,1.048,6.466,-1.036\H,0,0.608,0.501,-4.891\H
 ,0,-0.692,-2.156,-4.547\H,0,-1.267,0.74,-6.129\H,0,-2.204,0.714,-4.596
 \H,0,-1.967,-0.72,-5.453\H,0,1.356,-1.759,-5.967\H,0,1.452,-3.157,-4.9
 02\H,0,2.714,-0.522,-4.798\H,0,3.487,-2.121,-4.529\H,0,2.495,-1.303,-3
 .24\H,0,0.867,-6.333,-0.084\H,0,0.404,-5.642,-1.68\H,0,-0.891,-5.999,-
 0.463\H,0,-1.283,-3.581,4.028\H,0,0.698,-4.478,7.755\H,0,0.833,-2.619,
 7.68\H,0,2.,-3.754,6.976\Mg,0,7.88974,0.71047,0.60709\C,0,7.89789,-2.6
 7951,1.78483\C,0,6.69249,1.61433,3.67045\C,0,7.44461,3.63511,-0.53997\
 C,0,7.98158,-0.56247,-2.63589\N,0,7.40003,-0.47086,2.41178\C,0,7.50192
 ,-1.74384,2.76318\C,0,7.23762,-2.01885,4.26787\C,0,6.33222,-0.73274,4.
 59197\C,0,6.85987,0.21489,3.51668\C,0,4.85078,-0.96123,4.34207\C,0,8.5
 577,-2.02052,5.11606\C,0,8.41229,-2.58514,6.53091\H,0,9.52642,-3.3409,
 7.09662\N,0,7.6461,2.43781,1.55339\C,0,7.1694,2.62113,2.80256\C,0,7.16
 737,4.07563,3.02298\C,0,7.52639,4.74454,1.74299\C,0,7.53278,3.60775,0.
 84423\C,0,6.9231,4.69436,4.36869\C,0,7.80388,6.17302,1.38432\O,0,7.862
 46,6.56179,0.16438\C,0,7.91229,7.12069,2.5031\N,0,7.5217,1.43333,-1.30
 716\C,0,7.42077,2.75376,-1.53997\C,0,7.43181,3.04897,-3.02088\C,0,7.80
 606,1.66619,-3.73183\C,0,7.86154,0.74993,-2.48974\C,0,6.12276,3.58211,
 -3.60271\C,0,9.02321,1.67777,-4.69675\C,0,10.29708,1.91431,-3.91785\N,
 0,8.11815,-1.24082,-0.29201\C,0,8.10216,-1.55259,-1.66919\C,0,8.17862,
 -3.02348,-1.7835\C,0,8.21083,-3.4702,-0.45388\C,0,8.1378,-2.35751,0.42
 707\C,0,8.16134,-3.76549,-2.9981\C,0,8.27929,-4.63067,0.40479\O,0,8.44
 383,-5.8365,0.22412\C,0,7.9522,-4.17816,1.89296\C,0,8.99154,-4.77798,2
 .79989\O,0,10.18225,-4.42943,2.71412\O,0,8.37847,-5.49714,3.75765\C,0,
 9.3674,-6.10308,4.6886\H,0,6.10389,1.97689,4.51365\H,0,7.40133,4.62958
 ,-0.99011\H,0,8.11371,-1.03133,-3.61333\H,0,6.68198,-2.926,4.4731\H,0,
 6.54388,-0.34034,5.58322\H,0,4.66377,-1.91616,3.87379\H,0,4.53368,-0.1
 5395,3.69493\H,0,4.2885,-0.84029,5.27242\H,0,8.83148,-0.98466,5.35436\
 H,0,9.34205,-2.53842,4.59915\H,0,7.47091,-3.13259,6.66151\H,0,8.3362,-
 1.75015,7.23163\H,0,6.52394,3.96229,5.08154\H,0,6.11343,5.42151,4.2440
 9\H,0,7.80267,5.20872,4.76171\H,0,6.98881,7.10891,3.07713\H,0,8.20094,
 8.07248,2.05293\H,0,8.70578,6.77776,3.17644\H,0,8.1889,3.78474,-3.2629
 1\H,0,6.98276,1.29493,-4.35967\H,0,6.23674,4.55775,-4.11183\H,0,5.3975
 9,3.65297,-2.80293\H,0,5.62572,2.91715,-4.30698\H,0,8.9357,2.50375,-5.
 40685\H,0,9.12474,0.76541,-5.27492\H,0,10.32345,3.00304,-3.81265\H,0,1
 1.159,1.55048,-4.47351\H,0,10.22753,1.48741,-2.9106\H,0,8.91929,-4.531
 93,-2.90552\H,0,8.34557,-3.12488,-3.85801\H,0,7.13594,-4.14433,-2.9806
 5\H,0,6.94834,-4.53262,2.12999\H,0,9.17792,-7.1809,4.69874\H,0,9.24748
 ,-5.56154,5.64573\H,0,10.4113,-6.07458,4.39891\\Version=ES64L-G16RevA.
 03\State=1-A\HF=-4069.8135042\RMSD=7.019e-09\PG=C01 [X(C68H72Mg2N8O8)]
 \\@


 THE GREAT THING ABOUT BEING IMPERFECT IS THE JOY IT BRINGS OTHERS.
   -- SIGN OUTSIDE LAKE AGASSIZ JR. HIGH SCHOOL, FARGO, N.D.
 Job cpu time:       0 days 17 hours 24 minutes 42.5 seconds.
 Elapsed time:       0 days  0 hours 44 minutes 15.1 seconds.
 File lengths (MBytes):  RWF=  13225 Int=      0 D2E=      0 Chk=    574 Scr=      1
 Normal termination of Gaussian 16 at Thu Sep  9 05:50:28 2021.
