 Entering Gaussian System, Link 0=g16
 Initial command:
 /sw/apps/gaussian-16.0/g16/l1.exe "/tmp/Gau-169142.inp" -scrdir="/tmp/"
 Entering Link 1 = /sw/apps/gaussian-16.0/g16/l1.exe PID=    169143.
  
 Copyright (c) 1988,1990,1992,1993,1995,1998,2003,2009,2016,
            Gaussian, Inc.  All Rights Reserved.
  
 This is part of the Gaussian(R) 16 program.  It is based on
 the Gaussian(R) 09 system (copyright 2009, Gaussian, Inc.),
 the Gaussian(R) 03 system (copyright 2003, Gaussian, Inc.),
 the Gaussian(R) 98 system (copyright 1998, Gaussian, Inc.),
 the Gaussian(R) 94 system (copyright 1995, Gaussian, Inc.),
 the Gaussian 92(TM) system (copyright 1992, Gaussian, Inc.),
 the Gaussian 90(TM) system (copyright 1990, Gaussian, Inc.),
 the Gaussian 88(TM) system (copyright 1988, Gaussian, Inc.),
 the Gaussian 86(TM) system (copyright 1986, Carnegie Mellon
 University), and the Gaussian 82(TM) system (copyright 1983,
 Carnegie Mellon University). Gaussian is a federally registered
 trademark of Gaussian, Inc.
  
 This software contains proprietary and confidential information,
 including trade secrets, belonging to Gaussian, Inc.
  
 This software is provided under written license and may be
 used, copied, transmitted, or stored only in accord with that
 written license.
  
 The following legend is applicable only to US Government
 contracts under FAR:
  
                    RESTRICTED RIGHTS LEGEND
  
 Use, reproduction and disclosure by the US Government is
 subject to restrictions as set forth in subparagraphs (a)
 and (c) of the Commercial Computer Software - Restricted
 Rights clause in FAR 52.227-19.
  
 Gaussian, Inc.
 340 Quinnipiac St., Bldg. 40, Wallingford CT 06492
  
  
 ---------------------------------------------------------------
 Warning -- This program may not be used in any manner that
 competes with the business of Gaussian, Inc. or will provide
 assistance to any competitor of Gaussian, Inc.  The licensee
 of this program is prohibited from giving any competitor of
 Gaussian, Inc. access to this program.  By using this program,
 the user acknowledges that Gaussian, Inc. is engaged in the
 business of creating and licensing software in the field of
 computational chemistry and represents and warrants to the
 licensee that it is not a competitor of Gaussian, Inc. and that
 it will not use this program in any manner prohibited above.
 ---------------------------------------------------------------
  

 Cite this work as:
 Gaussian 16, Revision A.03,
 M. J. Frisch, G. W. Trucks, H. B. Schlegel, G. E. Scuseria, 
 M. A. Robb, J. R. Cheeseman, G. Scalmani, V. Barone, 
 G. A. Petersson, H. Nakatsuji, X. Li, M. Caricato, A. V. Marenich, 
 J. Bloino, B. G. Janesko, R. Gomperts, B. Mennucci, H. P. Hratchian, 
 J. V. Ortiz, A. F. Izmaylov, J. L. Sonnenberg, D. Williams-Young, 
 F. Ding, F. Lipparini, F. Egidi, J. Goings, B. Peng, A. Petrone, 
 T. Henderson, D. Ranasinghe, V. G. Zakrzewski, J. Gao, N. Rega, 
 G. Zheng, W. Liang, M. Hada, M. Ehara, K. Toyota, R. Fukuda, 
 J. Hasegawa, M. Ishida, T. Nakajima, Y. Honda, O. Kitao, H. Nakai, 
 T. Vreven, K. Throssell, J. A. Montgomery, Jr., J. E. Peralta, 
 F. Ogliaro, M. J. Bearpark, J. J. Heyd, E. N. Brothers, K. N. Kudin, 
 V. N. Staroverov, T. A. Keith, R. Kobayashi, J. Normand, 
 K. Raghavachari, A. P. Rendell, J. C. Burant, S. S. Iyengar, 
 J. Tomasi, M. Cossi, J. M. Millam, M. Klene, C. Adamo, R. Cammi, 
 J. W. Ochterski, R. L. Martin, K. Morokuma, O. Farkas, 
 J. B. Foresman, and D. J. Fox, Gaussian, Inc., Wallingford CT, 2016.
 
 ******************************************
 Gaussian 16:  ES64L-G16RevA.03 25-Dec-2016
                12-Sep-2021 
 ******************************************
 %nproc=24
 Will use up to   24 processors via shared memory.
 %mem=175gb
 -----------------------------------
 #p cam-b3lyp/Def2SVP td=(nstates=5)
 -----------------------------------
 1/38=1,172=1/1;
 2/12=2,17=6,18=5,40=1/2;
 3/5=43,7=101,11=9,25=1,30=1,74=-40/1,2,3,8;
 4//1;
 5/5=2,38=5/2;
 8/6=1,10=1,108=5/1;
 9/41=5,42=1,70=2/14;
 6/7=2,8=2,9=2,10=2/1;
 99/5=1,9=1/99;
 Leave Link    1 at Sun Sep 12 05:49:58 2021, MaxMem= 23488102400 cpu:               0.9 elap:               0.0
 (Enter /sw/apps/gaussian-16.0/g16/l101.exe)
 --------------------------------
 TDDFT excited states in gaussian
 --------------------------------
 Symbolic Z-matrix:
 Charge =  0 Multiplicity = 1
 Mg                    0.        0.        0. 
 C                    -0.217    -2.218     2.801 
 C                    -1.255     2.442     2.026 
 C                    -0.245     1.85     -2.564 
 C                     0.146    -2.824    -2.037 
 N                    -0.617    -0.009     2.126 
 C                    -0.594    -0.908     3.105 
 C                    -0.936    -0.309     4.502 
 C                    -1.773     0.964     4.032 
 C                    -1.155     1.168     2.66 
 C                    -3.263     0.685     3.863 
 C                     0.345     0.11      5.299 
 C                     0.124     0.397     6.787 
 H                     1.168     0.033     7.733 
 N                    -0.185     1.961    -0.152 
 C                    -0.703     2.8       0.777 
 C                    -0.62      4.156     0.193 
 C                    -0.187     4.015    -1.225 
 C                    -0.214     2.583    -1.38 
 C                    -0.887     5.406     0.974 
 C                     0.181     5.013    -2.277 
 O                     0.303     4.69     -3.508 
 C                     0.31      6.414    -1.837 
 N                    -0.265    -0.413    -2.029 
 C                    -0.279     0.569    -2.937 
 C                    -0.196     0.024    -4.332 
 C                     0.124    -1.533    -4.18 
 C                     0.086    -1.632    -2.635 
 C                    -1.451     0.205    -5.197 
 C                     1.373    -2.07     -4.923 
 C                     2.626    -1.49     -4.306 
 N                     0.15     -2.144     0.303 
 C                     0.173    -3.136    -0.688 
 C                     0.173    -4.438     0.004 
 C                     0.133    -4.111     1.358 
 C                     0.083    -2.695     1.502 
 C                     0.149    -5.715    -0.623 
 C                     0.096    -4.629     2.716 
 O                     0.208    -5.747     3.221 
 C                    -0.255    -3.428     3.701 
 C                     0.717    -3.482     4.848 
 O                     1.931    -3.255     4.669 
 O                     0.038    -3.556     6.003 
 C                     0.943    -3.583     7.183 
 H                    -1.859     3.22      2.497 
 H                    -0.218     2.453    -3.474 
 H                     0.276    -3.747    -2.605 
 H                    -1.554    -0.949     5.132 
 H                    -1.585     1.831     4.665 
 H                    -3.484    -0.377     3.969 
 H                    -3.511     1.027     2.858 
 H                    -3.852     1.301     4.543 
 H                     0.669     1.096     4.966 
 H                     1.13     -0.639     5.189 
 H                    -0.844     0.026     7.125 
 H                     0.062     1.477     6.921 
 H                    -1.344     5.186     1.938 
 H                    -1.651     5.963     0.432 
 H                     0.007     6.02      1.084 
 H                    -0.635     6.744    -1.405 
 H                     0.665     6.97     -2.704 
 H                     1.048     6.466    -1.036 
 H                     0.608     0.501    -4.891 
 H                    -0.692    -2.156    -4.547 
 H                    -1.267     0.74     -6.129 
 H                    -2.204     0.714    -4.596 
 H                    -1.967    -0.72     -5.453 
 H                     1.356    -1.759    -5.967 
 H                     1.452    -3.157    -4.902 
 H                     2.714    -0.522    -4.798 
 H                     3.487    -2.121    -4.529 
 H                     2.495    -1.303    -3.24 
 H                     0.867    -6.333    -0.084 
 H                     0.404    -5.642    -1.68 
 H                    -0.891    -5.999    -0.463 
 H                    -1.283    -3.581     4.028 
 H                     0.698    -4.478     7.755 
 H                     0.833    -2.619     7.68 
 H                     2.       -3.754     6.976 
 Mg                    15.77261   1.42431   1.2046 
 C                     15.55177  -0.79841   4.01348 
 C                     14.51592   3.86588   3.22798 
 C                     15.53076   3.28315  -1.35541 
 C                     15.91257  -1.39534  -0.83885 
 N                     15.15336   1.41301   3.32796 
 C                     15.17235   0.52683   4.31217 
 C                     14.8387   1.1117    5.7108 
 C                     13.99404   2.39381   5.24004 
 C                     14.61174   2.59962   3.85846 
 C                     12.51238   2.1064    5.06279 
 C                     16.1249   1.53139   6.50551 
 C                     15.89726   1.82075   7.99084 
 H                     16.94687   1.45862   8.93934 
 N                     15.58981   3.39525   1.06125 
 C                     15.07868   4.23448   1.9863 
 C                     15.14845   5.57857   1.3924 
 C                     15.59005   5.44392  -0.02237 
 C                     15.56679   4.00245  -0.16972 
 C                     14.88963   6.83037   2.17944 
 C                     15.95841   6.44708  -1.07317 
 O                     16.08266   6.11674  -2.30535 
 C                     16.07782   7.84452  -0.63227 
 N                     15.5148   1.0133   -0.81702 
 C                     15.49505   2.00324  -1.72672 
 C                     15.57624   1.45493  -3.13141 
 C                     15.89969  -0.10257  -2.96662 
 C                     15.8595  -0.20778  -1.42626 
 C                     14.32049   1.62603  -3.98593 
 C                     17.15    -0.64443  -3.71213 
 C                     18.4057  -0.06009  -3.1062 
 N                     15.9262  -0.7095    1.50679 
 C                     15.94332  -1.71267   0.51309 
 C                     15.94305  -3.01547   1.20961 
 C                     15.90222  -2.67737   2.57068 
 C                     15.85831  -1.264     2.71194 
 C                     15.92935  -4.29362   0.5833 
 C                     15.87555  -3.19495   3.91979 
 O                     15.98013  -4.31248   4.4237 
 C                     15.51977  -2.00434   4.91088 
 C                     16.49088  -2.04951   6.05867 
 O                     17.70125  -1.83378   5.87139 
 O                     15.80476  -2.12378   7.2137 
 C                     16.72436  -2.15985   8.38197 
 H                     13.91777   4.6407    3.70835 
 H                     15.55856   3.88     -2.27 
 H                     16.05431  -2.31975  -1.40281 
 H                     14.227    0.47265   6.33627 
 H                     14.19065   3.25206   5.87731 
 H                     12.29044   1.05491   5.16887 
 H                     12.26386   2.44686   4.06611 
 H                     11.92406   2.72383   5.74762 
 H                     16.44626   2.52502   6.16762 
 H                     16.89796   0.79601   6.39496 
 H                     14.92312   1.45491   8.33748 
 H                     15.84162   2.90327   8.12894 
 H                     14.42518   6.60775   3.14801 
 H                     14.12616   7.39759   1.63608 
 H                     15.78119   7.4517    2.28778 
 H                     15.13478   8.16807  -0.19816 
 H                     16.43449   8.39653  -1.50402 
 H                     16.82623   7.89667   0.16634 
 H                     16.38088   1.92441  -3.6839 
 H                     15.08069  -0.73117  -3.34601 
 H                     14.50633   2.17108  -4.93063 
 H                     13.57164   2.13537  -3.39404 
 H                     13.81371   0.70016  -4.25265 
 H                     17.13389  -0.32822  -4.75803 
 H                     17.22231  -1.72688  -3.70403 
 H                     18.48793   0.91308  -3.59942 
 H                     19.26603  -0.68858  -3.32727 
 H                     18.27616   0.12399  -2.03336 
 H                     16.64022  -4.90979   1.11762 
 H                     16.17968  -4.22144  -0.47306 
 H                     14.88475  -4.57604   0.73924 
 H                     14.48999  -2.14866   5.23997 
 H                     16.47577  -3.05742   8.95665 
 H                     16.59954  -1.18545   8.89061 
 H                     17.77811  -2.31955   8.18561 
 
 ITRead=  0  0  0  0  0  0  0  0  0  0  0  0  0  0  0  0  0  0  0  0
 ITRead=  0  0  0  0  0  0  0  0  0  0  0  0  0  0  0  0  0  0  0  0
 ITRead=  0  0  0  0  0  0  0  0  0  0  0  0  0  0  0  0  0  0  0  0
 ITRead=  0  0  0  0  0  0  0  0  0  0  0  0  0  0  0  0  0  0  0  0
 ITRead=  0  0  0  0  0  0  0  0  0  0  0  0  0  0  0  0  0  0  0  0
 ITRead=  0  0  0  0  0  0  0  0  0  0  0  0  0  0  0  0  0  0  0  0
 ITRead=  0  0  0  0  0  0  0  0  0  0  0  0  0  0  0  0  0  0  0  0
 ITRead=  0  0  0  0  0  0  0  0  0  0  0  0  0  0  0  0  0  0
 MicOpt= -1 -1 -1 -1 -1 -1 -1 -1 -1 -1 -1 -1 -1 -1 -1 -1 -1 -1 -1 -1
 MicOpt= -1 -1 -1 -1 -1 -1 -1 -1 -1 -1 -1 -1 -1 -1 -1 -1 -1 -1 -1 -1
 MicOpt= -1 -1 -1 -1 -1 -1 -1 -1 -1 -1 -1 -1 -1 -1 -1 -1 -1 -1 -1 -1
 MicOpt= -1 -1 -1 -1 -1 -1 -1 -1 -1 -1 -1 -1 -1 -1 -1 -1 -1 -1 -1 -1
 MicOpt= -1 -1 -1 -1 -1 -1 -1 -1 -1 -1 -1 -1 -1 -1 -1 -1 -1 -1 -1 -1
 MicOpt= -1 -1 -1 -1 -1 -1 -1 -1 -1 -1 -1 -1 -1 -1 -1 -1 -1 -1 -1 -1
 MicOpt= -1 -1 -1 -1 -1 -1 -1 -1 -1 -1 -1 -1 -1 -1 -1 -1 -1 -1 -1 -1
 MicOpt= -1 -1 -1 -1 -1 -1 -1 -1 -1 -1 -1 -1 -1 -1 -1 -1 -1 -1
 NAtoms=    158 NQM=      158 NQMF=       0 NMMI=      0 NMMIF=      0
                NMic=       0 NMicF=      0.
                    Isotopes and Nuclear Properties:
 (Nuclear quadrupole moments (NQMom) in fm**2, nuclear magnetic moments (NMagM)
  in nuclear magnetons)

  Atom         1           2           3           4           5           6           7           8           9          10
 IAtWgt=          24          12          12          12          12          14          12          12          12          12
 AtmWgt=  23.9850450  12.0000000  12.0000000  12.0000000  12.0000000  14.0030740  12.0000000  12.0000000  12.0000000  12.0000000
 NucSpn=           0           0           0           0           0           2           0           0           0           0
 AtZEff=  -0.0000000  -0.0000000  -0.0000000  -0.0000000  -0.0000000  -0.0000000  -0.0000000  -0.0000000  -0.0000000  -0.0000000
 NQMom=    0.0000000   0.0000000   0.0000000   0.0000000   0.0000000   2.0440000   0.0000000   0.0000000   0.0000000   0.0000000
 NMagM=    0.0000000   0.0000000   0.0000000   0.0000000   0.0000000   0.4037610   0.0000000   0.0000000   0.0000000   0.0000000
 AtZNuc=  12.0000000   6.0000000   6.0000000   6.0000000   6.0000000   7.0000000   6.0000000   6.0000000   6.0000000   6.0000000

  Atom        11          12          13          14          15          16          17          18          19          20
 IAtWgt=          12          12          12           1          14          12          12          12          12          12
 AtmWgt=  12.0000000  12.0000000  12.0000000   1.0078250  14.0030740  12.0000000  12.0000000  12.0000000  12.0000000  12.0000000
 NucSpn=           0           0           0           1           2           0           0           0           0           0
 AtZEff=  -0.0000000  -0.0000000  -0.0000000  -0.0000000  -0.0000000  -0.0000000  -0.0000000  -0.0000000  -0.0000000  -0.0000000
 NQMom=    0.0000000   0.0000000   0.0000000   0.0000000   2.0440000   0.0000000   0.0000000   0.0000000   0.0000000   0.0000000
 NMagM=    0.0000000   0.0000000   0.0000000   2.7928460   0.4037610   0.0000000   0.0000000   0.0000000   0.0000000   0.0000000
 AtZNuc=   6.0000000   6.0000000   6.0000000   1.0000000   7.0000000   6.0000000   6.0000000   6.0000000   6.0000000   6.0000000

  Atom        21          22          23          24          25          26          27          28          29          30
 IAtWgt=          12          16          12          14          12          12          12          12          12          12
 AtmWgt=  12.0000000  15.9949146  12.0000000  14.0030740  12.0000000  12.0000000  12.0000000  12.0000000  12.0000000  12.0000000
 NucSpn=           0           0           0           2           0           0           0           0           0           0
 AtZEff=  -0.0000000  -0.0000000  -0.0000000  -0.0000000  -0.0000000  -0.0000000  -0.0000000  -0.0000000  -0.0000000  -0.0000000
 NQMom=    0.0000000   0.0000000   0.0000000   2.0440000   0.0000000   0.0000000   0.0000000   0.0000000   0.0000000   0.0000000
 NMagM=    0.0000000   0.0000000   0.0000000   0.4037610   0.0000000   0.0000000   0.0000000   0.0000000   0.0000000   0.0000000
 AtZNuc=   6.0000000   8.0000000   6.0000000   7.0000000   6.0000000   6.0000000   6.0000000   6.0000000   6.0000000   6.0000000

  Atom        31          32          33          34          35          36          37          38          39          40
 IAtWgt=          12          14          12          12          12          12          12          12          16          12
 AtmWgt=  12.0000000  14.0030740  12.0000000  12.0000000  12.0000000  12.0000000  12.0000000  12.0000000  15.9949146  12.0000000
 NucSpn=           0           2           0           0           0           0           0           0           0           0
 AtZEff=  -0.0000000  -0.0000000  -0.0000000  -0.0000000  -0.0000000  -0.0000000  -0.0000000  -0.0000000  -0.0000000  -0.0000000
 NQMom=    0.0000000   2.0440000   0.0000000   0.0000000   0.0000000   0.0000000   0.0000000   0.0000000   0.0000000   0.0000000
 NMagM=    0.0000000   0.4037610   0.0000000   0.0000000   0.0000000   0.0000000   0.0000000   0.0000000   0.0000000   0.0000000
 AtZNuc=   6.0000000   7.0000000   6.0000000   6.0000000   6.0000000   6.0000000   6.0000000   6.0000000   8.0000000   6.0000000

  Atom        41          42          43          44          45          46          47          48          49          50
 IAtWgt=          12          16          16          12           1           1           1           1           1           1
 AtmWgt=  12.0000000  15.9949146  15.9949146  12.0000000   1.0078250   1.0078250   1.0078250   1.0078250   1.0078250   1.0078250
 NucSpn=           0           0           0           0           1           1           1           1           1           1
 AtZEff=  -0.0000000  -0.0000000  -0.0000000  -0.0000000  -0.0000000  -0.0000000  -0.0000000  -0.0000000  -0.0000000  -0.0000000
 NQMom=    0.0000000   0.0000000   0.0000000   0.0000000   0.0000000   0.0000000   0.0000000   0.0000000   0.0000000   0.0000000
 NMagM=    0.0000000   0.0000000   0.0000000   0.0000000   2.7928460   2.7928460   2.7928460   2.7928460   2.7928460   2.7928460
 AtZNuc=   6.0000000   8.0000000   8.0000000   6.0000000   1.0000000   1.0000000   1.0000000   1.0000000   1.0000000   1.0000000

  Atom        51          52          53          54          55          56          57          58          59          60
 IAtWgt=           1           1           1           1           1           1           1           1           1           1
 AtmWgt=   1.0078250   1.0078250   1.0078250   1.0078250   1.0078250   1.0078250   1.0078250   1.0078250   1.0078250   1.0078250
 NucSpn=           1           1           1           1           1           1           1           1           1           1
 AtZEff=  -0.0000000  -0.0000000  -0.0000000  -0.0000000  -0.0000000  -0.0000000  -0.0000000  -0.0000000  -0.0000000  -0.0000000
 NQMom=    0.0000000   0.0000000   0.0000000   0.0000000   0.0000000   0.0000000   0.0000000   0.0000000   0.0000000   0.0000000
 NMagM=    2.7928460   2.7928460   2.7928460   2.7928460   2.7928460   2.7928460   2.7928460   2.7928460   2.7928460   2.7928460
 AtZNuc=   1.0000000   1.0000000   1.0000000   1.0000000   1.0000000   1.0000000   1.0000000   1.0000000   1.0000000   1.0000000

  Atom        61          62          63          64          65          66          67          68          69          70
 IAtWgt=           1           1           1           1           1           1           1           1           1           1
 AtmWgt=   1.0078250   1.0078250   1.0078250   1.0078250   1.0078250   1.0078250   1.0078250   1.0078250   1.0078250   1.0078250
 NucSpn=           1           1           1           1           1           1           1           1           1           1
 AtZEff=  -0.0000000  -0.0000000  -0.0000000  -0.0000000  -0.0000000  -0.0000000  -0.0000000  -0.0000000  -0.0000000  -0.0000000
 NQMom=    0.0000000   0.0000000   0.0000000   0.0000000   0.0000000   0.0000000   0.0000000   0.0000000   0.0000000   0.0000000
 NMagM=    2.7928460   2.7928460   2.7928460   2.7928460   2.7928460   2.7928460   2.7928460   2.7928460   2.7928460   2.7928460
 AtZNuc=   1.0000000   1.0000000   1.0000000   1.0000000   1.0000000   1.0000000   1.0000000   1.0000000   1.0000000   1.0000000

  Atom        71          72          73          74          75          76          77          78          79          80
 IAtWgt=           1           1           1           1           1           1           1           1           1          24
 AtmWgt=   1.0078250   1.0078250   1.0078250   1.0078250   1.0078250   1.0078250   1.0078250   1.0078250   1.0078250  23.9850450
 NucSpn=           1           1           1           1           1           1           1           1           1           0
 AtZEff=  -0.0000000  -0.0000000  -0.0000000  -0.0000000  -0.0000000  -0.0000000  -0.0000000  -0.0000000  -0.0000000  -0.0000000
 NQMom=    0.0000000   0.0000000   0.0000000   0.0000000   0.0000000   0.0000000   0.0000000   0.0000000   0.0000000   0.0000000
 NMagM=    2.7928460   2.7928460   2.7928460   2.7928460   2.7928460   2.7928460   2.7928460   2.7928460   2.7928460   0.0000000
 AtZNuc=   1.0000000   1.0000000   1.0000000   1.0000000   1.0000000   1.0000000   1.0000000   1.0000000   1.0000000  12.0000000

  Atom        81          82          83          84          85          86          87          88          89          90
 IAtWgt=          12          12          12          12          14          12          12          12          12          12
 AtmWgt=  12.0000000  12.0000000  12.0000000  12.0000000  14.0030740  12.0000000  12.0000000  12.0000000  12.0000000  12.0000000
 NucSpn=           0           0           0           0           2           0           0           0           0           0
 AtZEff=  -0.0000000  -0.0000000  -0.0000000  -0.0000000  -0.0000000  -0.0000000  -0.0000000  -0.0000000  -0.0000000  -0.0000000
 NQMom=    0.0000000   0.0000000   0.0000000   0.0000000   2.0440000   0.0000000   0.0000000   0.0000000   0.0000000   0.0000000
 NMagM=    0.0000000   0.0000000   0.0000000   0.0000000   0.4037610   0.0000000   0.0000000   0.0000000   0.0000000   0.0000000
 AtZNuc=   6.0000000   6.0000000   6.0000000   6.0000000   7.0000000   6.0000000   6.0000000   6.0000000   6.0000000   6.0000000

  Atom        91          92          93          94          95          96          97          98          99         100
 IAtWgt=          12          12           1          14          12          12          12          12          12          12
 AtmWgt=  12.0000000  12.0000000   1.0078250  14.0030740  12.0000000  12.0000000  12.0000000  12.0000000  12.0000000  12.0000000
 NucSpn=           0           0           1           2           0           0           0           0           0           0
 AtZEff=  -0.0000000  -0.0000000  -0.0000000  -0.0000000  -0.0000000  -0.0000000  -0.0000000  -0.0000000  -0.0000000  -0.0000000
 NQMom=    0.0000000   0.0000000   0.0000000   2.0440000   0.0000000   0.0000000   0.0000000   0.0000000   0.0000000   0.0000000
 NMagM=    0.0000000   0.0000000   2.7928460   0.4037610   0.0000000   0.0000000   0.0000000   0.0000000   0.0000000   0.0000000
 AtZNuc=   6.0000000   6.0000000   1.0000000   7.0000000   6.0000000   6.0000000   6.0000000   6.0000000   6.0000000   6.0000000

  Atom       101         102         103         104         105         106         107         108         109         110
 IAtWgt=          16          12          14          12          12          12          12          12          12          12
 AtmWgt=  15.9949146  12.0000000  14.0030740  12.0000000  12.0000000  12.0000000  12.0000000  12.0000000  12.0000000  12.0000000
 NucSpn=           0           0           2           0           0           0           0           0           0           0
 AtZEff=  -0.0000000  -0.0000000  -0.0000000  -0.0000000  -0.0000000  -0.0000000  -0.0000000  -0.0000000  -0.0000000  -0.0000000
 NQMom=    0.0000000   0.0000000   2.0440000   0.0000000   0.0000000   0.0000000   0.0000000   0.0000000   0.0000000   0.0000000
 NMagM=    0.0000000   0.0000000   0.4037610   0.0000000   0.0000000   0.0000000   0.0000000   0.0000000   0.0000000   0.0000000
 AtZNuc=   8.0000000   6.0000000   7.0000000   6.0000000   6.0000000   6.0000000   6.0000000   6.0000000   6.0000000   6.0000000

  Atom       111         112         113         114         115         116         117         118         119         120
 IAtWgt=          14          12          12          12          12          12          12          16          12          12
 AtmWgt=  14.0030740  12.0000000  12.0000000  12.0000000  12.0000000  12.0000000  12.0000000  15.9949146  12.0000000  12.0000000
 NucSpn=           2           0           0           0           0           0           0           0           0           0
 AtZEff=  -0.0000000  -0.0000000  -0.0000000  -0.0000000  -0.0000000  -0.0000000  -0.0000000  -0.0000000  -0.0000000  -0.0000000
 NQMom=    2.0440000   0.0000000   0.0000000   0.0000000   0.0000000   0.0000000   0.0000000   0.0000000   0.0000000   0.0000000
 NMagM=    0.4037610   0.0000000   0.0000000   0.0000000   0.0000000   0.0000000   0.0000000   0.0000000   0.0000000   0.0000000
 AtZNuc=   7.0000000   6.0000000   6.0000000   6.0000000   6.0000000   6.0000000   6.0000000   8.0000000   6.0000000   6.0000000

  Atom       121         122         123         124         125         126         127         128         129         130
 IAtWgt=          16          16          12           1           1           1           1           1           1           1
 AtmWgt=  15.9949146  15.9949146  12.0000000   1.0078250   1.0078250   1.0078250   1.0078250   1.0078250   1.0078250   1.0078250
 NucSpn=           0           0           0           1           1           1           1           1           1           1
 AtZEff=  -0.0000000  -0.0000000  -0.0000000  -0.0000000  -0.0000000  -0.0000000  -0.0000000  -0.0000000  -0.0000000  -0.0000000
 NQMom=    0.0000000   0.0000000   0.0000000   0.0000000   0.0000000   0.0000000   0.0000000   0.0000000   0.0000000   0.0000000
 NMagM=    0.0000000   0.0000000   0.0000000   2.7928460   2.7928460   2.7928460   2.7928460   2.7928460   2.7928460   2.7928460
 AtZNuc=   8.0000000   8.0000000   6.0000000   1.0000000   1.0000000   1.0000000   1.0000000   1.0000000   1.0000000   1.0000000

  Atom       131         132         133         134         135         136         137         138         139         140
 IAtWgt=           1           1           1           1           1           1           1           1           1           1
 AtmWgt=   1.0078250   1.0078250   1.0078250   1.0078250   1.0078250   1.0078250   1.0078250   1.0078250   1.0078250   1.0078250
 NucSpn=           1           1           1           1           1           1           1           1           1           1
 AtZEff=  -0.0000000  -0.0000000  -0.0000000  -0.0000000  -0.0000000  -0.0000000  -0.0000000  -0.0000000  -0.0000000  -0.0000000
 NQMom=    0.0000000   0.0000000   0.0000000   0.0000000   0.0000000   0.0000000   0.0000000   0.0000000   0.0000000   0.0000000
 NMagM=    2.7928460   2.7928460   2.7928460   2.7928460   2.7928460   2.7928460   2.7928460   2.7928460   2.7928460   2.7928460
 AtZNuc=   1.0000000   1.0000000   1.0000000   1.0000000   1.0000000   1.0000000   1.0000000   1.0000000   1.0000000   1.0000000

  Atom       141         142         143         144         145         146         147         148         149         150
 IAtWgt=           1           1           1           1           1           1           1           1           1           1
 AtmWgt=   1.0078250   1.0078250   1.0078250   1.0078250   1.0078250   1.0078250   1.0078250   1.0078250   1.0078250   1.0078250
 NucSpn=           1           1           1           1           1           1           1           1           1           1
 AtZEff=  -0.0000000  -0.0000000  -0.0000000  -0.0000000  -0.0000000  -0.0000000  -0.0000000  -0.0000000  -0.0000000  -0.0000000
 NQMom=    0.0000000   0.0000000   0.0000000   0.0000000   0.0000000   0.0000000   0.0000000   0.0000000   0.0000000   0.0000000
 NMagM=    2.7928460   2.7928460   2.7928460   2.7928460   2.7928460   2.7928460   2.7928460   2.7928460   2.7928460   2.7928460
 AtZNuc=   1.0000000   1.0000000   1.0000000   1.0000000   1.0000000   1.0000000   1.0000000   1.0000000   1.0000000   1.0000000

  Atom       151         152         153         154         155         156         157         158
 IAtWgt=           1           1           1           1           1           1           1           1
 AtmWgt=   1.0078250   1.0078250   1.0078250   1.0078250   1.0078250   1.0078250   1.0078250   1.0078250
 NucSpn=           1           1           1           1           1           1           1           1
 AtZEff=  -0.0000000  -0.0000000  -0.0000000  -0.0000000  -0.0000000  -0.0000000  -0.0000000  -0.0000000
 NQMom=    0.0000000   0.0000000   0.0000000   0.0000000   0.0000000   0.0000000   0.0000000   0.0000000
 NMagM=    2.7928460   2.7928460   2.7928460   2.7928460   2.7928460   2.7928460   2.7928460   2.7928460
 AtZNuc=   1.0000000   1.0000000   1.0000000   1.0000000   1.0000000   1.0000000   1.0000000   1.0000000
 Leave Link  101 at Sun Sep 12 05:49:58 2021, MaxMem= 23488102400 cpu:               3.4 elap:               0.2
 (Enter /sw/apps/gaussian-16.0/g16/l202.exe)
 Stoichiometry    C68H72Mg2N8O8
 Framework group  C1[X(C68H72Mg2N8O8)]
 Deg. of freedom   468
 Full point group                 C1      NOp   1
 Largest Abelian subgroup         C1      NOp   1
 Largest concise Abelian subgroup C1      NOp   1
                         Standard orientation:                         
 ---------------------------------------------------------------------
 Center     Atomic      Atomic             Coordinates (Angstroms)
 Number     Number       Type             X           Y           Z
 ---------------------------------------------------------------------
      1         12           0       -7.860123   -0.731516    0.112391
      2          6           0       -8.039588    2.836833    0.328933
      3          6           0       -8.747823   -0.428321   -3.168329
      4          6           0       -8.151461   -3.887732    0.012157
      5          6           0       -8.106565   -0.807323    3.587903
      6          7           0       -8.307882    1.034232   -1.145501
      7          6           0       -8.282589    2.349958   -0.957360
      8          6           0       -8.463997    3.165688   -2.272293
      9          6           0       -9.227507    2.070913   -3.144371
     10          6           0       -8.703832    0.815001   -2.470299
     11          6           0      -10.744047    2.116509   -2.987753
     12          6           0       -7.094550    3.561157   -2.920327
     13          6           0       -7.174316    4.626779   -4.017341
     14          1           0       -6.093155    5.593594   -4.134420
     15          7           0       -7.894383   -1.966672   -1.429059
     16          6           0       -8.267441   -1.669267   -2.696995
     17          6           0       -8.118961   -2.921221   -3.469812
     18          6           0       -7.811080   -4.015861   -2.508008
     19          6           0       -7.967880   -3.329963   -1.250894
     20          6           0       -8.220366   -2.983391   -4.962997
     21          6           0       -7.445449   -5.454772   -2.692347
     22          8           0       -7.446940   -6.286692   -1.721532
     23          6           0       -7.167607   -5.890308   -4.072983
     24          7           0       -8.315832   -2.162286    1.562516
     25          6           0       -8.319808   -3.466857    1.267454
     26          6           0       -8.391126   -4.307029    2.508004
     27          6           0       -8.189484   -3.303619    3.733672
     28          6           0       -8.114754   -1.975169    2.941267
     29          6           0       -9.690663   -5.099561    2.705757
     30          6           0       -7.050764   -3.632293    4.731524
     31          6           0       -5.709937   -3.475879    4.049749
     32          7           0       -7.863911    0.732428    1.714857
     33          6           0       -8.000091    0.479593    3.087520
     34          6           0       -8.053230    1.788312    3.764646
     35          6           0       -7.960335    2.717746    2.730544
     36          6           0       -7.882215    2.033237    1.484094
     37          6           0       -8.231144    1.997691    5.160691
     38          6           0       -7.933701    4.130152    2.386657
     39          8           0       -7.875019    5.178526    3.030831
     40          6           0       -8.106669    4.265180    0.809420
     41          6           0       -7.055832    5.222697    0.317270
     42          8           0       -5.844962    4.925080    0.368102
     43          8           0       -7.646356    6.227284   -0.348033
     44          6           0       -6.657287    7.197814   -0.888374
     45          1           0       -9.247108   -0.471713   -4.138263
     46          1           0       -8.146054   -4.979503    0.033250
     47          1           0       -8.097729   -0.753080    4.678055
     48          1           0       -9.081497    4.058446   -2.171784
     49          1           0       -8.919932    2.096349   -4.189585
     50          1           0      -11.042760    2.810580   -2.202286
     51          1           0      -11.040766    1.099581   -2.730250
     52          1           0      -11.225445    2.336837   -3.940900
     53          1           0       -6.717483    2.721590   -3.504287
     54          1           0       -6.384859    3.882003   -2.156964
     55          1           0       -8.140213    5.132670   -4.012110
     56          1           0       -7.136556    4.125010   -4.984296
     57          1           0       -8.617254   -2.057030   -5.376374
     58          1           0       -8.975904   -3.732216   -5.199918
     59          1           0       -7.273009   -3.257219   -5.427611
     60          1           0       -8.045612   -5.705438   -4.692240
     61          1           0       -6.836829   -6.925793   -4.000825
     62          1           0       -6.367550   -5.273608   -4.483518
     63          1           0       -7.596701   -5.052094    2.521907
     64          1           0       -9.080151   -3.237575    4.358991
     65          1           0       -9.536585   -6.173603    2.812521
     66          1           0      -10.349978   -4.880611    1.866319
     67          1           0      -10.299459   -4.776000    3.549613
     68          1           0       -7.123570   -4.667796    5.062250
     69          1           0       -7.060108   -2.999280    5.618913
     70          1           0       -5.581243   -4.431924    3.543539
     71          1           0       -4.923848   -3.316368    4.788552
     72          1           0       -5.741466   -2.702388    3.282153
     73          1           0       -7.526564    2.779490    5.444108
     74          1           0       -8.054313    1.081809    5.724158
     75          1           0       -9.275313    2.308961    5.186737
     76          1           0       -9.115093    4.639311    0.635555
     77          1           0       -6.929713    8.181027   -0.504562
     78          1           0       -6.648422    7.061506   -1.969922
     79          1           0       -5.637350    7.105880   -0.513387
     80         12           0        8.021940   -0.827026    0.035725
     81          6           0        7.838887    2.750556    0.251269
     82          6           0        7.132322   -0.525714   -3.243358
     83          6           0        7.734771   -3.985032   -0.073641
     84          6           0        7.769352   -0.910505    3.510626
     85          7           0        7.571551    0.937894   -1.219050
     86          6           0        7.594322    2.250700   -1.044790
     87          6           0        7.420174    3.075647   -2.348131
     88          6           0        6.649744    1.975210   -3.228101
     89          6           0        7.172522    0.710391   -2.550156
     90          6           0        5.140153    2.018644   -3.059019
     91          6           0        8.794666    3.468748   -2.994859
     92          6           0        8.708288    4.530950   -4.093048
     93          1           0        9.795372    5.498662   -4.212436
     94          7           0        7.991360   -2.060745   -1.518486
     95          6           0        7.624838   -1.766843   -2.783619
     96          6           0        7.758421   -3.019950   -3.542593
     97          6           0        8.075620   -4.115688   -2.586844
     98          6           0        7.922355   -3.418184   -1.325858
     99          6           0        7.665763   -3.078315   -5.039734
    100          6           0        8.442128   -5.556548   -2.776044
    101          8           0        8.442176   -6.385311   -1.798302
    102          6           0        8.710219   -5.989152   -4.155345
    103          7           0        7.574115   -2.252979    1.480874
    104          6           0        7.564948   -3.563356    1.179620
    105          6           0        7.490802   -4.409591    2.428131
    106          6           0        7.696829   -3.395432    3.647399
    107          6           0        7.768510   -2.067236    2.862445
    108          6           0        6.190523   -5.187864    2.628012
    109          6           0        8.836255   -3.723436    4.650790
    110          6           0       10.179257   -3.578644    3.971991
    111          7           0        8.022495    0.630403    1.630703
    112          6           0        7.879343    0.381791    3.013375
    113          6           0        7.826222    1.694689    3.688583
    114          6           0        7.919758    2.623654    2.641318
    115          6           0        8.003499    1.938276    1.399246
    116          6           0        7.658501    1.905106    5.086336
    117          6           0        7.955996    4.028323    2.303247
    118          8           0        8.007260    5.075664    2.946818
    119          6           0        7.777900    4.174347    0.730558
    120          6           0        8.828641    5.127516    0.230631
    121          8           0       10.034330    4.829547    0.294946
    122          8           0        8.231023    6.132407   -0.435266
    123          6           0        9.232935    7.098175   -0.959942
    124          1           0        6.639318   -0.559692   -4.215304
    125          1           0        7.740109   -5.077104   -0.044839
    126          1           0        7.790052   -0.852344    4.600976
    127          1           0        6.808658    3.964026   -2.245145
    128          1           0        6.965487    2.008975   -4.267586
    129          1           0        4.841379    2.706829   -2.282311
    130          1           0        4.843441    1.009446   -2.804994
    131          1           0        4.659926    2.242123   -4.015978
    132          1           0        9.169356    2.620871   -3.582613
    133          1           0        9.493572    3.781620   -2.243681
    134          1           0        7.737390    5.041130   -4.097592
    135          1           0        8.752895    4.031012   -5.063661
    136          1           0        7.261613   -2.146574   -5.454371
    137          1           0        6.911486   -3.834071   -5.284202
    138          1           0        8.611168   -3.357627   -5.509692
    139          1           0        7.833795   -5.798918   -4.770287
    140          1           0        9.041957   -7.026311   -4.077060
    141          1           0        9.520445   -5.374689   -4.563492
    142          1           0        8.285752   -5.145040    2.444602
    143          1           0        6.801753   -3.336353    4.283939
    144          1           0        6.346265   -6.278097    2.733895
    145          1           0        5.534648   -4.976679    1.793886
    146          1           0        5.589979   -4.872795    3.479645
    147          1           0        8.764613   -4.763476    4.978417
    148          1           0        8.819632   -3.103505    5.540960
    149          1           0       10.302549   -4.538526    3.461586
    150          1           0       10.965038   -3.418958    4.707577
    151          1           0       10.149473   -2.797892    3.203102
    152          1           0        8.355782    2.682141    5.370088
    153          1           0        7.830675    0.990300    5.649591
    154          1           0        6.609575    2.212219    5.112857
    155          1           0        6.768585    4.545301    0.548208
    156          1           0        8.956940    8.085115   -0.575935
    157          1           0        9.228841    6.965804   -2.058218
    158          1           0       10.251404    7.008639   -0.600561
 ---------------------------------------------------------------------
 Rotational constants (GHZ):           0.0202619           0.0060113           0.0055408
 Leave Link  202 at Sun Sep 12 05:49:58 2021, MaxMem= 23488102400 cpu:               0.2 elap:               0.0
 (Enter /sw/apps/gaussian-16.0/g16/l301.exe)
 Standard basis: def2SVP (5D, 7F)
 Ernie: Thresh=  0.10000D-02 Tol=  0.10000D-05 Strict=F.
 There are  1658 symmetry adapted cartesian basis functions of A   symmetry.
 There are  1572 symmetry adapted basis functions of A   symmetry.
  1572 basis functions,  2678 primitive gaussians,  1658 cartesian basis functions
   312 alpha electrons      312 beta electrons
       nuclear repulsion energy     13740.6816332123 Hartrees.
 IExCor=20419 DFT=T Ex+Corr=CAM-B3LYP ExCW=0 ScaHFX=  1.000000
 ScaDFX=  1.000000  1.000000  1.000000  0.810000 ScalE2=  1.000000  1.000000
 IRadAn=      5 IRanWt=     -1 IRanGd=            0 ICorTp=0 IEmpDi=  4
 HFx  wShort=  0.000000 wLong=  0.330000 cFull=  0.190000 cShort=  0.000000 cLong=  0.460000
 DFx  wShort=  0.000000 wLong=  0.330000 cFull=  0.190000 cShort=  0.000000 cLong=  0.460000
 NAtoms=  158 NActive=  158 NUniq=  158 SFac= 1.00D+00 NAtFMM=   60 NAOKFM=T Big=T
 Integral buffers will be    131072 words long.
 Raffenetti 1 integral format.
 Two-electron integral symmetry is turned on.
 Leave Link  301 at Sun Sep 12 05:49:58 2021, MaxMem= 23488102400 cpu:               1.4 elap:               0.1
 (Enter /sw/apps/gaussian-16.0/g16/l302.exe)
 NPDir=0 NMtPBC=     1 NCelOv=     1 NCel=       1 NClECP=     1 NCelD=      1
         NCelK=      1 NCelE2=     1 NClLst=     1 CellRange=     0.0.
 One-electron integrals computed using PRISM.
 One-electron integral symmetry used in STVInt
   1 Symmetry operations used in ECPInt.
 ECPInt:  NShTT=  271216 NPrTT=  987664 LenC2=  107387 LenP2D=  244331.
 LDataN:  DoStor=T MaxTD1= 4 Len=   56
 NBasis=  1572 RedAO= T EigKep=  3.36D-04  NBF=  1572
 NBsUse=  1572 1.00D-06 EigRej= -1.00D+00 NBFU=  1572
 Precomputing XC quadrature grid using
 IXCGrd= 4 IRadAn=           5 IRanWt=          -1 IRanGd=           0 AccXCQ= 0.00D+00.
 Generated NRdTot=       0 NPtTot=           0 NUsed=           0 NTot=          32
 NSgBfM=   858   835   842   853   858 MxSgAt=   158 MxSgA2=   149.
 Leave Link  302 at Sun Sep 12 05:50:03 2021, MaxMem= 23488102400 cpu:             110.3 elap:               4.6
 (Enter /sw/apps/gaussian-16.0/g16/l303.exe)
 DipDrv:  MaxL=1.
 Leave Link  303 at Sun Sep 12 05:50:03 2021, MaxMem= 23488102400 cpu:               8.3 elap:               0.4
 (Enter /sw/apps/gaussian-16.0/g16/l308.exe)
 Leave Link  308 at Sun Sep 12 05:50:04 2021, MaxMem= 23488102400 cpu:              15.5 elap:               0.7
 (Enter /sw/apps/gaussian-16.0/g16/l401.exe)
 ExpMin= 3.36D-02 ExpMax= 4.95D+03 ExpMxC= 7.45D+02 IAcc=3 IRadAn=         5 AccDes= 0.00D+00
 Harris functional with IExCor=20419 and IRadAn=       5 diagonalized for initial guess.
 HarFok:  IExCor=20419 AccDes= 0.00D+00 IRadAn=         5 IDoV= 1 UseB2=F ITyADJ=14
 ICtDFT=  3500011 ScaDFX=  1.000000  1.000000  1.000000  1.000000
 FoFCou: FMM=F IPFlag=           0 FMFlag=      100000 FMFlg1=        2001
         NFxFlg=           0 DoJE=T BraDBF=F KetDBF=T FulRan=T
         wScrn=  0.000000 ICntrl=       500 IOpCl=  0 I1Cent=   200000004 NGrid=           0
         NMat0=    1 NMatS0=      1 NMatT0=    0 NMatD0=    1 NMtDS0=    0 NMtDT0=    0
 Petite list used in FoFCou.
 Harris En= -3918.65801554549    
 JPrj=0 DoOrth=F DoCkMO=F.
 Leave Link  401 at Sun Sep 12 05:50:11 2021, MaxMem= 23488102400 cpu:             161.3 elap:               6.8
 (Enter /sw/apps/gaussian-16.0/g16/l502.exe)
 Integral symmetry usage will be decided dynamically.
 Closed shell SCF:
 Using DIIS extrapolation, IDIIS=  1040.
 NGot= 23488102400 LenX= 23482547354 LenY= 23479796732
 Requested convergence on RMS density matrix=1.00D-08 within 128 cycles.
 Requested convergence on MAX density matrix=1.00D-06.
 Requested convergence on             energy=1.00D-06.
 No special actions if energy rises.
 Fock matrices will be formed incrementally for  20 cycles.

 Cycle   1  Pass 1  IDiag  1:
 FoFJK:  IHMeth= 1 ICntrl=       0 DoSepK=T KAlg= 0 I1Cent=           0 FoldK=F
 IRaf=         1 NMat=       1 IRICut=       1 DoRegI=T DoRafI=F ISym2E= 0 IDoP0=0 IntGTp=1.
 FoFCou: FMM=T IPFlag=           0 FMFlag=      100000 FMFlg1=        2001
         NFxFlg=           0 DoJE=T BraDBF=F KetDBF=F FulRan=T
         wScrn=  0.000000 ICntrl=       500 IOpCl=  0 I1Cent=           0 NGrid=           0
         NMat0=    1 NMatS0=      1 NMatT0=    0 NMatD0=    1 NMtDS0=    0 NMtDT0=    0
 Symmetry not used in FoFCou.
 FMM levels:  10  Number of levels for PrismC:   9
 E= -4068.94897204931    
 DIIS: error= 2.04D-02 at cycle   1 NSaved=   1.
 NSaved= 1 IEnMin= 1 EnMin= -4068.94897204931     IErMin= 1 ErrMin= 2.04D-02
 ErrMax= 2.04D-02  0.00D+00 EMaxC= 1.00D-01 BMatC= 1.69D+00 BMatP= 1.69D+00
 IDIUse=3 WtCom= 7.96D-01 WtEn= 2.04D-01
 Coeff-Com:  0.100D+01
 Coeff-En:   0.100D+01
 Coeff:      0.100D+01
 Gap=     0.120 Goal=   None    Shift=    0.000
 GapD=    0.120 DampG=1.000 DampE=0.500 DampFc=0.5000 IDamp=-1.
 Damping current iteration by 5.00D-01
 RMSDP=1.57D-03 MaxDP=1.35D-01              OVMax= 2.04D-01

 Cycle   2  Pass 1  IDiag  1:
 RMSU=  7.70D-04    CP:  9.82D-01
 E= -4069.33782443058     Delta-E=       -0.388852381278 Rises=F Damp=T
 DIIS: error= 1.27D-02 at cycle   2 NSaved=   2.
 NSaved= 2 IEnMin= 2 EnMin= -4069.33782443058     IErMin= 2 ErrMin= 1.27D-02
 ErrMax= 1.27D-02  0.00D+00 EMaxC= 1.00D-01 BMatC= 3.07D-01 BMatP= 1.69D+00
 IDIUse=3 WtCom= 8.73D-01 WtEn= 1.27D-01
 Coeff-Com: -0.213D+00 0.121D+01
 Coeff-En:   0.000D+00 0.100D+01
 Coeff:     -0.186D+00 0.119D+01
 Gap=     0.136 Goal=   None    Shift=    0.000
 RMSDP=7.65D-04 MaxDP=9.44D-02 DE=-3.89D-01 OVMax= 1.89D-01

 Cycle   3  Pass 1  IDiag  1:
 RMSU=  7.33D-04    CP:  9.68D-01  1.24D+00
 E= -4069.62699190515     Delta-E=       -0.289167474566 Rises=F Damp=F
 DIIS: error= 1.57D-02 at cycle   3 NSaved=   3.
 NSaved= 3 IEnMin= 3 EnMin= -4069.62699190515     IErMin= 2 ErrMin= 1.27D-02
 ErrMax= 1.57D-02  0.00D+00 EMaxC= 1.00D-01 BMatC= 2.02D-01 BMatP= 3.07D-01
 IDIUse=3 WtCom= 8.43D-01 WtEn= 1.57D-01
 Coeff-Com: -0.267D+00 0.652D+00 0.615D+00
 Coeff-En:   0.000D+00 0.000D+00 0.100D+01
 Coeff:     -0.225D+00 0.549D+00 0.676D+00
 Gap=     0.123 Goal=   None    Shift=    0.000
 RMSDP=5.10D-04 MaxDP=4.85D-02 DE=-2.89D-01 OVMax= 1.45D-01

 Cycle   4  Pass 1  IDiag  1:
 RMSU=  2.66D-04    CP:  9.65D-01  1.55D+00  5.04D-01
 E= -4069.76451717230     Delta-E=       -0.137525267150 Rises=F Damp=F
 DIIS: error= 7.25D-03 at cycle   4 NSaved=   4.
 NSaved= 4 IEnMin= 4 EnMin= -4069.76451717230     IErMin= 4 ErrMin= 7.25D-03
 ErrMax= 7.25D-03  0.00D+00 EMaxC= 1.00D-01 BMatC= 5.05D-02 BMatP= 2.02D-01
 IDIUse=3 WtCom= 9.27D-01 WtEn= 7.25D-02
 Coeff-Com: -0.109D+00 0.226D+00 0.409D+00 0.474D+00
 Coeff-En:   0.000D+00 0.000D+00 0.222D+00 0.778D+00
 Coeff:     -0.101D+00 0.210D+00 0.395D+00 0.496D+00
 Gap=     0.122 Goal=   None    Shift=    0.000
 RMSDP=2.01D-04 MaxDP=1.97D-02 DE=-1.38D-01 OVMax= 6.37D-02

 Cycle   5  Pass 1  IDiag  1:
 RMSU=  7.66D-05    CP:  9.64D-01  1.49D+00  6.89D-01  5.48D-01
 E= -4069.81038419204     Delta-E=       -0.045867019740 Rises=F Damp=F
 DIIS: error= 7.67D-04 at cycle   5 NSaved=   5.
 NSaved= 5 IEnMin= 5 EnMin= -4069.81038419204     IErMin= 5 ErrMin= 7.67D-04
 ErrMax= 7.67D-04  0.00D+00 EMaxC= 1.00D-01 BMatC= 1.20D-03 BMatP= 5.05D-02
 IDIUse=3 WtCom= 9.92D-01 WtEn= 7.67D-03
 Coeff-Com: -0.363D-01 0.713D-01 0.167D+00 0.251D+00 0.547D+00
 Coeff-En:   0.000D+00 0.000D+00 0.000D+00 0.000D+00 0.100D+01
 Coeff:     -0.360D-01 0.708D-01 0.166D+00 0.249D+00 0.551D+00
 Gap=     0.122 Goal=   None    Shift=    0.000
 RMSDP=4.19D-05 MaxDP=4.16D-03 DE=-4.59D-02 OVMax= 1.73D-02

 Cycle   6  Pass 1  IDiag  1:
 RMSU=  3.08D-05    CP:  9.64D-01  1.49D+00  6.80D-01  6.21D-01  7.50D-01
 E= -4069.81143713694     Delta-E=       -0.001052944899 Rises=F Damp=F
 DIIS: error= 2.05D-04 at cycle   6 NSaved=   6.
 NSaved= 6 IEnMin= 6 EnMin= -4069.81143713694     IErMin= 6 ErrMin= 2.05D-04
 ErrMax= 2.05D-04  0.00D+00 EMaxC= 1.00D-01 BMatC= 1.83D-04 BMatP= 1.20D-03
 IDIUse=3 WtCom= 9.98D-01 WtEn= 2.05D-03
 Coeff-Com:  0.217D-02-0.651D-02 0.116D-01 0.407D-01 0.307D+00 0.645D+00
 Coeff-En:   0.000D+00 0.000D+00 0.000D+00 0.000D+00 0.110D+00 0.890D+00
 Coeff:      0.216D-02-0.650D-02 0.115D-01 0.406D-01 0.307D+00 0.646D+00
 Gap=     0.122 Goal=   None    Shift=    0.000
 RMSDP=1.64D-05 MaxDP=1.18D-03 DE=-1.05D-03 OVMax= 7.49D-03

 Cycle   7  Pass 1  IDiag  1:
 RMSU=  1.09D-05    CP:  9.64D-01  1.50D+00  6.86D-01  6.20D-01  8.54D-01
                    CP:  7.43D-01
 E= -4069.81163698977     Delta-E=       -0.000199852828 Rises=F Damp=F
 DIIS: error= 8.50D-05 at cycle   7 NSaved=   7.
 NSaved= 7 IEnMin= 7 EnMin= -4069.81163698977     IErMin= 7 ErrMin= 8.50D-05
 ErrMax= 8.50D-05  0.00D+00 EMaxC= 1.00D-01 BMatC= 2.23D-05 BMatP= 1.83D-04
 IDIUse=1 WtCom= 1.00D+00 WtEn= 0.00D+00
 Coeff-Com:  0.450D-02-0.985D-02-0.891D-02-0.350D-02 0.105D+00 0.333D+00
 Coeff-Com:  0.580D+00
 Coeff:      0.450D-02-0.985D-02-0.891D-02-0.350D-02 0.105D+00 0.333D+00
 Coeff:      0.580D+00
 Gap=     0.122 Goal=   None    Shift=    0.000
 RMSDP=6.61D-06 MaxDP=1.08D-03 DE=-2.00D-04 OVMax= 3.40D-03

 Cycle   8  Pass 1  IDiag  1:
 RMSU=  4.73D-06    CP:  9.64D-01  1.50D+00  6.87D-01  6.25D-01  8.57D-01
                    CP:  8.68D-01  8.17D-01
 E= -4069.81166467371     Delta-E=       -0.000027683942 Rises=F Damp=F
 DIIS: error= 5.07D-05 at cycle   8 NSaved=   8.
 NSaved= 8 IEnMin= 8 EnMin= -4069.81166467371     IErMin= 8 ErrMin= 5.07D-05
 ErrMax= 5.07D-05  0.00D+00 EMaxC= 1.00D-01 BMatC= 4.92D-06 BMatP= 2.23D-05
 IDIUse=1 WtCom= 1.00D+00 WtEn= 0.00D+00
 Coeff-Com:  0.218D-02-0.432D-02-0.780D-02-0.121D-01-0.107D-01 0.334D-01
 Coeff-Com:  0.336D+00 0.663D+00
 Coeff:      0.218D-02-0.432D-02-0.780D-02-0.121D-01-0.107D-01 0.334D-01
 Coeff:      0.336D+00 0.663D+00
 Gap=     0.122 Goal=   None    Shift=    0.000
 RMSDP=3.32D-06 MaxDP=3.62D-04 DE=-2.77D-05 OVMax= 1.06D-03

 Cycle   9  Pass 1  IDiag  1:
 RMSU=  1.93D-06    CP:  9.64D-01  1.50D+00  6.87D-01  6.26D-01  8.74D-01
                    CP:  8.95D-01  1.01D+00  9.51D-01
 E= -4069.81167254967     Delta-E=       -0.000007875962 Rises=F Damp=F
 DIIS: error= 2.00D-05 at cycle   9 NSaved=   9.
 NSaved= 9 IEnMin= 9 EnMin= -4069.81167254967     IErMin= 9 ErrMin= 2.00D-05
 ErrMax= 2.00D-05  0.00D+00 EMaxC= 1.00D-01 BMatC= 7.14D-07 BMatP= 4.92D-06
 IDIUse=1 WtCom= 1.00D+00 WtEn= 0.00D+00
 Coeff-Com:  0.472D-03-0.784D-03-0.269D-02-0.603D-02-0.209D-01-0.393D-01
 Coeff-Com:  0.101D+00 0.329D+00 0.639D+00
 Coeff:      0.472D-03-0.784D-03-0.269D-02-0.603D-02-0.209D-01-0.393D-01
 Coeff:      0.101D+00 0.329D+00 0.639D+00
 Gap=     0.122 Goal=   None    Shift=    0.000
 RMSDP=1.43D-06 MaxDP=1.45D-04 DE=-7.88D-06 OVMax= 7.50D-04

 Cycle  10  Pass 1  IDiag  1:
 RMSU=  9.49D-07    CP:  9.64D-01  1.50D+00  6.87D-01  6.27D-01  8.78D-01
                    CP:  9.08D-01  1.06D+00  1.12D+00  1.06D+00
 E= -4069.81167418665     Delta-E=       -0.000001636974 Rises=F Damp=F
 DIIS: error= 1.04D-05 at cycle  10 NSaved=  10.
 NSaved=10 IEnMin=10 EnMin= -4069.81167418665     IErMin=10 ErrMin= 1.04D-05
 ErrMax= 1.04D-05  0.00D+00 EMaxC= 1.00D-01 BMatC= 1.75D-07 BMatP= 7.14D-07
 IDIUse=1 WtCom= 1.00D+00 WtEn= 0.00D+00
 Coeff-Com: -0.428D-03 0.898D-03 0.123D-02 0.110D-02-0.372D-02-0.312D-01
 Coeff-Com: -0.451D-01-0.759D-01 0.249D+00 0.905D+00
 Coeff:     -0.428D-03 0.898D-03 0.123D-02 0.110D-02-0.372D-02-0.312D-01
 Coeff:     -0.451D-01-0.759D-01 0.249D+00 0.905D+00
 Gap=     0.122 Goal=   None    Shift=    0.000
 RMSDP=1.24D-06 MaxDP=1.23D-04 DE=-1.64D-06 OVMax= 6.25D-04

 Cycle  11  Pass 1  IDiag  1:
 RMSU=  5.27D-07    CP:  9.64D-01  1.50D+00  6.87D-01  6.27D-01  8.80D-01
                    CP:  9.18D-01  1.11D+00  1.23D+00  1.40D+00  1.37D+00
 E= -4069.81167499537     Delta-E=       -0.000000808726 Rises=F Damp=F
 DIIS: error= 4.09D-06 at cycle  11 NSaved=  11.
 NSaved=11 IEnMin=11 EnMin= -4069.81167499537     IErMin=11 ErrMin= 4.09D-06
 ErrMax= 4.09D-06  0.00D+00 EMaxC= 1.00D-01 BMatC= 6.53D-08 BMatP= 1.75D-07
 IDIUse=1 WtCom= 1.00D+00 WtEn= 0.00D+00
 Coeff-Com: -0.333D-03 0.649D-03 0.134D-02 0.213D-02 0.441D-02-0.861D-02
 Coeff-Com: -0.426D-01-0.133D+00-0.280D-01 0.476D+00 0.728D+00
 Coeff:     -0.333D-03 0.649D-03 0.134D-02 0.213D-02 0.441D-02-0.861D-02
 Coeff:     -0.426D-01-0.133D+00-0.280D-01 0.476D+00 0.728D+00
 Gap=     0.122 Goal=   None    Shift=    0.000
 RMSDP=6.99D-07 MaxDP=6.18D-05 DE=-8.09D-07 OVMax= 3.85D-04

 Cycle  12  Pass 1  IDiag  1:
 RMSU=  2.68D-07    CP:  9.64D-01  1.50D+00  6.87D-01  6.27D-01  8.81D-01
                    CP:  9.20D-01  1.13D+00  1.29D+00  1.56D+00  1.76D+00
                    CP:  1.19D+00
 E= -4069.81167526805     Delta-E=       -0.000000272677 Rises=F Damp=F
 DIIS: error= 2.50D-06 at cycle  12 NSaved=  12.
 NSaved=12 IEnMin=12 EnMin= -4069.81167526805     IErMin=12 ErrMin= 2.50D-06
 ErrMax= 2.50D-06  0.00D+00 EMaxC= 1.00D-01 BMatC= 1.59D-08 BMatP= 6.53D-08
 IDIUse=1 WtCom= 1.00D+00 WtEn= 0.00D+00
 Coeff-Com: -0.703D-05-0.304D-05 0.208D-03 0.553D-03 0.343D-02 0.384D-02
 Coeff-Com:  0.209D-02-0.369D-01-0.703D-01-0.622D-01 0.258D+00 0.901D+00
 Coeff:     -0.703D-05-0.304D-05 0.208D-03 0.553D-03 0.343D-02 0.384D-02
 Coeff:      0.209D-02-0.369D-01-0.703D-01-0.622D-01 0.258D+00 0.901D+00
 Gap=     0.122 Goal=   None    Shift=    0.000
 RMSDP=4.41D-07 MaxDP=3.16D-05 DE=-2.73D-07 OVMax= 2.53D-04

 Cycle  13  Pass 1  IDiag  1:
 RMSU=  1.68D-07    CP:  9.64D-01  1.50D+00  6.87D-01  6.27D-01  8.81D-01
                    CP:  9.21D-01  1.13D+00  1.32D+00  1.67D+00  1.99D+00
                    CP:  1.60D+00  1.25D+00
 E= -4069.81167536293     Delta-E=       -0.000000094886 Rises=F Damp=F
 DIIS: error= 1.28D-06 at cycle  13 NSaved=  13.
 NSaved=13 IEnMin=13 EnMin= -4069.81167536293     IErMin=13 ErrMin= 1.28D-06
 ErrMax= 1.28D-06  0.00D+00 EMaxC= 1.00D-01 BMatC= 8.62D-09 BMatP= 1.59D-08
 IDIUse=1 WtCom= 1.00D+00 WtEn= 0.00D+00
 Coeff-Com:  0.120D-03-0.246D-03-0.368D-03-0.451D-03 0.646D-03 0.505D-02
 Coeff-Com:  0.193D-01 0.228D-01-0.339D-01-0.240D+00-0.156D+00 0.591D+00
 Coeff-Com:  0.793D+00
 Coeff:      0.120D-03-0.246D-03-0.368D-03-0.451D-03 0.646D-03 0.505D-02
 Coeff:      0.193D-01 0.228D-01-0.339D-01-0.240D+00-0.156D+00 0.591D+00
 Coeff:      0.793D+00
 Gap=     0.122 Goal=   None    Shift=    0.000
 RMSDP=3.50D-07 MaxDP=2.38D-05 DE=-9.49D-08 OVMax= 2.08D-04

 Cycle  14  Pass 1  IDiag  1:
 RMSU=  7.76D-08    CP:  9.64D-01  1.50D+00  6.87D-01  6.27D-01  8.82D-01
                    CP:  9.21D-01  1.14D+00  1.35D+00  1.75D+00  2.18D+00
                    CP:  1.86D+00  1.77D+00  1.10D+00
 E= -4069.81167540098     Delta-E=       -0.000000038050 Rises=F Damp=F
 DIIS: error= 7.01D-07 at cycle  14 NSaved=  14.
 NSaved=14 IEnMin=14 EnMin= -4069.81167540098     IErMin=14 ErrMin= 7.01D-07
 ErrMax= 7.01D-07  0.00D+00 EMaxC= 1.00D-01 BMatC= 1.33D-09 BMatP= 8.62D-09
 IDIUse=1 WtCom= 1.00D+00 WtEn= 0.00D+00
 Coeff-Com:  0.678D-04-0.134D-03-0.251D-03-0.392D-03-0.467D-03 0.129D-02
 Coeff-Com:  0.106D-01 0.196D-01 0.398D-02-0.102D+00-0.144D+00 0.891D-01
 Coeff-Com:  0.408D+00 0.714D+00
 Coeff:      0.678D-04-0.134D-03-0.251D-03-0.392D-03-0.467D-03 0.129D-02
 Coeff:      0.106D-01 0.196D-01 0.398D-02-0.102D+00-0.144D+00 0.891D-01
 Coeff:      0.408D+00 0.714D+00
 Gap=     0.122 Goal=   None    Shift=    0.000
 RMSDP=1.06D-07 MaxDP=7.05D-06 DE=-3.80D-08 OVMax= 5.76D-05

 Cycle  15  Pass 1  IDiag  1:
 RMSU=  3.88D-08    CP:  9.64D-01  1.50D+00  6.87D-01  6.27D-01  8.81D-01
                    CP:  9.21D-01  1.14D+00  1.35D+00  1.77D+00  2.23D+00
                    CP:  1.97D+00  1.91D+00  1.34D+00  1.03D+00
 E= -4069.81167540530     Delta-E=       -0.000000004311 Rises=F Damp=F
 DIIS: error= 3.23D-07 at cycle  15 NSaved=  15.
 NSaved=15 IEnMin=15 EnMin= -4069.81167540530     IErMin=15 ErrMin= 3.23D-07
 ErrMax= 3.23D-07  0.00D+00 EMaxC= 1.00D-01 BMatC= 2.27D-10 BMatP= 1.33D-09
 IDIUse=1 WtCom= 1.00D+00 WtEn= 0.00D+00
 Coeff-Com:  0.586D-05-0.991D-05-0.345D-04-0.845D-04-0.299D-03-0.512D-03
 Coeff-Com:  0.117D-02 0.270D-02 0.877D-02 0.929D-03-0.307D-01-0.725D-01
 Coeff-Com:  0.330D-01 0.293D+00 0.764D+00
 Coeff:      0.586D-05-0.991D-05-0.345D-04-0.845D-04-0.299D-03-0.512D-03
 Coeff:      0.117D-02 0.270D-02 0.877D-02 0.929D-03-0.307D-01-0.725D-01
 Coeff:      0.330D-01 0.293D+00 0.764D+00
 Gap=     0.122 Goal=   None    Shift=    0.000
 RMSDP=3.98D-08 MaxDP=2.72D-06 DE=-4.31D-09 OVMax= 2.81D-05

 Cycle  16  Pass 1  IDiag  1:
 RMSU=  1.89D-08    CP:  9.64D-01  1.50D+00  6.87D-01  6.27D-01  8.82D-01
                    CP:  9.21D-01  1.14D+00  1.35D+00  1.77D+00  2.24D+00
                    CP:  2.00D+00  1.97D+00  1.41D+00  1.24D+00  1.14D+00
 E= -4069.81167540617     Delta-E=       -0.000000000873 Rises=F Damp=F
 DIIS: error= 1.84D-07 at cycle  16 NSaved=  16.
 NSaved=16 IEnMin=16 EnMin= -4069.81167540617     IErMin=16 ErrMin= 1.84D-07
 ErrMax= 1.84D-07  0.00D+00 EMaxC= 1.00D-01 BMatC= 8.68D-11 BMatP= 2.27D-10
 IDIUse=1 WtCom= 1.00D+00 WtEn= 0.00D+00
 Coeff-Com: -0.141D-04 0.286D-04 0.464D-04 0.524D-04-0.321D-04-0.633D-03
 Coeff-Com: -0.191D-02-0.422D-02 0.441D-02 0.253D-01 0.207D-01-0.643D-01
 Coeff-Com: -0.805D-01-0.407D-01 0.402D+00 0.739D+00
 Coeff:     -0.141D-04 0.286D-04 0.464D-04 0.524D-04-0.321D-04-0.633D-03
 Coeff:     -0.191D-02-0.422D-02 0.441D-02 0.253D-01 0.207D-01-0.643D-01
 Coeff:     -0.805D-01-0.407D-01 0.402D+00 0.739D+00
 Gap=     0.122 Goal=   None    Shift=    0.000
 RMSDP=2.34D-08 MaxDP=1.65D-06 DE=-8.73D-10 OVMax= 1.23D-05

 Cycle  17  Pass 1  IDiag  1:
 RMSU=  1.05D-08    CP:  9.64D-01  1.50D+00  6.87D-01  6.27D-01  8.82D-01
                    CP:  9.21D-01  1.14D+00  1.35D+00  1.77D+00  2.24D+00
                    CP:  2.01D+00  1.99D+00  1.46D+00  1.34D+00  1.44D+00
                    CP:  1.24D+00
 E= -4069.81167540663     Delta-E=       -0.000000000458 Rises=F Damp=F
 DIIS: error= 9.21D-08 at cycle  17 NSaved=  17.
 NSaved=17 IEnMin=17 EnMin= -4069.81167540663     IErMin=17 ErrMin= 9.21D-08
 ErrMax= 9.21D-08  0.00D+00 EMaxC= 1.00D-01 BMatC= 1.81D-11 BMatP= 8.68D-11
 IDIUse=1 WtCom= 1.00D+00 WtEn= 0.00D+00
 Coeff-Com: -0.735D-05 0.143D-04 0.289D-04 0.428D-04 0.821D-04-0.130D-03
 Coeff-Com: -0.940D-03-0.283D-02 0.103D-03 0.946D-02 0.176D-01-0.776D-02
 Coeff-Com: -0.358D-01-0.102D+00-0.241D-01 0.288D+00 0.857D+00
 Coeff:     -0.735D-05 0.143D-04 0.289D-04 0.428D-04 0.821D-04-0.130D-03
 Coeff:     -0.940D-03-0.283D-02 0.103D-03 0.946D-02 0.176D-01-0.776D-02
 Coeff:     -0.358D-01-0.102D+00-0.241D-01 0.288D+00 0.857D+00
 Gap=     0.122 Goal=   None    Shift=    0.000
 RMSDP=1.37D-08 MaxDP=1.08D-06 DE=-4.58D-10 OVMax= 9.52D-06

 Cycle  18  Pass 1  IDiag  1:
 RMSU=  5.10D-09    CP:  9.64D-01  1.50D+00  6.87D-01  6.27D-01  8.82D-01
                    CP:  9.21D-01  1.14D+00  1.35D+00  1.77D+00  2.25D+00
                    CP:  2.01D+00  2.00D+00  1.48D+00  1.40D+00  1.61D+00
                    CP:  1.64D+00  1.37D+00
 E= -4069.81167540670     Delta-E=       -0.000000000073 Rises=F Damp=F
 DIIS: error= 6.35D-08 at cycle  18 NSaved=  18.
 NSaved=18 IEnMin=18 EnMin= -4069.81167540670     IErMin=18 ErrMin= 6.35D-08
 ErrMax= 6.35D-08  0.00D+00 EMaxC= 1.00D-01 BMatC= 7.70D-12 BMatP= 1.81D-11
 IDIUse=1 WtCom= 1.00D+00 WtEn= 0.00D+00
 Coeff-Com:  0.153D-05-0.339D-05-0.264D-05 0.102D-05 0.623D-04 0.169D-03
 Coeff-Com:  0.325D-03 0.612D-04-0.124D-02-0.536D-02 0.796D-03 0.185D-01
 Coeff-Com:  0.157D-01-0.364D-01-0.157D+00-0.175D+00 0.389D+00 0.950D+00
 Coeff:      0.153D-05-0.339D-05-0.264D-05 0.102D-05 0.623D-04 0.169D-03
 Coeff:      0.325D-03 0.612D-04-0.124D-02-0.536D-02 0.796D-03 0.185D-01
 Coeff:      0.157D-01-0.364D-01-0.157D+00-0.175D+00 0.389D+00 0.950D+00
 Gap=     0.122 Goal=   None    Shift=    0.000
 RMSDP=1.15D-08 MaxDP=7.83D-07 DE=-7.28D-11 OVMax= 6.00D-06

 Cycle  19  Pass 1  IDiag  1:
 RMSU=  3.03D-09    CP:  9.64D-01  1.50D+00  6.87D-01  6.27D-01  8.81D-01
                    CP:  9.21D-01  1.14D+00  1.35D+00  1.78D+00  2.25D+00
                    CP:  2.02D+00  2.01D+00  1.49D+00  1.45D+00  1.75D+00
                    CP:  1.95D+00  1.91D+00  1.29D+00
 E= -4069.81167540672     Delta-E=       -0.000000000018 Rises=F Damp=F
 DIIS: error= 3.19D-08 at cycle  19 NSaved=  19.
 NSaved=19 IEnMin=19 EnMin= -4069.81167540672     IErMin=19 ErrMin= 3.19D-08
 ErrMax= 3.19D-08  0.00D+00 EMaxC= 1.00D-01 BMatC= 1.85D-12 BMatP= 7.70D-12
 IDIUse=1 WtCom= 1.00D+00 WtEn= 0.00D+00
 Coeff-Com:  0.300D-05-0.607D-05-0.100D-04-0.122D-04 0.157D-04 0.129D-03
 Coeff-Com:  0.485D-03 0.810D-03-0.651D-03-0.621D-02-0.480D-02 0.129D-01
 Coeff-Com:  0.211D-01 0.979D-02-0.781D-01-0.191D+00-0.965D-02 0.525D+00
 Coeff-Com:  0.721D+00
 Coeff:      0.300D-05-0.607D-05-0.100D-04-0.122D-04 0.157D-04 0.129D-03
 Coeff:      0.485D-03 0.810D-03-0.651D-03-0.621D-02-0.480D-02 0.129D-01
 Coeff:      0.211D-01 0.979D-02-0.781D-01-0.191D+00-0.965D-02 0.525D+00
 Coeff:      0.721D+00
 Gap=     0.122 Goal=   None    Shift=    0.000
 RMSDP=4.93D-09 MaxDP=3.58D-07 DE=-1.82D-11 OVMax= 3.59D-06

 SCF Done:  E(RCAM-B3LYP) =  -4069.81167541     A.U. after   19 cycles
            NFock= 19  Conv=0.49D-08     -V/T= 2.0102
 KE= 4.028802050224D+03 PE=-3.696229247548D+04 EE= 1.512299711664D+04
 Leave Link  502 at Sun Sep 12 05:58:44 2021, MaxMem= 23488102400 cpu:           11728.5 elap:             513.2
 (Enter /sw/apps/gaussian-16.0/g16/l801.exe)
 DoSCS=F DFT=T ScalE2(SS,OS)=  1.000000  1.000000
 ExpMin= 3.36D-02 ExpMax= 4.95D+03 ExpMxC= 7.45D+02 IAcc=3 IRadAn=         5 AccDes= 0.00D+00
 HarFok:  IExCor=  205 AccDes= 0.00D+00 IRadAn=         5 IDoV=-2 UseB2=F ITyADJ=14
 ICtDFT= 12500011 ScaDFX=  1.000000  1.000000  1.000000  1.000000
 GSVD:  LWork=       -9588 too small for GESVD, short by       45590 words or       45590 for optimal perf.
 Largest valence mixing into a core orbital is  2.03D-04
 Largest core mixing into a valence orbital is  5.24D-05
 Range of M.O.s used for correlation:    95  1572
 NBasis=  1572 NAE=   312 NBE=   312 NFC=    94 NFV=     0
 NROrb=   1478 NOA=   218 NOB=   218 NVA=  1260 NVB=  1260
 Leave Link  801 at Sun Sep 12 05:58:45 2021, MaxMem= 23488102400 cpu:               8.1 elap:               0.4
 (Enter /sw/apps/gaussian-16.0/g16/l914.exe)
 RHF ground state
 Two-electron integrals replicated using symmetry.
 MDV= 23488102400 DFT=T DoStab=F Mixed=T DoRPA=T DoScal=F NonHer=T
 Making orbital integer symmetry assigments:
 Orbital symmetries:
       Occupied  (A) (A) (A) (A) (A) (A) (A) (A) (A) (A) (A) (A)
                 (A) (A) (A) (A) (A) (A) (A) (A) (A) (A) (A) (A)
                 (A) (A) (A) (A) (A) (A) (A) (A) (A) (A) (A) (A)
                 (A) (A) (A) (A) (A) (A) (A) (A) (A) (A) (A) (A)
                 (A) (A) (A) (A) (A) (A) (A) (A) (A) (A) (A) (A)
                 (A) (A) (A) (A) (A) (A) (A) (A) (A) (A) (A) (A)
                 (A) (A) (A) (A) (A) (A) (A) (A) (A) (A) (A) (A)
                 (A) (A) (A) (A) (A) (A) (A) (A) (A) (A) (A) (A)
                 (A) (A) (A) (A) (A) (A) (A) (A) (A) (A) (A) (A)
                 (A) (A) (A) (A) (A) (A) (A) (A) (A) (A) (A) (A)
                 (A) (A) (A) (A) (A) (A) (A) (A) (A) (A) (A) (A)
                 (A) (A) (A) (A) (A) (A) (A) (A) (A) (A) (A) (A)
                 (A) (A) (A) (A) (A) (A) (A) (A) (A) (A) (A) (A)
                 (A) (A) (A) (A) (A) (A) (A) (A) (A) (A) (A) (A)
                 (A) (A) (A) (A) (A) (A) (A) (A) (A) (A) (A) (A)
                 (A) (A) (A) (A) (A) (A) (A) (A) (A) (A) (A) (A)
                 (A) (A) (A) (A) (A) (A) (A) (A) (A) (A) (A) (A)
                 (A) (A) (A) (A) (A) (A) (A) (A) (A) (A) (A) (A)
                 (A) (A) (A) (A) (A) (A) (A) (A) (A) (A) (A) (A)
                 (A) (A) (A) (A) (A) (A) (A) (A) (A) (A) (A) (A)
                 (A) (A) (A) (A) (A) (A) (A) (A) (A) (A) (A) (A)
                 (A) (A) (A) (A) (A) (A) (A) (A) (A) (A) (A) (A)
                 (A) (A) (A) (A) (A) (A) (A) (A) (A) (A) (A) (A)
                 (A) (A) (A) (A) (A) (A) (A) (A) (A) (A) (A) (A)
                 (A) (A) (A) (A) (A) (A) (A) (A) (A) (A) (A) (A)
                 (A) (A) (A) (A) (A) (A) (A) (A) (A) (A) (A) (A)
       Virtual   (A) (A) (A) (A) (A) (A) (A) (A) (A) (A) (A) (A)
                 (A) (A) (A) (A) (A) (A) (A) (A) (A) (A) (A) (A)
                 (A) (A) (A) (A) (A) (A) (A) (A) (A) (A) (A) (A)
                 (A) (A) (A) (A) (A) (A) (A) (A) (A) (A) (A) (A)
                 (A) (A) (A) (A) (A) (A) (A) (A) (A) (A) (A) (A)
                 (A) (A) (A) (A) (A) (A) (A) (A) (A) (A) (A) (A)
                 (A) (A) (A) (A) (A) (A) (A) (A) (A) (A) (A) (A)
                 (A) (A) (A) (A) (A) (A) (A) (A) (A) (A) (A) (A)
                 (A) (A) (A) (A) (A) (A) (A) (A) (A) (A) (A) (A)
                 (A) (A) (A) (A) (A) (A) (A) (A) (A) (A) (A) (A)
                 (A) (A) (A) (A) (A) (A) (A) (A) (A) (A) (A) (A)
                 (A) (A) (A) (A) (A) (A) (A) (A) (A) (A) (A) (A)
                 (A) (A) (A) (A) (A) (A) (A) (A) (A) (A) (A) (A)
                 (A) (A) (A) (A) (A) (A) (A) (A) (A) (A) (A) (A)
                 (A) (A) (A) (A) (A) (A) (A) (A) (A) (A) (A) (A)
                 (A) (A) (A) (A) (A) (A) (A) (A) (A) (A) (A) (A)
                 (A) (A) (A) (A) (A) (A) (A) (A) (A) (A) (A) (A)
                 (A) (A) (A) (A) (A) (A) (A) (A) (A) (A) (A) (A)
                 (A) (A) (A) (A) (A) (A) (A) (A) (A) (A) (A) (A)
                 (A) (A) (A) (A) (A) (A) (A) (A) (A) (A) (A) (A)
                 (A) (A) (A) (A) (A) (A) (A) (A) (A) (A) (A) (A)
                 (A) (A) (A) (A) (A) (A) (A) (A) (A) (A) (A) (A)
                 (A) (A) (A) (A) (A) (A) (A) (A) (A) (A) (A) (A)
                 (A) (A) (A) (A) (A) (A) (A) (A) (A) (A) (A) (A)
                 (A) (A) (A) (A) (A) (A) (A) (A) (A) (A) (A) (A)
                 (A) (A) (A) (A) (A) (A) (A) (A) (A) (A) (A) (A)
                 (A) (A) (A) (A) (A) (A) (A) (A) (A) (A) (A) (A)
                 (A) (A) (A) (A) (A) (A) (A) (A) (A) (A) (A) (A)
                 (A) (A) (A) (A) (A) (A) (A) (A) (A) (A) (A) (A)
                 (A) (A) (A) (A) (A) (A) (A) (A) (A) (A) (A) (A)
                 (A) (A) (A) (A) (A) (A) (A) (A) (A) (A) (A) (A)
                 (A) (A) (A) (A) (A) (A) (A) (A) (A) (A) (A) (A)
                 (A) (A) (A) (A) (A) (A) (A) (A) (A) (A) (A) (A)
                 (A) (A) (A) (A) (A) (A) (A) (A) (A) (A) (A) (A)
                 (A) (A) (A) (A) (A) (A) (A) (A) (A) (A) (A) (A)
                 (A) (A) (A) (A) (A) (A) (A) (A) (A) (A) (A) (A)
                 (A) (A) (A) (A) (A) (A) (A) (A) (A) (A) (A) (A)
                 (A) (A) (A) (A) (A) (A) (A) (A) (A) (A) (A) (A)
                 (A) (A) (A) (A) (A) (A) (A) (A) (A) (A) (A) (A)
                 (A) (A) (A) (A) (A) (A) (A) (A) (A) (A) (A) (A)
                 (A) (A) (A) (A) (A) (A) (A) (A) (A) (A) (A) (A)
                 (A) (A) (A) (A) (A) (A) (A) (A) (A) (A) (A) (A)
                 (A) (A) (A) (A) (A) (A) (A) (A) (A) (A) (A) (A)
                 (A) (A) (A) (A) (A) (A) (A) (A) (A) (A) (A) (A)
                 (A) (A) (A) (A) (A) (A) (A) (A) (A) (A) (A) (A)
                 (A) (A) (A) (A) (A) (A) (A) (A) (A) (A) (A) (A)
                 (A) (A) (A) (A) (A) (A) (A) (A) (A) (A) (A) (A)
                 (A) (A) (A) (A) (A) (A) (A) (A) (A) (A) (A) (A)
                 (A) (A) (A) (A) (A) (A) (A) (A) (A) (A) (A) (A)
                 (A) (A) (A) (A) (A) (A) (A) (A) (A) (A) (A) (A)
                 (A) (A) (A) (A) (A) (A) (A) (A) (A) (A) (A) (A)
                 (A) (A) (A) (A) (A) (A) (A) (A) (A) (A) (A) (A)
                 (A) (A) (A) (A) (A) (A) (A) (A) (A) (A) (A) (A)
                 (A) (A) (A) (A) (A) (A) (A) (A) (A) (A) (A) (A)
                 (A) (A) (A) (A) (A) (A) (A) (A) (A) (A) (A) (A)
                 (A) (A) (A) (A) (A) (A) (A) (A) (A) (A) (A) (A)
                 (A) (A) (A) (A) (A) (A) (A) (A) (A) (A) (A) (A)
                 (A) (A) (A) (A) (A) (A) (A) (A) (A) (A) (A) (A)
                 (A) (A) (A) (A) (A) (A) (A) (A) (A) (A) (A) (A)
                 (A) (A) (A) (A) (A) (A) (A) (A) (A) (A) (A) (A)
                 (A) (A) (A) (A) (A) (A) (A) (A) (A) (A) (A) (A)
                 (A) (A) (A) (A) (A) (A) (A) (A) (A) (A) (A) (A)
                 (A) (A) (A) (A) (A) (A) (A) (A) (A) (A) (A) (A)
                 (A) (A) (A) (A) (A) (A) (A) (A) (A) (A) (A) (A)
                 (A) (A) (A) (A) (A) (A) (A) (A) (A) (A) (A) (A)
                 (A) (A) (A) (A) (A) (A) (A) (A) (A) (A) (A) (A)
                 (A) (A) (A) (A) (A) (A) (A) (A) (A) (A) (A) (A)
                 (A) (A) (A) (A) (A) (A) (A) (A) (A) (A) (A) (A)
                 (A) (A) (A) (A) (A) (A) (A) (A) (A) (A) (A) (A)
                 (A) (A) (A) (A) (A) (A) (A) (A) (A) (A) (A) (A)
                 (A) (A) (A) (A) (A) (A) (A) (A) (A) (A) (A) (A)
                 (A) (A) (A) (A) (A) (A) (A) (A) (A) (A) (A) (A)
                 (A) (A) (A) (A) (A) (A) (A) (A) (A) (A) (A) (A)
                 (A) (A) (A) (A) (A) (A) (A) (A) (A) (A) (A) (A)
                 (A) (A) (A) (A) (A) (A) (A) (A) (A) (A) (A) (A)
                 (A) (A) (A) (A) (A) (A) (A) (A) (A) (A) (A) (A)
                 (A) (A) (A) (A) (A) (A) (A) (A) (A) (A) (A) (A)
                 (A) (A) (A) (A) (A) (A) (A) (A) (A) (A) (A) (A)
                 (A) (A) (A) (A) (A) (A) (A) (A) (A) (A) (A) (A)
                 (A) (A) (A) (A) (A) (A) (A) (A) (A) (A) (A) (A)
                 (A) (A) (A) (A) (A) (A) (A) (A) (A) (A) (A) (A)
                 (A) (A) (A) (A) (A) (A) (A) (A) (A) (A) (A) (A)
                 (A) (A) (A) (A) (A) (A) (A) (A) (A) (A) (A) (A)
                 (A) (A) (A) (A) (A) (A) (A) (A) (A) (A) (A) (A)
                 (A) (A) (A) (A) (A) (A) (A) (A) (A) (A) (A) (A)
                 (A) (A) (A) (A) (A) (A) (A) (A) (A) (A) (A) (A)
                 (A) (A) (A) (A) (A) (A) (A) (A) (A) (A) (A) (A)
                 (A) (A) (A) (A) (A) (A) (A) (A) (A) (A) (A) (A)
                 (A) (A) (A) (A) (A) (A) (A) (A) (A) (A) (A) (A)
                 (A) (A) (A) (A) (A) (A) (A) (A) (A) (A) (A) (A)
                 (A) (A) (A) (A) (A) (A) (A) (A) (A) (A) (A) (A)
                 (A) (A) (A) (A) (A) (A) (A) (A) (A) (A) (A) (A)
                 (A) (A) (A) (A) (A) (A) (A) (A) (A) (A) (A) (A)
                 (A) (A) (A) (A) (A) (A) (A) (A) (A) (A) (A) (A)
                 (A) (A) (A) (A) (A) (A) (A) (A) (A) (A) (A) (A)
                 (A) (A) (A) (A) (A) (A) (A) (A) (A) (A) (A) (A)
                 (A) (A) (A) (A) (A) (A) (A) (A) (A) (A) (A) (A)
                 (A) (A) (A) (A) (A) (A) (A) (A) (A) (A) (A) (A)
                 (A) (A) (A) (A) (A) (A) (A) (A) (A) (A) (A) (A)
                 (A) (A) (A) (A) (A) (A) (A) (A) (A) (A) (A) (A)
                 (A) (A) (A) (A) (A) (A) (A) (A) (A) (A) (A) (A)
                 (A) (A) (A) (A) (A) (A) (A) (A) (A) (A) (A) (A)
                 (A) (A) (A) (A) (A) (A) (A) (A) (A) (A) (A) (A)
                 (A) (A) (A) (A) (A) (A) (A) (A) (A) (A) (A) (A)
                 (A) (A) (A) (A) (A) (A) (A) (A) (A) (A) (A) (A)
    20 initial guesses have been made.
 Convergence on wavefunction:    0.001000000000000
 Davidson Disk Diagonalization:  ConvIn= 1.00D-03 SkipCon=T Conv= 1.00D-03.
 Max sub-space:  2000 roots to seek:    20 dimension of matrix:       549360
 Iteration     1 Dimension    20 NMult     0 NNew     20
 CISAX will form    20 AO SS matrices at one time.
 NMat=    20 NSing=    20 JSym2X= 0.
 FoFJK:  IHMeth= 1 ICntrl=       0 DoSepK=T KAlg= 0 I1Cent=           0 FoldK=F
 IRaf=         1 NMat=      40 IRICut=       1 DoRegI=T DoRafI=F ISym2E= 0 IDoP0=3 IntGTp=3.
 FoFCou: FMM=T IPFlag=           0 FMFlag=      100000 FMFlg1=        2001
         NFxFlg=           0 DoJE=F BraDBF=F KetDBF=F FulRan=T
         wScrn=  0.000000 ICntrl=       500 IOpCl=  0 I1Cent=           0 NGrid=           0
         NMat0=   20 NMatS0=     20 NMatT0=    0 NMatD0=   20 NMtDS0=    0 NMtDT0=    0
 Symmetry not used in FoFCou.
 FMM levels:  10  Number of levels for PrismC:   9
 New state      1 was old state      7
 New state      2 was old state      6
 New state      3 was old state      2
 New state      4 was old state      3
 New state      5 was old state      1
 Excitation Energies [eV] at current iteration:
 Root      1 :     2.613426346628008
 Root      2 :     2.619747075155764
 Root      3 :     2.668065084250914
 Root      4 :     2.702754773263516
 Root      5 :     2.765031349348614
 Root      6 :     2.824903131787844
 Root      7 :     3.556029966897016
 Root      8 :     3.626466860379448
 Root      9 :     3.626511195653344
 Root     10 :     3.668107459878102
 Root     11 :     3.737642830370900
 Root     12 :     3.759882367464780
 Root     13 :     4.291780586965721
 Root     14 :     4.317237148977926
 Root     15 :     4.673483100549673
 Root     16 :     4.758405053982208
 Root     17 :     4.975942398909713
 Root     18 :     5.011460944675418
 Root     19 :     5.050644245948624
 Root     20 :     5.084637381884563
 Iteration     2 Dimension    30 NMult    20 NNew     10
 CISAX will form    10 AO SS matrices at one time.
 NMat=    10 NSing=    10 JSym2X= 0.
 New state      1 was old state      3
 Root      1 not converged, maximum delta is    0.153839772548995
 New state      2 was old state      4
 Root      2 not converged, maximum delta is    0.157878831665794
 New state      3 was old state      2
 Root      3 not converged, maximum delta is    0.407364139139843
 New state      4 was old state      1
 Root      4 not converged, maximum delta is    0.399380742824627
 Root      5 has converged.
 Excitation Energies [eV] at current iteration:
 Root      1 :     1.795447044512523   Change is   -0.872618039738391
 Root      2 :     1.812883355314062   Change is   -0.889871417949454
 Root      3 :     2.234828884639710   Change is   -0.384918190516054
 Root      4 :     2.239779146003011   Change is   -0.373647200624997
 Root      5 :     2.764950220877632   Change is   -0.000081128470982
 Iteration     3 Dimension    38 NMult    30 NNew      8
 CISAX will form     8 AO SS matrices at one time.
 NMat=     8 NSing=     8 JSym2X= 0.
 Root      1 not converged, maximum delta is    0.055755331619574
 Root      2 not converged, maximum delta is    0.056692467624649
 Root      3 not converged, maximum delta is    0.096401647168241
 Root      4 not converged, maximum delta is    0.095966441026329
 Root      5 has converged.
 Excitation Energies [eV] at current iteration:
 Root      1 :     1.688565158214057   Change is   -0.106881886298466
 Root      2 :     1.704195191760463   Change is   -0.108688163553599
 Root      3 :     2.193626606741919   Change is   -0.041202277897792
 Root      4 :     2.200576425276112   Change is   -0.039202720726898
 Root      5 :     2.764950220877632   Change is    0.000000000000000
 Iteration     4 Dimension    46 NMult    38 NNew      8
 CISAX will form     8 AO SS matrices at one time.
 NMat=     8 NSing=     8 JSym2X= 0.
 Root      1 not converged, maximum delta is    0.010771308205837
 Root      2 not converged, maximum delta is    0.010744281729198
 Root      3 not converged, maximum delta is    0.012526273740527
 Root      4 not converged, maximum delta is    0.012408350649330
 Root      5 has converged.
 Excitation Energies [eV] at current iteration:
 Root      1 :     1.671833091552796   Change is   -0.016732066661260
 Root      2 :     1.687337973501309   Change is   -0.016857218259154
 Root      3 :     2.186343845691701   Change is   -0.007282761050217
 Root      4 :     2.193764077930605   Change is   -0.006812347345507
 Root      5 :     2.764950220877602   Change is   -0.000000000000030
 Iteration     5 Dimension    54 NMult    46 NNew      8
 CISAX will form     8 AO SS matrices at one time.
 NMat=     8 NSing=     8 JSym2X= 0.
 Root      1 not converged, maximum delta is    0.001760936376351
 Root      2 not converged, maximum delta is    0.001786428761798
 Root      3 not converged, maximum delta is    0.002447876059884
 Root      4 not converged, maximum delta is    0.002322717542043
 Root      5 has converged.
 Excitation Energies [eV] at current iteration:
 Root      1 :     1.670072945085123   Change is   -0.001760146467673
 Root      2 :     1.685548335246160   Change is   -0.001789638255148
 Root      3 :     2.185499600694679   Change is   -0.000844244997023
 Root      4 :     2.192985579694060   Change is   -0.000778498236546
 Root      5 :     2.764950220877542   Change is   -0.000000000000059
 Iteration     6 Dimension    62 NMult    54 NNew      8
 CISAX will form     8 AO SS matrices at one time.
 NMat=     8 NSing=     8 JSym2X= 0.
 Root      1 not converged, maximum delta is    0.001095118825545
 Root      2 not converged, maximum delta is    0.001111413909705
 Root      3 not converged, maximum delta is    0.001044267817190
 Root      4 has converged.
 Root      5 has converged.
 Excitation Energies [eV] at current iteration:
 Root      1 :     1.669822297598740   Change is   -0.000250647486383
 Root      2 :     1.685291249778269   Change is   -0.000257085467891
 Root      3 :     2.185371496426837   Change is   -0.000128104267842
 Root      4 :     2.192867064880089   Change is   -0.000118514813971
 Root      5 :     2.764950220877542   Change is    0.000000000000000
 Iteration     7 Dimension    68 NMult    62 NNew      6
 CISAX will form     6 AO SS matrices at one time.
 NMat=     6 NSing=     6 JSym2X= 0.
 Root      1 has converged.
 Root      2 has converged.
 Root      3 has converged.
 Root      4 has converged.
 Root      5 has converged.
 Excitation Energies [eV] at current iteration:
 Root      1 :     1.669797897383969   Change is   -0.000024400214771
 Root      2 :     1.685266751933977   Change is   -0.000024497844292
[...]
 Alpha virt. eigenvalues --    1.84451   1.84546   1.84808   1.84810   1.85103
 Alpha virt. eigenvalues --    1.85142   1.85273   1.85356   1.85477   1.85508
 Alpha virt. eigenvalues --    1.85867   1.85923   1.86359   1.86401   1.86554
 Alpha virt. eigenvalues --    1.86671   1.86784   1.86842   1.87043   1.87064
 Alpha virt. eigenvalues --    1.87443   1.87505   1.87681   1.87793   1.87867
 Alpha virt. eigenvalues --    1.88035   1.88038   1.88198   1.88532   1.88593
 Alpha virt. eigenvalues --    1.88818   1.88964   1.89096   1.89128   1.89623
 Alpha virt. eigenvalues --    1.89677   1.89743   1.89894   1.90117   1.90211
 Alpha virt. eigenvalues --    1.90753   1.90919   1.91348   1.91442   1.91447
 Alpha virt. eigenvalues --    1.91617   1.92154   1.92207   1.92616   1.92679
 Alpha virt. eigenvalues --    1.92983   1.93173   1.93339   1.93523   1.94283
 Alpha virt. eigenvalues --    1.94327   1.94688   1.94835   1.95479   1.95612
 Alpha virt. eigenvalues --    1.95725   1.95836   1.95992   1.96068   1.96153
 Alpha virt. eigenvalues --    1.96197   1.96504   1.96596   1.96895   1.96954
 Alpha virt. eigenvalues --    1.97451   1.97562   1.97825   1.97837   1.98167
 Alpha virt. eigenvalues --    1.98191   1.98373   1.98676   1.99093   1.99134
 Alpha virt. eigenvalues --    1.99816   1.99951   2.00660   2.00747   2.00995
 Alpha virt. eigenvalues --    2.01118   2.01473   2.01525   2.01626   2.01674
 Alpha virt. eigenvalues --    2.01718   2.01844   2.02730   2.02783   2.03160
 Alpha virt. eigenvalues --    2.03235   2.03399   2.03403   2.03482   2.03543
 Alpha virt. eigenvalues --    2.04034   2.04046   2.04956   2.04994   2.05512
 Alpha virt. eigenvalues --    2.05646   2.06078   2.06303   2.06903   2.07058
 Alpha virt. eigenvalues --    2.07187   2.07373   2.08562   2.08584   2.08978
 Alpha virt. eigenvalues --    2.09024   2.09584   2.09630   2.10781   2.11051
 Alpha virt. eigenvalues --    2.11183   2.11427   2.11529   2.11549   2.11723
 Alpha virt. eigenvalues --    2.11883   2.12460   2.12483   2.12802   2.12818
 Alpha virt. eigenvalues --    2.12834   2.12892   2.13650   2.13755   2.14141
 Alpha virt. eigenvalues --    2.14273   2.15333   2.15422   2.15925   2.16106
 Alpha virt. eigenvalues --    2.16522   2.16610   2.16757   2.17199   2.17415
 Alpha virt. eigenvalues --    2.17666   2.17704   2.17957   2.18022   2.18073
 Alpha virt. eigenvalues --    2.18322   2.18693   2.18863   2.19257   2.19637
 Alpha virt. eigenvalues --    2.19837   2.20031   2.20214   2.20264   2.20453
 Alpha virt. eigenvalues --    2.21152   2.21187   2.21668   2.21746   2.21784
 Alpha virt. eigenvalues --    2.21894   2.22677   2.22719   2.23315   2.23362
 Alpha virt. eigenvalues --    2.24393   2.24434   2.24960   2.25016   2.26295
 Alpha virt. eigenvalues --    2.26460   2.26778   2.27025   2.27100   2.27223
 Alpha virt. eigenvalues --    2.28132   2.28333   2.29265   2.29454   2.29730
 Alpha virt. eigenvalues --    2.29899   2.30447   2.30640   2.30841   2.31080
 Alpha virt. eigenvalues --    2.31181   2.31218   2.32119   2.32254   2.33129
 Alpha virt. eigenvalues --    2.33250   2.33458   2.33500   2.34137   2.34156
 Alpha virt. eigenvalues --    2.35319   2.35369   2.35789   2.35925   2.36347
 Alpha virt. eigenvalues --    2.36353   2.36461   2.36619   2.37660   2.37693
 Alpha virt. eigenvalues --    2.38253   2.38389   2.38793   2.38845   2.39605
 Alpha virt. eigenvalues --    2.39683   2.40179   2.40279   2.40477   2.40841
 Alpha virt. eigenvalues --    2.41223   2.41257   2.41683   2.41704   2.42036
 Alpha virt. eigenvalues --    2.42146   2.42830   2.42941   2.43082   2.43534
 Alpha virt. eigenvalues --    2.43984   2.44164   2.44725   2.44816   2.44898
 Alpha virt. eigenvalues --    2.45005   2.45546   2.45584   2.46293   2.46296
 Alpha virt. eigenvalues --    2.46475   2.46509   2.46794   2.46814   2.47254
 Alpha virt. eigenvalues --    2.47392   2.47710   2.47896   2.49306   2.49397
 Alpha virt. eigenvalues --    2.49898   2.50065   2.50457   2.50544   2.51112
 Alpha virt. eigenvalues --    2.51280   2.51615   2.51876   2.52400   2.52427
 Alpha virt. eigenvalues --    2.52801   2.53172   2.53914   2.53974   2.54144
 Alpha virt. eigenvalues --    2.54283   2.54787   2.54818   2.55515   2.55675
 Alpha virt. eigenvalues --    2.57857   2.58082   2.58639   2.58909   2.60200
 Alpha virt. eigenvalues --    2.60310   2.60600   2.60926   2.61704   2.61824
 Alpha virt. eigenvalues --    2.62432   2.62522   2.62951   2.63132   2.63926
 Alpha virt. eigenvalues --    2.64223   2.64243   2.64427   2.65073   2.65102
 Alpha virt. eigenvalues --    2.65773   2.65860   2.66773   2.66819   2.66901
 Alpha virt. eigenvalues --    2.67059   2.67903   2.67983   2.68816   2.68849
 Alpha virt. eigenvalues --    2.69016   2.69034   2.69385   2.69593   2.69991
 Alpha virt. eigenvalues --    2.70138   2.70974   2.71068   2.71892   2.72049
 Alpha virt. eigenvalues --    2.72494   2.72649   2.72737   2.72825   2.73272
 Alpha virt. eigenvalues --    2.73282   2.73470   2.73530   2.74507   2.74508
 Alpha virt. eigenvalues --    2.74969   2.75054   2.76519   2.76587   2.77069
 Alpha virt. eigenvalues --    2.77228   2.77447   2.77597   2.78182   2.78283
 Alpha virt. eigenvalues --    2.78686   2.78724   2.79127   2.79151   2.80249
 Alpha virt. eigenvalues --    2.80337   2.80581   2.80685   2.81115   2.81150
 Alpha virt. eigenvalues --    2.81926   2.81988   2.82332   2.82337   2.83746
 Alpha virt. eigenvalues --    2.83760   2.83834   2.83906   2.84522   2.84542
 Alpha virt. eigenvalues --    2.84879   2.84880   2.85659   2.85679   2.86651
 Alpha virt. eigenvalues --    2.86992   2.87169   2.87603   2.88145   2.88222
 Alpha virt. eigenvalues --    2.88505   2.88614   2.88865   2.88929   2.90486
 Alpha virt. eigenvalues --    2.90649   2.91061   2.91185   2.93144   2.93314
 Alpha virt. eigenvalues --    2.93761   2.94192   2.94551   2.94558   2.95350
 Alpha virt. eigenvalues --    2.95461   2.95834   2.96198   2.96360   2.96435
 Alpha virt. eigenvalues --    2.96865   2.97171   2.97804   2.98012   2.98196
 Alpha virt. eigenvalues --    2.98348   2.98365   2.98565   2.98601   2.98782
 Alpha virt. eigenvalues --    2.98878   2.98915   2.99577   2.99779   3.00010
 Alpha virt. eigenvalues --    3.00023   3.00211   3.00317   3.00453   3.00983
 Alpha virt. eigenvalues --    3.01890   3.01985   3.02023   3.02103   3.02728
 Alpha virt. eigenvalues --    3.02807   3.02968   3.03299   3.03317   3.03703
 Alpha virt. eigenvalues --    3.04043   3.04166   3.04416   3.04452   3.04542
 Alpha virt. eigenvalues --    3.04727   3.05292   3.05335   3.06104   3.06153
 Alpha virt. eigenvalues --    3.06789   3.06925   3.07901   3.08136   3.09340
 Alpha virt. eigenvalues --    3.09387   3.09678   3.10414   3.10430   3.10727
 Alpha virt. eigenvalues --    3.11329   3.11466   3.11882   3.11931   3.12175
 Alpha virt. eigenvalues --    3.12291   3.13270   3.13636   3.13636   3.13673
 Alpha virt. eigenvalues --    3.14090   3.14469   3.15919   3.15968   3.17262
 Alpha virt. eigenvalues --    3.17513   3.17858   3.18072   3.19017   3.19122
 Alpha virt. eigenvalues --    3.22305   3.22590   3.23944   3.24432   3.24677
 Alpha virt. eigenvalues --    3.25189   3.26502   3.26648   3.27386   3.27617
 Alpha virt. eigenvalues --    3.29101   3.29216   3.31369   3.31522   3.33174
 Alpha virt. eigenvalues --    3.33414   3.40254   3.40632   3.42799   3.42811
 Alpha virt. eigenvalues --    3.48661   3.48692   3.50017   3.50271   3.50825
 Alpha virt. eigenvalues --    3.51470   3.56548   3.56994   3.59097   3.59329
 Alpha virt. eigenvalues --    3.62507   3.62837   3.66092   3.66181   3.67187
 Alpha virt. eigenvalues --    3.67536   3.73275   3.74017   3.76061   3.76677
          Condensed to atoms (all electrons):
 Mulliken charges:
               1
     1  Mg   0.838625
     2  C   -0.003022
     3  C   -0.094306
     4  C   -0.045838
     5  C   -0.063909
     6  N   -0.256762
     7  C   -0.052500
     8  C   -0.013986
     9  C   -0.086971
    10  C    0.046247
    11  C    0.104808
    12  C    0.053545
    13  C   -0.071663
    14  H    0.035822
    15  N   -0.433134
    16  C    0.168337
    17  C   -0.177301
    18  C   -0.004043
    19  C    0.148657
    20  C    0.110212
    21  C    0.012234
    22  O   -0.249523
    23  C    0.062529
    24  N   -0.341157
    25  C    0.041221
    26  C   -0.028184
    27  C   -0.024015
    28  C    0.074880
    29  C    0.076136
    30  C    0.035102
    31  C   -0.004505
    32  N   -0.310508
    33  C    0.080451
    34  C   -0.169563
    35  C    0.008459
    36  C    0.082986
    37  C    0.127272
    38  C    0.046242
    39  O   -0.188106
    40  C   -0.005360
    41  C    0.212939
    42  O   -0.257137
    43  O   -0.304788
    44  C    0.157631
    45  H   -0.017672
    46  H   -0.016784
    47  H   -0.041348
    48  H    0.001043
    49  H   -0.004228
    50  H    0.025561
    51  H    0.016510
    52  H    0.016633
    53  H    0.010898
    54  H    0.044098
    55  H    0.018065
    56  H    0.017722
    57  H    0.005768
    58  H    0.026874
    59  H    0.039183
    60  H    0.037357
    61  H    0.035709
    62  H    0.031193
    63  H    0.016574
    64  H    0.009561
    65  H    0.023274
    66  H    0.012553
    67  H    0.004826
    68  H    0.006437
    69  H    0.004826
    70  H    0.008786
    71  H    0.018133
    72  H    0.028912
    73  H    0.047824
    74  H    0.009181
    75  H    0.046107
    76  H    0.035220
    77  H    0.043178
    78  H    0.046184
    79  H    0.053789
    80  Mg   0.837990
    81  C   -0.016775
    82  C   -0.087823
    83  C   -0.045520
    84  C   -0.064739
    85  N   -0.254555
    86  C   -0.049623
    87  C   -0.015127
    88  C   -0.090570
    89  C    0.045830
    90  C    0.114380
    91  C    0.062565
    92  C   -0.077755
    93  H    0.034684
    94  N   -0.423472
    95  C    0.162883
    96  C   -0.174786
    97  C   -0.007916
    98  C    0.152082
    99  C    0.099463
   100  C    0.015466
   101  O   -0.253278
   102  C    0.061253
   103  N   -0.350045
   104  C    0.037548
   105  C   -0.019837
   106  C   -0.034851
   107  C    0.089017
   108  C    0.073635
   109  C    0.034731
   110  C   -0.007642
   111  N   -0.324182
   112  C    0.078573
   113  C   -0.162926
   114  C    0.002481
   115  C    0.096196
   116  C    0.131421
   117  C    0.042653
   118  O   -0.187546
   119  C    0.000830
   120  C    0.211197
   121  O   -0.251201
   122  O   -0.305457
   123  C    0.152094
   124  H   -0.019958
   125  H   -0.015678
   126  H   -0.040389
   127  H   -0.000388
   128  H   -0.004684
   129  H    0.023207
   130  H    0.014558
   131  H    0.015890
   132  H    0.013771
   133  H    0.037657
   134  H    0.020853
   135  H    0.019347
   136  H    0.008532
   137  H    0.025840
   138  H    0.039546
   139  H    0.038082
   140  H    0.036224
   141  H    0.033788
   142  H    0.014242
   143  H    0.012577
   144  H    0.024972
   145  H    0.011825
   146  H    0.005764
   147  H    0.006157
   148  H    0.003669
   149  H    0.010846
   150  H    0.017824
   151  H    0.030125
   152  H    0.045957
   153  H    0.008384
   154  H    0.047661
   155  H    0.035692
   156  H    0.044003
   157  H    0.049316
   158  H    0.053445
 Sum of Mulliken charges =  -0.00000
 Mulliken charges with hydrogens summed into heavy atoms:
               1
     1  Mg   0.838625
     2  C   -0.003022
     3  C   -0.111977
     4  C   -0.062621
     5  C   -0.105257
     6  N   -0.256762
     7  C   -0.052500
     8  C   -0.012943
     9  C   -0.091199
    10  C    0.046247
    11  C    0.163512
    12  C    0.108540
    13  C   -0.000055
    15  N   -0.433134
    16  C    0.168337
    17  C   -0.177301
    18  C   -0.004043
    19  C    0.148657
    20  C    0.182036
    21  C    0.012234
    22  O   -0.249523
    23  C    0.166787
    24  N   -0.341157
    25  C    0.041221
    26  C   -0.011611
    27  C   -0.014454
    28  C    0.074880
    29  C    0.116789
    30  C    0.046366
    31  C    0.051326
    32  N   -0.310508
    33  C    0.080451
    34  C   -0.169563
    35  C    0.008459
    36  C    0.082986
    37  C    0.230385
    38  C    0.046242
    39  O   -0.188106
    40  C    0.029860
    41  C    0.212939
    42  O   -0.257137
    43  O   -0.304788
    44  C    0.300782
    80  Mg   0.837990
    81  C   -0.016775
    82  C   -0.107781
    83  C   -0.061199
    84  C   -0.105128
    85  N   -0.254555
    86  C   -0.049623
    87  C   -0.015515
    88  C   -0.095254
    89  C    0.045830
    90  C    0.168035
    91  C    0.113993
    92  C   -0.002872
    94  N   -0.423472
    95  C    0.162883
    96  C   -0.174786
    97  C   -0.007916
    98  C    0.152082
    99  C    0.173381
   100  C    0.015466
   101  O   -0.253278
   102  C    0.169346
   103  N   -0.350045
   104  C    0.037548
   105  C   -0.005595
   106  C   -0.022274
   107  C    0.089017
   108  C    0.116197
   109  C    0.044558
   110  C    0.051153
   111  N   -0.324182
   112  C    0.078573
   113  C   -0.162926
   114  C    0.002481
   115  C    0.096196
   116  C    0.233422
   117  C    0.042653
   118  O   -0.187546
   119  C    0.036523
   120  C    0.211197
   121  O   -0.251201
   122  O   -0.305457
   123  C    0.298858
 Electronic spatial extent (au):  <R**2>=         192683.1341
 Charge=             -0.0000 electrons
 Dipole moment (field-independent basis, Debye):
    X=             -4.0927    Y=             -2.3383    Z=             -7.6194  Tot=              8.9595
 Quadrupole moment (field-independent basis, Debye-Ang):
   XX=           -517.5056   YY=           -551.7400   ZZ=           -447.3070
   XY=             -4.8950   XZ=              0.5608   YZ=            -48.6056
 Traceless Quadrupole moment (field-independent basis, Debye-Ang):
   XX=            -11.9881   YY=            -46.2225   ZZ=             58.2105
   XY=             -4.8950   XZ=              0.5608   YZ=            -48.6056
 Octapole moment (field-independent basis, Debye-Ang**2):
  XXX=           -779.9095  YYY=            419.2073  ZZZ=            -80.8848  XYY=             12.9742
  XXY=           -139.7885  XXZ=           -495.9001  XZZ=            -10.5800  YZZ=           -224.3467
  YYZ=           -212.2277  XYZ=            -10.5378
 Hexadecapole moment (field-independent basis, Debye-Ang**3):
 XXXX=        -199412.0540 YYYY=         -42864.5712 ZZZZ=         -23792.5256 XXXY=          -1151.6399
 XXXZ=            -50.4723 YYYX=            905.3490 YYYZ=          -1647.2737 ZZZX=            117.5475
 ZZZY=            249.6610 XXYY=         -42348.0536 XXZZ=         -32893.3621 YYZZ=         -10890.1951
 XXYZ=          -3036.9504 YYXZ=           -162.4917 ZZXY=            -56.1548
 N-N= 1.374068163321D+04 E-N=-3.696229246781D+04  KE= 4.028802050224D+03
 Leave Link  601 at Sun Sep 12 06:18:27 2021, MaxMem= 23488102400 cpu:              16.3 elap:               0.8
 (Enter /sw/apps/gaussian-16.0/g16/l9999.exe)
 1\1\GINC-BP1-COMPUTE00092\SP\RCAM-B3LYP TD-FC\def2SVP\C68H72Mg2N8O8\OF
 15641\12-Sep-2021\0\\#p cam-b3lyp/Def2SVP td=(nstates=5)\\TDDFT excite
 d states in gaussian\\0,1\Mg,0,0.,0.,0.\C,0,-0.217,-2.218,2.801\C,0,-1
 .255,2.442,2.026\C,0,-0.245,1.85,-2.564\C,0,0.146,-2.824,-2.037\N,0,-0
 .617,-0.009,2.126\C,0,-0.594,-0.908,3.105\C,0,-0.936,-0.309,4.502\C,0,
 -1.773,0.964,4.032\C,0,-1.155,1.168,2.66\C,0,-3.263,0.685,3.863\C,0,0.
 345,0.11,5.299\C,0,0.124,0.397,6.787\H,0,1.168,0.033,7.733\N,0,-0.185,
 1.961,-0.152\C,0,-0.703,2.8,0.777\C,0,-0.62,4.156,0.193\C,0,-0.187,4.0
 15,-1.225\C,0,-0.214,2.583,-1.38\C,0,-0.887,5.406,0.974\C,0,0.181,5.01
 3,-2.277\O,0,0.303,4.69,-3.508\C,0,0.31,6.414,-1.837\N,0,-0.265,-0.413
 ,-2.029\C,0,-0.279,0.569,-2.937\C,0,-0.196,0.024,-4.332\C,0,0.124,-1.5
 33,-4.18\C,0,0.086,-1.632,-2.635\C,0,-1.451,0.205,-5.197\C,0,1.373,-2.
 07,-4.923\C,0,2.626,-1.49,-4.306\N,0,0.15,-2.144,0.303\C,0,0.173,-3.13
 6,-0.688\C,0,0.173,-4.438,0.004\C,0,0.133,-4.111,1.358\C,0,0.083,-2.69
 5,1.502\C,0,0.149,-5.715,-0.623\C,0,0.096,-4.629,2.716\O,0,0.208,-5.74
 7,3.221\C,0,-0.255,-3.428,3.701\C,0,0.717,-3.482,4.848\O,0,1.931,-3.25
 5,4.669\O,0,0.038,-3.556,6.003\C,0,0.943,-3.583,7.183\H,0,-1.859,3.22,
 2.497\H,0,-0.218,2.453,-3.474\H,0,0.276,-3.747,-2.605\H,0,-1.554,-0.94
 9,5.132\H,0,-1.585,1.831,4.665\H,0,-3.484,-0.377,3.969\H,0,-3.511,1.02
 7,2.858\H,0,-3.852,1.301,4.543\H,0,0.669,1.096,4.966\H,0,1.13,-0.639,5
 .189\H,0,-0.844,0.026,7.125\H,0,0.062,1.477,6.921\H,0,-1.344,5.186,1.9
 38\H,0,-1.651,5.963,0.432\H,0,0.007,6.02,1.084\H,0,-0.635,6.744,-1.405
 \H,0,0.665,6.97,-2.704\H,0,1.048,6.466,-1.036\H,0,0.608,0.501,-4.891\H
 ,0,-0.692,-2.156,-4.547\H,0,-1.267,0.74,-6.129\H,0,-2.204,0.714,-4.596
 \H,0,-1.967,-0.72,-5.453\H,0,1.356,-1.759,-5.967\H,0,1.452,-3.157,-4.9
 02\H,0,2.714,-0.522,-4.798\H,0,3.487,-2.121,-4.529\H,0,2.495,-1.303,-3
 .24\H,0,0.867,-6.333,-0.084\H,0,0.404,-5.642,-1.68\H,0,-0.891,-5.999,-
 0.463\H,0,-1.283,-3.581,4.028\H,0,0.698,-4.478,7.755\H,0,0.833,-2.619,
 7.68\H,0,2.,-3.754,6.976\Mg,0,15.77261,1.42431,1.2046\C,0,15.55177,-0.
 79841,4.01348\C,0,14.51592,3.86588,3.22798\C,0,15.53076,3.28315,-1.355
 41\C,0,15.91257,-1.39534,-0.83885\N,0,15.15336,1.41301,3.32796\C,0,15.
 17235,0.52683,4.31217\C,0,14.8387,1.1117,5.7108\C,0,13.99404,2.39381,5
 .24004\C,0,14.61174,2.59962,3.85846\C,0,12.51238,2.1064,5.06279\C,0,16
 .1249,1.53139,6.50551\C,0,15.89726,1.82075,7.99084\H,0,16.94687,1.4586
 2,8.93934\N,0,15.58981,3.39525,1.06125\C,0,15.07868,4.23448,1.9863\C,0
 ,15.14845,5.57857,1.3924\C,0,15.59005,5.44392,-0.02237\C,0,15.56679,4.
 00245,-0.16972\C,0,14.88963,6.83037,2.17944\C,0,15.95841,6.44708,-1.07
 317\O,0,16.08266,6.11674,-2.30535\C,0,16.07782,7.84452,-0.63227\N,0,15
 .5148,1.0133,-0.81702\C,0,15.49505,2.00324,-1.72672\C,0,15.57624,1.454
 93,-3.13141\C,0,15.89969,-0.10257,-2.96662\C,0,15.8595,-0.20778,-1.426
 26\C,0,14.32049,1.62603,-3.98593\C,0,17.15,-0.64443,-3.71213\C,0,18.40
 57,-0.06009,-3.1062\N,0,15.9262,-0.7095,1.50679\C,0,15.94332,-1.71267,
 0.51309\C,0,15.94305,-3.01547,1.20961\C,0,15.90222,-2.67737,2.57068\C,
 0,15.85831,-1.264,2.71194\C,0,15.92935,-4.29362,0.5833\C,0,15.87555,-3
 .19495,3.91979\O,0,15.98013,-4.31248,4.4237\C,0,15.51977,-2.00434,4.91
 088\C,0,16.49088,-2.04951,6.05867\O,0,17.70125,-1.83378,5.87139\O,0,15
 .80476,-2.12378,7.2137\C,0,16.72436,-2.15985,8.38197\H,0,13.91777,4.64
 07,3.70835\H,0,15.55856,3.88,-2.27\H,0,16.05431,-2.31975,-1.40281\H,0,
 14.227,0.47265,6.33627\H,0,14.19065,3.25206,5.87731\H,0,12.29044,1.054
 91,5.16887\H,0,12.26386,2.44686,4.06611\H,0,11.92406,2.72383,5.74762\H
 ,0,16.44626,2.52502,6.16762\H,0,16.89796,0.79601,6.39496\H,0,14.92312,
 1.45491,8.33748\H,0,15.84162,2.90327,8.12894\H,0,14.42518,6.60775,3.14
 801\H,0,14.12616,7.39759,1.63608\H,0,15.78119,7.4517,2.28778\H,0,15.13
 478,8.16807,-0.19816\H,0,16.43449,8.39653,-1.50402\H,0,16.82623,7.8966
 7,0.16634\H,0,16.38088,1.92441,-3.6839\H,0,15.08069,-0.73117,-3.34601\
 H,0,14.50633,2.17108,-4.93063\H,0,13.57164,2.13537,-3.39404\H,0,13.813
 71,0.70016,-4.25265\H,0,17.13389,-0.32822,-4.75803\H,0,17.22231,-1.726
 88,-3.70403\H,0,18.48793,0.91308,-3.59942\H,0,19.26603,-0.68858,-3.327
 27\H,0,18.27616,0.12399,-2.03336\H,0,16.64022,-4.90979,1.11762\H,0,16.
 17968,-4.22144,-0.47306\H,0,14.88475,-4.57604,0.73924\H,0,14.48999,-2.
 14866,5.23997\H,0,16.47577,-3.05742,8.95665\H,0,16.59954,-1.18545,8.89
 061\H,0,17.77811,-2.31955,8.18561\\Version=ES64L-G16RevA.03\State=1-A\
 HF=-4069.8116754\RMSD=4.929e-09\PG=C01 [X(C68H72Mg2N8O8)]\\@


 "TIGER, TIGER BURNING BRIGHT
 IN THE FOREST OF THE NIGHT.
 WHAT IMMORTAL HAND OR EYE
 CAN FRAME THY FEARFUL SYMMETRYE?"
                     - WILLIAM BLAKE
 Job cpu time:       0 days 11 hours  9 minutes 21.4 seconds.
 Elapsed time:       0 days  0 hours 28 minutes 29.3 seconds.
 File lengths (MBytes):  RWF=  13225 Int=      0 D2E=      0 Chk=    574 Scr=      1
 Normal termination of Gaussian 16 at Sun Sep 12 06:18:28 2021.
