 Entering Gaussian System, Link 0=g16
 Initial command:
 /sw/apps/gaussian-16.0/g16/l1.exe "/tmp/Gau-40076.inp" -scrdir="/tmp/"
 Entering Link 1 = /sw/apps/gaussian-16.0/g16/l1.exe PID=     40077.
  
 Copyright (c) 1988,1990,1992,1993,1995,1998,2003,2009,2016,
            Gaussian, Inc.  All Rights Reserved.
  
 This is part of the Gaussian(R) 16 program.  It is based on
 the Gaussian(R) 09 system (copyright 2009, Gaussian, Inc.),
 the Gaussian(R) 03 system (copyright 2003, Gaussian, Inc.),
 the Gaussian(R) 98 system (copyright 1998, Gaussian, Inc.),
 the Gaussian(R) 94 system (copyright 1995, Gaussian, Inc.),
 the Gaussian 92(TM) system (copyright 1992, Gaussian, Inc.),
 the Gaussian 90(TM) system (copyright 1990, Gaussian, Inc.),
 the Gaussian 88(TM) system (copyright 1988, Gaussian, Inc.),
 the Gaussian 86(TM) system (copyright 1986, Carnegie Mellon
 University), and the Gaussian 82(TM) system (copyright 1983,
 Carnegie Mellon University). Gaussian is a federally registered
 trademark of Gaussian, Inc.
  
 This software contains proprietary and confidential information,
 including trade secrets, belonging to Gaussian, Inc.
  
 This software is provided under written license and may be
 used, copied, transmitted, or stored only in accord with that
 written license.
  
 The following legend is applicable only to US Government
 contracts under FAR:
  
                    RESTRICTED RIGHTS LEGEND
  
 Use, reproduction and disclosure by the US Government is
 subject to restrictions as set forth in subparagraphs (a)
 and (c) of the Commercial Computer Software - Restricted
 Rights clause in FAR 52.227-19.
  
 Gaussian, Inc.
 340 Quinnipiac St., Bldg. 40, Wallingford CT 06492
  
  
 ---------------------------------------------------------------
 Warning -- This program may not be used in any manner that
 competes with the business of Gaussian, Inc. or will provide
 assistance to any competitor of Gaussian, Inc.  The licensee
 of this program is prohibited from giving any competitor of
 Gaussian, Inc. access to this program.  By using this program,
 the user acknowledges that Gaussian, Inc. is engaged in the
 business of creating and licensing software in the field of
 computational chemistry and represents and warrants to the
 licensee that it is not a competitor of Gaussian, Inc. and that
 it will not use this program in any manner prohibited above.
 ---------------------------------------------------------------
  

 Cite this work as:
 Gaussian 16, Revision A.03,
 M. J. Frisch, G. W. Trucks, H. B. Schlegel, G. E. Scuseria, 
 M. A. Robb, J. R. Cheeseman, G. Scalmani, V. Barone, 
 G. A. Petersson, H. Nakatsuji, X. Li, M. Caricato, A. V. Marenich, 
 J. Bloino, B. G. Janesko, R. Gomperts, B. Mennucci, H. P. Hratchian, 
 J. V. Ortiz, A. F. Izmaylov, J. L. Sonnenberg, D. Williams-Young, 
 F. Ding, F. Lipparini, F. Egidi, J. Goings, B. Peng, A. Petrone, 
 T. Henderson, D. Ranasinghe, V. G. Zakrzewski, J. Gao, N. Rega, 
 G. Zheng, W. Liang, M. Hada, M. Ehara, K. Toyota, R. Fukuda, 
 J. Hasegawa, M. Ishida, T. Nakajima, Y. Honda, O. Kitao, H. Nakai, 
 T. Vreven, K. Throssell, J. A. Montgomery, Jr., J. E. Peralta, 
 F. Ogliaro, M. J. Bearpark, J. J. Heyd, E. N. Brothers, K. N. Kudin, 
 V. N. Staroverov, T. A. Keith, R. Kobayashi, J. Normand, 
 K. Raghavachari, A. P. Rendell, J. C. Burant, S. S. Iyengar, 
 J. Tomasi, M. Cossi, J. M. Millam, M. Klene, C. Adamo, R. Cammi, 
 J. W. Ochterski, R. L. Martin, K. Morokuma, O. Farkas, 
 J. B. Foresman, and D. J. Fox, Gaussian, Inc., Wallingford CT, 2016.
 
 ******************************************
 Gaussian 16:  ES64L-G16RevA.03 25-Dec-2016
                12-Sep-2021 
 ******************************************
 %nproc=24
 Will use up to   24 processors via shared memory.
 %mem=175gb
 -----------------------------------
 #p cam-b3lyp/Def2SVP td=(nstates=5)
 -----------------------------------
 1/38=1,172=1/1;
 2/12=2,17=6,18=5,40=1/2;
 3/5=43,7=101,11=9,25=1,30=1,74=-40/1,2,3,8;
 4//1;
 5/5=2,38=5/2;
 8/6=1,10=1,108=5/1;
 9/41=5,42=1,70=2/14;
 6/7=2,8=2,9=2,10=2/1;
 99/5=1,9=1/99;
 Leave Link    1 at Sun Sep 12 13:15:23 2021, MaxMem= 23488102400 cpu:               0.6 elap:               0.0
 (Enter /sw/apps/gaussian-16.0/g16/l101.exe)
 --------------------------------
 TDDFT excited states in gaussian
 --------------------------------
 Symbolic Z-matrix:
 Charge =  0 Multiplicity = 1
 Mg                    0.        0.        0. 
 C                    -0.217    -2.218     2.801 
 C                    -1.255     2.442     2.026 
 C                    -0.245     1.85     -2.564 
 C                     0.146    -2.824    -2.037 
 N                    -0.617    -0.009     2.126 
 C                    -0.594    -0.908     3.105 
 C                    -0.936    -0.309     4.502 
 C                    -1.773     0.964     4.032 
 C                    -1.155     1.168     2.66 
 C                    -3.263     0.685     3.863 
 C                     0.345     0.11      5.299 
 C                     0.124     0.397     6.787 
 H                     1.168     0.033     7.733 
 N                    -0.185     1.961    -0.152 
 C                    -0.703     2.8       0.777 
 C                    -0.62      4.156     0.193 
 C                    -0.187     4.015    -1.225 
 C                    -0.214     2.583    -1.38 
 C                    -0.887     5.406     0.974 
 C                     0.181     5.013    -2.277 
 O                     0.303     4.69     -3.508 
 C                     0.31      6.414    -1.837 
 N                    -0.265    -0.413    -2.029 
 C                    -0.279     0.569    -2.937 
 C                    -0.196     0.024    -4.332 
 C                     0.124    -1.533    -4.18 
 C                     0.086    -1.632    -2.635 
 C                    -1.451     0.205    -5.197 
 C                     1.373    -2.07     -4.923 
 C                     2.626    -1.49     -4.306 
 N                     0.15     -2.144     0.303 
 C                     0.173    -3.136    -0.688 
 C                     0.173    -4.438     0.004 
 C                     0.133    -4.111     1.358 
 C                     0.083    -2.695     1.502 
 C                     0.149    -5.715    -0.623 
 C                     0.096    -4.629     2.716 
 O                     0.208    -5.747     3.221 
 C                    -0.255    -3.428     3.701 
 C                     0.717    -3.482     4.848 
 O                     1.931    -3.255     4.669 
 O                     0.038    -3.556     6.003 
 C                     0.943    -3.583     7.183 
 H                    -1.859     3.22      2.497 
 H                    -0.218     2.453    -3.474 
 H                     0.276    -3.747    -2.605 
 H                    -1.554    -0.949     5.132 
 H                    -1.585     1.831     4.665 
 H                    -3.484    -0.377     3.969 
 H                    -3.511     1.027     2.858 
 H                    -3.852     1.301     4.543 
 H                     0.669     1.096     4.966 
 H                     1.13     -0.639     5.189 
 H                    -0.844     0.026     7.125 
 H                     0.062     1.477     6.921 
 H                    -1.344     5.186     1.938 
 H                    -1.651     5.963     0.432 
 H                     0.007     6.02      1.084 
 H                    -0.635     6.744    -1.405 
 H                     0.665     6.97     -2.704 
 H                     1.048     6.466    -1.036 
 H                     0.608     0.501    -4.891 
 H                    -0.692    -2.156    -4.547 
 H                    -1.267     0.74     -6.129 
 H                    -2.204     0.714    -4.596 
 H                    -1.967    -0.72     -5.453 
 H                     1.356    -1.759    -5.967 
 H                     1.452    -3.157    -4.902 
 H                     2.714    -0.522    -4.798 
 H                     3.487    -2.121    -4.529 
 H                     2.495    -1.303    -3.24 
 H                     0.867    -6.333    -0.084 
 H                     0.404    -5.642    -1.68 
 H                    -0.891    -5.999    -0.463 
 H                    -1.283    -3.581     4.028 
 H                     0.698    -4.478     7.755 
 H                     0.833    -2.619     7.68 
 H                     2.       -3.754     6.976 
 Mg                    31.52323   2.84117   2.39089 
 C                     31.09386   0.0453    0.18231 
 C                     31.40734   4.84596  -0.36628 
 C                     32.34792   5.27683   4.24962 
 C                     32.73048   0.59882   4.76999 
 N                     31.27776   2.38664   0.24021 
 C                     31.06143   1.29291  -0.47484 
 C                     30.71568   1.5566   -1.96497 
 C                     31.40468   2.99885  -2.12011 
 C                     31.33113   3.46248  -0.66673 
 C                     32.86763   2.92652  -2.52493 
 C                     29.16848   1.62918  -2.21579 
 C                     28.75234   1.5754   -3.68741 
 H                     27.51485   0.88286  -4.03594 
 N                     31.35367   4.79643   2.09626 
 C                     31.2981   5.4389    0.91076 
 C                     31.1954   6.87051   1.23342 
 C                     31.36083   7.03307   2.70343 
 C                     31.72254   5.68099   3.07911 
 C                     30.88284   7.91648   0.20305 
 C                     31.22937   8.21326   3.6178 
 O                     31.65078   8.17786   4.82775 
 C                     30.67788   9.44166   3.02755 
 N                     32.60592   2.95992   4.16177 
 C                     32.77411   4.13585   4.79171 
 C                     33.34307   3.93651   6.17624 
 C                     33.29574   2.35941   6.43721 
 C                     32.76722   1.89135   5.06353 
 C                     34.76882   4.44475   6.38909 
 C                     32.55641   1.87958   7.7162 
 C                     31.07602   2.15974   7.59235 
 N                     31.69096   0.69379   2.56024 
 C                     32.25138  -0.03618   3.63129 
 C                     32.24411  -1.46029   3.2385 
 C                     31.69679  -1.45758   1.94663 
 C                     31.40364  -0.12378   1.55352 
 C                     32.74702  -2.54056   4.0171 
 C                     31.3102  -2.27873   0.82193 
 O                     31.24483  -3.48926   0.61196 
 C                     31.01976  -1.3303   -0.42006 
 C                     29.71484  -1.75658  -1.03486 
 O                     28.64977  -1.63589  -0.40426 
 O                     29.91036  -2.0313   -2.33742 
 C                     28.6424  -2.4481   -2.99345 
 H                     31.61218   5.54294  -1.17939 
 H                     32.55264   6.06965   4.97282 
 H                     32.99936  -0.17234   5.49503 
 H                     31.15682   0.85662  -2.6644 
 H                     30.81526   3.65152  -2.75883 
 H                     33.2355   1.91123  -2.52651 
 H                     33.40387   3.5221   -1.79776 
 H                     33.01694   3.4214   -3.48885 
 H                     28.81033   2.63362  -1.95584 
 H                     28.65721   0.86202  -1.66742 
 H                     29.57302   1.24572  -4.33606 
 H                     28.53633   2.59218  -4.02433 
 H                     30.97825   7.51934  -0.81508 
 H                     31.66726   8.67791   0.2722 
 H                     29.91335   8.39201   0.36621 
 H                     31.30106   9.75233   2.19234 
 H                     30.578    10.14492   3.8566 
 H                     29.68771   9.2177    2.6152 
 H                     32.73333   4.43427   6.92026 
 H                     34.30415   1.93421   6.54742 
 H                     34.85241   5.17757   7.21375 
 H                     35.11986   4.87534   5.46071 
 H                     35.51099   3.67156   6.58034 
 H                     32.90615   2.43818   8.58787 
 H                     32.70176   0.82582   7.92945 
 H                     30.99704   3.20803   7.89556 
 H                     30.5068   1.51273   8.25674 
 H                     30.74885   2.09305   6.54825 
 H                     32.02324  -3.34127   3.94285 
 H                     32.90817  -2.24393   5.05142 
 H                     33.68739  -2.73616   3.49489 
 H                     31.85365  -1.43604  -1.11506 
 H                     28.8258  -3.4249   -3.45162 
 H                     28.36938  -1.61726  -3.67088 
 H                     27.79644  -2.67014  -2.35353 
 
 ITRead=  0  0  0  0  0  0  0  0  0  0  0  0  0  0  0  0  0  0  0  0
 ITRead=  0  0  0  0  0  0  0  0  0  0  0  0  0  0  0  0  0  0  0  0
 ITRead=  0  0  0  0  0  0  0  0  0  0  0  0  0  0  0  0  0  0  0  0
 ITRead=  0  0  0  0  0  0  0  0  0  0  0  0  0  0  0  0  0  0  0  0
 ITRead=  0  0  0  0  0  0  0  0  0  0  0  0  0  0  0  0  0  0  0  0
 ITRead=  0  0  0  0  0  0  0  0  0  0  0  0  0  0  0  0  0  0  0  0
 ITRead=  0  0  0  0  0  0  0  0  0  0  0  0  0  0  0  0  0  0  0  0
 ITRead=  0  0  0  0  0  0  0  0  0  0  0  0  0  0  0  0  0  0
 MicOpt= -1 -1 -1 -1 -1 -1 -1 -1 -1 -1 -1 -1 -1 -1 -1 -1 -1 -1 -1 -1
 MicOpt= -1 -1 -1 -1 -1 -1 -1 -1 -1 -1 -1 -1 -1 -1 -1 -1 -1 -1 -1 -1
 MicOpt= -1 -1 -1 -1 -1 -1 -1 -1 -1 -1 -1 -1 -1 -1 -1 -1 -1 -1 -1 -1
 MicOpt= -1 -1 -1 -1 -1 -1 -1 -1 -1 -1 -1 -1 -1 -1 -1 -1 -1 -1 -1 -1
 MicOpt= -1 -1 -1 -1 -1 -1 -1 -1 -1 -1 -1 -1 -1 -1 -1 -1 -1 -1 -1 -1
 MicOpt= -1 -1 -1 -1 -1 -1 -1 -1 -1 -1 -1 -1 -1 -1 -1 -1 -1 -1 -1 -1
 MicOpt= -1 -1 -1 -1 -1 -1 -1 -1 -1 -1 -1 -1 -1 -1 -1 -1 -1 -1 -1 -1
 MicOpt= -1 -1 -1 -1 -1 -1 -1 -1 -1 -1 -1 -1 -1 -1 -1 -1 -1 -1
 NAtoms=    158 NQM=      158 NQMF=       0 NMMI=      0 NMMIF=      0
                NMic=       0 NMicF=      0.
                    Isotopes and Nuclear Properties:
 (Nuclear quadrupole moments (NQMom) in fm**2, nuclear magnetic moments (NMagM)
  in nuclear magnetons)

  Atom         1           2           3           4           5           6           7           8           9          10
 IAtWgt=          24          12          12          12          12          14          12          12          12          12
 AtmWgt=  23.9850450  12.0000000  12.0000000  12.0000000  12.0000000  14.0030740  12.0000000  12.0000000  12.0000000  12.0000000
 NucSpn=           0           0           0           0           0           2           0           0           0           0
 AtZEff=  -0.0000000  -0.0000000  -0.0000000  -0.0000000  -0.0000000  -0.0000000  -0.0000000  -0.0000000  -0.0000000  -0.0000000
 NQMom=    0.0000000   0.0000000   0.0000000   0.0000000   0.0000000   2.0440000   0.0000000   0.0000000   0.0000000   0.0000000
 NMagM=    0.0000000   0.0000000   0.0000000   0.0000000   0.0000000   0.4037610   0.0000000   0.0000000   0.0000000   0.0000000
 AtZNuc=  12.0000000   6.0000000   6.0000000   6.0000000   6.0000000   7.0000000   6.0000000   6.0000000   6.0000000   6.0000000

  Atom        11          12          13          14          15          16          17          18          19          20
 IAtWgt=          12          12          12           1          14          12          12          12          12          12
 AtmWgt=  12.0000000  12.0000000  12.0000000   1.0078250  14.0030740  12.0000000  12.0000000  12.0000000  12.0000000  12.0000000
 NucSpn=           0           0           0           1           2           0           0           0           0           0
 AtZEff=  -0.0000000  -0.0000000  -0.0000000  -0.0000000  -0.0000000  -0.0000000  -0.0000000  -0.0000000  -0.0000000  -0.0000000
 NQMom=    0.0000000   0.0000000   0.0000000   0.0000000   2.0440000   0.0000000   0.0000000   0.0000000   0.0000000   0.0000000
 NMagM=    0.0000000   0.0000000   0.0000000   2.7928460   0.4037610   0.0000000   0.0000000   0.0000000   0.0000000   0.0000000
 AtZNuc=   6.0000000   6.0000000   6.0000000   1.0000000   7.0000000   6.0000000   6.0000000   6.0000000   6.0000000   6.0000000

  Atom        21          22          23          24          25          26          27          28          29          30
 IAtWgt=          12          16          12          14          12          12          12          12          12          12
 AtmWgt=  12.0000000  15.9949146  12.0000000  14.0030740  12.0000000  12.0000000  12.0000000  12.0000000  12.0000000  12.0000000
 NucSpn=           0           0           0           2           0           0           0           0           0           0
 AtZEff=  -0.0000000  -0.0000000  -0.0000000  -0.0000000  -0.0000000  -0.0000000  -0.0000000  -0.0000000  -0.0000000  -0.0000000
 NQMom=    0.0000000   0.0000000   0.0000000   2.0440000   0.0000000   0.0000000   0.0000000   0.0000000   0.0000000   0.0000000
 NMagM=    0.0000000   0.0000000   0.0000000   0.4037610   0.0000000   0.0000000   0.0000000   0.0000000   0.0000000   0.0000000
 AtZNuc=   6.0000000   8.0000000   6.0000000   7.0000000   6.0000000   6.0000000   6.0000000   6.0000000   6.0000000   6.0000000

  Atom        31          32          33          34          35          36          37          38          39          40
 IAtWgt=          12          14          12          12          12          12          12          12          16          12
 AtmWgt=  12.0000000  14.0030740  12.0000000  12.0000000  12.0000000  12.0000000  12.0000000  12.0000000  15.9949146  12.0000000
 NucSpn=           0           2           0           0           0           0           0           0           0           0
 AtZEff=  -0.0000000  -0.0000000  -0.0000000  -0.0000000  -0.0000000  -0.0000000  -0.0000000  -0.0000000  -0.0000000  -0.0000000
 NQMom=    0.0000000   2.0440000   0.0000000   0.0000000   0.0000000   0.0000000   0.0000000   0.0000000   0.0000000   0.0000000
 NMagM=    0.0000000   0.4037610   0.0000000   0.0000000   0.0000000   0.0000000   0.0000000   0.0000000   0.0000000   0.0000000
 AtZNuc=   6.0000000   7.0000000   6.0000000   6.0000000   6.0000000   6.0000000   6.0000000   6.0000000   8.0000000   6.0000000

  Atom        41          42          43          44          45          46          47          48          49          50
 IAtWgt=          12          16          16          12           1           1           1           1           1           1
 AtmWgt=  12.0000000  15.9949146  15.9949146  12.0000000   1.0078250   1.0078250   1.0078250   1.0078250   1.0078250   1.0078250
 NucSpn=           0           0           0           0           1           1           1           1           1           1
 AtZEff=  -0.0000000  -0.0000000  -0.0000000  -0.0000000  -0.0000000  -0.0000000  -0.0000000  -0.0000000  -0.0000000  -0.0000000
 NQMom=    0.0000000   0.0000000   0.0000000   0.0000000   0.0000000   0.0000000   0.0000000   0.0000000   0.0000000   0.0000000
 NMagM=    0.0000000   0.0000000   0.0000000   0.0000000   2.7928460   2.7928460   2.7928460   2.7928460   2.7928460   2.7928460
 AtZNuc=   6.0000000   8.0000000   8.0000000   6.0000000   1.0000000   1.0000000   1.0000000   1.0000000   1.0000000   1.0000000

  Atom        51          52          53          54          55          56          57          58          59          60
 IAtWgt=           1           1           1           1           1           1           1           1           1           1
 AtmWgt=   1.0078250   1.0078250   1.0078250   1.0078250   1.0078250   1.0078250   1.0078250   1.0078250   1.0078250   1.0078250
 NucSpn=           1           1           1           1           1           1           1           1           1           1
 AtZEff=  -0.0000000  -0.0000000  -0.0000000  -0.0000000  -0.0000000  -0.0000000  -0.0000000  -0.0000000  -0.0000000  -0.0000000
 NQMom=    0.0000000   0.0000000   0.0000000   0.0000000   0.0000000   0.0000000   0.0000000   0.0000000   0.0000000   0.0000000
 NMagM=    2.7928460   2.7928460   2.7928460   2.7928460   2.7928460   2.7928460   2.7928460   2.7928460   2.7928460   2.7928460
 AtZNuc=   1.0000000   1.0000000   1.0000000   1.0000000   1.0000000   1.0000000   1.0000000   1.0000000   1.0000000   1.0000000

  Atom        61          62          63          64          65          66          67          68          69          70
 IAtWgt=           1           1           1           1           1           1           1           1           1           1
 AtmWgt=   1.0078250   1.0078250   1.0078250   1.0078250   1.0078250   1.0078250   1.0078250   1.0078250   1.0078250   1.0078250
 NucSpn=           1           1           1           1           1           1           1           1           1           1
 AtZEff=  -0.0000000  -0.0000000  -0.0000000  -0.0000000  -0.0000000  -0.0000000  -0.0000000  -0.0000000  -0.0000000  -0.0000000
 NQMom=    0.0000000   0.0000000   0.0000000   0.0000000   0.0000000   0.0000000   0.0000000   0.0000000   0.0000000   0.0000000
 NMagM=    2.7928460   2.7928460   2.7928460   2.7928460   2.7928460   2.7928460   2.7928460   2.7928460   2.7928460   2.7928460
 AtZNuc=   1.0000000   1.0000000   1.0000000   1.0000000   1.0000000   1.0000000   1.0000000   1.0000000   1.0000000   1.0000000

  Atom        71          72          73          74          75          76          77          78          79          80
 IAtWgt=           1           1           1           1           1           1           1           1           1          24
 AtmWgt=   1.0078250   1.0078250   1.0078250   1.0078250   1.0078250   1.0078250   1.0078250   1.0078250   1.0078250  23.9850450
 NucSpn=           1           1           1           1           1           1           1           1           1           0
 AtZEff=  -0.0000000  -0.0000000  -0.0000000  -0.0000000  -0.0000000  -0.0000000  -0.0000000  -0.0000000  -0.0000000  -0.0000000
 NQMom=    0.0000000   0.0000000   0.0000000   0.0000000   0.0000000   0.0000000   0.0000000   0.0000000   0.0000000   0.0000000
 NMagM=    2.7928460   2.7928460   2.7928460   2.7928460   2.7928460   2.7928460   2.7928460   2.7928460   2.7928460   0.0000000
 AtZNuc=   1.0000000   1.0000000   1.0000000   1.0000000   1.0000000   1.0000000   1.0000000   1.0000000   1.0000000  12.0000000

  Atom        81          82          83          84          85          86          87          88          89          90
 IAtWgt=          12          12          12          12          14          12          12          12          12          12
 AtmWgt=  12.0000000  12.0000000  12.0000000  12.0000000  14.0030740  12.0000000  12.0000000  12.0000000  12.0000000  12.0000000
 NucSpn=           0           0           0           0           2           0           0           0           0           0
 AtZEff=  -0.0000000  -0.0000000  -0.0000000  -0.0000000  -0.0000000  -0.0000000  -0.0000000  -0.0000000  -0.0000000  -0.0000000
 NQMom=    0.0000000   0.0000000   0.0000000   0.0000000   2.0440000   0.0000000   0.0000000   0.0000000   0.0000000   0.0000000
 NMagM=    0.0000000   0.0000000   0.0000000   0.0000000   0.4037610   0.0000000   0.0000000   0.0000000   0.0000000   0.0000000
 AtZNuc=   6.0000000   6.0000000   6.0000000   6.0000000   7.0000000   6.0000000   6.0000000   6.0000000   6.0000000   6.0000000

  Atom        91          92          93          94          95          96          97          98          99         100
 IAtWgt=          12          12           1          14          12          12          12          12          12          12
 AtmWgt=  12.0000000  12.0000000   1.0078250  14.0030740  12.0000000  12.0000000  12.0000000  12.0000000  12.0000000  12.0000000
 NucSpn=           0           0           1           2           0           0           0           0           0           0
 AtZEff=  -0.0000000  -0.0000000  -0.0000000  -0.0000000  -0.0000000  -0.0000000  -0.0000000  -0.0000000  -0.0000000  -0.0000000
 NQMom=    0.0000000   0.0000000   0.0000000   2.0440000   0.0000000   0.0000000   0.0000000   0.0000000   0.0000000   0.0000000
 NMagM=    0.0000000   0.0000000   2.7928460   0.4037610   0.0000000   0.0000000   0.0000000   0.0000000   0.0000000   0.0000000
 AtZNuc=   6.0000000   6.0000000   1.0000000   7.0000000   6.0000000   6.0000000   6.0000000   6.0000000   6.0000000   6.0000000

  Atom       101         102         103         104         105         106         107         108         109         110
 IAtWgt=          16          12          14          12          12          12          12          12          12          12
 AtmWgt=  15.9949146  12.0000000  14.0030740  12.0000000  12.0000000  12.0000000  12.0000000  12.0000000  12.0000000  12.0000000
 NucSpn=           0           0           2           0           0           0           0           0           0           0
 AtZEff=  -0.0000000  -0.0000000  -0.0000000  -0.0000000  -0.0000000  -0.0000000  -0.0000000  -0.0000000  -0.0000000  -0.0000000
 NQMom=    0.0000000   0.0000000   2.0440000   0.0000000   0.0000000   0.0000000   0.0000000   0.0000000   0.0000000   0.0000000
 NMagM=    0.0000000   0.0000000   0.4037610   0.0000000   0.0000000   0.0000000   0.0000000   0.0000000   0.0000000   0.0000000
 AtZNuc=   8.0000000   6.0000000   7.0000000   6.0000000   6.0000000   6.0000000   6.0000000   6.0000000   6.0000000   6.0000000

  Atom       111         112         113         114         115         116         117         118         119         120
 IAtWgt=          14          12          12          12          12          12          12          16          12          12
 AtmWgt=  14.0030740  12.0000000  12.0000000  12.0000000  12.0000000  12.0000000  12.0000000  15.9949146  12.0000000  12.0000000
 NucSpn=           2           0           0           0           0           0           0           0           0           0
 AtZEff=  -0.0000000  -0.0000000  -0.0000000  -0.0000000  -0.0000000  -0.0000000  -0.0000000  -0.0000000  -0.0000000  -0.0000000
 NQMom=    2.0440000   0.0000000   0.0000000   0.0000000   0.0000000   0.0000000   0.0000000   0.0000000   0.0000000   0.0000000
 NMagM=    0.4037610   0.0000000   0.0000000   0.0000000   0.0000000   0.0000000   0.0000000   0.0000000   0.0000000   0.0000000
 AtZNuc=   7.0000000   6.0000000   6.0000000   6.0000000   6.0000000   6.0000000   6.0000000   8.0000000   6.0000000   6.0000000

  Atom       121         122         123         124         125         126         127         128         129         130
 IAtWgt=          16          16          12           1           1           1           1           1           1           1
 AtmWgt=  15.9949146  15.9949146  12.0000000   1.0078250   1.0078250   1.0078250   1.0078250   1.0078250   1.0078250   1.0078250
 NucSpn=           0           0           0           1           1           1           1           1           1           1
 AtZEff=  -0.0000000  -0.0000000  -0.0000000  -0.0000000  -0.0000000  -0.0000000  -0.0000000  -0.0000000  -0.0000000  -0.0000000
 NQMom=    0.0000000   0.0000000   0.0000000   0.0000000   0.0000000   0.0000000   0.0000000   0.0000000   0.0000000   0.0000000
 NMagM=    0.0000000   0.0000000   0.0000000   2.7928460   2.7928460   2.7928460   2.7928460   2.7928460   2.7928460   2.7928460
 AtZNuc=   8.0000000   8.0000000   6.0000000   1.0000000   1.0000000   1.0000000   1.0000000   1.0000000   1.0000000   1.0000000

  Atom       131         132         133         134         135         136         137         138         139         140
 IAtWgt=           1           1           1           1           1           1           1           1           1           1
 AtmWgt=   1.0078250   1.0078250   1.0078250   1.0078250   1.0078250   1.0078250   1.0078250   1.0078250   1.0078250   1.0078250
 NucSpn=           1           1           1           1           1           1           1           1           1           1
 AtZEff=  -0.0000000  -0.0000000  -0.0000000  -0.0000000  -0.0000000  -0.0000000  -0.0000000  -0.0000000  -0.0000000  -0.0000000
 NQMom=    0.0000000   0.0000000   0.0000000   0.0000000   0.0000000   0.0000000   0.0000000   0.0000000   0.0000000   0.0000000
 NMagM=    2.7928460   2.7928460   2.7928460   2.7928460   2.7928460   2.7928460   2.7928460   2.7928460   2.7928460   2.7928460
 AtZNuc=   1.0000000   1.0000000   1.0000000   1.0000000   1.0000000   1.0000000   1.0000000   1.0000000   1.0000000   1.0000000

  Atom       141         142         143         144         145         146         147         148         149         150
 IAtWgt=           1           1           1           1           1           1           1           1           1           1
 AtmWgt=   1.0078250   1.0078250   1.0078250   1.0078250   1.0078250   1.0078250   1.0078250   1.0078250   1.0078250   1.0078250
 NucSpn=           1           1           1           1           1           1           1           1           1           1
 AtZEff=  -0.0000000  -0.0000000  -0.0000000  -0.0000000  -0.0000000  -0.0000000  -0.0000000  -0.0000000  -0.0000000  -0.0000000
 NQMom=    0.0000000   0.0000000   0.0000000   0.0000000   0.0000000   0.0000000   0.0000000   0.0000000   0.0000000   0.0000000
 NMagM=    2.7928460   2.7928460   2.7928460   2.7928460   2.7928460   2.7928460   2.7928460   2.7928460   2.7928460   2.7928460
 AtZNuc=   1.0000000   1.0000000   1.0000000   1.0000000   1.0000000   1.0000000   1.0000000   1.0000000   1.0000000   1.0000000

  Atom       151         152         153         154         155         156         157         158
 IAtWgt=           1           1           1           1           1           1           1           1
 AtmWgt=   1.0078250   1.0078250   1.0078250   1.0078250   1.0078250   1.0078250   1.0078250   1.0078250
 NucSpn=           1           1           1           1           1           1           1           1
 AtZEff=  -0.0000000  -0.0000000  -0.0000000  -0.0000000  -0.0000000  -0.0000000  -0.0000000  -0.0000000
 NQMom=    0.0000000   0.0000000   0.0000000   0.0000000   0.0000000   0.0000000   0.0000000   0.0000000
 NMagM=    2.7928460   2.7928460   2.7928460   2.7928460   2.7928460   2.7928460   2.7928460   2.7928460
 AtZNuc=   1.0000000   1.0000000   1.0000000   1.0000000   1.0000000   1.0000000   1.0000000   1.0000000
 Leave Link  101 at Sun Sep 12 13:15:23 2021, MaxMem= 23488102400 cpu:               3.5 elap:               0.2
 (Enter /sw/apps/gaussian-16.0/g16/l202.exe)
 Stoichiometry    C68H72Mg2N8O8
 Framework group  C1[X(C68H72Mg2N8O8)]
 Deg. of freedom   468
 Full point group                 C1      NOp   1
 Largest Abelian subgroup         C1      NOp   1
 Largest concise Abelian subgroup C1      NOp   1
                         Standard orientation:                         
 ---------------------------------------------------------------------
 Center     Atomic      Atomic             Coordinates (Angstroms)
 Number     Number       Type             X           Y           Z
 ---------------------------------------------------------------------
      1         12           0       15.727749   -0.710965    0.123155
      2          6           0       16.021759    2.787476   -0.574472
      3          6           0       16.675043   -0.000698    3.323345
      4          6           0       15.916077   -3.833288    0.644934
      5          6           0       15.918384   -1.261716   -3.312830
      6          7           0       16.252821    1.191148    1.126603
      7          6           0       16.268167    2.469727    0.763050
      8          6           0       16.496529    3.447964    1.953965
      9          6           0       17.236671    2.454411    2.957479
     10          6           0       16.661515    1.138302    2.464551
     11          6           0       18.751317    2.425712    2.779929
     12          6           0       15.150973    3.974380    2.557369
     13          6           0       15.282689    5.174340    3.499759
     14          1           0       14.236000    6.185171    3.496963
     15          7           0       15.744717   -1.728187    1.816619
     16          6           0       16.146747   -1.276246    3.028811
     17          6           0       15.968789   -2.407042    3.964926
     18          6           0       15.610217   -3.609624    3.162856
     19          6           0       15.770369   -3.104780    1.823132
     20          6           0       16.090901   -2.271461    5.451687
     21          6           0       15.200075   -4.997094    3.543435
     22          8           0       15.159218   -5.951484    2.693702
     23          6           0       14.929127   -5.233185    4.973082
     24          7           0       16.113681   -2.338638   -1.125594
     25          6           0       16.079034   -3.591059   -0.657378
     26          6           0       16.103561   -4.592303   -1.774002
     27          6           0       15.916488   -3.756314   -3.121548
     28          6           0       15.897842   -2.331631   -2.514753
     29          6           0       17.373010   -5.448986   -1.876974
     30          6           0       14.752400   -4.176265   -4.053729
     31          6           0       13.428059   -3.883051   -3.384966
     32          7           0       15.755434    0.523304   -1.662023
     33          6           0       15.862177    0.083695   -2.989435
     34          6           0       15.948197    1.286886   -3.837373
     35          6           0       15.901902    2.349533   -2.937106
     36          6           0       15.820260    1.841892   -1.608976
     37          6           0       16.111571    1.300419   -5.250724
     38          6           0       15.927240    3.795405   -2.786543
     39          8           0       15.893408    4.749096   -3.565532
     40          6           0       16.128671    4.135079   -1.243859
     41          6           0       15.117713    5.186055   -0.874101
     42          8           0       13.897030    4.926650   -0.871382
     43          8           0       15.751230    6.249767   -0.356688
     44          6           0       14.803166    7.317956    0.058402
     45          1           0       17.187392    0.069301    4.284875
     46          1           0       15.874256   -4.917133    0.771307
     47          1           0       15.894678   -1.354203   -4.400184
     48          1           0       17.141597    4.297067    1.727394
     49          1           0       16.946121    2.630783    3.992948
     50          1           0       19.060769    2.997096    1.904897
     51          1           0       19.010281    1.373693    2.658741
     52          1           0       19.254253    2.755244    3.689457
     53          1           0       14.755327    3.234555    3.253202
     54          1           0       14.440690    4.214236    1.765351
     55          1           0       16.264590    5.640996    3.416029
     56          1           0       15.243149    4.808699    4.525890
     57          1           0       16.524473   -1.312334    5.732108
     58          1           0       16.824803   -3.007500    5.779319
     59          1           0       15.142224   -2.447209    5.959089
     60          1           0       15.822129   -4.997451    5.552328
     61          1           0       14.563231   -6.256823    5.044750
     62          1           0       14.156266   -4.539426    5.305247
     63          1           0       15.284818   -5.304360   -1.678813
     64          1           0       16.799187   -3.805963   -3.759553
     65          1           0       17.181893   -6.521610   -1.836285
     66          1           0       18.051961   -5.142296   -1.081827
     67          1           0       17.979198   -5.263167   -2.763216
     68          1           0       14.785867   -5.248723   -4.242567
     69          1           0       14.769099   -3.668969   -5.018417
     70          1           0       13.275581   -4.757323   -2.753119
     71          1           0       12.636469   -3.797006   -4.130078
     72          1           0       13.496875   -3.014986   -2.729059
     73          1           0       15.428972    2.061089   -5.629417
     74          1           0       15.895961    0.323836   -5.683623
     75          1           0       17.164939    1.568817   -5.329673
     76          1           0       17.151454    4.493841   -1.132827
     77          1           0       15.102049    8.230578   -0.457373
     78          1           0       14.806337    7.328633    1.148485
     79          1           0       13.775133    7.212028   -0.289831
     80         12           0      -15.995953    0.213412    0.627983
     81          6           0      -15.227968   -0.504448   -2.803335
     82          6           0      -15.941658   -3.150765    1.188307
     83          6           0      -17.110704    0.781372    3.543834
     84          6           0      -17.099364    3.348805   -0.419633
     85          7           0      -15.620645   -1.504269   -0.714027
     86          6           0      -15.278371   -1.652135   -1.984982
     87          6           0      -14.894717   -3.102581   -2.383203
     88          6           0      -15.701493   -3.887742   -1.237992
     89          6           0      -15.730687   -2.797765   -0.168519
     90          6           0      -17.133901   -4.213895   -1.626790
     91          6           0      -13.350809   -3.362453   -2.279191
     92          6           0      -12.869788   -4.653873   -2.944461
     93          1           0      -11.562256   -4.656645   -3.594705
     94          7           0      -15.987822   -0.928622    2.251033
     95          6           0      -15.939334   -2.276498    2.297358
     96          6           0      -15.977454   -2.631648    3.724446
     97          6           0      -16.218532   -1.391056    4.510279
     98          6           0      -16.474694   -0.447216    3.440869
     99          6           0      -15.715475   -4.022748    4.224064
    100          6           0      -16.230759   -1.104681    5.981348
    101          8           0      -16.698084   -0.006956    6.449776
    102          6           0      -15.765727   -2.185038    6.863435
    103          7           0      -17.158695    1.744369    1.419525
    104          6           0      -17.456743    1.779169    2.730204
    105          6           0      -18.063769    3.106821    3.116515
    106          6           0      -17.888104    4.048436    1.835854
    107          6           0      -17.262714    3.030412    0.857117
    108          6           0      -19.536615    3.071568    3.523771
    109          6           0      -17.163863    5.405127    2.053862
    110          6           0      -15.710175    5.165562    2.392656
    111          7           0      -15.979972    1.329836   -1.221719
    112          6           0      -16.518301    2.615815   -1.446517
    113          6           0      -16.368444    2.904716   -2.887526
    114          6           0      -15.769464    1.748232   -3.409314
    115          6           0      -15.579178    0.797175   -2.370673
    116          6           0      -16.806191    4.086690   -3.548914
    117          6           0      -15.264581    1.111574   -4.604491
    118          8           0      -15.083524    1.467727   -5.768157
    119          6           0      -15.007049   -0.424715   -4.288412
    120          6           0      -13.644735   -0.785134   -4.814444
    121          8           0      -12.622101   -0.278181   -4.320669
    122          8           0      -13.760010   -1.824994   -5.660473
    123          6           0      -12.433577   -2.226431   -6.200143
    124          1           0      -16.172870   -4.189907    1.424132
    125          1           0      -17.415136    1.071689    4.552064
    126          1           0      -17.329306    4.343569   -0.807239
    127          1           0      -15.242253   -3.412044   -3.361584
    128          1           0      -15.145713   -4.752813   -0.885688
    129          1           0      -17.410074   -3.758396   -2.566149
    130          1           0      -17.750967   -3.830732   -0.824630
    131          1           0      -17.285598   -5.297083   -1.632645
    132          1           0      -13.094256   -3.582233   -1.234862
    133          1           0      -12.797256   -2.528927   -2.665783
    134          1           0      -13.629952   -5.083559   -3.608143
    135          1           0      -12.730585   -5.412140   -2.170078
    136          1           0      -15.732295   -4.753707    3.406245
    137          1           0      -16.566424   -4.301454    4.855000
    138          1           0      -14.799632   -4.092626    4.814834
    139          1           0      -16.378140   -3.069500    6.704935
    140          1           0      -15.763570   -1.760544    7.869255
    141          1           0      -14.743100   -2.454842    6.576963
    142          1           0      -17.532431    3.546628    3.951598
    143          1           0      -18.858674    4.340007    1.408291
    144          1           0      -19.719474    3.479236    4.535920
    145          1           0      -19.884880    2.049431    3.456884
    146          1           0      -20.214851    3.591338    2.849197
    147          1           0      -17.598155    5.933615    2.906066
    148          1           0      -17.224253    6.069378    1.198213
    149          1           0      -15.737154    4.965304    3.467949
    150          1           0      -15.114483    6.048639    2.170453
    151          1           0      -15.334601    4.262067    1.898416
    152          1           0      -16.011898    4.378612   -4.222997
    153          1           0      -17.036483    4.877798   -2.838358
    154          1           0      -17.702672    3.709970   -4.048577
    155          1           0      -15.798221   -0.996395   -4.775040
    156          1           0      -12.510300   -2.196516   -7.291433
    157          1           0      -12.206807   -3.205483   -5.737781
    158          1           0      -11.599057   -1.556717   -6.028365
 ---------------------------------------------------------------------
 Rotational constants (GHZ):           0.0209518           0.0016379           0.0016352
 Leave Link  202 at Sun Sep 12 13:15:23 2021, MaxMem= 23488102400 cpu:               0.2 elap:               0.0
 (Enter /sw/apps/gaussian-16.0/g16/l301.exe)
 Standard basis: def2SVP (5D, 7F)
 Ernie: Thresh=  0.10000D-02 Tol=  0.10000D-05 Strict=F.
 There are  1658 symmetry adapted cartesian basis functions of A   symmetry.
 There are  1572 symmetry adapted basis functions of A   symmetry.
  1572 basis functions,  2678 primitive gaussians,  1658 cartesian basis functions
   312 alpha electrons      312 beta electrons
       nuclear repulsion energy     12313.6046007295 Hartrees.
 IExCor=20419 DFT=T Ex+Corr=CAM-B3LYP ExCW=0 ScaHFX=  1.000000
 ScaDFX=  1.000000  1.000000  1.000000  0.810000 ScalE2=  1.000000  1.000000
 IRadAn=      5 IRanWt=     -1 IRanGd=            0 ICorTp=0 IEmpDi=  4
 HFx  wShort=  0.000000 wLong=  0.330000 cFull=  0.190000 cShort=  0.000000 cLong=  0.460000
 DFx  wShort=  0.000000 wLong=  0.330000 cFull=  0.190000 cShort=  0.000000 cLong=  0.460000
 NAtoms=  158 NActive=  158 NUniq=  158 SFac= 1.00D+00 NAtFMM=   60 NAOKFM=T Big=T
 Integral buffers will be    131072 words long.
 Raffenetti 1 integral format.
 Two-electron integral symmetry is turned on.
 Leave Link  301 at Sun Sep 12 13:15:23 2021, MaxMem= 23488102400 cpu:               1.3 elap:               0.1
 (Enter /sw/apps/gaussian-16.0/g16/l302.exe)
 NPDir=0 NMtPBC=     1 NCelOv=     1 NCel=       1 NClECP=     1 NCelD=      1
         NCelK=      1 NCelE2=     1 NClLst=     1 CellRange=     0.0.
 One-electron integrals computed using PRISM.
 One-electron integral symmetry used in STVInt
   1 Symmetry operations used in ECPInt.
 ECPInt:  NShTT=  271216 NPrTT=  987664 LenC2=  103957 LenP2D=  239866.
 LDataN:  DoStor=T MaxTD1= 4 Len=   56
 NBasis=  1572 RedAO= T EigKep=  3.36D-04  NBF=  1572
 NBsUse=  1572 1.00D-06 EigRej= -1.00D+00 NBFU=  1572
 Precomputing XC quadrature grid using
 IXCGrd= 4 IRadAn=           5 IRanWt=          -1 IRanGd=           0 AccXCQ= 0.00D+00.
 Generated NRdTot=       0 NPtTot=           0 NUsed=           0 NTot=          32
 NSgBfM=   812   812   812   812   812 MxSgAt=   158 MxSgA2=    79.
 Leave Link  302 at Sun Sep 12 13:15:27 2021, MaxMem= 23488102400 cpu:              94.6 elap:               4.0
 (Enter /sw/apps/gaussian-16.0/g16/l303.exe)
 DipDrv:  MaxL=1.
 Leave Link  303 at Sun Sep 12 13:15:27 2021, MaxMem= 23488102400 cpu:               9.0 elap:               0.4
 (Enter /sw/apps/gaussian-16.0/g16/l308.exe)
 Leave Link  308 at Sun Sep 12 13:15:28 2021, MaxMem= 23488102400 cpu:              12.3 elap:               0.6
 (Enter /sw/apps/gaussian-16.0/g16/l401.exe)
 ExpMin= 3.36D-02 ExpMax= 4.95D+03 ExpMxC= 7.45D+02 IAcc=3 IRadAn=         5 AccDes= 0.00D+00
 Harris functional with IExCor=20419 and IRadAn=       5 diagonalized for initial guess.
 HarFok:  IExCor=20419 AccDes= 0.00D+00 IRadAn=         5 IDoV= 1 UseB2=F ITyADJ=14
 ICtDFT=  3500011 ScaDFX=  1.000000  1.000000  1.000000  1.000000
 FoFCou: FMM=F IPFlag=           0 FMFlag=      100000 FMFlg1=        2001
         NFxFlg=           0 DoJE=T BraDBF=F KetDBF=T FulRan=T
         wScrn=  0.000000 ICntrl=       500 IOpCl=  0 I1Cent=   200000004 NGrid=           0
         NMat0=    1 NMatS0=      1 NMatT0=    0 NMatD0=    1 NMtDS0=    0 NMtDT0=    0
 Petite list used in FoFCou.
 Harris En= -3918.65801463970    
 JPrj=0 DoOrth=F DoCkMO=F.
 Leave Link  401 at Sun Sep 12 13:15:35 2021, MaxMem= 23488102400 cpu:             159.7 elap:               6.7
 (Enter /sw/apps/gaussian-16.0/g16/l502.exe)
 Integral symmetry usage will be decided dynamically.
 Closed shell SCF:
 Using DIIS extrapolation, IDIIS=  1040.
 NGot= 23488102400 LenX= 23482547354 LenY= 23479796732
 Requested convergence on RMS density matrix=1.00D-08 within 128 cycles.
 Requested convergence on MAX density matrix=1.00D-06.
 Requested convergence on             energy=1.00D-06.
 No special actions if energy rises.
 Fock matrices will be formed incrementally for  20 cycles.

 Cycle   1  Pass 1  IDiag  1:
 FoFJK:  IHMeth= 1 ICntrl=       0 DoSepK=T KAlg= 0 I1Cent=           0 FoldK=F
 IRaf=         1 NMat=       1 IRICut=       1 DoRegI=T DoRafI=F ISym2E= 0 IDoP0=0 IntGTp=1.
 FoFCou: FMM=T IPFlag=           0 FMFlag=      100000 FMFlg1=        2001
         NFxFlg=           0 DoJE=T BraDBF=F KetDBF=F FulRan=T
         wScrn=  0.000000 ICntrl=       500 IOpCl=  0 I1Cent=           0 NGrid=           0
         NMat0=    1 NMatS0=      1 NMatT0=    0 NMatD0=    1 NMtDS0=    0 NMtDT0=    0
 Symmetry not used in FoFCou.
 FMM levels:  10  Number of levels for PrismC:   9
 E= -4068.94927106044    
 DIIS: error= 2.04D-02 at cycle   1 NSaved=   1.
 NSaved= 1 IEnMin= 1 EnMin= -4068.94927106044     IErMin= 1 ErrMin= 2.04D-02
 ErrMax= 2.04D-02  0.00D+00 EMaxC= 1.00D-01 BMatC= 1.69D+00 BMatP= 1.69D+00
 IDIUse=3 WtCom= 7.96D-01 WtEn= 2.04D-01
 Coeff-Com:  0.100D+01
 Coeff-En:   0.100D+01
 Coeff:      0.100D+01
 Gap=     0.120 Goal=   None    Shift=    0.000
 GapD=    0.120 DampG=1.000 DampE=0.500 DampFc=0.5000 IDamp=-1.
 Damping current iteration by 5.00D-01
 RMSDP=1.57D-03 MaxDP=1.35D-01              OVMax= 2.03D-01

 Cycle   2  Pass 1  IDiag  1:
 RMSU=  7.69D-04    CP:  9.82D-01
 E= -4069.33818710024     Delta-E=       -0.388916039796 Rises=F Damp=T
 DIIS: error= 1.27D-02 at cycle   2 NSaved=   2.
 NSaved= 2 IEnMin= 2 EnMin= -4069.33818710024     IErMin= 2 ErrMin= 1.27D-02
 ErrMax= 1.27D-02  0.00D+00 EMaxC= 1.00D-01 BMatC= 3.07D-01 BMatP= 1.69D+00
 IDIUse=3 WtCom= 8.73D-01 WtEn= 1.27D-01
 Coeff-Com: -0.213D+00 0.121D+01
 Coeff-En:   0.000D+00 0.100D+01
 Coeff:     -0.186D+00 0.119D+01
 Gap=     0.138 Goal=   None    Shift=    0.000
 RMSDP=7.65D-04 MaxDP=9.44D-02 DE=-3.89D-01 OVMax= 1.88D-01

 Cycle   3  Pass 1  IDiag  1:
 RMSU=  7.32D-04    CP:  9.68D-01  1.24D+00
 E= -4069.62796548983     Delta-E=       -0.289778389595 Rises=F Damp=F
 DIIS: error= 1.58D-02 at cycle   3 NSaved=   3.
 NSaved= 3 IEnMin= 3 EnMin= -4069.62796548983     IErMin= 2 ErrMin= 1.27D-02
 ErrMax= 1.58D-02  0.00D+00 EMaxC= 1.00D-01 BMatC= 2.02D-01 BMatP= 3.07D-01
 IDIUse=3 WtCom= 8.42D-01 WtEn= 1.58D-01
 Coeff-Com: -0.267D+00 0.652D+00 0.616D+00
 Coeff-En:   0.000D+00 0.000D+00 0.100D+01
 Coeff:     -0.225D+00 0.549D+00 0.676D+00
 Gap=     0.125 Goal=   None    Shift=    0.000
 RMSDP=5.08D-04 MaxDP=4.87D-02 DE=-2.90D-01 OVMax= 1.43D-01

 Cycle   4  Pass 1  IDiag  1:
 RMSU=  2.65D-04    CP:  9.65D-01  1.55D+00  5.06D-01
 E= -4069.76505932958     Delta-E=       -0.137093839750 Rises=F Damp=F
 DIIS: error= 7.32D-03 at cycle   4 NSaved=   4.
 NSaved= 4 IEnMin= 4 EnMin= -4069.76505932958     IErMin= 4 ErrMin= 7.32D-03
 ErrMax= 7.32D-03  0.00D+00 EMaxC= 1.00D-01 BMatC= 5.04D-02 BMatP= 2.02D-01
 IDIUse=3 WtCom= 9.27D-01 WtEn= 7.32D-02
 Coeff-Com: -0.109D+00 0.226D+00 0.409D+00 0.474D+00
 Coeff-En:   0.000D+00 0.000D+00 0.221D+00 0.779D+00
 Coeff:     -0.101D+00 0.209D+00 0.395D+00 0.497D+00
 Gap=     0.123 Goal=   None    Shift=    0.000
 RMSDP=2.00D-04 MaxDP=2.03D-02 DE=-1.37D-01 OVMax= 6.18D-02

 Cycle   5  Pass 1  IDiag  1:
 RMSU=  7.58D-05    CP:  9.64D-01  1.49D+00  6.89D-01  5.49D-01
 E= -4069.81052455460     Delta-E=       -0.045465225017 Rises=F Damp=F
 DIIS: error= 7.88D-04 at cycle   5 NSaved=   5.
 NSaved= 5 IEnMin= 5 EnMin= -4069.81052455460     IErMin= 5 ErrMin= 7.88D-04
 ErrMax= 7.88D-04  0.00D+00 EMaxC= 1.00D-01 BMatC= 1.17D-03 BMatP= 5.04D-02
 IDIUse=3 WtCom= 9.92D-01 WtEn= 7.88D-03
 Coeff-Com: -0.357D-01 0.701D-01 0.165D+00 0.249D+00 0.551D+00
 Coeff-En:   0.000D+00 0.000D+00 0.000D+00 0.000D+00 0.100D+01
 Coeff:     -0.355D-01 0.696D-01 0.164D+00 0.247D+00 0.555D+00
 Gap=     0.122 Goal=   None    Shift=    0.000
 RMSDP=4.07D-05 MaxDP=4.17D-03 DE=-4.55D-02 OVMax= 1.64D-02

 Cycle   6  Pass 1  IDiag  1:
 RMSU=  3.02D-05    CP:  9.64D-01  1.49D+00  6.81D-01  6.21D-01  7.59D-01
 E= -4069.81153123179     Delta-E=       -0.001006677188 Rises=F Damp=F
 DIIS: error= 2.19D-04 at cycle   6 NSaved=   6.
 NSaved= 6 IEnMin= 6 EnMin= -4069.81153123179     IErMin= 6 ErrMin= 2.19D-04
 ErrMax= 2.19D-04  0.00D+00 EMaxC= 1.00D-01 BMatC= 1.76D-04 BMatP= 1.17D-03
 IDIUse=3 WtCom= 9.98D-01 WtEn= 2.19D-03
 Coeff-Com:  0.231D-02-0.677D-02 0.109D-01 0.398D-01 0.306D+00 0.648D+00
 Coeff-En:   0.000D+00 0.000D+00 0.000D+00 0.000D+00 0.102D+00 0.898D+00
 Coeff:      0.230D-02-0.676D-02 0.108D-01 0.397D-01 0.306D+00 0.648D+00
 Gap=     0.123 Goal=   None    Shift=    0.000
 RMSDP=1.58D-05 MaxDP=1.24D-03 DE=-1.01D-03 OVMax= 7.24D-03

 Cycle   7  Pass 1  IDiag  1:
 RMSU=  1.07D-05    CP:  9.64D-01  1.50D+00  6.87D-01  6.21D-01  8.60D-01
                    CP:  7.50D-01
 E= -4069.81171959460     Delta-E=       -0.000188362816 Rises=F Damp=F
 DIIS: error= 8.38D-05 at cycle   7 NSaved=   7.
 NSaved= 7 IEnMin= 7 EnMin= -4069.81171959460     IErMin= 7 ErrMin= 8.38D-05
 ErrMax= 8.38D-05  0.00D+00 EMaxC= 1.00D-01 BMatC= 2.07D-05 BMatP= 1.76D-04
 IDIUse=1 WtCom= 1.00D+00 WtEn= 0.00D+00
 Coeff-Com:  0.445D-02-0.974D-02-0.898D-02-0.382D-02 0.102D+00 0.329D+00
 Coeff-Com:  0.587D+00
 Coeff:      0.445D-02-0.974D-02-0.898D-02-0.382D-02 0.102D+00 0.329D+00
 Coeff:      0.587D+00
 Gap=     0.123 Goal=   None    Shift=    0.000
 RMSDP=6.50D-06 MaxDP=1.11D-03 DE=-1.88D-04 OVMax= 3.41D-03

 Cycle   8  Pass 1  IDiag  1:
 RMSU=  4.67D-06    CP:  9.64D-01  1.50D+00  6.88D-01  6.26D-01  8.64D-01
                    CP:  8.76D-01  8.23D-01
 E= -4069.81174530515     Delta-E=       -0.000025710542 Rises=F Damp=F
 DIIS: error= 5.00D-05 at cycle   8 NSaved=   8.
 NSaved= 8 IEnMin= 8 EnMin= -4069.81174530515     IErMin= 8 ErrMin= 5.00D-05
 ErrMax= 5.00D-05  0.00D+00 EMaxC= 1.00D-01 BMatC= 4.82D-06 BMatP= 2.07D-05
 IDIUse=1 WtCom= 1.00D+00 WtEn= 0.00D+00
 Coeff-Com:  0.215D-02-0.426D-02-0.775D-02-0.121D-01-0.117D-01 0.336D-01
 Coeff-Com:  0.344D+00 0.656D+00
 Coeff:      0.215D-02-0.426D-02-0.775D-02-0.121D-01-0.117D-01 0.336D-01
 Coeff:      0.344D+00 0.656D+00
 Gap=     0.123 Goal=   None    Shift=    0.000
 RMSDP=3.27D-06 MaxDP=3.52D-04 DE=-2.57D-05 OVMax= 1.11D-03

 Cycle   9  Pass 1  IDiag  1:
 RMSU=  1.91D-06    CP:  9.64D-01  1.50D+00  6.88D-01  6.27D-01  8.81D-01
                    CP:  9.02D-01  1.02D+00  9.40D-01
 E= -4069.81175300591     Delta-E=       -0.000007700761 Rises=F Damp=F
 DIIS: error= 1.94D-05 at cycle   9 NSaved=   9.
 NSaved= 9 IEnMin= 9 EnMin= -4069.81175300591     IErMin= 9 ErrMin= 1.94D-05
 ErrMax= 1.94D-05  0.00D+00 EMaxC= 1.00D-01 BMatC= 6.88D-07 BMatP= 4.82D-06
 IDIUse=1 WtCom= 1.00D+00 WtEn= 0.00D+00
 Coeff-Com:  0.462D-03-0.767D-03-0.266D-02-0.599D-02-0.212D-01-0.386D-01
 Coeff-Com:  0.104D+00 0.326D+00 0.639D+00
 Coeff:      0.462D-03-0.767D-03-0.266D-02-0.599D-02-0.212D-01-0.386D-01
 Coeff:      0.104D+00 0.326D+00 0.639D+00
 Gap=     0.123 Goal=   None    Shift=    0.000
 RMSDP=1.42D-06 MaxDP=1.50D-04 DE=-7.70D-06 OVMax= 7.45D-04

 Cycle  10  Pass 1  IDiag  1:
 RMSU=  9.38D-07    CP:  9.64D-01  1.50D+00  6.88D-01  6.28D-01  8.84D-01
                    CP:  9.15D-01  1.07D+00  1.11D+00  1.05D+00
 E= -4069.81175459281     Delta-E=       -0.000001586908 Rises=F Damp=F
 DIIS: error= 1.02D-05 at cycle  10 NSaved=  10.
 NSaved=10 IEnMin=10 EnMin= -4069.81175459281     IErMin=10 ErrMin= 1.02D-05
 ErrMax= 1.02D-05  0.00D+00 EMaxC= 1.00D-01 BMatC= 1.71D-07 BMatP= 6.88D-07
 IDIUse=1 WtCom= 1.00D+00 WtEn= 0.00D+00
 Coeff-Com: -0.427D-03 0.895D-03 0.123D-02 0.112D-02-0.376D-02-0.310D-01
 Coeff-Com: -0.466D-01-0.764D-01 0.255D+00 0.900D+00
 Coeff:     -0.427D-03 0.895D-03 0.123D-02 0.112D-02-0.376D-02-0.310D-01
 Coeff:     -0.466D-01-0.764D-01 0.255D+00 0.900D+00
 Gap=     0.123 Goal=   None    Shift=    0.000
 RMSDP=1.22D-06 MaxDP=1.25D-04 DE=-1.59D-06 OVMax= 6.08D-04

 Cycle  11  Pass 1  IDiag  1:
 RMSU=  5.15D-07    CP:  9.64D-01  1.50D+00  6.88D-01  6.28D-01  8.86D-01
                    CP:  9.26D-01  1.11D+00  1.22D+00  1.39D+00  1.37D+00
 E= -4069.81175538113     Delta-E=       -0.000000788319 Rises=F Damp=F
 DIIS: error= 3.99D-06 at cycle  11 NSaved=  11.
 NSaved=11 IEnMin=11 EnMin= -4069.81175538113     IErMin=11 ErrMin= 3.99D-06
 ErrMax= 3.99D-06  0.00D+00 EMaxC= 1.00D-01 BMatC= 6.10D-08 BMatP= 1.71D-07
 IDIUse=1 WtCom= 1.00D+00 WtEn= 0.00D+00
 Coeff-Com: -0.327D-03 0.635D-03 0.133D-02 0.212D-02 0.443D-02-0.833D-02
 Coeff-Com: -0.436D-01-0.132D+00-0.237D-01 0.464D+00 0.735D+00
 Coeff:     -0.327D-03 0.635D-03 0.133D-02 0.212D-02 0.443D-02-0.833D-02
 Coeff:     -0.436D-01-0.132D+00-0.237D-01 0.464D+00 0.735D+00
 Gap=     0.123 Goal=   None    Shift=    0.000
 RMSDP=6.87D-07 MaxDP=5.83D-05 DE=-7.88D-07 OVMax= 3.72D-04

 Cycle  12  Pass 1  IDiag  1:
 RMSU=  2.63D-07    CP:  9.64D-01  1.50D+00  6.88D-01  6.28D-01  8.87D-01
                    CP:  9.28D-01  1.14D+00  1.28D+00  1.56D+00  1.76D+00
                    CP:  1.20D+00
 E= -4069.81175564419     Delta-E=       -0.000000263060 Rises=F Damp=F
 DIIS: error= 2.34D-06 at cycle  12 NSaved=  12.
 NSaved=12 IEnMin=12 EnMin= -4069.81175564419     IErMin=12 ErrMin= 2.34D-06
 ErrMax= 2.34D-06  0.00D+00 EMaxC= 1.00D-01 BMatC= 1.48D-08 BMatP= 6.10D-08
 IDIUse=1 WtCom= 1.00D+00 WtEn= 0.00D+00
 Coeff-Com:  0.115D-05-0.188D-04 0.175D-03 0.504D-03 0.329D-02 0.409D-02
 Coeff-Com:  0.296D-02-0.345D-01-0.679D-01-0.774D-01 0.249D+00 0.920D+00
 Coeff:      0.115D-05-0.188D-04 0.175D-03 0.504D-03 0.329D-02 0.409D-02
 Coeff:      0.296D-02-0.345D-01-0.679D-01-0.774D-01 0.249D+00 0.920D+00
 Gap=     0.123 Goal=   None    Shift=    0.000
 RMSDP=4.39D-07 MaxDP=3.02D-05 DE=-2.63D-07 OVMax= 2.49D-04

 Cycle  13  Pass 1  IDiag  1:
 RMSU=  1.65D-07    CP:  9.64D-01  1.50D+00  6.88D-01  6.28D-01  8.87D-01
                    CP:  9.28D-01  1.14D+00  1.31D+00  1.67D+00  1.99D+00
                    CP:  1.62D+00  1.28D+00
 E= -4069.81175573603     Delta-E=       -0.000000091841 Rises=F Damp=F
 DIIS: error= 1.26D-06 at cycle  13 NSaved=  13.
 NSaved=13 IEnMin=13 EnMin= -4069.81175573603     IErMin=13 ErrMin= 1.26D-06
 ErrMax= 1.26D-06  0.00D+00 EMaxC= 1.00D-01 BMatC= 8.11D-09 BMatP= 1.48D-08
 IDIUse=1 WtCom= 1.00D+00 WtEn= 0.00D+00
 Coeff-Com:  0.120D-03-0.245D-03-0.371D-03-0.459D-03 0.565D-03 0.508D-02
 Coeff-Com:  0.197D-01 0.228D-01-0.337D-01-0.242D+00-0.157D+00 0.600D+00
 Coeff-Com:  0.785D+00
 Coeff:      0.120D-03-0.245D-03-0.371D-03-0.459D-03 0.565D-03 0.508D-02
 Coeff:      0.197D-01 0.228D-01-0.337D-01-0.242D+00-0.157D+00 0.600D+00
 Coeff:      0.785D+00
 Gap=     0.123 Goal=   None    Shift=    0.000
 RMSDP=3.39D-07 MaxDP=2.22D-05 DE=-9.18D-08 OVMax= 1.96D-04

 Cycle  14  Pass 1  IDiag  1:
 RMSU=  7.60D-08    CP:  9.64D-01  1.50D+00  6.88D-01  6.28D-01  8.88D-01
                    CP:  9.29D-01  1.15D+00  1.33D+00  1.74D+00  2.18D+00
                    CP:  1.88D+00  1.79D+00  1.09D+00
 E= -4069.81175577200     Delta-E=       -0.000000035969 Rises=F Damp=F
 DIIS: error= 6.32D-07 at cycle  14 NSaved=  14.
 NSaved=14 IEnMin=14 EnMin= -4069.81175577200     IErMin=14 ErrMin= 6.32D-07
 ErrMax= 6.32D-07  0.00D+00 EMaxC= 1.00D-01 BMatC= 1.25D-09 BMatP= 8.11D-09
 IDIUse=1 WtCom= 1.00D+00 WtEn= 0.00D+00
 Coeff-Com:  0.662D-04-0.130D-03-0.246D-03-0.386D-03-0.485D-03 0.129D-02
 Coeff-Com:  0.107D-01 0.191D-01 0.379D-02-0.994D-01-0.142D+00 0.941D-01
 Coeff-Com:  0.404D+00 0.709D+00
 Coeff:      0.662D-04-0.130D-03-0.246D-03-0.386D-03-0.485D-03 0.129D-02
 Coeff:      0.107D-01 0.191D-01 0.379D-02-0.994D-01-0.142D+00 0.941D-01
 Coeff:      0.404D+00 0.709D+00
 Gap=     0.123 Goal=   None    Shift=    0.000
 RMSDP=1.01D-07 MaxDP=7.18D-06 DE=-3.60D-08 OVMax= 5.42D-05

 Cycle  15  Pass 1  IDiag  1:
 RMSU=  3.82D-08    CP:  9.64D-01  1.50D+00  6.88D-01  6.28D-01  8.88D-01
                    CP:  9.29D-01  1.15D+00  1.34D+00  1.76D+00  2.22D+00
                    CP:  1.98D+00  1.93D+00  1.32D+00  1.03D+00
 E= -4069.81175577611     Delta-E=       -0.000000004107 Rises=F Damp=F
 DIIS: error= 3.37D-07 at cycle  15 NSaved=  15.
 NSaved=15 IEnMin=15 EnMin= -4069.81175577611     IErMin=15 ErrMin= 3.37D-07
 ErrMax= 3.37D-07  0.00D+00 EMaxC= 1.00D-01 BMatC= 2.26D-10 BMatP= 1.25D-09
 IDIUse=1 WtCom= 1.00D+00 WtEn= 0.00D+00
 Coeff-Com:  0.511D-05-0.843D-05-0.318D-04-0.806D-04-0.299D-03-0.518D-03
 Coeff-Com:  0.111D-02 0.247D-02 0.876D-02 0.199D-02-0.306D-01-0.730D-01
 Coeff-Com:  0.284D-01 0.297D+00 0.764D+00
 Coeff:      0.511D-05-0.843D-05-0.318D-04-0.806D-04-0.299D-03-0.518D-03
 Coeff:      0.111D-02 0.247D-02 0.876D-02 0.199D-02-0.306D-01-0.730D-01
 Coeff:      0.284D-01 0.297D+00 0.764D+00
 Gap=     0.123 Goal=   None    Shift=    0.000
 RMSDP=4.07D-08 MaxDP=2.87D-06 DE=-4.11D-09 OVMax= 2.69D-05

 Cycle  16  Pass 1  IDiag  1:
 RMSU=  1.87D-08    CP:  9.64D-01  1.50D+00  6.88D-01  6.28D-01  8.88D-01
                    CP:  9.29D-01  1.15D+00  1.34D+00  1.76D+00  2.24D+00
                    CP:  2.01D+00  1.99D+00  1.40D+00  1.24D+00  1.14D+00
 E= -4069.81175577666     Delta-E=       -0.000000000551 Rises=F Damp=F
 DIIS: error= 1.64D-07 at cycle  16 NSaved=  16.
 NSaved=16 IEnMin=16 EnMin= -4069.81175577666     IErMin=16 ErrMin= 1.64D-07
 ErrMax= 1.64D-07  0.00D+00 EMaxC= 1.00D-01 BMatC= 8.14D-11 BMatP= 2.26D-10
 IDIUse=1 WtCom= 1.00D+00 WtEn= 0.00D+00
 Coeff-Com: -0.142D-04 0.288D-04 0.471D-04 0.539D-04-0.261D-04-0.633D-03
 Coeff-Com: -0.198D-02-0.427D-02 0.452D-02 0.256D-01 0.206D-01-0.646D-01
 Coeff-Com: -0.833D-01-0.368D-01 0.397D+00 0.743D+00
 Coeff:     -0.142D-04 0.288D-04 0.471D-04 0.539D-04-0.261D-04-0.633D-03
 Coeff:     -0.198D-02-0.427D-02 0.452D-02 0.256D-01 0.206D-01-0.646D-01
 Coeff:     -0.833D-01-0.368D-01 0.397D+00 0.743D+00
 Gap=     0.123 Goal=   None    Shift=    0.000
 RMSDP=2.28D-08 MaxDP=1.50D-06 DE=-5.51D-10 OVMax= 1.30D-05

 Cycle  17  Pass 1  IDiag  1:
 RMSU=  1.04D-08    CP:  9.64D-01  1.50D+00  6.88D-01  6.28D-01  8.88D-01
                    CP:  9.29D-01  1.15D+00  1.34D+00  1.77D+00  2.24D+00
                    CP:  2.02D+00  2.01D+00  1.45D+00  1.34D+00  1.44D+00
                    CP:  1.25D+00
 E= -4069.81175577685     Delta-E=       -0.000000000189 Rises=F Damp=F
 DIIS: error= 9.40D-08 at cycle  17 NSaved=  17.
 NSaved=17 IEnMin=17 EnMin= -4069.81175577685     IErMin=17 ErrMin= 9.40D-08
 ErrMax= 9.40D-08  0.00D+00 EMaxC= 1.00D-01 BMatC= 1.78D-11 BMatP= 8.14D-11
 IDIUse=1 WtCom= 1.00D+00 WtEn= 0.00D+00
 Coeff-Com: -0.717D-05 0.139D-04 0.285D-04 0.424D-04 0.841D-04-0.122D-03
 Coeff-Com: -0.959D-03-0.279D-02 0.130D-03 0.919D-02 0.174D-01-0.721D-02
 Coeff-Com: -0.369D-01-0.101D+00-0.317D-01 0.294D+00 0.860D+00
 Coeff:     -0.717D-05 0.139D-04 0.285D-04 0.424D-04 0.841D-04-0.122D-03
 Coeff:     -0.959D-03-0.279D-02 0.130D-03 0.919D-02 0.174D-01-0.721D-02
 Coeff:     -0.369D-01-0.101D+00-0.317D-01 0.294D+00 0.860D+00
 Gap=     0.123 Goal=   None    Shift=    0.000
 RMSDP=1.37D-08 MaxDP=1.03D-06 DE=-1.89D-10 OVMax= 8.88D-06

 Cycle  18  Pass 1  IDiag  1:
 RMSU=  4.86D-09    CP:  9.64D-01  1.50D+00  6.88D-01  6.28D-01  8.88D-01
                    CP:  9.29D-01  1.15D+00  1.34D+00  1.77D+00  2.24D+00
                    CP:  2.03D+00  2.02D+00  1.47D+00  1.41D+00  1.61D+00
                    CP:  1.66D+00  1.39D+00
 E= -4069.81175577731     Delta-E=       -0.000000000460 Rises=F Damp=F
 DIIS: error= 5.08D-08 at cycle  18 NSaved=  18.
 NSaved=18 IEnMin=18 EnMin= -4069.81175577731     IErMin=18 ErrMin= 5.08D-08
 ErrMax= 5.08D-08  0.00D+00 EMaxC= 1.00D-01 BMatC= 6.89D-12 BMatP= 1.78D-11
 IDIUse=1 WtCom= 1.00D+00 WtEn= 0.00D+00
 Coeff-Com:  0.209D-05-0.448D-05-0.471D-05-0.189D-05 0.589D-04 0.184D-03
 Coeff-Com:  0.409D-03 0.237D-03-0.129D-02-0.625D-02-0.187D-03 0.203D-01
 Coeff-Com:  0.186D-01-0.325D-01-0.163D+00-0.193D+00 0.348D+00 0.101D+01
 Coeff:      0.209D-05-0.448D-05-0.471D-05-0.189D-05 0.589D-04 0.184D-03
 Coeff:      0.409D-03 0.237D-03-0.129D-02-0.625D-02-0.187D-03 0.203D-01
 Coeff:      0.186D-01-0.325D-01-0.163D+00-0.193D+00 0.348D+00 0.101D+01
 Gap=     0.123 Goal=   None    Shift=    0.000
 RMSDP=1.18D-08 MaxDP=7.95D-07 DE=-4.60D-10 OVMax= 6.81D-06

 Cycle  19  Pass 1  IDiag  1:
 RMSU=  2.78D-09    CP:  9.64D-01  1.50D+00  6.88D-01  6.28D-01  8.88D-01
                    CP:  9.29D-01  1.15D+00  1.34D+00  1.77D+00  2.24D+00
                    CP:  2.03D+00  2.03D+00  1.48D+00  1.46D+00  1.77D+00
                    CP:  1.99D+00  1.94D+00  1.38D+00
 E= -4069.81175577708     Delta-E=        0.000000000235 Rises=F Damp=F
 DIIS: error= 3.37D-08 at cycle  19 NSaved=  19.
 NSaved=19 IEnMin=18 EnMin= -4069.81175577731     IErMin=19 ErrMin= 3.37D-08
 ErrMax= 3.37D-08  0.00D+00 EMaxC= 1.00D-01 BMatC= 1.39D-12 BMatP= 6.89D-12
 IDIUse=1 WtCom= 1.00D+00 WtEn= 0.00D+00
 Coeff-Com:  0.286D-05-0.577D-05-0.981D-05-0.123D-04 0.106D-04 0.117D-03
 Coeff-Com:  0.472D-03 0.788D-03-0.583D-03-0.589D-02-0.478D-02 0.119D-01
 Coeff-Com:  0.199D-01 0.113D-01-0.678D-01-0.176D+00-0.337D-01 0.487D+00
 Coeff-Com:  0.757D+00
 Coeff:      0.286D-05-0.577D-05-0.981D-05-0.123D-04 0.106D-04 0.117D-03
 Coeff:      0.472D-03 0.788D-03-0.583D-03-0.589D-02-0.478D-02 0.119D-01
 Coeff:      0.199D-01 0.113D-01-0.678D-01-0.176D+00-0.337D-01 0.487D+00
 Coeff:      0.757D+00
 Gap=     0.123 Goal=   None    Shift=    0.000
 RMSDP=4.48D-09 MaxDP=3.16D-07 DE= 2.35D-10 OVMax= 2.90D-06

 SCF Done:  E(RCAM-B3LYP) =  -4069.81175578     A.U. after   19 cycles
            NFock= 19  Conv=0.45D-08     -V/T= 2.0102
 KE= 4.028802046479D+03 PE=-3.410814406437D+04 EE= 1.369592566138D+04
 Leave Link  502 at Sun Sep 12 13:23:54 2021, MaxMem= 23488102400 cpu:           11374.8 elap:             498.7
 (Enter /sw/apps/gaussian-16.0/g16/l801.exe)
 DoSCS=F DFT=T ScalE2(SS,OS)=  1.000000  1.000000
 ExpMin= 3.36D-02 ExpMax= 4.95D+03 ExpMxC= 7.45D+02 IAcc=3 IRadAn=         5 AccDes= 0.00D+00
 HarFok:  IExCor=  205 AccDes= 0.00D+00 IRadAn=         5 IDoV=-2 UseB2=F ITyADJ=14
 ICtDFT= 12500011 ScaDFX=  1.000000  1.000000  1.000000  1.000000
 GSVD:  LWork=       -9588 too small for GESVD, short by       45590 words or       45590 for optimal perf.
 Largest valence mixing into a core orbital is  2.03D-04
 Largest core mixing into a valence orbital is  5.24D-05
 Range of M.O.s used for correlation:    95  1572
 NBasis=  1572 NAE=   312 NBE=   312 NFC=    94 NFV=     0
 NROrb=   1478 NOA=   218 NOB=   218 NVA=  1260 NVB=  1260
 Leave Link  801 at Sun Sep 12 13:23:54 2021, MaxMem= 23488102400 cpu:               8.4 elap:               0.4
 (Enter /sw/apps/gaussian-16.0/g16/l914.exe)
 RHF ground state
 Two-electron integrals replicated using symmetry.
 MDV= 23488102400 DFT=T DoStab=F Mixed=T DoRPA=T DoScal=F NonHer=T
 Making orbital integer symmetry assigments:
 Orbital symmetries:
       Occupied  (A) (A) (A) (A) (A) (A) (A) (A) (A) (A) (A) (A)
                 (A) (A) (A) (A) (A) (A) (A) (A) (A) (A) (A) (A)
                 (A) (A) (A) (A) (A) (A) (A) (A) (A) (A) (A) (A)
                 (A) (A) (A) (A) (A) (A) (A) (A) (A) (A) (A) (A)
                 (A) (A) (A) (A) (A) (A) (A) (A) (A) (A) (A) (A)
                 (A) (A) (A) (A) (A) (A) (A) (A) (A) (A) (A) (A)
                 (A) (A) (A) (A) (A) (A) (A) (A) (A) (A) (A) (A)
                 (A) (A) (A) (A) (A) (A) (A) (A) (A) (A) (A) (A)
                 (A) (A) (A) (A) (A) (A) (A) (A) (A) (A) (A) (A)
                 (A) (A) (A) (A) (A) (A) (A) (A) (A) (A) (A) (A)
                 (A) (A) (A) (A) (A) (A) (A) (A) (A) (A) (A) (A)
                 (A) (A) (A) (A) (A) (A) (A) (A) (A) (A) (A) (A)
                 (A) (A) (A) (A) (A) (A) (A) (A) (A) (A) (A) (A)
                 (A) (A) (A) (A) (A) (A) (A) (A) (A) (A) (A) (A)
                 (A) (A) (A) (A) (A) (A) (A) (A) (A) (A) (A) (A)
                 (A) (A) (A) (A) (A) (A) (A) (A) (A) (A) (A) (A)
                 (A) (A) (A) (A) (A) (A) (A) (A) (A) (A) (A) (A)
                 (A) (A) (A) (A) (A) (A) (A) (A) (A) (A) (A) (A)
                 (A) (A) (A) (A) (A) (A) (A) (A) (A) (A) (A) (A)
                 (A) (A) (A) (A) (A) (A) (A) (A) (A) (A) (A) (A)
                 (A) (A) (A) (A) (A) (A) (A) (A) (A) (A) (A) (A)
                 (A) (A) (A) (A) (A) (A) (A) (A) (A) (A) (A) (A)
                 (A) (A) (A) (A) (A) (A) (A) (A) (A) (A) (A) (A)
                 (A) (A) (A) (A) (A) (A) (A) (A) (A) (A) (A) (A)
                 (A) (A) (A) (A) (A) (A) (A) (A) (A) (A) (A) (A)
                 (A) (A) (A) (A) (A) (A) (A) (A) (A) (A) (A) (A)
       Virtual   (A) (A) (A) (A) (A) (A) (A) (A) (A) (A) (A) (A)
                 (A) (A) (A) (A) (A) (A) (A) (A) (A) (A) (A) (A)
                 (A) (A) (A) (A) (A) (A) (A) (A) (A) (A) (A) (A)
                 (A) (A) (A) (A) (A) (A) (A) (A) (A) (A) (A) (A)
                 (A) (A) (A) (A) (A) (A) (A) (A) (A) (A) (A) (A)
                 (A) (A) (A) (A) (A) (A) (A) (A) (A) (A) (A) (A)
                 (A) (A) (A) (A) (A) (A) (A) (A) (A) (A) (A) (A)
                 (A) (A) (A) (A) (A) (A) (A) (A) (A) (A) (A) (A)
                 (A) (A) (A) (A) (A) (A) (A) (A) (A) (A) (A) (A)
                 (A) (A) (A) (A) (A) (A) (A) (A) (A) (A) (A) (A)
                 (A) (A) (A) (A) (A) (A) (A) (A) (A) (A) (A) (A)
                 (A) (A) (A) (A) (A) (A) (A) (A) (A) (A) (A) (A)
                 (A) (A) (A) (A) (A) (A) (A) (A) (A) (A) (A) (A)
                 (A) (A) (A) (A) (A) (A) (A) (A) (A) (A) (A) (A)
                 (A) (A) (A) (A) (A) (A) (A) (A) (A) (A) (A) (A)
                 (A) (A) (A) (A) (A) (A) (A) (A) (A) (A) (A) (A)
                 (A) (A) (A) (A) (A) (A) (A) (A) (A) (A) (A) (A)
                 (A) (A) (A) (A) (A) (A) (A) (A) (A) (A) (A) (A)
                 (A) (A) (A) (A) (A) (A) (A) (A) (A) (A) (A) (A)
                 (A) (A) (A) (A) (A) (A) (A) (A) (A) (A) (A) (A)
                 (A) (A) (A) (A) (A) (A) (A) (A) (A) (A) (A) (A)
                 (A) (A) (A) (A) (A) (A) (A) (A) (A) (A) (A) (A)
                 (A) (A) (A) (A) (A) (A) (A) (A) (A) (A) (A) (A)
                 (A) (A) (A) (A) (A) (A) (A) (A) (A) (A) (A) (A)
                 (A) (A) (A) (A) (A) (A) (A) (A) (A) (A) (A) (A)
                 (A) (A) (A) (A) (A) (A) (A) (A) (A) (A) (A) (A)
                 (A) (A) (A) (A) (A) (A) (A) (A) (A) (A) (A) (A)
                 (A) (A) (A) (A) (A) (A) (A) (A) (A) (A) (A) (A)
                 (A) (A) (A) (A) (A) (A) (A) (A) (A) (A) (A) (A)
                 (A) (A) (A) (A) (A) (A) (A) (A) (A) (A) (A) (A)
                 (A) (A) (A) (A) (A) (A) (A) (A) (A) (A) (A) (A)
                 (A) (A) (A) (A) (A) (A) (A) (A) (A) (A) (A) (A)
                 (A) (A) (A) (A) (A) (A) (A) (A) (A) (A) (A) (A)
                 (A) (A) (A) (A) (A) (A) (A) (A) (A) (A) (A) (A)
                 (A) (A) (A) (A) (A) (A) (A) (A) (A) (A) (A) (A)
                 (A) (A) (A) (A) (A) (A) (A) (A) (A) (A) (A) (A)
                 (A) (A) (A) (A) (A) (A) (A) (A) (A) (A) (A) (A)
                 (A) (A) (A) (A) (A) (A) (A) (A) (A) (A) (A) (A)
                 (A) (A) (A) (A) (A) (A) (A) (A) (A) (A) (A) (A)
                 (A) (A) (A) (A) (A) (A) (A) (A) (A) (A) (A) (A)
                 (A) (A) (A) (A) (A) (A) (A) (A) (A) (A) (A) (A)
                 (A) (A) (A) (A) (A) (A) (A) (A) (A) (A) (A) (A)
                 (A) (A) (A) (A) (A) (A) (A) (A) (A) (A) (A) (A)
                 (A) (A) (A) (A) (A) (A) (A) (A) (A) (A) (A) (A)
                 (A) (A) (A) (A) (A) (A) (A) (A) (A) (A) (A) (A)
                 (A) (A) (A) (A) (A) (A) (A) (A) (A) (A) (A) (A)
                 (A) (A) (A) (A) (A) (A) (A) (A) (A) (A) (A) (A)
                 (A) (A) (A) (A) (A) (A) (A) (A) (A) (A) (A) (A)
                 (A) (A) (A) (A) (A) (A) (A) (A) (A) (A) (A) (A)
                 (A) (A) (A) (A) (A) (A) (A) (A) (A) (A) (A) (A)
                 (A) (A) (A) (A) (A) (A) (A) (A) (A) (A) (A) (A)
                 (A) (A) (A) (A) (A) (A) (A) (A) (A) (A) (A) (A)
                 (A) (A) (A) (A) (A) (A) (A) (A) (A) (A) (A) (A)
                 (A) (A) (A) (A) (A) (A) (A) (A) (A) (A) (A) (A)
                 (A) (A) (A) (A) (A) (A) (A) (A) (A) (A) (A) (A)
                 (A) (A) (A) (A) (A) (A) (A) (A) (A) (A) (A) (A)
                 (A) (A) (A) (A) (A) (A) (A) (A) (A) (A) (A) (A)
                 (A) (A) (A) (A) (A) (A) (A) (A) (A) (A) (A) (A)
                 (A) (A) (A) (A) (A) (A) (A) (A) (A) (A) (A) (A)
                 (A) (A) (A) (A) (A) (A) (A) (A) (A) (A) (A) (A)
                 (A) (A) (A) (A) (A) (A) (A) (A) (A) (A) (A) (A)
                 (A) (A) (A) (A) (A) (A) (A) (A) (A) (A) (A) (A)
                 (A) (A) (A) (A) (A) (A) (A) (A) (A) (A) (A) (A)
                 (A) (A) (A) (A) (A) (A) (A) (A) (A) (A) (A) (A)
                 (A) (A) (A) (A) (A) (A) (A) (A) (A) (A) (A) (A)
                 (A) (A) (A) (A) (A) (A) (A) (A) (A) (A) (A) (A)
                 (A) (A) (A) (A) (A) (A) (A) (A) (A) (A) (A) (A)
                 (A) (A) (A) (A) (A) (A) (A) (A) (A) (A) (A) (A)
                 (A) (A) (A) (A) (A) (A) (A) (A) (A) (A) (A) (A)
                 (A) (A) (A) (A) (A) (A) (A) (A) (A) (A) (A) (A)
                 (A) (A) (A) (A) (A) (A) (A) (A) (A) (A) (A) (A)
                 (A) (A) (A) (A) (A) (A) (A) (A) (A) (A) (A) (A)
                 (A) (A) (A) (A) (A) (A) (A) (A) (A) (A) (A) (A)
                 (A) (A) (A) (A) (A) (A) (A) (A) (A) (A) (A) (A)
                 (A) (A) (A) (A) (A) (A) (A) (A) (A) (A) (A) (A)
                 (A) (A) (A) (A) (A) (A) (A) (A) (A) (A) (A) (A)
                 (A) (A) (A) (A) (A) (A) (A) (A) (A) (A) (A) (A)
                 (A) (A) (A) (A) (A) (A) (A) (A) (A) (A) (A) (A)
                 (A) (A) (A) (A) (A) (A) (A) (A) (A) (A) (A) (A)
                 (A) (A) (A) (A) (A) (A) (A) (A) (A) (A) (A) (A)
                 (A) (A) (A) (A) (A) (A) (A) (A) (A) (A) (A) (A)
                 (A) (A) (A) (A) (A) (A) (A) (A) (A) (A) (A) (A)
                 (A) (A) (A) (A) (A) (A) (A) (A) (A) (A) (A) (A)
                 (A) (A) (A) (A) (A) (A) (A) (A) (A) (A) (A) (A)
                 (A) (A) (A) (A) (A) (A) (A) (A) (A) (A) (A) (A)
                 (A) (A) (A) (A) (A) (A) (A) (A) (A) (A) (A) (A)
                 (A) (A) (A) (A) (A) (A) (A) (A) (A) (A) (A) (A)
                 (A) (A) (A) (A) (A) (A) (A) (A) (A) (A) (A) (A)
                 (A) (A) (A) (A) (A) (A) (A) (A) (A) (A) (A) (A)
                 (A) (A) (A) (A) (A) (A) (A) (A) (A) (A) (A) (A)
                 (A) (A) (A) (A) (A) (A) (A) (A) (A) (A) (A) (A)
                 (A) (A) (A) (A) (A) (A) (A) (A) (A) (A) (A) (A)
                 (A) (A) (A) (A) (A) (A) (A) (A) (A) (A) (A) (A)
                 (A) (A) (A) (A) (A) (A) (A) (A) (A) (A) (A) (A)
                 (A) (A) (A) (A) (A) (A) (A) (A) (A) (A) (A) (A)
                 (A) (A) (A) (A) (A) (A) (A) (A) (A) (A) (A) (A)
                 (A) (A) (A) (A) (A) (A) (A) (A) (A) (A) (A) (A)
                 (A) (A) (A) (A) (A) (A) (A) (A) (A) (A) (A) (A)
                 (A) (A) (A) (A) (A) (A) (A) (A) (A) (A) (A) (A)
                 (A) (A) (A) (A) (A) (A) (A) (A) (A) (A) (A) (A)
                 (A) (A) (A) (A) (A) (A) (A) (A) (A) (A) (A) (A)
                 (A) (A) (A) (A) (A) (A) (A) (A) (A) (A) (A) (A)
                 (A) (A) (A) (A) (A) (A) (A) (A) (A) (A) (A) (A)
                 (A) (A) (A) (A) (A) (A) (A) (A) (A) (A) (A) (A)
                 (A) (A) (A) (A) (A) (A) (A) (A) (A) (A) (A) (A)
    20 initial guesses have been made.
 Convergence on wavefunction:    0.001000000000000
 Davidson Disk Diagonalization:  ConvIn= 1.00D-03 SkipCon=T Conv= 1.00D-03.
 Max sub-space:  2000 roots to seek:    20 dimension of matrix:       549360
 Iteration     1 Dimension    20 NMult     0 NNew     20
 CISAX will form    20 AO SS matrices at one time.
 NMat=    20 NSing=    20 JSym2X= 0.
 FoFJK:  IHMeth= 1 ICntrl=       0 DoSepK=T KAlg= 0 I1Cent=           0 FoldK=F
 IRaf=         1 NMat=      40 IRICut=       1 DoRegI=T DoRafI=F ISym2E= 0 IDoP0=3 IntGTp=3.
 FoFCou: FMM=T IPFlag=           0 FMFlag=      100000 FMFlg1=        2001
         NFxFlg=           0 DoJE=F BraDBF=F KetDBF=F FulRan=T
         wScrn=  0.000000 ICntrl=       500 IOpCl=  0 I1Cent=           0 NGrid=           0
         NMat0=   20 NMatS0=     20 NMatT0=    0 NMatD0=   20 NMtDS0=    0 NMtDT0=    0
 Symmetry not used in FoFCou.
 FMM levels:  10  Number of levels for PrismC:   9
 New state      1 was old state      8
 New state      2 was old state      5
 New state      3 was old state      2
 New state      4 was old state      3
 New state      5 was old state      1
 Excitation Energies [eV] at current iteration:
 Root      1 :     2.614455227984597
 Root      2 :     2.619371876111531
 Root      3 :     2.680387066130139
 Root      4 :     2.690274153528042
 Root      5 :     3.060820616535347
 Root      6 :     3.080804163108893
 Root      7 :     3.628498877789526
 Root      8 :     3.668913986767673
 Root      9 :     3.735902101548394
 Root     10 :     3.759345202233292
 Root     11 :     3.864090431099386
 Root     12 :     3.874431664882567
 Root     13 :     4.303206362713350
 Root     14 :     4.306455613469647
 Root     15 :     4.991537581027360
 Root     16 :     4.996543336921187
 Root     17 :     5.281866803970044
 Root     18 :     5.289237845135231
 Root     19 :     5.314300930061048
 Root     20 :     5.323609689491634
 Iteration     2 Dimension    30 NMult    20 NNew     10
 CISAX will form    10 AO SS matrices at one time.
 NMat=    10 NSing=    10 JSym2X= 0.
 New state      1 was old state      3
 Root      1 not converged, maximum delta is    0.187106832462659
 New state      2 was old state      4
 Root      2 not converged, maximum delta is    0.188468268447663
 New state      3 was old state      2
 Root      3 not converged, maximum delta is    0.066090432388635
 New state      4 was old state      1
 Root      4 not converged, maximum delta is    0.089874172172081
 Root      5 has converged.
 Excitation Energies [eV] at current iteration:
 Root      1 :     1.801344495876660   Change is   -0.879042570253479
 Root      2 :     1.807437676081610   Change is   -0.882836477446432
 Root      3 :     2.235861168192778   Change is   -0.383510707918753
 Root      4 :     2.239080972235685   Change is   -0.375374255748912
 Root      5 :     3.060813160140152   Change is   -0.000007456395195
 Iteration     3 Dimension    38 NMult    30 NNew      8
 CISAX will form     8 AO SS matrices at one time.
 NMat=     8 NSing=     8 JSym2X= 0.
 Root      1 not converged, maximum delta is    0.069340870307961
 Root      2 not converged, maximum delta is    0.070501724147990
 Root      3 not converged, maximum delta is    0.044054784377157
 Root      4 not converged, maximum delta is    0.042620632717987
 Root      5 has converged.
 Excitation Energies [eV] at current iteration:
 Root      1 :     1.694100121260756   Change is   -0.107244374615904
 Root      2 :     1.699045112135012   Change is   -0.108392563946599
 Root      3 :     2.194359089670512   Change is   -0.041502078522266
 Root      4 :     2.200163866835618   Change is   -0.038917105400066
 Root      5 :     3.060813160140125   Change is   -0.000000000000027
 Iteration     4 Dimension    46 NMult    38 NNew      8
 CISAX will form     8 AO SS matrices at one time.
 NMat=     8 NSing=     8 JSym2X= 0.
 Root      1 not converged, maximum delta is    0.013016480344056
 Root      2 not converged, maximum delta is    0.013273373234979
 Root      3 not converged, maximum delta is    0.009750395055176
 Root      4 not converged, maximum delta is    0.008914816640014
 Root      5 has converged.
 Excitation Energies [eV] at current iteration:
 Root      1 :     1.677385181069358   Change is   -0.016714940191398
 Root      2 :     1.682168260043114   Change is   -0.016876852091898
 Root      3 :     2.187051123701306   Change is   -0.007307965969206
 Root      4 :     2.193384338046988   Change is   -0.006779528788630
 Root      5 :     3.060813160140125   Change is    0.000000000000000
 Iteration     5 Dimension    54 NMult    46 NNew      8
 CISAX will form     8 AO SS matrices at one time.
 NMat=     8 NSing=     8 JSym2X= 0.
 Root      1 not converged, maximum delta is    0.002162987361466
 Root      2 not converged, maximum delta is    0.002164319168977
 Root      3 not converged, maximum delta is    0.002502064009603
 Root      4 not converged, maximum delta is    0.002388364584637
 Root      5 has converged.
 Excitation Energies [eV] at current iteration:
 Root      1 :     1.675606692263476   Change is   -0.001778488805882
 Root      2 :     1.680395394520864   Change is   -0.001772865522250
 Root      3 :     2.186204270747541   Change is   -0.000846852953765
 Root      4 :     2.192607266738126   Change is   -0.000777071308863
 Root      5 :     3.060813160140098   Change is   -0.000000000000027
 Iteration     6 Dimension    62 NMult    54 NNew      8
 CISAX will form     8 AO SS matrices at one time.
 NMat=     8 NSing=     8 JSym2X= 0.
 Root      1 not converged, maximum delta is    0.001355981718807
 Root      2 not converged, maximum delta is    0.001376049742188
 Root      3 not converged, maximum delta is    0.001070759874063
 Root      4 not converged, maximum delta is    0.001015040825403
 Root      5 has converged.
 Excitation Energies [eV] at current iteration:
 Root      1 :     1.675352936119402   Change is   -0.000253756144074
 Root      2 :     1.680140412582750   Change is   -0.000254981938115
 Root      3 :     2.186075930294662   Change is   -0.000128340452879
 Root      4 :     2.192489450647851   Change is   -0.000117816090275
 Root      5 :     3.060813160140125   Change is    0.000000000000027
 Iteration     7 Dimension    70 NMult    62 NNew      8
 CISAX will form     8 AO SS matrices at one time.
 NMat=     8 NSing=     8 JSym2X= 0.
 Root      1 has converged.
 Root      2 has converged.
 Root      3 has converged.
 Root      4 has converged.
 Root      5 has converged.
 Excitation Energies [eV] at current iteration:
 Root      1 :     1.675328689617470   Change is   -0.000024246501933
[...]
 Alpha virt. eigenvalues --    1.84481   1.84520   1.84742   1.84880   1.85081
 Alpha virt. eigenvalues --    1.85173   1.85302   1.85344   1.85443   1.85550
 Alpha virt. eigenvalues --    1.85855   1.85937   1.86337   1.86429   1.86607
 Alpha virt. eigenvalues --    1.86625   1.86779   1.86853   1.87000   1.87110
 Alpha virt. eigenvalues --    1.87438   1.87516   1.87728   1.87751   1.87938
 Alpha virt. eigenvalues --    1.87967   1.88110   1.88133   1.88527   1.88605
 Alpha virt. eigenvalues --    1.88892   1.88893   1.89027   1.89195   1.89614
 Alpha virt. eigenvalues --    1.89694   1.89815   1.89831   1.90144   1.90188
 Alpha virt. eigenvalues --    1.90822   1.90849   1.91379   1.91419   1.91509
 Alpha virt. eigenvalues --    1.91546   1.92137   1.92224   1.92617   1.92698
 Alpha virt. eigenvalues --    1.93051   1.93103   1.93406   1.93455   1.94262
 Alpha virt. eigenvalues --    1.94352   1.94757   1.94768   1.95543   1.95544
 Alpha virt. eigenvalues --    1.95768   1.95798   1.96001   1.96066   1.96128
 Alpha virt. eigenvalues --    1.96221   1.96436   1.96665   1.96889   1.96968
 Alpha virt. eigenvalues --    1.97496   1.97520   1.97756   1.97905   1.98121
 Alpha virt. eigenvalues --    1.98240   1.98305   1.98748   1.99024   1.99206
 Alpha virt. eigenvalues --    1.99885   1.99893   2.00678   2.00729   2.01050
 Alpha virt. eigenvalues --    2.01067   2.01458   2.01552   2.01562   2.01742
 Alpha virt. eigenvalues --    2.01779   2.01790   2.02663   2.02855   2.03092
 Alpha virt. eigenvalues --    2.03304   2.03332   2.03474   2.03475   2.03556
 Alpha virt. eigenvalues --    2.03979   2.04106   2.04928   2.05027   2.05581
 Alpha virt. eigenvalues --    2.05583   2.06148   2.06238   2.06975   2.06988
 Alpha virt. eigenvalues --    2.07254   2.07299   2.08503   2.08653   2.08957
 Alpha virt. eigenvalues --    2.09051   2.09564   2.09660   2.10846   2.10983
 Alpha virt. eigenvalues --    2.11252   2.11357   2.11485   2.11610   2.11797
 Alpha virt. eigenvalues --    2.11816   2.12417   2.12535   2.12751   2.12820
 Alpha virt. eigenvalues --    2.12873   2.12904   2.13582   2.13838   2.14200
 Alpha virt. eigenvalues --    2.14204   2.15357   2.15405   2.15995   2.16031
 Alpha virt. eigenvalues --    2.16542   2.16590   2.16824   2.17122   2.17485
 Alpha virt. eigenvalues --    2.17597   2.17772   2.17883   2.17952   2.18138
 Alpha virt. eigenvalues --    2.18395   2.18624   2.18938   2.19186   2.19710
 Alpha virt. eigenvalues --    2.19769   2.20108   2.20193   2.20281   2.20388
 Alpha virt. eigenvalues --    2.21120   2.21217   2.21713   2.21738   2.21814
 Alpha virt. eigenvalues --    2.21826   2.22650   2.22748   2.23290   2.23382
 Alpha virt. eigenvalues --    2.24367   2.24462   2.24953   2.25025   2.26368
 Alpha virt. eigenvalues --    2.26389   2.26847   2.26957   2.27152   2.27171
 Alpha virt. eigenvalues --    2.28205   2.28262   2.29335   2.29384   2.29804
 Alpha virt. eigenvalues --    2.29827   2.30524   2.30571   2.30778   2.31148
 Alpha virt. eigenvalues --    2.31151   2.31252   2.32186   2.32187   2.33182
 Alpha virt. eigenvalues --    2.33203   2.33431   2.33529   2.34088   2.34206
 Alpha virt. eigenvalues --    2.35249   2.35441   2.35856   2.35864   2.36279
 Alpha virt. eigenvalues --    2.36394   2.36418   2.36691   2.37622   2.37725
 Alpha virt. eigenvalues --    2.38323   2.38327   2.38730   2.38925   2.39614
 Alpha virt. eigenvalues --    2.39678   2.40212   2.40248   2.40554   2.40775
 Alpha virt. eigenvalues --    2.41160   2.41337   2.41639   2.41753   2.42074
 Alpha virt. eigenvalues --    2.42108   2.42765   2.43008   2.43023   2.43606
 Alpha virt. eigenvalues --    2.43921   2.44237   2.44749   2.44797   2.44932
 Alpha virt. eigenvalues --    2.44970   2.45513   2.45613   2.46228   2.46366
 Alpha virt. eigenvalues --    2.46438   2.46544   2.46742   2.46866   2.47319
 Alpha virt. eigenvalues --    2.47320   2.47779   2.47827   2.49333   2.49374
 Alpha virt. eigenvalues --    2.49833   2.50133   2.50396   2.50614   2.51187
 Alpha virt. eigenvalues --    2.51208   2.51551   2.51952   2.52340   2.52507
 Alpha virt. eigenvalues --    2.52875   2.53102   2.53908   2.53983   2.54212
 Alpha virt. eigenvalues --    2.54221   2.54745   2.54853   2.55583   2.55604
 Alpha virt. eigenvalues --    2.57928   2.58014   2.58707   2.58839   2.60238
 Alpha virt. eigenvalues --    2.60273   2.60678   2.60860   2.61756   2.61774
 Alpha virt. eigenvalues --    2.62366   2.62598   2.63021   2.63061   2.64001
 Alpha virt. eigenvalues --    2.64153   2.64307   2.64358   2.65032   2.65144
 Alpha virt. eigenvalues --    2.65795   2.65852   2.66753   2.66841   2.66973
 Alpha virt. eigenvalues --    2.66988   2.67912   2.67972   2.68751   2.68922
 Alpha virt. eigenvalues --    2.68966   2.69089   2.69454   2.69525   2.70062
 Alpha virt. eigenvalues --    2.70068   2.70999   2.71045   2.71826   2.72119
 Alpha virt. eigenvalues --    2.72426   2.72668   2.72719   2.72897   2.73215
 Alpha virt. eigenvalues --    2.73338   2.73404   2.73601   2.74436   2.74575
 Alpha virt. eigenvalues --    2.74984   2.75039   2.76448   2.76654   2.76994
 Alpha virt. eigenvalues --    2.77297   2.77519   2.77532   2.78222   2.78252
 Alpha virt. eigenvalues --    2.78616   2.78795   2.79084   2.79198   2.80191
 Alpha virt. eigenvalues --    2.80408   2.80618   2.80655   2.81076   2.81180
 Alpha virt. eigenvalues --    2.81916   2.81998   2.82259   2.82404   2.83771
 Alpha virt. eigenvalues --    2.83816   2.83830   2.83831   2.84450   2.84608
 Alpha virt. eigenvalues --    2.84808   2.84945   2.85616   2.85730   2.86584
 Alpha virt. eigenvalues --    2.87060   2.87103   2.87675   2.88161   2.88217
 Alpha virt. eigenvalues --    2.88539   2.88572   2.88794   2.88997   2.90561
 Alpha virt. eigenvalues --    2.90582   2.90990   2.91250   2.93219   2.93243
 Alpha virt. eigenvalues --    2.93692   2.94263   2.94493   2.94619   2.95396
 Alpha virt. eigenvalues --    2.95432   2.95769   2.96270   2.96296   2.96504
 Alpha virt. eigenvalues --    2.96798   2.97244   2.97883   2.97952   2.98271
 Alpha virt. eigenvalues --    2.98281   2.98429   2.98494   2.98665   2.98700
 Alpha virt. eigenvalues --    2.98842   2.98945   2.99647   2.99721   2.99942
 Alpha virt. eigenvalues --    3.00097   3.00257   3.00285   3.00526   3.00913
 Alpha virt. eigenvalues --    3.01822   3.02037   3.02051   3.02096   3.02746
 Alpha virt. eigenvalues --    3.02800   3.03044   3.03236   3.03389   3.03629
 Alpha virt. eigenvalues --    3.03973   3.04233   3.04352   3.04514   3.04610
 Alpha virt. eigenvalues --    3.04647   3.05270   3.05356   3.06083   3.06176
 Alpha virt. eigenvalues --    3.06856   3.06869   3.07840   3.08207   3.09274
 Alpha virt. eigenvalues --    3.09466   3.09757   3.10356   3.10506   3.10658
 Alpha virt. eigenvalues --    3.11390   3.11396   3.11817   3.12009   3.12224
 Alpha virt. eigenvalues --    3.12237   3.13348   3.13569   3.13606   3.13703
 Alpha virt. eigenvalues --    3.14161   3.14399   3.15906   3.15983   3.17328
 Alpha virt. eigenvalues --    3.17437   3.17797   3.18140   3.18950   3.19191
 Alpha virt. eigenvalues --    3.22375   3.22521   3.24013   3.24357   3.24742
 Alpha virt. eigenvalues --    3.25112   3.26570   3.26574   3.27312   3.27687
 Alpha virt. eigenvalues --    3.29147   3.29171   3.31296   3.31591   3.33102
 Alpha virt. eigenvalues --    3.33484   3.40188   3.40703   3.42735   3.42881
 Alpha virt. eigenvalues --    3.48615   3.48726   3.50088   3.50199   3.50754
 Alpha virt. eigenvalues --    3.51541   3.56617   3.56922   3.59165   3.59256
 Alpha virt. eigenvalues --    3.62433   3.62905   3.66033   3.66250   3.67258
 Alpha virt. eigenvalues --    3.67469   3.73342   3.73945   3.76127   3.76602
          Condensed to atoms (all electrons):
 Mulliken charges:
               1
     1  Mg   0.838810
     2  C   -0.002929
     3  C   -0.094116
     4  C   -0.045887
     5  C   -0.063989
     6  N   -0.256776
     7  C   -0.052456
     8  C   -0.014034
     9  C   -0.086983
    10  C    0.046332
    11  C    0.104820
    12  C    0.053465
    13  C   -0.071836
    14  H    0.036240
    15  N   -0.433136
    16  C    0.168421
    17  C   -0.177161
    18  C   -0.004032
    19  C    0.148714
    20  C    0.110186
    21  C    0.012276
    22  O   -0.249684
    23  C    0.062481
    24  N   -0.341138
    25  C    0.041242
    26  C   -0.028161
    27  C   -0.023984
    28  C    0.074852
    29  C    0.076197
    30  C    0.035143
    31  C   -0.004498
    32  N   -0.310499
    33  C    0.080446
    34  C   -0.169692
    35  C    0.008370
    36  C    0.083015
    37  C    0.127300
    38  C    0.046145
    39  O   -0.188380
    40  C   -0.005342
    41  C    0.212872
    42  O   -0.257028
    43  O   -0.304822
    44  C    0.157660
    45  H   -0.017627
    46  H   -0.016891
    47  H   -0.041496
    48  H    0.000938
    49  H   -0.004023
    50  H    0.025464
    51  H    0.016415
    52  H    0.016636
    53  H    0.011221
    54  H    0.044176
    55  H    0.017840
    56  H    0.017943
    57  H    0.005878
    58  H    0.026770
    59  H    0.039555
    60  H    0.037323
    61  H    0.035583
    62  H    0.031530
    63  H    0.016526
    64  H    0.009430
    65  H    0.023153
    66  H    0.012529
    67  H    0.004721
    68  H    0.006306
    69  H    0.004742
    70  H    0.008740
    71  H    0.018181
    72  H    0.029027
    73  H    0.047634
    74  H    0.009108
    75  H    0.045984
    76  H    0.035131
    77  H    0.042957
    78  H    0.046402
    79  H    0.053772
    80  Mg   0.837877
    81  C   -0.016785
    82  C   -0.087768
    83  C   -0.045516
    84  C   -0.064913
    85  N   -0.254551
    86  C   -0.049814
    87  C   -0.015109
    88  C   -0.090495
    89  C    0.045749
    90  C    0.114376
    91  C    0.062510
    92  C   -0.077938
    93  H    0.035040
    94  N   -0.423483
    95  C    0.162919
    96  C   -0.174625
    97  C   -0.007812
    98  C    0.152113
    99  C    0.099365
   100  C    0.015557
   101  O   -0.253200
   102  C    0.061199
   103  N   -0.350074
   104  C    0.037504
   105  C   -0.019814
   106  C   -0.034861
   107  C    0.088976
   108  C    0.073664
   109  C    0.034751
   110  C   -0.007686
   111  N   -0.324116
   112  C    0.078469
   113  C   -0.163120
   114  C    0.002274
   115  C    0.096190
   116  C    0.131476
   117  C    0.042405
   118  O   -0.187805
   119  C    0.000893
   120  C    0.211267
   121  O   -0.250941
   122  O   -0.305656
   123  C    0.151990
   124  H   -0.019665
   125  H   -0.015591
   126  H   -0.040452
   127  H   -0.000640
   128  H   -0.004299
   129  H    0.022454
   130  H    0.014392
   131  H    0.016284
   132  H    0.013931
   133  H    0.037732
   134  H    0.020764
   135  H    0.019592
   136  H    0.008775
   137  H    0.026119
   138  H    0.039813
   139  H    0.038239
   140  H    0.036372
   141  H    0.033921
   142  H    0.014403
   143  H    0.012398
   144  H    0.025123
   145  H    0.011619
   146  H    0.005655
   147  H    0.006242
   148  H    0.003666
   149  H    0.010919
   150  H    0.017981
   151  H    0.030129
   152  H    0.046077
   153  H    0.008519
   154  H    0.046917
   155  H    0.035011
   156  H    0.043946
   157  H    0.049499
   158  H    0.053675
 Sum of Mulliken charges =  -0.00000
 Mulliken charges with hydrogens summed into heavy atoms:
               1
     1  Mg   0.838810
     2  C   -0.002929
     3  C   -0.111742
     4  C   -0.062778
     5  C   -0.105486
     6  N   -0.256776
     7  C   -0.052456
     8  C   -0.013096
     9  C   -0.091007
    10  C    0.046332
    11  C    0.163335
    12  C    0.108862
    13  C    0.000187
    15  N   -0.433136
    16  C    0.168421
    17  C   -0.177161
    18  C   -0.004032
    19  C    0.148714
    20  C    0.182388
    21  C    0.012276
    22  O   -0.249684
    23  C    0.166917
    24  N   -0.341138
    25  C    0.041242
    26  C   -0.011635
    27  C   -0.014553
    28  C    0.074852
    29  C    0.116600
    30  C    0.046191
    31  C    0.051450
    32  N   -0.310499
    33  C    0.080446
    34  C   -0.169692
    35  C    0.008370
    36  C    0.083015
    37  C    0.230026
    38  C    0.046145
    39  O   -0.188380
    40  C    0.029788
    41  C    0.212872
    42  O   -0.257028
    43  O   -0.304822
    44  C    0.300791
    80  Mg   0.837877
    81  C   -0.016785
    82  C   -0.107433
    83  C   -0.061107
    84  C   -0.105365
    85  N   -0.254551
    86  C   -0.049814
    87  C   -0.015749
    88  C   -0.094794
    89  C    0.045749
    90  C    0.167505
    91  C    0.114173
    92  C   -0.002542
    94  N   -0.423483
    95  C    0.162919
    96  C   -0.174625
    97  C   -0.007812
    98  C    0.152113
    99  C    0.174071
   100  C    0.015557
   101  O   -0.253200
   102  C    0.169731
   103  N   -0.350074
   104  C    0.037504
   105  C   -0.005412
   106  C   -0.022463
   107  C    0.088976
   108  C    0.116062
   109  C    0.044660
   110  C    0.051343
   111  N   -0.324116
   112  C    0.078469
   113  C   -0.163120
   114  C    0.002274
   115  C    0.096190
   116  C    0.232988
   117  C    0.042405
   118  O   -0.187805
   119  C    0.035903
   120  C    0.211267
   121  O   -0.250941
   122  O   -0.305656
   123  C    0.299110
 Electronic spatial extent (au):  <R**2>=         610920.5695
 Charge=             -0.0000 electrons
 Dipole moment (field-independent basis, Debye):
    X=              0.8408    Y=             -4.6688    Z=              5.8844  Tot=              7.5585
 Quadrupole moment (field-independent basis, Debye-Ang):
   XX=           -411.2135   YY=           -487.0143   ZZ=           -513.8184
   XY=             37.8286   XZ=             42.0659   YZ=             36.8975
 Traceless Quadrupole moment (field-independent basis, Debye-Ang):
   XX=             59.4686   YY=            -16.3323   ZZ=            -43.1363
   XY=             37.8286   XZ=             42.0659   YZ=             36.8975
 Octapole moment (field-independent basis, Debye-Ang**2):
  XXX=            534.8152  YYY=            243.1089  ZZZ=             57.2021  XYY=           -812.3071
  XXY=           -627.0117  XXZ=           1283.6795  XZZ=            917.9911  YZZ=           -286.2374
  YYZ=             77.4150  XYZ=            412.1939
 Hexadecapole moment (field-independent basis, Debye-Ang**3):
 XXXX=        -729356.4776 YYYY=         -32321.9334 ZZZZ=         -32384.6298 XXXY=           4570.8720
 XXXZ=          15706.8876 YYYX=           3134.7130 YYYZ=            839.8884 ZZZX=           2200.7979
 ZZZY=             38.5941 XXYY=        -128007.5059 XXZZ=        -136841.4572 YYZZ=         -10613.6066
 XXYZ=           8198.0673 YYXZ=            131.0384 ZZXY=            549.8097
 N-N= 1.231360460073D+04 E-N=-3.410814405561D+04  KE= 4.028802046479D+03
 Leave Link  601 at Sun Sep 12 13:41:54 2021, MaxMem= 23488102400 cpu:              15.9 elap:               0.8
 (Enter /sw/apps/gaussian-16.0/g16/l9999.exe)
 1\1\GINC-BP1-COMPUTE00083\SP\RCAM-B3LYP TD-FC\def2SVP\C68H72Mg2N8O8\OF
 15641\12-Sep-2021\0\\#p cam-b3lyp/Def2SVP td=(nstates=5)\\TDDFT excite
 d states in gaussian\\0,1\Mg,0,0.,0.,0.\C,0,-0.217,-2.218,2.801\C,0,-1
 .255,2.442,2.026\C,0,-0.245,1.85,-2.564\C,0,0.146,-2.824,-2.037\N,0,-0
 .617,-0.009,2.126\C,0,-0.594,-0.908,3.105\C,0,-0.936,-0.309,4.502\C,0,
 -1.773,0.964,4.032\C,0,-1.155,1.168,2.66\C,0,-3.263,0.685,3.863\C,0,0.
 345,0.11,5.299\C,0,0.124,0.397,6.787\H,0,1.168,0.033,7.733\N,0,-0.185,
 1.961,-0.152\C,0,-0.703,2.8,0.777\C,0,-0.62,4.156,0.193\C,0,-0.187,4.0
 15,-1.225\C,0,-0.214,2.583,-1.38\C,0,-0.887,5.406,0.974\C,0,0.181,5.01
 3,-2.277\O,0,0.303,4.69,-3.508\C,0,0.31,6.414,-1.837\N,0,-0.265,-0.413
 ,-2.029\C,0,-0.279,0.569,-2.937\C,0,-0.196,0.024,-4.332\C,0,0.124,-1.5
 33,-4.18\C,0,0.086,-1.632,-2.635\C,0,-1.451,0.205,-5.197\C,0,1.373,-2.
 07,-4.923\C,0,2.626,-1.49,-4.306\N,0,0.15,-2.144,0.303\C,0,0.173,-3.13
 6,-0.688\C,0,0.173,-4.438,0.004\C,0,0.133,-4.111,1.358\C,0,0.083,-2.69
 5,1.502\C,0,0.149,-5.715,-0.623\C,0,0.096,-4.629,2.716\O,0,0.208,-5.74
 7,3.221\C,0,-0.255,-3.428,3.701\C,0,0.717,-3.482,4.848\O,0,1.931,-3.25
 5,4.669\O,0,0.038,-3.556,6.003\C,0,0.943,-3.583,7.183\H,0,-1.859,3.22,
 2.497\H,0,-0.218,2.453,-3.474\H,0,0.276,-3.747,-2.605\H,0,-1.554,-0.94
 9,5.132\H,0,-1.585,1.831,4.665\H,0,-3.484,-0.377,3.969\H,0,-3.511,1.02
 7,2.858\H,0,-3.852,1.301,4.543\H,0,0.669,1.096,4.966\H,0,1.13,-0.639,5
 .189\H,0,-0.844,0.026,7.125\H,0,0.062,1.477,6.921\H,0,-1.344,5.186,1.9
 38\H,0,-1.651,5.963,0.432\H,0,0.007,6.02,1.084\H,0,-0.635,6.744,-1.405
 \H,0,0.665,6.97,-2.704\H,0,1.048,6.466,-1.036\H,0,0.608,0.501,-4.891\H
 ,0,-0.692,-2.156,-4.547\H,0,-1.267,0.74,-6.129\H,0,-2.204,0.714,-4.596
 \H,0,-1.967,-0.72,-5.453\H,0,1.356,-1.759,-5.967\H,0,1.452,-3.157,-4.9
 02\H,0,2.714,-0.522,-4.798\H,0,3.487,-2.121,-4.529\H,0,2.495,-1.303,-3
 .24\H,0,0.867,-6.333,-0.084\H,0,0.404,-5.642,-1.68\H,0,-0.891,-5.999,-
 0.463\H,0,-1.283,-3.581,4.028\H,0,0.698,-4.478,7.755\H,0,0.833,-2.619,
 7.68\H,0,2.,-3.754,6.976\Mg,0,31.52323,2.84117,2.39089\C,0,31.09386,0.
 0453,0.18231\C,0,31.40734,4.84596,-0.36628\C,0,32.34792,5.27683,4.2496
 2\C,0,32.73048,0.59882,4.76999\N,0,31.27776,2.38664,0.24021\C,0,31.061
 43,1.29291,-0.47484\C,0,30.71568,1.5566,-1.96497\C,0,31.40468,2.99885,
 -2.12011\C,0,31.33113,3.46248,-0.66673\C,0,32.86763,2.92652,-2.52493\C
 ,0,29.16848,1.62918,-2.21579\C,0,28.75234,1.5754,-3.68741\H,0,27.51485
 ,0.88286,-4.03594\N,0,31.35367,4.79643,2.09626\C,0,31.2981,5.4389,0.91
 076\C,0,31.1954,6.87051,1.23342\C,0,31.36083,7.03307,2.70343\C,0,31.72
 254,5.68099,3.07911\C,0,30.88284,7.91648,0.20305\C,0,31.22937,8.21326,
 3.6178\O,0,31.65078,8.17786,4.82775\C,0,30.67788,9.44166,3.02755\N,0,3
 2.60592,2.95992,4.16177\C,0,32.77411,4.13585,4.79171\C,0,33.34307,3.93
 651,6.17624\C,0,33.29574,2.35941,6.43721\C,0,32.76722,1.89135,5.06353\
 C,0,34.76882,4.44475,6.38909\C,0,32.55641,1.87958,7.7162\C,0,31.07602,
 2.15974,7.59235\N,0,31.69096,0.69379,2.56024\C,0,32.25138,-0.03618,3.6
 3129\C,0,32.24411,-1.46029,3.2385\C,0,31.69679,-1.45758,1.94663\C,0,31
 .40364,-0.12378,1.55352\C,0,32.74702,-2.54056,4.0171\C,0,31.3102,-2.27
 873,0.82193\O,0,31.24483,-3.48926,0.61196\C,0,31.01976,-1.3303,-0.4200
 6\C,0,29.71484,-1.75658,-1.03486\O,0,28.64977,-1.63589,-0.40426\O,0,29
 .91036,-2.0313,-2.33742\C,0,28.6424,-2.4481,-2.99345\H,0,31.61218,5.54
 294,-1.17939\H,0,32.55264,6.06965,4.97282\H,0,32.99936,-0.17234,5.4950
 3\H,0,31.15682,0.85662,-2.6644\H,0,30.81526,3.65152,-2.75883\H,0,33.23
 55,1.91123,-2.52651\H,0,33.40387,3.5221,-1.79776\H,0,33.01694,3.4214,-
 3.48885\H,0,28.81033,2.63362,-1.95584\H,0,28.65721,0.86202,-1.66742\H,
 0,29.57302,1.24572,-4.33606\H,0,28.53633,2.59218,-4.02433\H,0,30.97825
 ,7.51934,-0.81508\H,0,31.66726,8.67791,0.2722\H,0,29.91335,8.39201,0.3
 6621\H,0,31.30106,9.75233,2.19234\H,0,30.578,10.14492,3.8566\H,0,29.68
 771,9.2177,2.6152\H,0,32.73333,4.43427,6.92026\H,0,34.30415,1.93421,6.
 54742\H,0,34.85241,5.17757,7.21375\H,0,35.11986,4.87534,5.46071\H,0,35
 .51099,3.67156,6.58034\H,0,32.90615,2.43818,8.58787\H,0,32.70176,0.825
 82,7.92945\H,0,30.99704,3.20803,7.89556\H,0,30.5068,1.51273,8.25674\H,
 0,30.74885,2.09305,6.54825\H,0,32.02324,-3.34127,3.94285\H,0,32.90817,
 -2.24393,5.05142\H,0,33.68739,-2.73616,3.49489\H,0,31.85365,-1.43604,-
 1.11506\H,0,28.8258,-3.4249,-3.45162\H,0,28.36938,-1.61726,-3.67088\H,
 0,27.79644,-2.67014,-2.35353\\Version=ES64L-G16RevA.03\State=1-A\HF=-4
 069.8117558\RMSD=4.475e-09\PG=C01 [X(C68H72Mg2N8O8)]\\@


 I CLAIM NOT TO HAVE CONTROLLED EVENTS,
 BUT CONFESS PLAINLY THAT EVENTS HAVE CONTROLLED ME.

                                         A. LINCOLN
 Job cpu time:       0 days 10 hours 21 minutes 40.1 seconds.
 Elapsed time:       0 days  0 hours 26 minutes 30.4 seconds.
 File lengths (MBytes):  RWF=  13225 Int=      0 D2E=      0 Chk=    574 Scr=      1
 Normal termination of Gaussian 16 at Sun Sep 12 13:41:55 2021.
