 Entering Gaussian System, Link 0=g16
 Initial command:
 /sw/apps/gaussian-16.0/g16/l1.exe "/tmp/Gau-176539.inp" -scrdir="/tmp/"
 Entering Link 1 = /sw/apps/gaussian-16.0/g16/l1.exe PID=    176540.
  
 Copyright (c) 1988,1990,1992,1993,1995,1998,2003,2009,2016,
            Gaussian, Inc.  All Rights Reserved.
  
 This is part of the Gaussian(R) 16 program.  It is based on
 the Gaussian(R) 09 system (copyright 2009, Gaussian, Inc.),
 the Gaussian(R) 03 system (copyright 2003, Gaussian, Inc.),
 the Gaussian(R) 98 system (copyright 1998, Gaussian, Inc.),
 the Gaussian(R) 94 system (copyright 1995, Gaussian, Inc.),
 the Gaussian 92(TM) system (copyright 1992, Gaussian, Inc.),
 the Gaussian 90(TM) system (copyright 1990, Gaussian, Inc.),
 the Gaussian 88(TM) system (copyright 1988, Gaussian, Inc.),
 the Gaussian 86(TM) system (copyright 1986, Carnegie Mellon
 University), and the Gaussian 82(TM) system (copyright 1983,
 Carnegie Mellon University). Gaussian is a federally registered
 trademark of Gaussian, Inc.
  
 This software contains proprietary and confidential information,
 including trade secrets, belonging to Gaussian, Inc.
  
 This software is provided under written license and may be
 used, copied, transmitted, or stored only in accord with that
 written license.
  
 The following legend is applicable only to US Government
 contracts under FAR:
  
                    RESTRICTED RIGHTS LEGEND
  
 Use, reproduction and disclosure by the US Government is
 subject to restrictions as set forth in subparagraphs (a)
 and (c) of the Commercial Computer Software - Restricted
 Rights clause in FAR 52.227-19.
  
 Gaussian, Inc.
 340 Quinnipiac St., Bldg. 40, Wallingford CT 06492
  
  
 ---------------------------------------------------------------
 Warning -- This program may not be used in any manner that
 competes with the business of Gaussian, Inc. or will provide
 assistance to any competitor of Gaussian, Inc.  The licensee
 of this program is prohibited from giving any competitor of
 Gaussian, Inc. access to this program.  By using this program,
 the user acknowledges that Gaussian, Inc. is engaged in the
 business of creating and licensing software in the field of
 computational chemistry and represents and warrants to the
 licensee that it is not a competitor of Gaussian, Inc. and that
 it will not use this program in any manner prohibited above.
 ---------------------------------------------------------------
  

 Cite this work as:
 Gaussian 16, Revision A.03,
 M. J. Frisch, G. W. Trucks, H. B. Schlegel, G. E. Scuseria, 
 M. A. Robb, J. R. Cheeseman, G. Scalmani, V. Barone, 
 G. A. Petersson, H. Nakatsuji, X. Li, M. Caricato, A. V. Marenich, 
 J. Bloino, B. G. Janesko, R. Gomperts, B. Mennucci, H. P. Hratchian, 
 J. V. Ortiz, A. F. Izmaylov, J. L. Sonnenberg, D. Williams-Young, 
 F. Ding, F. Lipparini, F. Egidi, J. Goings, B. Peng, A. Petrone, 
 T. Henderson, D. Ranasinghe, V. G. Zakrzewski, J. Gao, N. Rega, 
 G. Zheng, W. Liang, M. Hada, M. Ehara, K. Toyota, R. Fukuda, 
 J. Hasegawa, M. Ishida, T. Nakajima, Y. Honda, O. Kitao, H. Nakai, 
 T. Vreven, K. Throssell, J. A. Montgomery, Jr., J. E. Peralta, 
 F. Ogliaro, M. J. Bearpark, J. J. Heyd, E. N. Brothers, K. N. Kudin, 
 V. N. Staroverov, T. A. Keith, R. Kobayashi, J. Normand, 
 K. Raghavachari, A. P. Rendell, J. C. Burant, S. S. Iyengar, 
 J. Tomasi, M. Cossi, J. M. Millam, M. Klene, C. Adamo, R. Cammi, 
 J. W. Ochterski, R. L. Martin, K. Morokuma, O. Farkas, 
 J. B. Foresman, and D. J. Fox, Gaussian, Inc., Wallingford CT, 2016.
 
 ******************************************
 Gaussian 16:  ES64L-G16RevA.03 25-Dec-2016
                 4-Sep-2021 
 ******************************************
 %nproc=24
 Will use up to   24 processors via shared memory.
 %mem=175gb
 -----------------------------------
 #p cam-b3lyp/Def2SVP td=(nstates=5)
 -----------------------------------
 1/38=1,172=1/1;
 2/12=2,17=6,18=5,40=1/2;
 3/5=43,7=101,11=9,25=1,30=1,74=-40/1,2,3,8;
 4//1;
 5/5=2,38=5/2;
 8/6=1,10=1,108=5/1;
 9/41=5,42=1,70=2/14;
 6/7=2,8=2,9=2,10=2/1;
 99/5=1,9=1/99;
 Leave Link    1 at Sat Sep  4 01:50:10 2021, MaxMem= 23488102400 cpu:               0.8 elap:               0.0
 (Enter /sw/apps/gaussian-16.0/g16/l101.exe)
 --------------------------------
 TDDFT excited states in gaussian
 --------------------------------
 Symbolic Z-matrix:
 Charge =  0 Multiplicity = 1
 Mg                    0.        0.        0. 
 C                    -0.217    -2.218     2.801 
 C                    -1.255     2.442     2.026 
 C                    -0.245     1.85     -2.564 
 C                     0.146    -2.824    -2.037 
 N                    -0.617    -0.009     2.126 
 C                    -0.594    -0.908     3.105 
 C                    -0.936    -0.309     4.502 
 C                    -1.773     0.964     4.032 
 C                    -1.155     1.168     2.66 
 C                    -3.263     0.685     3.863 
 C                     0.345     0.11      5.299 
 C                     0.124     0.397     6.787 
 H                     1.168     0.033     7.733 
 N                    -0.185     1.961    -0.152 
 C                    -0.703     2.8       0.777 
 C                    -0.62      4.156     0.193 
 C                    -0.187     4.015    -1.225 
 C                    -0.214     2.583    -1.38 
 C                    -0.887     5.406     0.974 
 C                     0.181     5.013    -2.277 
 O                     0.303     4.69     -3.508 
 C                     0.31      6.414    -1.837 
 N                    -0.265    -0.413    -2.029 
 C                    -0.279     0.569    -2.937 
 C                    -0.196     0.024    -4.332 
 C                     0.124    -1.533    -4.18 
 C                     0.086    -1.632    -2.635 
 C                    -1.451     0.205    -5.197 
 C                     1.373    -2.07     -4.923 
 C                     2.626    -1.49     -4.306 
 N                     0.15     -2.144     0.303 
 C                     0.173    -3.136    -0.688 
 C                     0.173    -4.438     0.004 
 C                     0.133    -4.111     1.358 
 C                     0.083    -2.695     1.502 
 C                     0.149    -5.715    -0.623 
 C                     0.096    -4.629     2.716 
 O                     0.208    -5.747     3.221 
 C                    -0.255    -3.428     3.701 
 C                     0.717    -3.482     4.848 
 O                     1.931    -3.255     4.669 
 O                     0.038    -3.556     6.003 
 C                     0.943    -3.583     7.183 
 H                    -1.859     3.22      2.497 
 H                    -0.218     2.453    -3.474 
 H                     0.276    -3.747    -2.605 
 H                    -1.554    -0.949     5.132 
 H                    -1.585     1.831     4.665 
 H                    -3.484    -0.377     3.969 
 H                    -3.511     1.027     2.858 
 H                    -3.852     1.301     4.543 
 H                     0.669     1.096     4.966 
 H                     1.13     -0.639     5.189 
 H                    -0.844     0.026     7.125 
 H                     0.062     1.477     6.921 
 H                    -1.344     5.186     1.938 
 H                    -1.651     5.963     0.432 
 H                     0.007     6.02      1.084 
 H                    -0.635     6.744    -1.405 
 H                     0.665     6.97     -2.704 
 H                     1.048     6.466    -1.036 
 H                     0.608     0.501    -4.891 
 H                    -0.692    -2.156    -4.547 
 H                    -1.267     0.74     -6.129 
 H                    -2.204     0.714    -4.596 
 H                    -1.967    -0.72     -5.453 
 H                     1.356    -1.759    -5.967 
 H                     1.452    -3.157    -4.902 
 H                     2.714    -0.522    -4.798 
 H                     3.487    -2.121    -4.529 
 H                     2.495    -1.303    -3.24 
 H                     0.867    -6.333    -0.084 
 H                     0.404    -5.642    -1.68 
 H                    -0.891    -5.999    -0.463 
 H                    -1.283    -3.581     4.028 
 H                     0.698    -4.478     7.755 
 H                     0.833    -2.619     7.68 
 H                     2.       -3.754     6.976 
 Mg                    10.51895   0.94169   0.79336 
 C                     10.3963   2.65647  -2.35681 
 C                     10.02809  -1.95755  -0.93524 
 C                     10.17219  -0.54244   3.57626 
 C                     9.85796   4.00075   2.32664 
 N                     10.26086   0.53128  -1.3647 
 C                     10.29397   1.25459  -2.47379 
 C                     10.29366   0.42278  -3.78438 
 C                     9.6062   -0.91443  -3.22033 
 C                     10.01573  -0.79974  -1.75343 
 C                     8.08865  -0.8889   -3.29597 
 C                     11.74351   0.14329  -4.31529 
 C                     11.81183  -0.39388  -5.74655 
 H                     12.92794   0.01957  -6.59262 
 N                     10.64208  -0.98704   1.24434 
 C                     10.43377  -2.03145   0.41543 
 C                     10.62599  -3.23892   1.23348 
 C                     10.80277  -2.82187   2.65106 
 C                     10.51892  -1.40465   2.54624 
 C                     10.70852  -4.61682   0.64355 
 C                     11.15487  -3.5763    3.89728 
 O                     11.02049  -3.05511   5.06053 
 C                     11.57287  -4.97476   3.72102 
 N                     9.87093   1.58256   2.66196 
 C                     9.8663    0.74762   3.71589 
 C                     9.62604   1.49721   5.0046 
 C                     9.71127   3.04769   4.62207 
 C                     9.90599   2.92128   3.09514 
 C                     8.29329   1.21704   5.69862 
 C                     10.71686   3.91668   5.426 
 C                     12.13335   3.49857   5.10331 
 N                     10.3665   3.00037   0.15565 
 C                     10.05607   4.12083   0.95707 
 C                     9.95498   5.28656   0.05525 
 C                     10.1928   4.75506  -1.22125 
 C                     10.40569   3.35335  -1.12433 
 C                     9.62921   6.61565   0.44706 
 C                     10.30163   5.05928  -2.6299 
 O                     10.30163   6.0924   -3.29803 
 C                     10.31303   3.69328  -3.4425 
 C                     11.43742   3.7554   -4.43969 
 O                     12.61984   3.80071  -4.05701 
 O                     10.94605   3.53253  -5.67228 
 C                     12.02517   3.57316  -6.69486 
 H                     9.65203  -2.89195  -1.35279 
 H                     10.14834  -0.98582   4.57442 
 H                     9.75179   5.0065    2.73879 
 H                     9.69541   0.83864  -4.58621 
 H                     10.04259  -1.80268  -3.66971 
 H                     7.71701   0.07564  -3.60852 
 H                     7.74042  -1.12346  -2.29859 
 H                     7.72959  -1.69788  -3.93858 
 H                     12.16454  -0.71304  -3.77291 
 H                     12.3565   1.01926  -4.22843 
 H                     10.8605  -0.27172  -6.27852 
 H                     11.95835  -1.47591  -5.70448 
 H                     10.37798  -4.62703  -0.40241 
 H                     9.97057  -5.23376   1.16765 
 H                     11.69573  -5.06806   0.76379 
 H                     10.7795  -5.52907   3.22528 
 H                     11.86855  -5.31876   4.71405 
 H                     12.4397  -4.99904   3.05123 
 H                     10.39598   1.27197   5.73232 
 H                     8.74925   3.55856   4.77495 
 H                     8.40975   0.85808   6.73865 
 H                     7.74512   0.49616   5.10668 
 H                     7.60445   2.05937   5.73297 
 H                     10.58271   3.75653   6.49862 
 H                     10.6104   4.98079   5.24348 
 H                     12.29307   2.63936   5.76159 
 H                     12.83082   4.30299   5.32801 
 H                     12.21253   3.14136   4.06997 
 H                     10.30647   7.27153  -0.08364 
 H                     9.71239   6.74428   1.52424 
 H                     8.59198   6.67086   0.10595 
 H                     9.34116   3.59226  -3.92711 
 H                     11.72934   4.31589  -7.4422 
 H                     12.14702   2.52997  -7.04221 
 H                     12.99197   3.95502  -6.38836 
 
 ITRead=  0  0  0  0  0  0  0  0  0  0  0  0  0  0  0  0  0  0  0  0
 ITRead=  0  0  0  0  0  0  0  0  0  0  0  0  0  0  0  0  0  0  0  0
 ITRead=  0  0  0  0  0  0  0  0  0  0  0  0  0  0  0  0  0  0  0  0
 ITRead=  0  0  0  0  0  0  0  0  0  0  0  0  0  0  0  0  0  0  0  0
 ITRead=  0  0  0  0  0  0  0  0  0  0  0  0  0  0  0  0  0  0  0  0
 ITRead=  0  0  0  0  0  0  0  0  0  0  0  0  0  0  0  0  0  0  0  0
 ITRead=  0  0  0  0  0  0  0  0  0  0  0  0  0  0  0  0  0  0  0  0
 ITRead=  0  0  0  0  0  0  0  0  0  0  0  0  0  0  0  0  0  0
 MicOpt= -1 -1 -1 -1 -1 -1 -1 -1 -1 -1 -1 -1 -1 -1 -1 -1 -1 -1 -1 -1
 MicOpt= -1 -1 -1 -1 -1 -1 -1 -1 -1 -1 -1 -1 -1 -1 -1 -1 -1 -1 -1 -1
 MicOpt= -1 -1 -1 -1 -1 -1 -1 -1 -1 -1 -1 -1 -1 -1 -1 -1 -1 -1 -1 -1
 MicOpt= -1 -1 -1 -1 -1 -1 -1 -1 -1 -1 -1 -1 -1 -1 -1 -1 -1 -1 -1 -1
 MicOpt= -1 -1 -1 -1 -1 -1 -1 -1 -1 -1 -1 -1 -1 -1 -1 -1 -1 -1 -1 -1
 MicOpt= -1 -1 -1 -1 -1 -1 -1 -1 -1 -1 -1 -1 -1 -1 -1 -1 -1 -1 -1 -1
 MicOpt= -1 -1 -1 -1 -1 -1 -1 -1 -1 -1 -1 -1 -1 -1 -1 -1 -1 -1 -1 -1
 MicOpt= -1 -1 -1 -1 -1 -1 -1 -1 -1 -1 -1 -1 -1 -1 -1 -1 -1 -1
 NAtoms=    158 NQM=      158 NQMF=       0 NMMI=      0 NMMIF=      0
                NMic=       0 NMicF=      0.
                    Isotopes and Nuclear Properties:
 (Nuclear quadrupole moments (NQMom) in fm**2, nuclear magnetic moments (NMagM)
  in nuclear magnetons)

  Atom         1           2           3           4           5           6           7           8           9          10
 IAtWgt=          24          12          12          12          12          14          12          12          12          12
 AtmWgt=  23.9850450  12.0000000  12.0000000  12.0000000  12.0000000  14.0030740  12.0000000  12.0000000  12.0000000  12.0000000
 NucSpn=           0           0           0           0           0           2           0           0           0           0
 AtZEff=  -0.0000000  -0.0000000  -0.0000000  -0.0000000  -0.0000000  -0.0000000  -0.0000000  -0.0000000  -0.0000000  -0.0000000
 NQMom=    0.0000000   0.0000000   0.0000000   0.0000000   0.0000000   2.0440000   0.0000000   0.0000000   0.0000000   0.0000000
 NMagM=    0.0000000   0.0000000   0.0000000   0.0000000   0.0000000   0.4037610   0.0000000   0.0000000   0.0000000   0.0000000
 AtZNuc=  12.0000000   6.0000000   6.0000000   6.0000000   6.0000000   7.0000000   6.0000000   6.0000000   6.0000000   6.0000000

  Atom        11          12          13          14          15          16          17          18          19          20
 IAtWgt=          12          12          12           1          14          12          12          12          12          12
 AtmWgt=  12.0000000  12.0000000  12.0000000   1.0078250  14.0030740  12.0000000  12.0000000  12.0000000  12.0000000  12.0000000
 NucSpn=           0           0           0           1           2           0           0           0           0           0
 AtZEff=  -0.0000000  -0.0000000  -0.0000000  -0.0000000  -0.0000000  -0.0000000  -0.0000000  -0.0000000  -0.0000000  -0.0000000
 NQMom=    0.0000000   0.0000000   0.0000000   0.0000000   2.0440000   0.0000000   0.0000000   0.0000000   0.0000000   0.0000000
 NMagM=    0.0000000   0.0000000   0.0000000   2.7928460   0.4037610   0.0000000   0.0000000   0.0000000   0.0000000   0.0000000
 AtZNuc=   6.0000000   6.0000000   6.0000000   1.0000000   7.0000000   6.0000000   6.0000000   6.0000000   6.0000000   6.0000000

  Atom        21          22          23          24          25          26          27          28          29          30
 IAtWgt=          12          16          12          14          12          12          12          12          12          12
 AtmWgt=  12.0000000  15.9949146  12.0000000  14.0030740  12.0000000  12.0000000  12.0000000  12.0000000  12.0000000  12.0000000
 NucSpn=           0           0           0           2           0           0           0           0           0           0
 AtZEff=  -0.0000000  -0.0000000  -0.0000000  -0.0000000  -0.0000000  -0.0000000  -0.0000000  -0.0000000  -0.0000000  -0.0000000
 NQMom=    0.0000000   0.0000000   0.0000000   2.0440000   0.0000000   0.0000000   0.0000000   0.0000000   0.0000000   0.0000000
 NMagM=    0.0000000   0.0000000   0.0000000   0.4037610   0.0000000   0.0000000   0.0000000   0.0000000   0.0000000   0.0000000
 AtZNuc=   6.0000000   8.0000000   6.0000000   7.0000000   6.0000000   6.0000000   6.0000000   6.0000000   6.0000000   6.0000000

  Atom        31          32          33          34          35          36          37          38          39          40
 IAtWgt=          12          14          12          12          12          12          12          12          16          12
 AtmWgt=  12.0000000  14.0030740  12.0000000  12.0000000  12.0000000  12.0000000  12.0000000  12.0000000  15.9949146  12.0000000
 NucSpn=           0           2           0           0           0           0           0           0           0           0
 AtZEff=  -0.0000000  -0.0000000  -0.0000000  -0.0000000  -0.0000000  -0.0000000  -0.0000000  -0.0000000  -0.0000000  -0.0000000
 NQMom=    0.0000000   2.0440000   0.0000000   0.0000000   0.0000000   0.0000000   0.0000000   0.0000000   0.0000000   0.0000000
 NMagM=    0.0000000   0.4037610   0.0000000   0.0000000   0.0000000   0.0000000   0.0000000   0.0000000   0.0000000   0.0000000
 AtZNuc=   6.0000000   7.0000000   6.0000000   6.0000000   6.0000000   6.0000000   6.0000000   6.0000000   8.0000000   6.0000000

  Atom        41          42          43          44          45          46          47          48          49          50
 IAtWgt=          12          16          16          12           1           1           1           1           1           1
 AtmWgt=  12.0000000  15.9949146  15.9949146  12.0000000   1.0078250   1.0078250   1.0078250   1.0078250   1.0078250   1.0078250
 NucSpn=           0           0           0           0           1           1           1           1           1           1
 AtZEff=  -0.0000000  -0.0000000  -0.0000000  -0.0000000  -0.0000000  -0.0000000  -0.0000000  -0.0000000  -0.0000000  -0.0000000
 NQMom=    0.0000000   0.0000000   0.0000000   0.0000000   0.0000000   0.0000000   0.0000000   0.0000000   0.0000000   0.0000000
 NMagM=    0.0000000   0.0000000   0.0000000   0.0000000   2.7928460   2.7928460   2.7928460   2.7928460   2.7928460   2.7928460
 AtZNuc=   6.0000000   8.0000000   8.0000000   6.0000000   1.0000000   1.0000000   1.0000000   1.0000000   1.0000000   1.0000000

  Atom        51          52          53          54          55          56          57          58          59          60
 IAtWgt=           1           1           1           1           1           1           1           1           1           1
 AtmWgt=   1.0078250   1.0078250   1.0078250   1.0078250   1.0078250   1.0078250   1.0078250   1.0078250   1.0078250   1.0078250
 NucSpn=           1           1           1           1           1           1           1           1           1           1
 AtZEff=  -0.0000000  -0.0000000  -0.0000000  -0.0000000  -0.0000000  -0.0000000  -0.0000000  -0.0000000  -0.0000000  -0.0000000
 NQMom=    0.0000000   0.0000000   0.0000000   0.0000000   0.0000000   0.0000000   0.0000000   0.0000000   0.0000000   0.0000000
 NMagM=    2.7928460   2.7928460   2.7928460   2.7928460   2.7928460   2.7928460   2.7928460   2.7928460   2.7928460   2.7928460
 AtZNuc=   1.0000000   1.0000000   1.0000000   1.0000000   1.0000000   1.0000000   1.0000000   1.0000000   1.0000000   1.0000000

  Atom        61          62          63          64          65          66          67          68          69          70
 IAtWgt=           1           1           1           1           1           1           1           1           1           1
 AtmWgt=   1.0078250   1.0078250   1.0078250   1.0078250   1.0078250   1.0078250   1.0078250   1.0078250   1.0078250   1.0078250
 NucSpn=           1           1           1           1           1           1           1           1           1           1
 AtZEff=  -0.0000000  -0.0000000  -0.0000000  -0.0000000  -0.0000000  -0.0000000  -0.0000000  -0.0000000  -0.0000000  -0.0000000
 NQMom=    0.0000000   0.0000000   0.0000000   0.0000000   0.0000000   0.0000000   0.0000000   0.0000000   0.0000000   0.0000000
 NMagM=    2.7928460   2.7928460   2.7928460   2.7928460   2.7928460   2.7928460   2.7928460   2.7928460   2.7928460   2.7928460
 AtZNuc=   1.0000000   1.0000000   1.0000000   1.0000000   1.0000000   1.0000000   1.0000000   1.0000000   1.0000000   1.0000000

  Atom        71          72          73          74          75          76          77          78          79          80
 IAtWgt=           1           1           1           1           1           1           1           1           1          24
 AtmWgt=   1.0078250   1.0078250   1.0078250   1.0078250   1.0078250   1.0078250   1.0078250   1.0078250   1.0078250  23.9850450
 NucSpn=           1           1           1           1           1           1           1           1           1           0
 AtZEff=  -0.0000000  -0.0000000  -0.0000000  -0.0000000  -0.0000000  -0.0000000  -0.0000000  -0.0000000  -0.0000000  -0.0000000
 NQMom=    0.0000000   0.0000000   0.0000000   0.0000000   0.0000000   0.0000000   0.0000000   0.0000000   0.0000000   0.0000000
 NMagM=    2.7928460   2.7928460   2.7928460   2.7928460   2.7928460   2.7928460   2.7928460   2.7928460   2.7928460   0.0000000
 AtZNuc=   1.0000000   1.0000000   1.0000000   1.0000000   1.0000000   1.0000000   1.0000000   1.0000000   1.0000000  12.0000000

  Atom        81          82          83          84          85          86          87          88          89          90
 IAtWgt=          12          12          12          12          14          12          12          12          12          12
 AtmWgt=  12.0000000  12.0000000  12.0000000  12.0000000  14.0030740  12.0000000  12.0000000  12.0000000  12.0000000  12.0000000
 NucSpn=           0           0           0           0           2           0           0           0           0           0
 AtZEff=  -0.0000000  -0.0000000  -0.0000000  -0.0000000  -0.0000000  -0.0000000  -0.0000000  -0.0000000  -0.0000000  -0.0000000
 NQMom=    0.0000000   0.0000000   0.0000000   0.0000000   2.0440000   0.0000000   0.0000000   0.0000000   0.0000000   0.0000000
 NMagM=    0.0000000   0.0000000   0.0000000   0.0000000   0.4037610   0.0000000   0.0000000   0.0000000   0.0000000   0.0000000
 AtZNuc=   6.0000000   6.0000000   6.0000000   6.0000000   7.0000000   6.0000000   6.0000000   6.0000000   6.0000000   6.0000000

  Atom        91          92          93          94          95          96          97          98          99         100
 IAtWgt=          12          12           1          14          12          12          12          12          12          12
 AtmWgt=  12.0000000  12.0000000   1.0078250  14.0030740  12.0000000  12.0000000  12.0000000  12.0000000  12.0000000  12.0000000
 NucSpn=           0           0           1           2           0           0           0           0           0           0
 AtZEff=  -0.0000000  -0.0000000  -0.0000000  -0.0000000  -0.0000000  -0.0000000  -0.0000000  -0.0000000  -0.0000000  -0.0000000
 NQMom=    0.0000000   0.0000000   0.0000000   2.0440000   0.0000000   0.0000000   0.0000000   0.0000000   0.0000000   0.0000000
 NMagM=    0.0000000   0.0000000   2.7928460   0.4037610   0.0000000   0.0000000   0.0000000   0.0000000   0.0000000   0.0000000
 AtZNuc=   6.0000000   6.0000000   1.0000000   7.0000000   6.0000000   6.0000000   6.0000000   6.0000000   6.0000000   6.0000000

  Atom       101         102         103         104         105         106         107         108         109         110
 IAtWgt=          16          12          14          12          12          12          12          12          12          12
 AtmWgt=  15.9949146  12.0000000  14.0030740  12.0000000  12.0000000  12.0000000  12.0000000  12.0000000  12.0000000  12.0000000
 NucSpn=           0           0           2           0           0           0           0           0           0           0
 AtZEff=  -0.0000000  -0.0000000  -0.0000000  -0.0000000  -0.0000000  -0.0000000  -0.0000000  -0.0000000  -0.0000000  -0.0000000
 NQMom=    0.0000000   0.0000000   2.0440000   0.0000000   0.0000000   0.0000000   0.0000000   0.0000000   0.0000000   0.0000000
 NMagM=    0.0000000   0.0000000   0.4037610   0.0000000   0.0000000   0.0000000   0.0000000   0.0000000   0.0000000   0.0000000
 AtZNuc=   8.0000000   6.0000000   7.0000000   6.0000000   6.0000000   6.0000000   6.0000000   6.0000000   6.0000000   6.0000000

  Atom       111         112         113         114         115         116         117         118         119         120
 IAtWgt=          14          12          12          12          12          12          12          16          12          12
 AtmWgt=  14.0030740  12.0000000  12.0000000  12.0000000  12.0000000  12.0000000  12.0000000  15.9949146  12.0000000  12.0000000
 NucSpn=           2           0           0           0           0           0           0           0           0           0
 AtZEff=  -0.0000000  -0.0000000  -0.0000000  -0.0000000  -0.0000000  -0.0000000  -0.0000000  -0.0000000  -0.0000000  -0.0000000
 NQMom=    2.0440000   0.0000000   0.0000000   0.0000000   0.0000000   0.0000000   0.0000000   0.0000000   0.0000000   0.0000000
 NMagM=    0.4037610   0.0000000   0.0000000   0.0000000   0.0000000   0.0000000   0.0000000   0.0000000   0.0000000   0.0000000
 AtZNuc=   7.0000000   6.0000000   6.0000000   6.0000000   6.0000000   6.0000000   6.0000000   8.0000000   6.0000000   6.0000000

  Atom       121         122         123         124         125         126         127         128         129         130
 IAtWgt=          16          16          12           1           1           1           1           1           1           1
 AtmWgt=  15.9949146  15.9949146  12.0000000   1.0078250   1.0078250   1.0078250   1.0078250   1.0078250   1.0078250   1.0078250
 NucSpn=           0           0           0           1           1           1           1           1           1           1
 AtZEff=  -0.0000000  -0.0000000  -0.0000000  -0.0000000  -0.0000000  -0.0000000  -0.0000000  -0.0000000  -0.0000000  -0.0000000
 NQMom=    0.0000000   0.0000000   0.0000000   0.0000000   0.0000000   0.0000000   0.0000000   0.0000000   0.0000000   0.0000000
 NMagM=    0.0000000   0.0000000   0.0000000   2.7928460   2.7928460   2.7928460   2.7928460   2.7928460   2.7928460   2.7928460
 AtZNuc=   8.0000000   8.0000000   6.0000000   1.0000000   1.0000000   1.0000000   1.0000000   1.0000000   1.0000000   1.0000000

  Atom       131         132         133         134         135         136         137         138         139         140
 IAtWgt=           1           1           1           1           1           1           1           1           1           1
 AtmWgt=   1.0078250   1.0078250   1.0078250   1.0078250   1.0078250   1.0078250   1.0078250   1.0078250   1.0078250   1.0078250
 NucSpn=           1           1           1           1           1           1           1           1           1           1
 AtZEff=  -0.0000000  -0.0000000  -0.0000000  -0.0000000  -0.0000000  -0.0000000  -0.0000000  -0.0000000  -0.0000000  -0.0000000
 NQMom=    0.0000000   0.0000000   0.0000000   0.0000000   0.0000000   0.0000000   0.0000000   0.0000000   0.0000000   0.0000000
 NMagM=    2.7928460   2.7928460   2.7928460   2.7928460   2.7928460   2.7928460   2.7928460   2.7928460   2.7928460   2.7928460
 AtZNuc=   1.0000000   1.0000000   1.0000000   1.0000000   1.0000000   1.0000000   1.0000000   1.0000000   1.0000000   1.0000000

  Atom       141         142         143         144         145         146         147         148         149         150
 IAtWgt=           1           1           1           1           1           1           1           1           1           1
 AtmWgt=   1.0078250   1.0078250   1.0078250   1.0078250   1.0078250   1.0078250   1.0078250   1.0078250   1.0078250   1.0078250
 NucSpn=           1           1           1           1           1           1           1           1           1           1
 AtZEff=  -0.0000000  -0.0000000  -0.0000000  -0.0000000  -0.0000000  -0.0000000  -0.0000000  -0.0000000  -0.0000000  -0.0000000
 NQMom=    0.0000000   0.0000000   0.0000000   0.0000000   0.0000000   0.0000000   0.0000000   0.0000000   0.0000000   0.0000000
 NMagM=    2.7928460   2.7928460   2.7928460   2.7928460   2.7928460   2.7928460   2.7928460   2.7928460   2.7928460   2.7928460
 AtZNuc=   1.0000000   1.0000000   1.0000000   1.0000000   1.0000000   1.0000000   1.0000000   1.0000000   1.0000000   1.0000000

  Atom       151         152         153         154         155         156         157         158
 IAtWgt=           1           1           1           1           1           1           1           1
 AtmWgt=   1.0078250   1.0078250   1.0078250   1.0078250   1.0078250   1.0078250   1.0078250   1.0078250
 NucSpn=           1           1           1           1           1           1           1           1
 AtZEff=  -0.0000000  -0.0000000  -0.0000000  -0.0000000  -0.0000000  -0.0000000  -0.0000000  -0.0000000
 NQMom=    0.0000000   0.0000000   0.0000000   0.0000000   0.0000000   0.0000000   0.0000000   0.0000000
 NMagM=    2.7928460   2.7928460   2.7928460   2.7928460   2.7928460   2.7928460   2.7928460   2.7928460
 AtZNuc=   1.0000000   1.0000000   1.0000000   1.0000000   1.0000000   1.0000000   1.0000000   1.0000000
 Leave Link  101 at Sat Sep  4 01:50:10 2021, MaxMem= 23488102400 cpu:               3.3 elap:               0.2
 (Enter /sw/apps/gaussian-16.0/g16/l202.exe)
 Stoichiometry    C68H72Mg2N8O8
 Framework group  C1[X(C68H72Mg2N8O8)]
 Deg. of freedom   468
 Full point group                 C1      NOp   1
 Largest Abelian subgroup         C1      NOp   1
 Largest concise Abelian subgroup C1      NOp   1
                         Standard orientation:                         
 ---------------------------------------------------------------------
 Center     Atomic      Atomic             Coordinates (Angstroms)
 Number     Number       Type             X           Y           Z
 ---------------------------------------------------------------------
      1         12           0        5.034017   -1.343455   -0.046646
      2          6           0        6.129072    2.029639   -0.531724
      3          6           0        6.087261   -1.063026    3.186789
      4          6           0        4.496389   -4.451256    0.283740
      5          6           0        5.127236   -1.715817   -3.510505
      6          7           0        5.971221    0.323652    1.068274
      7          6           0        6.282856    1.584075    0.782988
      8          6           0        6.717621    2.410470    2.030154
      9          6           0        7.200338    1.215174    2.968369
     10          6           0        6.343684    0.098175    2.398823
     11          6           0        8.669746    0.850469    2.783076
     12          6           0        5.522687    3.194317    2.670033
     13          6           0        5.916669    4.273213    3.683007
     14          1           0        5.129662    5.495508    3.745984
     15          7           0        4.800616   -2.437283    1.581825
     16          6           0        5.283555   -2.163289    2.817536
     17          6           0        4.841872   -3.277235    3.683979
     18          6           0        4.225101   -4.315063    2.811855
     19          6           0        4.509942   -3.780881    1.504608
     20          6           0        4.977126   -3.262852    5.175706
     21          6           0        3.504072   -5.591719    3.109172
     22          8           0        3.253907   -6.458461    2.203220
     23          6           0        3.172113   -5.844798    4.522960
     24          7           0        5.048846   -2.938217   -1.393550
     25          6           0        4.723388   -4.175088   -1.002125
     26          6           0        4.528756   -5.086315   -2.177592
     27          6           0        4.551627   -4.150305   -3.471081
     28          6           0        4.854090   -2.798441   -2.778804
     29          6           0        5.568961   -6.203610   -2.337709
     30          6           0        3.331532   -4.235211   -4.422175
     31          6           0        2.103140   -3.686707   -3.731310
     32          7           0        5.361541   -0.043507   -1.753663
     33          6           0        5.377766   -0.415321   -3.105759
     34          6           0        5.745689    0.784750   -3.879407
     35          6           0        5.935347    1.773620   -2.916074
     36          6           0        5.726394    1.219406   -1.620900
     37          6           0        5.921763    0.845320   -5.289996
     38          6           0        6.289981    3.163386   -2.678080
     39          8           0        6.483374    4.144428   -3.397558
     40          6           0        6.548674    3.354482   -1.118468
     41          6           0        5.801970    4.585198   -0.681340
     42          8           0        4.554362    4.613079   -0.689279
     43          8           0        6.657326    5.442139   -0.102928
     44          6           0        5.975336    6.672424    0.380232
     45          1           0        6.592492   -1.170330    4.148646
     46          1           0        4.205970   -5.502177    0.344225
     47          1           0        5.093699   -1.734906   -4.601359
     48          1           0        7.542369    3.100970    1.852879
     49          1           0        6.947748    1.390967    4.013844
     50          1           0        9.110569    1.387124    1.943077
     51          1           0        8.681826   -0.223669    2.597135
     52          1           0        9.225825    1.000578    3.708830
     53          1           0        4.961125    2.524566    3.321296
     54          1           0        4.894162    3.637864    1.897021
     55          1           0        6.980177    4.506319    3.623672
     56          1           0        5.784229    3.865432    4.685192
     57          1           0        5.616236   -2.447403    5.512050
     58          1           0        5.519478   -4.165947    5.454959
     59          1           0        4.008461   -3.246422    5.675457
     60          1           0        4.089610   -5.855459    5.111717
     61          1           0        2.580608   -6.759595    4.533852
     62          1           0        2.575635   -5.013476    4.899875
     63          1           0        3.567682   -5.595941   -2.122406
     64          1           0        5.405693   -4.362719   -4.114608
     65          1           0        5.136646   -7.204232   -2.361444
     66          1           0        6.292251   -6.109201   -1.528248
     67          1           0        6.210323   -6.108924   -3.213555
     68          1           0        3.120115   -5.273407   -4.675940
     69          1           0        3.473606   -3.688266   -5.354333
     70          1           0        1.748069   -4.539013   -3.153098
     71          1           0        1.359754   -3.376748   -4.466506
     72          1           0        2.362643   -2.898597   -3.024184
     73          1           0        5.435496    1.763641   -5.618934
     74          1           0        5.492303   -0.027932   -5.780506
     75          1           0        7.009334    0.869140   -5.356899
     76          1           0        7.625315    3.461693   -0.990126
     77          1           0        6.480552    7.521425   -0.080406
     78          1           0        5.970105    6.616584    1.468928
     79          1           0        4.953888    6.826289    0.030507
     80         12           0       -5.199782    1.373890    0.176750
     81          6           0       -5.922358   -2.140180    0.085723
     82          6           0       -4.426580    1.148790   -3.137776
     83          6           0       -4.127354    4.356335    0.326189
     84          6           0       -4.921674    1.085711    3.638731
     85          7           0       -5.212708   -0.330249   -1.233219
     86          6           0       -5.564564   -1.605590   -1.169514
     87          6           0       -5.608408   -2.330010   -2.541683
     88          6           0       -4.588996   -1.384635   -3.345392
     89          6           0       -4.774113   -0.093845   -2.550246
     90          6           0       -3.138342   -1.819421   -3.219316
     91          6           0       -7.039943   -2.307964   -3.183764
     92          6           0       -7.227703   -3.257183   -4.369283
     93          1           0       -8.523798   -3.907461   -4.541777
     94          7           0       -4.865302    2.692297   -1.268404
     95          6           0       -4.589164    2.428348   -2.562759
     96          6           0       -4.405783    3.736666   -3.209917
     97          6           0       -4.433486    4.788545   -2.157539
     98          6           0       -4.456140    3.966847   -0.964070
     99          6           0       -4.306869    3.901315   -4.698723
    100          6           0       -4.426198    6.286145   -2.215376
    101          8           0       -4.214076    6.999263   -1.171674
    102          6           0       -4.581780    6.891602   -3.546051
    103          7           0       -4.402200    2.509538    1.724805
    104          6           0       -4.064583    3.797099    1.534756
    105          6           0       -3.775275    4.484690    2.847730
    106          6           0       -4.225512    3.451343    3.982218
    107          6           0       -4.632061    2.257713    3.090379
    108          6           0       -2.320248    4.891861    3.079011
    109          6           0       -5.242031    3.964732    5.038523
    110          6           0       -6.580695    4.221125    4.384590
    111          7           0       -5.561370   -0.171317    1.642925
    112          6           0       -5.355220   -0.088993    3.037485
    113          6           0       -5.631823   -1.427451    3.598240
    114          6           0       -5.959991   -2.207639    2.479261
    115          6           0       -5.873033   -1.416705    1.301819
    116          6           0       -5.517378   -1.795177    4.968569
    117          6           0       -6.349856   -3.523143    2.025232
    118          8           0       -6.660760   -4.576650    2.579485
    119          6           0       -6.219972   -3.570312    0.441783
    120          6           0       -7.478614   -4.182221   -0.109478
    121          8           0       -8.570244   -3.598654    0.010557
    122          8           0       -7.155606   -5.242214   -0.872678
    123          6           0       -8.370254   -5.876324   -1.450912
    124          1           0       -3.944440    1.143511   -4.115726
    125          1           0       -3.857528    5.408047    0.446911
    126          1           0       -4.952389    0.938988    4.720490
    127          1           0       -5.239824   -3.348721   -2.529531
    128          1           0       -4.906852   -1.246759   -4.375598
    129          1           0       -3.019584   -2.626011   -2.511184
    130          1           0       -2.596233   -0.943047   -2.888958
    131          1           0       -2.733318   -2.071039   -4.203676
    132          1           0       -7.191275   -1.345001   -3.688287
    133          1           0       -7.792353   -2.500608   -2.443904
    134          1           0       -6.416507   -3.991807   -4.441625
    135          1           0       -7.148561   -2.678699   -5.292928
    136          1           0       -4.151773    2.938221   -5.200510
    137          1           0       -3.387541    4.462563   -4.897979
    138          1           0       -5.153224    4.448674   -5.119127
    139          1           0       -3.783705    6.542758   -4.197079
    140          1           0       -4.641487    7.967758   -3.372288
    141          1           0       -5.522058    6.537951   -3.983556
    142          1           0       -4.359448    5.391399    2.946405
    143          1           0       -3.371815    3.114280    4.588380
    144          1           0       -2.196168    5.972694    3.280214
    145          1           0       -1.741685    4.597311    2.213530
    146          1           0       -1.815251    4.362846    3.885436
    147          1           0       -4.909719    4.920740    5.450563
    148          1           0       -5.378745    3.284642    5.872648
    149          1           0       -6.460259    5.222317    3.960096
    150          1           0       -7.378695    4.199296    5.124027
    151          1           0       -6.751188    3.528485    3.552219
    152          1           0       -6.386766   -2.394660    5.203703
    153          1           0       -5.451695   -0.919558    5.611031
    154          1           0       -4.579447   -2.356286    4.942262
    155          1           0       -5.337195   -4.164700    0.203056
    156          1           0       -8.350180   -6.930734   -1.158514
    157          1           0       -8.336973   -5.653190   -2.533893
    158          1           0       -9.332084   -5.566528   -1.059284
 ---------------------------------------------------------------------
 Rotational constants (GHZ):           0.0207499           0.0114248           0.0099672
 Leave Link  202 at Sat Sep  4 01:50:10 2021, MaxMem= 23488102400 cpu:               0.2 elap:               0.0
 (Enter /sw/apps/gaussian-16.0/g16/l301.exe)
 Standard basis: def2SVP (5D, 7F)
 Ernie: Thresh=  0.10000D-02 Tol=  0.10000D-05 Strict=F.
 There are  1658 symmetry adapted cartesian basis functions of A   symmetry.
 There are  1572 symmetry adapted basis functions of A   symmetry.
  1572 basis functions,  2678 primitive gaussians,  1658 cartesian basis functions
   312 alpha electrons      312 beta electrons
       nuclear repulsion energy     14929.0069437276 Hartrees.
 IExCor=20419 DFT=T Ex+Corr=CAM-B3LYP ExCW=0 ScaHFX=  1.000000
 ScaDFX=  1.000000  1.000000  1.000000  0.810000 ScalE2=  1.000000  1.000000
 IRadAn=      5 IRanWt=     -1 IRanGd=            0 ICorTp=0 IEmpDi=  4
 HFx  wShort=  0.000000 wLong=  0.330000 cFull=  0.190000 cShort=  0.000000 cLong=  0.460000
 DFx  wShort=  0.000000 wLong=  0.330000 cFull=  0.190000 cShort=  0.000000 cLong=  0.460000
 NAtoms=  158 NActive=  158 NUniq=  158 SFac= 1.00D+00 NAtFMM=   60 NAOKFM=T Big=T
 Integral buffers will be    131072 words long.
 Raffenetti 1 integral format.
 Two-electron integral symmetry is turned on.
 Leave Link  301 at Sat Sep  4 01:50:10 2021, MaxMem= 23488102400 cpu:               1.3 elap:               0.1
 (Enter /sw/apps/gaussian-16.0/g16/l302.exe)
 NPDir=0 NMtPBC=     1 NCelOv=     1 NCel=       1 NClECP=     1 NCelD=      1
         NCelK=      1 NCelE2=     1 NClLst=     1 CellRange=     0.0.
 One-electron integrals computed using PRISM.
 One-electron integral symmetry used in STVInt
   1 Symmetry operations used in ECPInt.
 ECPInt:  NShTT=  271216 NPrTT=  987664 LenC2=  137430 LenP2D=  286586.
 LDataN:  DoStor=T MaxTD1= 4 Len=   56
 NBasis=  1572 RedAO= T EigKep=  3.36D-04  NBF=  1572
 NBsUse=  1572 1.00D-06 EigRej= -1.00D+00 NBFU=  1572
 Precomputing XC quadrature grid using
 IXCGrd= 4 IRadAn=           5 IRanWt=          -1 IRanGd=           0 AccXCQ= 0.00D+00.
 Generated NRdTot=       0 NPtTot=           0 NUsed=           0 NTot=          32
 NSgBfM=  1087  1073  1078  1079  1087 MxSgAt=   158 MxSgA2=   157.
 Leave Link  302 at Sat Sep  4 01:50:15 2021, MaxMem= 23488102400 cpu:             116.8 elap:               4.9
 (Enter /sw/apps/gaussian-16.0/g16/l303.exe)
 DipDrv:  MaxL=1.
 Leave Link  303 at Sat Sep  4 01:50:15 2021, MaxMem= 23488102400 cpu:               8.5 elap:               0.4
 (Enter /sw/apps/gaussian-16.0/g16/l308.exe)
 Leave Link  308 at Sat Sep  4 01:50:16 2021, MaxMem= 23488102400 cpu:              12.3 elap:               0.6
 (Enter /sw/apps/gaussian-16.0/g16/l401.exe)
 ExpMin= 3.36D-02 ExpMax= 4.95D+03 ExpMxC= 7.45D+02 IAcc=3 IRadAn=         5 AccDes= 0.00D+00
 Harris functional with IExCor=20419 and IRadAn=       5 diagonalized for initial guess.
 HarFok:  IExCor=20419 AccDes= 0.00D+00 IRadAn=         5 IDoV= 1 UseB2=F ITyADJ=14
 ICtDFT=  3500011 ScaDFX=  1.000000  1.000000  1.000000  1.000000
 FoFCou: FMM=F IPFlag=           0 FMFlag=      100000 FMFlg1=        2001
         NFxFlg=           0 DoJE=T BraDBF=F KetDBF=T FulRan=T
         wScrn=  0.000000 ICntrl=       500 IOpCl=  0 I1Cent=   200000004 NGrid=           0
         NMat0=    1 NMatS0=      1 NMatT0=    0 NMatD0=    1 NMtDS0=    0 NMtDT0=    0
 Petite list used in FoFCou.
 Harris En= -3918.65798540015    
 JPrj=0 DoOrth=F DoCkMO=F.
 Leave Link  401 at Sat Sep  4 01:50:23 2021, MaxMem= 23488102400 cpu:             170.2 elap:               7.1
 (Enter /sw/apps/gaussian-16.0/g16/l502.exe)
 Integral symmetry usage will be decided dynamically.
 Closed shell SCF:
 Using DIIS extrapolation, IDIIS=  1040.
 NGot= 23488102400 LenX= 23482547354 LenY= 23479796732
 Requested convergence on RMS density matrix=1.00D-08 within 128 cycles.
 Requested convergence on MAX density matrix=1.00D-06.
 Requested convergence on             energy=1.00D-06.
 No special actions if energy rises.
 Fock matrices will be formed incrementally for  20 cycles.

 Cycle   1  Pass 1  IDiag  1:
 FoFJK:  IHMeth= 1 ICntrl=       0 DoSepK=T KAlg= 0 I1Cent=           0 FoldK=F
 IRaf=         1 NMat=       1 IRICut=       1 DoRegI=T DoRafI=F ISym2E= 0 IDoP0=0 IntGTp=1.
 FoFCou: FMM=T IPFlag=           0 FMFlag=      100000 FMFlg1=        2001
         NFxFlg=           0 DoJE=T BraDBF=F KetDBF=F FulRan=T
         wScrn=  0.000000 ICntrl=       500 IOpCl=  0 I1Cent=           0 NGrid=           0
         NMat0=    1 NMatS0=      1 NMatT0=    0 NMatD0=    1 NMtDS0=    0 NMtDT0=    0
 Symmetry not used in FoFCou.
 FMM levels:  10  Number of levels for PrismC:   9
 E= -4068.94972611386    
 DIIS: error= 2.04D-02 at cycle   1 NSaved=   1.
 NSaved= 1 IEnMin= 1 EnMin= -4068.94972611386     IErMin= 1 ErrMin= 2.04D-02
 ErrMax= 2.04D-02  0.00D+00 EMaxC= 1.00D-01 BMatC= 1.69D+00 BMatP= 1.69D+00
 IDIUse=3 WtCom= 7.96D-01 WtEn= 2.04D-01
 Coeff-Com:  0.100D+01
 Coeff-En:   0.100D+01
 Coeff:      0.100D+01
 Gap=     0.121 Goal=   None    Shift=    0.000
 GapD=    0.121 DampG=1.000 DampE=0.500 DampFc=0.5000 IDamp=-1.
 Damping current iteration by 5.00D-01
 RMSDP=1.57D-03 MaxDP=1.35D-01              OVMax= 1.97D-01

 Cycle   2  Pass 1  IDiag  1:
 RMSU=  7.68D-04    CP:  9.82D-01
 E= -4069.33883588120     Delta-E=       -0.389109767348 Rises=F Damp=T
 DIIS: error= 1.27D-02 at cycle   2 NSaved=   2.
 NSaved= 2 IEnMin= 2 EnMin= -4069.33883588120     IErMin= 2 ErrMin= 1.27D-02
 ErrMax= 1.27D-02  0.00D+00 EMaxC= 1.00D-01 BMatC= 3.06D-01 BMatP= 1.69D+00
 IDIUse=3 WtCom= 8.73D-01 WtEn= 1.27D-01
 Coeff-Com: -0.214D+00 0.121D+01
 Coeff-En:   0.000D+00 0.100D+01
 Coeff:     -0.187D+00 0.119D+01
 Gap=     0.134 Goal=   None    Shift=    0.000
 RMSDP=7.63D-04 MaxDP=9.47D-02 DE=-3.89D-01 OVMax= 1.84D-01

 Cycle   3  Pass 1  IDiag  1:
 RMSU=  7.29D-04    CP:  9.68D-01  1.24D+00
 E= -4069.63022174323     Delta-E=       -0.291385862023 Rises=F Damp=F
 DIIS: error= 1.57D-02 at cycle   3 NSaved=   3.
 NSaved= 3 IEnMin= 3 EnMin= -4069.63022174323     IErMin= 2 ErrMin= 1.27D-02
 ErrMax= 1.57D-02  0.00D+00 EMaxC= 1.00D-01 BMatC= 2.00D-01 BMatP= 3.06D-01
 IDIUse=3 WtCom= 8.43D-01 WtEn= 1.57D-01
 Coeff-Com: -0.267D+00 0.651D+00 0.617D+00
 Coeff-En:   0.000D+00 0.000D+00 0.100D+01
 Coeff:     -0.225D+00 0.548D+00 0.677D+00
 Gap=     0.122 Goal=   None    Shift=    0.000
 RMSDP=5.02D-04 MaxDP=4.69D-02 DE=-2.91D-01 OVMax= 1.34D-01

 Cycle   4  Pass 1  IDiag  1:
 RMSU=  2.62D-04    CP:  9.65D-01  1.55D+00  5.11D-01
 E= -4069.76680903751     Delta-E=       -0.136587294284 Rises=F Damp=F
 DIIS: error= 7.26D-03 at cycle   4 NSaved=   4.
 NSaved= 4 IEnMin= 4 EnMin= -4069.76680903751     IErMin= 4 ErrMin= 7.26D-03
 ErrMax= 7.26D-03  0.00D+00 EMaxC= 1.00D-01 BMatC= 4.92D-02 BMatP= 2.00D-01
 IDIUse=3 WtCom= 9.27D-01 WtEn= 7.26D-02
 Coeff-Com: -0.108D+00 0.224D+00 0.407D+00 0.477D+00
 Coeff-En:   0.000D+00 0.000D+00 0.215D+00 0.785D+00
 Coeff:     -0.100D+00 0.208D+00 0.393D+00 0.499D+00
 Gap=     0.121 Goal=   None    Shift=    0.000
 RMSDP=1.94D-04 MaxDP=2.01D-02 DE=-1.37D-01 OVMax= 5.54D-02

 Cycle   5  Pass 1  IDiag  1:
 RMSU=  7.31D-05    CP:  9.64D-01  1.49D+00  6.90D-01  5.59D-01
 E= -4069.81062569342     Delta-E=       -0.043816655911 Rises=F Damp=F
 DIIS: error= 8.26D-04 at cycle   5 NSaved=   5.
 NSaved= 5 IEnMin= 5 EnMin= -4069.81062569342     IErMin= 5 ErrMin= 8.26D-04
 ErrMax= 8.26D-04  0.00D+00 EMaxC= 1.00D-01 BMatC= 1.04D-03 BMatP= 4.92D-02
 IDIUse=3 WtCom= 9.92D-01 WtEn= 8.26D-03
 Coeff-Com: -0.339D-01 0.663D-01 0.158D+00 0.243D+00 0.566D+00
 Coeff-En:   0.000D+00 0.000D+00 0.000D+00 0.000D+00 0.100D+01
 Coeff:     -0.336D-01 0.658D-01 0.157D+00 0.241D+00 0.570D+00
 Gap=     0.120 Goal=   None    Shift=    0.000
 RMSDP=3.71D-05 MaxDP=4.13D-03 DE=-4.38D-02 OVMax= 1.36D-02

 Cycle   6  Pass 1  IDiag  1:
 RMSU=  2.84D-05    CP:  9.64D-01  1.50D+00  6.83D-01  6.25D-01  7.89D-01
 E= -4069.81148337742     Delta-E=       -0.000857684001 Rises=F Damp=F
 DIIS: error= 2.52D-04 at cycle   6 NSaved=   6.
 NSaved= 6 IEnMin= 6 EnMin= -4069.81148337742     IErMin= 6 ErrMin= 2.52D-04
 ErrMax= 2.52D-04  0.00D+00 EMaxC= 1.00D-01 BMatC= 1.56D-04 BMatP= 1.04D-03
 IDIUse=3 WtCom= 9.97D-01 WtEn= 2.52D-03
 Coeff-Com:  0.269D-02-0.746D-02 0.875D-02 0.368D-01 0.307D+00 0.652D+00
 Coeff-En:   0.000D+00 0.000D+00 0.000D+00 0.000D+00 0.851D-01 0.915D+00
 Coeff:      0.268D-02-0.745D-02 0.873D-02 0.367D-01 0.307D+00 0.653D+00
 Gap=     0.121 Goal=   None    Shift=    0.000
 RMSDP=1.41D-05 MaxDP=1.31D-03 DE=-8.58D-04 OVMax= 6.40D-03

 Cycle   7  Pass 1  IDiag  1:
 RMSU=  9.77D-06    CP:  9.64D-01  1.50D+00  6.88D-01  6.27D-01  8.77D-01
                    CP:  7.67D-01
 E= -4069.81164410858     Delta-E=       -0.000160731153 Rises=F Damp=F
 DIIS: error= 7.70D-05 at cycle   7 NSaved=   7.
 NSaved= 7 IEnMin= 7 EnMin= -4069.81164410858     IErMin= 7 ErrMin= 7.70D-05
 ErrMax= 7.70D-05  0.00D+00 EMaxC= 1.00D-01 BMatC= 1.60D-05 BMatP= 1.56D-04
 IDIUse=1 WtCom= 1.00D+00 WtEn= 0.00D+00
 Coeff-Com:  0.431D-02-0.937D-02-0.930D-02-0.531D-02 0.919D-01 0.311D+00
 Coeff-Com:  0.616D+00
 Coeff:      0.431D-02-0.937D-02-0.930D-02-0.531D-02 0.919D-01 0.311D+00
 Coeff:      0.616D+00
 Gap=     0.121 Goal=   None    Shift=    0.000
 RMSDP=6.06D-06 MaxDP=1.20D-03 DE=-1.61D-04 OVMax= 3.34D-03

 Cycle   8  Pass 1  IDiag  1:
 RMSU=  4.42D-06    CP:  9.64D-01  1.50D+00  6.89D-01  6.31D-01  8.87D-01
                    CP:  8.93D-01  8.63D-01
 E= -4069.81166392383     Delta-E=       -0.000019815252 Rises=F Damp=F
 DIIS: error= 4.25D-05 at cycle   8 NSaved=   8.
 NSaved= 8 IEnMin= 8 EnMin= -4069.81166392383     IErMin= 8 ErrMin= 4.25D-05
 ErrMax= 4.25D-05  0.00D+00 EMaxC= 1.00D-01 BMatC= 4.17D-06 BMatP= 1.60D-05
 IDIUse=1 WtCom= 1.00D+00 WtEn= 0.00D+00
 Coeff-Com:  0.202D-02-0.399D-02-0.749D-02-0.121D-01-0.158D-01 0.313D-01
 Coeff-Com:  0.362D+00 0.644D+00
 Coeff:      0.202D-02-0.399D-02-0.749D-02-0.121D-01-0.158D-01 0.313D-01
 Coeff:      0.362D+00 0.644D+00
 Gap=     0.121 Goal=   None    Shift=    0.000
 RMSDP=3.09D-06 MaxDP=3.63D-04 DE=-1.98D-05 OVMax= 1.33D-03

 Cycle   9  Pass 1  IDiag  1:
 RMSU=  1.86D-06    CP:  9.64D-01  1.50D+00  6.90D-01  6.32D-01  9.03D-01
                    CP:  9.18D-01  1.06D+00  9.01D-01
 E= -4069.81167061108     Delta-E=       -0.000006687256 Rises=F Damp=F
 DIIS: error= 2.19D-05 at cycle   9 NSaved=   9.
 NSaved= 9 IEnMin= 9 EnMin= -4069.81167061108     IErMin= 9 ErrMin= 2.19D-05
 ErrMax= 2.19D-05  0.00D+00 EMaxC= 1.00D-01 BMatC= 6.31D-07 BMatP= 4.17D-06
 IDIUse=1 WtCom= 1.00D+00 WtEn= 0.00D+00
 Coeff-Com:  0.446D-03-0.740D-03-0.258D-02-0.586D-02-0.224D-01-0.350D-01
 Coeff-Com:  0.112D+00 0.332D+00 0.622D+00
 Coeff:      0.446D-03-0.740D-03-0.258D-02-0.586D-02-0.224D-01-0.350D-01
 Coeff:      0.112D+00 0.332D+00 0.622D+00
 Gap=     0.121 Goal=   None    Shift=    0.000
 RMSDP=1.36D-06 MaxDP=1.70D-04 DE=-6.69D-06 OVMax= 8.26D-04

 Cycle  10  Pass 1  IDiag  1:
 RMSU=  9.17D-07    CP:  9.64D-01  1.50D+00  6.90D-01  6.33D-01  9.06D-01
                    CP:  9.32D-01  1.10D+00  1.07D+00  1.01D+00
 E= -4069.81167204047     Delta-E=       -0.000001429384 Rises=F Damp=F
 DIIS: error= 1.16D-05 at cycle  10 NSaved=  10.
 NSaved=10 IEnMin=10 EnMin= -4069.81167204047     IErMin=10 ErrMin= 1.16D-05
 ErrMax= 1.16D-05  0.00D+00 EMaxC= 1.00D-01 BMatC= 1.61D-07 BMatP= 6.31D-07
 IDIUse=1 WtCom= 1.00D+00 WtEn= 0.00D+00
 Coeff-Com: -0.416D-03 0.871D-03 0.120D-02 0.112D-02-0.424D-02-0.301D-01
 Coeff-Com: -0.524D-01-0.666D-01 0.281D+00 0.870D+00
 Coeff:     -0.416D-03 0.871D-03 0.120D-02 0.112D-02-0.424D-02-0.301D-01
 Coeff:     -0.524D-01-0.666D-01 0.281D+00 0.870D+00
 Gap=     0.121 Goal=   None    Shift=    0.000
 RMSDP=1.16D-06 MaxDP=1.41D-04 DE=-1.43D-06 OVMax= 5.67D-04

 Cycle  11  Pass 1  IDiag  1:
 RMSU=  4.98D-07    CP:  9.64D-01  1.50D+00  6.90D-01  6.33D-01  9.08D-01
                    CP:  9.43D-01  1.16D+00  1.18D+00  1.35D+00  1.32D+00
 E= -4069.81167275094     Delta-E=       -0.000000710468 Rises=F Damp=F
 DIIS: error= 3.85D-06 at cycle  11 NSaved=  11.
 NSaved=11 IEnMin=11 EnMin= -4069.81167275094     IErMin=11 ErrMin= 3.85D-06
 ErrMax= 3.85D-06  0.00D+00 EMaxC= 1.00D-01 BMatC= 5.24D-08 BMatP= 1.61D-07
 IDIUse=1 WtCom= 1.00D+00 WtEn= 0.00D+00
 Coeff-Com: -0.320D-03 0.623D-03 0.129D-02 0.209D-02 0.416D-02-0.853D-02
 Coeff-Com: -0.498D-01-0.128D+00-0.173D-03 0.453D+00 0.726D+00
 Coeff:     -0.320D-03 0.623D-03 0.129D-02 0.209D-02 0.416D-02-0.853D-02
 Coeff:     -0.498D-01-0.128D+00-0.173D-03 0.453D+00 0.726D+00
 Gap=     0.121 Goal=   None    Shift=    0.000
 RMSDP=6.37D-07 MaxDP=5.06D-05 DE=-7.10D-07 OVMax= 3.39D-04

 Cycle  12  Pass 1  IDiag  1:
 RMSU=  2.55D-07    CP:  9.64D-01  1.50D+00  6.90D-01  6.33D-01  9.09D-01
                    CP:  9.45D-01  1.18D+00  1.24D+00  1.50D+00  1.69D+00
                    CP:  1.18D+00
 E= -4069.81167298124     Delta-E=       -0.000000230299 Rises=F Damp=F
 DIIS: error= 2.96D-06 at cycle  12 NSaved=  12.
 NSaved=12 IEnMin=12 EnMin= -4069.81167298124     IErMin=12 ErrMin= 2.96D-06
 ErrMax= 2.96D-06  0.00D+00 EMaxC= 1.00D-01 BMatC= 1.20D-08 BMatP= 5.24D-08
 IDIUse=1 WtCom= 1.00D+00 WtEn= 0.00D+00
 Coeff-Com: -0.218D-05-0.115D-04 0.179D-03 0.516D-03 0.316D-02 0.408D-02
 Coeff-Com:  0.108D-02-0.364D-01-0.645D-01-0.706D-01 0.248D+00 0.914D+00
 Coeff:     -0.218D-05-0.115D-04 0.179D-03 0.516D-03 0.316D-02 0.408D-02
 Coeff:      0.108D-02-0.364D-01-0.645D-01-0.706D-01 0.248D+00 0.914D+00
 Gap=     0.121 Goal=   None    Shift=    0.000
 RMSDP=4.19D-07 MaxDP=2.69D-05 DE=-2.30D-07 OVMax= 2.74D-04

 Cycle  13  Pass 1  IDiag  1:
 RMSU=  1.66D-07    CP:  9.64D-01  1.50D+00  6.90D-01  6.33D-01  9.09D-01
                    CP:  9.46D-01  1.19D+00  1.27D+00  1.61D+00  1.91D+00
                    CP:  1.59D+00  1.24D+00
 E= -4069.81167306265     Delta-E=       -0.000000081418 Rises=F Damp=F
 DIIS: error= 1.84D-06 at cycle  13 NSaved=  13.
 NSaved=13 IEnMin=13 EnMin= -4069.81167306265     IErMin=13 ErrMin= 1.84D-06
 ErrMax= 1.84D-06  0.00D+00 EMaxC= 1.00D-01 BMatC= 8.29D-09 BMatP= 1.20D-08
 IDIUse=1 WtCom= 1.00D+00 WtEn= 0.00D+00
 Coeff-Com:  0.115D-03-0.235D-03-0.348D-03-0.418D-03 0.614D-03 0.537D-02
 Coeff-Com:  0.205D-01 0.192D-01-0.421D-01-0.233D+00-0.145D+00 0.647D+00
 Coeff-Com:  0.729D+00
 Coeff:      0.115D-03-0.235D-03-0.348D-03-0.418D-03 0.614D-03 0.537D-02
 Coeff:      0.205D-01 0.192D-01-0.421D-01-0.233D+00-0.145D+00 0.647D+00
 Coeff:      0.729D+00
 Gap=     0.121 Goal=   None    Shift=    0.000
 RMSDP=3.07D-07 MaxDP=1.80D-05 DE=-8.14D-08 OVMax= 1.63D-04

 Cycle  14  Pass 1  IDiag  1:
 RMSU=  7.92D-08    CP:  9.64D-01  1.50D+00  6.90D-01  6.33D-01  9.09D-01
                    CP:  9.46D-01  1.20D+00  1.29D+00  1.68D+00  2.08D+00
                    CP:  1.83D+00  1.76D+00  1.03D+00
 E= -4069.81167309602     Delta-E=       -0.000000033368 Rises=F Damp=F
 DIIS: error= 1.23D-06 at cycle  14 NSaved=  14.
 NSaved=14 IEnMin=14 EnMin= -4069.81167309602     IErMin=14 ErrMin= 1.23D-06
 ErrMax= 1.23D-06  0.00D+00 EMaxC= 1.00D-01 BMatC= 1.16D-09 BMatP= 8.29D-09
 IDIUse=1 WtCom= 1.00D+00 WtEn= 0.00D+00
 Coeff-Com:  0.689D-04-0.136D-03-0.253D-03-0.394D-03-0.496D-03 0.167D-02
 Coeff-Com:  0.123D-01 0.192D-01-0.163D-02-0.106D+00-0.152D+00 0.138D+00
 Coeff-Com:  0.373D+00 0.716D+00
 Coeff:      0.689D-04-0.136D-03-0.253D-03-0.394D-03-0.496D-03 0.167D-02
 Coeff:      0.123D-01 0.192D-01-0.163D-02-0.106D+00-0.152D+00 0.138D+00
 Coeff:      0.373D+00 0.716D+00
 Gap=     0.121 Goal=   None    Shift=    0.000
 RMSDP=1.09D-07 MaxDP=7.07D-06 DE=-3.34D-08 OVMax= 7.73D-05

 Cycle  15  Pass 1  IDiag  1:
 RMSU=  3.92D-08    CP:  9.64D-01  1.50D+00  6.90D-01  6.33D-01  9.09D-01
                    CP:  9.46D-01  1.20D+00  1.30D+00  1.70D+00  2.13D+00
                    CP:  1.95D+00  1.91D+00  1.27D+00  9.85D-01
 E= -4069.81167310037     Delta-E=       -0.000000004351 Rises=F Damp=F
 DIIS: error= 5.41D-07 at cycle  15 NSaved=  15.
 NSaved=15 IEnMin=15 EnMin= -4069.81167310037     IErMin=15 ErrMin= 5.41D-07
 ErrMax= 5.41D-07  0.00D+00 EMaxC= 1.00D-01 BMatC= 3.15D-10 BMatP= 1.16D-09
 IDIUse=1 WtCom= 1.00D+00 WtEn= 0.00D+00
 Coeff-Com:  0.117D-04-0.215D-04-0.559D-04-0.118D-03-0.367D-03-0.324D-03
 Coeff-Com:  0.238D-02 0.469D-02 0.879D-02-0.628D-02-0.478D-01-0.498D-01
 Coeff-Com:  0.255D-01 0.377D+00 0.687D+00
 Coeff:      0.117D-04-0.215D-04-0.559D-04-0.118D-03-0.367D-03-0.324D-03
 Coeff:      0.238D-02 0.469D-02 0.879D-02-0.628D-02-0.478D-01-0.498D-01
 Coeff:      0.255D-01 0.377D+00 0.687D+00
 Gap=     0.121 Goal=   None    Shift=    0.000
 RMSDP=3.92D-08 MaxDP=3.10D-06 DE=-4.35D-09 OVMax= 2.17D-05

 Cycle  16  Pass 1  IDiag  1:
 RMSU=  1.89D-08    CP:  9.64D-01  1.50D+00  6.90D-01  6.33D-01  9.09D-01
                    CP:  9.46D-01  1.20D+00  1.30D+00  1.70D+00  2.14D+00
                    CP:  1.97D+00  1.98D+00  1.33D+00  1.21D+00  1.12D+00
 E= -4069.81167310115     Delta-E=       -0.000000000779 Rises=F Damp=F
 DIIS: error= 1.61D-07 at cycle  16 NSaved=  16.
 NSaved=16 IEnMin=16 EnMin= -4069.81167310115     IErMin=16 ErrMin= 1.61D-07
 ErrMax= 1.61D-07  0.00D+00 EMaxC= 1.00D-01 BMatC= 7.69D-11 BMatP= 3.15D-10
 IDIUse=1 WtCom= 1.00D+00 WtEn= 0.00D+00
 Coeff-Com: -0.131D-04 0.266D-04 0.425D-04 0.463D-04-0.482D-04-0.641D-03
 Coeff-Com: -0.205D-02-0.369D-02 0.565D-02 0.243D-01 0.155D-01-0.601D-01
 Coeff-Com: -0.988D-01 0.184D-01 0.329D+00 0.772D+00
 Coeff:     -0.131D-04 0.266D-04 0.425D-04 0.463D-04-0.482D-04-0.641D-03
 Coeff:     -0.205D-02-0.369D-02 0.565D-02 0.243D-01 0.155D-01-0.601D-01
 Coeff:     -0.988D-01 0.184D-01 0.329D+00 0.772D+00
 Gap=     0.121 Goal=   None    Shift=    0.000
 RMSDP=2.57D-08 MaxDP=2.23D-06 DE=-7.79D-10 OVMax= 1.79D-05

 Cycle  17  Pass 1  IDiag  1:
 RMSU=  1.21D-08    CP:  9.64D-01  1.50D+00  6.90D-01  6.33D-01  9.09D-01
                    CP:  9.46D-01  1.20D+00  1.30D+00  1.70D+00  2.15D+00
                    CP:  1.98D+00  2.01D+00  1.38D+00  1.30D+00  1.42D+00
                    CP:  1.18D+00
 E= -4069.81167310169     Delta-E=       -0.000000000538 Rises=F Damp=F
 DIIS: error= 1.02D-07 at cycle  17 NSaved=  17.
 NSaved=17 IEnMin=17 EnMin= -4069.81167310169     IErMin=17 ErrMin= 1.02D-07
 ErrMax= 1.02D-07  0.00D+00 EMaxC= 1.00D-01 BMatC= 2.53D-11 BMatP= 7.69D-11
 IDIUse=1 WtCom= 1.00D+00 WtEn= 0.00D+00
 Coeff-Com: -0.918D-05 0.181D-04 0.352D-04 0.508D-04 0.786D-04-0.227D-03
 Coeff-Com: -0.147D-02-0.329D-02 0.131D-02 0.134D-01 0.200D-01-0.137D-01
 Coeff-Com: -0.582D-01-0.809D-01-0.513D-01 0.395D+00 0.779D+00
 Coeff:     -0.918D-05 0.181D-04 0.352D-04 0.508D-04 0.786D-04-0.227D-03
 Coeff:     -0.147D-02-0.329D-02 0.131D-02 0.134D-01 0.200D-01-0.137D-01
 Coeff:     -0.582D-01-0.809D-01-0.513D-01 0.395D+00 0.779D+00
 Gap=     0.121 Goal=   None    Shift=    0.000
 RMSDP=1.43D-08 MaxDP=8.79D-07 DE=-5.38D-10 OVMax= 7.81D-06

 Cycle  18  Pass 1  IDiag  1:
 RMSU=  5.59D-09    CP:  9.64D-01  1.50D+00  6.90D-01  6.33D-01  9.09D-01
                    CP:  9.46D-01  1.20D+00  1.30D+00  1.70D+00  2.15D+00
                    CP:  1.99D+00  2.02D+00  1.40D+00  1.38D+00  1.59D+00
                    CP:  1.59D+00  1.30D+00
 E= -4069.81167310178     Delta-E=       -0.000000000095 Rises=F Damp=F
 DIIS: error= 7.95D-08 at cycle  18 NSaved=  18.
 NSaved=18 IEnMin=18 EnMin= -4069.81167310178     IErMin=18 ErrMin= 7.95D-08
 ErrMax= 7.95D-08  0.00D+00 EMaxC= 1.00D-01 BMatC= 7.31D-12 BMatP= 2.53D-11
 IDIUse=1 WtCom= 1.00D+00 WtEn= 0.00D+00
 Coeff-Com:  0.131D-06-0.622D-06 0.256D-05 0.830D-05 0.693D-04 0.133D-03
 Coeff-Com:  0.968D-04-0.486D-03-0.115D-02-0.317D-02 0.374D-02 0.174D-01
 Coeff-Com:  0.558D-02-0.391D-01-0.159D+00-0.663D-01 0.345D+00 0.897D+00
 Coeff:      0.131D-06-0.622D-06 0.256D-05 0.830D-05 0.693D-04 0.133D-03
 Coeff:      0.968D-04-0.486D-03-0.115D-02-0.317D-02 0.374D-02 0.174D-01
 Coeff:      0.558D-02-0.391D-01-0.159D+00-0.663D-01 0.345D+00 0.897D+00
 Gap=     0.121 Goal=   None    Shift=    0.000
 RMSDP=1.09D-08 MaxDP=8.64D-07 DE=-9.46D-11 OVMax= 6.80D-06

 Cycle  19  Pass 1  IDiag  1:
 RMSU=  3.25D-09    CP:  9.64D-01  1.50D+00  6.90D-01  6.33D-01  9.09D-01
                    CP:  9.46D-01  1.20D+00  1.30D+00  1.70D+00  2.15D+00
                    CP:  1.99D+00  2.02D+00  1.41D+00  1.41D+00  1.72D+00
                    CP:  1.85D+00  1.80D+00  1.22D+00
 E= -4069.81167310170     Delta-E=        0.000000000087 Rises=F Damp=F
 DIIS: error= 3.27D-08 at cycle  19 NSaved=  19.
 NSaved=19 IEnMin=18 EnMin= -4069.81167310178     IErMin=19 ErrMin= 3.27D-08
 ErrMax= 3.27D-08  0.00D+00 EMaxC= 1.00D-01 BMatC= 3.04D-12 BMatP= 7.31D-12
 IDIUse=1 WtCom= 1.00D+00 WtEn= 0.00D+00
 Coeff-Com:  0.345D-05-0.700D-05-0.114D-04-0.138D-04 0.188D-04 0.165D-03
 Coeff-Com:  0.630D-03 0.877D-03-0.106D-02-0.719D-02-0.527D-02 0.166D-01
 Coeff-Com:  0.246D-01 0.787D-02-0.895D-01-0.196D+00-0.105D+00 0.566D+00
 Coeff-Com:  0.787D+00
 Coeff:      0.345D-05-0.700D-05-0.114D-04-0.138D-04 0.188D-04 0.165D-03
 Coeff:      0.630D-03 0.877D-03-0.106D-02-0.719D-02-0.527D-02 0.166D-01
 Coeff:      0.246D-01 0.787D-02-0.895D-01-0.196D+00-0.105D+00 0.566D+00
 Coeff:      0.787D+00
 Gap=     0.121 Goal=   None    Shift=    0.000
 RMSDP=7.40D-09 MaxDP=4.62D-07 DE= 8.73D-11 OVMax= 4.19D-06

 SCF Done:  E(RCAM-B3LYP) =  -4069.81167310     A.U. after   19 cycles
            NFock= 19  Conv=0.74D-08     -V/T= 2.0102
 KE= 4.028801144071D+03 PE=-3.933908373389D+04 EE= 1.631146397299D+04
 Leave Link  502 at Sat Sep  4 01:59:39 2021, MaxMem= 23488102400 cpu:           12787.8 elap:             556.2
 (Enter /sw/apps/gaussian-16.0/g16/l801.exe)
 DoSCS=F DFT=T ScalE2(SS,OS)=  1.000000  1.000000
 ExpMin= 3.36D-02 ExpMax= 4.95D+03 ExpMxC= 7.45D+02 IAcc=3 IRadAn=         5 AccDes= 0.00D+00
 HarFok:  IExCor=  205 AccDes= 0.00D+00 IRadAn=         5 IDoV=-2 UseB2=F ITyADJ=14
 ICtDFT= 12500011 ScaDFX=  1.000000  1.000000  1.000000  1.000000
 GSVD:  LWork=       -9588 too small for GESVD, short by       45590 words or       45590 for optimal perf.
 Largest valence mixing into a core orbital is  2.03D-04
 Largest core mixing into a valence orbital is  5.24D-05
 Range of M.O.s used for correlation:    95  1572
 NBasis=  1572 NAE=   312 NBE=   312 NFC=    94 NFV=     0
 NROrb=   1478 NOA=   218 NOB=   218 NVA=  1260 NVB=  1260
 Leave Link  801 at Sat Sep  4 01:59:40 2021, MaxMem= 23488102400 cpu:               7.4 elap:               0.3
 (Enter /sw/apps/gaussian-16.0/g16/l914.exe)
 RHF ground state
 Two-electron integrals replicated using symmetry.
 MDV= 23488102400 DFT=T DoStab=F Mixed=T DoRPA=T DoScal=F NonHer=T
 Making orbital integer symmetry assigments:
 Orbital symmetries:
       Occupied  (A) (A) (A) (A) (A) (A) (A) (A) (A) (A) (A) (A)
                 (A) (A) (A) (A) (A) (A) (A) (A) (A) (A) (A) (A)
                 (A) (A) (A) (A) (A) (A) (A) (A) (A) (A) (A) (A)
                 (A) (A) (A) (A) (A) (A) (A) (A) (A) (A) (A) (A)
                 (A) (A) (A) (A) (A) (A) (A) (A) (A) (A) (A) (A)
                 (A) (A) (A) (A) (A) (A) (A) (A) (A) (A) (A) (A)
                 (A) (A) (A) (A) (A) (A) (A) (A) (A) (A) (A) (A)
                 (A) (A) (A) (A) (A) (A) (A) (A) (A) (A) (A) (A)
                 (A) (A) (A) (A) (A) (A) (A) (A) (A) (A) (A) (A)
                 (A) (A) (A) (A) (A) (A) (A) (A) (A) (A) (A) (A)
                 (A) (A) (A) (A) (A) (A) (A) (A) (A) (A) (A) (A)
                 (A) (A) (A) (A) (A) (A) (A) (A) (A) (A) (A) (A)
                 (A) (A) (A) (A) (A) (A) (A) (A) (A) (A) (A) (A)
                 (A) (A) (A) (A) (A) (A) (A) (A) (A) (A) (A) (A)
                 (A) (A) (A) (A) (A) (A) (A) (A) (A) (A) (A) (A)
                 (A) (A) (A) (A) (A) (A) (A) (A) (A) (A) (A) (A)
                 (A) (A) (A) (A) (A) (A) (A) (A) (A) (A) (A) (A)
                 (A) (A) (A) (A) (A) (A) (A) (A) (A) (A) (A) (A)
                 (A) (A) (A) (A) (A) (A) (A) (A) (A) (A) (A) (A)
                 (A) (A) (A) (A) (A) (A) (A) (A) (A) (A) (A) (A)
                 (A) (A) (A) (A) (A) (A) (A) (A) (A) (A) (A) (A)
                 (A) (A) (A) (A) (A) (A) (A) (A) (A) (A) (A) (A)
                 (A) (A) (A) (A) (A) (A) (A) (A) (A) (A) (A) (A)
                 (A) (A) (A) (A) (A) (A) (A) (A) (A) (A) (A) (A)
                 (A) (A) (A) (A) (A) (A) (A) (A) (A) (A) (A) (A)
                 (A) (A) (A) (A) (A) (A) (A) (A) (A) (A) (A) (A)
       Virtual   (A) (A) (A) (A) (A) (A) (A) (A) (A) (A) (A) (A)
                 (A) (A) (A) (A) (A) (A) (A) (A) (A) (A) (A) (A)
                 (A) (A) (A) (A) (A) (A) (A) (A) (A) (A) (A) (A)
                 (A) (A) (A) (A) (A) (A) (A) (A) (A) (A) (A) (A)
                 (A) (A) (A) (A) (A) (A) (A) (A) (A) (A) (A) (A)
                 (A) (A) (A) (A) (A) (A) (A) (A) (A) (A) (A) (A)
                 (A) (A) (A) (A) (A) (A) (A) (A) (A) (A) (A) (A)
                 (A) (A) (A) (A) (A) (A) (A) (A) (A) (A) (A) (A)
                 (A) (A) (A) (A) (A) (A) (A) (A) (A) (A) (A) (A)
                 (A) (A) (A) (A) (A) (A) (A) (A) (A) (A) (A) (A)
                 (A) (A) (A) (A) (A) (A) (A) (A) (A) (A) (A) (A)
                 (A) (A) (A) (A) (A) (A) (A) (A) (A) (A) (A) (A)
                 (A) (A) (A) (A) (A) (A) (A) (A) (A) (A) (A) (A)
                 (A) (A) (A) (A) (A) (A) (A) (A) (A) (A) (A) (A)
                 (A) (A) (A) (A) (A) (A) (A) (A) (A) (A) (A) (A)
                 (A) (A) (A) (A) (A) (A) (A) (A) (A) (A) (A) (A)
                 (A) (A) (A) (A) (A) (A) (A) (A) (A) (A) (A) (A)
                 (A) (A) (A) (A) (A) (A) (A) (A) (A) (A) (A) (A)
                 (A) (A) (A) (A) (A) (A) (A) (A) (A) (A) (A) (A)
                 (A) (A) (A) (A) (A) (A) (A) (A) (A) (A) (A) (A)
                 (A) (A) (A) (A) (A) (A) (A) (A) (A) (A) (A) (A)
                 (A) (A) (A) (A) (A) (A) (A) (A) (A) (A) (A) (A)
                 (A) (A) (A) (A) (A) (A) (A) (A) (A) (A) (A) (A)
                 (A) (A) (A) (A) (A) (A) (A) (A) (A) (A) (A) (A)
                 (A) (A) (A) (A) (A) (A) (A) (A) (A) (A) (A) (A)
                 (A) (A) (A) (A) (A) (A) (A) (A) (A) (A) (A) (A)
                 (A) (A) (A) (A) (A) (A) (A) (A) (A) (A) (A) (A)
                 (A) (A) (A) (A) (A) (A) (A) (A) (A) (A) (A) (A)
                 (A) (A) (A) (A) (A) (A) (A) (A) (A) (A) (A) (A)
                 (A) (A) (A) (A) (A) (A) (A) (A) (A) (A) (A) (A)
                 (A) (A) (A) (A) (A) (A) (A) (A) (A) (A) (A) (A)
                 (A) (A) (A) (A) (A) (A) (A) (A) (A) (A) (A) (A)
                 (A) (A) (A) (A) (A) (A) (A) (A) (A) (A) (A) (A)
                 (A) (A) (A) (A) (A) (A) (A) (A) (A) (A) (A) (A)
                 (A) (A) (A) (A) (A) (A) (A) (A) (A) (A) (A) (A)
                 (A) (A) (A) (A) (A) (A) (A) (A) (A) (A) (A) (A)
                 (A) (A) (A) (A) (A) (A) (A) (A) (A) (A) (A) (A)
                 (A) (A) (A) (A) (A) (A) (A) (A) (A) (A) (A) (A)
                 (A) (A) (A) (A) (A) (A) (A) (A) (A) (A) (A) (A)
                 (A) (A) (A) (A) (A) (A) (A) (A) (A) (A) (A) (A)
                 (A) (A) (A) (A) (A) (A) (A) (A) (A) (A) (A) (A)
                 (A) (A) (A) (A) (A) (A) (A) (A) (A) (A) (A) (A)
                 (A) (A) (A) (A) (A) (A) (A) (A) (A) (A) (A) (A)
                 (A) (A) (A) (A) (A) (A) (A) (A) (A) (A) (A) (A)
                 (A) (A) (A) (A) (A) (A) (A) (A) (A) (A) (A) (A)
                 (A) (A) (A) (A) (A) (A) (A) (A) (A) (A) (A) (A)
                 (A) (A) (A) (A) (A) (A) (A) (A) (A) (A) (A) (A)
                 (A) (A) (A) (A) (A) (A) (A) (A) (A) (A) (A) (A)
                 (A) (A) (A) (A) (A) (A) (A) (A) (A) (A) (A) (A)
                 (A) (A) (A) (A) (A) (A) (A) (A) (A) (A) (A) (A)
                 (A) (A) (A) (A) (A) (A) (A) (A) (A) (A) (A) (A)
                 (A) (A) (A) (A) (A) (A) (A) (A) (A) (A) (A) (A)
                 (A) (A) (A) (A) (A) (A) (A) (A) (A) (A) (A) (A)
                 (A) (A) (A) (A) (A) (A) (A) (A) (A) (A) (A) (A)
                 (A) (A) (A) (A) (A) (A) (A) (A) (A) (A) (A) (A)
                 (A) (A) (A) (A) (A) (A) (A) (A) (A) (A) (A) (A)
                 (A) (A) (A) (A) (A) (A) (A) (A) (A) (A) (A) (A)
                 (A) (A) (A) (A) (A) (A) (A) (A) (A) (A) (A) (A)
                 (A) (A) (A) (A) (A) (A) (A) (A) (A) (A) (A) (A)
                 (A) (A) (A) (A) (A) (A) (A) (A) (A) (A) (A) (A)
                 (A) (A) (A) (A) (A) (A) (A) (A) (A) (A) (A) (A)
                 (A) (A) (A) (A) (A) (A) (A) (A) (A) (A) (A) (A)
                 (A) (A) (A) (A) (A) (A) (A) (A) (A) (A) (A) (A)
                 (A) (A) (A) (A) (A) (A) (A) (A) (A) (A) (A) (A)
                 (A) (A) (A) (A) (A) (A) (A) (A) (A) (A) (A) (A)
                 (A) (A) (A) (A) (A) (A) (A) (A) (A) (A) (A) (A)
                 (A) (A) (A) (A) (A) (A) (A) (A) (A) (A) (A) (A)
                 (A) (A) (A) (A) (A) (A) (A) (A) (A) (A) (A) (A)
                 (A) (A) (A) (A) (A) (A) (A) (A) (A) (A) (A) (A)
                 (A) (A) (A) (A) (A) (A) (A) (A) (A) (A) (A) (A)
                 (A) (A) (A) (A) (A) (A) (A) (A) (A) (A) (A) (A)
                 (A) (A) (A) (A) (A) (A) (A) (A) (A) (A) (A) (A)
                 (A) (A) (A) (A) (A) (A) (A) (A) (A) (A) (A) (A)
                 (A) (A) (A) (A) (A) (A) (A) (A) (A) (A) (A) (A)
                 (A) (A) (A) (A) (A) (A) (A) (A) (A) (A) (A) (A)
                 (A) (A) (A) (A) (A) (A) (A) (A) (A) (A) (A) (A)
                 (A) (A) (A) (A) (A) (A) (A) (A) (A) (A) (A) (A)
                 (A) (A) (A) (A) (A) (A) (A) (A) (A) (A) (A) (A)
                 (A) (A) (A) (A) (A) (A) (A) (A) (A) (A) (A) (A)
                 (A) (A) (A) (A) (A) (A) (A) (A) (A) (A) (A) (A)
                 (A) (A) (A) (A) (A) (A) (A) (A) (A) (A) (A) (A)
                 (A) (A) (A) (A) (A) (A) (A) (A) (A) (A) (A) (A)
                 (A) (A) (A) (A) (A) (A) (A) (A) (A) (A) (A) (A)
                 (A) (A) (A) (A) (A) (A) (A) (A) (A) (A) (A) (A)
                 (A) (A) (A) (A) (A) (A) (A) (A) (A) (A) (A) (A)
                 (A) (A) (A) (A) (A) (A) (A) (A) (A) (A) (A) (A)
                 (A) (A) (A) (A) (A) (A) (A) (A) (A) (A) (A) (A)
                 (A) (A) (A) (A) (A) (A) (A) (A) (A) (A) (A) (A)
                 (A) (A) (A) (A) (A) (A) (A) (A) (A) (A) (A) (A)
                 (A) (A) (A) (A) (A) (A) (A) (A) (A) (A) (A) (A)
                 (A) (A) (A) (A) (A) (A) (A) (A) (A) (A) (A) (A)
                 (A) (A) (A) (A) (A) (A) (A) (A) (A) (A) (A) (A)
                 (A) (A) (A) (A) (A) (A) (A) (A) (A) (A) (A) (A)
                 (A) (A) (A) (A) (A) (A) (A) (A) (A) (A) (A) (A)
                 (A) (A) (A) (A) (A) (A) (A) (A) (A) (A) (A) (A)
                 (A) (A) (A) (A) (A) (A) (A) (A) (A) (A) (A) (A)
                 (A) (A) (A) (A) (A) (A) (A) (A) (A) (A) (A) (A)
                 (A) (A) (A) (A) (A) (A) (A) (A) (A) (A) (A) (A)
                 (A) (A) (A) (A) (A) (A) (A) (A) (A) (A) (A) (A)
                 (A) (A) (A) (A) (A) (A) (A) (A) (A) (A) (A) (A)
                 (A) (A) (A) (A) (A) (A) (A) (A) (A) (A) (A) (A)
                 (A) (A) (A) (A) (A) (A) (A) (A) (A) (A) (A) (A)
                 (A) (A) (A) (A) (A) (A) (A) (A) (A) (A) (A) (A)
                 (A) (A) (A) (A) (A) (A) (A) (A) (A) (A) (A) (A)
                 (A) (A) (A) (A) (A) (A) (A) (A) (A) (A) (A) (A)
    20 initial guesses have been made.
 Convergence on wavefunction:    0.001000000000000
 Davidson Disk Diagonalization:  ConvIn= 1.00D-03 SkipCon=T Conv= 1.00D-03.
 Max sub-space:  2000 roots to seek:    20 dimension of matrix:       549360
 Iteration     1 Dimension    20 NMult     0 NNew     20
 CISAX will form    20 AO SS matrices at one time.
 NMat=    20 NSing=    20 JSym2X= 0.
 FoFJK:  IHMeth= 1 ICntrl=       0 DoSepK=T KAlg= 0 I1Cent=           0 FoldK=F
 IRaf=         1 NMat=      40 IRICut=       1 DoRegI=T DoRafI=F ISym2E= 0 IDoP0=3 IntGTp=3.
 FoFCou: FMM=T IPFlag=           0 FMFlag=      100000 FMFlg1=        2001
         NFxFlg=           0 DoJE=F BraDBF=F KetDBF=F FulRan=T
         wScrn=  0.000000 ICntrl=       500 IOpCl=  0 I1Cent=           0 NGrid=           0
         NMat0=   20 NMatS0=     20 NMatT0=    0 NMatD0=   20 NMtDS0=    0 NMtDT0=    0
 Symmetry not used in FoFCou.
 FMM levels:  10  Number of levels for PrismC:   9
 New state      2 was old state      7
 New state      3 was old state      6
 New state      5 was old state      2
 Excitation Energies [eV] at current iteration:
 Root      1 :     2.486861205431215
 Root      2 :     2.609198196538252
 Root      3 :     2.620942678817331
 Root      4 :     2.623823614158049
 Root      5 :     2.641245430833520
 Root      6 :     2.733771969659568
 Root      7 :     3.273996572139788
 Root      8 :     3.421794258737688
 Root      9 :     3.634940062959116
 Root     10 :     3.671548114069600
 Root     11 :     3.729699423391184
 Root     12 :     3.755704859110375
 Root     13 :     4.270814297387696
 Root     14 :     4.344480093266633
 Root     15 :     4.388966700586551
 Root     16 :     4.554794728427789
 Root     17 :     4.709308881839871
 Root     18 :     4.741302039918509
 Root     19 :     4.847265998996853
 Root     20 :     4.871897319734977
 Iteration     2 Dimension    30 NMult    20 NNew     10
 CISAX will form    10 AO SS matrices at one time.
 NMat=    10 NSing=    10 JSym2X= 0.
 New state      1 was old state      5
 Root      1 not converged, maximum delta is    0.229969068280277
 Root      2 not converged, maximum delta is    0.331817730240788
 Root      3 not converged, maximum delta is    0.325425399196824
 New state      4 was old state      1
 Root      4 not converged, maximum delta is    0.002285860409115
 New state      5 was old state      4
 Root      5 not converged, maximum delta is    0.005480256792621
 Excitation Energies [eV] at current iteration:
 Root      1 :     1.781377225798801   Change is   -0.859868205034720
 Root      2 :     2.232338610097417   Change is   -0.376859586440835
 Root      3 :     2.239605045437272   Change is   -0.381337633380059
 Root      4 :     2.486455853849614   Change is   -0.000405351581601
 Root      5 :     2.623274723952329   Change is   -0.000548890205719
 Iteration     3 Dimension    40 NMult    30 NNew     10
 CISAX will form    10 AO SS matrices at one time.
 NMat=    10 NSing=    10 JSym2X= 0.
 Root      1 not converged, maximum delta is    0.054232924949013
 New state      2 was old state      3
 Root      2 not converged, maximum delta is    0.514768215234625
 New state      3 was old state      2
 Root      3 not converged, maximum delta is    0.034473225508670
 No map to state      4
 New state      5 was old state      4
 Root      5 has converged.
 Excitation Energies [eV] at current iteration:
 Root      1 :     1.676099632509344   Change is   -0.105277593289456
 Root      2 :     1.863372216817099   Change is   -0.376232828620173
 Root      3 :     2.192680226149508   Change is   -0.039658383947909
 Root      4 :     2.206967684235888
 Root      5 :     2.486453909406229   Change is   -0.000001944443385
 Iteration     4 Dimension    48 NMult    40 NNew      8
 CISAX will form     8 AO SS matrices at one time.
 NMat=     8 NSing=     8 JSym2X= 0.
 Root      1 not converged, maximum delta is    0.011189787314466
 Root      2 not converged, maximum delta is    0.031340535134424
 Root      3 not converged, maximum delta is    0.048216055693385
 Root      4 not converged, maximum delta is    0.047036354339833
 Root      5 has converged.
 Excitation Energies [eV] at current iteration:
 Root      1 :     1.659493865069719   Change is   -0.016605767439625
 Root      2 :     1.717921637448328   Change is   -0.145450579368771
 Root      3 :     2.185421402089705   Change is   -0.007258824059803
 Root      4 :     2.196674576404545   Change is   -0.010293107831342
 Root      5 :     2.486453857093309   Change is   -0.000000052312920
 Iteration     5 Dimension    56 NMult    48 NNew      8
 CISAX will form     8 AO SS matrices at one time.
 NMat=     8 NSing=     8 JSym2X= 0.
 Root      1 not converged, maximum delta is    0.001729763765773
 Root      2 not converged, maximum delta is    0.011698086801924
 Root      3 not converged, maximum delta is    0.007060280277375
 Root      4 not converged, maximum delta is    0.007064447350038
 Root      5 has converged.
 Excitation Energies [eV] at current iteration:
 Root      1 :     1.657772610912056   Change is   -0.001721254157663
 Root      2 :     1.699486169149682   Change is   -0.018435468298646
 Root      3 :     2.184561915319736   Change is   -0.000859486769968
 Root      4 :     2.195544956595597   Change is   -0.001129619808948
 Root      5 :     2.486453827936722   Change is   -0.000000029156587
 Iteration     6 Dimension    64 NMult    56 NNew      8
 CISAX will form     8 AO SS matrices at one time.
 NMat=     8 NSing=     8 JSym2X= 0.
 Root      1 has converged.
 Root      2 not converged, maximum delta is    0.003034567774643
 Root      3 has converged.
 Root      4 has converged.
 Root      5 has converged.
 Excitation Energies [eV] at current iteration:
 Root      1 :     1.657528664919708   Change is   -0.000243945992348
 Root      2 :     1.697779241797023   Change is   -0.001706927352659
 Root      3 :     2.184436940566506   Change is   -0.000124974753231
 Root      4 :     2.195397300590297   Change is   -0.000147656005300
 Root      5 :     2.486453823142049   Change is   -0.000000004794673
 Iteration     7 Dimension    66 NMult    64 NNew      2
 CISAX will form     2 AO SS matrices at one time.
 NMat=     2 NSing=     2 JSym2X= 0.
 Root      1 has converged.
 Root      2 not converged, maximum delta is    0.001173822295825
 Root      3 has converged.
 Root      4 has converged.
 Root      5 has converged.
 Excitation Energies [eV] at current iteration:
 Root      1 :     1.657528619799994   Change is   -0.000000045119714
 Root      2 :     1.697444079432006   Change is   -0.000335162365016
 Root      3 :     2.184436815566074   Change is   -0.000000125000431
[...]
 Alpha virt. eigenvalues --    1.84390   1.84624   1.84784   1.84916   1.85016
 Alpha virt. eigenvalues --    1.85213   1.85232   1.85484   1.85502   1.85619
 Alpha virt. eigenvalues --    1.85817   1.86010   1.86299   1.86498   1.86529
 Alpha virt. eigenvalues --    1.86731   1.86766   1.86932   1.86967   1.87127
 Alpha virt. eigenvalues --    1.87389   1.87584   1.87647   1.87820   1.87870
 Alpha virt. eigenvalues --    1.87992   1.88128   1.88290   1.88500   1.88695
 Alpha virt. eigenvalues --    1.88796   1.89028   1.89082   1.89172   1.89606
 Alpha virt. eigenvalues --    1.89720   1.89792   1.90002   1.90086   1.90312
 Alpha virt. eigenvalues --    1.90706   1.90997   1.91303   1.91401   1.91536
 Alpha virt. eigenvalues --    1.91697   1.92103   1.92279   1.92588   1.92750
 Alpha virt. eigenvalues --    1.92934   1.93259   1.93275   1.93607   1.94203
 Alpha virt. eigenvalues --    1.94397   1.94652   1.94939   1.95395   1.95684
 Alpha virt. eigenvalues --    1.95689   1.95905   1.95952   1.96073   1.96154
 Alpha virt. eigenvalues --    1.96270   1.96534   1.96579   1.96861   1.97056
 Alpha virt. eigenvalues --    1.97389   1.97624   1.97764   1.97890   1.98128
 Alpha virt. eigenvalues --    1.98271   1.98432   1.98654   1.99103   1.99186
 Alpha virt. eigenvalues --    1.99792   2.00040   2.00601   2.00820   2.00965
 Alpha virt. eigenvalues --    2.01206   2.01450   2.01598   2.01618   2.01691
 Alpha virt. eigenvalues --    2.01712   2.01922   2.02745   2.02813   2.03178
 Alpha virt. eigenvalues --    2.03243   2.03374   2.03448   2.03489   2.03621
 Alpha virt. eigenvalues --    2.03995   2.04125   2.04919   2.05093   2.05479
 Alpha virt. eigenvalues --    2.05750   2.06053   2.06403   2.06879   2.07127
 Alpha virt. eigenvalues --    2.07131   2.07439   2.08564   2.08692   2.08946
 Alpha virt. eigenvalues --    2.09101   2.09558   2.09718   2.10696   2.11127
 Alpha virt. eigenvalues --    2.11140   2.11501   2.11512   2.11621   2.11695
 Alpha virt. eigenvalues --    2.11996   2.12425   2.12567   2.12767   2.12782
 Alpha virt. eigenvalues --    2.12915   2.12971   2.13725   2.13738   2.14076
 Alpha virt. eigenvalues --    2.14364   2.15298   2.15517   2.15887   2.16182
 Alpha virt. eigenvalues --    2.16469   2.16702   2.16707   2.17266   2.17373
 Alpha virt. eigenvalues --    2.17666   2.17765   2.17985   2.18050   2.18100
 Alpha virt. eigenvalues --    2.18305   2.18773   2.18837   2.19327   2.19604
 Alpha virt. eigenvalues --    2.19917   2.20005   2.20159   2.20331   2.20546
 Alpha virt. eigenvalues --    2.21075   2.21272   2.21638   2.21705   2.21864
 Alpha virt. eigenvalues --    2.21974   2.22630   2.22811   2.23251   2.23436
 Alpha virt. eigenvalues --    2.24346   2.24509   2.24875   2.25119   2.26265
 Alpha virt. eigenvalues --    2.26543   2.26730   2.27066   2.27112   2.27301
 Alpha virt. eigenvalues --    2.28095   2.28433   2.29223   2.29555   2.29700
 Alpha virt. eigenvalues --    2.29988   2.30417   2.30715   2.30907   2.31028
 Alpha virt. eigenvalues --    2.31160   2.31294   2.32077   2.32356   2.33102
 Alpha virt. eigenvalues --    2.33340   2.33405   2.33574   2.34077   2.34231
 Alpha virt. eigenvalues --    2.35339   2.35385   2.35764   2.36019   2.36283
 Alpha virt. eigenvalues --    2.36454   2.36541   2.36591   2.37579   2.37759
 Alpha virt. eigenvalues --    2.38228   2.38507   2.38827   2.38878   2.39573
 Alpha virt. eigenvalues --    2.39766   2.40125   2.40353   2.40447   2.40918
 Alpha virt. eigenvalues --    2.41222   2.41298   2.41633   2.41780   2.42004
 Alpha virt. eigenvalues --    2.42217   2.42874   2.42923   2.43127   2.43528
 Alpha virt. eigenvalues --    2.44088   2.44155   2.44695   2.44860   2.44914
 Alpha virt. eigenvalues --    2.45083   2.45494   2.45666   2.46280   2.46401
 Alpha virt. eigenvalues --    2.46435   2.46599   2.46767   2.46892   2.47197
 Alpha virt. eigenvalues --    2.47459   2.47668   2.47989   2.49264   2.49506
 Alpha virt. eigenvalues --    2.49962   2.49984   2.50487   2.50568   2.51082
 Alpha virt. eigenvalues --    2.51356   2.51720   2.51851   2.52403   2.52471
 Alpha virt. eigenvalues --    2.52767   2.53259   2.53869   2.54074   2.54136
 Alpha virt. eigenvalues --    2.54411   2.54735   2.54893   2.55486   2.55769
 Alpha virt. eigenvalues --    2.57830   2.58189   2.58590   2.59010   2.60171
 Alpha virt. eigenvalues --    2.60385   2.60575   2.61019   2.61669   2.61929
 Alpha virt. eigenvalues --    2.62488   2.62523   2.62904   2.63211   2.63897
 Alpha virt. eigenvalues --    2.64154   2.64317   2.64507   2.65021   2.65185
 Alpha virt. eigenvalues --    2.65753   2.65941   2.66695   2.66860   2.66900
 Alpha virt. eigenvalues --    2.67153   2.67849   2.68069   2.68813   2.68909
 Alpha virt. eigenvalues --    2.68986   2.69110   2.69306   2.69670   2.69929
 Alpha virt. eigenvalues --    2.70214   2.70923   2.71145   2.71973   2.72017
 Alpha virt. eigenvalues --    2.72561   2.72612   2.72802   2.72810   2.73192
 Alpha virt. eigenvalues --    2.73365   2.73511   2.73527   2.74457   2.74583
 Alpha virt. eigenvalues --    2.74930   2.75136   2.76527   2.76595   2.77145
 Alpha virt. eigenvalues --    2.77186   2.77428   2.77709   2.78182   2.78416
 Alpha virt. eigenvalues --    2.78685   2.78772   2.79093   2.79239   2.80326
 Alpha virt. eigenvalues --    2.80382   2.80561   2.80762   2.81071   2.81234
 Alpha virt. eigenvalues --    2.81893   2.82067   2.82281   2.82410   2.83713
 Alpha virt. eigenvalues --    2.83744   2.83953   2.83973   2.84489   2.84606
 Alpha virt. eigenvalues --    2.84816   2.84965   2.85634   2.85788   2.86724
 Alpha virt. eigenvalues --    2.86943   2.87225   2.87580   2.88140   2.88349
 Alpha virt. eigenvalues --    2.88434   2.88665   2.88882   2.88950   2.90434
 Alpha virt. eigenvalues --    2.90717   2.91114   2.91141   2.93113   2.93402
 Alpha virt. eigenvalues --    2.93846   2.94146   2.94506   2.94659   2.95327
 Alpha virt. eigenvalues --    2.95536   2.95885   2.96163   2.96371   2.96434
 Alpha virt. eigenvalues --    2.96918   2.97145   2.97787   2.98132   2.98189
 Alpha virt. eigenvalues --    2.98292   2.98419   2.98543   2.98645   2.98818
 Alpha virt. eigenvalues --    2.98844   2.98998   2.99513   2.99876   3.00009
 Alpha virt. eigenvalues --    3.00075   3.00187   3.00421   3.00434   3.01060
 Alpha virt. eigenvalues --    3.01892   3.01961   3.02021   3.02203   3.02729
 Alpha virt. eigenvalues --    3.02900   3.02935   3.03294   3.03428   3.03765
 Alpha virt. eigenvalues --    3.04059   3.04154   3.04376   3.04474   3.04487
 Alpha virt. eigenvalues --    3.04759   3.05245   3.05457   3.06066   3.06247
 Alpha virt. eigenvalues --    3.06763   3.07023   3.08022   3.08103   3.09368
 Alpha virt. eigenvalues --    3.09448   3.09656   3.10400   3.10483   3.10818
 Alpha virt. eigenvalues --    3.11274   3.11560   3.11911   3.11934   3.12051
 Alpha virt. eigenvalues --    3.12371   3.13244   3.13575   3.13715   3.13769
 Alpha virt. eigenvalues --    3.14075   3.14524   3.15811   3.16026   3.17212
 Alpha virt. eigenvalues --    3.17589   3.17985   3.18056   3.19090   3.19124
 Alpha virt. eigenvalues --    3.22287   3.22650   3.23903   3.24514   3.24635
 Alpha virt. eigenvalues --    3.25258   3.26455   3.26733   3.27471   3.27575
 Alpha virt. eigenvalues --    3.29085   3.29270   3.31458   3.31484   3.33267
 Alpha virt. eigenvalues --    3.33373   3.40300   3.40625   3.42803   3.42924
 Alpha virt. eigenvalues --    3.48615   3.48770   3.49975   3.50362   3.50921
 Alpha virt. eigenvalues --    3.51435   3.56511   3.57093   3.59045   3.59421
 Alpha virt. eigenvalues --    3.62593   3.62796   3.66190   3.66235   3.67174
 Alpha virt. eigenvalues --    3.67588   3.73250   3.74071   3.76028   3.76733
          Condensed to atoms (all electrons):
 Mulliken charges:
               1
     1  Mg   0.838571
     2  C   -0.002755
     3  C   -0.094046
     4  C   -0.045870
     5  C   -0.064431
     6  N   -0.256773
     7  C   -0.052523
     8  C   -0.013975
     9  C   -0.087031
    10  C    0.046407
    11  C    0.104765
    12  C    0.053463
    13  C   -0.071949
    14  H    0.036426
    15  N   -0.433253
    16  C    0.168588
    17  C   -0.176908
    18  C   -0.003628
    19  C    0.148855
    20  C    0.110151
    21  C    0.012754
    22  O   -0.249138
    23  C    0.062277
    24  N   -0.341009
    25  C    0.041173
    26  C   -0.028346
    27  C   -0.023702
    28  C    0.074436
    29  C    0.076062
    30  C    0.035299
    31  C   -0.004544
    32  N   -0.310319
    33  C    0.080009
    34  C   -0.170536
    35  C    0.008323
    36  C    0.082751
    37  C    0.127497
    38  C    0.045921
    39  O   -0.188597
    40  C   -0.005222
    41  C    0.212779
    42  O   -0.256880
    43  O   -0.304885
    44  C    0.157443
    45  H   -0.017293
    46  H   -0.016540
    47  H   -0.042220
    48  H    0.001088
    49  H   -0.003936
    50  H    0.025560
    51  H    0.016473
    52  H    0.016879
    53  H    0.010917
    54  H    0.044324
    55  H    0.018025
    56  H    0.017806
    57  H    0.005870
    58  H    0.027236
    59  H    0.039952
    60  H    0.037227
    61  H    0.036883
    62  H    0.031822
    63  H    0.016515
    64  H    0.009572
    65  H    0.023498
    66  H    0.012918
    67  H    0.004746
    68  H    0.006429
    69  H    0.004111
    70  H    0.009251
    71  H    0.015301
    72  H    0.029491
    73  H    0.046822
    74  H    0.008317
    75  H    0.046240
    76  H    0.035253
    77  H    0.043057
    78  H    0.046417
    79  H    0.054343
    80  Mg   0.838027
    81  C   -0.016792
    82  C   -0.087270
    83  C   -0.044125
    84  C   -0.065300
    85  N   -0.254534
    86  C   -0.050039
    87  C   -0.015081
    88  C   -0.090644
    89  C    0.045801
    90  C    0.114061
    91  C    0.062616
    92  C   -0.077651
    93  H    0.034433
    94  N   -0.423895
    95  C    0.163218
    96  C   -0.173052
    97  C   -0.006796
    98  C    0.152449
    99  C    0.098687
   100  C    0.016517
   101  O   -0.252941
   102  C    0.061004
   103  N   -0.349937
   104  C    0.037909
   105  C   -0.020057
   106  C   -0.034356
   107  C    0.088724
   108  C    0.073180
   109  C    0.034918
   110  C   -0.007560
   111  N   -0.323903
   112  C    0.078153
   113  C   -0.163856
   114  C    0.002123
   115  C    0.095872
   116  C    0.131563
   117  C    0.042114
   118  O   -0.188580
   119  C    0.000914
   120  C    0.211122
   121  O   -0.251282
   122  O   -0.305502
   123  C    0.152177
   124  H   -0.019083
   125  H   -0.015028
   126  H   -0.041577
   127  H   -0.000782
   128  H   -0.004690
   129  H    0.022953
   130  H    0.015782
   131  H    0.015263
   132  H    0.013847
   133  H    0.037546
   134  H    0.020546
   135  H    0.019417
   136  H    0.008605
   137  H    0.028495
   138  H    0.039402
   139  H    0.039733
   140  H    0.036229
   141  H    0.033172
   142  H    0.014044
   143  H    0.011324
   144  H    0.024551
   145  H    0.015171
   146  H    0.004323
   147  H    0.005660
   148  H    0.002863
   149  H    0.010935
   150  H    0.017389
   151  H    0.030427
   152  H    0.045586
   153  H    0.007780
   154  H    0.045900
   155  H    0.035418
   156  H    0.043729
   157  H    0.049332
   158  H    0.053326
 Sum of Mulliken charges =  -0.00000
 Mulliken charges with hydrogens summed into heavy atoms:
               1
     1  Mg   0.838571
     2  C   -0.002755
     3  C   -0.111339
     4  C   -0.062409
     5  C   -0.106651
     6  N   -0.256773
     7  C   -0.052523
     8  C   -0.012887
     9  C   -0.090967
    10  C    0.046407
    11  C    0.163677
    12  C    0.108704
    13  C    0.000309
    15  N   -0.433253
    16  C    0.168588
    17  C   -0.176908
    18  C   -0.003628
    19  C    0.148855
    20  C    0.183210
    21  C    0.012754
    22  O   -0.249138
    23  C    0.168210
    24  N   -0.341009
    25  C    0.041173
    26  C   -0.011831
    27  C   -0.014130
    28  C    0.074436
    29  C    0.117225
    30  C    0.045840
    31  C    0.049499
    32  N   -0.310319
    33  C    0.080009
    34  C   -0.170536
    35  C    0.008323
    36  C    0.082751
    37  C    0.228875
    38  C    0.045921
    39  O   -0.188597
    40  C    0.030030
    41  C    0.212779
    42  O   -0.256880
    43  O   -0.304885
    44  C    0.301259
    80  Mg   0.838027
    81  C   -0.016792
    82  C   -0.106353
    83  C   -0.059153
    84  C   -0.106877
    85  N   -0.254534
    86  C   -0.050039
    87  C   -0.015864
    88  C   -0.095334
    89  C    0.045801
    90  C    0.168058
    91  C    0.114009
    92  C   -0.003255
    94  N   -0.423895
    95  C    0.163218
    96  C   -0.173052
    97  C   -0.006796
    98  C    0.152449
    99  C    0.175189
   100  C    0.016517
   101  O   -0.252941
   102  C    0.170138
   103  N   -0.349937
   104  C    0.037909
   105  C   -0.006013
   106  C   -0.023031
   107  C    0.088724
   108  C    0.117225
   109  C    0.043441
   110  C    0.051191
   111  N   -0.323903
   112  C    0.078153
   113  C   -0.163856
   114  C    0.002123
   115  C    0.095872
   116  C    0.230829
   117  C    0.042114
   118  O   -0.188580
   119  C    0.036332
   120  C    0.211122
   121  O   -0.251282
   122  O   -0.305502
   123  C    0.298564
 Electronic spatial extent (au):  <R**2>=         115993.0123
 Charge=             -0.0000 electrons
 Dipole moment (field-independent basis, Debye):
    X=              4.1521    Y=             -0.4174    Z=              0.1864  Tot=              4.1772
 Quadrupole moment (field-independent basis, Debye-Ang):
   XX=           -525.1996   YY=           -545.8865   ZZ=           -448.7380
   XY=            -21.1416   XZ=             56.2452   YZ=             39.9901
 Traceless Quadrupole moment (field-independent basis, Debye-Ang):
   XX=            -18.5916   YY=            -39.2784   ZZ=             57.8700
   XY=            -21.1416   XZ=             56.2452   YZ=             39.9901
 Octapole moment (field-independent basis, Debye-Ang**2):
  XXX=            411.1762  YYY=             51.1504  ZZZ=             56.9823  XYY=             23.1440
  XXY=             30.7840  XXZ=             10.8827  XZZ=            -31.5186  YZZ=            -27.1908
  YYZ=            -66.3109  XYZ=             14.5637
 Hexadecapole moment (field-independent basis, Debye-Ang**3):
 XXXX=         -94272.2121 YYYY=         -42121.3844 ZZZZ=         -23932.4478 XXXY=           -312.7466
 XXXZ=           2812.4040 YYYX=           2047.9130 YYYZ=           1005.9074 ZZZX=            410.6459
 ZZZY=           -258.2055 XXYY=         -22161.9368 XXZZ=         -18362.5782 YYZZ=         -10409.4963
 XXYZ=           1666.1334 YYXZ=           1217.2856 ZZXY=          -1169.0605
 N-N= 1.492900694373D+04 E-N=-3.933908373180D+04  KE= 4.028801144071D+03
 Leave Link  601 at Sat Sep  4 02:21:20 2021, MaxMem= 23488102400 cpu:              13.1 elap:               0.7
 (Enter /sw/apps/gaussian-16.0/g16/l9999.exe)
 1\1\GINC-BP1-COMPUTE00140\SP\RCAM-B3LYP TD-FC\def2SVP\C68H72Mg2N8O8\OF
 15641\04-Sep-2021\0\\#p cam-b3lyp/Def2SVP td=(nstates=5)\\TDDFT excite
 d states in gaussian\\0,1\Mg,0,0.,0.,0.\C,0,-0.217,-2.218,2.801\C,0,-1
 .255,2.442,2.026\C,0,-0.245,1.85,-2.564\C,0,0.146,-2.824,-2.037\N,0,-0
 .617,-0.009,2.126\C,0,-0.594,-0.908,3.105\C,0,-0.936,-0.309,4.502\C,0,
 -1.773,0.964,4.032\C,0,-1.155,1.168,2.66\C,0,-3.263,0.685,3.863\C,0,0.
 345,0.11,5.299\C,0,0.124,0.397,6.787\H,0,1.168,0.033,7.733\N,0,-0.185,
 1.961,-0.152\C,0,-0.703,2.8,0.777\C,0,-0.62,4.156,0.193\C,0,-0.187,4.0
 15,-1.225\C,0,-0.214,2.583,-1.38\C,0,-0.887,5.406,0.974\C,0,0.181,5.01
 3,-2.277\O,0,0.303,4.69,-3.508\C,0,0.31,6.414,-1.837\N,0,-0.265,-0.413
 ,-2.029\C,0,-0.279,0.569,-2.937\C,0,-0.196,0.024,-4.332\C,0,0.124,-1.5
 33,-4.18\C,0,0.086,-1.632,-2.635\C,0,-1.451,0.205,-5.197\C,0,1.373,-2.
 07,-4.923\C,0,2.626,-1.49,-4.306\N,0,0.15,-2.144,0.303\C,0,0.173,-3.13
 6,-0.688\C,0,0.173,-4.438,0.004\C,0,0.133,-4.111,1.358\C,0,0.083,-2.69
 5,1.502\C,0,0.149,-5.715,-0.623\C,0,0.096,-4.629,2.716\O,0,0.208,-5.74
 7,3.221\C,0,-0.255,-3.428,3.701\C,0,0.717,-3.482,4.848\O,0,1.931,-3.25
 5,4.669\O,0,0.038,-3.556,6.003\C,0,0.943,-3.583,7.183\H,0,-1.859,3.22,
 2.497\H,0,-0.218,2.453,-3.474\H,0,0.276,-3.747,-2.605\H,0,-1.554,-0.94
 9,5.132\H,0,-1.585,1.831,4.665\H,0,-3.484,-0.377,3.969\H,0,-3.511,1.02
 7,2.858\H,0,-3.852,1.301,4.543\H,0,0.669,1.096,4.966\H,0,1.13,-0.639,5
 .189\H,0,-0.844,0.026,7.125\H,0,0.062,1.477,6.921\H,0,-1.344,5.186,1.9
 38\H,0,-1.651,5.963,0.432\H,0,0.007,6.02,1.084\H,0,-0.635,6.744,-1.405
 \H,0,0.665,6.97,-2.704\H,0,1.048,6.466,-1.036\H,0,0.608,0.501,-4.891\H
 ,0,-0.692,-2.156,-4.547\H,0,-1.267,0.74,-6.129\H,0,-2.204,0.714,-4.596
 \H,0,-1.967,-0.72,-5.453\H,0,1.356,-1.759,-5.967\H,0,1.452,-3.157,-4.9
 02\H,0,2.714,-0.522,-4.798\H,0,3.487,-2.121,-4.529\H,0,2.495,-1.303,-3
 .24\H,0,0.867,-6.333,-0.084\H,0,0.404,-5.642,-1.68\H,0,-0.891,-5.999,-
 0.463\H,0,-1.283,-3.581,4.028\H,0,0.698,-4.478,7.755\H,0,0.833,-2.619,
 7.68\H,0,2.,-3.754,6.976\Mg,0,10.51895,0.94169,0.79336\C,0,10.3963,2.6
 5647,-2.35681\C,0,10.02809,-1.95755,-0.93524\C,0,10.17219,-0.54244,3.5
 7626\C,0,9.85796,4.00075,2.32664\N,0,10.26086,0.53128,-1.3647\C,0,10.2
 9397,1.25459,-2.47379\C,0,10.29366,0.42278,-3.78438\C,0,9.6062,-0.9144
 3,-3.22033\C,0,10.01573,-0.79974,-1.75343\C,0,8.08865,-0.8889,-3.29597
 \C,0,11.74351,0.14329,-4.31529\C,0,11.81183,-0.39388,-5.74655\H,0,12.9
 2794,0.01957,-6.59262\N,0,10.64208,-0.98704,1.24434\C,0,10.43377,-2.03
 145,0.41543\C,0,10.62599,-3.23892,1.23348\C,0,10.80277,-2.82187,2.6510
 6\C,0,10.51892,-1.40465,2.54624\C,0,10.70852,-4.61682,0.64355\C,0,11.1
 5487,-3.5763,3.89728\O,0,11.02049,-3.05511,5.06053\C,0,11.57287,-4.974
 76,3.72102\N,0,9.87093,1.58256,2.66196\C,0,9.8663,0.74762,3.71589\C,0,
 9.62604,1.49721,5.0046\C,0,9.71127,3.04769,4.62207\C,0,9.90599,2.92128
 ,3.09514\C,0,8.29329,1.21704,5.69862\C,0,10.71686,3.91668,5.426\C,0,12
 .13335,3.49857,5.10331\N,0,10.3665,3.00037,0.15565\C,0,10.05607,4.1208
 3,0.95707\C,0,9.95498,5.28656,0.05525\C,0,10.1928,4.75506,-1.22125\C,0
 ,10.40569,3.35335,-1.12433\C,0,9.62921,6.61565,0.44706\C,0,10.30163,5.
 05928,-2.6299\O,0,10.30163,6.0924,-3.29803\C,0,10.31303,3.69328,-3.442
 5\C,0,11.43742,3.7554,-4.43969\O,0,12.61984,3.80071,-4.05701\O,0,10.94
 605,3.53253,-5.67228\C,0,12.02517,3.57316,-6.69486\H,0,9.65203,-2.8919
 5,-1.35279\H,0,10.14834,-0.98582,4.57442\H,0,9.75179,5.0065,2.73879\H,
 0,9.69541,0.83864,-4.58621\H,0,10.04259,-1.80268,-3.66971\H,0,7.71701,
 0.07564,-3.60852\H,0,7.74042,-1.12346,-2.29859\H,0,7.72959,-1.69788,-3
 .93858\H,0,12.16454,-0.71304,-3.77291\H,0,12.3565,1.01926,-4.22843\H,0
 ,10.8605,-0.27172,-6.27852\H,0,11.95835,-1.47591,-5.70448\H,0,10.37798
 ,-4.62703,-0.40241\H,0,9.97057,-5.23376,1.16765\H,0,11.69573,-5.06806,
 0.76379\H,0,10.7795,-5.52907,3.22528\H,0,11.86855,-5.31876,4.71405\H,0
 ,12.4397,-4.99904,3.05123\H,0,10.39598,1.27197,5.73232\H,0,8.74925,3.5
 5856,4.77495\H,0,8.40975,0.85808,6.73865\H,0,7.74512,0.49616,5.10668\H
 ,0,7.60445,2.05937,5.73297\H,0,10.58271,3.75653,6.49862\H,0,10.6104,4.
 98079,5.24348\H,0,12.29307,2.63936,5.76159\H,0,12.83082,4.30299,5.3280
 1\H,0,12.21253,3.14136,4.06997\H,0,10.30647,7.27153,-0.08364\H,0,9.712
 39,6.74428,1.52424\H,0,8.59198,6.67086,0.10595\H,0,9.34116,3.59226,-3.
 92711\H,0,11.72934,4.31589,-7.4422\H,0,12.14702,2.52997,-7.04221\H,0,1
 2.99197,3.95502,-6.38836\\Version=ES64L-G16RevA.03\State=1-A\HF=-4069.
 8116731\RMSD=7.405e-09\PG=C01 [X(C68H72Mg2N8O8)]\\@


 BE NOT THE FIRST BY WHOM THE NEW ARE TRIED,
 NOR YET THE THE LAST TO LAY THE OLD ASIDE.

                          -- ALEXANDER POPE
 Job cpu time:       0 days 12 hours 13 minutes 46.4 seconds.
 Elapsed time:       0 days  0 hours 31 minutes 11.0 seconds.
 File lengths (MBytes):  RWF=  13225 Int=      0 D2E=      0 Chk=    574 Scr=      1
 Normal termination of Gaussian 16 at Sat Sep  4 02:21:21 2021.
