 Entering Gaussian System, Link 0=g16
 Initial command:
 /sw/apps/gaussian-16.0/g16/l1.exe "/tmp/Gau-216850.inp" -scrdir="/tmp/"
 Entering Link 1 = /sw/apps/gaussian-16.0/g16/l1.exe PID=    216851.
  
 Copyright (c) 1988,1990,1992,1993,1995,1998,2003,2009,2016,
            Gaussian, Inc.  All Rights Reserved.
  
 This is part of the Gaussian(R) 16 program.  It is based on
 the Gaussian(R) 09 system (copyright 2009, Gaussian, Inc.),
 the Gaussian(R) 03 system (copyright 2003, Gaussian, Inc.),
 the Gaussian(R) 98 system (copyright 1998, Gaussian, Inc.),
 the Gaussian(R) 94 system (copyright 1995, Gaussian, Inc.),
 the Gaussian 92(TM) system (copyright 1992, Gaussian, Inc.),
 the Gaussian 90(TM) system (copyright 1990, Gaussian, Inc.),
 the Gaussian 88(TM) system (copyright 1988, Gaussian, Inc.),
 the Gaussian 86(TM) system (copyright 1986, Carnegie Mellon
 University), and the Gaussian 82(TM) system (copyright 1983,
 Carnegie Mellon University). Gaussian is a federally registered
 trademark of Gaussian, Inc.
  
 This software contains proprietary and confidential information,
 including trade secrets, belonging to Gaussian, Inc.
  
 This software is provided under written license and may be
 used, copied, transmitted, or stored only in accord with that
 written license.
  
 The following legend is applicable only to US Government
 contracts under FAR:
  
                    RESTRICTED RIGHTS LEGEND
  
 Use, reproduction and disclosure by the US Government is
 subject to restrictions as set forth in subparagraphs (a)
 and (c) of the Commercial Computer Software - Restricted
 Rights clause in FAR 52.227-19.
  
 Gaussian, Inc.
 340 Quinnipiac St., Bldg. 40, Wallingford CT 06492
  
  
 ---------------------------------------------------------------
 Warning -- This program may not be used in any manner that
 competes with the business of Gaussian, Inc. or will provide
 assistance to any competitor of Gaussian, Inc.  The licensee
 of this program is prohibited from giving any competitor of
 Gaussian, Inc. access to this program.  By using this program,
 the user acknowledges that Gaussian, Inc. is engaged in the
 business of creating and licensing software in the field of
 computational chemistry and represents and warrants to the
 licensee that it is not a competitor of Gaussian, Inc. and that
 it will not use this program in any manner prohibited above.
 ---------------------------------------------------------------
  

 Cite this work as:
 Gaussian 16, Revision A.03,
 M. J. Frisch, G. W. Trucks, H. B. Schlegel, G. E. Scuseria, 
 M. A. Robb, J. R. Cheeseman, G. Scalmani, V. Barone, 
 G. A. Petersson, H. Nakatsuji, X. Li, M. Caricato, A. V. Marenich, 
 J. Bloino, B. G. Janesko, R. Gomperts, B. Mennucci, H. P. Hratchian, 
 J. V. Ortiz, A. F. Izmaylov, J. L. Sonnenberg, D. Williams-Young, 
 F. Ding, F. Lipparini, F. Egidi, J. Goings, B. Peng, A. Petrone, 
 T. Henderson, D. Ranasinghe, V. G. Zakrzewski, J. Gao, N. Rega, 
 G. Zheng, W. Liang, M. Hada, M. Ehara, K. Toyota, R. Fukuda, 
 J. Hasegawa, M. Ishida, T. Nakajima, Y. Honda, O. Kitao, H. Nakai, 
 T. Vreven, K. Throssell, J. A. Montgomery, Jr., J. E. Peralta, 
 F. Ogliaro, M. J. Bearpark, J. J. Heyd, E. N. Brothers, K. N. Kudin, 
 V. N. Staroverov, T. A. Keith, R. Kobayashi, J. Normand, 
 K. Raghavachari, A. P. Rendell, J. C. Burant, S. S. Iyengar, 
 J. Tomasi, M. Cossi, J. M. Millam, M. Klene, C. Adamo, R. Cammi, 
 J. W. Ochterski, R. L. Martin, K. Morokuma, O. Farkas, 
 J. B. Foresman, and D. J. Fox, Gaussian, Inc., Wallingford CT, 2016.
 
 ******************************************
 Gaussian 16:  ES64L-G16RevA.03 25-Dec-2016
                11-Sep-2021 
 ******************************************
 %nproc=24
 Will use up to   24 processors via shared memory.
 %mem=175gb
 -----------------------------------
 #p cam-b3lyp/Def2SVP td=(nstates=5)
 -----------------------------------
 1/38=1,172=1/1;
 2/12=2,17=6,18=5,40=1/2;
 3/5=43,7=101,11=9,25=1,30=1,74=-40/1,2,3,8;
 4//1;
 5/5=2,38=5/2;
 8/6=1,10=1,108=5/1;
 9/41=5,42=1,70=2/14;
 6/7=2,8=2,9=2,10=2/1;
 99/5=1,9=1/99;
 Leave Link    1 at Sat Sep 11 21:47:38 2021, MaxMem= 23488102400 cpu:               0.8 elap:               0.0
 (Enter /sw/apps/gaussian-16.0/g16/l101.exe)
 --------------------------------
 TDDFT excited states in gaussian
 --------------------------------
 Symbolic Z-matrix:
 Charge =  0 Multiplicity = 1
 Mg                    0.        0.        0. 
 C                    -0.217    -2.218     2.801 
 C                    -1.255     2.442     2.026 
 C                    -0.245     1.85     -2.564 
 C                     0.146    -2.824    -2.037 
 N                    -0.617    -0.009     2.126 
 C                    -0.594    -0.908     3.105 
 C                    -0.936    -0.309     4.502 
 C                    -1.773     0.964     4.032 
 C                    -1.155     1.168     2.66 
 C                    -3.263     0.685     3.863 
 C                     0.345     0.11      5.299 
 C                     0.124     0.397     6.787 
 H                     1.168     0.033     7.733 
 N                    -0.185     1.961    -0.152 
 C                    -0.703     2.8       0.777 
 C                    -0.62      4.156     0.193 
 C                    -0.187     4.015    -1.225 
 C                    -0.214     2.583    -1.38 
 C                    -0.887     5.406     0.974 
 C                     0.181     5.013    -2.277 
 O                     0.303     4.69     -3.508 
 C                     0.31      6.414    -1.837 
 N                    -0.265    -0.413    -2.029 
 C                    -0.279     0.569    -2.937 
 C                    -0.196     0.024    -4.332 
 C                     0.124    -1.533    -4.18 
 C                     0.086    -1.632    -2.635 
 C                    -1.451     0.205    -5.197 
 C                     1.373    -2.07     -4.923 
 C                     2.626    -1.49     -4.306 
 N                     0.15     -2.144     0.303 
 C                     0.173    -3.136    -0.688 
 C                     0.173    -4.438     0.004 
 C                     0.133    -4.111     1.358 
 C                     0.083    -2.695     1.502 
 C                     0.149    -5.715    -0.623 
 C                     0.096    -4.629     2.716 
 O                     0.208    -5.747     3.221 
 C                    -0.255    -3.428     3.701 
 C                     0.717    -3.482     4.848 
 O                     1.931    -3.255     4.669 
 O                     0.038    -3.556     6.003 
 C                     0.943    -3.583     7.183 
 H                    -1.859     3.22      2.497 
 H                    -0.218     2.453    -3.474 
 H                     0.276    -3.747    -2.605 
 H                    -1.554    -0.949     5.132 
 H                    -1.585     1.831     4.665 
 H                    -3.484    -0.377     3.969 
 H                    -3.511     1.027     2.858 
 H                    -3.852     1.301     4.543 
 H                     0.669     1.096     4.966 
 H                     1.13     -0.639     5.189 
 H                    -0.844     0.026     7.125 
 H                     0.062     1.477     6.921 
 H                    -1.344     5.186     1.938 
 H                    -1.651     5.963     0.432 
 H                     0.007     6.02      1.084 
 H                    -0.635     6.744    -1.405 
 H                     0.665     6.97     -2.704 
 H                     1.048     6.466    -1.036 
 H                     0.608     0.501    -4.891 
 H                    -0.692    -2.156    -4.547 
 H                    -1.267     0.74     -6.129 
 H                    -2.204     0.714    -4.596 
 H                    -1.967    -0.72     -5.453 
 H                     1.356    -1.759    -5.967 
 H                     1.452    -3.157    -4.902 
 H                     2.714    -0.522    -4.798 
 H                     3.487    -2.121    -4.529 
 H                     2.495    -1.303    -3.24 
 H                     0.867    -6.333    -0.084 
 H                     0.404    -5.642    -1.68 
 H                    -0.891    -5.999    -0.463 
 H                    -1.283    -3.581     4.028 
 H                     0.698    -4.478     7.755 
 H                     0.833    -2.619     7.68 
 H                     2.       -3.754     6.976 
 Mg                    15.75894   1.41559   1.20429 
 C                     15.46601   4.13606   3.52643 
 C                     16.6912  -0.5379    3.84046 
 C                     16.46001  -0.87896  -0.87199 
 C                     15.92471   3.78939  -1.34194 
 N                     16.00867   1.85659   3.35729 
 C                     15.80943   2.91054   4.13437 
 C                     15.90981   2.61648   5.65523 
 C                     16.84157   1.31035   5.58663 
 C                     16.47047   0.8185    4.18911 
 C                     18.32726   1.62947   5.60179 
 C                     14.51397   2.29335   6.29495 
 C                     14.49067   2.30046   7.82504 
 H                     13.28994   2.7845    8.50062 
 N                     15.99348  -0.53603   1.4777 
 C                     16.35299  -1.16043   2.61882 
 C                     16.40553  -2.59417   2.29355 
 C                     16.20839  -2.74992   0.82672 
 C                     16.2343  -1.36266   0.40849 
 C                     16.54613  -3.66131   3.33991 
 C                     16.03903  -3.94963  -0.05544 
 O                     16.12063  -3.86387  -1.33169 
 C                     15.86788  -5.24293   0.62247 
 N                     16.34973   1.44983  -0.78873 
 C                     16.53867   0.30819  -1.47349 
 C                     16.68864   0.57728  -2.95183 
 C                     16.31818   2.12069  -3.14734 
 C                     16.09481   2.51627  -1.67119 
 C                     18.07364   0.30817  -3.53983 
 C                     15.20437   2.45202  -4.17803 
 C                     13.87314   1.93324  -3.684 
 N                     15.52374   3.55831   1.05773 
 C                     15.66017   4.35413  -0.10078 
 C                     15.52236   5.7634    0.32038 
 C                     15.33681   5.69036   1.70917 
 C                     15.37768   4.33271   2.12705 
 C                     15.62262   6.89969  -0.53103 
 C                     15.12627   6.45373   2.91815 
 O                     14.92065   7.63995   3.17179 
 C                     15.32686   5.48971   4.16588 
 C                     14.1745   5.70416   5.10853 
 O                     13.01689   5.39954   4.77124 
 O                     14.65347   6.02752   6.3236 
 C                     13.54853   6.23937   7.29625 
 H                     17.21093  -1.17883   4.55319 
 H                     16.59692  -1.6382   -1.64548 
 H                     15.86662   4.58304  -2.08988 
 H                     16.39668   3.39043   6.23638 
 H                     16.55281   0.57929   6.33731 
 H                     18.5119   2.69147   5.53681 
 H                     18.74646   1.11942   4.74437 
 H                     18.8002   1.18102   6.48016 
 H                     14.26981   1.23966   6.10822 
 H                     13.75975   2.95699   5.91899 
 H                     15.38617   2.77111   8.24873 
 H                     14.53859   1.2673    8.17762 
 H                     16.83604  -3.23816   4.3096 
 H                     17.3993  -4.28377   3.04918 
 H                     15.65871  -4.29284   3.41936 
 H                     16.72842  -5.43349   1.25936 
 H                     15.67278  -5.96579  -0.17207 
 H                     14.9957  -5.17917   1.28266 
 H                     15.99668  -0.02577  -3.52682 
 H                     17.17999   2.70478  -3.50225 
 H                     18.05913  -0.41347  -4.37834 
 H                     18.71889  -0.04413  -2.74606 
 H                     18.60413   1.19022  -3.89446 
 H                     15.40255   1.94539  -5.12577 
 H                     15.11522   3.51188  -4.39191 
 H                     13.89066   0.88173  -3.98584 
 H                     13.0533   2.46703  -4.16042 
 H                     13.82155   1.96116  -2.58937 
 H                     14.82207   7.57097  -0.24994 
 H                     15.55629   6.61776  -1.57979 
 H                     16.62118   7.25592  -0.2641 
 H                     16.28354   5.74241   4.62465 
 H                     13.68227   7.24001   7.71875 
 H                     13.60009   5.38544   7.99761 
 H                     12.54106   6.30876   6.903 
 
 ITRead=  0  0  0  0  0  0  0  0  0  0  0  0  0  0  0  0  0  0  0  0
 ITRead=  0  0  0  0  0  0  0  0  0  0  0  0  0  0  0  0  0  0  0  0
 ITRead=  0  0  0  0  0  0  0  0  0  0  0  0  0  0  0  0  0  0  0  0
 ITRead=  0  0  0  0  0  0  0  0  0  0  0  0  0  0  0  0  0  0  0  0
 ITRead=  0  0  0  0  0  0  0  0  0  0  0  0  0  0  0  0  0  0  0  0
 ITRead=  0  0  0  0  0  0  0  0  0  0  0  0  0  0  0  0  0  0  0  0
 ITRead=  0  0  0  0  0  0  0  0  0  0  0  0  0  0  0  0  0  0  0  0
 ITRead=  0  0  0  0  0  0  0  0  0  0  0  0  0  0  0  0  0  0
 MicOpt= -1 -1 -1 -1 -1 -1 -1 -1 -1 -1 -1 -1 -1 -1 -1 -1 -1 -1 -1 -1
 MicOpt= -1 -1 -1 -1 -1 -1 -1 -1 -1 -1 -1 -1 -1 -1 -1 -1 -1 -1 -1 -1
 MicOpt= -1 -1 -1 -1 -1 -1 -1 -1 -1 -1 -1 -1 -1 -1 -1 -1 -1 -1 -1 -1
 MicOpt= -1 -1 -1 -1 -1 -1 -1 -1 -1 -1 -1 -1 -1 -1 -1 -1 -1 -1 -1 -1
 MicOpt= -1 -1 -1 -1 -1 -1 -1 -1 -1 -1 -1 -1 -1 -1 -1 -1 -1 -1 -1 -1
 MicOpt= -1 -1 -1 -1 -1 -1 -1 -1 -1 -1 -1 -1 -1 -1 -1 -1 -1 -1 -1 -1
 MicOpt= -1 -1 -1 -1 -1 -1 -1 -1 -1 -1 -1 -1 -1 -1 -1 -1 -1 -1 -1 -1
 MicOpt= -1 -1 -1 -1 -1 -1 -1 -1 -1 -1 -1 -1 -1 -1 -1 -1 -1 -1
 NAtoms=    158 NQM=      158 NQMF=       0 NMMI=      0 NMMIF=      0
                NMic=       0 NMicF=      0.
                    Isotopes and Nuclear Properties:
 (Nuclear quadrupole moments (NQMom) in fm**2, nuclear magnetic moments (NMagM)
  in nuclear magnetons)

  Atom         1           2           3           4           5           6           7           8           9          10
 IAtWgt=          24          12          12          12          12          14          12          12          12          12
 AtmWgt=  23.9850450  12.0000000  12.0000000  12.0000000  12.0000000  14.0030740  12.0000000  12.0000000  12.0000000  12.0000000
 NucSpn=           0           0           0           0           0           2           0           0           0           0
 AtZEff=  -0.0000000  -0.0000000  -0.0000000  -0.0000000  -0.0000000  -0.0000000  -0.0000000  -0.0000000  -0.0000000  -0.0000000
 NQMom=    0.0000000   0.0000000   0.0000000   0.0000000   0.0000000   2.0440000   0.0000000   0.0000000   0.0000000   0.0000000
 NMagM=    0.0000000   0.0000000   0.0000000   0.0000000   0.0000000   0.4037610   0.0000000   0.0000000   0.0000000   0.0000000
 AtZNuc=  12.0000000   6.0000000   6.0000000   6.0000000   6.0000000   7.0000000   6.0000000   6.0000000   6.0000000   6.0000000

  Atom        11          12          13          14          15          16          17          18          19          20
 IAtWgt=          12          12          12           1          14          12          12          12          12          12
 AtmWgt=  12.0000000  12.0000000  12.0000000   1.0078250  14.0030740  12.0000000  12.0000000  12.0000000  12.0000000  12.0000000
 NucSpn=           0           0           0           1           2           0           0           0           0           0
 AtZEff=  -0.0000000  -0.0000000  -0.0000000  -0.0000000  -0.0000000  -0.0000000  -0.0000000  -0.0000000  -0.0000000  -0.0000000
 NQMom=    0.0000000   0.0000000   0.0000000   0.0000000   2.0440000   0.0000000   0.0000000   0.0000000   0.0000000   0.0000000
 NMagM=    0.0000000   0.0000000   0.0000000   2.7928460   0.4037610   0.0000000   0.0000000   0.0000000   0.0000000   0.0000000
 AtZNuc=   6.0000000   6.0000000   6.0000000   1.0000000   7.0000000   6.0000000   6.0000000   6.0000000   6.0000000   6.0000000

  Atom        21          22          23          24          25          26          27          28          29          30
 IAtWgt=          12          16          12          14          12          12          12          12          12          12
 AtmWgt=  12.0000000  15.9949146  12.0000000  14.0030740  12.0000000  12.0000000  12.0000000  12.0000000  12.0000000  12.0000000
 NucSpn=           0           0           0           2           0           0           0           0           0           0
 AtZEff=  -0.0000000  -0.0000000  -0.0000000  -0.0000000  -0.0000000  -0.0000000  -0.0000000  -0.0000000  -0.0000000  -0.0000000
 NQMom=    0.0000000   0.0000000   0.0000000   2.0440000   0.0000000   0.0000000   0.0000000   0.0000000   0.0000000   0.0000000
 NMagM=    0.0000000   0.0000000   0.0000000   0.4037610   0.0000000   0.0000000   0.0000000   0.0000000   0.0000000   0.0000000
 AtZNuc=   6.0000000   8.0000000   6.0000000   7.0000000   6.0000000   6.0000000   6.0000000   6.0000000   6.0000000   6.0000000

  Atom        31          32          33          34          35          36          37          38          39          40
 IAtWgt=          12          14          12          12          12          12          12          12          16          12
 AtmWgt=  12.0000000  14.0030740  12.0000000  12.0000000  12.0000000  12.0000000  12.0000000  12.0000000  15.9949146  12.0000000
 NucSpn=           0           2           0           0           0           0           0           0           0           0
 AtZEff=  -0.0000000  -0.0000000  -0.0000000  -0.0000000  -0.0000000  -0.0000000  -0.0000000  -0.0000000  -0.0000000  -0.0000000
 NQMom=    0.0000000   2.0440000   0.0000000   0.0000000   0.0000000   0.0000000   0.0000000   0.0000000   0.0000000   0.0000000
 NMagM=    0.0000000   0.4037610   0.0000000   0.0000000   0.0000000   0.0000000   0.0000000   0.0000000   0.0000000   0.0000000
 AtZNuc=   6.0000000   7.0000000   6.0000000   6.0000000   6.0000000   6.0000000   6.0000000   6.0000000   8.0000000   6.0000000

  Atom        41          42          43          44          45          46          47          48          49          50
 IAtWgt=          12          16          16          12           1           1           1           1           1           1
 AtmWgt=  12.0000000  15.9949146  15.9949146  12.0000000   1.0078250   1.0078250   1.0078250   1.0078250   1.0078250   1.0078250
 NucSpn=           0           0           0           0           1           1           1           1           1           1
 AtZEff=  -0.0000000  -0.0000000  -0.0000000  -0.0000000  -0.0000000  -0.0000000  -0.0000000  -0.0000000  -0.0000000  -0.0000000
 NQMom=    0.0000000   0.0000000   0.0000000   0.0000000   0.0000000   0.0000000   0.0000000   0.0000000   0.0000000   0.0000000
 NMagM=    0.0000000   0.0000000   0.0000000   0.0000000   2.7928460   2.7928460   2.7928460   2.7928460   2.7928460   2.7928460
 AtZNuc=   6.0000000   8.0000000   8.0000000   6.0000000   1.0000000   1.0000000   1.0000000   1.0000000   1.0000000   1.0000000

  Atom        51          52          53          54          55          56          57          58          59          60
 IAtWgt=           1           1           1           1           1           1           1           1           1           1
 AtmWgt=   1.0078250   1.0078250   1.0078250   1.0078250   1.0078250   1.0078250   1.0078250   1.0078250   1.0078250   1.0078250
 NucSpn=           1           1           1           1           1           1           1           1           1           1
 AtZEff=  -0.0000000  -0.0000000  -0.0000000  -0.0000000  -0.0000000  -0.0000000  -0.0000000  -0.0000000  -0.0000000  -0.0000000
 NQMom=    0.0000000   0.0000000   0.0000000   0.0000000   0.0000000   0.0000000   0.0000000   0.0000000   0.0000000   0.0000000
 NMagM=    2.7928460   2.7928460   2.7928460   2.7928460   2.7928460   2.7928460   2.7928460   2.7928460   2.7928460   2.7928460
 AtZNuc=   1.0000000   1.0000000   1.0000000   1.0000000   1.0000000   1.0000000   1.0000000   1.0000000   1.0000000   1.0000000

  Atom        61          62          63          64          65          66          67          68          69          70
 IAtWgt=           1           1           1           1           1           1           1           1           1           1
 AtmWgt=   1.0078250   1.0078250   1.0078250   1.0078250   1.0078250   1.0078250   1.0078250   1.0078250   1.0078250   1.0078250
 NucSpn=           1           1           1           1           1           1           1           1           1           1
 AtZEff=  -0.0000000  -0.0000000  -0.0000000  -0.0000000  -0.0000000  -0.0000000  -0.0000000  -0.0000000  -0.0000000  -0.0000000
 NQMom=    0.0000000   0.0000000   0.0000000   0.0000000   0.0000000   0.0000000   0.0000000   0.0000000   0.0000000   0.0000000
 NMagM=    2.7928460   2.7928460   2.7928460   2.7928460   2.7928460   2.7928460   2.7928460   2.7928460   2.7928460   2.7928460
 AtZNuc=   1.0000000   1.0000000   1.0000000   1.0000000   1.0000000   1.0000000   1.0000000   1.0000000   1.0000000   1.0000000

  Atom        71          72          73          74          75          76          77          78          79          80
 IAtWgt=           1           1           1           1           1           1           1           1           1          24
 AtmWgt=   1.0078250   1.0078250   1.0078250   1.0078250   1.0078250   1.0078250   1.0078250   1.0078250   1.0078250  23.9850450
 NucSpn=           1           1           1           1           1           1           1           1           1           0
 AtZEff=  -0.0000000  -0.0000000  -0.0000000  -0.0000000  -0.0000000  -0.0000000  -0.0000000  -0.0000000  -0.0000000  -0.0000000
 NQMom=    0.0000000   0.0000000   0.0000000   0.0000000   0.0000000   0.0000000   0.0000000   0.0000000   0.0000000   0.0000000
 NMagM=    2.7928460   2.7928460   2.7928460   2.7928460   2.7928460   2.7928460   2.7928460   2.7928460   2.7928460   0.0000000
 AtZNuc=   1.0000000   1.0000000   1.0000000   1.0000000   1.0000000   1.0000000   1.0000000   1.0000000   1.0000000  12.0000000

  Atom        81          82          83          84          85          86          87          88          89          90
 IAtWgt=          12          12          12          12          14          12          12          12          12          12
 AtmWgt=  12.0000000  12.0000000  12.0000000  12.0000000  14.0030740  12.0000000  12.0000000  12.0000000  12.0000000  12.0000000
 NucSpn=           0           0           0           0           2           0           0           0           0           0
 AtZEff=  -0.0000000  -0.0000000  -0.0000000  -0.0000000  -0.0000000  -0.0000000  -0.0000000  -0.0000000  -0.0000000  -0.0000000
 NQMom=    0.0000000   0.0000000   0.0000000   0.0000000   2.0440000   0.0000000   0.0000000   0.0000000   0.0000000   0.0000000
 NMagM=    0.0000000   0.0000000   0.0000000   0.0000000   0.4037610   0.0000000   0.0000000   0.0000000   0.0000000   0.0000000
 AtZNuc=   6.0000000   6.0000000   6.0000000   6.0000000   7.0000000   6.0000000   6.0000000   6.0000000   6.0000000   6.0000000

  Atom        91          92          93          94          95          96          97          98          99         100
 IAtWgt=          12          12           1          14          12          12          12          12          12          12
 AtmWgt=  12.0000000  12.0000000   1.0078250  14.0030740  12.0000000  12.0000000  12.0000000  12.0000000  12.0000000  12.0000000
 NucSpn=           0           0           1           2           0           0           0           0           0           0
 AtZEff=  -0.0000000  -0.0000000  -0.0000000  -0.0000000  -0.0000000  -0.0000000  -0.0000000  -0.0000000  -0.0000000  -0.0000000
 NQMom=    0.0000000   0.0000000   0.0000000   2.0440000   0.0000000   0.0000000   0.0000000   0.0000000   0.0000000   0.0000000
 NMagM=    0.0000000   0.0000000   2.7928460   0.4037610   0.0000000   0.0000000   0.0000000   0.0000000   0.0000000   0.0000000
 AtZNuc=   6.0000000   6.0000000   1.0000000   7.0000000   6.0000000   6.0000000   6.0000000   6.0000000   6.0000000   6.0000000

  Atom       101         102         103         104         105         106         107         108         109         110
 IAtWgt=          16          12          14          12          12          12          12          12          12          12
 AtmWgt=  15.9949146  12.0000000  14.0030740  12.0000000  12.0000000  12.0000000  12.0000000  12.0000000  12.0000000  12.0000000
 NucSpn=           0           0           2           0           0           0           0           0           0           0
 AtZEff=  -0.0000000  -0.0000000  -0.0000000  -0.0000000  -0.0000000  -0.0000000  -0.0000000  -0.0000000  -0.0000000  -0.0000000
 NQMom=    0.0000000   0.0000000   2.0440000   0.0000000   0.0000000   0.0000000   0.0000000   0.0000000   0.0000000   0.0000000
 NMagM=    0.0000000   0.0000000   0.4037610   0.0000000   0.0000000   0.0000000   0.0000000   0.0000000   0.0000000   0.0000000
 AtZNuc=   8.0000000   6.0000000   7.0000000   6.0000000   6.0000000   6.0000000   6.0000000   6.0000000   6.0000000   6.0000000

  Atom       111         112         113         114         115         116         117         118         119         120
 IAtWgt=          14          12          12          12          12          12          12          16          12          12
 AtmWgt=  14.0030740  12.0000000  12.0000000  12.0000000  12.0000000  12.0000000  12.0000000  15.9949146  12.0000000  12.0000000
 NucSpn=           2           0           0           0           0           0           0           0           0           0
 AtZEff=  -0.0000000  -0.0000000  -0.0000000  -0.0000000  -0.0000000  -0.0000000  -0.0000000  -0.0000000  -0.0000000  -0.0000000
 NQMom=    2.0440000   0.0000000   0.0000000   0.0000000   0.0000000   0.0000000   0.0000000   0.0000000   0.0000000   0.0000000
 NMagM=    0.4037610   0.0000000   0.0000000   0.0000000   0.0000000   0.0000000   0.0000000   0.0000000   0.0000000   0.0000000
 AtZNuc=   7.0000000   6.0000000   6.0000000   6.0000000   6.0000000   6.0000000   6.0000000   8.0000000   6.0000000   6.0000000

  Atom       121         122         123         124         125         126         127         128         129         130
 IAtWgt=          16          16          12           1           1           1           1           1           1           1
 AtmWgt=  15.9949146  15.9949146  12.0000000   1.0078250   1.0078250   1.0078250   1.0078250   1.0078250   1.0078250   1.0078250
 NucSpn=           0           0           0           1           1           1           1           1           1           1
 AtZEff=  -0.0000000  -0.0000000  -0.0000000  -0.0000000  -0.0000000  -0.0000000  -0.0000000  -0.0000000  -0.0000000  -0.0000000
 NQMom=    0.0000000   0.0000000   0.0000000   0.0000000   0.0000000   0.0000000   0.0000000   0.0000000   0.0000000   0.0000000
 NMagM=    0.0000000   0.0000000   0.0000000   2.7928460   2.7928460   2.7928460   2.7928460   2.7928460   2.7928460   2.7928460
 AtZNuc=   8.0000000   8.0000000   6.0000000   1.0000000   1.0000000   1.0000000   1.0000000   1.0000000   1.0000000   1.0000000

  Atom       131         132         133         134         135         136         137         138         139         140
 IAtWgt=           1           1           1           1           1           1           1           1           1           1
 AtmWgt=   1.0078250   1.0078250   1.0078250   1.0078250   1.0078250   1.0078250   1.0078250   1.0078250   1.0078250   1.0078250
 NucSpn=           1           1           1           1           1           1           1           1           1           1
 AtZEff=  -0.0000000  -0.0000000  -0.0000000  -0.0000000  -0.0000000  -0.0000000  -0.0000000  -0.0000000  -0.0000000  -0.0000000
 NQMom=    0.0000000   0.0000000   0.0000000   0.0000000   0.0000000   0.0000000   0.0000000   0.0000000   0.0000000   0.0000000
 NMagM=    2.7928460   2.7928460   2.7928460   2.7928460   2.7928460   2.7928460   2.7928460   2.7928460   2.7928460   2.7928460
 AtZNuc=   1.0000000   1.0000000   1.0000000   1.0000000   1.0000000   1.0000000   1.0000000   1.0000000   1.0000000   1.0000000

  Atom       141         142         143         144         145         146         147         148         149         150
 IAtWgt=           1           1           1           1           1           1           1           1           1           1
 AtmWgt=   1.0078250   1.0078250   1.0078250   1.0078250   1.0078250   1.0078250   1.0078250   1.0078250   1.0078250   1.0078250
 NucSpn=           1           1           1           1           1           1           1           1           1           1
 AtZEff=  -0.0000000  -0.0000000  -0.0000000  -0.0000000  -0.0000000  -0.0000000  -0.0000000  -0.0000000  -0.0000000  -0.0000000
 NQMom=    0.0000000   0.0000000   0.0000000   0.0000000   0.0000000   0.0000000   0.0000000   0.0000000   0.0000000   0.0000000
 NMagM=    2.7928460   2.7928460   2.7928460   2.7928460   2.7928460   2.7928460   2.7928460   2.7928460   2.7928460   2.7928460
 AtZNuc=   1.0000000   1.0000000   1.0000000   1.0000000   1.0000000   1.0000000   1.0000000   1.0000000   1.0000000   1.0000000

  Atom       151         152         153         154         155         156         157         158
 IAtWgt=           1           1           1           1           1           1           1           1
 AtmWgt=   1.0078250   1.0078250   1.0078250   1.0078250   1.0078250   1.0078250   1.0078250   1.0078250
 NucSpn=           1           1           1           1           1           1           1           1
 AtZEff=  -0.0000000  -0.0000000  -0.0000000  -0.0000000  -0.0000000  -0.0000000  -0.0000000  -0.0000000
 NQMom=    0.0000000   0.0000000   0.0000000   0.0000000   0.0000000   0.0000000   0.0000000   0.0000000
 NMagM=    2.7928460   2.7928460   2.7928460   2.7928460   2.7928460   2.7928460   2.7928460   2.7928460
 AtZNuc=   1.0000000   1.0000000   1.0000000   1.0000000   1.0000000   1.0000000   1.0000000   1.0000000
 Leave Link  101 at Sat Sep 11 21:47:38 2021, MaxMem= 23488102400 cpu:               3.9 elap:               0.2
 (Enter /sw/apps/gaussian-16.0/g16/l202.exe)
 Stoichiometry    C68H72Mg2N8O8
 Framework group  C1[X(C68H72Mg2N8O8)]
 Deg. of freedom   468
 Full point group                 C1      NOp   1
 Largest Abelian subgroup         C1      NOp   1
 Largest concise Abelian subgroup C1      NOp   1
                         Standard orientation:                         
 ---------------------------------------------------------------------
 Center     Atomic      Atomic             Coordinates (Angstroms)
 Number     Number       Type             X           Y           Z
 ---------------------------------------------------------------------
      1         12           0       -7.913892   -0.646309   -0.439665
      2          6           0       -8.252512    1.929684    2.022409
      3          6           0       -8.661033    1.709834   -2.791991
      4          6           0       -8.067798   -2.984855   -2.576049
      5          6           0       -8.317210   -2.957841    2.137119
      6          7           0       -8.376657    1.512705   -0.281072
      7          6           0       -8.415228    2.392493    0.714748
      8          6           0       -8.569724    3.865721    0.231939
      9          6           0       -9.245600    3.596138   -1.186692
     10          6           0       -8.701460    2.203950   -1.454363
     11          6           0      -10.768333    3.526345   -1.132697
     12          6           0       -7.189579    4.589636    0.080693
     13          6           0       -7.263165    6.112030   -0.068496
     14          1           0       -6.219207    6.926128    0.535443
     15          7           0       -7.825137   -0.587360   -2.412353
     16          6           0       -8.151365    0.460400   -3.206747
     17          6           0       -7.915025    0.008577   -4.594796
     18          6           0       -7.606307   -1.447800   -4.552915
     19          6           0       -7.849603   -1.740949   -3.163581
     20          6           0       -7.944659    0.929147   -5.776075
     21          6           0       -7.172587   -2.423075   -5.601179
     22          8           0       -7.184062   -3.685878   -5.401755
     23          6           0       -6.813268   -1.858994   -6.914855
     24          7           0       -8.375750   -2.676690   -0.291756
     25          6           0       -8.311432   -3.478621   -1.360284
     26          6           0       -8.404711   -4.922726   -0.965568
     27          6           0       -8.302114   -4.953049    0.627639
     28          6           0       -8.246586   -3.427744    0.889613
     29          6           0       -9.677648   -5.656867   -1.409051
     30          6           0       -7.197929   -5.848011    1.244275
     31          6           0       -5.834775   -5.284278    0.910936
     32          7           0       -8.053024   -0.570705    1.725045
     33          6           0       -8.241748   -1.653427    2.596120
     34          6           0       -8.380891   -1.096159    3.954119
     35          6           0       -8.279353    0.282098    3.775388
     36          6           0       -8.115133    0.569236    2.390153
     37          6           0       -8.631714   -1.842218    5.139411
     38          6           0       -8.296062    1.580433    4.429532
     39          8           0       -8.311172    1.961072    5.601018
     40          6           0       -8.401499    2.705493    3.307503
     41          6           0       -7.370092    3.755630    3.618503
     42          8           0       -6.151457    3.498452    3.540049
     43          8           0       -7.970826    4.950658    3.726065
     44          6           0       -6.999386    6.041826    4.005013
     45          1           0       -9.112728    2.304675   -3.588280
     46          1           0       -8.017634   -3.829732   -3.266052
     47          1           0       -8.361017   -3.623322    3.001219
     48          1           0       -9.228068    4.479044    0.847441
     49          1           0       -8.891411    4.293765   -1.945368
     50          1           0      -11.131823    3.544932   -0.105346
     51          1           0      -11.033762    2.584582   -1.613450
     52          1           0      -11.214000    4.311118   -1.744488
     53          1           0       -6.751098    4.329783   -0.882775
     54          1           0       -6.529971    4.340375    0.912626
     55          1           0       -8.248619    6.491906    0.202585
     56          1           0       -7.159793    6.357006   -1.125615
     57          1           0       -8.360493    1.901661   -5.515606
     58          1           0       -8.656410    0.511164   -6.487699
     59          1           0       -6.966213    1.023753   -6.247273
     60          1           0       -7.668706   -1.318467   -7.320572
     61          1           0       -6.443083   -2.693490   -7.509355
     62          1           0       -6.021643   -1.121741   -6.777970
     63          1           0       -7.581258   -5.497436   -1.387540
     64          1           0       -9.222698   -5.309932    1.090061
     65          1           0       -9.483802   -6.543500   -2.013211
     66          1           0      -10.306080   -4.947214   -1.946411
     67          1           0      -10.337792   -5.958827   -0.596372
     68          1           0       -7.242486   -6.850951    0.821105
     69          1           0       -7.274764   -5.941424    2.327613
     70          1           0       -5.642894   -5.683705   -0.084288
     71          1           0       -5.091023   -5.640299    1.624584
     72          1           0       -5.863194   -4.197780    0.826086
     73          1           0       -7.974351   -1.429376    5.904528
     74          1           0       -8.442880   -2.904494    4.986066
     75          1           0       -9.688095   -1.624163    5.295512
     76          1           0       -9.415604    3.101089    3.354581
     77          1           0       -7.330203    6.541012    4.915840
     78          1           0       -6.934871    6.639284    3.095460
     79          1           0       -5.994903    5.730705    4.294072
     80         12           0        7.930033   -0.638291    0.436897
     81          6           0        8.193219    1.958083   -2.026571
     82          6           0        8.752515    1.703735    2.776355
     83          6           0        8.148057   -2.983078    2.563358
     84          6           0        8.258169   -2.941941   -2.157561
     85          7           0        8.389452    1.519096    0.272962
     86          6           0        8.398250    2.410673   -0.706514
     87          6           0        8.560663    3.881091   -0.236349
     88          6           0        9.287923    3.605385    1.168619
     89          6           0        8.753836    2.202257    1.449112
     90          6           0       10.801488    3.526976    1.057642
     91          6           0        7.180689    4.600873   -0.037323
     92          6           0        7.264948    6.120660    0.120527
     93          1           0        6.196120    6.939469   -0.444816
     94          7           0        7.899961   -0.580099    2.420402
     95          6           0        8.244320    0.459295    3.209297
     96          6           0        8.067470   -0.009547    4.592440
     97          6           0        7.748621   -1.462771    4.557985
     98          6           0        7.944608   -1.742331    3.149612
     99          6           0        8.125494    0.910492    5.777171
    100          6           0        7.347699   -2.441945    5.619433
    101          8           0        7.351968   -3.705757    5.405921
    102          6           0        7.039874   -1.883383    6.944096
    103          7           0        8.379786   -2.660748    0.264497
    104          6           0        8.354623   -3.468600    1.339057
    105          6           0        8.438711   -4.920398    0.932115
    106          6           0        8.281327   -4.930314   -0.659334
    107          6           0        8.220188   -3.408724   -0.917059
    108          6           0        9.726428   -5.646603    1.320446
    109          6           0        7.157876   -5.825744   -1.249876
    110          6           0        5.803439   -5.275220   -0.865434
    111          7           0        7.995736   -0.551737   -1.720935
    112          6           0        8.164393   -1.633142   -2.613238
    113          6           0        8.260206   -1.064470   -3.973327
    114          6           0        8.162963    0.320936   -3.774086
    115          6           0        8.037132    0.597459   -2.385847
    116          6           0        8.463430   -1.804636   -5.172060
    117          6           0        8.148817    1.612943   -4.421551
    118          8           0        8.133990    1.999145   -5.589609
    119          6           0        8.294869    2.737803   -3.308106
    120          6           0        7.253574    3.790665   -3.572109
    121          8           0        6.043599    3.523500   -3.466267
    122          8           0        7.857255    4.987135   -3.692096
    123          6           0        6.864481    6.065495   -3.943811
    124          1           0        9.222917    2.303251    3.556225
    125          1           0        8.120348   -3.836681    3.244585
    126          1           0        8.262997   -3.600101   -3.029037
    127          1           0        9.192910    4.492947   -0.868546
    128          1           0        8.949883    4.301646    1.931707
    129          1           0       11.131933    3.552121    0.029862
    130          1           0       11.082447    2.591062    1.522590
    131          1           0       11.264874    4.313716    1.659827
    132          1           0        6.775205    4.331982    0.946560
    133          1           0        6.505452    4.357254   -0.834391
    134          1           0        8.246045    6.511982   -0.174872
    135          1           0        7.188195    6.363960    1.183044
    136          1           0        8.539851    1.889449    5.506329
    137          1           0        8.858042    0.488820    6.473911
    138          1           0        7.164179    1.001442    6.287325
    139          1           0        7.906199   -1.343170    7.318423
    140          1           0        6.688183   -2.726317    7.542143
    141          1           0        6.233888   -1.149081    6.835469
    142          1           0        7.629003   -5.491972    1.368885
    143          1           0        9.191414   -5.296930   -1.156498
    144          1           0        9.550132   -6.548211    1.936967
    145          1           0       10.367863   -4.948730    1.842047
    146          1           0       10.352303   -5.955569    0.484974
    147          1           0        7.214871   -6.832274   -0.828201
    148          1           0        7.207397   -5.925408   -2.329047
    149          1           0        5.648600   -5.680051    0.139167
    150          1           0        5.037781   -5.625777   -1.554580
    151          1           0        5.832528   -4.182762   -0.779729
    152          1           0        7.789177   -1.392118   -5.910789
    153          1           0        8.284599   -2.866830   -5.018617
    154          1           0        9.518930   -1.588742   -5.358025
    155          1           0        9.307462    3.137188   -3.376748
    156          1           0        7.169704    6.572199   -4.864551
    157          1           0        6.841306    6.672053   -3.018981
    158          1           0        5.852607    5.767228   -4.192011
 ---------------------------------------------------------------------
 Rotational constants (GHZ):           0.0202456           0.0056896           0.0056486
 Leave Link  202 at Sat Sep 11 21:47:38 2021, MaxMem= 23488102400 cpu:               0.2 elap:               0.0
 (Enter /sw/apps/gaussian-16.0/g16/l301.exe)
 Standard basis: def2SVP (5D, 7F)
 Ernie: Thresh=  0.10000D-02 Tol=  0.10000D-05 Strict=F.
 There are  1658 symmetry adapted cartesian basis functions of A   symmetry.
 There are  1572 symmetry adapted basis functions of A   symmetry.
  1572 basis functions,  2678 primitive gaussians,  1658 cartesian basis functions
   312 alpha electrons      312 beta electrons
       nuclear repulsion energy     13704.0466807838 Hartrees.
 IExCor=20419 DFT=T Ex+Corr=CAM-B3LYP ExCW=0 ScaHFX=  1.000000
 ScaDFX=  1.000000  1.000000  1.000000  0.810000 ScalE2=  1.000000  1.000000
 IRadAn=      5 IRanWt=     -1 IRanGd=            0 ICorTp=0 IEmpDi=  4
 HFx  wShort=  0.000000 wLong=  0.330000 cFull=  0.190000 cShort=  0.000000 cLong=  0.460000
 DFx  wShort=  0.000000 wLong=  0.330000 cFull=  0.190000 cShort=  0.000000 cLong=  0.460000
 NAtoms=  158 NActive=  158 NUniq=  158 SFac= 1.00D+00 NAtFMM=   60 NAOKFM=T Big=T
 Integral buffers will be    131072 words long.
 Raffenetti 1 integral format.
 Two-electron integral symmetry is turned on.
 Leave Link  301 at Sat Sep 11 21:47:38 2021, MaxMem= 23488102400 cpu:               1.3 elap:               0.1
 (Enter /sw/apps/gaussian-16.0/g16/l302.exe)
 NPDir=0 NMtPBC=     1 NCelOv=     1 NCel=       1 NClECP=     1 NCelD=      1
         NCelK=      1 NCelE2=     1 NClLst=     1 CellRange=     0.0.
 One-electron integrals computed using PRISM.
 One-electron integral symmetry used in STVInt
   1 Symmetry operations used in ECPInt.
 ECPInt:  NShTT=  271216 NPrTT=  987664 LenC2=  106699 LenP2D=  243603.
 LDataN:  DoStor=T MaxTD1= 4 Len=   56
 NBasis=  1572 RedAO= T EigKep=  3.36D-04  NBF=  1572
 NBsUse=  1572 1.00D-06 EigRej= -1.00D+00 NBFU=  1572
 Precomputing XC quadrature grid using
 IXCGrd= 4 IRadAn=           5 IRanWt=          -1 IRanGd=           0 AccXCQ= 0.00D+00.
 Generated NRdTot=       0 NPtTot=           0 NUsed=           0 NTot=          32
 NSgBfM=   846   817   823   836   846 MxSgAt=   158 MxSgA2=   140.
 Leave Link  302 at Sat Sep 11 21:47:43 2021, MaxMem= 23488102400 cpu:             106.2 elap:               4.4
 (Enter /sw/apps/gaussian-16.0/g16/l303.exe)
 DipDrv:  MaxL=1.
 Leave Link  303 at Sat Sep 11 21:47:43 2021, MaxMem= 23488102400 cpu:               8.7 elap:               0.4
 (Enter /sw/apps/gaussian-16.0/g16/l308.exe)
 Leave Link  308 at Sat Sep 11 21:47:44 2021, MaxMem= 23488102400 cpu:              14.5 elap:               0.7
 (Enter /sw/apps/gaussian-16.0/g16/l401.exe)
 ExpMin= 3.36D-02 ExpMax= 4.95D+03 ExpMxC= 7.45D+02 IAcc=3 IRadAn=         5 AccDes= 0.00D+00
 Harris functional with IExCor=20419 and IRadAn=       5 diagonalized for initial guess.
 HarFok:  IExCor=20419 AccDes= 0.00D+00 IRadAn=         5 IDoV= 1 UseB2=F ITyADJ=14
 ICtDFT=  3500011 ScaDFX=  1.000000  1.000000  1.000000  1.000000
 FoFCou: FMM=F IPFlag=           0 FMFlag=      100000 FMFlg1=        2001
         NFxFlg=           0 DoJE=T BraDBF=F KetDBF=T FulRan=T
         wScrn=  0.000000 ICntrl=       500 IOpCl=  0 I1Cent=   200000004 NGrid=           0
         NMat0=    1 NMatS0=      1 NMatT0=    0 NMatD0=    1 NMtDS0=    0 NMtDT0=    0
 Petite list used in FoFCou.
 Harris En= -3918.65801380644    
 JPrj=0 DoOrth=F DoCkMO=F.
 Leave Link  401 at Sat Sep 11 21:47:51 2021, MaxMem= 23488102400 cpu:             162.6 elap:               6.8
 (Enter /sw/apps/gaussian-16.0/g16/l502.exe)
 Integral symmetry usage will be decided dynamically.
 Closed shell SCF:
 Using DIIS extrapolation, IDIIS=  1040.
 NGot= 23488102400 LenX= 23482547354 LenY= 23479796732
 Requested convergence on RMS density matrix=1.00D-08 within 128 cycles.
 Requested convergence on MAX density matrix=1.00D-06.
 Requested convergence on             energy=1.00D-06.
 No special actions if energy rises.
 Fock matrices will be formed incrementally for  20 cycles.

 Cycle   1  Pass 1  IDiag  1:
 FoFJK:  IHMeth= 1 ICntrl=       0 DoSepK=T KAlg= 0 I1Cent=           0 FoldK=F
 IRaf=         1 NMat=       1 IRICut=       1 DoRegI=T DoRafI=F ISym2E= 0 IDoP0=0 IntGTp=1.
 FoFCou: FMM=T IPFlag=           0 FMFlag=      100000 FMFlg1=        2001
         NFxFlg=           0 DoJE=T BraDBF=F KetDBF=F FulRan=T
         wScrn=  0.000000 ICntrl=       500 IOpCl=  0 I1Cent=           0 NGrid=           0
         NMat0=    1 NMatS0=      1 NMatT0=    0 NMatD0=    1 NMtDS0=    0 NMtDT0=    0
 Symmetry not used in FoFCou.
 FMM levels:  10  Number of levels for PrismC:   9
 E= -4068.94959114601    
 DIIS: error= 2.04D-02 at cycle   1 NSaved=   1.
 NSaved= 1 IEnMin= 1 EnMin= -4068.94959114601     IErMin= 1 ErrMin= 2.04D-02
 ErrMax= 2.04D-02  0.00D+00 EMaxC= 1.00D-01 BMatC= 1.69D+00 BMatP= 1.69D+00
 IDIUse=3 WtCom= 7.96D-01 WtEn= 2.04D-01
 Coeff-Com:  0.100D+01
 Coeff-En:   0.100D+01
 Coeff:      0.100D+01
 Gap=     0.120 Goal=   None    Shift=    0.000
 GapD=    0.120 DampG=1.000 DampE=0.500 DampFc=0.5000 IDamp=-1.
 Damping current iteration by 5.00D-01
 RMSDP=1.57D-03 MaxDP=1.35D-01              OVMax= 2.00D-01

 Cycle   2  Pass 1  IDiag  1:
 RMSU=  7.69D-04    CP:  9.82D-01
 E= -4069.33849424751     Delta-E=       -0.388903101506 Rises=F Damp=T
 DIIS: error= 1.27D-02 at cycle   2 NSaved=   2.
 NSaved= 2 IEnMin= 2 EnMin= -4069.33849424751     IErMin= 2 ErrMin= 1.27D-02
 ErrMax= 1.27D-02  0.00D+00 EMaxC= 1.00D-01 BMatC= 3.07D-01 BMatP= 1.69D+00
 IDIUse=3 WtCom= 8.73D-01 WtEn= 1.27D-01
 Coeff-Com: -0.213D+00 0.121D+01
 Coeff-En:   0.000D+00 0.100D+01
 Coeff:     -0.186D+00 0.119D+01
 Gap=     0.138 Goal=   None    Shift=    0.000
 RMSDP=7.64D-04 MaxDP=9.41D-02 DE=-3.89D-01 OVMax= 1.88D-01

 Cycle   3  Pass 1  IDiag  1:
 RMSU=  7.31D-04    CP:  9.68D-01  1.24D+00
 E= -4069.62863503890     Delta-E=       -0.290140791389 Rises=F Damp=F
 DIIS: error= 1.57D-02 at cycle   3 NSaved=   3.
 NSaved= 3 IEnMin= 3 EnMin= -4069.62863503890     IErMin= 2 ErrMin= 1.27D-02
 ErrMax= 1.57D-02  0.00D+00 EMaxC= 1.00D-01 BMatC= 2.01D-01 BMatP= 3.07D-01
 IDIUse=3 WtCom= 8.43D-01 WtEn= 1.57D-01
 Coeff-Com: -0.267D+00 0.651D+00 0.616D+00
 Coeff-En:   0.000D+00 0.000D+00 0.100D+01
 Coeff:     -0.225D+00 0.549D+00 0.676D+00
 Gap=     0.125 Goal=   None    Shift=    0.000
 RMSDP=5.06D-04 MaxDP=4.89D-02 DE=-2.90D-01 OVMax= 1.39D-01

 Cycle   4  Pass 1  IDiag  1:
 RMSU=  2.65D-04    CP:  9.65D-01  1.55D+00  5.07D-01
 E= -4069.76557044743     Delta-E=       -0.136935408529 Rises=F Damp=F
 DIIS: error= 7.31D-03 at cycle   4 NSaved=   4.
 NSaved= 4 IEnMin= 4 EnMin= -4069.76557044743     IErMin= 4 ErrMin= 7.31D-03
 ErrMax= 7.31D-03  0.00D+00 EMaxC= 1.00D-01 BMatC= 5.01D-02 BMatP= 2.01D-01
 IDIUse=3 WtCom= 9.27D-01 WtEn= 7.31D-02
 Coeff-Com: -0.109D+00 0.225D+00 0.408D+00 0.475D+00
 Coeff-En:   0.000D+00 0.000D+00 0.219D+00 0.781D+00
 Coeff:     -0.101D+00 0.209D+00 0.395D+00 0.497D+00
 Gap=     0.123 Goal=   None    Shift=    0.000
 RMSDP=1.98D-04 MaxDP=2.09D-02 DE=-1.37D-01 OVMax= 5.94D-02

 Cycle   5  Pass 1  IDiag  1:
 RMSU=  7.52D-05    CP:  9.64D-01  1.49D+00  6.89D-01  5.51D-01
 E= -4069.81065928379     Delta-E=       -0.045088836359 Rises=F Damp=F
 DIIS: error= 7.94D-04 at cycle   5 NSaved=   5.
 NSaved= 5 IEnMin= 5 EnMin= -4069.81065928379     IErMin= 5 ErrMin= 7.94D-04
 ErrMax= 7.94D-04  0.00D+00 EMaxC= 1.00D-01 BMatC= 1.14D-03 BMatP= 5.01D-02
 IDIUse=3 WtCom= 9.92D-01 WtEn= 7.94D-03
 Coeff-Com: -0.353D-01 0.692D-01 0.163D+00 0.248D+00 0.555D+00
 Coeff-En:   0.000D+00 0.000D+00 0.000D+00 0.000D+00 0.100D+01
 Coeff:     -0.350D-01 0.687D-01 0.162D+00 0.246D+00 0.559D+00
 Gap=     0.122 Goal=   None    Shift=    0.000
 RMSDP=3.98D-05 MaxDP=4.14D-03 DE=-4.51D-02 OVMax= 1.52D-02

 Cycle   6  Pass 1  IDiag  1:
 RMSU=  2.97D-05    CP:  9.64D-01  1.49D+00  6.82D-01  6.22D-01  7.66D-01
 E= -4069.81163023583     Delta-E=       -0.000970952035 Rises=F Damp=F
 DIIS: error= 2.30D-04 at cycle   6 NSaved=   6.
 NSaved= 6 IEnMin= 6 EnMin= -4069.81163023583     IErMin= 6 ErrMin= 2.30D-04
 ErrMax= 2.30D-04  0.00D+00 EMaxC= 1.00D-01 BMatC= 1.70D-04 BMatP= 1.14D-03
 IDIUse=3 WtCom= 9.98D-01 WtEn= 2.30D-03
 Coeff-Com:  0.243D-02-0.699D-02 0.102D-01 0.388D-01 0.306D+00 0.650D+00
 Coeff-En:   0.000D+00 0.000D+00 0.000D+00 0.000D+00 0.973D-01 0.903D+00
 Coeff:      0.242D-02-0.698D-02 0.102D-01 0.388D-01 0.305D+00 0.650D+00
 Gap=     0.123 Goal=   None    Shift=    0.000
 RMSDP=1.53D-05 MaxDP=1.24D-03 DE=-9.71D-04 OVMax= 6.89D-03

 Cycle   7  Pass 1  IDiag  1:
 RMSU=  1.04D-05    CP:  9.64D-01  1.50D+00  6.87D-01  6.22D-01  8.63D-01
                    CP:  7.56D-01
 E= -4069.81181074575     Delta-E=       -0.000180509920 Rises=F Damp=F
 DIIS: error= 7.73D-05 at cycle   7 NSaved=   7.
 NSaved= 7 IEnMin= 7 EnMin= -4069.81181074575     IErMin= 7 ErrMin= 7.73D-05
 ErrMax= 7.73D-05  0.00D+00 EMaxC= 1.00D-01 BMatC= 1.92D-05 BMatP= 1.70D-04
 IDIUse=1 WtCom= 1.00D+00 WtEn= 0.00D+00
 Coeff-Com:  0.442D-02-0.964D-02-0.909D-02-0.424D-02 0.990D-01 0.324D+00
 Coeff-Com:  0.595D+00
 Coeff:      0.442D-02-0.964D-02-0.909D-02-0.424D-02 0.990D-01 0.324D+00
 Coeff:      0.595D+00
 Gap=     0.123 Goal=   None    Shift=    0.000
 RMSDP=6.33D-06 MaxDP=1.10D-03 DE=-1.81D-04 OVMax= 3.28D-03

 Cycle   8  Pass 1  IDiag  1:
 RMSU=  4.58D-06    CP:  9.64D-01  1.50D+00  6.88D-01  6.27D-01  8.69D-01
                    CP:  8.81D-01  8.31D-01
 E= -4069.81183457123     Delta-E=       -0.000023825483 Rises=F Damp=F
 DIIS: error= 4.92D-05 at cycle   8 NSaved=   8.
 NSaved= 8 IEnMin= 8 EnMin= -4069.81183457123     IErMin= 8 ErrMin= 4.92D-05
 ErrMax= 4.92D-05  0.00D+00 EMaxC= 1.00D-01 BMatC= 4.67D-06 BMatP= 1.92D-05
 IDIUse=1 WtCom= 1.00D+00 WtEn= 0.00D+00
 Coeff-Com:  0.212D-02-0.419D-02-0.768D-02-0.121D-01-0.126D-01 0.332D-01
 Coeff-Com:  0.351D+00 0.650D+00
 Coeff:      0.212D-02-0.419D-02-0.768D-02-0.121D-01-0.126D-01 0.332D-01
 Coeff:      0.351D+00 0.650D+00
 Gap=     0.123 Goal=   None    Shift=    0.000
 RMSDP=3.21D-06 MaxDP=3.53D-04 DE=-2.38D-05 OVMax= 1.17D-03

 Cycle   9  Pass 1  IDiag  1:
 RMSU=  1.88D-06    CP:  9.64D-01  1.50D+00  6.88D-01  6.28D-01  8.86D-01
                    CP:  9.06D-01  1.03D+00  9.31D-01
 E= -4069.81184199138     Delta-E=       -0.000007420149 Rises=F Damp=F
 DIIS: error= 1.93D-05 at cycle   9 NSaved=   9.
 NSaved= 9 IEnMin= 9 EnMin= -4069.81184199138     IErMin= 9 ErrMin= 1.93D-05
 ErrMax= 1.93D-05  0.00D+00 EMaxC= 1.00D-01 BMatC= 6.60D-07 BMatP= 4.67D-06
 IDIUse=1 WtCom= 1.00D+00 WtEn= 0.00D+00
 Coeff-Com:  0.455D-03-0.755D-03-0.263D-02-0.592D-02-0.214D-01-0.376D-01
 Coeff-Com:  0.107D+00 0.324D+00 0.637D+00
 Coeff:      0.455D-03-0.755D-03-0.263D-02-0.592D-02-0.214D-01-0.376D-01
 Coeff:      0.107D+00 0.324D+00 0.637D+00
 Gap=     0.123 Goal=   None    Shift=    0.000
 RMSDP=1.39D-06 MaxDP=1.50D-04 DE=-7.42D-06 OVMax= 7.47D-04

 Cycle  10  Pass 1  IDiag  1:
 RMSU=  9.25D-07    CP:  9.64D-01  1.50D+00  6.88D-01  6.28D-01  8.89D-01
                    CP:  9.20D-01  1.07D+00  1.10D+00  1.04D+00
 E= -4069.81184350760     Delta-E=       -0.000001516222 Rises=F Damp=F
 DIIS: error= 1.08D-05 at cycle  10 NSaved=  10.
 NSaved=10 IEnMin=10 EnMin= -4069.81184350760     IErMin=10 ErrMin= 1.08D-05
 ErrMax= 1.08D-05  0.00D+00 EMaxC= 1.00D-01 BMatC= 1.68D-07 BMatP= 6.60D-07
 IDIUse=1 WtCom= 1.00D+00 WtEn= 0.00D+00
 Coeff-Com: -0.421D-03 0.881D-03 0.121D-02 0.111D-02-0.387D-02-0.306D-01
 Coeff-Com: -0.471D-01-0.756D-01 0.263D+00 0.891D+00
 Coeff:     -0.421D-03 0.881D-03 0.121D-02 0.111D-02-0.387D-02-0.306D-01
 Coeff:     -0.471D-01-0.756D-01 0.263D+00 0.891D+00
 Gap=     0.123 Goal=   None    Shift=    0.000
 RMSDP=1.19D-06 MaxDP=1.26D-04 DE=-1.52D-06 OVMax= 5.91D-04

 Cycle  11  Pass 1  IDiag  1:
 RMSU=  5.03D-07    CP:  9.64D-01  1.50D+00  6.89D-01  6.29D-01  8.91D-01
                    CP:  9.30D-01  1.12D+00  1.21D+00  1.38D+00  1.36D+00
 E= -4069.81184426014     Delta-E=       -0.000000752538 Rises=F Damp=F
 DIIS: error= 3.88D-06 at cycle  11 NSaved=  11.
 NSaved=11 IEnMin=11 EnMin= -4069.81184426014     IErMin=11 ErrMin= 3.88D-06
 ErrMax= 3.88D-06  0.00D+00 EMaxC= 1.00D-01 BMatC= 5.73D-08 BMatP= 1.68D-07
 IDIUse=1 WtCom= 1.00D+00 WtEn= 0.00D+00
 Coeff-Com: -0.320D-03 0.622D-03 0.130D-02 0.209D-02 0.433D-02-0.822D-02
 Coeff-Com: -0.443D-01-0.132D+00-0.160D-01 0.455D+00 0.737D+00
 Coeff:     -0.320D-03 0.622D-03 0.130D-02 0.209D-02 0.433D-02-0.822D-02
 Coeff:     -0.443D-01-0.132D+00-0.160D-01 0.455D+00 0.737D+00
 Gap=     0.123 Goal=   None    Shift=    0.000
 RMSDP=6.67D-07 MaxDP=5.48D-05 DE=-7.53D-07 OVMax= 3.54D-04

 Cycle  12  Pass 1  IDiag  1:
 RMSU=  2.58D-07    CP:  9.64D-01  1.50D+00  6.89D-01  6.29D-01  8.92D-01
                    CP:  9.33D-01  1.15D+00  1.27D+00  1.54D+00  1.74D+00
                    CP:  1.20D+00
 E= -4069.81184450873     Delta-E=       -0.000000248594 Rises=F Damp=F
 DIIS: error= 2.37D-06 at cycle  12 NSaved=  12.
 NSaved=12 IEnMin=12 EnMin= -4069.81184450873     IErMin=12 ErrMin= 2.37D-06
 ErrMax= 2.37D-06  0.00D+00 EMaxC= 1.00D-01 BMatC= 1.39D-08 BMatP= 5.73D-08
 IDIUse=1 WtCom= 1.00D+00 WtEn= 0.00D+00
 Coeff-Com:  0.202D-05-0.201D-04 0.167D-03 0.491D-03 0.319D-02 0.406D-02
 Coeff-Com:  0.282D-02-0.345D-01-0.654D-01-0.807D-01 0.252D+00 0.918D+00
 Coeff:      0.202D-05-0.201D-04 0.167D-03 0.491D-03 0.319D-02 0.406D-02
 Coeff:      0.282D-02-0.345D-01-0.654D-01-0.807D-01 0.252D+00 0.918D+00
 Gap=     0.123 Goal=   None    Shift=    0.000
 RMSDP=4.26D-07 MaxDP=3.06D-05 DE=-2.49D-07 OVMax= 2.39D-04

 Cycle  13  Pass 1  IDiag  1:
 RMSU=  1.62D-07    CP:  9.64D-01  1.50D+00  6.89D-01  6.29D-01  8.92D-01
                    CP:  9.33D-01  1.15D+00  1.30D+00  1.65D+00  1.97D+00
                    CP:  1.61D+00  1.28D+00
 E= -4069.81184459571     Delta-E=       -0.000000086973 Rises=F Damp=F
 DIIS: error= 1.27D-06 at cycle  13 NSaved=  13.
 NSaved=13 IEnMin=13 EnMin= -4069.81184459571     IErMin=13 ErrMin= 1.27D-06
 ErrMax= 1.27D-06  0.00D+00 EMaxC= 1.00D-01 BMatC= 7.68D-09 BMatP= 1.39D-08
 IDIUse=1 WtCom= 1.00D+00 WtEn= 0.00D+00
 Coeff-Com:  0.118D-03-0.242D-03-0.366D-03-0.452D-03 0.538D-03 0.510D-02
 Coeff-Com:  0.199D-01 0.224D-01-0.351D-01-0.241D+00-0.151D+00 0.601D+00
 Coeff-Com:  0.779D+00
 Coeff:      0.118D-03-0.242D-03-0.366D-03-0.452D-03 0.538D-03 0.510D-02
 Coeff:      0.199D-01 0.224D-01-0.351D-01-0.241D+00-0.151D+00 0.601D+00
 Coeff:      0.779D+00
 Gap=     0.123 Goal=   None    Shift=    0.000
 RMSDP=3.28D-07 MaxDP=2.19D-05 DE=-8.70D-08 OVMax= 1.83D-04

 Cycle  14  Pass 1  IDiag  1:
 RMSU=  7.53D-08    CP:  9.64D-01  1.50D+00  6.89D-01  6.29D-01  8.92D-01
                    CP:  9.34D-01  1.16D+00  1.32D+00  1.72D+00  2.16D+00
                    CP:  1.87D+00  1.79D+00  1.08D+00
 E= -4069.81184462935     Delta-E=       -0.000000033648 Rises=F Damp=F
 DIIS: error= 6.37D-07 at cycle  14 NSaved=  14.
 NSaved=14 IEnMin=14 EnMin= -4069.81184462935     IErMin=14 ErrMin= 6.37D-07
 ErrMax= 6.37D-07  0.00D+00 EMaxC= 1.00D-01 BMatC= 1.19D-09 BMatP= 7.68D-09
 IDIUse=1 WtCom= 1.00D+00 WtEn= 0.00D+00
 Coeff-Com:  0.655D-04-0.129D-03-0.243D-03-0.381D-03-0.488D-03 0.134D-02
 Coeff-Com:  0.109D-01 0.190D-01 0.258D-02-0.994D-01-0.140D+00 0.967D-01
 Coeff-Com:  0.403D+00 0.707D+00
 Coeff:      0.655D-04-0.129D-03-0.243D-03-0.381D-03-0.488D-03 0.134D-02
 Coeff:      0.109D-01 0.190D-01 0.258D-02-0.994D-01-0.140D+00 0.967D-01
 Coeff:      0.403D+00 0.707D+00
 Gap=     0.123 Goal=   None    Shift=    0.000
 RMSDP=9.88D-08 MaxDP=6.54D-06 DE=-3.36D-08 OVMax= 5.74D-05

 Cycle  15  Pass 1  IDiag  1:
 RMSU=  3.79D-08    CP:  9.64D-01  1.50D+00  6.89D-01  6.29D-01  8.92D-01
                    CP:  9.34D-01  1.16D+00  1.32D+00  1.74D+00  2.20D+00
                    CP:  1.97D+00  1.92D+00  1.32D+00  1.02D+00
 E= -4069.81184463342     Delta-E=       -0.000000004071 Rises=F Damp=F
 DIIS: error= 3.99D-07 at cycle  15 NSaved=  15.
 NSaved=15 IEnMin=15 EnMin= -4069.81184463342     IErMin=15 ErrMin= 3.99D-07
 ErrMax= 3.99D-07  0.00D+00 EMaxC= 1.00D-01 BMatC= 2.30D-10 BMatP= 1.19D-09
 IDIUse=1 WtCom= 1.00D+00 WtEn= 0.00D+00
 Coeff-Com:  0.591D-05-0.100D-04-0.345D-04-0.845D-04-0.309D-03-0.483D-03
 Coeff-Com:  0.125D-02 0.280D-02 0.869D-02 0.912D-03-0.327D-01-0.726D-01
 Coeff-Com:  0.308D-01 0.310D+00 0.752D+00
 Coeff:      0.591D-05-0.100D-04-0.345D-04-0.845D-04-0.309D-03-0.483D-03
 Coeff:      0.125D-02 0.280D-02 0.869D-02 0.912D-03-0.327D-01-0.726D-01
 Coeff:      0.308D-01 0.310D+00 0.752D+00
 Gap=     0.123 Goal=   None    Shift=    0.000
 RMSDP=4.08D-08 MaxDP=2.60D-06 DE=-4.07D-09 OVMax= 2.41D-05

 Cycle  16  Pass 1  IDiag  1:
 RMSU=  1.86D-08    CP:  9.64D-01  1.50D+00  6.89D-01  6.29D-01  8.92D-01
                    CP:  9.34D-01  1.16D+00  1.33D+00  1.74D+00  2.22D+00
                    CP:  2.00D+00  1.99D+00  1.39D+00  1.24D+00  1.14D+00
 E= -4069.81184463406     Delta-E=       -0.000000000640 Rises=F Damp=F
 DIIS: error= 2.11D-07 at cycle  16 NSaved=  16.
 NSaved=16 IEnMin=16 EnMin= -4069.81184463406     IErMin=16 ErrMin= 2.11D-07
 ErrMax= 2.11D-07  0.00D+00 EMaxC= 1.00D-01 BMatC= 7.83D-11 BMatP= 2.30D-10
 IDIUse=1 WtCom= 1.00D+00 WtEn= 0.00D+00
 Coeff-Com: -0.140D-04 0.283D-04 0.462D-04 0.527D-04-0.292D-04-0.632D-03
 Coeff-Com: -0.201D-02-0.418D-02 0.481D-02 0.255D-01 0.198D-01-0.651D-01
 Coeff-Com: -0.841D-01-0.289D-01 0.391D+00 0.744D+00
 Coeff:     -0.140D-04 0.283D-04 0.462D-04 0.527D-04-0.292D-04-0.632D-03
 Coeff:     -0.201D-02-0.418D-02 0.481D-02 0.255D-01 0.198D-01-0.651D-01
 Coeff:     -0.841D-01-0.289D-01 0.391D+00 0.744D+00
 Gap=     0.123 Goal=   None    Shift=    0.000
 RMSDP=2.28D-08 MaxDP=1.59D-06 DE=-6.40D-10 OVMax= 1.52D-05

 Cycle  17  Pass 1  IDiag  1:
 RMSU=  1.07D-08    CP:  9.64D-01  1.50D+00  6.89D-01  6.29D-01  8.92D-01
                    CP:  9.34D-01  1.16D+00  1.33D+00  1.75D+00  2.22D+00
                    CP:  2.01D+00  2.01D+00  1.44D+00  1.33D+00  1.44D+00
                    CP:  1.23D+00
 E= -4069.81184463450     Delta-E=       -0.000000000437 Rises=F Damp=F
 DIIS: error= 1.18D-07 at cycle  17 NSaved=  17.
 NSaved=17 IEnMin=17 EnMin= -4069.81184463450     IErMin=17 ErrMin= 1.18D-07
 ErrMax= 1.18D-07  0.00D+00 EMaxC= 1.00D-01 BMatC= 1.96D-11 BMatP= 7.83D-11
 IDIUse=1 WtCom= 1.00D+00 WtEn= 0.00D+00
 Coeff-Com: -0.787D-05 0.154D-04 0.308D-04 0.454D-04 0.819D-04-0.154D-03
 Coeff-Com: -0.112D-02-0.299D-02 0.473D-03 0.106D-01 0.185D-01-0.104D-01
 Coeff-Com: -0.426D-01-0.103D+00-0.244D-01 0.333D+00 0.821D+00
 Coeff:     -0.787D-05 0.154D-04 0.308D-04 0.454D-04 0.819D-04-0.154D-03
 Coeff:     -0.112D-02-0.299D-02 0.473D-03 0.106D-01 0.185D-01-0.104D-01
 Coeff:     -0.426D-01-0.103D+00-0.244D-01 0.333D+00 0.821D+00
 Gap=     0.123 Goal=   None    Shift=    0.000
 RMSDP=1.39D-08 MaxDP=1.00D-06 DE=-4.37D-10 OVMax= 8.01D-06

 Cycle  18  Pass 1  IDiag  1:
 RMSU=  5.18D-09    CP:  9.64D-01  1.50D+00  6.89D-01  6.29D-01  8.92D-01
                    CP:  9.34D-01  1.16D+00  1.33D+00  1.75D+00  2.22D+00
                    CP:  2.02D+00  2.02D+00  1.46D+00  1.41D+00  1.61D+00
                    CP:  1.64D+00  1.34D+00
 E= -4069.81184463455     Delta-E=       -0.000000000044 Rises=F Damp=F
 DIIS: error= 5.85D-08 at cycle  18 NSaved=  18.
 NSaved=18 IEnMin=18 EnMin= -4069.81184463455     IErMin=18 ErrMin= 5.85D-08
 ErrMax= 5.85D-08  0.00D+00 EMaxC= 1.00D-01 BMatC= 6.90D-12 BMatP= 1.96D-11
 IDIUse=1 WtCom= 1.00D+00 WtEn= 0.00D+00
 Coeff-Com:  0.107D-05-0.247D-05-0.950D-06 0.325D-05 0.636D-04 0.155D-03
 Coeff-Com:  0.261D-03-0.131D-03-0.118D-02-0.469D-02 0.206D-02 0.184D-01
 Coeff-Com:  0.129D-01-0.410D-01-0.153D+00-0.125D+00 0.377D+00 0.914D+00
 Coeff:      0.107D-05-0.247D-05-0.950D-06 0.325D-05 0.636D-04 0.155D-03
 Coeff:      0.261D-03-0.131D-03-0.118D-02-0.469D-02 0.206D-02 0.184D-01
 Coeff:      0.129D-01-0.410D-01-0.153D+00-0.125D+00 0.377D+00 0.914D+00
 Gap=     0.123 Goal=   None    Shift=    0.000
 RMSDP=1.07D-08 MaxDP=8.42D-07 DE=-4.37D-11 OVMax= 7.37D-06

 Cycle  19  Pass 1  IDiag  1:
 RMSU=  3.21D-09    CP:  9.64D-01  1.50D+00  6.89D-01  6.29D-01  8.92D-01
                    CP:  9.34D-01  1.16D+00  1.33D+00  1.75D+00  2.22D+00
                    CP:  2.02D+00  2.02D+00  1.47D+00  1.45D+00  1.75D+00
                    CP:  1.93D+00  1.86D+00  1.22D+00
 E= -4069.81184463475     Delta-E=       -0.000000000204 Rises=F Damp=F
 DIIS: error= 4.03D-08 at cycle  19 NSaved=  19.
 NSaved=19 IEnMin=19 EnMin= -4069.81184463475     IErMin=19 ErrMin= 4.03D-08
 ErrMax= 4.03D-08  0.00D+00 EMaxC= 1.00D-01 BMatC= 2.73D-12 BMatP= 6.90D-12
 IDIUse=1 WtCom= 1.00D+00 WtEn= 0.00D+00
 Coeff-Com:  0.328D-05-0.665D-05-0.109D-04-0.131D-04 0.179D-04 0.151D-03
 Coeff-Com:  0.557D-03 0.875D-03-0.856D-03-0.698D-02-0.495D-02 0.154D-01
 Coeff-Com:  0.234D-01 0.696D-02-0.945D-01-0.205D+00-0.335D-01 0.595D+00
 Coeff-Com:  0.703D+00
 Coeff:      0.328D-05-0.665D-05-0.109D-04-0.131D-04 0.179D-04 0.151D-03
 Coeff:      0.557D-03 0.875D-03-0.856D-03-0.698D-02-0.495D-02 0.154D-01
 Coeff:      0.234D-01 0.696D-02-0.945D-01-0.205D+00-0.335D-01 0.595D+00
 Coeff:      0.703D+00
 Gap=     0.123 Goal=   None    Shift=    0.000
 RMSDP=6.23D-09 MaxDP=4.14D-07 DE=-2.04D-10 OVMax= 3.54D-06

 SCF Done:  E(RCAM-B3LYP) =  -4069.81184463     A.U. after   19 cycles
            NFock= 19  Conv=0.62D-08     -V/T= 2.0102
 KE= 4.028801771185D+03 PE=-3.688940992851D+04 EE= 1.508674963190D+04
 Leave Link  502 at Sat Sep 11 21:56:24 2021, MaxMem= 23488102400 cpu:           11754.8 elap:             513.5
 (Enter /sw/apps/gaussian-16.0/g16/l801.exe)
 DoSCS=F DFT=T ScalE2(SS,OS)=  1.000000  1.000000
 ExpMin= 3.36D-02 ExpMax= 4.95D+03 ExpMxC= 7.45D+02 IAcc=3 IRadAn=         5 AccDes= 0.00D+00
 HarFok:  IExCor=  205 AccDes= 0.00D+00 IRadAn=         5 IDoV=-2 UseB2=F ITyADJ=14
 ICtDFT= 12500011 ScaDFX=  1.000000  1.000000  1.000000  1.000000
 GSVD:  LWork=       -9588 too small for GESVD, short by       45590 words or       45590 for optimal perf.
 Largest valence mixing into a core orbital is  2.03D-04
 Largest core mixing into a valence orbital is  5.24D-05
 Range of M.O.s used for correlation:    95  1572
 NBasis=  1572 NAE=   312 NBE=   312 NFC=    94 NFV=     0
 NROrb=   1478 NOA=   218 NOB=   218 NVA=  1260 NVB=  1260
 Leave Link  801 at Sat Sep 11 21:56:25 2021, MaxMem= 23488102400 cpu:               8.5 elap:               0.4
 (Enter /sw/apps/gaussian-16.0/g16/l914.exe)
 RHF ground state
 Two-electron integrals replicated using symmetry.
 MDV= 23488102400 DFT=T DoStab=F Mixed=T DoRPA=T DoScal=F NonHer=T
 Making orbital integer symmetry assigments:
 Orbital symmetries:
       Occupied  (A) (A) (A) (A) (A) (A) (A) (A) (A) (A) (A) (A)
                 (A) (A) (A) (A) (A) (A) (A) (A) (A) (A) (A) (A)
                 (A) (A) (A) (A) (A) (A) (A) (A) (A) (A) (A) (A)
                 (A) (A) (A) (A) (A) (A) (A) (A) (A) (A) (A) (A)
                 (A) (A) (A) (A) (A) (A) (A) (A) (A) (A) (A) (A)
                 (A) (A) (A) (A) (A) (A) (A) (A) (A) (A) (A) (A)
                 (A) (A) (A) (A) (A) (A) (A) (A) (A) (A) (A) (A)
                 (A) (A) (A) (A) (A) (A) (A) (A) (A) (A) (A) (A)
                 (A) (A) (A) (A) (A) (A) (A) (A) (A) (A) (A) (A)
                 (A) (A) (A) (A) (A) (A) (A) (A) (A) (A) (A) (A)
                 (A) (A) (A) (A) (A) (A) (A) (A) (A) (A) (A) (A)
                 (A) (A) (A) (A) (A) (A) (A) (A) (A) (A) (A) (A)
                 (A) (A) (A) (A) (A) (A) (A) (A) (A) (A) (A) (A)
                 (A) (A) (A) (A) (A) (A) (A) (A) (A) (A) (A) (A)
                 (A) (A) (A) (A) (A) (A) (A) (A) (A) (A) (A) (A)
                 (A) (A) (A) (A) (A) (A) (A) (A) (A) (A) (A) (A)
                 (A) (A) (A) (A) (A) (A) (A) (A) (A) (A) (A) (A)
                 (A) (A) (A) (A) (A) (A) (A) (A) (A) (A) (A) (A)
                 (A) (A) (A) (A) (A) (A) (A) (A) (A) (A) (A) (A)
                 (A) (A) (A) (A) (A) (A) (A) (A) (A) (A) (A) (A)
                 (A) (A) (A) (A) (A) (A) (A) (A) (A) (A) (A) (A)
                 (A) (A) (A) (A) (A) (A) (A) (A) (A) (A) (A) (A)
                 (A) (A) (A) (A) (A) (A) (A) (A) (A) (A) (A) (A)
                 (A) (A) (A) (A) (A) (A) (A) (A) (A) (A) (A) (A)
                 (A) (A) (A) (A) (A) (A) (A) (A) (A) (A) (A) (A)
                 (A) (A) (A) (A) (A) (A) (A) (A) (A) (A) (A) (A)
       Virtual   (A) (A) (A) (A) (A) (A) (A) (A) (A) (A) (A) (A)
                 (A) (A) (A) (A) (A) (A) (A) (A) (A) (A) (A) (A)
                 (A) (A) (A) (A) (A) (A) (A) (A) (A) (A) (A) (A)
                 (A) (A) (A) (A) (A) (A) (A) (A) (A) (A) (A) (A)
                 (A) (A) (A) (A) (A) (A) (A) (A) (A) (A) (A) (A)
                 (A) (A) (A) (A) (A) (A) (A) (A) (A) (A) (A) (A)
                 (A) (A) (A) (A) (A) (A) (A) (A) (A) (A) (A) (A)
                 (A) (A) (A) (A) (A) (A) (A) (A) (A) (A) (A) (A)
                 (A) (A) (A) (A) (A) (A) (A) (A) (A) (A) (A) (A)
                 (A) (A) (A) (A) (A) (A) (A) (A) (A) (A) (A) (A)
                 (A) (A) (A) (A) (A) (A) (A) (A) (A) (A) (A) (A)
                 (A) (A) (A) (A) (A) (A) (A) (A) (A) (A) (A) (A)
                 (A) (A) (A) (A) (A) (A) (A) (A) (A) (A) (A) (A)
                 (A) (A) (A) (A) (A) (A) (A) (A) (A) (A) (A) (A)
                 (A) (A) (A) (A) (A) (A) (A) (A) (A) (A) (A) (A)
                 (A) (A) (A) (A) (A) (A) (A) (A) (A) (A) (A) (A)
                 (A) (A) (A) (A) (A) (A) (A) (A) (A) (A) (A) (A)
                 (A) (A) (A) (A) (A) (A) (A) (A) (A) (A) (A) (A)
                 (A) (A) (A) (A) (A) (A) (A) (A) (A) (A) (A) (A)
                 (A) (A) (A) (A) (A) (A) (A) (A) (A) (A) (A) (A)
                 (A) (A) (A) (A) (A) (A) (A) (A) (A) (A) (A) (A)
                 (A) (A) (A) (A) (A) (A) (A) (A) (A) (A) (A) (A)
                 (A) (A) (A) (A) (A) (A) (A) (A) (A) (A) (A) (A)
                 (A) (A) (A) (A) (A) (A) (A) (A) (A) (A) (A) (A)
                 (A) (A) (A) (A) (A) (A) (A) (A) (A) (A) (A) (A)
                 (A) (A) (A) (A) (A) (A) (A) (A) (A) (A) (A) (A)
                 (A) (A) (A) (A) (A) (A) (A) (A) (A) (A) (A) (A)
                 (A) (A) (A) (A) (A) (A) (A) (A) (A) (A) (A) (A)
                 (A) (A) (A) (A) (A) (A) (A) (A) (A) (A) (A) (A)
                 (A) (A) (A) (A) (A) (A) (A) (A) (A) (A) (A) (A)
                 (A) (A) (A) (A) (A) (A) (A) (A) (A) (A) (A) (A)
                 (A) (A) (A) (A) (A) (A) (A) (A) (A) (A) (A) (A)
                 (A) (A) (A) (A) (A) (A) (A) (A) (A) (A) (A) (A)
                 (A) (A) (A) (A) (A) (A) (A) (A) (A) (A) (A) (A)
                 (A) (A) (A) (A) (A) (A) (A) (A) (A) (A) (A) (A)
                 (A) (A) (A) (A) (A) (A) (A) (A) (A) (A) (A) (A)
                 (A) (A) (A) (A) (A) (A) (A) (A) (A) (A) (A) (A)
                 (A) (A) (A) (A) (A) (A) (A) (A) (A) (A) (A) (A)
                 (A) (A) (A) (A) (A) (A) (A) (A) (A) (A) (A) (A)
                 (A) (A) (A) (A) (A) (A) (A) (A) (A) (A) (A) (A)
                 (A) (A) (A) (A) (A) (A) (A) (A) (A) (A) (A) (A)
                 (A) (A) (A) (A) (A) (A) (A) (A) (A) (A) (A) (A)
                 (A) (A) (A) (A) (A) (A) (A) (A) (A) (A) (A) (A)
                 (A) (A) (A) (A) (A) (A) (A) (A) (A) (A) (A) (A)
                 (A) (A) (A) (A) (A) (A) (A) (A) (A) (A) (A) (A)
                 (A) (A) (A) (A) (A) (A) (A) (A) (A) (A) (A) (A)
                 (A) (A) (A) (A) (A) (A) (A) (A) (A) (A) (A) (A)
                 (A) (A) (A) (A) (A) (A) (A) (A) (A) (A) (A) (A)
                 (A) (A) (A) (A) (A) (A) (A) (A) (A) (A) (A) (A)
                 (A) (A) (A) (A) (A) (A) (A) (A) (A) (A) (A) (A)
                 (A) (A) (A) (A) (A) (A) (A) (A) (A) (A) (A) (A)
                 (A) (A) (A) (A) (A) (A) (A) (A) (A) (A) (A) (A)
                 (A) (A) (A) (A) (A) (A) (A) (A) (A) (A) (A) (A)
                 (A) (A) (A) (A) (A) (A) (A) (A) (A) (A) (A) (A)
                 (A) (A) (A) (A) (A) (A) (A) (A) (A) (A) (A) (A)
                 (A) (A) (A) (A) (A) (A) (A) (A) (A) (A) (A) (A)
                 (A) (A) (A) (A) (A) (A) (A) (A) (A) (A) (A) (A)
                 (A) (A) (A) (A) (A) (A) (A) (A) (A) (A) (A) (A)
                 (A) (A) (A) (A) (A) (A) (A) (A) (A) (A) (A) (A)
                 (A) (A) (A) (A) (A) (A) (A) (A) (A) (A) (A) (A)
                 (A) (A) (A) (A) (A) (A) (A) (A) (A) (A) (A) (A)
                 (A) (A) (A) (A) (A) (A) (A) (A) (A) (A) (A) (A)
                 (A) (A) (A) (A) (A) (A) (A) (A) (A) (A) (A) (A)
                 (A) (A) (A) (A) (A) (A) (A) (A) (A) (A) (A) (A)
                 (A) (A) (A) (A) (A) (A) (A) (A) (A) (A) (A) (A)
                 (A) (A) (A) (A) (A) (A) (A) (A) (A) (A) (A) (A)
                 (A) (A) (A) (A) (A) (A) (A) (A) (A) (A) (A) (A)
                 (A) (A) (A) (A) (A) (A) (A) (A) (A) (A) (A) (A)
                 (A) (A) (A) (A) (A) (A) (A) (A) (A) (A) (A) (A)
                 (A) (A) (A) (A) (A) (A) (A) (A) (A) (A) (A) (A)
                 (A) (A) (A) (A) (A) (A) (A) (A) (A) (A) (A) (A)
                 (A) (A) (A) (A) (A) (A) (A) (A) (A) (A) (A) (A)
                 (A) (A) (A) (A) (A) (A) (A) (A) (A) (A) (A) (A)
                 (A) (A) (A) (A) (A) (A) (A) (A) (A) (A) (A) (A)
                 (A) (A) (A) (A) (A) (A) (A) (A) (A) (A) (A) (A)
                 (A) (A) (A) (A) (A) (A) (A) (A) (A) (A) (A) (A)
                 (A) (A) (A) (A) (A) (A) (A) (A) (A) (A) (A) (A)
                 (A) (A) (A) (A) (A) (A) (A) (A) (A) (A) (A) (A)
                 (A) (A) (A) (A) (A) (A) (A) (A) (A) (A) (A) (A)
                 (A) (A) (A) (A) (A) (A) (A) (A) (A) (A) (A) (A)
                 (A) (A) (A) (A) (A) (A) (A) (A) (A) (A) (A) (A)
                 (A) (A) (A) (A) (A) (A) (A) (A) (A) (A) (A) (A)
                 (A) (A) (A) (A) (A) (A) (A) (A) (A) (A) (A) (A)
                 (A) (A) (A) (A) (A) (A) (A) (A) (A) (A) (A) (A)
                 (A) (A) (A) (A) (A) (A) (A) (A) (A) (A) (A) (A)
                 (A) (A) (A) (A) (A) (A) (A) (A) (A) (A) (A) (A)
                 (A) (A) (A) (A) (A) (A) (A) (A) (A) (A) (A) (A)
                 (A) (A) (A) (A) (A) (A) (A) (A) (A) (A) (A) (A)
                 (A) (A) (A) (A) (A) (A) (A) (A) (A) (A) (A) (A)
                 (A) (A) (A) (A) (A) (A) (A) (A) (A) (A) (A) (A)
                 (A) (A) (A) (A) (A) (A) (A) (A) (A) (A) (A) (A)
                 (A) (A) (A) (A) (A) (A) (A) (A) (A) (A) (A) (A)
                 (A) (A) (A) (A) (A) (A) (A) (A) (A) (A) (A) (A)
                 (A) (A) (A) (A) (A) (A) (A) (A) (A) (A) (A) (A)
                 (A) (A) (A) (A) (A) (A) (A) (A) (A) (A) (A) (A)
                 (A) (A) (A) (A) (A) (A) (A) (A) (A) (A) (A) (A)
                 (A) (A) (A) (A) (A) (A) (A) (A) (A) (A) (A) (A)
                 (A) (A) (A) (A) (A) (A) (A) (A) (A) (A) (A) (A)
                 (A) (A) (A) (A) (A) (A) (A) (A) (A) (A) (A) (A)
                 (A) (A) (A) (A) (A) (A) (A) (A) (A) (A) (A) (A)
                 (A) (A) (A) (A) (A) (A) (A) (A) (A) (A) (A) (A)
                 (A) (A) (A) (A) (A) (A) (A) (A) (A) (A) (A) (A)
                 (A) (A) (A) (A) (A) (A) (A) (A) (A) (A) (A) (A)
                 (A) (A) (A) (A) (A) (A) (A) (A) (A) (A) (A) (A)
                 (A) (A) (A) (A) (A) (A) (A) (A) (A) (A) (A) (A)
    20 initial guesses have been made.
 Convergence on wavefunction:    0.001000000000000
 Davidson Disk Diagonalization:  ConvIn= 1.00D-03 SkipCon=T Conv= 1.00D-03.
 Max sub-space:  2000 roots to seek:    20 dimension of matrix:       549360
 Iteration     1 Dimension    20 NMult     0 NNew     20
 CISAX will form    20 AO SS matrices at one time.
 NMat=    20 NSing=    20 JSym2X= 0.
 FoFJK:  IHMeth= 1 ICntrl=       0 DoSepK=T KAlg= 0 I1Cent=           0 FoldK=F
 IRaf=         1 NMat=      40 IRICut=       1 DoRegI=T DoRafI=F ISym2E= 0 IDoP0=3 IntGTp=3.
 FoFCou: FMM=T IPFlag=           0 FMFlag=      100000 FMFlg1=        2001
         NFxFlg=           0 DoJE=F BraDBF=F KetDBF=F FulRan=T
         wScrn=  0.000000 ICntrl=       500 IOpCl=  0 I1Cent=           0 NGrid=           0
         NMat0=   20 NMatS0=     20 NMatT0=    0 NMatD0=   20 NMtDS0=    0 NMtDT0=    0
 Symmetry not used in FoFCou.
 FMM levels:  10  Number of levels for PrismC:   9
 New state      1 was old state      7
 New state      2 was old state      6
 New state      3 was old state      2
 New state      4 was old state      3
 New state      5 was old state      1
 Excitation Energies [eV] at current iteration:
 Root      1 :     2.614031528346974
 Root      2 :     2.619033405314476
 Root      3 :     2.669304055208498
 Root      4 :     2.701817223106912
 Root      5 :     2.800091489301937
 Root      6 :     2.827020626720667
 Root      7 :     3.602234912650943
 Root      8 :     3.619970979387277
 Root      9 :     3.631043738877036
 Root     10 :     3.671022622398935
 Root     11 :     3.733433960082914
 Root     12 :     3.757610954018530
 Root     13 :     4.295129982899186
 Root     14 :     4.317276939579395
 Root     15 :     4.732076239012235
 Root     16 :     4.735772619793634
 Root     17 :     5.025550012346654
 Root     18 :     5.027152778439035
 Root     19 :     5.057165353916715
 Root     20 :     5.058703791049195
 Iteration     2 Dimension    30 NMult    20 NNew     10
 CISAX will form    10 AO SS matrices at one time.
 NMat=    10 NSing=    10 JSym2X= 0.
 New state      1 was old state      3
 Root      1 not converged, maximum delta is    0.155145760384921
 New state      2 was old state      4
 Root      2 not converged, maximum delta is    0.158904329874785
 New state      3 was old state      2
 Root      3 not converged, maximum delta is    0.273174836533937
 New state      4 was old state      1
 Root      4 not converged, maximum delta is    0.282911563968046
 Root      5 has converged.
 Excitation Energies [eV] at current iteration:
 Root      1 :     1.795923438844341   Change is   -0.873380616364157
 Root      2 :     1.812879900947626   Change is   -0.888937322159286
 Root      3 :     2.235329473837282   Change is   -0.383703931477194
 Root      4 :     2.239802010673033   Change is   -0.374229517673942
 Root      5 :     2.800025236909434   Change is   -0.000066252392503
 Iteration     3 Dimension    38 NMult    30 NNew      8
 CISAX will form     8 AO SS matrices at one time.
 NMat=     8 NSing=     8 JSym2X= 0.
 Root      1 not converged, maximum delta is    0.056311502975208
 Root      2 not converged, maximum delta is    0.057246004858272
 Root      3 not converged, maximum delta is    0.085740674454391
 Root      4 not converged, maximum delta is    0.085483978651638
 Root      5 has converged.
 Excitation Energies [eV] at current iteration:
 Root      1 :     1.689045119476245   Change is   -0.106878319368096
 Root      2 :     1.704215588461310   Change is   -0.108664312486316
 Root      3 :     2.194303847313613   Change is   -0.041025626523670
 Root      4 :     2.200827550979495   Change is   -0.038974459693537
 Root      5 :     2.800025236909404   Change is   -0.000000000000029
 Iteration     4 Dimension    46 NMult    38 NNew      8
 CISAX will form     8 AO SS matrices at one time.
 NMat=     8 NSing=     8 JSym2X= 0.
 Root      1 not converged, maximum delta is    0.010882980041788
 Root      2 not converged, maximum delta is    0.010867777063331
 Root      3 not converged, maximum delta is    0.010823249962657
 Root      4 not converged, maximum delta is    0.010737005309596
 Root      5 has converged.
 Excitation Energies [eV] at current iteration:
 Root      1 :     1.672289750803548   Change is   -0.016755368672697
 Root      2 :     1.687380624394615   Change is   -0.016834964066695
 Root      3 :     2.187062665062671   Change is   -0.007241182250942
 Root      4 :     2.194051298814303   Change is   -0.006776252165193
 Root      5 :     2.800025236909639   Change is    0.000000000000235
 Iteration     5 Dimension    54 NMult    46 NNew      8
 CISAX will form     8 AO SS matrices at one time.
 NMat=     8 NSing=     8 JSym2X= 0.
 Root      1 not converged, maximum delta is    0.001785955422284
 Root      2 not converged, maximum delta is    0.001798236976397
 Root      3 not converged, maximum delta is    0.002450436592125
 Root      4 not converged, maximum delta is    0.002337140087196
 Root      5 has converged.
 Excitation Energies [eV] at current iteration:
 Root      1 :     1.670527539837651   Change is   -0.001762210965897
 Root      2 :     1.685594314034970   Change is   -0.001786310359645
 Root      3 :     2.186223282401306   Change is   -0.000839382661365
 Root      4 :     2.193275753433138   Change is   -0.000775545381165
 Root      5 :     2.800025236909434   Change is   -0.000000000000205
 Iteration     6 Dimension    62 NMult    54 NNew      8
 CISAX will form     8 AO SS matrices at one time.
 NMat=     8 NSing=     8 JSym2X= 0.
 Root      1 not converged, maximum delta is    0.001109194839291
 Root      2 not converged, maximum delta is    0.001122424955473
 Root      3 not converged, maximum delta is    0.001029961560455
 Root      4 has converged.
 Root      5 has converged.
 Excitation Energies [eV] at current iteration:
 Root      1 :     1.670276555950971   Change is   -0.000250983886679
 Root      2 :     1.685337779878922   Change is   -0.000256534156047
 Root      3 :     2.186096261390568   Change is   -0.000127021010738
 Root      4 :     2.193158073945751   Change is   -0.000117679487387
 Root      5 :     2.800025236909492   Change is    0.000000000000059
 Iteration     7 Dimension    68 NMult    62 NNew      6
 CISAX will form     6 AO SS matrices at one time.
 NMat=     6 NSing=     6 JSym2X= 0.
 Root      1 has converged.
 Root      2 has converged.
 Root      3 has converged.
 Root      4 has converged.
 Root      5 has converged.
 Excitation Energies [eV] at current iteration:
 Root      1 :     1.670252193705000   Change is   -0.000024362245972
 Root      2 :     1.685313338519912   Change is   -0.000024441359011
[...]
 Alpha virt. eigenvalues --    1.83521   1.83900   1.83911   1.84168   1.84214
 Alpha virt. eigenvalues --    1.84542   1.84589   1.84804   1.84957   1.85139
 Alpha virt. eigenvalues --    1.85240   1.85377   1.85416   1.85511   1.85653
 Alpha virt. eigenvalues --    1.85913   1.86009   1.86398   1.86505   1.86666
 Alpha virt. eigenvalues --    1.86704   1.86841   1.86922   1.87045   1.87168
 Alpha virt. eigenvalues --    1.87493   1.87584   1.87775   1.87814   1.88010
 Alpha virt. eigenvalues --    1.88027   1.88182   1.88190   1.88588   1.88681
 Alpha virt. eigenvalues --    1.88949   1.88960   1.89079   1.89263   1.89681
 Alpha virt. eigenvalues --    1.89776   1.89898   1.89899   1.90201   1.90260
 Alpha virt. eigenvalues --    1.90885   1.90899   1.91434   1.91483   1.91573
 Alpha virt. eigenvalues --    1.91595   1.92189   1.92291   1.92669   1.92761
 Alpha virt. eigenvalues --    1.93122   1.93161   1.93479   1.93515   1.94321
 Alpha virt. eigenvalues --    1.94421   1.94829   1.94833   1.95603   1.95614
 Alpha virt. eigenvalues --    1.95816   1.95861   1.96059   1.96128   1.96175
 Alpha virt. eigenvalues --    1.96293   1.96489   1.96731   1.96950   1.97043
 Alpha virt. eigenvalues --    1.97543   1.97586   1.97803   1.97971   1.98171
 Alpha virt. eigenvalues --    1.98306   1.98343   1.98793   1.99082   1.99270
 Alpha virt. eigenvalues --    1.99938   1.99957   2.00732   2.00799   2.01101
 Alpha virt. eigenvalues --    2.01132   2.01520   2.01611   2.01613   2.01811
 Alpha virt. eigenvalues --    2.01829   2.01854   2.02717   2.02924   2.03147
 Alpha virt. eigenvalues --    2.03371   2.03385   2.03524   2.03540   2.03616
 Alpha virt. eigenvalues --    2.04031   2.04171   2.04991   2.05104   2.05645
 Alpha virt. eigenvalues --    2.05659   2.06223   2.06300   2.07026   2.07030
 Alpha virt. eigenvalues --    2.07315   2.07350   2.08580   2.08739   2.09011
 Alpha virt. eigenvalues --    2.09124   2.09620   2.09728   2.10921   2.11045
 Alpha virt. eigenvalues --    2.11321   2.11415   2.11536   2.11674   2.11871
 Alpha virt. eigenvalues --    2.11878   2.12471   2.12602   2.12812   2.12873
 Alpha virt. eigenvalues --    2.12948   2.12972   2.13633   2.13901   2.14257
 Alpha virt. eigenvalues --    2.14273   2.15420   2.15478   2.16057   2.16081
 Alpha virt. eigenvalues --    2.16601   2.16664   2.16887   2.17173   2.17553
 Alpha virt. eigenvalues --    2.17658   2.17842   2.17933   2.18010   2.18205
 Alpha virt. eigenvalues --    2.18456   2.18668   2.18999   2.19231   2.19777
 Alpha virt. eigenvalues --    2.19822   2.20179   2.20241   2.20341   2.20446
 Alpha virt. eigenvalues --    2.21183   2.21293   2.21767   2.21812   2.21872
 Alpha virt. eigenvalues --    2.21874   2.22708   2.22820   2.23344   2.23448
 Alpha virt. eigenvalues --    2.24426   2.24538   2.25020   2.25103   2.26431
 Alpha virt. eigenvalues --    2.26441   2.26918   2.27011   2.27202   2.27233
 Alpha virt. eigenvalues --    2.28274   2.28317   2.29408   2.29444   2.29871
 Alpha virt. eigenvalues --    2.29881   2.30589   2.30615   2.30815   2.31204
 Alpha virt. eigenvalues --    2.31214   2.31300   2.32249   2.32263   2.33238
 Alpha virt. eigenvalues --    2.33271   2.33484   2.33597   2.34142   2.34274
 Alpha virt. eigenvalues --    2.35287   2.35492   2.35913   2.35934   2.36340
 Alpha virt. eigenvalues --    2.36456   2.36493   2.36765   2.37680   2.37795
 Alpha virt. eigenvalues --    2.38399   2.38408   2.38783   2.38991   2.39670
 Alpha virt. eigenvalues --    2.39749   2.40269   2.40318   2.40620   2.40827
 Alpha virt. eigenvalues --    2.41210   2.41400   2.41698   2.41828   2.42119
 Alpha virt. eigenvalues --    2.42163   2.42831   2.43031   2.43086   2.43636
 Alpha virt. eigenvalues --    2.43981   2.44300   2.44808   2.44869   2.44983
 Alpha virt. eigenvalues --    2.45038   2.45571   2.45680   2.46293   2.46449
 Alpha virt. eigenvalues --    2.46496   2.46611   2.46794   2.46934   2.47370
 Alpha virt. eigenvalues --    2.47382   2.47850   2.47886   2.49400   2.49452
 Alpha virt. eigenvalues --    2.49895   2.50211   2.50465   2.50695   2.51251
 Alpha virt. eigenvalues --    2.51256   2.51614   2.52023   2.52388   2.52571
 Alpha virt. eigenvalues --    2.52942   2.53157   2.53972   2.54056   2.54296
 Alpha virt. eigenvalues --    2.54301   2.54798   2.54920   2.55661   2.55664
 Alpha virt. eigenvalues --    2.58007   2.58078   2.58778   2.58897   2.60285
 Alpha virt. eigenvalues --    2.60334   2.60745   2.60915   2.61819   2.61852
 Alpha virt. eigenvalues --    2.62423   2.62667   2.63087   2.63114   2.64072
 Alpha virt. eigenvalues --    2.64211   2.64378   2.64417   2.65088   2.65212
 Alpha virt. eigenvalues --    2.65850   2.65921   2.66815   2.66915   2.67046
 Alpha virt. eigenvalues --    2.67047   2.67969   2.68043   2.68812   2.68994
 Alpha virt. eigenvalues --    2.69009   2.69151   2.69526   2.69581   2.70126
 Alpha virt. eigenvalues --    2.70131   2.71048   2.71109   2.71872   2.72180
 Alpha virt. eigenvalues --    2.72465   2.72708   2.72779   2.72937   2.73277
 Alpha virt. eigenvalues --    2.73413   2.73431   2.73642   2.74488   2.74640
 Alpha virt. eigenvalues --    2.75037   2.75105   2.76504   2.76724   2.77044
 Alpha virt. eigenvalues --    2.77360   2.77597   2.77597   2.78295   2.78340
 Alpha virt. eigenvalues --    2.78671   2.78857   2.79136   2.79268   2.80261
 Alpha virt. eigenvalues --    2.80486   2.80660   2.80715   2.81129   2.81240
 Alpha virt. eigenvalues --    2.81963   2.82066   2.82314   2.82474   2.83842
 Alpha virt. eigenvalues --    2.83872   2.83874   2.83914   2.84510   2.84678
 Alpha virt. eigenvalues --    2.84865   2.85017   2.85683   2.85811   2.86631
 Alpha virt. eigenvalues --    2.87122   2.87132   2.87717   2.88234   2.88304
 Alpha virt. eigenvalues --    2.88589   2.88633   2.88852   2.89068   2.90627
 Alpha virt. eigenvalues --    2.90635   2.91045   2.91319   2.93286   2.93298
 Alpha virt. eigenvalues --    2.93750   2.94334   2.94561   2.94701   2.95447
 Alpha virt. eigenvalues --    2.95496   2.95788   2.96311   2.96353   2.96572
 Alpha virt. eigenvalues --    2.96827   2.97291   2.97940   2.98023   2.98323
 Alpha virt. eigenvalues --    2.98352   2.98490   2.98549   2.98723   2.98745
 Alpha virt. eigenvalues --    2.98898   2.99019   2.99731   2.99791   2.99975
 Alpha virt. eigenvalues --    3.00155   3.00326   3.00351   3.00588   3.00966
 Alpha virt. eigenvalues --    3.01879   3.02090   3.02121   3.02172   3.02791
 Alpha virt. eigenvalues --    3.02849   3.03101   3.03306   3.03473   3.03678
 Alpha virt. eigenvalues --    3.04025   3.04303   3.04408   3.04572   3.04680
 Alpha virt. eigenvalues --    3.04693   3.05334   3.05431   3.06137   3.06247
 Alpha virt. eigenvalues --    3.06911   3.06934   3.07912   3.08292   3.09341
 Alpha virt. eigenvalues --    3.09537   3.09827   3.10405   3.10575   3.10714
 Alpha virt. eigenvalues --    3.11456   3.11463   3.11877   3.12070   3.12274
 Alpha virt. eigenvalues --    3.12312   3.13417   3.13623   3.13671   3.13781
 Alpha virt. eigenvalues --    3.14201   3.14424   3.15971   3.16061   3.17393
 Alpha virt. eigenvalues --    3.17489   3.17871   3.18228   3.19016   3.19271
 Alpha virt. eigenvalues --    3.22416   3.22551   3.24081   3.24408   3.24795
 Alpha virt. eigenvalues --    3.25154   3.26630   3.26639   3.27367   3.27755
 Alpha virt. eigenvalues --    3.29171   3.29210   3.31352   3.31659   3.33162
 Alpha virt. eigenvalues --    3.33557   3.40202   3.40732   3.42807   3.42967
 Alpha virt. eigenvalues --    3.48665   3.48787   3.50161   3.50258   3.50813
 Alpha virt. eigenvalues --    3.51615   3.56691   3.56983   3.59239   3.59316
 Alpha virt. eigenvalues --    3.62486   3.62970   3.66110   3.66341   3.67294
 Alpha virt. eigenvalues --    3.67489   3.73382   3.73971   3.76171   3.76632
          Condensed to atoms (all electrons):
 Mulliken charges:
               1
     1  Mg   0.839223
     2  C   -0.002937
     3  C   -0.093933
     4  C   -0.045823
     5  C   -0.063989
     6  N   -0.256801
     7  C   -0.052483
     8  C   -0.014056
     9  C   -0.087060
    10  C    0.046451
    11  C    0.104837
    12  C    0.053407
    13  C   -0.071715
    14  H    0.035854
    15  N   -0.433176
    16  C    0.168632
    17  C   -0.176917
    18  C   -0.003808
    19  C    0.148862
    20  C    0.110140
    21  C    0.012550
    22  O   -0.249669
    23  C    0.062307
    24  N   -0.341177
    25  C    0.041287
    26  C   -0.028156
    27  C   -0.023924
    28  C    0.074823
    29  C    0.076218
    30  C    0.035146
    31  C   -0.004506
    32  N   -0.310416
    33  C    0.080361
    34  C   -0.169848
    35  C    0.008177
    36  C    0.082972
    37  C    0.127349
    38  C    0.045971
    39  O   -0.188960
    40  C   -0.005325
    41  C    0.212758
    42  O   -0.257045
    43  O   -0.304799
    44  C    0.157848
    45  H   -0.017619
    46  H   -0.016836
    47  H   -0.041667
    48  H    0.000686
    49  H   -0.003917
    50  H    0.025325
    51  H    0.016428
    52  H    0.016558
    53  H    0.011693
    54  H    0.044128
    55  H    0.017610
    56  H    0.018149
    57  H    0.005845
    58  H    0.026724
    59  H    0.040290
    60  H    0.037167
    61  H    0.035787
    62  H    0.032253
    63  H    0.016641
    64  H    0.009256
    65  H    0.023147
    66  H    0.012487
    67  H    0.004596
    68  H    0.006207
    69  H    0.004584
    70  H    0.008846
    71  H    0.018209
    72  H    0.029179
    73  H    0.047305
    74  H    0.009059
    75  H    0.045779
    76  H    0.034957
    77  H    0.042591
    78  H    0.046456
    79  H    0.053447
    80  Mg   0.838321
    81  C   -0.016831
    82  C   -0.087640
    83  C   -0.045440
    84  C   -0.064899
    85  N   -0.254600
    86  C   -0.049860
    87  C   -0.015148
    88  C   -0.090565
    89  C    0.045895
    90  C    0.114395
    91  C    0.062474
    92  C   -0.077824
    93  H    0.034643
    94  N   -0.423542
    95  C    0.163165
    96  C   -0.174419
    97  C   -0.007582
    98  C    0.152257
    99  C    0.099329
   100  C    0.015843
   101  O   -0.253184
   102  C    0.061014
   103  N   -0.350087
   104  C    0.037562
   105  C   -0.019823
   106  C   -0.034769
   107  C    0.088890
   108  C    0.073692
   109  C    0.034746
   110  C   -0.007694
   111  N   -0.324053
   112  C    0.078393
   113  C   -0.163261
   114  C    0.002051
   115  C    0.096196
   116  C    0.131518
   117  C    0.042233
   118  O   -0.188390
   119  C    0.000935
   120  C    0.211153
   121  O   -0.250981
   122  O   -0.305626
   123  C    0.152182
   124  H   -0.019645
   125  H   -0.015535
   126  H   -0.040608
   127  H   -0.000880
   128  H   -0.004197
   129  H    0.022318
   130  H    0.014409
   131  H    0.016213
   132  H    0.014398
   133  H    0.037671
   134  H    0.020544
   135  H    0.019805
   136  H    0.008747
   137  H    0.026084
   138  H    0.040510
   139  H    0.038101
   140  H    0.036572
   141  H    0.034612
   142  H    0.014510
   143  H    0.012230
   144  H    0.025116
   145  H    0.011581
   146  H    0.005535
   147  H    0.006144
   148  H    0.003520
   149  H    0.011017
   150  H    0.018024
   151  H    0.030276
   152  H    0.045744
   153  H    0.008481
   154  H    0.046726
   155  H    0.034843
   156  H    0.043567
   157  H    0.049567
   158  H    0.053326
 Sum of Mulliken charges =  -0.00000
 Mulliken charges with hydrogens summed into heavy atoms:
               1
     1  Mg   0.839223
     2  C   -0.002937
     3  C   -0.111552
     4  C   -0.062659
     5  C   -0.105656
     6  N   -0.256801
     7  C   -0.052483
     8  C   -0.013370
     9  C   -0.090977
    10  C    0.046451
    11  C    0.163148
    12  C    0.109228
    13  C   -0.000101
    15  N   -0.433176
    16  C    0.168632
    17  C   -0.176917
    18  C   -0.003808
    19  C    0.148862
    20  C    0.182999
    21  C    0.012550
    22  O   -0.249669
    23  C    0.167514
    24  N   -0.341177
    25  C    0.041287
    26  C   -0.011515
    27  C   -0.014668
    28  C    0.074823
    29  C    0.116449
    30  C    0.045937
    31  C    0.051728
    32  N   -0.310416
    33  C    0.080361
    34  C   -0.169848
    35  C    0.008177
    36  C    0.082972
    37  C    0.229492
    38  C    0.045971
    39  O   -0.188960
    40  C    0.029632
    41  C    0.212758
    42  O   -0.257045
    43  O   -0.304799
    44  C    0.300343
    80  Mg   0.838321
    81  C   -0.016831
    82  C   -0.107285
    83  C   -0.060974
    84  C   -0.105507
    85  N   -0.254600
    86  C   -0.049860
    87  C   -0.016028
    88  C   -0.094762
    89  C    0.045895
    90  C    0.167335
    91  C    0.114543
    92  C   -0.002832
    94  N   -0.423542
    95  C    0.163165
    96  C   -0.174419
    97  C   -0.007582
    98  C    0.152257
    99  C    0.174671
   100  C    0.015843
   101  O   -0.253184
   102  C    0.170300
   103  N   -0.350087
   104  C    0.037562
   105  C   -0.005313
   106  C   -0.022539
   107  C    0.088890
   108  C    0.115924
   109  C    0.044410
   110  C    0.051623
   111  N   -0.324053
   112  C    0.078393
   113  C   -0.163261
   114  C    0.002051
   115  C    0.096196
   116  C    0.232469
   117  C    0.042233
   118  O   -0.188390
   119  C    0.035779
   120  C    0.211153
   121  O   -0.250981
   122  O   -0.305626
   123  C    0.298642
 Electronic spatial extent (au):  <R**2>=         195582.2726
 Charge=             -0.0000 electrons
 Dipole moment (field-independent basis, Debye):
    X=              0.0696    Y=              3.1210    Z=             -0.2252  Tot=              3.1299
 Quadrupole moment (field-independent basis, Debye-Ang):
   XX=           -459.5892   YY=           -460.4249   ZZ=           -539.1145
   XY=              0.9979   XZ=             59.8886   YZ=              0.3916
 Traceless Quadrupole moment (field-independent basis, Debye-Ang):
   XX=             26.7870   YY=             25.9513   ZZ=            -52.7383
   XY=              0.9979   XZ=             59.8886   YZ=              0.3916
 Octapole moment (field-independent basis, Debye-Ang**2):
  XXX=             12.4603  YYY=            232.9534  ZZZ=             -4.0987  XYY=             -8.6162
  XXY=            245.8259  XXZ=            -19.0339  XZZ=              7.3571  YZZ=            104.2386
  YYZ=              0.0505  XYZ=            487.8150
 Hexadecapole moment (field-independent basis, Debye-Ang**3):
 XXXX=        -195720.0735 YYYY=         -32897.3665 ZZZZ=         -32558.6417 XXXY=            181.7273
 XXXZ=           3575.5178 YYYX=             13.7361 YYYZ=             28.0662 ZZZX=           3132.8837
 ZZZY=             12.8800 XXYY=         -36140.5627 XXZZ=         -40631.8024 YYZZ=         -11486.9562
 XXYZ=             46.8656 YYXZ=          -1789.9565 ZZXY=            -17.2291
 N-N= 1.370404668078D+04 E-N=-3.688940992571D+04  KE= 4.028801771185D+03
 Leave Link  601 at Sat Sep 11 22:16:47 2021, MaxMem= 23488102400 cpu:              16.3 elap:               0.8
 (Enter /sw/apps/gaussian-16.0/g16/l9999.exe)
 1\1\GINC-BP1-COMPUTE00090\SP\RCAM-B3LYP TD-FC\def2SVP\C68H72Mg2N8O8\OF
 15641\11-Sep-2021\0\\#p cam-b3lyp/Def2SVP td=(nstates=5)\\TDDFT excite
 d states in gaussian\\0,1\Mg,0,0.,0.,0.\C,0,-0.217,-2.218,2.801\C,0,-1
 .255,2.442,2.026\C,0,-0.245,1.85,-2.564\C,0,0.146,-2.824,-2.037\N,0,-0
 .617,-0.009,2.126\C,0,-0.594,-0.908,3.105\C,0,-0.936,-0.309,4.502\C,0,
 -1.773,0.964,4.032\C,0,-1.155,1.168,2.66\C,0,-3.263,0.685,3.863\C,0,0.
 345,0.11,5.299\C,0,0.124,0.397,6.787\H,0,1.168,0.033,7.733\N,0,-0.185,
 1.961,-0.152\C,0,-0.703,2.8,0.777\C,0,-0.62,4.156,0.193\C,0,-0.187,4.0
 15,-1.225\C,0,-0.214,2.583,-1.38\C,0,-0.887,5.406,0.974\C,0,0.181,5.01
 3,-2.277\O,0,0.303,4.69,-3.508\C,0,0.31,6.414,-1.837\N,0,-0.265,-0.413
 ,-2.029\C,0,-0.279,0.569,-2.937\C,0,-0.196,0.024,-4.332\C,0,0.124,-1.5
 33,-4.18\C,0,0.086,-1.632,-2.635\C,0,-1.451,0.205,-5.197\C,0,1.373,-2.
 07,-4.923\C,0,2.626,-1.49,-4.306\N,0,0.15,-2.144,0.303\C,0,0.173,-3.13
 6,-0.688\C,0,0.173,-4.438,0.004\C,0,0.133,-4.111,1.358\C,0,0.083,-2.69
 5,1.502\C,0,0.149,-5.715,-0.623\C,0,0.096,-4.629,2.716\O,0,0.208,-5.74
 7,3.221\C,0,-0.255,-3.428,3.701\C,0,0.717,-3.482,4.848\O,0,1.931,-3.25
 5,4.669\O,0,0.038,-3.556,6.003\C,0,0.943,-3.583,7.183\H,0,-1.859,3.22,
 2.497\H,0,-0.218,2.453,-3.474\H,0,0.276,-3.747,-2.605\H,0,-1.554,-0.94
 9,5.132\H,0,-1.585,1.831,4.665\H,0,-3.484,-0.377,3.969\H,0,-3.511,1.02
 7,2.858\H,0,-3.852,1.301,4.543\H,0,0.669,1.096,4.966\H,0,1.13,-0.639,5
 .189\H,0,-0.844,0.026,7.125\H,0,0.062,1.477,6.921\H,0,-1.344,5.186,1.9
 38\H,0,-1.651,5.963,0.432\H,0,0.007,6.02,1.084\H,0,-0.635,6.744,-1.405
 \H,0,0.665,6.97,-2.704\H,0,1.048,6.466,-1.036\H,0,0.608,0.501,-4.891\H
 ,0,-0.692,-2.156,-4.547\H,0,-1.267,0.74,-6.129\H,0,-2.204,0.714,-4.596
 \H,0,-1.967,-0.72,-5.453\H,0,1.356,-1.759,-5.967\H,0,1.452,-3.157,-4.9
 02\H,0,2.714,-0.522,-4.798\H,0,3.487,-2.121,-4.529\H,0,2.495,-1.303,-3
 .24\H,0,0.867,-6.333,-0.084\H,0,0.404,-5.642,-1.68\H,0,-0.891,-5.999,-
 0.463\H,0,-1.283,-3.581,4.028\H,0,0.698,-4.478,7.755\H,0,0.833,-2.619,
 7.68\H,0,2.,-3.754,6.976\Mg,0,15.75894,1.41559,1.20429\C,0,15.46601,4.
 13606,3.52643\C,0,16.6912,-0.5379,3.84046\C,0,16.46001,-0.87896,-0.871
 99\C,0,15.92471,3.78939,-1.34194\N,0,16.00867,1.85659,3.35729\C,0,15.8
 0943,2.91054,4.13437\C,0,15.90981,2.61648,5.65523\C,0,16.84157,1.31035
 ,5.58663\C,0,16.47047,0.8185,4.18911\C,0,18.32726,1.62947,5.60179\C,0,
 14.51397,2.29335,6.29495\C,0,14.49067,2.30046,7.82504\H,0,13.28994,2.7
 845,8.50062\N,0,15.99348,-0.53603,1.4777\C,0,16.35299,-1.16043,2.61882
 \C,0,16.40553,-2.59417,2.29355\C,0,16.20839,-2.74992,0.82672\C,0,16.23
 43,-1.36266,0.40849\C,0,16.54613,-3.66131,3.33991\C,0,16.03903,-3.9496
 3,-0.05544\O,0,16.12063,-3.86387,-1.33169\C,0,15.86788,-5.24293,0.6224
 7\N,0,16.34973,1.44983,-0.78873\C,0,16.53867,0.30819,-1.47349\C,0,16.6
 8864,0.57728,-2.95183\C,0,16.31818,2.12069,-3.14734\C,0,16.09481,2.516
 27,-1.67119\C,0,18.07364,0.30817,-3.53983\C,0,15.20437,2.45202,-4.1780
 3\C,0,13.87314,1.93324,-3.684\N,0,15.52374,3.55831,1.05773\C,0,15.6601
 7,4.35413,-0.10078\C,0,15.52236,5.7634,0.32038\C,0,15.33681,5.69036,1.
 70917\C,0,15.37768,4.33271,2.12705\C,0,15.62262,6.89969,-0.53103\C,0,1
 5.12627,6.45373,2.91815\O,0,14.92065,7.63995,3.17179\C,0,15.32686,5.48
 971,4.16588\C,0,14.1745,5.70416,5.10853\O,0,13.01689,5.39954,4.77124\O
 ,0,14.65347,6.02752,6.3236\C,0,13.54853,6.23937,7.29625\H,0,17.21093,-
 1.17883,4.55319\H,0,16.59692,-1.6382,-1.64548\H,0,15.86662,4.58304,-2.
 08988\H,0,16.39668,3.39043,6.23638\H,0,16.55281,0.57929,6.33731\H,0,18
 .5119,2.69147,5.53681\H,0,18.74646,1.11942,4.74437\H,0,18.8002,1.18102
 ,6.48016\H,0,14.26981,1.23966,6.10822\H,0,13.75975,2.95699,5.91899\H,0
 ,15.38617,2.77111,8.24873\H,0,14.53859,1.2673,8.17762\H,0,16.83604,-3.
 23816,4.3096\H,0,17.3993,-4.28377,3.04918\H,0,15.65871,-4.29284,3.4193
 6\H,0,16.72842,-5.43349,1.25936\H,0,15.67278,-5.96579,-0.17207\H,0,14.
 9957,-5.17917,1.28266\H,0,15.99668,-0.02577,-3.52682\H,0,17.17999,2.70
 478,-3.50225\H,0,18.05913,-0.41347,-4.37834\H,0,18.71889,-0.04413,-2.7
 4606\H,0,18.60413,1.19022,-3.89446\H,0,15.40255,1.94539,-5.12577\H,0,1
 5.11522,3.51188,-4.39191\H,0,13.89066,0.88173,-3.98584\H,0,13.0533,2.4
 6703,-4.16042\H,0,13.82155,1.96116,-2.58937\H,0,14.82207,7.57097,-0.24
 994\H,0,15.55629,6.61776,-1.57979\H,0,16.62118,7.25592,-0.2641\H,0,16.
 28354,5.74241,4.62465\H,0,13.68227,7.24001,7.71875\H,0,13.60009,5.3854
 4,7.99761\H,0,12.54106,6.30876,6.903\\Version=ES64L-G16RevA.03\State=1
 -A\HF=-4069.8118446\RMSD=6.231e-09\PG=C01 [X(C68H72Mg2N8O8)]\\@


 EVERY WORD THAT YOU WRITE IS A BLOW THAT SMITES THE DEVIL.
     -- ST. BERNARD OF CLAIRVAUX
 Job cpu time:       0 days 11 hours 25 minutes 19.2 seconds.
 Elapsed time:       0 days  0 hours 29 minutes  8.9 seconds.
 File lengths (MBytes):  RWF=  13225 Int=      0 D2E=      0 Chk=    574 Scr=      1
 Normal termination of Gaussian 16 at Sat Sep 11 22:16:48 2021.
