 Entering Gaussian System, Link 0=g16
 Initial command:
 /sw/apps/gaussian-16.0/g16/l1.exe "/tmp/Gau-265161.inp" -scrdir="/tmp/"
 Entering Link 1 = /sw/apps/gaussian-16.0/g16/l1.exe PID=    265162.
  
 Copyright (c) 1988,1990,1992,1993,1995,1998,2003,2009,2016,
            Gaussian, Inc.  All Rights Reserved.
  
 This is part of the Gaussian(R) 16 program.  It is based on
 the Gaussian(R) 09 system (copyright 2009, Gaussian, Inc.),
 the Gaussian(R) 03 system (copyright 2003, Gaussian, Inc.),
 the Gaussian(R) 98 system (copyright 1998, Gaussian, Inc.),
 the Gaussian(R) 94 system (copyright 1995, Gaussian, Inc.),
 the Gaussian 92(TM) system (copyright 1992, Gaussian, Inc.),
 the Gaussian 90(TM) system (copyright 1990, Gaussian, Inc.),
 the Gaussian 88(TM) system (copyright 1988, Gaussian, Inc.),
 the Gaussian 86(TM) system (copyright 1986, Carnegie Mellon
 University), and the Gaussian 82(TM) system (copyright 1983,
 Carnegie Mellon University). Gaussian is a federally registered
 trademark of Gaussian, Inc.
  
 This software contains proprietary and confidential information,
 including trade secrets, belonging to Gaussian, Inc.
  
 This software is provided under written license and may be
 used, copied, transmitted, or stored only in accord with that
 written license.
  
 The following legend is applicable only to US Government
 contracts under FAR:
  
                    RESTRICTED RIGHTS LEGEND
  
 Use, reproduction and disclosure by the US Government is
 subject to restrictions as set forth in subparagraphs (a)
 and (c) of the Commercial Computer Software - Restricted
 Rights clause in FAR 52.227-19.
  
 Gaussian, Inc.
 340 Quinnipiac St., Bldg. 40, Wallingford CT 06492
  
  
 ---------------------------------------------------------------
 Warning -- This program may not be used in any manner that
 competes with the business of Gaussian, Inc. or will provide
 assistance to any competitor of Gaussian, Inc.  The licensee
 of this program is prohibited from giving any competitor of
 Gaussian, Inc. access to this program.  By using this program,
 the user acknowledges that Gaussian, Inc. is engaged in the
 business of creating and licensing software in the field of
 computational chemistry and represents and warrants to the
 licensee that it is not a competitor of Gaussian, Inc. and that
 it will not use this program in any manner prohibited above.
 ---------------------------------------------------------------
  

 Cite this work as:
 Gaussian 16, Revision A.03,
 M. J. Frisch, G. W. Trucks, H. B. Schlegel, G. E. Scuseria, 
 M. A. Robb, J. R. Cheeseman, G. Scalmani, V. Barone, 
 G. A. Petersson, H. Nakatsuji, X. Li, M. Caricato, A. V. Marenich, 
 J. Bloino, B. G. Janesko, R. Gomperts, B. Mennucci, H. P. Hratchian, 
 J. V. Ortiz, A. F. Izmaylov, J. L. Sonnenberg, D. Williams-Young, 
 F. Ding, F. Lipparini, F. Egidi, J. Goings, B. Peng, A. Petrone, 
 T. Henderson, D. Ranasinghe, V. G. Zakrzewski, J. Gao, N. Rega, 
 G. Zheng, W. Liang, M. Hada, M. Ehara, K. Toyota, R. Fukuda, 
 J. Hasegawa, M. Ishida, T. Nakajima, Y. Honda, O. Kitao, H. Nakai, 
 T. Vreven, K. Throssell, J. A. Montgomery, Jr., J. E. Peralta, 
 F. Ogliaro, M. J. Bearpark, J. J. Heyd, E. N. Brothers, K. N. Kudin, 
 V. N. Staroverov, T. A. Keith, R. Kobayashi, J. Normand, 
 K. Raghavachari, A. P. Rendell, J. C. Burant, S. S. Iyengar, 
 J. Tomasi, M. Cossi, J. M. Millam, M. Klene, C. Adamo, R. Cammi, 
 J. W. Ochterski, R. L. Martin, K. Morokuma, O. Farkas, 
 J. B. Foresman, and D. J. Fox, Gaussian, Inc., Wallingford CT, 2016.
 
 ******************************************
 Gaussian 16:  ES64L-G16RevA.03 25-Dec-2016
                10-Sep-2021 
 ******************************************
 %nproc=24
 Will use up to   24 processors via shared memory.
 %mem=175gb
 -----------------------------------
 #p cam-b3lyp/Def2SVP td=(nstates=5)
 -----------------------------------
 1/38=1,172=1/1;
 2/12=2,17=6,18=5,40=1/2;
 3/5=43,7=101,11=9,25=1,30=1,74=-40/1,2,3,8;
 4//1;
 5/5=2,38=5/2;
 8/6=1,10=1,108=5/1;
 9/41=5,42=1,70=2/14;
 6/7=2,8=2,9=2,10=2/1;
 99/5=1,9=1/99;
 Leave Link    1 at Fri Sep 10 12:34:21 2021, MaxMem= 23488102400 cpu:               1.0 elap:               0.1
 (Enter /sw/apps/gaussian-16.0/g16/l101.exe)
 --------------------------------
 TDDFT excited states in gaussian
 --------------------------------
 Symbolic Z-matrix:
 Charge =  0 Multiplicity = 1
 Mg                    0.        0.        0. 
 C                    -0.217    -2.218     2.801 
 C                    -1.255     2.442     2.026 
 C                    -0.245     1.85     -2.564 
 C                     0.146    -2.824    -2.037 
 N                    -0.617    -0.009     2.126 
 C                    -0.594    -0.908     3.105 
 C                    -0.936    -0.309     4.502 
 C                    -1.773     0.964     4.032 
 C                    -1.155     1.168     2.66 
 C                    -3.263     0.685     3.863 
 C                     0.345     0.11      5.299 
 C                     0.124     0.397     6.787 
 H                     1.168     0.033     7.733 
 N                    -0.185     1.961    -0.152 
 C                    -0.703     2.8       0.777 
 C                    -0.62      4.156     0.193 
 C                    -0.187     4.015    -1.225 
 C                    -0.214     2.583    -1.38 
 C                    -0.887     5.406     0.974 
 C                     0.181     5.013    -2.277 
 O                     0.303     4.69     -3.508 
 C                     0.31      6.414    -1.837 
 N                    -0.265    -0.413    -2.029 
 C                    -0.279     0.569    -2.937 
 C                    -0.196     0.024    -4.332 
 C                     0.124    -1.533    -4.18 
 C                     0.086    -1.632    -2.635 
 C                    -1.451     0.205    -5.197 
 C                     1.373    -2.07     -4.923 
 C                     2.626    -1.49     -4.306 
 N                     0.15     -2.144     0.303 
 C                     0.173    -3.136    -0.688 
 C                     0.173    -4.438     0.004 
 C                     0.133    -4.111     1.358 
 C                     0.083    -2.695     1.502 
 C                     0.149    -5.715    -0.623 
 C                     0.096    -4.629     2.716 
 O                     0.208    -5.747     3.221 
 C                    -0.255    -3.428     3.701 
 C                     0.717    -3.482     4.848 
 O                     1.931    -3.255     4.669 
 O                     0.038    -3.556     6.003 
 C                     0.943    -3.583     7.183 
 H                    -1.859     3.22      2.497 
 H                    -0.218     2.453    -3.474 
 H                     0.276    -3.747    -2.605 
 H                    -1.554    -0.949     5.132 
 H                    -1.585     1.831     4.665 
 H                    -3.484    -0.377     3.969 
 H                    -3.511     1.027     2.858 
 H                    -3.852     1.301     4.543 
 H                     0.669     1.096     4.966 
 H                     1.13     -0.639     5.189 
 H                    -0.844     0.026     7.125 
 H                     0.062     1.477     6.921 
 H                    -1.344     5.186     1.938 
 H                    -1.651     5.963     0.432 
 H                     0.007     6.02      1.084 
 H                    -0.635     6.744    -1.405 
 H                     0.665     6.97     -2.704 
 H                     1.048     6.466    -1.036 
 H                     0.608     0.501    -4.891 
 H                    -0.692    -2.156    -4.547 
 H                    -1.267     0.74     -6.129 
 H                    -2.204     0.714    -4.596 
 H                    -1.967    -0.72     -5.453 
 H                     1.356    -1.759    -5.967 
 H                     1.452    -3.157    -4.902 
 H                     2.714    -0.522    -4.798 
 H                     3.487    -2.121    -4.529 
 H                     2.495    -1.303    -3.24 
 H                     0.867    -6.333    -0.084 
 H                     0.404    -5.642    -1.68 
 H                    -0.891    -5.999    -0.463 
 H                    -1.283    -3.581     4.028 
 H                     0.698    -4.478     7.755 
 H                     0.833    -2.619     7.68 
 H                     2.       -3.754     6.976 
 Mg                    10.51894   0.94206   0.79303 
 C                     10.37005   2.85119  -2.24212 
 C                     10.03139  -1.84497  -1.11205 
 C                     10.19523  -0.71608   3.47878 
 C                     9.85281   3.89517   2.51962 
 N                     10.25019   0.66709  -1.38513 
 C                     10.27351   1.45896  -2.44662 
 C                     10.2694   0.71135  -3.80699 
 C                     9.5914   -0.66212  -3.32452 
 C                     10.00893  -0.63801  -1.85559 
 C                     8.07334  -0.63941  -3.39002 
 C                     11.7174   0.47305  -4.36244 
 C                     11.77987   0.02742  -5.82507 
 H                     12.88911   0.49887  -6.64955 
 N                     10.65358  -1.01061   1.12092 
 C                     10.44526  -2.00176   0.22902 
 C                     10.6478  -3.25739   0.9683 
 C                     10.8309  -2.92957   2.40834 
 C                     10.53992  -1.50998   2.39459 
 C                     10.73323  -4.59497   0.29229 
 C                     11.19372  -3.75922   3.60259 
 O                     11.06372  -3.313     4.79709 
 C                     11.61713  -5.14171   3.33627 
 N                     9.87886   1.46076   2.70185 
 C                     9.88422   0.56109   3.7011 
 C                     9.64802   1.22684   5.03578 
 C                     9.72387   2.79873   4.75122 
 C                     9.91028   2.7697    3.21831 
 C                     8.32063   0.8969    5.71811 
 C                     10.73011   3.62035   5.60275 
 C                     12.14661   3.23043   5.24654 
 N                     10.3533   3.03603   0.28714 
 C                     10.04238   4.10224   1.15927 
 C                     9.93068   5.32193   0.33325 
 C                     10.1635   4.87306  -0.97549 
 C                     10.38341   3.46911  -0.96825 
 C                     9.60108   6.62208   0.80981 
 C                     10.26273   5.26592  -2.36276 
 O                     10.25408   6.33906  -2.96446 
 C                     10.27569   3.95388  -3.25985 
 C                     11.39396   4.08425  -4.25734 
 O                     12.57837   4.11125  -3.87909 
 O                     10.89646   3.93702  -5.49878 
 C                     11.96941   4.04732  -6.52271 
 H                     9.65721  -2.75308  -1.58556 
 H                     10.17923  -1.22155   4.44714 
 H                     9.7444    4.87243   2.9949 
 H                     9.66458   1.17391  -4.57771 
 H                     10.02926  -1.51813  -3.83137 
 H                     7.69545   0.34104  -3.63913 
 H                     7.732    -0.93804  -2.40749 
 H                     7.71427  -1.40809  -4.08033 
 H                     12.14553  -0.41363  -3.87743 
 H                     12.32685   1.34484  -4.22396 
 H                     10.8249   0.17812  -6.34302 
 H                     11.93161  -1.05437  -5.85205 
 H                     10.39666  -4.54094  -0.7504 
 H                     10.0012  -5.24735   0.78054 
 H                     11.7232  -5.04798   0.37841 
 H                     10.82344  -5.66763   2.81098 
 H                     11.92016  -5.5461    4.30401 
 H                     12.48015  -5.11946   2.6615 
 H                     10.4232   0.96004   5.74359 
 H                     8.76042   3.29418   4.94129 
 H                     8.44479   0.47374   6.7328 
 H                     7.77235   0.21202   5.08496 
 H                     7.62813   1.73197   5.80926 
 H                     10.60294   3.3923    6.66387 
 H                     10.61769   4.69331   5.48821 
 H                     12.31412   2.33227   5.84849 
 H                     12.84166   4.02255   5.51762 
 H                     12.22142   2.9394    4.19233 
 H                     10.2722   7.31343   0.31776 
 H                     9.68993   6.68303   1.89248 
 H                     8.56163   6.69351   0.47859 
 H                     9.3015    3.87876  -3.74449 
 H                     11.66581   4.83416  -7.22013 
 H                     12.09403   3.0287   -6.93577 
 H                     12.9362   4.41392  -6.19811 
 
 ITRead=  0  0  0  0  0  0  0  0  0  0  0  0  0  0  0  0  0  0  0  0
 ITRead=  0  0  0  0  0  0  0  0  0  0  0  0  0  0  0  0  0  0  0  0
 ITRead=  0  0  0  0  0  0  0  0  0  0  0  0  0  0  0  0  0  0  0  0
 ITRead=  0  0  0  0  0  0  0  0  0  0  0  0  0  0  0  0  0  0  0  0
 ITRead=  0  0  0  0  0  0  0  0  0  0  0  0  0  0  0  0  0  0  0  0
 ITRead=  0  0  0  0  0  0  0  0  0  0  0  0  0  0  0  0  0  0  0  0
 ITRead=  0  0  0  0  0  0  0  0  0  0  0  0  0  0  0  0  0  0  0  0
 ITRead=  0  0  0  0  0  0  0  0  0  0  0  0  0  0  0  0  0  0
 MicOpt= -1 -1 -1 -1 -1 -1 -1 -1 -1 -1 -1 -1 -1 -1 -1 -1 -1 -1 -1 -1
 MicOpt= -1 -1 -1 -1 -1 -1 -1 -1 -1 -1 -1 -1 -1 -1 -1 -1 -1 -1 -1 -1
 MicOpt= -1 -1 -1 -1 -1 -1 -1 -1 -1 -1 -1 -1 -1 -1 -1 -1 -1 -1 -1 -1
 MicOpt= -1 -1 -1 -1 -1 -1 -1 -1 -1 -1 -1 -1 -1 -1 -1 -1 -1 -1 -1 -1
 MicOpt= -1 -1 -1 -1 -1 -1 -1 -1 -1 -1 -1 -1 -1 -1 -1 -1 -1 -1 -1 -1
 MicOpt= -1 -1 -1 -1 -1 -1 -1 -1 -1 -1 -1 -1 -1 -1 -1 -1 -1 -1 -1 -1
 MicOpt= -1 -1 -1 -1 -1 -1 -1 -1 -1 -1 -1 -1 -1 -1 -1 -1 -1 -1 -1 -1
 MicOpt= -1 -1 -1 -1 -1 -1 -1 -1 -1 -1 -1 -1 -1 -1 -1 -1 -1 -1
 NAtoms=    158 NQM=      158 NQMF=       0 NMMI=      0 NMMIF=      0
                NMic=       0 NMicF=      0.
                    Isotopes and Nuclear Properties:
 (Nuclear quadrupole moments (NQMom) in fm**2, nuclear magnetic moments (NMagM)
  in nuclear magnetons)

  Atom         1           2           3           4           5           6           7           8           9          10
 IAtWgt=          24          12          12          12          12          14          12          12          12          12
 AtmWgt=  23.9850450  12.0000000  12.0000000  12.0000000  12.0000000  14.0030740  12.0000000  12.0000000  12.0000000  12.0000000
 NucSpn=           0           0           0           0           0           2           0           0           0           0
 AtZEff=  -0.0000000  -0.0000000  -0.0000000  -0.0000000  -0.0000000  -0.0000000  -0.0000000  -0.0000000  -0.0000000  -0.0000000
 NQMom=    0.0000000   0.0000000   0.0000000   0.0000000   0.0000000   2.0440000   0.0000000   0.0000000   0.0000000   0.0000000
 NMagM=    0.0000000   0.0000000   0.0000000   0.0000000   0.0000000   0.4037610   0.0000000   0.0000000   0.0000000   0.0000000
 AtZNuc=  12.0000000   6.0000000   6.0000000   6.0000000   6.0000000   7.0000000   6.0000000   6.0000000   6.0000000   6.0000000

  Atom        11          12          13          14          15          16          17          18          19          20
 IAtWgt=          12          12          12           1          14          12          12          12          12          12
 AtmWgt=  12.0000000  12.0000000  12.0000000   1.0078250  14.0030740  12.0000000  12.0000000  12.0000000  12.0000000  12.0000000
 NucSpn=           0           0           0           1           2           0           0           0           0           0
 AtZEff=  -0.0000000  -0.0000000  -0.0000000  -0.0000000  -0.0000000  -0.0000000  -0.0000000  -0.0000000  -0.0000000  -0.0000000
 NQMom=    0.0000000   0.0000000   0.0000000   0.0000000   2.0440000   0.0000000   0.0000000   0.0000000   0.0000000   0.0000000
 NMagM=    0.0000000   0.0000000   0.0000000   2.7928460   0.4037610   0.0000000   0.0000000   0.0000000   0.0000000   0.0000000
 AtZNuc=   6.0000000   6.0000000   6.0000000   1.0000000   7.0000000   6.0000000   6.0000000   6.0000000   6.0000000   6.0000000

  Atom        21          22          23          24          25          26          27          28          29          30
 IAtWgt=          12          16          12          14          12          12          12          12          12          12
 AtmWgt=  12.0000000  15.9949146  12.0000000  14.0030740  12.0000000  12.0000000  12.0000000  12.0000000  12.0000000  12.0000000
 NucSpn=           0           0           0           2           0           0           0           0           0           0
 AtZEff=  -0.0000000  -0.0000000  -0.0000000  -0.0000000  -0.0000000  -0.0000000  -0.0000000  -0.0000000  -0.0000000  -0.0000000
 NQMom=    0.0000000   0.0000000   0.0000000   2.0440000   0.0000000   0.0000000   0.0000000   0.0000000   0.0000000   0.0000000
 NMagM=    0.0000000   0.0000000   0.0000000   0.4037610   0.0000000   0.0000000   0.0000000   0.0000000   0.0000000   0.0000000
 AtZNuc=   6.0000000   8.0000000   6.0000000   7.0000000   6.0000000   6.0000000   6.0000000   6.0000000   6.0000000   6.0000000

  Atom        31          32          33          34          35          36          37          38          39          40
 IAtWgt=          12          14          12          12          12          12          12          12          16          12
 AtmWgt=  12.0000000  14.0030740  12.0000000  12.0000000  12.0000000  12.0000000  12.0000000  12.0000000  15.9949146  12.0000000
 NucSpn=           0           2           0           0           0           0           0           0           0           0
 AtZEff=  -0.0000000  -0.0000000  -0.0000000  -0.0000000  -0.0000000  -0.0000000  -0.0000000  -0.0000000  -0.0000000  -0.0000000
 NQMom=    0.0000000   2.0440000   0.0000000   0.0000000   0.0000000   0.0000000   0.0000000   0.0000000   0.0000000   0.0000000
 NMagM=    0.0000000   0.4037610   0.0000000   0.0000000   0.0000000   0.0000000   0.0000000   0.0000000   0.0000000   0.0000000
 AtZNuc=   6.0000000   7.0000000   6.0000000   6.0000000   6.0000000   6.0000000   6.0000000   6.0000000   8.0000000   6.0000000

  Atom        41          42          43          44          45          46          47          48          49          50
 IAtWgt=          12          16          16          12           1           1           1           1           1           1
 AtmWgt=  12.0000000  15.9949146  15.9949146  12.0000000   1.0078250   1.0078250   1.0078250   1.0078250   1.0078250   1.0078250
 NucSpn=           0           0           0           0           1           1           1           1           1           1
 AtZEff=  -0.0000000  -0.0000000  -0.0000000  -0.0000000  -0.0000000  -0.0000000  -0.0000000  -0.0000000  -0.0000000  -0.0000000
 NQMom=    0.0000000   0.0000000   0.0000000   0.0000000   0.0000000   0.0000000   0.0000000   0.0000000   0.0000000   0.0000000
 NMagM=    0.0000000   0.0000000   0.0000000   0.0000000   2.7928460   2.7928460   2.7928460   2.7928460   2.7928460   2.7928460
 AtZNuc=   6.0000000   8.0000000   8.0000000   6.0000000   1.0000000   1.0000000   1.0000000   1.0000000   1.0000000   1.0000000

  Atom        51          52          53          54          55          56          57          58          59          60
 IAtWgt=           1           1           1           1           1           1           1           1           1           1
 AtmWgt=   1.0078250   1.0078250   1.0078250   1.0078250   1.0078250   1.0078250   1.0078250   1.0078250   1.0078250   1.0078250
 NucSpn=           1           1           1           1           1           1           1           1           1           1
 AtZEff=  -0.0000000  -0.0000000  -0.0000000  -0.0000000  -0.0000000  -0.0000000  -0.0000000  -0.0000000  -0.0000000  -0.0000000
 NQMom=    0.0000000   0.0000000   0.0000000   0.0000000   0.0000000   0.0000000   0.0000000   0.0000000   0.0000000   0.0000000
 NMagM=    2.7928460   2.7928460   2.7928460   2.7928460   2.7928460   2.7928460   2.7928460   2.7928460   2.7928460   2.7928460
 AtZNuc=   1.0000000   1.0000000   1.0000000   1.0000000   1.0000000   1.0000000   1.0000000   1.0000000   1.0000000   1.0000000

  Atom        61          62          63          64          65          66          67          68          69          70
 IAtWgt=           1           1           1           1           1           1           1           1           1           1
 AtmWgt=   1.0078250   1.0078250   1.0078250   1.0078250   1.0078250   1.0078250   1.0078250   1.0078250   1.0078250   1.0078250
 NucSpn=           1           1           1           1           1           1           1           1           1           1
 AtZEff=  -0.0000000  -0.0000000  -0.0000000  -0.0000000  -0.0000000  -0.0000000  -0.0000000  -0.0000000  -0.0000000  -0.0000000
 NQMom=    0.0000000   0.0000000   0.0000000   0.0000000   0.0000000   0.0000000   0.0000000   0.0000000   0.0000000   0.0000000
 NMagM=    2.7928460   2.7928460   2.7928460   2.7928460   2.7928460   2.7928460   2.7928460   2.7928460   2.7928460   2.7928460
 AtZNuc=   1.0000000   1.0000000   1.0000000   1.0000000   1.0000000   1.0000000   1.0000000   1.0000000   1.0000000   1.0000000

  Atom        71          72          73          74          75          76          77          78          79          80
 IAtWgt=           1           1           1           1           1           1           1           1           1          24
 AtmWgt=   1.0078250   1.0078250   1.0078250   1.0078250   1.0078250   1.0078250   1.0078250   1.0078250   1.0078250  23.9850450
 NucSpn=           1           1           1           1           1           1           1           1           1           0
 AtZEff=  -0.0000000  -0.0000000  -0.0000000  -0.0000000  -0.0000000  -0.0000000  -0.0000000  -0.0000000  -0.0000000  -0.0000000
 NQMom=    0.0000000   0.0000000   0.0000000   0.0000000   0.0000000   0.0000000   0.0000000   0.0000000   0.0000000   0.0000000
 NMagM=    2.7928460   2.7928460   2.7928460   2.7928460   2.7928460   2.7928460   2.7928460   2.7928460   2.7928460   0.0000000
 AtZNuc=   1.0000000   1.0000000   1.0000000   1.0000000   1.0000000   1.0000000   1.0000000   1.0000000   1.0000000  12.0000000

  Atom        81          82          83          84          85          86          87          88          89          90
 IAtWgt=          12          12          12          12          14          12          12          12          12          12
 AtmWgt=  12.0000000  12.0000000  12.0000000  12.0000000  14.0030740  12.0000000  12.0000000  12.0000000  12.0000000  12.0000000
 NucSpn=           0           0           0           0           2           0           0           0           0           0
 AtZEff=  -0.0000000  -0.0000000  -0.0000000  -0.0000000  -0.0000000  -0.0000000  -0.0000000  -0.0000000  -0.0000000  -0.0000000
 NQMom=    0.0000000   0.0000000   0.0000000   0.0000000   2.0440000   0.0000000   0.0000000   0.0000000   0.0000000   0.0000000
 NMagM=    0.0000000   0.0000000   0.0000000   0.0000000   0.4037610   0.0000000   0.0000000   0.0000000   0.0000000   0.0000000
 AtZNuc=   6.0000000   6.0000000   6.0000000   6.0000000   7.0000000   6.0000000   6.0000000   6.0000000   6.0000000   6.0000000

  Atom        91          92          93          94          95          96          97          98          99         100
 IAtWgt=          12          12           1          14          12          12          12          12          12          12
 AtmWgt=  12.0000000  12.0000000   1.0078250  14.0030740  12.0000000  12.0000000  12.0000000  12.0000000  12.0000000  12.0000000
 NucSpn=           0           0           1           2           0           0           0           0           0           0
 AtZEff=  -0.0000000  -0.0000000  -0.0000000  -0.0000000  -0.0000000  -0.0000000  -0.0000000  -0.0000000  -0.0000000  -0.0000000
 NQMom=    0.0000000   0.0000000   0.0000000   2.0440000   0.0000000   0.0000000   0.0000000   0.0000000   0.0000000   0.0000000
 NMagM=    0.0000000   0.0000000   2.7928460   0.4037610   0.0000000   0.0000000   0.0000000   0.0000000   0.0000000   0.0000000
 AtZNuc=   6.0000000   6.0000000   1.0000000   7.0000000   6.0000000   6.0000000   6.0000000   6.0000000   6.0000000   6.0000000

  Atom       101         102         103         104         105         106         107         108         109         110
 IAtWgt=          16          12          14          12          12          12          12          12          12          12
 AtmWgt=  15.9949146  12.0000000  14.0030740  12.0000000  12.0000000  12.0000000  12.0000000  12.0000000  12.0000000  12.0000000
 NucSpn=           0           0           2           0           0           0           0           0           0           0
 AtZEff=  -0.0000000  -0.0000000  -0.0000000  -0.0000000  -0.0000000  -0.0000000  -0.0000000  -0.0000000  -0.0000000  -0.0000000
 NQMom=    0.0000000   0.0000000   2.0440000   0.0000000   0.0000000   0.0000000   0.0000000   0.0000000   0.0000000   0.0000000
 NMagM=    0.0000000   0.0000000   0.4037610   0.0000000   0.0000000   0.0000000   0.0000000   0.0000000   0.0000000   0.0000000
 AtZNuc=   8.0000000   6.0000000   7.0000000   6.0000000   6.0000000   6.0000000   6.0000000   6.0000000   6.0000000   6.0000000

  Atom       111         112         113         114         115         116         117         118         119         120
 IAtWgt=          14          12          12          12          12          12          12          16          12          12
 AtmWgt=  14.0030740  12.0000000  12.0000000  12.0000000  12.0000000  12.0000000  12.0000000  15.9949146  12.0000000  12.0000000
 NucSpn=           2           0           0           0           0           0           0           0           0           0
 AtZEff=  -0.0000000  -0.0000000  -0.0000000  -0.0000000  -0.0000000  -0.0000000  -0.0000000  -0.0000000  -0.0000000  -0.0000000
 NQMom=    2.0440000   0.0000000   0.0000000   0.0000000   0.0000000   0.0000000   0.0000000   0.0000000   0.0000000   0.0000000
 NMagM=    0.4037610   0.0000000   0.0000000   0.0000000   0.0000000   0.0000000   0.0000000   0.0000000   0.0000000   0.0000000
 AtZNuc=   7.0000000   6.0000000   6.0000000   6.0000000   6.0000000   6.0000000   6.0000000   8.0000000   6.0000000   6.0000000

  Atom       121         122         123         124         125         126         127         128         129         130
 IAtWgt=          16          16          12           1           1           1           1           1           1           1
 AtmWgt=  15.9949146  15.9949146  12.0000000   1.0078250   1.0078250   1.0078250   1.0078250   1.0078250   1.0078250   1.0078250
 NucSpn=           0           0           0           1           1           1           1           1           1           1
 AtZEff=  -0.0000000  -0.0000000  -0.0000000  -0.0000000  -0.0000000  -0.0000000  -0.0000000  -0.0000000  -0.0000000  -0.0000000
 NQMom=    0.0000000   0.0000000   0.0000000   0.0000000   0.0000000   0.0000000   0.0000000   0.0000000   0.0000000   0.0000000
 NMagM=    0.0000000   0.0000000   0.0000000   2.7928460   2.7928460   2.7928460   2.7928460   2.7928460   2.7928460   2.7928460
 AtZNuc=   8.0000000   8.0000000   6.0000000   1.0000000   1.0000000   1.0000000   1.0000000   1.0000000   1.0000000   1.0000000

  Atom       131         132         133         134         135         136         137         138         139         140
 IAtWgt=           1           1           1           1           1           1           1           1           1           1
 AtmWgt=   1.0078250   1.0078250   1.0078250   1.0078250   1.0078250   1.0078250   1.0078250   1.0078250   1.0078250   1.0078250
 NucSpn=           1           1           1           1           1           1           1           1           1           1
 AtZEff=  -0.0000000  -0.0000000  -0.0000000  -0.0000000  -0.0000000  -0.0000000  -0.0000000  -0.0000000  -0.0000000  -0.0000000
 NQMom=    0.0000000   0.0000000   0.0000000   0.0000000   0.0000000   0.0000000   0.0000000   0.0000000   0.0000000   0.0000000
 NMagM=    2.7928460   2.7928460   2.7928460   2.7928460   2.7928460   2.7928460   2.7928460   2.7928460   2.7928460   2.7928460
 AtZNuc=   1.0000000   1.0000000   1.0000000   1.0000000   1.0000000   1.0000000   1.0000000   1.0000000   1.0000000   1.0000000

  Atom       141         142         143         144         145         146         147         148         149         150
 IAtWgt=           1           1           1           1           1           1           1           1           1           1
 AtmWgt=   1.0078250   1.0078250   1.0078250   1.0078250   1.0078250   1.0078250   1.0078250   1.0078250   1.0078250   1.0078250
 NucSpn=           1           1           1           1           1           1           1           1           1           1
 AtZEff=  -0.0000000  -0.0000000  -0.0000000  -0.0000000  -0.0000000  -0.0000000  -0.0000000  -0.0000000  -0.0000000  -0.0000000
 NQMom=    0.0000000   0.0000000   0.0000000   0.0000000   0.0000000   0.0000000   0.0000000   0.0000000   0.0000000   0.0000000
 NMagM=    2.7928460   2.7928460   2.7928460   2.7928460   2.7928460   2.7928460   2.7928460   2.7928460   2.7928460   2.7928460
 AtZNuc=   1.0000000   1.0000000   1.0000000   1.0000000   1.0000000   1.0000000   1.0000000   1.0000000   1.0000000   1.0000000

  Atom       151         152         153         154         155         156         157         158
 IAtWgt=           1           1           1           1           1           1           1           1
 AtmWgt=   1.0078250   1.0078250   1.0078250   1.0078250   1.0078250   1.0078250   1.0078250   1.0078250
 NucSpn=           1           1           1           1           1           1           1           1
 AtZEff=  -0.0000000  -0.0000000  -0.0000000  -0.0000000  -0.0000000  -0.0000000  -0.0000000  -0.0000000
 NQMom=    0.0000000   0.0000000   0.0000000   0.0000000   0.0000000   0.0000000   0.0000000   0.0000000
 NMagM=    2.7928460   2.7928460   2.7928460   2.7928460   2.7928460   2.7928460   2.7928460   2.7928460
 AtZNuc=   1.0000000   1.0000000   1.0000000   1.0000000   1.0000000   1.0000000   1.0000000   1.0000000
 Leave Link  101 at Fri Sep 10 12:34:21 2021, MaxMem= 23488102400 cpu:               5.8 elap:               0.2
 (Enter /sw/apps/gaussian-16.0/g16/l202.exe)
 Stoichiometry    C68H72Mg2N8O8
 Framework group  C1[X(C68H72Mg2N8O8)]
 Deg. of freedom   468
 Full point group                 C1      NOp   1
 Largest Abelian subgroup         C1      NOp   1
 Largest concise Abelian subgroup C1      NOp   1
                         Standard orientation:                         
 ---------------------------------------------------------------------
 Center     Atomic      Atomic             Coordinates (Angstroms)
 Number     Number       Type             X           Y           Z
 ---------------------------------------------------------------------
      1         12           0        5.033641   -1.342911   -0.068580
      2          6           0        6.136066    2.041929   -0.442380
      3          6           0        6.059380   -1.161339    3.180721
      4          6           0        4.490206   -4.458597    0.163364
      5          6           0        5.156212   -1.610830   -3.541166
      6          7           0        5.962853    0.288694    1.104057
      7          6           0        6.278138    1.556760    0.859569
      8          6           0        6.702985    2.344664    2.134750
      9          6           0        7.176485    1.121047    3.040597
     10          6           0        6.323671    0.022767    2.430338
     11          6           0        8.647076    0.760298    2.856957
     12          6           0        5.503361    3.110330    2.787734
     13          6           0        5.889679    4.157727    3.836101
     14          1           0        5.103339    5.378529    3.929168
     15          7           0        4.785227   -2.485031    1.524123
     16          6           0        5.257811   -2.248992    2.771614
     17          6           0        4.807639   -3.388002    3.600277
     18          6           0        4.197373   -4.398322    2.692025
     19          6           0        4.493931   -3.825336    1.403957
     20          6           0        4.930106   -3.418746    5.092861
     21          6           0        3.472590   -5.682477    2.944549
     22          8           0        3.229370   -6.521218    2.010776
     23          6           0        3.128273   -5.977641    4.347177
     24          7           0        5.058487   -2.896375   -1.462770
     25          6           0        4.728492   -4.144081   -1.111605
     26          6           0        4.543072   -5.019233   -2.315626
     27          6           0        4.577940   -4.044696   -3.580069
     28          6           0        4.875755   -2.714678   -2.844795
     29          6           0        5.583536   -6.132464   -2.500458
     30          6           0        3.365967   -4.099410   -4.543681
     31          6           0        2.132224   -3.570475   -3.847118
     32          7           0        5.377049    0.007489   -1.732772
     33          6           0        5.404513   -0.323430   -3.095275
     34          6           0        5.780215    0.898960   -3.829222
     35          6           0        5.962555    1.858118   -2.834932
     36          6           0        5.741966    1.265380   -1.558886
     37          6           0        5.968440    1.001798   -5.235789
     38          6           0        6.316474    3.239647   -2.552129
     39          8           0        6.516976    4.241688   -3.240028
     40          6           0        6.561962    3.383340   -0.985312
     41          6           0        5.812722    4.601234   -0.517678
     42          8           0        4.565255    4.630866   -0.535435
     43          8           0        6.663910    5.439309    0.093591
     44          6           0        5.978986    6.655307    0.607773
     45          1           0        6.556238   -1.298197    4.143188
     46          1           0        4.198266   -5.510509    0.189657
     47          1           0        5.132014   -1.596996   -4.632347
     48          1           0        7.529888    3.039184    1.985425
     49          1           0        6.915105    1.265563    4.088699
     50          1           0        9.095605    1.321485    2.037315
     51          1           0        8.659716   -0.307763    2.638830
     52          1           0        9.195338    0.881761    3.791533
     53          1           0        4.935588    2.421943    3.413688
     54          1           0        4.881918    3.577738    2.023101
     55          1           0        6.953881    4.391217    3.792909
     56          1           0        5.748254    3.720091    4.824369
     57          1           0        5.567093   -2.614585    5.459082
     58          1           0        5.469172   -4.330508    5.349388
     59          1           0        3.957206   -3.416200    5.584584
     60          1           0        4.040674   -6.007161    4.943164
     61          1           0        2.535814   -6.891627    4.325433
     62          1           0        2.529384   -5.157327    4.743871
     63          1           0        3.581070   -5.529115   -2.284043
     64          1           0        5.437289   -4.238663   -4.222385
     65          1           0        5.150477   -7.131388   -2.558040
     66          1           0        6.299947   -6.063376   -1.682367
     67          1           0        6.232479   -6.012210   -3.367539
     68          1           0        3.155734   -5.129229   -4.830425
     69          1           0        3.516559   -3.524797   -5.457679
     70          1           0        1.771384   -4.439385   -3.297916
     71          1           0        1.395470   -3.237594   -4.578961
     72          1           0        2.386410   -2.804351   -3.114363
     73          1           0        5.485898    1.930208   -5.541037
     74          1           0        5.542363    0.144250   -5.756051
     75          1           0        7.056568    1.026295   -5.292647
     76          1           0        7.637566    3.485319   -0.844601
     77          1           0        6.488953    7.517187    0.177272
     78          1           0        5.964363    6.566690    1.694207
     79          1           0        4.960724    6.820889    0.254130
     80         12           0       -5.199193    1.378505    0.149313
     81          6           0       -5.921060   -2.136805    0.173462
     82          6           0       -4.451587    1.050329   -3.162478
     83          6           0       -4.126818    4.364333    0.197412
     84          6           0       -4.894184    1.198424    3.616335
     85          7           0       -5.222364   -0.368744   -1.206711
     86          6           0       -5.573212   -1.641537   -1.100570
     87          6           0       -5.627392   -2.408386   -2.449107
     88          6           0       -4.614603   -1.488366   -3.289763
     89          6           0       -4.794067   -0.173443   -2.533829
     90          6           0       -3.162850   -1.918785   -3.161442
     91          6           0       -7.063855   -2.406578   -3.080443
     92          6           0       -7.260423   -3.392325   -4.234324
     93          1           0       -8.557548   -4.047858   -4.376408
     94          7           0       -4.876432    2.651285   -1.338779
     95          6           0       -4.610218    2.347159   -2.626373
     96          6           0       -4.432368    3.634704   -3.315403
     97          6           0       -4.452332    4.718868   -2.296140
     98          6           0       -4.465424    3.934767   -1.077490
     99          6           0       -4.345038    3.752879   -4.809329
    100          6           0       -4.446083    6.213934   -2.400676
    101          8           0       -4.226173    6.959276   -1.381388
    102          6           0       -4.612207    6.777597   -3.748329
    103          7           0       -4.390094    2.561982    1.654998
    104          6           0       -4.054473    3.843054    1.422300
    105          6           0       -3.755285    4.571277    2.710928
    106          6           0       -4.196310    3.573719    3.880518
    107          6           0       -4.609283    2.352809    3.029496
    108          6           0       -2.298665    4.985679    2.918113
    109          6           0       -5.204823    4.119637    4.928162
    110          6           0       -6.548613    4.355313    4.276949
    111          7           0       -5.548810   -0.120304    1.665694
    112          6           0       -5.331898    0.005488    3.055374
    113          6           0       -5.603632   -1.314885    3.659695
    114          6           0       -5.940134   -2.129623    2.568156
    115          6           0       -5.862612   -1.375764    1.366001
    116          6           0       -5.478440   -1.639704    5.039896
    117          6           0       -6.332988   -3.458703    2.158379
    118          8           0       -6.639176   -4.494470    2.747599
    119          6           0       -6.215345   -3.555180    0.576216
    120          6           0       -7.477977   -4.184167    0.054059
    121          8           0       -8.568879   -3.597307    0.164316
    122          8           0       -7.160475   -5.267379   -0.678198
    123          6           0       -8.379313   -5.919390   -1.226958
    124          1           0       -3.977026    1.014643   -4.143500
    125          1           0       -3.856478    5.419337    0.283203
    126          1           0       -4.916456    1.085488    4.702350
    127          1           0       -5.258321   -3.426167   -2.408060
    128          1           0       -4.940485   -1.382715   -4.321272
    129          1           0       -3.038299   -2.702895   -2.429461
    130          1           0       -2.618540   -1.032456   -2.862769
    131          1           0       -2.765355   -2.200903   -4.140593
    132          1           0       -7.219480   -1.459841   -3.613548
    133          1           0       -7.810446   -2.576187   -2.329139
    134          1           0       -6.449516   -4.128720   -4.290010
    135          1           0       -7.188655   -2.842890   -5.176128
    136          1           0       -4.193454    2.774638   -5.282052
    137          1           0       -3.427508    4.307783   -5.033107
    138          1           0       -5.194847    4.286740   -5.240018
    139          1           0       -3.819049    6.408750   -4.394330
    140          1           0       -4.670982    7.858642   -3.607739
    141          1           0       -5.555707    6.410333   -4.167302
    142          1           0       -4.339024    5.480520    2.785810
    143          1           0       -3.337820    3.255845    4.490259
    144          1           0       -2.173452    6.072275    3.084565
    145          1           0       -1.726704    4.664379    2.057777
    146          1           0       -1.787233    4.482131    3.736699
    147          1           0       -4.869703    5.088073    5.307611
    148          1           0       -5.334813    3.465841    5.784114
    149          1           0       -6.431865    5.342809    3.820532
    150          1           0       -7.340852    4.356422    5.022865
    151          1           0       -6.725273    3.637042    3.467918
    152          1           0       -6.345734   -2.231697    5.300332
    153          1           0       -5.408124   -0.744475    5.654228
    154          1           0       -4.540510   -2.201215    5.023823
    155          1           0       -5.334218   -4.156585    0.349298
    156          1           0       -8.356554   -6.964173   -0.902006
    157          1           0       -8.354497   -5.730130   -2.316591
    158          1           0       -9.338197   -5.597695   -0.837733
 ---------------------------------------------------------------------
 Rotational constants (GHZ):           0.0207491           0.0114314           0.0099610
 Leave Link  202 at Fri Sep 10 12:34:21 2021, MaxMem= 23488102400 cpu:               0.2 elap:               0.0
 (Enter /sw/apps/gaussian-16.0/g16/l301.exe)
 Standard basis: def2SVP (5D, 7F)
 Ernie: Thresh=  0.10000D-02 Tol=  0.10000D-05 Strict=F.
 There are  1658 symmetry adapted cartesian basis functions of A   symmetry.
 There are  1572 symmetry adapted basis functions of A   symmetry.
  1572 basis functions,  2678 primitive gaussians,  1658 cartesian basis functions
   312 alpha electrons      312 beta electrons
       nuclear repulsion energy     14928.9310676262 Hartrees.
 IExCor=20419 DFT=T Ex+Corr=CAM-B3LYP ExCW=0 ScaHFX=  1.000000
 ScaDFX=  1.000000  1.000000  1.000000  0.810000 ScalE2=  1.000000  1.000000
 IRadAn=      5 IRanWt=     -1 IRanGd=            0 ICorTp=0 IEmpDi=  4
 HFx  wShort=  0.000000 wLong=  0.330000 cFull=  0.190000 cShort=  0.000000 cLong=  0.460000
 DFx  wShort=  0.000000 wLong=  0.330000 cFull=  0.190000 cShort=  0.000000 cLong=  0.460000
 NAtoms=  158 NActive=  158 NUniq=  158 SFac= 1.00D+00 NAtFMM=   60 NAOKFM=T Big=T
 Integral buffers will be    131072 words long.
 Raffenetti 1 integral format.
 Two-electron integral symmetry is turned on.
 Leave Link  301 at Fri Sep 10 12:34:21 2021, MaxMem= 23488102400 cpu:               1.3 elap:               0.1
 (Enter /sw/apps/gaussian-16.0/g16/l302.exe)
 NPDir=0 NMtPBC=     1 NCelOv=     1 NCel=       1 NClECP=     1 NCelD=      1
         NCelK=      1 NCelE2=     1 NClLst=     1 CellRange=     0.0.
 One-electron integrals computed using PRISM.
 One-electron integral symmetry used in STVInt
   1 Symmetry operations used in ECPInt.
 ECPInt:  NShTT=  271216 NPrTT=  987664 LenC2=  137431 LenP2D=  286573.
 LDataN:  DoStor=T MaxTD1= 4 Len=   56
 NBasis=  1572 RedAO= T EigKep=  3.36D-04  NBF=  1572
 NBsUse=  1572 1.00D-06 EigRej= -1.00D+00 NBFU=  1572
 Precomputing XC quadrature grid using
 IXCGrd= 4 IRadAn=           5 IRanWt=          -1 IRanGd=           0 AccXCQ= 0.00D+00.
 Generated NRdTot=       0 NPtTot=           0 NUsed=           0 NTot=          32
 NSgBfM=  1093  1079  1084  1086  1093 MxSgAt=   158 MxSgA2=   157.
 Leave Link  302 at Fri Sep 10 12:34:26 2021, MaxMem= 23488102400 cpu:             117.7 elap:               4.9
 (Enter /sw/apps/gaussian-16.0/g16/l303.exe)
 DipDrv:  MaxL=1.
 Leave Link  303 at Fri Sep 10 12:34:27 2021, MaxMem= 23488102400 cpu:              10.4 elap:               0.5
 (Enter /sw/apps/gaussian-16.0/g16/l308.exe)
 Leave Link  308 at Fri Sep 10 12:34:27 2021, MaxMem= 23488102400 cpu:              14.9 elap:               0.7
 (Enter /sw/apps/gaussian-16.0/g16/l401.exe)
 ExpMin= 3.36D-02 ExpMax= 4.95D+03 ExpMxC= 7.45D+02 IAcc=3 IRadAn=         5 AccDes= 0.00D+00
 Harris functional with IExCor=20419 and IRadAn=       5 diagonalized for initial guess.
 HarFok:  IExCor=20419 AccDes= 0.00D+00 IRadAn=         5 IDoV= 1 UseB2=F ITyADJ=14
 ICtDFT=  3500011 ScaDFX=  1.000000  1.000000  1.000000  1.000000
 FoFCou: FMM=F IPFlag=           0 FMFlag=      100000 FMFlg1=        2001
         NFxFlg=           0 DoJE=T BraDBF=F KetDBF=T FulRan=T
         wScrn=  0.000000 ICntrl=       500 IOpCl=  0 I1Cent=   200000004 NGrid=           0
         NMat0=    1 NMatS0=      1 NMatT0=    0 NMatD0=    1 NMtDS0=    0 NMtDT0=    0
 Petite list used in FoFCou.
 Harris En= -3918.65798912078    
 JPrj=0 DoOrth=F DoCkMO=F.
 Leave Link  401 at Fri Sep 10 12:34:35 2021, MaxMem= 23488102400 cpu:             177.5 elap:               7.4
 (Enter /sw/apps/gaussian-16.0/g16/l502.exe)
 Integral symmetry usage will be decided dynamically.
 Closed shell SCF:
 Using DIIS extrapolation, IDIIS=  1040.
 NGot= 23488102400 LenX= 23482547354 LenY= 23479796732
 Requested convergence on RMS density matrix=1.00D-08 within 128 cycles.
 Requested convergence on MAX density matrix=1.00D-06.
 Requested convergence on             energy=1.00D-06.
 No special actions if energy rises.
 Fock matrices will be formed incrementally for  20 cycles.

 Cycle   1  Pass 1  IDiag  1:
 FoFJK:  IHMeth= 1 ICntrl=       0 DoSepK=T KAlg= 0 I1Cent=           0 FoldK=F
 IRaf=         1 NMat=       1 IRICut=       1 DoRegI=T DoRafI=F ISym2E= 0 IDoP0=0 IntGTp=1.
 FoFCou: FMM=T IPFlag=           0 FMFlag=      100000 FMFlg1=        2001
         NFxFlg=           0 DoJE=T BraDBF=F KetDBF=F FulRan=T
         wScrn=  0.000000 ICntrl=       500 IOpCl=  0 I1Cent=           0 NGrid=           0
         NMat0=    1 NMatS0=      1 NMatT0=    0 NMatD0=    1 NMtDS0=    0 NMtDT0=    0
 Symmetry not used in FoFCou.
 FMM levels:  10  Number of levels for PrismC:   9
 E= -4068.94968987637    
 DIIS: error= 2.04D-02 at cycle   1 NSaved=   1.
 NSaved= 1 IEnMin= 1 EnMin= -4068.94968987637     IErMin= 1 ErrMin= 2.04D-02
 ErrMax= 2.04D-02  0.00D+00 EMaxC= 1.00D-01 BMatC= 1.69D+00 BMatP= 1.69D+00
 IDIUse=3 WtCom= 7.96D-01 WtEn= 2.04D-01
 Coeff-Com:  0.100D+01
 Coeff-En:   0.100D+01
 Coeff:      0.100D+01
 Gap=     0.121 Goal=   None    Shift=    0.000
 GapD=    0.121 DampG=1.000 DampE=0.500 DampFc=0.5000 IDamp=-1.
 Damping current iteration by 5.00D-01
 RMSDP=1.57D-03 MaxDP=1.35D-01              OVMax= 1.98D-01

 Cycle   2  Pass 1  IDiag  1:
 RMSU=  7.68D-04    CP:  9.82D-01
 E= -4069.33880008807     Delta-E=       -0.389110211701 Rises=F Damp=T
 DIIS: error= 1.27D-02 at cycle   2 NSaved=   2.
 NSaved= 2 IEnMin= 2 EnMin= -4069.33880008807     IErMin= 2 ErrMin= 1.27D-02
 ErrMax= 1.27D-02  0.00D+00 EMaxC= 1.00D-01 BMatC= 3.06D-01 BMatP= 1.69D+00
 IDIUse=3 WtCom= 8.73D-01 WtEn= 1.27D-01
 Coeff-Com: -0.214D+00 0.121D+01
 Coeff-En:   0.000D+00 0.100D+01
 Coeff:     -0.187D+00 0.119D+01
 Gap=     0.134 Goal=   None    Shift=    0.000
 RMSDP=7.63D-04 MaxDP=9.46D-02 DE=-3.89D-01 OVMax= 1.84D-01

 Cycle   3  Pass 1  IDiag  1:
 RMSU=  7.29D-04    CP:  9.68D-01  1.24D+00
 E= -4069.63014927821     Delta-E=       -0.291349190138 Rises=F Damp=F
 DIIS: error= 1.57D-02 at cycle   3 NSaved=   3.
 NSaved= 3 IEnMin= 3 EnMin= -4069.63014927821     IErMin= 2 ErrMin= 1.27D-02
 ErrMax= 1.57D-02  0.00D+00 EMaxC= 1.00D-01 BMatC= 2.00D-01 BMatP= 3.06D-01
 IDIUse=3 WtCom= 8.43D-01 WtEn= 1.57D-01
 Coeff-Com: -0.267D+00 0.651D+00 0.616D+00
 Coeff-En:   0.000D+00 0.000D+00 0.100D+01
 Coeff:     -0.225D+00 0.548D+00 0.677D+00
 Gap=     0.122 Goal=   None    Shift=    0.000
 RMSDP=5.02D-04 MaxDP=4.71D-02 DE=-2.91D-01 OVMax= 1.34D-01

 Cycle   4  Pass 1  IDiag  1:
 RMSU=  2.62D-04    CP:  9.65D-01  1.55D+00  5.10D-01
 E= -4069.76675309324     Delta-E=       -0.136603815030 Rises=F Damp=F
 DIIS: error= 7.27D-03 at cycle   4 NSaved=   4.
 NSaved= 4 IEnMin= 4 EnMin= -4069.76675309324     IErMin= 4 ErrMin= 7.27D-03
 ErrMax= 7.27D-03  0.00D+00 EMaxC= 1.00D-01 BMatC= 4.92D-02 BMatP= 2.00D-01
 IDIUse=3 WtCom= 9.27D-01 WtEn= 7.27D-02
 Coeff-Com: -0.108D+00 0.224D+00 0.407D+00 0.477D+00
 Coeff-En:   0.000D+00 0.000D+00 0.215D+00 0.785D+00
 Coeff:     -0.100D+00 0.208D+00 0.393D+00 0.499D+00
 Gap=     0.121 Goal=   None    Shift=    0.000
 RMSDP=1.94D-04 MaxDP=2.00D-02 DE=-1.37D-01 OVMax= 5.56D-02

 Cycle   5  Pass 1  IDiag  1:
 RMSU=  7.32D-05    CP:  9.64D-01  1.49D+00  6.90D-01  5.59D-01
 E= -4069.81061292694     Delta-E=       -0.043859833699 Rises=F Damp=F
 DIIS: error= 8.27D-04 at cycle   5 NSaved=   5.
 NSaved= 5 IEnMin= 5 EnMin= -4069.81061292694     IErMin= 5 ErrMin= 8.27D-04
 ErrMax= 8.27D-04  0.00D+00 EMaxC= 1.00D-01 BMatC= 1.04D-03 BMatP= 4.92D-02
 IDIUse=3 WtCom= 9.92D-01 WtEn= 8.27D-03
 Coeff-Com: -0.339D-01 0.664D-01 0.158D+00 0.243D+00 0.566D+00
 Coeff-En:   0.000D+00 0.000D+00 0.000D+00 0.000D+00 0.100D+01
 Coeff:     -0.337D-01 0.659D-01 0.157D+00 0.241D+00 0.570D+00
 Gap=     0.120 Goal=   None    Shift=    0.000
 RMSDP=3.72D-05 MaxDP=4.14D-03 DE=-4.39D-02 OVMax= 1.38D-02

 Cycle   6  Pass 1  IDiag  1:
 RMSU=  2.84D-05    CP:  9.64D-01  1.50D+00  6.83D-01  6.25D-01  7.88D-01
 E= -4069.81147361073     Delta-E=       -0.000860683791 Rises=F Damp=F
 DIIS: error= 2.51D-04 at cycle   6 NSaved=   6.
 NSaved= 6 IEnMin= 6 EnMin= -4069.81147361073     IErMin= 6 ErrMin= 2.51D-04
 ErrMax= 2.51D-04  0.00D+00 EMaxC= 1.00D-01 BMatC= 1.56D-04 BMatP= 1.04D-03
 IDIUse=3 WtCom= 9.97D-01 WtEn= 2.51D-03
 Coeff-Com:  0.268D-02-0.745D-02 0.880D-02 0.369D-01 0.307D+00 0.652D+00
 Coeff-En:   0.000D+00 0.000D+00 0.000D+00 0.000D+00 0.855D-01 0.914D+00
 Coeff:      0.267D-02-0.743D-02 0.878D-02 0.368D-01 0.307D+00 0.652D+00
 Gap=     0.121 Goal=   None    Shift=    0.000
 RMSDP=1.42D-05 MaxDP=1.32D-03 DE=-8.61D-04 OVMax= 6.46D-03

 Cycle   7  Pass 1  IDiag  1:
 RMSU=  9.79D-06    CP:  9.64D-01  1.50D+00  6.88D-01  6.26D-01  8.77D-01
                    CP:  7.67D-01
 E= -4069.81163490681     Delta-E=       -0.000161296080 Rises=F Damp=F
 DIIS: error= 7.83D-05 at cycle   7 NSaved=   7.
 NSaved= 7 IEnMin= 7 EnMin= -4069.81163490681     IErMin= 7 ErrMin= 7.83D-05
 ErrMax= 7.83D-05  0.00D+00 EMaxC= 1.00D-01 BMatC= 1.61D-05 BMatP= 1.56D-04
 IDIUse=1 WtCom= 1.00D+00 WtEn= 0.00D+00
 Coeff-Com:  0.432D-02-0.938D-02-0.929D-02-0.526D-02 0.922D-01 0.312D+00
 Coeff-Com:  0.615D+00
 Coeff:      0.432D-02-0.938D-02-0.929D-02-0.526D-02 0.922D-01 0.312D+00
 Coeff:      0.615D+00
 Gap=     0.121 Goal=   None    Shift=    0.000
 RMSDP=6.07D-06 MaxDP=1.20D-03 DE=-1.61D-04 OVMax= 3.37D-03

 Cycle   8  Pass 1  IDiag  1:
 RMSU=  4.43D-06    CP:  9.64D-01  1.50D+00  6.89D-01  6.31D-01  8.87D-01
                    CP:  8.93D-01  8.61D-01
 E= -4069.81165485949     Delta-E=       -0.000019952677 Rises=F Damp=F
 DIIS: error= 4.28D-05 at cycle   8 NSaved=   8.
 NSaved= 8 IEnMin= 8 EnMin= -4069.81165485949     IErMin= 8 ErrMin= 4.28D-05
 ErrMax= 4.28D-05  0.00D+00 EMaxC= 1.00D-01 BMatC= 4.19D-06 BMatP= 1.61D-05
 IDIUse=1 WtCom= 1.00D+00 WtEn= 0.00D+00
 Coeff-Com:  0.203D-02-0.399D-02-0.749D-02-0.121D-01-0.157D-01 0.315D-01
 Coeff-Com:  0.362D+00 0.644D+00
 Coeff:      0.203D-02-0.399D-02-0.749D-02-0.121D-01-0.157D-01 0.315D-01
 Coeff:      0.362D+00 0.644D+00
 Gap=     0.121 Goal=   None    Shift=    0.000
 RMSDP=3.10D-06 MaxDP=3.72D-04 DE=-2.00D-05 OVMax= 1.33D-03

 Cycle   9  Pass 1  IDiag  1:
 RMSU=  1.86D-06    CP:  9.64D-01  1.50D+00  6.90D-01  6.32D-01  9.02D-01
                    CP:  9.17D-01  1.06D+00  9.01D-01
 E= -4069.81166157388     Delta-E=       -0.000006714392 Rises=F Damp=F
 DIIS: error= 2.20D-05 at cycle   9 NSaved=   9.
 NSaved= 9 IEnMin= 9 EnMin= -4069.81166157388     IErMin= 9 ErrMin= 2.20D-05
 ErrMax= 2.20D-05  0.00D+00 EMaxC= 1.00D-01 BMatC= 6.35D-07 BMatP= 4.19D-06
 IDIUse=1 WtCom= 1.00D+00 WtEn= 0.00D+00
 Coeff-Com:  0.448D-03-0.743D-03-0.259D-02-0.587D-02-0.224D-01-0.350D-01
 Coeff-Com:  0.112D+00 0.332D+00 0.622D+00
 Coeff:      0.448D-03-0.743D-03-0.259D-02-0.587D-02-0.224D-01-0.350D-01
 Coeff:      0.112D+00 0.332D+00 0.622D+00
 Gap=     0.121 Goal=   None    Shift=    0.000
 RMSDP=1.36D-06 MaxDP=1.71D-04 DE=-6.71D-06 OVMax= 8.27D-04

 Cycle  10  Pass 1  IDiag  1:
 RMSU=  9.18D-07    CP:  9.64D-01  1.50D+00  6.90D-01  6.33D-01  9.05D-01
                    CP:  9.32D-01  1.10D+00  1.07D+00  1.01D+00
 E= -4069.81166300905     Delta-E=       -0.000001435168 Rises=F Damp=F
 DIIS: error= 1.15D-05 at cycle  10 NSaved=  10.
 NSaved=10 IEnMin=10 EnMin= -4069.81166300905     IErMin=10 ErrMin= 1.15D-05
 ErrMax= 1.15D-05  0.00D+00 EMaxC= 1.00D-01 BMatC= 1.60D-07 BMatP= 6.35D-07
 IDIUse=1 WtCom= 1.00D+00 WtEn= 0.00D+00
 Coeff-Com: -0.416D-03 0.871D-03 0.120D-02 0.111D-02-0.425D-02-0.301D-01
 Coeff-Com: -0.522D-01-0.662D-01 0.279D+00 0.871D+00
 Coeff:     -0.416D-03 0.871D-03 0.120D-02 0.111D-02-0.425D-02-0.301D-01
 Coeff:     -0.522D-01-0.662D-01 0.279D+00 0.871D+00
 Gap=     0.121 Goal=   None    Shift=    0.000
 RMSDP=1.16D-06 MaxDP=1.43D-04 DE=-1.44D-06 OVMax= 5.68D-04

 Cycle  11  Pass 1  IDiag  1:
 RMSU=  5.00D-07    CP:  9.64D-01  1.50D+00  6.90D-01  6.33D-01  9.08D-01
                    CP:  9.42D-01  1.16D+00  1.18D+00  1.34D+00  1.32D+00
 E= -4069.81166372096     Delta-E=       -0.000000711916 Rises=F Damp=F
 DIIS: error= 3.89D-06 at cycle  11 NSaved=  11.
 NSaved=11 IEnMin=11 EnMin= -4069.81166372096     IErMin=11 ErrMin= 3.89D-06
 ErrMax= 3.89D-06  0.00D+00 EMaxC= 1.00D-01 BMatC= 5.29D-08 BMatP= 1.60D-07
 IDIUse=1 WtCom= 1.00D+00 WtEn= 0.00D+00
 Coeff-Com: -0.321D-03 0.625D-03 0.130D-02 0.210D-02 0.414D-02-0.860D-02
 Coeff-Com: -0.499D-01-0.128D+00-0.126D-02 0.456D+00 0.724D+00
 Coeff:     -0.321D-03 0.625D-03 0.130D-02 0.210D-02 0.414D-02-0.860D-02
 Coeff:     -0.499D-01-0.128D+00-0.126D-02 0.456D+00 0.724D+00
 Gap=     0.121 Goal=   None    Shift=    0.000
 RMSDP=6.38D-07 MaxDP=5.08D-05 DE=-7.12D-07 OVMax= 3.38D-04

 Cycle  12  Pass 1  IDiag  1:
 RMSU=  2.56D-07    CP:  9.64D-01  1.50D+00  6.90D-01  6.33D-01  9.08D-01
                    CP:  9.45D-01  1.18D+00  1.24D+00  1.50D+00  1.69D+00
                    CP:  1.18D+00
 E= -4069.81166395248     Delta-E=       -0.000000231521 Rises=F Damp=F
 DIIS: error= 3.04D-06 at cycle  12 NSaved=  12.
 NSaved=12 IEnMin=12 EnMin= -4069.81166395248     IErMin=12 ErrMin= 3.04D-06
 ErrMax= 3.04D-06  0.00D+00 EMaxC= 1.00D-01 BMatC= 1.20D-08 BMatP= 5.29D-08
 IDIUse=1 WtCom= 1.00D+00 WtEn= 0.00D+00
 Coeff-Com: -0.382D-05-0.835D-05 0.186D-03 0.527D-03 0.317D-02 0.404D-02
 Coeff-Com:  0.788D-03-0.368D-01-0.650D-01-0.668D-01 0.249D+00 0.911D+00
 Coeff:     -0.382D-05-0.835D-05 0.186D-03 0.527D-03 0.317D-02 0.404D-02
 Coeff:      0.788D-03-0.368D-01-0.650D-01-0.668D-01 0.249D+00 0.911D+00
 Gap=     0.121 Goal=   None    Shift=    0.000
 RMSDP=4.20D-07 MaxDP=2.69D-05 DE=-2.32D-07 OVMax= 2.77D-04

 Cycle  13  Pass 1  IDiag  1:
 RMSU=  1.67D-07    CP:  9.64D-01  1.50D+00  6.90D-01  6.33D-01  9.09D-01
                    CP:  9.45D-01  1.19D+00  1.27D+00  1.61D+00  1.91D+00
                    CP:  1.59D+00  1.24D+00
 E= -4069.81166403384     Delta-E=       -0.000000081352 Rises=F Damp=F
 DIIS: error= 1.93D-06 at cycle  13 NSaved=  13.
 NSaved=13 IEnMin=13 EnMin= -4069.81166403384     IErMin=13 ErrMin= 1.93D-06
 ErrMax= 1.93D-06  0.00D+00 EMaxC= 1.00D-01 BMatC= 8.42D-09 BMatP= 1.20D-08
 IDIUse=1 WtCom= 1.00D+00 WtEn= 0.00D+00
 Coeff-Com:  0.115D-03-0.235D-03-0.347D-03-0.416D-03 0.627D-03 0.538D-02
 Coeff-Com:  0.205D-01 0.191D-01-0.423D-01-0.232D+00-0.146D+00 0.648D+00
 Coeff-Com:  0.728D+00
 Coeff:      0.115D-03-0.235D-03-0.347D-03-0.416D-03 0.627D-03 0.538D-02
 Coeff:      0.205D-01 0.191D-01-0.423D-01-0.232D+00-0.146D+00 0.648D+00
 Coeff:      0.728D+00
 Gap=     0.121 Goal=   None    Shift=    0.000
 RMSDP=3.08D-07 MaxDP=1.83D-05 DE=-8.14D-08 OVMax= 1.62D-04

 Cycle  14  Pass 1  IDiag  1:
 RMSU=  7.94D-08    CP:  9.64D-01  1.50D+00  6.90D-01  6.33D-01  9.09D-01
                    CP:  9.46D-01  1.19D+00  1.29D+00  1.68D+00  2.08D+00
                    CP:  1.83D+00  1.75D+00  1.03D+00
 E= -4069.81166406782     Delta-E=       -0.000000033982 Rises=F Damp=F
 DIIS: error= 1.23D-06 at cycle  14 NSaved=  14.
 NSaved=14 IEnMin=14 EnMin= -4069.81166406782     IErMin=14 ErrMin= 1.23D-06
 ErrMax= 1.23D-06  0.00D+00 EMaxC= 1.00D-01 BMatC= 1.16D-09 BMatP= 8.42D-09
 IDIUse=1 WtCom= 1.00D+00 WtEn= 0.00D+00
 Coeff-Com:  0.692D-04-0.137D-03-0.254D-03-0.395D-03-0.495D-03 0.168D-02
 Coeff-Com:  0.124D-01 0.193D-01-0.170D-02-0.106D+00-0.153D+00 0.139D+00
 Coeff-Com:  0.371D+00 0.719D+00
 Coeff:      0.692D-04-0.137D-03-0.254D-03-0.395D-03-0.495D-03 0.168D-02
 Coeff:      0.124D-01 0.193D-01-0.170D-02-0.106D+00-0.153D+00 0.139D+00
 Coeff:      0.371D+00 0.719D+00
 Gap=     0.121 Goal=   None    Shift=    0.000
 RMSDP=1.10D-07 MaxDP=7.15D-06 DE=-3.40D-08 OVMax= 7.81D-05

 Cycle  15  Pass 1  IDiag  1:
 RMSU=  3.93D-08    CP:  9.64D-01  1.50D+00  6.90D-01  6.33D-01  9.09D-01
                    CP:  9.46D-01  1.20D+00  1.30D+00  1.70D+00  2.13D+00
                    CP:  1.94D+00  1.91D+00  1.27D+00  9.89D-01
 E= -4069.81166407220     Delta-E=       -0.000000004384 Rises=F Damp=F
 DIIS: error= 5.40D-07 at cycle  15 NSaved=  15.
 NSaved=15 IEnMin=15 EnMin= -4069.81166407220     IErMin=15 ErrMin= 5.40D-07
 ErrMax= 5.40D-07  0.00D+00 EMaxC= 1.00D-01 BMatC= 3.16D-10 BMatP= 1.16D-09
 IDIUse=1 WtCom= 1.00D+00 WtEn= 0.00D+00
 Coeff-Com:  0.119D-04-0.217D-04-0.564D-04-0.119D-03-0.368D-03-0.323D-03
 Coeff-Com:  0.239D-02 0.474D-02 0.875D-02-0.625D-02-0.483D-01-0.488D-01
 Coeff-Com:  0.236D-01 0.378D+00 0.687D+00
 Coeff:      0.119D-04-0.217D-04-0.564D-04-0.119D-03-0.368D-03-0.323D-03
 Coeff:      0.239D-02 0.474D-02 0.875D-02-0.625D-02-0.483D-01-0.488D-01
 Coeff:      0.236D-01 0.378D+00 0.687D+00
 Gap=     0.121 Goal=   None    Shift=    0.000
 RMSDP=3.91D-08 MaxDP=3.14D-06 DE=-4.38D-09 OVMax= 2.14D-05

 Cycle  16  Pass 1  IDiag  1:
 RMSU=  1.89D-08    CP:  9.64D-01  1.50D+00  6.90D-01  6.33D-01  9.09D-01
                    CP:  9.46D-01  1.20D+00  1.30D+00  1.70D+00  2.15D+00
                    CP:  1.97D+00  1.97D+00  1.33D+00  1.21D+00  1.12D+00
 E= -4069.81166407302     Delta-E=       -0.000000000815 Rises=F Damp=F
 DIIS: error= 1.59D-07 at cycle  16 NSaved=  16.
 NSaved=16 IEnMin=16 EnMin= -4069.81166407302     IErMin=16 ErrMin= 1.59D-07
 ErrMax= 1.59D-07  0.00D+00 EMaxC= 1.00D-01 BMatC= 7.69D-11 BMatP= 3.16D-10
 IDIUse=1 WtCom= 1.00D+00 WtEn= 0.00D+00
 Coeff-Com: -0.131D-04 0.266D-04 0.425D-04 0.462D-04-0.486D-04-0.641D-03
 Coeff-Com: -0.205D-02-0.368D-02 0.558D-02 0.244D-01 0.155D-01-0.593D-01
 Coeff-Com: -0.996D-01 0.182D-01 0.328D+00 0.774D+00
 Coeff:     -0.131D-04 0.266D-04 0.425D-04 0.462D-04-0.486D-04-0.641D-03
 Coeff:     -0.205D-02-0.368D-02 0.558D-02 0.244D-01 0.155D-01-0.593D-01
 Coeff:     -0.996D-01 0.182D-01 0.328D+00 0.774D+00
 Gap=     0.121 Goal=   None    Shift=    0.000
 RMSDP=2.59D-08 MaxDP=2.23D-06 DE=-8.15D-10 OVMax= 1.79D-05

 Cycle  17  Pass 1  IDiag  1:
 RMSU=  1.22D-08    CP:  9.64D-01  1.50D+00  6.90D-01  6.33D-01  9.09D-01
                    CP:  9.46D-01  1.20D+00  1.30D+00  1.70D+00  2.15D+00
                    CP:  1.98D+00  2.01D+00  1.38D+00  1.31D+00  1.42D+00
                    CP:  1.19D+00
 E= -4069.81166407339     Delta-E=       -0.000000000371 Rises=F Damp=F
 DIIS: error= 1.01D-07 at cycle  17 NSaved=  17.
 NSaved=17 IEnMin=17 EnMin= -4069.81166407339     IErMin=17 ErrMin= 1.01D-07
 ErrMax= 1.01D-07  0.00D+00 EMaxC= 1.00D-01 BMatC= 2.54D-11 BMatP= 7.69D-11
 IDIUse=1 WtCom= 1.00D+00 WtEn= 0.00D+00
 Coeff-Com: -0.919D-05 0.181D-04 0.352D-04 0.509D-04 0.786D-04-0.226D-03
 Coeff-Com: -0.147D-02-0.328D-02 0.127D-02 0.134D-01 0.200D-01-0.133D-01
 Coeff-Com: -0.583D-01-0.806D-01-0.528D-01 0.395D+00 0.780D+00
 Coeff:     -0.919D-05 0.181D-04 0.352D-04 0.509D-04 0.786D-04-0.226D-03
 Coeff:     -0.147D-02-0.328D-02 0.127D-02 0.134D-01 0.200D-01-0.133D-01
 Coeff:     -0.583D-01-0.806D-01-0.528D-01 0.395D+00 0.780D+00
 Gap=     0.121 Goal=   None    Shift=    0.000
 RMSDP=1.43D-08 MaxDP=8.86D-07 DE=-3.71D-10 OVMax= 7.82D-06

 Cycle  18  Pass 1  IDiag  1:
 RMSU=  5.59D-09    CP:  9.64D-01  1.50D+00  6.90D-01  6.33D-01  9.09D-01
                    CP:  9.46D-01  1.20D+00  1.30D+00  1.70D+00  2.15D+00
                    CP:  1.98D+00  2.02D+00  1.40D+00  1.38D+00  1.59D+00
                    CP:  1.59D+00  1.30D+00
 E= -4069.81166407341     Delta-E=       -0.000000000022 Rises=F Damp=F
 DIIS: error= 8.01D-08 at cycle  18 NSaved=  18.
 NSaved=18 IEnMin=18 EnMin= -4069.81166407341     IErMin=18 ErrMin= 8.01D-08
 ErrMax= 8.01D-08  0.00D+00 EMaxC= 1.00D-01 BMatC= 7.32D-12 BMatP= 2.54D-11
 IDIUse=1 WtCom= 1.00D+00 WtEn= 0.00D+00
 Coeff-Com:  0.135D-06-0.631D-06 0.255D-05 0.829D-05 0.693D-04 0.133D-03
 Coeff-Com:  0.974D-04-0.481D-03-0.116D-02-0.316D-02 0.365D-02 0.174D-01
 Coeff-Com:  0.563D-02-0.385D-01-0.159D+00-0.670D-01 0.344D+00 0.898D+00
 Coeff:      0.135D-06-0.631D-06 0.255D-05 0.829D-05 0.693D-04 0.133D-03
 Coeff:      0.974D-04-0.481D-03-0.116D-02-0.316D-02 0.365D-02 0.174D-01
 Coeff:      0.563D-02-0.385D-01-0.159D+00-0.670D-01 0.344D+00 0.898D+00
 Gap=     0.121 Goal=   None    Shift=    0.000
 RMSDP=1.09D-08 MaxDP=8.61D-07 DE=-2.18D-11 OVMax= 6.80D-06

 Cycle  19  Pass 1  IDiag  1:
 RMSU=  3.25D-09    CP:  9.64D-01  1.50D+00  6.90D-01  6.33D-01  9.09D-01
                    CP:  9.46D-01  1.20D+00  1.30D+00  1.70D+00  2.15D+00
                    CP:  1.99D+00  2.02D+00  1.41D+00  1.42D+00  1.73D+00
                    CP:  1.85D+00  1.80D+00  1.22D+00
 E= -4069.81166407340     Delta-E=        0.000000000007 Rises=F Damp=F
 DIIS: error= 3.24D-08 at cycle  19 NSaved=  19.
 NSaved=19 IEnMin=18 EnMin= -4069.81166407341     IErMin=19 ErrMin= 3.24D-08
 ErrMax= 3.24D-08  0.00D+00 EMaxC= 1.00D-01 BMatC= 3.04D-12 BMatP= 7.32D-12
 IDIUse=1 WtCom= 1.00D+00 WtEn= 0.00D+00
 Coeff-Com:  0.345D-05-0.700D-05-0.114D-04-0.138D-04 0.189D-04 0.164D-03
 Coeff-Com:  0.628D-03 0.878D-03-0.105D-02-0.717D-02-0.532D-02 0.165D-01
 Coeff-Com:  0.246D-01 0.817D-02-0.890D-01-0.196D+00-0.105D+00 0.566D+00
 Coeff-Com:  0.787D+00
 Coeff:      0.345D-05-0.700D-05-0.114D-04-0.138D-04 0.189D-04 0.164D-03
 Coeff:      0.628D-03 0.878D-03-0.105D-02-0.717D-02-0.532D-02 0.165D-01
 Coeff:      0.246D-01 0.817D-02-0.890D-01-0.196D+00-0.105D+00 0.566D+00
 Coeff:      0.787D+00
 Gap=     0.121 Goal=   None    Shift=    0.000
 RMSDP=7.41D-09 MaxDP=4.65D-07 DE= 7.28D-12 OVMax= 4.21D-06

 SCF Done:  E(RCAM-B3LYP) =  -4069.81166407     A.U. after   19 cycles
            NFock= 19  Conv=0.74D-08     -V/T= 2.0102
 KE= 4.028801156468D+03 PE=-3.933893295769D+04 EE= 1.631138906952D+04
 Leave Link  502 at Fri Sep 10 12:44:26 2021, MaxMem= 23488102400 cpu:           13609.9 elap:             591.3
 (Enter /sw/apps/gaussian-16.0/g16/l801.exe)
 DoSCS=F DFT=T ScalE2(SS,OS)=  1.000000  1.000000
 ExpMin= 3.36D-02 ExpMax= 4.95D+03 ExpMxC= 7.45D+02 IAcc=3 IRadAn=         5 AccDes= 0.00D+00
 HarFok:  IExCor=  205 AccDes= 0.00D+00 IRadAn=         5 IDoV=-2 UseB2=F ITyADJ=14
 ICtDFT= 12500011 ScaDFX=  1.000000  1.000000  1.000000  1.000000
 GSVD:  LWork=       -9588 too small for GESVD, short by       45590 words or       45590 for optimal perf.
 Largest valence mixing into a core orbital is  2.03D-04
 Largest core mixing into a valence orbital is  5.24D-05
 Range of M.O.s used for correlation:    95  1572
 NBasis=  1572 NAE=   312 NBE=   312 NFC=    94 NFV=     0
 NROrb=   1478 NOA=   218 NOB=   218 NVA=  1260 NVB=  1260
 Leave Link  801 at Fri Sep 10 12:44:27 2021, MaxMem= 23488102400 cpu:              10.6 elap:               0.5
 (Enter /sw/apps/gaussian-16.0/g16/l914.exe)
 RHF ground state
 Two-electron integrals replicated using symmetry.
 MDV= 23488102400 DFT=T DoStab=F Mixed=T DoRPA=T DoScal=F NonHer=T
 Making orbital integer symmetry assigments:
 Orbital symmetries:
       Occupied  (A) (A) (A) (A) (A) (A) (A) (A) (A) (A) (A) (A)
                 (A) (A) (A) (A) (A) (A) (A) (A) (A) (A) (A) (A)
                 (A) (A) (A) (A) (A) (A) (A) (A) (A) (A) (A) (A)
                 (A) (A) (A) (A) (A) (A) (A) (A) (A) (A) (A) (A)
                 (A) (A) (A) (A) (A) (A) (A) (A) (A) (A) (A) (A)
                 (A) (A) (A) (A) (A) (A) (A) (A) (A) (A) (A) (A)
                 (A) (A) (A) (A) (A) (A) (A) (A) (A) (A) (A) (A)
                 (A) (A) (A) (A) (A) (A) (A) (A) (A) (A) (A) (A)
                 (A) (A) (A) (A) (A) (A) (A) (A) (A) (A) (A) (A)
                 (A) (A) (A) (A) (A) (A) (A) (A) (A) (A) (A) (A)
                 (A) (A) (A) (A) (A) (A) (A) (A) (A) (A) (A) (A)
                 (A) (A) (A) (A) (A) (A) (A) (A) (A) (A) (A) (A)
                 (A) (A) (A) (A) (A) (A) (A) (A) (A) (A) (A) (A)
                 (A) (A) (A) (A) (A) (A) (A) (A) (A) (A) (A) (A)
                 (A) (A) (A) (A) (A) (A) (A) (A) (A) (A) (A) (A)
                 (A) (A) (A) (A) (A) (A) (A) (A) (A) (A) (A) (A)
                 (A) (A) (A) (A) (A) (A) (A) (A) (A) (A) (A) (A)
                 (A) (A) (A) (A) (A) (A) (A) (A) (A) (A) (A) (A)
                 (A) (A) (A) (A) (A) (A) (A) (A) (A) (A) (A) (A)
                 (A) (A) (A) (A) (A) (A) (A) (A) (A) (A) (A) (A)
                 (A) (A) (A) (A) (A) (A) (A) (A) (A) (A) (A) (A)
                 (A) (A) (A) (A) (A) (A) (A) (A) (A) (A) (A) (A)
                 (A) (A) (A) (A) (A) (A) (A) (A) (A) (A) (A) (A)
                 (A) (A) (A) (A) (A) (A) (A) (A) (A) (A) (A) (A)
                 (A) (A) (A) (A) (A) (A) (A) (A) (A) (A) (A) (A)
                 (A) (A) (A) (A) (A) (A) (A) (A) (A) (A) (A) (A)
       Virtual   (A) (A) (A) (A) (A) (A) (A) (A) (A) (A) (A) (A)
                 (A) (A) (A) (A) (A) (A) (A) (A) (A) (A) (A) (A)
                 (A) (A) (A) (A) (A) (A) (A) (A) (A) (A) (A) (A)
                 (A) (A) (A) (A) (A) (A) (A) (A) (A) (A) (A) (A)
                 (A) (A) (A) (A) (A) (A) (A) (A) (A) (A) (A) (A)
                 (A) (A) (A) (A) (A) (A) (A) (A) (A) (A) (A) (A)
                 (A) (A) (A) (A) (A) (A) (A) (A) (A) (A) (A) (A)
                 (A) (A) (A) (A) (A) (A) (A) (A) (A) (A) (A) (A)
                 (A) (A) (A) (A) (A) (A) (A) (A) (A) (A) (A) (A)
                 (A) (A) (A) (A) (A) (A) (A) (A) (A) (A) (A) (A)
                 (A) (A) (A) (A) (A) (A) (A) (A) (A) (A) (A) (A)
                 (A) (A) (A) (A) (A) (A) (A) (A) (A) (A) (A) (A)
                 (A) (A) (A) (A) (A) (A) (A) (A) (A) (A) (A) (A)
                 (A) (A) (A) (A) (A) (A) (A) (A) (A) (A) (A) (A)
                 (A) (A) (A) (A) (A) (A) (A) (A) (A) (A) (A) (A)
                 (A) (A) (A) (A) (A) (A) (A) (A) (A) (A) (A) (A)
                 (A) (A) (A) (A) (A) (A) (A) (A) (A) (A) (A) (A)
                 (A) (A) (A) (A) (A) (A) (A) (A) (A) (A) (A) (A)
                 (A) (A) (A) (A) (A) (A) (A) (A) (A) (A) (A) (A)
                 (A) (A) (A) (A) (A) (A) (A) (A) (A) (A) (A) (A)
                 (A) (A) (A) (A) (A) (A) (A) (A) (A) (A) (A) (A)
                 (A) (A) (A) (A) (A) (A) (A) (A) (A) (A) (A) (A)
                 (A) (A) (A) (A) (A) (A) (A) (A) (A) (A) (A) (A)
                 (A) (A) (A) (A) (A) (A) (A) (A) (A) (A) (A) (A)
                 (A) (A) (A) (A) (A) (A) (A) (A) (A) (A) (A) (A)
                 (A) (A) (A) (A) (A) (A) (A) (A) (A) (A) (A) (A)
                 (A) (A) (A) (A) (A) (A) (A) (A) (A) (A) (A) (A)
                 (A) (A) (A) (A) (A) (A) (A) (A) (A) (A) (A) (A)
                 (A) (A) (A) (A) (A) (A) (A) (A) (A) (A) (A) (A)
                 (A) (A) (A) (A) (A) (A) (A) (A) (A) (A) (A) (A)
                 (A) (A) (A) (A) (A) (A) (A) (A) (A) (A) (A) (A)
                 (A) (A) (A) (A) (A) (A) (A) (A) (A) (A) (A) (A)
                 (A) (A) (A) (A) (A) (A) (A) (A) (A) (A) (A) (A)
                 (A) (A) (A) (A) (A) (A) (A) (A) (A) (A) (A) (A)
                 (A) (A) (A) (A) (A) (A) (A) (A) (A) (A) (A) (A)
                 (A) (A) (A) (A) (A) (A) (A) (A) (A) (A) (A) (A)
                 (A) (A) (A) (A) (A) (A) (A) (A) (A) (A) (A) (A)
                 (A) (A) (A) (A) (A) (A) (A) (A) (A) (A) (A) (A)
                 (A) (A) (A) (A) (A) (A) (A) (A) (A) (A) (A) (A)
                 (A) (A) (A) (A) (A) (A) (A) (A) (A) (A) (A) (A)
                 (A) (A) (A) (A) (A) (A) (A) (A) (A) (A) (A) (A)
                 (A) (A) (A) (A) (A) (A) (A) (A) (A) (A) (A) (A)
                 (A) (A) (A) (A) (A) (A) (A) (A) (A) (A) (A) (A)
                 (A) (A) (A) (A) (A) (A) (A) (A) (A) (A) (A) (A)
                 (A) (A) (A) (A) (A) (A) (A) (A) (A) (A) (A) (A)
                 (A) (A) (A) (A) (A) (A) (A) (A) (A) (A) (A) (A)
                 (A) (A) (A) (A) (A) (A) (A) (A) (A) (A) (A) (A)
                 (A) (A) (A) (A) (A) (A) (A) (A) (A) (A) (A) (A)
                 (A) (A) (A) (A) (A) (A) (A) (A) (A) (A) (A) (A)
                 (A) (A) (A) (A) (A) (A) (A) (A) (A) (A) (A) (A)
                 (A) (A) (A) (A) (A) (A) (A) (A) (A) (A) (A) (A)
                 (A) (A) (A) (A) (A) (A) (A) (A) (A) (A) (A) (A)
                 (A) (A) (A) (A) (A) (A) (A) (A) (A) (A) (A) (A)
                 (A) (A) (A) (A) (A) (A) (A) (A) (A) (A) (A) (A)
                 (A) (A) (A) (A) (A) (A) (A) (A) (A) (A) (A) (A)
                 (A) (A) (A) (A) (A) (A) (A) (A) (A) (A) (A) (A)
                 (A) (A) (A) (A) (A) (A) (A) (A) (A) (A) (A) (A)
                 (A) (A) (A) (A) (A) (A) (A) (A) (A) (A) (A) (A)
                 (A) (A) (A) (A) (A) (A) (A) (A) (A) (A) (A) (A)
                 (A) (A) (A) (A) (A) (A) (A) (A) (A) (A) (A) (A)
                 (A) (A) (A) (A) (A) (A) (A) (A) (A) (A) (A) (A)
                 (A) (A) (A) (A) (A) (A) (A) (A) (A) (A) (A) (A)
                 (A) (A) (A) (A) (A) (A) (A) (A) (A) (A) (A) (A)
                 (A) (A) (A) (A) (A) (A) (A) (A) (A) (A) (A) (A)
                 (A) (A) (A) (A) (A) (A) (A) (A) (A) (A) (A) (A)
                 (A) (A) (A) (A) (A) (A) (A) (A) (A) (A) (A) (A)
                 (A) (A) (A) (A) (A) (A) (A) (A) (A) (A) (A) (A)
                 (A) (A) (A) (A) (A) (A) (A) (A) (A) (A) (A) (A)
                 (A) (A) (A) (A) (A) (A) (A) (A) (A) (A) (A) (A)
                 (A) (A) (A) (A) (A) (A) (A) (A) (A) (A) (A) (A)
                 (A) (A) (A) (A) (A) (A) (A) (A) (A) (A) (A) (A)
                 (A) (A) (A) (A) (A) (A) (A) (A) (A) (A) (A) (A)
                 (A) (A) (A) (A) (A) (A) (A) (A) (A) (A) (A) (A)
                 (A) (A) (A) (A) (A) (A) (A) (A) (A) (A) (A) (A)
                 (A) (A) (A) (A) (A) (A) (A) (A) (A) (A) (A) (A)
                 (A) (A) (A) (A) (A) (A) (A) (A) (A) (A) (A) (A)
                 (A) (A) (A) (A) (A) (A) (A) (A) (A) (A) (A) (A)
                 (A) (A) (A) (A) (A) (A) (A) (A) (A) (A) (A) (A)
                 (A) (A) (A) (A) (A) (A) (A) (A) (A) (A) (A) (A)
                 (A) (A) (A) (A) (A) (A) (A) (A) (A) (A) (A) (A)
                 (A) (A) (A) (A) (A) (A) (A) (A) (A) (A) (A) (A)
                 (A) (A) (A) (A) (A) (A) (A) (A) (A) (A) (A) (A)
                 (A) (A) (A) (A) (A) (A) (A) (A) (A) (A) (A) (A)
                 (A) (A) (A) (A) (A) (A) (A) (A) (A) (A) (A) (A)
                 (A) (A) (A) (A) (A) (A) (A) (A) (A) (A) (A) (A)
                 (A) (A) (A) (A) (A) (A) (A) (A) (A) (A) (A) (A)
                 (A) (A) (A) (A) (A) (A) (A) (A) (A) (A) (A) (A)
                 (A) (A) (A) (A) (A) (A) (A) (A) (A) (A) (A) (A)
                 (A) (A) (A) (A) (A) (A) (A) (A) (A) (A) (A) (A)
                 (A) (A) (A) (A) (A) (A) (A) (A) (A) (A) (A) (A)
                 (A) (A) (A) (A) (A) (A) (A) (A) (A) (A) (A) (A)
                 (A) (A) (A) (A) (A) (A) (A) (A) (A) (A) (A) (A)
                 (A) (A) (A) (A) (A) (A) (A) (A) (A) (A) (A) (A)
                 (A) (A) (A) (A) (A) (A) (A) (A) (A) (A) (A) (A)
                 (A) (A) (A) (A) (A) (A) (A) (A) (A) (A) (A) (A)
                 (A) (A) (A) (A) (A) (A) (A) (A) (A) (A) (A) (A)
                 (A) (A) (A) (A) (A) (A) (A) (A) (A) (A) (A) (A)
                 (A) (A) (A) (A) (A) (A) (A) (A) (A) (A) (A) (A)
                 (A) (A) (A) (A) (A) (A) (A) (A) (A) (A) (A) (A)
                 (A) (A) (A) (A) (A) (A) (A) (A) (A) (A) (A) (A)
                 (A) (A) (A) (A) (A) (A) (A) (A) (A) (A) (A) (A)
                 (A) (A) (A) (A) (A) (A) (A) (A) (A) (A) (A) (A)
                 (A) (A) (A) (A) (A) (A) (A) (A) (A) (A) (A) (A)
                 (A) (A) (A) (A) (A) (A) (A) (A) (A) (A) (A) (A)
                 (A) (A) (A) (A) (A) (A) (A) (A) (A) (A) (A) (A)
    20 initial guesses have been made.
 Convergence on wavefunction:    0.001000000000000
 Davidson Disk Diagonalization:  ConvIn= 1.00D-03 SkipCon=T Conv= 1.00D-03.
 Max sub-space:  2000 roots to seek:    20 dimension of matrix:       549360
 Iteration     1 Dimension    20 NMult     0 NNew     20
 CISAX will form    20 AO SS matrices at one time.
 NMat=    20 NSing=    20 JSym2X= 0.
 FoFJK:  IHMeth= 1 ICntrl=       0 DoSepK=T KAlg= 0 I1Cent=           0 FoldK=F
 IRaf=         1 NMat=      40 IRICut=       1 DoRegI=T DoRafI=F ISym2E= 0 IDoP0=3 IntGTp=3.
 FoFCou: FMM=T IPFlag=           0 FMFlag=      100000 FMFlg1=        2001
         NFxFlg=           0 DoJE=F BraDBF=F KetDBF=F FulRan=T
         wScrn=  0.000000 ICntrl=       500 IOpCl=  0 I1Cent=           0 NGrid=           0
         NMat0=   20 NMatS0=     20 NMatT0=    0 NMatD0=   20 NMtDS0=    0 NMtDT0=    0
 Symmetry not used in FoFCou.
 FMM levels:  10  Number of levels for PrismC:   9
 New state      2 was old state      7
 New state      3 was old state      6
 New state      5 was old state      2
 Excitation Energies [eV] at current iteration:
 Root      1 :     2.487182687522878
 Root      2 :     2.609245677677411
 Root      3 :     2.621028077143640
 Root      4 :     2.623435317679486
 Root      5 :     2.640609293987302
 Root      6 :     2.734161214508613
 Root      7 :     3.274213206888337
 Root      8 :     3.421532523346087
 Root      9 :     3.635117476655208
 Root     10 :     3.671315939656249
 Root     11 :     3.730019239822873
 Root     12 :     3.755563599912123
 Root     13 :     4.270354735419907
 Root     14 :     4.345035527760039
 Root     15 :     4.388993201098512
 Root     16 :     4.554814672493972
 Root     17 :     4.709931848474419
 Root     18 :     4.742024719713301
 Root     19 :     4.846657839838229
 Root     20 :     4.872203498350066
 Iteration     2 Dimension    30 NMult    20 NNew     10
 CISAX will form    10 AO SS matrices at one time.
 NMat=    10 NSing=    10 JSym2X= 0.
 New state      1 was old state      5
 Root      1 not converged, maximum delta is    0.222782461097182
 Root      2 not converged, maximum delta is    0.298799193347307
 Root      3 not converged, maximum delta is    0.285909160636630
 New state      4 was old state      1
 Root      4 not converged, maximum delta is    0.002297490460390
 New state      5 was old state      4
 Root      5 not converged, maximum delta is    0.005694800870709
 Excitation Energies [eV] at current iteration:
 Root      1 :     1.781216920474782   Change is   -0.859392373512520
 Root      2 :     2.232354563986497   Change is   -0.376891113690914
 Root      3 :     2.239596860876043   Change is   -0.381431216267597
 Root      4 :     2.486778148724544   Change is   -0.000404538798333
 Root      5 :     2.622886349554989   Change is   -0.000548968124497
 Iteration     3 Dimension    40 NMult    30 NNew     10
 CISAX will form    10 AO SS matrices at one time.
 NMat=    10 NSing=    10 JSym2X= 0.
 Root      1 not converged, maximum delta is    0.054292059924896
 New state      2 was old state      3
 Root      2 not converged, maximum delta is    0.493285511128168
 New state      3 was old state      2
 Root      3 not converged, maximum delta is    0.036568354062021
 No map to state      4
 New state      5 was old state      4
 Root      5 has converged.
 Excitation Energies [eV] at current iteration:
 Root      1 :     1.675948359360771   Change is   -0.105268561114011
 Root      2 :     1.867543973167031   Change is   -0.372052887709011
 Root      3 :     2.192412278234896   Change is   -0.039942285751601
 Root      4 :     2.207282687133049
 Root      5 :     2.486776196308733   Change is   -0.000001952415812
 Iteration     4 Dimension    48 NMult    40 NNew      8
 CISAX will form     8 AO SS matrices at one time.
 NMat=     8 NSing=     8 JSym2X= 0.
 Root      1 not converged, maximum delta is    0.011278706013075
 Root      2 not converged, maximum delta is    0.031532706517020
 Root      3 not converged, maximum delta is    0.037030998679449
 Root      4 not converged, maximum delta is    0.035964520597815
 Root      5 has converged.
 Excitation Energies [eV] at current iteration:
 Root      1 :     1.659344021584719   Change is   -0.016604337776052
 Root      2 :     1.718438426408539   Change is   -0.149105546758493
 Root      3 :     2.185260697116010   Change is   -0.007151581118886
 Root      4 :     2.196790903722807   Change is   -0.010491783410243
 Root      5 :     2.486776143685765   Change is   -0.000000052622967
 Iteration     5 Dimension    56 NMult    48 NNew      8
 CISAX will form     8 AO SS matrices at one time.
 NMat=     8 NSing=     8 JSym2X= 0.
 Root      1 not converged, maximum delta is    0.001780585974536
 Root      2 not converged, maximum delta is    0.011918856974279
 Root      3 not converged, maximum delta is    0.005458588098399
 Root      4 not converged, maximum delta is    0.005461651833392
 Root      5 has converged.
 Excitation Energies [eV] at current iteration:
 Root      1 :     1.657622403651630   Change is   -0.001721617933089
 Root      2 :     1.699678482993739   Change is   -0.018759943414800
 Root      3 :     2.184417830470014   Change is   -0.000842866645996
 Root      4 :     2.195639031802009   Change is   -0.001151871920798
 Root      5 :     2.486776113983933   Change is   -0.000000029701833
 Iteration     6 Dimension    64 NMult    56 NNew      8
 CISAX will form     8 AO SS matrices at one time.
 NMat=     8 NSing=     8 JSym2X= 0.
 Root      1 has converged.
 Root      2 not converged, maximum delta is    0.003131326233668
 Root      3 has converged.
 Root      4 has converged.
 Root      5 has converged.
 Excitation Energies [eV] at current iteration:
 Root      1 :     1.657378416855906   Change is   -0.000243986795724
 Root      2 :     1.697933060449206   Change is   -0.001745422544532
 Root      3 :     2.184294011297873   Change is   -0.000123819172140
 Root      4 :     2.195490120955530   Change is   -0.000148910846478
 Root      5 :     2.486776108914740   Change is   -0.000000005069193
 Iteration     7 Dimension    66 NMult    64 NNew      2
 CISAX will form     2 AO SS matrices at one time.
 NMat=     2 NSing=     2 JSym2X= 0.
 Root      1 has converged.
 Root      2 not converged, maximum delta is    0.001221414539204
 Root      3 has converged.
 Root      4 has converged.
 Root      5 has converged.
 Excitation Energies [eV] at current iteration:
 Root      1 :     1.657378360496845   Change is   -0.000000056359061
 Root      2 :     1.697585577144263   Change is   -0.000347483304943
 Root      3 :     2.184293976334386   Change is   -0.000000034963487
[...]
 Alpha virt. eigenvalues --    1.83616   1.83705   1.83971   1.84020   1.84313
 Alpha virt. eigenvalues --    1.84389   1.84626   1.84785   1.84914   1.85013
 Alpha virt. eigenvalues --    1.85214   1.85232   1.85483   1.85504   1.85618
 Alpha virt. eigenvalues --    1.85817   1.86009   1.86297   1.86499   1.86529
 Alpha virt. eigenvalues --    1.86730   1.86767   1.86936   1.86965   1.87128
 Alpha virt. eigenvalues --    1.87387   1.87583   1.87647   1.87819   1.87872
 Alpha virt. eigenvalues --    1.87991   1.88131   1.88290   1.88500   1.88695
 Alpha virt. eigenvalues --    1.88796   1.89021   1.89084   1.89175   1.89606
 Alpha virt. eigenvalues --    1.89721   1.89791   1.90001   1.90086   1.90311
 Alpha virt. eigenvalues --    1.90706   1.90998   1.91301   1.91399   1.91543
 Alpha virt. eigenvalues --    1.91696   1.92103   1.92278   1.92586   1.92751
 Alpha virt. eigenvalues --    1.92934   1.93261   1.93273   1.93611   1.94201
 Alpha virt. eigenvalues --    1.94400   1.94652   1.94942   1.95391   1.95683
 Alpha virt. eigenvalues --    1.95695   1.95906   1.95952   1.96071   1.96156
 Alpha virt. eigenvalues --    1.96270   1.96532   1.96581   1.96860   1.97056
 Alpha virt. eigenvalues --    1.97387   1.97626   1.97762   1.97891   1.98128
 Alpha virt. eigenvalues --    1.98271   1.98432   1.98654   1.99103   1.99188
 Alpha virt. eigenvalues --    1.99792   2.00039   2.00601   2.00821   2.00965
 Alpha virt. eigenvalues --    2.01206   2.01449   2.01599   2.01619   2.01691
 Alpha virt. eigenvalues --    2.01711   2.01921   2.02743   2.02814   2.03175
 Alpha virt. eigenvalues --    2.03249   2.03375   2.03449   2.03488   2.03620
 Alpha virt. eigenvalues --    2.03994   2.04126   2.04919   2.05093   2.05479
 Alpha virt. eigenvalues --    2.05750   2.06054   2.06404   2.06879   2.07127
 Alpha virt. eigenvalues --    2.07132   2.07439   2.08564   2.08693   2.08946
 Alpha virt. eigenvalues --    2.09100   2.09559   2.09717   2.10692   2.11131
 Alpha virt. eigenvalues --    2.11140   2.11499   2.11511   2.11622   2.11695
 Alpha virt. eigenvalues --    2.11993   2.12424   2.12566   2.12767   2.12782
 Alpha virt. eigenvalues --    2.12915   2.12972   2.13724   2.13737   2.14074
 Alpha virt. eigenvalues --    2.14372   2.15298   2.15518   2.15887   2.16183
 Alpha virt. eigenvalues --    2.16468   2.16703   2.16709   2.17265   2.17371
 Alpha virt. eigenvalues --    2.17665   2.17771   2.17983   2.18050   2.18103
 Alpha virt. eigenvalues --    2.18305   2.18773   2.18837   2.19326   2.19604
 Alpha virt. eigenvalues --    2.19915   2.20005   2.20160   2.20332   2.20545
 Alpha virt. eigenvalues --    2.21072   2.21277   2.21638   2.21706   2.21862
 Alpha virt. eigenvalues --    2.21973   2.22630   2.22810   2.23250   2.23438
 Alpha virt. eigenvalues --    2.24346   2.24510   2.24871   2.25121   2.26266
 Alpha virt. eigenvalues --    2.26542   2.26729   2.27066   2.27113   2.27300
 Alpha virt. eigenvalues --    2.28094   2.28434   2.29223   2.29556   2.29700
 Alpha virt. eigenvalues --    2.29987   2.30416   2.30715   2.30907   2.31028
 Alpha virt. eigenvalues --    2.31160   2.31296   2.32075   2.32359   2.33102
 Alpha virt. eigenvalues --    2.33339   2.33403   2.33576   2.34073   2.34235
 Alpha virt. eigenvalues --    2.35339   2.35386   2.35764   2.36018   2.36279
 Alpha virt. eigenvalues --    2.36452   2.36544   2.36592   2.37578   2.37761
 Alpha virt. eigenvalues --    2.38229   2.38508   2.38827   2.38878   2.39573
 Alpha virt. eigenvalues --    2.39766   2.40122   2.40358   2.40447   2.40917
 Alpha virt. eigenvalues --    2.41221   2.41298   2.41629   2.41781   2.42004
 Alpha virt. eigenvalues --    2.42216   2.42871   2.42927   2.43127   2.43528
 Alpha virt. eigenvalues --    2.44088   2.44155   2.44696   2.44859   2.44913
 Alpha virt. eigenvalues --    2.45084   2.45494   2.45665   2.46282   2.46400
 Alpha virt. eigenvalues --    2.46436   2.46597   2.46768   2.46891   2.47196
 Alpha virt. eigenvalues --    2.47461   2.47667   2.47992   2.49263   2.49509
 Alpha virt. eigenvalues --    2.49964   2.49980   2.50486   2.50566   2.51082
 Alpha virt. eigenvalues --    2.51356   2.51719   2.51851   2.52401   2.52471
 Alpha virt. eigenvalues --    2.52767   2.53258   2.53868   2.54075   2.54137
 Alpha virt. eigenvalues --    2.54413   2.54735   2.54894   2.55487   2.55770
 Alpha virt. eigenvalues --    2.57831   2.58189   2.58589   2.59013   2.60172
 Alpha virt. eigenvalues --    2.60384   2.60574   2.61019   2.61669   2.61930
 Alpha virt. eigenvalues --    2.62488   2.62523   2.62904   2.63212   2.63897
 Alpha virt. eigenvalues --    2.64151   2.64316   2.64515   2.65020   2.65187
 Alpha virt. eigenvalues --    2.65752   2.65941   2.66693   2.66859   2.66902
 Alpha virt. eigenvalues --    2.67153   2.67848   2.68070   2.68812   2.68909
 Alpha virt. eigenvalues --    2.68986   2.69110   2.69304   2.69671   2.69927
 Alpha virt. eigenvalues --    2.70216   2.70922   2.71145   2.71974   2.72016
 Alpha virt. eigenvalues --    2.72561   2.72613   2.72801   2.72810   2.73189
 Alpha virt. eigenvalues --    2.73368   2.73512   2.73527   2.74458   2.74584
 Alpha virt. eigenvalues --    2.74930   2.75136   2.76526   2.76597   2.77144
 Alpha virt. eigenvalues --    2.77187   2.77428   2.77709   2.78182   2.78417
 Alpha virt. eigenvalues --    2.78685   2.78774   2.79093   2.79239   2.80327
 Alpha virt. eigenvalues --    2.80380   2.80562   2.80761   2.81073   2.81232
 Alpha virt. eigenvalues --    2.81894   2.82065   2.82281   2.82411   2.83714
 Alpha virt. eigenvalues --    2.83745   2.83951   2.83972   2.84490   2.84606
 Alpha virt. eigenvalues --    2.84814   2.84968   2.85634   2.85788   2.86725
 Alpha virt. eigenvalues --    2.86942   2.87226   2.87579   2.88142   2.88348
 Alpha virt. eigenvalues --    2.88434   2.88665   2.88882   2.88950   2.90432
 Alpha virt. eigenvalues --    2.90718   2.91111   2.91145   2.93114   2.93402
 Alpha virt. eigenvalues --    2.93847   2.94146   2.94505   2.94662   2.95325
 Alpha virt. eigenvalues --    2.95537   2.95884   2.96162   2.96369   2.96436
 Alpha virt. eigenvalues --    2.96919   2.97144   2.97786   2.98132   2.98191
 Alpha virt. eigenvalues --    2.98292   2.98418   2.98544   2.98644   2.98815
 Alpha virt. eigenvalues --    2.98844   2.98998   2.99509   2.99876   3.00009
 Alpha virt. eigenvalues --    3.00075   3.00187   3.00421   3.00432   3.01060
 Alpha virt. eigenvalues --    3.01889   3.01965   3.02022   3.02203   3.02729
 Alpha virt. eigenvalues --    3.02900   3.02934   3.03295   3.03426   3.03766
 Alpha virt. eigenvalues --    3.04057   3.04154   3.04378   3.04472   3.04489
 Alpha virt. eigenvalues --    3.04757   3.05243   3.05459   3.06065   3.06254
 Alpha virt. eigenvalues --    3.06761   3.07026   3.08022   3.08102   3.09366
 Alpha virt. eigenvalues --    3.09453   3.09654   3.10399   3.10483   3.10818
 Alpha virt. eigenvalues --    3.11271   3.11570   3.11910   3.11939   3.12046
 Alpha virt. eigenvalues --    3.12372   3.13244   3.13574   3.13715   3.13771
 Alpha virt. eigenvalues --    3.14075   3.14524   3.15807   3.16029   3.17214
 Alpha virt. eigenvalues --    3.17588   3.17987   3.18055   3.19090   3.19123
 Alpha virt. eigenvalues --    3.22289   3.22651   3.23904   3.24512   3.24637
 Alpha virt. eigenvalues --    3.25256   3.26455   3.26732   3.27471   3.27575
 Alpha virt. eigenvalues --    3.29087   3.29269   3.31457   3.31484   3.33267
 Alpha virt. eigenvalues --    3.33373   3.40300   3.40626   3.42804   3.42925
 Alpha virt. eigenvalues --    3.48617   3.48768   3.49976   3.50362   3.50920
 Alpha virt. eigenvalues --    3.51435   3.56512   3.57093   3.59045   3.59423
 Alpha virt. eigenvalues --    3.62592   3.62797   3.66190   3.66236   3.67176
 Alpha virt. eigenvalues --    3.67588   3.73252   3.74070   3.76031   3.76731
          Condensed to atoms (all electrons):
 Mulliken charges:
               1
     1  Mg   0.838588
     2  C   -0.002744
     3  C   -0.094019
     4  C   -0.045906
     5  C   -0.064434
     6  N   -0.256761
     7  C   -0.052547
     8  C   -0.013963
     9  C   -0.087046
    10  C    0.046396
    11  C    0.104764
    12  C    0.053466
    13  C   -0.071907
    14  H    0.036292
    15  N   -0.433263
    16  C    0.168577
    17  C   -0.176883
    18  C   -0.003628
    19  C    0.148846
    20  C    0.110142
    21  C    0.012736
    22  O   -0.249238
    23  C    0.062277
    24  N   -0.341000
    25  C    0.041155
    26  C   -0.028322
    27  C   -0.023708
    28  C    0.074420
    29  C    0.076073
    30  C    0.035314
    31  C   -0.004514
    32  N   -0.310339
    33  C    0.080028
    34  C   -0.170480
    35  C    0.008354
    36  C    0.082758
    37  C    0.127479
    38  C    0.045977
    39  O   -0.188524
    40  C   -0.005247
    41  C    0.212800
    42  O   -0.256853
    43  O   -0.304884
    44  C    0.157436
    45  H   -0.017285
    46  H   -0.016596
    47  H   -0.042216
    48  H    0.001096
    49  H   -0.003934
    50  H    0.025563
    51  H    0.016476
    52  H    0.016881
    53  H    0.010926
    54  H    0.044286
    55  H    0.018053
    56  H    0.017823
    57  H    0.005868
    58  H    0.027232
    59  H    0.040027
    60  H    0.037229
    61  H    0.036875
    62  H    0.031932
    63  H    0.016418
    64  H    0.009583
    65  H    0.023446
    66  H    0.012944
    67  H    0.004750
    68  H    0.006362
    69  H    0.004159
    70  H    0.009125
    71  H    0.015241
    72  H    0.029565
    73  H    0.046910
    74  H    0.008309
    75  H    0.046230
    76  H    0.035252
    77  H    0.043091
    78  H    0.046358
    79  H    0.054344
    80  Mg   0.838028
    81  C   -0.016813
    82  C   -0.087339
    83  C   -0.044080
    84  C   -0.065286
    85  N   -0.254543
    86  C   -0.050040
    87  C   -0.015086
    88  C   -0.090643
    89  C    0.045840
    90  C    0.114090
    91  C    0.062614
    92  C   -0.077653
    93  H    0.034433
    94  N   -0.423884
    95  C    0.163264
    96  C   -0.173183
    97  C   -0.006766
    98  C    0.152424
    99  C    0.098748
   100  C    0.016511
   101  O   -0.252821
   102  C    0.061012
   103  N   -0.349951
   104  C    0.037935
   105  C   -0.020074
   106  C   -0.034335
   107  C    0.088752
   108  C    0.073100
   109  C    0.034882
   110  C   -0.007551
   111  N   -0.323901
   112  C    0.078161
   113  C   -0.163879
   114  C    0.002069
   115  C    0.095892
   116  C    0.131583
   117  C    0.042074
   118  O   -0.188643
   119  C    0.000924
   120  C    0.211117
   121  O   -0.251299
   122  O   -0.305472
   123  C    0.152186
   124  H   -0.019231
   125  H   -0.014921
   126  H   -0.041566
   127  H   -0.000719
   128  H   -0.004725
   129  H    0.023027
   130  H    0.015659
   131  H    0.015285
   132  H    0.013827
   133  H    0.037542
   134  H    0.020593
   135  H    0.019389
   136  H    0.008530
   137  H    0.028304
   138  H    0.039426
   139  H    0.039633
   140  H    0.036293
   141  H    0.033159
   142  H    0.014029
   143  H    0.011371
   144  H    0.024601
   145  H    0.015438
   146  H    0.004413
   147  H    0.005704
   148  H    0.002843
   149  H    0.010954
   150  H    0.017370
   151  H    0.030390
   152  H    0.045573
   153  H    0.007817
   154  H    0.045785
   155  H    0.035423
   156  H    0.043734
   157  H    0.049346
   158  H    0.053312
 Sum of Mulliken charges =  -0.00000
 Mulliken charges with hydrogens summed into heavy atoms:
               1
     1  Mg   0.838588
     2  C   -0.002744
     3  C   -0.111304
     4  C   -0.062502
     5  C   -0.106650
     6  N   -0.256761
     7  C   -0.052547
     8  C   -0.012867
     9  C   -0.090980
    10  C    0.046396
    11  C    0.163684
    12  C    0.108678
    13  C    0.000262
    15  N   -0.433263
    16  C    0.168577
    17  C   -0.176883
    18  C   -0.003628
    19  C    0.148846
    20  C    0.183269
    21  C    0.012736
    22  O   -0.249238
    23  C    0.168313
    24  N   -0.341000
    25  C    0.041155
    26  C   -0.011904
    27  C   -0.014126
    28  C    0.074420
    29  C    0.117213
    30  C    0.045835
    31  C    0.049416
    32  N   -0.310339
    33  C    0.080028
    34  C   -0.170480
    35  C    0.008354
    36  C    0.082758
    37  C    0.228928
    38  C    0.045977
    39  O   -0.188524
    40  C    0.030004
    41  C    0.212800
    42  O   -0.256853
    43  O   -0.304884
    44  C    0.301229
    80  Mg   0.838028
    81  C   -0.016813
    82  C   -0.106570
    83  C   -0.059001
    84  C   -0.106852
    85  N   -0.254543
    86  C   -0.050040
    87  C   -0.015805
    88  C   -0.095368
    89  C    0.045840
    90  C    0.168061
    91  C    0.113982
    92  C   -0.003237
    94  N   -0.423884
    95  C    0.163264
    96  C   -0.173183
    97  C   -0.006766
    98  C    0.152424
    99  C    0.175007
   100  C    0.016511
   101  O   -0.252821
   102  C    0.170098
   103  N   -0.349951
   104  C    0.037935
   105  C   -0.006045
   106  C   -0.022964
   107  C    0.088752
   108  C    0.117552
   109  C    0.043429
   110  C    0.051163
   111  N   -0.323901
   112  C    0.078161
   113  C   -0.163879
   114  C    0.002069
   115  C    0.095892
   116  C    0.230759
   117  C    0.042074
   118  O   -0.188643
   119  C    0.036347
   120  C    0.211117
   121  O   -0.251299
   122  O   -0.305472
   123  C    0.298579
 Electronic spatial extent (au):  <R**2>=         115999.0744
 Charge=             -0.0000 electrons
 Dipole moment (field-independent basis, Debye):
    X=              4.0908    Y=             -0.6518    Z=              0.1094  Tot=              4.1439
 Quadrupole moment (field-independent basis, Debye-Ang):
   XX=           -525.2907   YY=           -546.2277   ZZ=           -448.3229
   XY=            -21.2596   XZ=             56.5821   YZ=             40.3617
 Traceless Quadrupole moment (field-independent basis, Debye-Ang):
   XX=            -18.6770   YY=            -39.6139   ZZ=             58.2909
   XY=            -21.2596   XZ=             56.5821   YZ=             40.3617
 Octapole moment (field-independent basis, Debye-Ang**2):
  XXX=            401.6880  YYY=             37.1464  ZZZ=             35.8949  XYY=              6.3499
  XXY=             14.5802  XXZ=              2.2253  XZZ=            -12.7843  YZZ=            -18.0053
  YYZ=            -37.3397  XYZ=              4.8146
 Hexadecapole moment (field-independent basis, Debye-Ang**3):
 XXXX=         -94277.6888 YYYY=         -42235.2551 ZZZZ=         -23861.9428 XXXY=           -306.4694
 XXXZ=           2830.1160 YYYX=           2083.0266 YYYZ=           1056.8925 ZZZX=            402.3256
 ZZZY=           -281.8252 XXYY=         -22156.6463 XXZZ=         -18370.3214 YYZZ=         -10388.6782
 XXYZ=           1661.0104 YYXZ=           1214.3245 ZZXY=          -1205.9714
 N-N= 1.492893106763D+04 E-N=-3.933893295570D+04  KE= 4.028801156468D+03
 Leave Link  601 at Fri Sep 10 13:09:10 2021, MaxMem= 23488102400 cpu:              19.7 elap:               0.9
 (Enter /sw/apps/gaussian-16.0/g16/l9999.exe)
 1\1\GINC-BP1-COMPUTE00099\SP\RCAM-B3LYP TD-FC\def2SVP\C68H72Mg2N8O8\OF
 15641\10-Sep-2021\0\\#p cam-b3lyp/Def2SVP td=(nstates=5)\\TDDFT excite
 d states in gaussian\\0,1\Mg,0,0.,0.,0.\C,0,-0.217,-2.218,2.801\C,0,-1
 .255,2.442,2.026\C,0,-0.245,1.85,-2.564\C,0,0.146,-2.824,-2.037\N,0,-0
 .617,-0.009,2.126\C,0,-0.594,-0.908,3.105\C,0,-0.936,-0.309,4.502\C,0,
 -1.773,0.964,4.032\C,0,-1.155,1.168,2.66\C,0,-3.263,0.685,3.863\C,0,0.
 345,0.11,5.299\C,0,0.124,0.397,6.787\H,0,1.168,0.033,7.733\N,0,-0.185,
 1.961,-0.152\C,0,-0.703,2.8,0.777\C,0,-0.62,4.156,0.193\C,0,-0.187,4.0
 15,-1.225\C,0,-0.214,2.583,-1.38\C,0,-0.887,5.406,0.974\C,0,0.181,5.01
 3,-2.277\O,0,0.303,4.69,-3.508\C,0,0.31,6.414,-1.837\N,0,-0.265,-0.413
 ,-2.029\C,0,-0.279,0.569,-2.937\C,0,-0.196,0.024,-4.332\C,0,0.124,-1.5
 33,-4.18\C,0,0.086,-1.632,-2.635\C,0,-1.451,0.205,-5.197\C,0,1.373,-2.
 07,-4.923\C,0,2.626,-1.49,-4.306\N,0,0.15,-2.144,0.303\C,0,0.173,-3.13
 6,-0.688\C,0,0.173,-4.438,0.004\C,0,0.133,-4.111,1.358\C,0,0.083,-2.69
 5,1.502\C,0,0.149,-5.715,-0.623\C,0,0.096,-4.629,2.716\O,0,0.208,-5.74
 7,3.221\C,0,-0.255,-3.428,3.701\C,0,0.717,-3.482,4.848\O,0,1.931,-3.25
 5,4.669\O,0,0.038,-3.556,6.003\C,0,0.943,-3.583,7.183\H,0,-1.859,3.22,
 2.497\H,0,-0.218,2.453,-3.474\H,0,0.276,-3.747,-2.605\H,0,-1.554,-0.94
 9,5.132\H,0,-1.585,1.831,4.665\H,0,-3.484,-0.377,3.969\H,0,-3.511,1.02
 7,2.858\H,0,-3.852,1.301,4.543\H,0,0.669,1.096,4.966\H,0,1.13,-0.639,5
 .189\H,0,-0.844,0.026,7.125\H,0,0.062,1.477,6.921\H,0,-1.344,5.186,1.9
 38\H,0,-1.651,5.963,0.432\H,0,0.007,6.02,1.084\H,0,-0.635,6.744,-1.405
 \H,0,0.665,6.97,-2.704\H,0,1.048,6.466,-1.036\H,0,0.608,0.501,-4.891\H
 ,0,-0.692,-2.156,-4.547\H,0,-1.267,0.74,-6.129\H,0,-2.204,0.714,-4.596
 \H,0,-1.967,-0.72,-5.453\H,0,1.356,-1.759,-5.967\H,0,1.452,-3.157,-4.9
 02\H,0,2.714,-0.522,-4.798\H,0,3.487,-2.121,-4.529\H,0,2.495,-1.303,-3
 .24\H,0,0.867,-6.333,-0.084\H,0,0.404,-5.642,-1.68\H,0,-0.891,-5.999,-
 0.463\H,0,-1.283,-3.581,4.028\H,0,0.698,-4.478,7.755\H,0,0.833,-2.619,
 7.68\H,0,2.,-3.754,6.976\Mg,0,10.51894,0.94206,0.79303\C,0,10.37005,2.
 85119,-2.24212\C,0,10.03139,-1.84497,-1.11205\C,0,10.19523,-0.71608,3.
 47878\C,0,9.85281,3.89517,2.51962\N,0,10.25019,0.66709,-1.38513\C,0,10
 .27351,1.45896,-2.44662\C,0,10.2694,0.71135,-3.80699\C,0,9.5914,-0.662
 12,-3.32452\C,0,10.00893,-0.63801,-1.85559\C,0,8.07334,-0.63941,-3.390
 02\C,0,11.7174,0.47305,-4.36244\C,0,11.77987,0.02742,-5.82507\H,0,12.8
 8911,0.49887,-6.64955\N,0,10.65358,-1.01061,1.12092\C,0,10.44526,-2.00
 176,0.22902\C,0,10.6478,-3.25739,0.9683\C,0,10.8309,-2.92957,2.40834\C
 ,0,10.53992,-1.50998,2.39459\C,0,10.73323,-4.59497,0.29229\C,0,11.1937
 2,-3.75922,3.60259\O,0,11.06372,-3.313,4.79709\C,0,11.61713,-5.14171,3
 .33627\N,0,9.87886,1.46076,2.70185\C,0,9.88422,0.56109,3.7011\C,0,9.64
 802,1.22684,5.03578\C,0,9.72387,2.79873,4.75122\C,0,9.91028,2.7697,3.2
 1831\C,0,8.32063,0.8969,5.71811\C,0,10.73011,3.62035,5.60275\C,0,12.14
 661,3.23043,5.24654\N,0,10.3533,3.03603,0.28714\C,0,10.04238,4.10224,1
 .15927\C,0,9.93068,5.32193,0.33325\C,0,10.1635,4.87306,-0.97549\C,0,10
 .38341,3.46911,-0.96825\C,0,9.60108,6.62208,0.80981\C,0,10.26273,5.265
 92,-2.36276\O,0,10.25408,6.33906,-2.96446\C,0,10.27569,3.95388,-3.2598
 5\C,0,11.39396,4.08425,-4.25734\O,0,12.57837,4.11125,-3.87909\O,0,10.8
 9646,3.93702,-5.49878\C,0,11.96941,4.04732,-6.52271\H,0,9.65721,-2.753
 08,-1.58556\H,0,10.17923,-1.22155,4.44714\H,0,9.7444,4.87243,2.9949\H,
 0,9.66458,1.17391,-4.57771\H,0,10.02926,-1.51813,-3.83137\H,0,7.69545,
 0.34104,-3.63913\H,0,7.732,-0.93804,-2.40749\H,0,7.71427,-1.40809,-4.0
 8033\H,0,12.14553,-0.41363,-3.87743\H,0,12.32685,1.34484,-4.22396\H,0,
 10.8249,0.17812,-6.34302\H,0,11.93161,-1.05437,-5.85205\H,0,10.39666,-
 4.54094,-0.7504\H,0,10.0012,-5.24735,0.78054\H,0,11.7232,-5.04798,0.37
 841\H,0,10.82344,-5.66763,2.81098\H,0,11.92016,-5.5461,4.30401\H,0,12.
 48015,-5.11946,2.6615\H,0,10.4232,0.96004,5.74359\H,0,8.76042,3.29418,
 4.94129\H,0,8.44479,0.47374,6.7328\H,0,7.77235,0.21202,5.08496\H,0,7.6
 2813,1.73197,5.80926\H,0,10.60294,3.3923,6.66387\H,0,10.61769,4.69331,
 5.48821\H,0,12.31412,2.33227,5.84849\H,0,12.84166,4.02255,5.51762\H,0,
 12.22142,2.9394,4.19233\H,0,10.2722,7.31343,0.31776\H,0,9.68993,6.6830
 3,1.89248\H,0,8.56163,6.69351,0.47859\H,0,9.3015,3.87876,-3.74449\H,0,
 11.66581,4.83416,-7.22013\H,0,12.09403,3.0287,-6.93577\H,0,12.9362,4.4
 1392,-6.19811\\Version=ES64L-G16RevA.03\State=1-A\HF=-4069.8116641\RMS
 D=7.410e-09\PG=C01 [X(C68H72Mg2N8O8)]\\@


 WE DON'T KNOW ONE MILLIONTH OF ONE PERCENT ABOUT
 ANYTHING.
                                     T. A. EDISON.
 Job cpu time:       0 days 13 hours 38 minutes 56.8 seconds.
 Elapsed time:       0 days  0 hours 34 minutes 46.1 seconds.
 File lengths (MBytes):  RWF=  13225 Int=      0 D2E=      0 Chk=    574 Scr=      1
 Normal termination of Gaussian 16 at Fri Sep 10 13:09:11 2021.
