 Entering Gaussian System, Link 0=g16
 Initial command:
 /sw/apps/gaussian-16.0/g16/l1.exe "/tmp/Gau-146523.inp" -scrdir="/tmp/"
 Entering Link 1 = /sw/apps/gaussian-16.0/g16/l1.exe PID=    146524.
  
 Copyright (c) 1988,1990,1992,1993,1995,1998,2003,2009,2016,
            Gaussian, Inc.  All Rights Reserved.
  
 This is part of the Gaussian(R) 16 program.  It is based on
 the Gaussian(R) 09 system (copyright 2009, Gaussian, Inc.),
 the Gaussian(R) 03 system (copyright 2003, Gaussian, Inc.),
 the Gaussian(R) 98 system (copyright 1998, Gaussian, Inc.),
 the Gaussian(R) 94 system (copyright 1995, Gaussian, Inc.),
 the Gaussian 92(TM) system (copyright 1992, Gaussian, Inc.),
 the Gaussian 90(TM) system (copyright 1990, Gaussian, Inc.),
 the Gaussian 88(TM) system (copyright 1988, Gaussian, Inc.),
 the Gaussian 86(TM) system (copyright 1986, Carnegie Mellon
 University), and the Gaussian 82(TM) system (copyright 1983,
 Carnegie Mellon University). Gaussian is a federally registered
 trademark of Gaussian, Inc.
  
 This software contains proprietary and confidential information,
 including trade secrets, belonging to Gaussian, Inc.
  
 This software is provided under written license and may be
 used, copied, transmitted, or stored only in accord with that
 written license.
  
 The following legend is applicable only to US Government
 contracts under FAR:
  
                    RESTRICTED RIGHTS LEGEND
  
 Use, reproduction and disclosure by the US Government is
 subject to restrictions as set forth in subparagraphs (a)
 and (c) of the Commercial Computer Software - Restricted
 Rights clause in FAR 52.227-19.
  
 Gaussian, Inc.
 340 Quinnipiac St., Bldg. 40, Wallingford CT 06492
  
  
 ---------------------------------------------------------------
 Warning -- This program may not be used in any manner that
 competes with the business of Gaussian, Inc. or will provide
 assistance to any competitor of Gaussian, Inc.  The licensee
 of this program is prohibited from giving any competitor of
 Gaussian, Inc. access to this program.  By using this program,
 the user acknowledges that Gaussian, Inc. is engaged in the
 business of creating and licensing software in the field of
 computational chemistry and represents and warrants to the
 licensee that it is not a competitor of Gaussian, Inc. and that
 it will not use this program in any manner prohibited above.
 ---------------------------------------------------------------
  

 Cite this work as:
 Gaussian 16, Revision A.03,
 M. J. Frisch, G. W. Trucks, H. B. Schlegel, G. E. Scuseria, 
 M. A. Robb, J. R. Cheeseman, G. Scalmani, V. Barone, 
 G. A. Petersson, H. Nakatsuji, X. Li, M. Caricato, A. V. Marenich, 
 J. Bloino, B. G. Janesko, R. Gomperts, B. Mennucci, H. P. Hratchian, 
 J. V. Ortiz, A. F. Izmaylov, J. L. Sonnenberg, D. Williams-Young, 
 F. Ding, F. Lipparini, F. Egidi, J. Goings, B. Peng, A. Petrone, 
 T. Henderson, D. Ranasinghe, V. G. Zakrzewski, J. Gao, N. Rega, 
 G. Zheng, W. Liang, M. Hada, M. Ehara, K. Toyota, R. Fukuda, 
 J. Hasegawa, M. Ishida, T. Nakajima, Y. Honda, O. Kitao, H. Nakai, 
 T. Vreven, K. Throssell, J. A. Montgomery, Jr., J. E. Peralta, 
 F. Ogliaro, M. J. Bearpark, J. J. Heyd, E. N. Brothers, K. N. Kudin, 
 V. N. Staroverov, T. A. Keith, R. Kobayashi, J. Normand, 
 K. Raghavachari, A. P. Rendell, J. C. Burant, S. S. Iyengar, 
 J. Tomasi, M. Cossi, J. M. Millam, M. Klene, C. Adamo, R. Cammi, 
 J. W. Ochterski, R. L. Martin, K. Morokuma, O. Farkas, 
 J. B. Foresman, and D. J. Fox, Gaussian, Inc., Wallingford CT, 2016.
 
 ******************************************
 Gaussian 16:  ES64L-G16RevA.03 25-Dec-2016
                12-Sep-2021 
 ******************************************
 %nproc=24
 Will use up to   24 processors via shared memory.
 %mem=175gb
 -----------------------------------
 #p cam-b3lyp/Def2SVP td=(nstates=5)
 -----------------------------------
 1/38=1,172=1/1;
 2/12=2,17=6,18=5,40=1/2;
 3/5=43,7=101,11=9,25=1,30=1,74=-40/1,2,3,8;
 4//1;
 5/5=2,38=5/2;
 8/6=1,10=1,108=5/1;
 9/41=5,42=1,70=2/14;
 6/7=2,8=2,9=2,10=2/1;
 99/5=1,9=1/99;
 Leave Link    1 at Sun Sep 12 07:40:09 2021, MaxMem= 23488102400 cpu:               0.7 elap:               0.0
 (Enter /sw/apps/gaussian-16.0/g16/l101.exe)
 --------------------------------
 TDDFT excited states in gaussian
 --------------------------------
 Symbolic Z-matrix:
 Charge =  0 Multiplicity = 1
 Mg                    0.        0.        0. 
 C                    -0.217    -2.218     2.801 
 C                    -1.255     2.442     2.026 
 C                    -0.245     1.85     -2.564 
 C                     0.146    -2.824    -2.037 
 N                    -0.617    -0.009     2.126 
 C                    -0.594    -0.908     3.105 
 C                    -0.936    -0.309     4.502 
 C                    -1.773     0.964     4.032 
 C                    -1.155     1.168     2.66 
 C                    -3.263     0.685     3.863 
 C                     0.345     0.11      5.299 
 C                     0.124     0.397     6.787 
 H                     1.168     0.033     7.733 
 N                    -0.185     1.961    -0.152 
 C                    -0.703     2.8       0.777 
 C                    -0.62      4.156     0.193 
 C                    -0.187     4.015    -1.225 
 C                    -0.214     2.583    -1.38 
 C                    -0.887     5.406     0.974 
 C                     0.181     5.013    -2.277 
 O                     0.303     4.69     -3.508 
 C                     0.31      6.414    -1.837 
 N                    -0.265    -0.413    -2.029 
 C                    -0.279     0.569    -2.937 
 C                    -0.196     0.024    -4.332 
 C                     0.124    -1.533    -4.18 
 C                     0.086    -1.632    -2.635 
 C                    -1.451     0.205    -5.197 
 C                     1.373    -2.07     -4.923 
 C                     2.626    -1.49     -4.306 
 N                     0.15     -2.144     0.303 
 C                     0.173    -3.136    -0.688 
 C                     0.173    -4.438     0.004 
 C                     0.133    -4.111     1.358 
 C                     0.083    -2.695     1.502 
 C                     0.149    -5.715    -0.623 
 C                     0.096    -4.629     2.716 
 O                     0.208    -5.747     3.221 
 C                    -0.255    -3.428     3.701 
 C                     0.717    -3.482     4.848 
 O                     1.931    -3.255     4.669 
 O                     0.038    -3.556     6.003 
 C                     0.943    -3.583     7.183 
 H                    -1.859     3.22      2.497 
 H                    -0.218     2.453    -3.474 
 H                     0.276    -3.747    -2.605 
 H                    -1.554    -0.949     5.132 
 H                    -1.585     1.831     4.665 
 H                    -3.484    -0.377     3.969 
 H                    -3.511     1.027     2.858 
 H                    -3.852     1.301     4.543 
 H                     0.669     1.096     4.966 
 H                     1.13     -0.639     5.189 
 H                    -0.844     0.026     7.125 
 H                     0.062     1.477     6.921 
 H                    -1.344     5.186     1.938 
 H                    -1.651     5.963     0.432 
 H                     0.007     6.02      1.084 
 H                    -0.635     6.744    -1.405 
 H                     0.665     6.97     -2.704 
 H                     1.048     6.466    -1.036 
 H                     0.608     0.501    -4.891 
 H                    -0.692    -2.156    -4.547 
 H                    -1.267     0.74     -6.129 
 H                    -2.204     0.714    -4.596 
 H                    -1.967    -0.72     -5.453 
 H                     1.356    -1.759    -5.967 
 H                     1.452    -3.157    -4.902 
 H                     2.714    -0.522    -4.798 
 H                     3.487    -2.121    -4.529 
 H                     2.495    -1.303    -3.24 
 H                     0.867    -6.333    -0.084 
 H                     0.404    -5.642    -1.68 
 H                    -0.891    -5.999    -0.463 
 H                    -1.283    -3.581     4.028 
 H                     0.698    -4.478     7.755 
 H                     0.833    -2.619     7.68 
 H                     2.       -3.754     6.976 
 Mg                    15.76325   1.42773   1.20348 
 C                     17.95043   1.11108   4.03103 
 C                     13.15258   1.13036   3.37847 
 C                     13.82493   1.25142  -1.30237 
 C                     18.47076   0.56075  -0.81232 
 N                     15.68864   1.16055   3.39786 
 C                     16.58239   1.11581   4.37436 
 C                     15.97659   1.15478   5.80301 
 C                     14.51509   0.58443   5.46012 
 C                     14.42292   1.01215   3.99682 
 C                     14.43125  -0.93169   5.52076 
 C                     15.90352   2.6114    6.38175 
 C                     15.61255   2.69353   7.88186 
 H                     16.24542   3.7575    8.65639 
 N                     13.80301   1.70916   1.07382 
 C                     12.89345   1.56666   2.06058 
 C                     11.58865   1.868     1.45161 
 C                     11.78327   2.03926  -0.01382 
 C                     13.17149   1.6441   -0.14333 
 C                     10.33559   2.04595   2.25884 
 C                     10.86746   2.47304  -1.11805 
 O                     11.18086   2.32112  -2.35156 
 C                     9.55395   2.99501  -0.71342 
 N                     16.03906   0.76818  -0.74877 
 C                     15.04671   0.84892  -1.65246 
 C                     15.55598   0.57613  -3.04768 
 C                     17.14974   0.53312  -2.92252 
 C                     17.28836   0.70744  -1.3942 
 C                     15.06152  -0.7171   -3.69532 
 C                     17.95449   1.4835   -3.85088 
 C                     17.70868   2.92168  -3.45517 
 N                     17.87921   1.10335   1.49598 
 C                     18.82659   0.72233   0.5206 
 C                     20.11119   0.51345   1.2196 
 C                     19.81425   0.76709   2.56719 
 C                     18.4369   1.09015   2.7015 
 C                     21.32891   0.09299   0.61422 
 C                     20.3504   0.82461   3.90806 
 O                     21.47478   0.73133   4.39877 
 C                     19.13944   0.92643   4.93257 
 C                     19.45191   2.02305   5.91354 
 O                     19.52891   3.20556   5.53624 
 O                     19.39318   1.52669   7.16276 
 C                     19.68502   2.57936   8.17199 
 H                     12.27117   0.82006   3.94035 
 H                     13.22522   1.28147  -2.21501 
 H                     19.3847   0.3847   -1.38362 
 H                     16.46776   0.51058   6.52242 
 H                     13.74912   1.07977   6.05113 
 H                     15.40088  -1.38319   5.66944 
 H                     14.01114  -1.24123   4.57274 
 H                     13.71102  -1.23916   6.28434 
 H                     15.00703   3.10818   5.98899 
 H                     16.79997   3.156     6.15719 
 H                     15.74291   1.72544   8.38063 
 H                     14.55321   2.92452   8.01773 
 H                     10.46862   1.697     3.29031 
 H                     9.58495   1.3685    1.83759 
 H                     9.95115   3.06741   2.22017 
 H                     9.02571   2.23768  -0.13907 
 H                     9.07832   3.33574  -1.63514 
 H                     9.70782   3.84796  -0.04304 
 H                     15.27803   1.37521  -3.72393 
 H                     17.5506  -0.46256  -3.16288 
 H                     14.54926  -0.55295  -4.66213 
 H                     14.40464  -1.21893  -2.99732 
 H                     15.82941  -1.46855  -3.87101 
 H                     17.61246   1.38302  -4.88387 
 H                     19.02217   1.29111  -3.84499 
 H                     16.7697   3.16046  -3.9635 
 H                     18.51916   3.55872  -3.80351 
 H                     17.53109   3.00836  -2.37693 
 H                     22.11408   0.70679   1.03524 
 H                     21.28754   0.18678  -0.46895 
 H                     21.35564  -0.95181   0.93505 
 H                     19.04098  -0.04385   5.42087 
 H                     20.51299   2.21224   8.78629 
 H                     18.725    2.77519   8.68558 
 H                     20.08815   3.5193    7.81359 
 
 ITRead=  0  0  0  0  0  0  0  0  0  0  0  0  0  0  0  0  0  0  0  0
 ITRead=  0  0  0  0  0  0  0  0  0  0  0  0  0  0  0  0  0  0  0  0
 ITRead=  0  0  0  0  0  0  0  0  0  0  0  0  0  0  0  0  0  0  0  0
 ITRead=  0  0  0  0  0  0  0  0  0  0  0  0  0  0  0  0  0  0  0  0
 ITRead=  0  0  0  0  0  0  0  0  0  0  0  0  0  0  0  0  0  0  0  0
 ITRead=  0  0  0  0  0  0  0  0  0  0  0  0  0  0  0  0  0  0  0  0
 ITRead=  0  0  0  0  0  0  0  0  0  0  0  0  0  0  0  0  0  0  0  0
 ITRead=  0  0  0  0  0  0  0  0  0  0  0  0  0  0  0  0  0  0
 MicOpt= -1 -1 -1 -1 -1 -1 -1 -1 -1 -1 -1 -1 -1 -1 -1 -1 -1 -1 -1 -1
 MicOpt= -1 -1 -1 -1 -1 -1 -1 -1 -1 -1 -1 -1 -1 -1 -1 -1 -1 -1 -1 -1
 MicOpt= -1 -1 -1 -1 -1 -1 -1 -1 -1 -1 -1 -1 -1 -1 -1 -1 -1 -1 -1 -1
 MicOpt= -1 -1 -1 -1 -1 -1 -1 -1 -1 -1 -1 -1 -1 -1 -1 -1 -1 -1 -1 -1
 MicOpt= -1 -1 -1 -1 -1 -1 -1 -1 -1 -1 -1 -1 -1 -1 -1 -1 -1 -1 -1 -1
 MicOpt= -1 -1 -1 -1 -1 -1 -1 -1 -1 -1 -1 -1 -1 -1 -1 -1 -1 -1 -1 -1
 MicOpt= -1 -1 -1 -1 -1 -1 -1 -1 -1 -1 -1 -1 -1 -1 -1 -1 -1 -1 -1 -1
 MicOpt= -1 -1 -1 -1 -1 -1 -1 -1 -1 -1 -1 -1 -1 -1 -1 -1 -1 -1
 NAtoms=    158 NQM=      158 NQMF=       0 NMMI=      0 NMMIF=      0
                NMic=       0 NMicF=      0.
                    Isotopes and Nuclear Properties:
 (Nuclear quadrupole moments (NQMom) in fm**2, nuclear magnetic moments (NMagM)
  in nuclear magnetons)

  Atom         1           2           3           4           5           6           7           8           9          10
 IAtWgt=          24          12          12          12          12          14          12          12          12          12
 AtmWgt=  23.9850450  12.0000000  12.0000000  12.0000000  12.0000000  14.0030740  12.0000000  12.0000000  12.0000000  12.0000000
 NucSpn=           0           0           0           0           0           2           0           0           0           0
 AtZEff=  -0.0000000  -0.0000000  -0.0000000  -0.0000000  -0.0000000  -0.0000000  -0.0000000  -0.0000000  -0.0000000  -0.0000000
 NQMom=    0.0000000   0.0000000   0.0000000   0.0000000   0.0000000   2.0440000   0.0000000   0.0000000   0.0000000   0.0000000
 NMagM=    0.0000000   0.0000000   0.0000000   0.0000000   0.0000000   0.4037610   0.0000000   0.0000000   0.0000000   0.0000000
 AtZNuc=  12.0000000   6.0000000   6.0000000   6.0000000   6.0000000   7.0000000   6.0000000   6.0000000   6.0000000   6.0000000

  Atom        11          12          13          14          15          16          17          18          19          20
 IAtWgt=          12          12          12           1          14          12          12          12          12          12
 AtmWgt=  12.0000000  12.0000000  12.0000000   1.0078250  14.0030740  12.0000000  12.0000000  12.0000000  12.0000000  12.0000000
 NucSpn=           0           0           0           1           2           0           0           0           0           0
 AtZEff=  -0.0000000  -0.0000000  -0.0000000  -0.0000000  -0.0000000  -0.0000000  -0.0000000  -0.0000000  -0.0000000  -0.0000000
 NQMom=    0.0000000   0.0000000   0.0000000   0.0000000   2.0440000   0.0000000   0.0000000   0.0000000   0.0000000   0.0000000
 NMagM=    0.0000000   0.0000000   0.0000000   2.7928460   0.4037610   0.0000000   0.0000000   0.0000000   0.0000000   0.0000000
 AtZNuc=   6.0000000   6.0000000   6.0000000   1.0000000   7.0000000   6.0000000   6.0000000   6.0000000   6.0000000   6.0000000

  Atom        21          22          23          24          25          26          27          28          29          30
 IAtWgt=          12          16          12          14          12          12          12          12          12          12
 AtmWgt=  12.0000000  15.9949146  12.0000000  14.0030740  12.0000000  12.0000000  12.0000000  12.0000000  12.0000000  12.0000000
 NucSpn=           0           0           0           2           0           0           0           0           0           0
 AtZEff=  -0.0000000  -0.0000000  -0.0000000  -0.0000000  -0.0000000  -0.0000000  -0.0000000  -0.0000000  -0.0000000  -0.0000000
 NQMom=    0.0000000   0.0000000   0.0000000   2.0440000   0.0000000   0.0000000   0.0000000   0.0000000   0.0000000   0.0000000
 NMagM=    0.0000000   0.0000000   0.0000000   0.4037610   0.0000000   0.0000000   0.0000000   0.0000000   0.0000000   0.0000000
 AtZNuc=   6.0000000   8.0000000   6.0000000   7.0000000   6.0000000   6.0000000   6.0000000   6.0000000   6.0000000   6.0000000

  Atom        31          32          33          34          35          36          37          38          39          40
 IAtWgt=          12          14          12          12          12          12          12          12          16          12
 AtmWgt=  12.0000000  14.0030740  12.0000000  12.0000000  12.0000000  12.0000000  12.0000000  12.0000000  15.9949146  12.0000000
 NucSpn=           0           2           0           0           0           0           0           0           0           0
 AtZEff=  -0.0000000  -0.0000000  -0.0000000  -0.0000000  -0.0000000  -0.0000000  -0.0000000  -0.0000000  -0.0000000  -0.0000000
 NQMom=    0.0000000   2.0440000   0.0000000   0.0000000   0.0000000   0.0000000   0.0000000   0.0000000   0.0000000   0.0000000
 NMagM=    0.0000000   0.4037610   0.0000000   0.0000000   0.0000000   0.0000000   0.0000000   0.0000000   0.0000000   0.0000000
 AtZNuc=   6.0000000   7.0000000   6.0000000   6.0000000   6.0000000   6.0000000   6.0000000   6.0000000   8.0000000   6.0000000

  Atom        41          42          43          44          45          46          47          48          49          50
 IAtWgt=          12          16          16          12           1           1           1           1           1           1
 AtmWgt=  12.0000000  15.9949146  15.9949146  12.0000000   1.0078250   1.0078250   1.0078250   1.0078250   1.0078250   1.0078250
 NucSpn=           0           0           0           0           1           1           1           1           1           1
 AtZEff=  -0.0000000  -0.0000000  -0.0000000  -0.0000000  -0.0000000  -0.0000000  -0.0000000  -0.0000000  -0.0000000  -0.0000000
 NQMom=    0.0000000   0.0000000   0.0000000   0.0000000   0.0000000   0.0000000   0.0000000   0.0000000   0.0000000   0.0000000
 NMagM=    0.0000000   0.0000000   0.0000000   0.0000000   2.7928460   2.7928460   2.7928460   2.7928460   2.7928460   2.7928460
 AtZNuc=   6.0000000   8.0000000   8.0000000   6.0000000   1.0000000   1.0000000   1.0000000   1.0000000   1.0000000   1.0000000

  Atom        51          52          53          54          55          56          57          58          59          60
 IAtWgt=           1           1           1           1           1           1           1           1           1           1
 AtmWgt=   1.0078250   1.0078250   1.0078250   1.0078250   1.0078250   1.0078250   1.0078250   1.0078250   1.0078250   1.0078250
 NucSpn=           1           1           1           1           1           1           1           1           1           1
 AtZEff=  -0.0000000  -0.0000000  -0.0000000  -0.0000000  -0.0000000  -0.0000000  -0.0000000  -0.0000000  -0.0000000  -0.0000000
 NQMom=    0.0000000   0.0000000   0.0000000   0.0000000   0.0000000   0.0000000   0.0000000   0.0000000   0.0000000   0.0000000
 NMagM=    2.7928460   2.7928460   2.7928460   2.7928460   2.7928460   2.7928460   2.7928460   2.7928460   2.7928460   2.7928460
 AtZNuc=   1.0000000   1.0000000   1.0000000   1.0000000   1.0000000   1.0000000   1.0000000   1.0000000   1.0000000   1.0000000

  Atom        61          62          63          64          65          66          67          68          69          70
 IAtWgt=           1           1           1           1           1           1           1           1           1           1
 AtmWgt=   1.0078250   1.0078250   1.0078250   1.0078250   1.0078250   1.0078250   1.0078250   1.0078250   1.0078250   1.0078250
 NucSpn=           1           1           1           1           1           1           1           1           1           1
 AtZEff=  -0.0000000  -0.0000000  -0.0000000  -0.0000000  -0.0000000  -0.0000000  -0.0000000  -0.0000000  -0.0000000  -0.0000000
 NQMom=    0.0000000   0.0000000   0.0000000   0.0000000   0.0000000   0.0000000   0.0000000   0.0000000   0.0000000   0.0000000
 NMagM=    2.7928460   2.7928460   2.7928460   2.7928460   2.7928460   2.7928460   2.7928460   2.7928460   2.7928460   2.7928460
 AtZNuc=   1.0000000   1.0000000   1.0000000   1.0000000   1.0000000   1.0000000   1.0000000   1.0000000   1.0000000   1.0000000

  Atom        71          72          73          74          75          76          77          78          79          80
 IAtWgt=           1           1           1           1           1           1           1           1           1          24
 AtmWgt=   1.0078250   1.0078250   1.0078250   1.0078250   1.0078250   1.0078250   1.0078250   1.0078250   1.0078250  23.9850450
 NucSpn=           1           1           1           1           1           1           1           1           1           0
 AtZEff=  -0.0000000  -0.0000000  -0.0000000  -0.0000000  -0.0000000  -0.0000000  -0.0000000  -0.0000000  -0.0000000  -0.0000000
 NQMom=    0.0000000   0.0000000   0.0000000   0.0000000   0.0000000   0.0000000   0.0000000   0.0000000   0.0000000   0.0000000
 NMagM=    2.7928460   2.7928460   2.7928460   2.7928460   2.7928460   2.7928460   2.7928460   2.7928460   2.7928460   0.0000000
 AtZNuc=   1.0000000   1.0000000   1.0000000   1.0000000   1.0000000   1.0000000   1.0000000   1.0000000   1.0000000  12.0000000

  Atom        81          82          83          84          85          86          87          88          89          90
 IAtWgt=          12          12          12          12          14          12          12          12          12          12
 AtmWgt=  12.0000000  12.0000000  12.0000000  12.0000000  14.0030740  12.0000000  12.0000000  12.0000000  12.0000000  12.0000000
 NucSpn=           0           0           0           0           2           0           0           0           0           0
 AtZEff=  -0.0000000  -0.0000000  -0.0000000  -0.0000000  -0.0000000  -0.0000000  -0.0000000  -0.0000000  -0.0000000  -0.0000000
 NQMom=    0.0000000   0.0000000   0.0000000   0.0000000   2.0440000   0.0000000   0.0000000   0.0000000   0.0000000   0.0000000
 NMagM=    0.0000000   0.0000000   0.0000000   0.0000000   0.4037610   0.0000000   0.0000000   0.0000000   0.0000000   0.0000000
 AtZNuc=   6.0000000   6.0000000   6.0000000   6.0000000   7.0000000   6.0000000   6.0000000   6.0000000   6.0000000   6.0000000

  Atom        91          92          93          94          95          96          97          98          99         100
 IAtWgt=          12          12           1          14          12          12          12          12          12          12
 AtmWgt=  12.0000000  12.0000000   1.0078250  14.0030740  12.0000000  12.0000000  12.0000000  12.0000000  12.0000000  12.0000000
 NucSpn=           0           0           1           2           0           0           0           0           0           0
 AtZEff=  -0.0000000  -0.0000000  -0.0000000  -0.0000000  -0.0000000  -0.0000000  -0.0000000  -0.0000000  -0.0000000  -0.0000000
 NQMom=    0.0000000   0.0000000   0.0000000   2.0440000   0.0000000   0.0000000   0.0000000   0.0000000   0.0000000   0.0000000
 NMagM=    0.0000000   0.0000000   2.7928460   0.4037610   0.0000000   0.0000000   0.0000000   0.0000000   0.0000000   0.0000000
 AtZNuc=   6.0000000   6.0000000   1.0000000   7.0000000   6.0000000   6.0000000   6.0000000   6.0000000   6.0000000   6.0000000

  Atom       101         102         103         104         105         106         107         108         109         110
 IAtWgt=          16          12          14          12          12          12          12          12          12          12
 AtmWgt=  15.9949146  12.0000000  14.0030740  12.0000000  12.0000000  12.0000000  12.0000000  12.0000000  12.0000000  12.0000000
 NucSpn=           0           0           2           0           0           0           0           0           0           0
 AtZEff=  -0.0000000  -0.0000000  -0.0000000  -0.0000000  -0.0000000  -0.0000000  -0.0000000  -0.0000000  -0.0000000  -0.0000000
 NQMom=    0.0000000   0.0000000   2.0440000   0.0000000   0.0000000   0.0000000   0.0000000   0.0000000   0.0000000   0.0000000
 NMagM=    0.0000000   0.0000000   0.4037610   0.0000000   0.0000000   0.0000000   0.0000000   0.0000000   0.0000000   0.0000000
 AtZNuc=   8.0000000   6.0000000   7.0000000   6.0000000   6.0000000   6.0000000   6.0000000   6.0000000   6.0000000   6.0000000

  Atom       111         112         113         114         115         116         117         118         119         120
 IAtWgt=          14          12          12          12          12          12          12          16          12          12
 AtmWgt=  14.0030740  12.0000000  12.0000000  12.0000000  12.0000000  12.0000000  12.0000000  15.9949146  12.0000000  12.0000000
 NucSpn=           2           0           0           0           0           0           0           0           0           0
 AtZEff=  -0.0000000  -0.0000000  -0.0000000  -0.0000000  -0.0000000  -0.0000000  -0.0000000  -0.0000000  -0.0000000  -0.0000000
 NQMom=    2.0440000   0.0000000   0.0000000   0.0000000   0.0000000   0.0000000   0.0000000   0.0000000   0.0000000   0.0000000
 NMagM=    0.4037610   0.0000000   0.0000000   0.0000000   0.0000000   0.0000000   0.0000000   0.0000000   0.0000000   0.0000000
 AtZNuc=   7.0000000   6.0000000   6.0000000   6.0000000   6.0000000   6.0000000   6.0000000   8.0000000   6.0000000   6.0000000

  Atom       121         122         123         124         125         126         127         128         129         130
 IAtWgt=          16          16          12           1           1           1           1           1           1           1
 AtmWgt=  15.9949146  15.9949146  12.0000000   1.0078250   1.0078250   1.0078250   1.0078250   1.0078250   1.0078250   1.0078250
 NucSpn=           0           0           0           1           1           1           1           1           1           1
 AtZEff=  -0.0000000  -0.0000000  -0.0000000  -0.0000000  -0.0000000  -0.0000000  -0.0000000  -0.0000000  -0.0000000  -0.0000000
 NQMom=    0.0000000   0.0000000   0.0000000   0.0000000   0.0000000   0.0000000   0.0000000   0.0000000   0.0000000   0.0000000
 NMagM=    0.0000000   0.0000000   0.0000000   2.7928460   2.7928460   2.7928460   2.7928460   2.7928460   2.7928460   2.7928460
 AtZNuc=   8.0000000   8.0000000   6.0000000   1.0000000   1.0000000   1.0000000   1.0000000   1.0000000   1.0000000   1.0000000

  Atom       131         132         133         134         135         136         137         138         139         140
 IAtWgt=           1           1           1           1           1           1           1           1           1           1
 AtmWgt=   1.0078250   1.0078250   1.0078250   1.0078250   1.0078250   1.0078250   1.0078250   1.0078250   1.0078250   1.0078250
 NucSpn=           1           1           1           1           1           1           1           1           1           1
 AtZEff=  -0.0000000  -0.0000000  -0.0000000  -0.0000000  -0.0000000  -0.0000000  -0.0000000  -0.0000000  -0.0000000  -0.0000000
 NQMom=    0.0000000   0.0000000   0.0000000   0.0000000   0.0000000   0.0000000   0.0000000   0.0000000   0.0000000   0.0000000
 NMagM=    2.7928460   2.7928460   2.7928460   2.7928460   2.7928460   2.7928460   2.7928460   2.7928460   2.7928460   2.7928460
 AtZNuc=   1.0000000   1.0000000   1.0000000   1.0000000   1.0000000   1.0000000   1.0000000   1.0000000   1.0000000   1.0000000

  Atom       141         142         143         144         145         146         147         148         149         150
 IAtWgt=           1           1           1           1           1           1           1           1           1           1
 AtmWgt=   1.0078250   1.0078250   1.0078250   1.0078250   1.0078250   1.0078250   1.0078250   1.0078250   1.0078250   1.0078250
 NucSpn=           1           1           1           1           1           1           1           1           1           1
 AtZEff=  -0.0000000  -0.0000000  -0.0000000  -0.0000000  -0.0000000  -0.0000000  -0.0000000  -0.0000000  -0.0000000  -0.0000000
 NQMom=    0.0000000   0.0000000   0.0000000   0.0000000   0.0000000   0.0000000   0.0000000   0.0000000   0.0000000   0.0000000
 NMagM=    2.7928460   2.7928460   2.7928460   2.7928460   2.7928460   2.7928460   2.7928460   2.7928460   2.7928460   2.7928460
 AtZNuc=   1.0000000   1.0000000   1.0000000   1.0000000   1.0000000   1.0000000   1.0000000   1.0000000   1.0000000   1.0000000

  Atom       151         152         153         154         155         156         157         158
 IAtWgt=           1           1           1           1           1           1           1           1
 AtmWgt=   1.0078250   1.0078250   1.0078250   1.0078250   1.0078250   1.0078250   1.0078250   1.0078250
 NucSpn=           1           1           1           1           1           1           1           1
 AtZEff=  -0.0000000  -0.0000000  -0.0000000  -0.0000000  -0.0000000  -0.0000000  -0.0000000  -0.0000000
 NQMom=    0.0000000   0.0000000   0.0000000   0.0000000   0.0000000   0.0000000   0.0000000   0.0000000
 NMagM=    2.7928460   2.7928460   2.7928460   2.7928460   2.7928460   2.7928460   2.7928460   2.7928460
 AtZNuc=   1.0000000   1.0000000   1.0000000   1.0000000   1.0000000   1.0000000   1.0000000   1.0000000
 Leave Link  101 at Sun Sep 12 07:40:10 2021, MaxMem= 23488102400 cpu:               4.0 elap:               0.2
 (Enter /sw/apps/gaussian-16.0/g16/l202.exe)
 Stoichiometry    C68H72Mg2N8O8
 Framework group  C1[X(C68H72Mg2N8O8)]
 Deg. of freedom   468
 Full point group                 C1      NOp   1
 Largest Abelian subgroup         C1      NOp   1
 Largest concise Abelian subgroup C1      NOp   1
                         Standard orientation:                         
 ---------------------------------------------------------------------
 Center     Atomic      Atomic             Coordinates (Angstroms)
 Number     Number       Type             X           Y           Z
 ---------------------------------------------------------------------
      1         12           0        8.113535   -0.516966    0.166762
      2          6           0        8.250925    2.661113   -1.474321
      3          6           0        8.933692    1.105629    3.054251
      4          6           0        8.443731   -3.356091    1.540429
      5          6           0        8.428031   -1.988227   -2.976825
      6          7           0        8.514007    1.615258    0.607092
      7          6           0        8.475316    2.741448   -0.098153
      8          6           0        8.620711    4.023013    0.775819
      9          6           0        9.381345    3.390175    2.025999
     10          6           0        8.887096    1.958869    1.911954
     11          6           0       10.899910    3.398285    1.883182
     12          6           0        7.233994    4.619933    1.191069
     13          6           0        7.278747    6.039743    1.763336
     14          1           0        6.183096    6.949741    1.465339
     15          7           0        8.134003   -1.021534    2.076695
     16          6           0        8.478616   -0.229079    3.120027
     17          6           0        8.331459   -1.063723    4.331801
     18          6           0        8.056417   -2.459817    3.892066
     19          6           0        8.228576   -2.338533    2.466924
     20          6           0        8.404797   -0.514159    5.723330
     21          6           0        7.705958   -3.707849    4.638876
     22          8           0        7.736976   -4.861327    4.088331
     23          6           0        7.407160   -3.552633    6.074031
     24          7           0        8.615662   -2.402997   -0.573772
     25          6           0        8.630831   -3.476129    0.224439
     26          6           0        8.736974   -4.744961   -0.568492
     27          6           0        8.546070   -4.327725   -2.097944
     28          6           0        8.438849   -2.793973   -1.912530
     29          6           0       10.050243   -5.523989   -0.412129
     30          6           0        7.431190   -5.054499   -2.891204
     31          6           0        6.075530   -4.661903   -2.347923
     32          7           0        8.129320    0.172813   -1.891150
     33          6           0        8.295254   -0.611273   -3.041953
     34          6           0        8.344511    0.312124   -4.190421
     35          6           0        8.219629    1.578570   -3.622651
     36          6           0        8.126315    1.455786   -2.206844
     37          6           0        8.546634   -0.058049   -5.549301
     38          6           0        8.168068    3.008470   -3.880686
     39          8           0        8.108270    3.704998   -4.894967
     40          6           0        8.308772    3.773743   -2.491303
     41          6           0        7.236312    4.827657   -2.442262
     42          8           0        6.030606    4.511189   -2.383221
     43          8           0        7.800815    6.026965   -2.233605
     44          6           0        6.789008    7.113497   -2.145012
     45          1           0        9.414668    1.468384    3.964753
     46          1           0        8.452871   -4.362837    1.963297
     47          1           0        8.439553   -2.380080   -3.995536
     48          1           0        9.228423    4.810634    0.329992
     49          1           0        9.053332    3.830458    2.967423
     50          1           0       11.204726    3.720742    0.887677
     51          1           0       11.214691    2.370208    2.063357
     52          1           0       11.359912    3.994986    2.671295
     53          1           0        6.856620    4.081356    2.060313
     54          1           0        6.535086    4.590306    0.354423
     55          1           0        8.237932    6.519106    1.565639
     56          1           0        7.228815    5.971681    2.850109
     57          1           0        8.781597    0.507853    5.730953
     58          1           0        9.165252   -1.087982    6.252617
     59          1           0        7.452268   -0.595057    6.247234
     60          1           0        8.270571   -3.115698    6.576186
     61          1           0        7.091275   -4.534990    6.423375
     62          1           0        6.591403   -2.838401    6.189619
     63          1           0        7.952681   -5.447351   -0.289281
     64          1           0        9.447721   -4.502948   -2.685308
     65          1           0        9.912178   -6.552128   -0.076610
     66          1           0       10.690329   -4.971075    0.274798
     67          1           0       10.670986   -5.557790   -1.307089
     68          1           0        7.523776   -6.133598   -2.773226
     69          1           0        7.449476   -4.834806   -3.958749
     70          1           0        5.949472   -5.333552   -1.499496
     71          1           0        5.301860   -4.830584   -3.097717
     72          1           0        6.082205   -3.643450   -1.959086
     73          1           0        7.837595    0.528100   -6.133819
     74          1           0        8.392596   -1.126907   -5.695650
     75          1           0        9.586993    0.236504   -5.686225
     76          1           0        9.308720    4.205981   -2.471370
     77          1           0        7.056042    7.862352   -2.890761
     78          1           0        6.761017    7.426494   -1.101147
     79          1           0        5.777781    6.857608   -2.463258
     80         12           0       -7.755401   -0.886531    0.082456
     81          6           0      -10.175480    1.763183    0.046397
     82          6           0       -5.358146    1.509715    0.464269
     83          6           0       -5.569208   -3.148376   -0.332358
     84          6           0      -10.158789   -2.914669   -1.419575
     85          7           0       -7.875751    1.317479    0.224270
     86          6           0       -8.854535    2.209130    0.260096
     87          6           0       -8.400069    3.648941    0.620591
     88          6           0       -6.865984    3.539663    0.158534
     89          6           0       -6.667752    2.034253    0.323247
     90          6           0       -6.651343    3.892487   -1.303920
     91          6           0       -8.517504    3.945787    2.156856
     92          6           0       -8.386031    5.421858    2.538523
     93          1           0       -9.186828    5.927349    3.650123
     94          7           0       -5.825667   -0.907791    0.545306
     95          6           0       -5.009735    0.158511    0.681521
     96          6           0       -3.683539   -0.388683    1.006997
     97          6           0       -3.745992   -1.870922    0.889699
     98          6           0       -5.072791   -2.035431    0.330573
     99          6           0       -2.538445    0.469169    1.461194
    100          6           0       -2.767938   -2.959348    1.213641
    101          8           0       -2.941852   -4.163142    0.809314
    102          6           0       -1.554076   -2.555637    1.938239
    103          7           0       -7.774419   -2.694656   -0.943545
    104          6           0       -6.708452   -3.513871   -0.920451
    105          6           0       -7.049375   -4.868932   -1.493155
    106          6           0       -8.637162   -4.867462   -1.684247
    107          6           0       -8.942538   -3.416028   -1.253608
    108          6           0       -6.377554   -5.218112   -2.820974
    109          6           0       -9.428380   -6.020885   -1.008757
    110          6           0       -9.354749   -5.885670    0.495127
    111          7           0       -9.851754   -0.710410   -0.409838
    112          6           0      -10.658779   -1.669647   -1.059950
    113          6           0      -11.982317   -1.050195   -1.276642
    114          6           0      -11.845306    0.244671   -0.754093
    115          6           0      -10.523212    0.426629   -0.265770
    116          6           0      -13.090484   -1.661794   -1.927814
    117          6           0      -12.515318    1.502538   -0.514195
    118          8           0      -13.669847    1.909279   -0.638105
    119          6           0      -11.426669    2.584007   -0.099853
    120          6           0      -11.933510    3.311311    1.115324
    121          8           0      -12.079560    2.712238    2.195322
    122          8           0      -11.954670    4.632428    0.861204
    123          6           0      -12.439894    5.397370    2.040717
    124          1           0       -4.512566    2.189675    0.356902
    125          1           0       -4.886809   -3.998581   -0.402706
    126          1           0      -10.991523   -3.514517   -1.792937
    127          1           0       -8.899935    4.434976    0.067349
    128          1           0       -6.210813    4.086435    0.831702
    129          1           0       -7.585959    4.044791   -1.822993
    130          1           0       -6.112561    3.057319   -1.732006
    131          1           0       -5.985816    4.756236   -1.389563
    132          1           0       -7.635164    3.540135    2.668391
    133          1           0       -9.432845    3.550409    2.552415
    134          1           0       -8.477007    6.082454    1.667720
    135          1           0       -7.370846    5.596983    2.902872
    136          1           0       -2.741310    1.533780    1.291364
    137          1           0       -1.691214    0.245856    0.803789
    138          1           0       -2.246368    0.269328    2.494356
    139          1           0       -1.019114   -1.807562    1.358011
    140          1           0       -1.021918   -3.483530    2.156669
    141          1           0       -1.850718   -2.073351    2.876329
    142          1           0       -6.779141   -5.659294   -0.803663
    143          1           0       -8.920062   -4.946888   -2.744200
    144          1           0       -5.788584   -6.153772   -2.779369
    145          1           0       -5.750628   -4.386921   -3.115278
    146          1           0       -7.052743   -5.310174   -3.669999
    147          1           0       -8.977479   -6.985064   -1.256134
    148          1           0      -10.469449   -6.065258   -1.310743
    149          1           0       -8.395381   -6.352191    0.738171
    150          1           0      -10.180967   -6.412694    0.968042
    151          1           0       -9.294023   -4.832493    0.793095
    152          1           0      -13.966131   -1.429469   -1.336402
    153          1           0      -12.950136   -2.736178   -2.026642
    154          1           0      -13.054094   -1.152429   -2.894497
    155          1           0      -11.289671    3.253313   -0.950050
    156          1           0      -13.288169    6.000857    1.703215
    157          1           0      -11.557549    5.940736    2.427991
    158          1           0      -12.888967    4.836233    2.851835
 ---------------------------------------------------------------------
 Rotational constants (GHZ):           0.0258689           0.0055207           0.0051087
 Leave Link  202 at Sun Sep 12 07:40:10 2021, MaxMem= 23488102400 cpu:               0.2 elap:               0.0
 (Enter /sw/apps/gaussian-16.0/g16/l301.exe)
 Standard basis: def2SVP (5D, 7F)
 Ernie: Thresh=  0.10000D-02 Tol=  0.10000D-05 Strict=F.
 There are  1658 symmetry adapted cartesian basis functions of A   symmetry.
 There are  1572 symmetry adapted basis functions of A   symmetry.
  1572 basis functions,  2678 primitive gaussians,  1658 cartesian basis functions
   312 alpha electrons      312 beta electrons
       nuclear repulsion energy     13790.0408550022 Hartrees.
 IExCor=20419 DFT=T Ex+Corr=CAM-B3LYP ExCW=0 ScaHFX=  1.000000
 ScaDFX=  1.000000  1.000000  1.000000  0.810000 ScalE2=  1.000000  1.000000
 IRadAn=      5 IRanWt=     -1 IRanGd=            0 ICorTp=0 IEmpDi=  4
 HFx  wShort=  0.000000 wLong=  0.330000 cFull=  0.190000 cShort=  0.000000 cLong=  0.460000
 DFx  wShort=  0.000000 wLong=  0.330000 cFull=  0.190000 cShort=  0.000000 cLong=  0.460000
 NAtoms=  158 NActive=  158 NUniq=  158 SFac= 1.00D+00 NAtFMM=   60 NAOKFM=T Big=T
 Integral buffers will be    131072 words long.
 Raffenetti 1 integral format.
 Two-electron integral symmetry is turned on.
 Leave Link  301 at Sun Sep 12 07:40:10 2021, MaxMem= 23488102400 cpu:               1.3 elap:               0.1
 (Enter /sw/apps/gaussian-16.0/g16/l302.exe)
 NPDir=0 NMtPBC=     1 NCelOv=     1 NCel=       1 NClECP=     1 NCelD=      1
         NCelK=      1 NCelE2=     1 NClLst=     1 CellRange=     0.0.
 One-electron integrals computed using PRISM.
 One-electron integral symmetry used in STVInt
   1 Symmetry operations used in ECPInt.
 ECPInt:  NShTT=  271216 NPrTT=  987664 LenC2=  112630 LenP2D=  251445.
 LDataN:  DoStor=T MaxTD1= 4 Len=   56
 NBasis=  1572 RedAO= T EigKep=  3.36D-04  NBF=  1572
 NBsUse=  1572 1.00D-06 EigRej= -1.00D+00 NBFU=  1572
 Precomputing XC quadrature grid using
 IXCGrd= 4 IRadAn=           5 IRanWt=          -1 IRanGd=           0 AccXCQ= 0.00D+00.
 Generated NRdTot=       0 NPtTot=           0 NUsed=           0 NTot=          32
 NSgBfM=  1418  1418  1418  1418  1418 MxSgAt=   158 MxSgA2=   158.
 Leave Link  302 at Sun Sep 12 07:40:15 2021, MaxMem= 23488102400 cpu:             117.1 elap:               4.9
 (Enter /sw/apps/gaussian-16.0/g16/l303.exe)
 DipDrv:  MaxL=1.
 Leave Link  303 at Sun Sep 12 07:40:15 2021, MaxMem= 23488102400 cpu:               8.5 elap:               0.4
 (Enter /sw/apps/gaussian-16.0/g16/l308.exe)
 Leave Link  308 at Sun Sep 12 07:40:16 2021, MaxMem= 23488102400 cpu:              15.7 elap:               0.7
 (Enter /sw/apps/gaussian-16.0/g16/l401.exe)
 ExpMin= 3.36D-02 ExpMax= 4.95D+03 ExpMxC= 7.45D+02 IAcc=3 IRadAn=         5 AccDes= 0.00D+00
 Harris functional with IExCor=20419 and IRadAn=       5 diagonalized for initial guess.
 HarFok:  IExCor=20419 AccDes= 0.00D+00 IRadAn=         5 IDoV= 1 UseB2=F ITyADJ=14
 ICtDFT=  3500011 ScaDFX=  1.000000  1.000000  1.000000  1.000000
 FoFCou: FMM=F IPFlag=           0 FMFlag=      100000 FMFlg1=        2001
         NFxFlg=           0 DoJE=T BraDBF=F KetDBF=T FulRan=T
         wScrn=  0.000000 ICntrl=       500 IOpCl=  0 I1Cent=   200000004 NGrid=           0
         NMat0=    1 NMatS0=      1 NMatT0=    0 NMatD0=    1 NMtDS0=    0 NMtDT0=    0
 Petite list used in FoFCou.
 Harris En= -3918.65801865331    
 JPrj=0 DoOrth=F DoCkMO=F.
 Leave Link  401 at Sun Sep 12 07:40:23 2021, MaxMem= 23488102400 cpu:             169.7 elap:               7.1
 (Enter /sw/apps/gaussian-16.0/g16/l502.exe)
 Integral symmetry usage will be decided dynamically.
 Closed shell SCF:
 Using DIIS extrapolation, IDIIS=  1040.
 NGot= 23488102400 LenX= 23482547354 LenY= 23479796732
 Requested convergence on RMS density matrix=1.00D-08 within 128 cycles.
 Requested convergence on MAX density matrix=1.00D-06.
 Requested convergence on             energy=1.00D-06.
 No special actions if energy rises.
 Fock matrices will be formed incrementally for  20 cycles.

 Cycle   1  Pass 1  IDiag  1:
 FoFJK:  IHMeth= 1 ICntrl=       0 DoSepK=T KAlg= 0 I1Cent=           0 FoldK=F
 IRaf=         1 NMat=       1 IRICut=       1 DoRegI=T DoRafI=F ISym2E= 0 IDoP0=0 IntGTp=1.
 FoFCou: FMM=T IPFlag=           0 FMFlag=      100000 FMFlg1=        2001
         NFxFlg=           0 DoJE=T BraDBF=F KetDBF=F FulRan=T
         wScrn=  0.000000 ICntrl=       500 IOpCl=  0 I1Cent=           0 NGrid=           0
         NMat0=    1 NMatS0=      1 NMatT0=    0 NMatD0=    1 NMtDS0=    0 NMtDT0=    0
 Symmetry not used in FoFCou.
 FMM levels:  10  Number of levels for PrismC:   9
 E= -4068.94932764520    
 DIIS: error= 2.04D-02 at cycle   1 NSaved=   1.
 NSaved= 1 IEnMin= 1 EnMin= -4068.94932764520     IErMin= 1 ErrMin= 2.04D-02
 ErrMax= 2.04D-02  0.00D+00 EMaxC= 1.00D-01 BMatC= 1.69D+00 BMatP= 1.69D+00
 IDIUse=3 WtCom= 7.96D-01 WtEn= 2.04D-01
 Coeff-Com:  0.100D+01
 Coeff-En:   0.100D+01
 Coeff:      0.100D+01
 Gap=     0.120 Goal=   None    Shift=    0.000
 GapD=    0.120 DampG=1.000 DampE=0.500 DampFc=0.5000 IDamp=-1.
 Damping current iteration by 5.00D-01
 RMSDP=1.57D-03 MaxDP=1.35D-01              OVMax= 2.03D-01

 Cycle   2  Pass 1  IDiag  1:
 RMSU=  7.69D-04    CP:  9.82D-01
 E= -4069.33828266955     Delta-E=       -0.388955024344 Rises=F Damp=T
 DIIS: error= 1.27D-02 at cycle   2 NSaved=   2.
 NSaved= 2 IEnMin= 2 EnMin= -4069.33828266955     IErMin= 2 ErrMin= 1.27D-02
 ErrMax= 1.27D-02  0.00D+00 EMaxC= 1.00D-01 BMatC= 3.07D-01 BMatP= 1.69D+00
 IDIUse=3 WtCom= 8.73D-01 WtEn= 1.27D-01
 Coeff-Com: -0.213D+00 0.121D+01
 Coeff-En:   0.000D+00 0.100D+01
 Coeff:     -0.186D+00 0.119D+01
 Gap=     0.135 Goal=   None    Shift=    0.000
 RMSDP=7.65D-04 MaxDP=9.42D-02 DE=-3.89D-01 OVMax= 1.89D-01

 Cycle   3  Pass 1  IDiag  1:
 RMSU=  7.32D-04    CP:  9.68D-01  1.24D+00
 E= -4069.62814924688     Delta-E=       -0.289866577332 Rises=F Damp=F
 DIIS: error= 1.57D-02 at cycle   3 NSaved=   3.
 NSaved= 3 IEnMin= 3 EnMin= -4069.62814924688     IErMin= 2 ErrMin= 1.27D-02
 ErrMax= 1.57D-02  0.00D+00 EMaxC= 1.00D-01 BMatC= 2.01D-01 BMatP= 3.07D-01
 IDIUse=3 WtCom= 8.43D-01 WtEn= 1.57D-01
 Coeff-Com: -0.267D+00 0.651D+00 0.616D+00
 Coeff-En:   0.000D+00 0.000D+00 0.100D+01
 Coeff:     -0.225D+00 0.549D+00 0.676D+00
 Gap=     0.122 Goal=   None    Shift=    0.000
 RMSDP=5.07D-04 MaxDP=5.00D-02 DE=-2.90D-01 OVMax= 1.42D-01

 Cycle   4  Pass 1  IDiag  1:
 RMSU=  2.65D-04    CP:  9.65D-01  1.55D+00  5.07D-01
 E= -4069.76538926077     Delta-E=       -0.137240013893 Rises=F Damp=F
 DIIS: error= 7.24D-03 at cycle   4 NSaved=   4.
 NSaved= 4 IEnMin= 4 EnMin= -4069.76538926077     IErMin= 4 ErrMin= 7.24D-03
 ErrMax= 7.24D-03  0.00D+00 EMaxC= 1.00D-01 BMatC= 5.01D-02 BMatP= 2.01D-01
 IDIUse=3 WtCom= 9.28D-01 WtEn= 7.24D-02
 Coeff-Com: -0.109D+00 0.226D+00 0.408D+00 0.475D+00
 Coeff-En:   0.000D+00 0.000D+00 0.220D+00 0.780D+00
 Coeff:     -0.101D+00 0.210D+00 0.395D+00 0.497D+00
 Gap=     0.121 Goal=   None    Shift=    0.000
 RMSDP=1.99D-04 MaxDP=2.06D-02 DE=-1.37D-01 OVMax= 6.17D-02

 Cycle   5  Pass 1  IDiag  1:
 RMSU=  7.56D-05    CP:  9.64D-01  1.49D+00  6.89D-01  5.50D-01
 E= -4069.81065461140     Delta-E=       -0.045265350625 Rises=F Damp=F
 DIIS: error= 7.83D-04 at cycle   5 NSaved=   5.
 NSaved= 5 IEnMin= 5 EnMin= -4069.81065461140     IErMin= 5 ErrMin= 7.83D-04
 ErrMax= 7.83D-04  0.00D+00 EMaxC= 1.00D-01 BMatC= 1.15D-03 BMatP= 5.01D-02
 IDIUse=3 WtCom= 9.92D-01 WtEn= 7.83D-03
 Coeff-Com: -0.357D-01 0.701D-01 0.165D+00 0.249D+00 0.552D+00
 Coeff-En:   0.000D+00 0.000D+00 0.000D+00 0.000D+00 0.100D+01
 Coeff:     -0.355D-01 0.696D-01 0.163D+00 0.247D+00 0.556D+00
 Gap=     0.121 Goal=   None    Shift=    0.000
 RMSDP=4.05D-05 MaxDP=4.14D-03 DE=-4.53D-02 OVMax= 1.63D-02

 Cycle   6  Pass 1  IDiag  1:
 RMSU=  3.01D-05    CP:  9.64D-01  1.49D+00  6.81D-01  6.22D-01  7.60D-01
 E= -4069.81165394810     Delta-E=       -0.000999336702 Rises=F Damp=F
 DIIS: error= 2.15D-04 at cycle   6 NSaved=   6.
 NSaved= 6 IEnMin= 6 EnMin= -4069.81165394810     IErMin= 6 ErrMin= 2.15D-04
 ErrMax= 2.15D-04  0.00D+00 EMaxC= 1.00D-01 BMatC= 1.75D-04 BMatP= 1.15D-03
 IDIUse=3 WtCom= 9.98D-01 WtEn= 2.15D-03
 Coeff-Com:  0.231D-02-0.678D-02 0.107D-01 0.395D-01 0.307D+00 0.648D+00
 Coeff-En:   0.000D+00 0.000D+00 0.000D+00 0.000D+00 0.104D+00 0.896D+00
 Coeff:      0.231D-02-0.677D-02 0.107D-01 0.394D-01 0.306D+00 0.648D+00
 Gap=     0.121 Goal=   None    Shift=    0.000
 RMSDP=1.58D-05 MaxDP=1.21D-03 DE=-9.99D-04 OVMax= 7.26D-03

 Cycle   7  Pass 1  IDiag  1:
 RMSU=  1.06D-05    CP:  9.64D-01  1.50D+00  6.87D-01  6.21D-01  8.61D-01
                    CP:  7.50D-01
 E= -4069.81184237183     Delta-E=       -0.000188423728 Rises=F Damp=F
 DIIS: error= 8.25D-05 at cycle   7 NSaved=   7.
 NSaved= 7 IEnMin= 7 EnMin= -4069.81184237183     IErMin= 7 ErrMin= 8.25D-05
 ErrMax= 8.25D-05  0.00D+00 EMaxC= 1.00D-01 BMatC= 2.06D-05 BMatP= 1.75D-04
 IDIUse=1 WtCom= 1.00D+00 WtEn= 0.00D+00
 Coeff-Com:  0.445D-02-0.973D-02-0.900D-02-0.390D-02 0.102D+00 0.329D+00
 Coeff-Com:  0.587D+00
 Coeff:      0.445D-02-0.973D-02-0.900D-02-0.390D-02 0.102D+00 0.329D+00
 Coeff:      0.587D+00
 Gap=     0.121 Goal=   None    Shift=    0.000
 RMSDP=6.45D-06 MaxDP=1.09D-03 DE=-1.88D-04 OVMax= 3.41D-03

 Cycle   8  Pass 1  IDiag  1:
 RMSU=  4.65D-06    CP:  9.64D-01  1.50D+00  6.88D-01  6.26D-01  8.65D-01
                    CP:  8.75D-01  8.23D-01
 E= -4069.81186783294     Delta-E=       -0.000025461108 Rises=F Damp=F
 DIIS: error= 5.08D-05 at cycle   8 NSaved=   8.
 NSaved= 8 IEnMin= 8 EnMin= -4069.81186783294     IErMin= 8 ErrMin= 5.08D-05
 ErrMax= 5.08D-05  0.00D+00 EMaxC= 1.00D-01 BMatC= 4.81D-06 BMatP= 2.06D-05
 IDIUse=1 WtCom= 1.00D+00 WtEn= 0.00D+00
 Coeff-Com:  0.215D-02-0.426D-02-0.774D-02-0.121D-01-0.117D-01 0.336D-01
 Coeff-Com:  0.345D+00 0.655D+00
 Coeff:      0.215D-02-0.426D-02-0.774D-02-0.121D-01-0.117D-01 0.336D-01
 Coeff:      0.345D+00 0.655D+00
 Gap=     0.121 Goal=   None    Shift=    0.000
 RMSDP=3.26D-06 MaxDP=3.60D-04 DE=-2.55D-05 OVMax= 1.14D-03

 Cycle   9  Pass 1  IDiag  1:
 RMSU=  1.90D-06    CP:  9.64D-01  1.50D+00  6.88D-01  6.27D-01  8.82D-01
                    CP:  9.01D-01  1.02D+00  9.38D-01
 E= -4069.81187547429     Delta-E=       -0.000007641349 Rises=F Damp=F
 DIIS: error= 1.90D-05 at cycle   9 NSaved=   9.
 NSaved= 9 IEnMin= 9 EnMin= -4069.81187547429     IErMin= 9 ErrMin= 1.90D-05
 ErrMax= 1.90D-05  0.00D+00 EMaxC= 1.00D-01 BMatC= 6.81D-07 BMatP= 4.81D-06
 IDIUse=1 WtCom= 1.00D+00 WtEn= 0.00D+00
 Coeff-Com:  0.466D-03-0.776D-03-0.266D-02-0.597D-02-0.212D-01-0.382D-01
 Coeff-Com:  0.105D+00 0.325D+00 0.638D+00
 Coeff:      0.466D-03-0.776D-03-0.266D-02-0.597D-02-0.212D-01-0.382D-01
 Coeff:      0.105D+00 0.325D+00 0.638D+00
 Gap=     0.121 Goal=   None    Shift=    0.000
 RMSDP=1.40D-06 MaxDP=1.47D-04 DE=-7.64D-06 OVMax= 7.45D-04

 Cycle  10  Pass 1  IDiag  1:
 RMSU=  9.30D-07    CP:  9.64D-01  1.50D+00  6.88D-01  6.28D-01  8.85D-01
                    CP:  9.14D-01  1.07D+00  1.10D+00  1.05D+00
 E= -4069.81187702816     Delta-E=       -0.000001553875 Rises=F Damp=F
 DIIS: error= 1.04D-05 at cycle  10 NSaved=  10.
 NSaved=10 IEnMin=10 EnMin= -4069.81187702816     IErMin=10 ErrMin= 1.04D-05
 ErrMax= 1.04D-05  0.00D+00 EMaxC= 1.00D-01 BMatC= 1.69D-07 BMatP= 6.81D-07
 IDIUse=1 WtCom= 1.00D+00 WtEn= 0.00D+00
 Coeff-Com: -0.422D-03 0.885D-03 0.122D-02 0.110D-02-0.383D-02-0.308D-01
 Coeff-Com: -0.460D-01-0.751D-01 0.255D+00 0.898D+00
 Coeff:     -0.422D-03 0.885D-03 0.122D-02 0.110D-02-0.383D-02-0.308D-01
 Coeff:     -0.460D-01-0.751D-01 0.255D+00 0.898D+00
 Gap=     0.121 Goal=   None    Shift=    0.000
 RMSDP=1.20D-06 MaxDP=1.24D-04 DE=-1.55D-06 OVMax= 6.08D-04

 Cycle  11  Pass 1  IDiag  1:
 RMSU=  5.08D-07    CP:  9.64D-01  1.50D+00  6.88D-01  6.28D-01  8.88D-01
                    CP:  9.24D-01  1.11D+00  1.21D+00  1.38D+00  1.37D+00
 E= -4069.81187779210     Delta-E=       -0.000000763939 Rises=F Damp=F
 DIIS: error= 3.99D-06 at cycle  11 NSaved=  11.
 NSaved=11 IEnMin=11 EnMin= -4069.81187779210     IErMin=11 ErrMin= 3.99D-06
 ErrMax= 3.99D-06  0.00D+00 EMaxC= 1.00D-01 BMatC= 5.96D-08 BMatP= 1.69D-07
 IDIUse=1 WtCom= 1.00D+00 WtEn= 0.00D+00
 Coeff-Com: -0.324D-03 0.630D-03 0.131D-02 0.209D-02 0.432D-02-0.837D-02
 Coeff-Com: -0.432D-01-0.131D+00-0.218D-01 0.463D+00 0.733D+00
 Coeff:     -0.324D-03 0.630D-03 0.131D-02 0.209D-02 0.432D-02-0.837D-02
 Coeff:     -0.432D-01-0.131D+00-0.218D-01 0.463D+00 0.733D+00
 Gap=     0.121 Goal=   None    Shift=    0.000
 RMSDP=6.73D-07 MaxDP=5.62D-05 DE=-7.64D-07 OVMax= 3.59D-04

 Cycle  12  Pass 1  IDiag  1:
 RMSU=  2.60D-07    CP:  9.64D-01  1.50D+00  6.88D-01  6.28D-01  8.89D-01
                    CP:  9.26D-01  1.14D+00  1.27D+00  1.55D+00  1.75D+00
                    CP:  1.20D+00
 E= -4069.81187804530     Delta-E=       -0.000000253200 Rises=F Damp=F
 DIIS: error= 2.37D-06 at cycle  12 NSaved=  12.
 NSaved=12 IEnMin=12 EnMin= -4069.81187804530     IErMin=12 ErrMin= 2.37D-06
 ErrMax= 2.37D-06  0.00D+00 EMaxC= 1.00D-01 BMatC= 1.45D-08 BMatP= 5.96D-08
 IDIUse=1 WtCom= 1.00D+00 WtEn= 0.00D+00
 Coeff-Com: -0.228D-05-0.118D-04 0.185D-03 0.515D-03 0.327D-02 0.391D-02
 Coeff-Com:  0.242D-02-0.352D-01-0.672D-01-0.723D-01 0.255D+00 0.909D+00
 Coeff:     -0.228D-05-0.118D-04 0.185D-03 0.515D-03 0.327D-02 0.391D-02
 Coeff:      0.242D-02-0.352D-01-0.672D-01-0.723D-01 0.255D+00 0.909D+00
 Gap=     0.121 Goal=   None    Shift=    0.000
 RMSDP=4.26D-07 MaxDP=3.06D-05 DE=-2.53D-07 OVMax= 2.41D-04

 Cycle  13  Pass 1  IDiag  1:
 RMSU=  1.63D-07    CP:  9.64D-01  1.50D+00  6.88D-01  6.28D-01  8.89D-01
                    CP:  9.26D-01  1.14D+00  1.30D+00  1.66D+00  1.97D+00
                    CP:  1.61D+00  1.26D+00
 E= -4069.81187813381     Delta-E=       -0.000000088505 Rises=F Damp=F
 DIIS: error= 1.21D-06 at cycle  13 NSaved=  13.
 NSaved=13 IEnMin=13 EnMin= -4069.81187813381     IErMin=13 ErrMin= 1.21D-06
 ErrMax= 1.21D-06  0.00D+00 EMaxC= 1.00D-01 BMatC= 7.87D-09 BMatP= 1.45D-08
 IDIUse=1 WtCom= 1.00D+00 WtEn= 0.00D+00
 Coeff-Com:  0.118D-03-0.242D-03-0.363D-03-0.448D-03 0.583D-03 0.504D-02
 Coeff-Com:  0.195D-01 0.224D-01-0.342D-01-0.239D+00-0.152D+00 0.593D+00
 Coeff-Com:  0.787D+00
 Coeff:      0.118D-03-0.242D-03-0.363D-03-0.448D-03 0.583D-03 0.504D-02
 Coeff:      0.195D-01 0.224D-01-0.342D-01-0.239D+00-0.152D+00 0.593D+00
 Coeff:      0.787D+00
 Gap=     0.121 Goal=   None    Shift=    0.000
 RMSDP=3.33D-07 MaxDP=2.15D-05 DE=-8.85D-08 OVMax= 1.90D-04

 Cycle  14  Pass 1  IDiag  1:
 RMSU=  7.54D-08    CP:  9.64D-01  1.50D+00  6.88D-01  6.28D-01  8.89D-01
                    CP:  9.27D-01  1.15D+00  1.32D+00  1.73D+00  2.16D+00
                    CP:  1.87D+00  1.78D+00  1.09D+00
 E= -4069.81187816854     Delta-E=       -0.000000034735 Rises=F Damp=F
 DIIS: error= 6.31D-07 at cycle  14 NSaved=  14.
 NSaved=14 IEnMin=14 EnMin= -4069.81187816854     IErMin=14 ErrMin= 6.31D-07
 ErrMax= 6.31D-07  0.00D+00 EMaxC= 1.00D-01 BMatC= 1.24D-09 BMatP= 7.87D-09
 IDIUse=1 WtCom= 1.00D+00 WtEn= 0.00D+00
 Coeff-Com:  0.661D-04-0.130D-03-0.245D-03-0.384D-03-0.476D-03 0.131D-02
 Coeff-Com:  0.107D-01 0.191D-01 0.326D-02-0.998D-01-0.142D+00 0.912D-01
 Coeff-Com:  0.408D+00 0.710D+00
 Coeff:      0.661D-04-0.130D-03-0.245D-03-0.384D-03-0.476D-03 0.131D-02
 Coeff:      0.107D-01 0.191D-01 0.326D-02-0.998D-01-0.142D+00 0.912D-01
 Coeff:      0.408D+00 0.710D+00
 Gap=     0.121 Goal=   None    Shift=    0.000
 RMSDP=1.01D-07 MaxDP=7.13D-06 DE=-3.47D-08 OVMax= 5.34D-05

 Cycle  15  Pass 1  IDiag  1:
 RMSU=  3.79D-08    CP:  9.64D-01  1.50D+00  6.88D-01  6.28D-01  8.89D-01
                    CP:  9.27D-01  1.15D+00  1.33D+00  1.74D+00  2.20D+00
                    CP:  1.98D+00  1.91D+00  1.33D+00  1.02D+00
 E= -4069.81187817236     Delta-E=       -0.000000003824 Rises=F Damp=F
 DIIS: error= 3.22D-07 at cycle  15 NSaved=  15.
 NSaved=15 IEnMin=15 EnMin= -4069.81187817236     IErMin=15 ErrMin= 3.22D-07
 ErrMax= 3.22D-07  0.00D+00 EMaxC= 1.00D-01 BMatC= 2.18D-10 BMatP= 1.24D-09
 IDIUse=1 WtCom= 1.00D+00 WtEn= 0.00D+00
 Coeff-Com:  0.560D-05-0.943D-05-0.331D-04-0.820D-04-0.298D-03-0.495D-03
 Coeff-Com:  0.117D-02 0.263D-02 0.858D-02 0.122D-02-0.310D-01-0.729D-01
 Coeff-Com:  0.317D-01 0.296D+00 0.764D+00
 Coeff:      0.560D-05-0.943D-05-0.331D-04-0.820D-04-0.298D-03-0.495D-03
 Coeff:      0.117D-02 0.263D-02 0.858D-02 0.122D-02-0.310D-01-0.729D-01
 Coeff:      0.317D-01 0.296D+00 0.764D+00
 Gap=     0.121 Goal=   None    Shift=    0.000
 RMSDP=3.98D-08 MaxDP=2.75D-06 DE=-3.82D-09 OVMax= 2.62D-05

 Cycle  16  Pass 1  IDiag  1:
 RMSU=  1.84D-08    CP:  9.64D-01  1.50D+00  6.88D-01  6.28D-01  8.89D-01
                    CP:  9.27D-01  1.15D+00  1.33D+00  1.75D+00  2.22D+00
                    CP:  2.00D+00  1.97D+00  1.40D+00  1.24D+00  1.14D+00
 E= -4069.81187817344     Delta-E=       -0.000000001080 Rises=F Damp=F
 DIIS: error= 1.63D-07 at cycle  16 NSaved=  16.
 NSaved=16 IEnMin=16 EnMin= -4069.81187817344     IErMin=16 ErrMin= 1.63D-07
 ErrMax= 1.63D-07  0.00D+00 EMaxC= 1.00D-01 BMatC= 8.07D-11 BMatP= 2.18D-10
 IDIUse=1 WtCom= 1.00D+00 WtEn= 0.00D+00
 Coeff-Com: -0.139D-04 0.283D-04 0.461D-04 0.525D-04-0.292D-04-0.627D-03
 Coeff-Com: -0.195D-02-0.417D-02 0.455D-02 0.253D-01 0.203D-01-0.645D-01
 Coeff-Com: -0.821D-01-0.384D-01 0.400D+00 0.741D+00
 Coeff:     -0.139D-04 0.283D-04 0.461D-04 0.525D-04-0.292D-04-0.627D-03
 Coeff:     -0.195D-02-0.417D-02 0.455D-02 0.253D-01 0.203D-01-0.645D-01
 Coeff:     -0.821D-01-0.384D-01 0.400D+00 0.741D+00
 Gap=     0.121 Goal=   None    Shift=    0.000
 RMSDP=2.27D-08 MaxDP=1.58D-06 DE=-1.08D-09 OVMax= 1.25D-05

 Cycle  17  Pass 1  IDiag  1:
 RMSU=  1.02D-08    CP:  9.64D-01  1.50D+00  6.88D-01  6.28D-01  8.89D-01
                    CP:  9.27D-01  1.15D+00  1.33D+00  1.75D+00  2.22D+00
                    CP:  2.01D+00  2.00D+00  1.45D+00  1.33D+00  1.44D+00
                    CP:  1.25D+00
 E= -4069.81187817348     Delta-E=       -0.000000000033 Rises=F Damp=F
 DIIS: error= 9.19D-08 at cycle  17 NSaved=  17.
 NSaved=17 IEnMin=17 EnMin= -4069.81187817348     IErMin=17 ErrMin= 9.19D-08
 ErrMax= 9.19D-08  0.00D+00 EMaxC= 1.00D-01 BMatC= 1.71D-11 BMatP= 8.07D-11
 IDIUse=1 WtCom= 1.00D+00 WtEn= 0.00D+00
 Coeff-Com: -0.711D-05 0.138D-04 0.282D-04 0.418D-04 0.820D-04-0.124D-03
 Coeff-Com: -0.954D-03-0.277D-02 0.186D-03 0.913D-02 0.174D-01-0.726D-02
 Coeff-Com: -0.362D-01-0.101D+00-0.284D-01 0.287D+00 0.863D+00
 Coeff:     -0.711D-05 0.138D-04 0.282D-04 0.418D-04 0.820D-04-0.124D-03
 Coeff:     -0.954D-03-0.277D-02 0.186D-03 0.913D-02 0.174D-01-0.726D-02
 Coeff:     -0.362D-01-0.101D+00-0.284D-01 0.287D+00 0.863D+00
 Gap=     0.121 Goal=   None    Shift=    0.000
 RMSDP=1.35D-08 MaxDP=1.04D-06 DE=-3.27D-11 OVMax= 8.75D-06

 Cycle  18  Pass 1  IDiag  1:
 RMSU=  4.81D-09    CP:  9.64D-01  1.50D+00  6.88D-01  6.28D-01  8.89D-01
                    CP:  9.27D-01  1.15D+00  1.33D+00  1.75D+00  2.22D+00
                    CP:  2.02D+00  2.01D+00  1.47D+00  1.40D+00  1.61D+00
                    CP:  1.66D+00  1.40D+00
 E= -4069.81187817352     Delta-E=       -0.000000000044 Rises=F Damp=F
 DIIS: error= 5.17D-08 at cycle  18 NSaved=  18.
 NSaved=18 IEnMin=18 EnMin= -4069.81187817352     IErMin=18 ErrMin= 5.17D-08
 ErrMax= 5.17D-08  0.00D+00 EMaxC= 1.00D-01 BMatC= 6.88D-12 BMatP= 1.71D-11
 IDIUse=1 WtCom= 1.00D+00 WtEn= 0.00D+00
 Coeff-Com:  0.199D-05-0.428D-05-0.436D-05-0.150D-05 0.591D-04 0.180D-03
 Coeff-Com:  0.395D-03 0.206D-03-0.127D-02-0.611D-02 0.286D-05 0.200D-01
 Coeff-Com:  0.185D-01-0.326D-01-0.161D+00-0.197D+00 0.354D+00 0.100D+01
 Coeff:      0.199D-05-0.428D-05-0.436D-05-0.150D-05 0.591D-04 0.180D-03
 Coeff:      0.395D-03 0.206D-03-0.127D-02-0.611D-02 0.286D-05 0.200D-01
 Coeff:      0.185D-01-0.326D-01-0.161D+00-0.197D+00 0.354D+00 0.100D+01
 Gap=     0.121 Goal=   None    Shift=    0.000
 RMSDP=1.16D-08 MaxDP=8.06D-07 DE=-4.37D-11 OVMax= 6.56D-06

 Cycle  19  Pass 1  IDiag  1:
 RMSU=  2.76D-09    CP:  9.64D-01  1.50D+00  6.88D-01  6.28D-01  8.89D-01
                    CP:  9.27D-01  1.15D+00  1.33D+00  1.75D+00  2.22D+00
                    CP:  2.02D+00  2.01D+00  1.48D+00  1.45D+00  1.76D+00
                    CP:  1.99D+00  1.95D+00  1.38D+00
 E= -4069.81187817367     Delta-E=       -0.000000000146 Rises=F Damp=F
 DIIS: error= 3.06D-08 at cycle  19 NSaved=  19.
 NSaved=19 IEnMin=19 EnMin= -4069.81187817367     IErMin=19 ErrMin= 3.06D-08
 ErrMax= 3.06D-08  0.00D+00 EMaxC= 1.00D-01 BMatC= 1.38D-12 BMatP= 6.88D-12
 IDIUse=1 WtCom= 1.00D+00 WtEn= 0.00D+00
 Coeff-Com:  0.284D-05-0.573D-05-0.970D-05-0.122D-04 0.110D-04 0.117D-03
 Coeff-Com:  0.470D-03 0.780D-03-0.591D-03-0.589D-02-0.475D-02 0.118D-01
 Coeff-Com:  0.201D-01 0.116D-01-0.674D-01-0.178D+00-0.337D-01 0.483D+00
 Coeff-Com:  0.763D+00
 Coeff:      0.284D-05-0.573D-05-0.970D-05-0.122D-04 0.110D-04 0.117D-03
 Coeff:      0.470D-03 0.780D-03-0.591D-03-0.589D-02-0.475D-02 0.118D-01
 Coeff:      0.201D-01 0.116D-01-0.674D-01-0.178D+00-0.337D-01 0.483D+00
 Coeff:      0.763D+00
 Gap=     0.121 Goal=   None    Shift=    0.000
 RMSDP=4.53D-09 MaxDP=3.36D-07 DE=-1.46D-10 OVMax= 2.98D-06

 SCF Done:  E(RCAM-B3LYP) =  -4069.81187817     A.U. after   19 cycles
            NFock= 19  Conv=0.45D-08     -V/T= 2.0102
 KE= 4.028802189248D+03 PE=-3.706077858169D+04 EE= 1.517212365926D+04
 Leave Link  502 at Sun Sep 12 07:49:11 2021, MaxMem= 23488102400 cpu:           12121.9 elap:             528.5
 (Enter /sw/apps/gaussian-16.0/g16/l801.exe)
 DoSCS=F DFT=T ScalE2(SS,OS)=  1.000000  1.000000
 ExpMin= 3.36D-02 ExpMax= 4.95D+03 ExpMxC= 7.45D+02 IAcc=3 IRadAn=         5 AccDes= 0.00D+00
 HarFok:  IExCor=  205 AccDes= 0.00D+00 IRadAn=         5 IDoV=-2 UseB2=F ITyADJ=14
 ICtDFT= 12500011 ScaDFX=  1.000000  1.000000  1.000000  1.000000
 GSVD:  LWork=       -9588 too small for GESVD, short by       45590 words or       45590 for optimal perf.
 Largest valence mixing into a core orbital is  2.03D-04
 Largest core mixing into a valence orbital is  5.24D-05
 Range of M.O.s used for correlation:    95  1572
 NBasis=  1572 NAE=   312 NBE=   312 NFC=    94 NFV=     0
 NROrb=   1478 NOA=   218 NOB=   218 NVA=  1260 NVB=  1260
 Leave Link  801 at Sun Sep 12 07:49:12 2021, MaxMem= 23488102400 cpu:               8.1 elap:               0.4
 (Enter /sw/apps/gaussian-16.0/g16/l914.exe)
 RHF ground state
 Two-electron integrals replicated using symmetry.
 MDV= 23488102400 DFT=T DoStab=F Mixed=T DoRPA=T DoScal=F NonHer=T
 Making orbital integer symmetry assigments:
 Orbital symmetries:
       Occupied  (A) (A) (A) (A) (A) (A) (A) (A) (A) (A) (A) (A)
                 (A) (A) (A) (A) (A) (A) (A) (A) (A) (A) (A) (A)
                 (A) (A) (A) (A) (A) (A) (A) (A) (A) (A) (A) (A)
                 (A) (A) (A) (A) (A) (A) (A) (A) (A) (A) (A) (A)
                 (A) (A) (A) (A) (A) (A) (A) (A) (A) (A) (A) (A)
                 (A) (A) (A) (A) (A) (A) (A) (A) (A) (A) (A) (A)
                 (A) (A) (A) (A) (A) (A) (A) (A) (A) (A) (A) (A)
                 (A) (A) (A) (A) (A) (A) (A) (A) (A) (A) (A) (A)
                 (A) (A) (A) (A) (A) (A) (A) (A) (A) (A) (A) (A)
                 (A) (A) (A) (A) (A) (A) (A) (A) (A) (A) (A) (A)
                 (A) (A) (A) (A) (A) (A) (A) (A) (A) (A) (A) (A)
                 (A) (A) (A) (A) (A) (A) (A) (A) (A) (A) (A) (A)
                 (A) (A) (A) (A) (A) (A) (A) (A) (A) (A) (A) (A)
                 (A) (A) (A) (A) (A) (A) (A) (A) (A) (A) (A) (A)
                 (A) (A) (A) (A) (A) (A) (A) (A) (A) (A) (A) (A)
                 (A) (A) (A) (A) (A) (A) (A) (A) (A) (A) (A) (A)
                 (A) (A) (A) (A) (A) (A) (A) (A) (A) (A) (A) (A)
                 (A) (A) (A) (A) (A) (A) (A) (A) (A) (A) (A) (A)
                 (A) (A) (A) (A) (A) (A) (A) (A) (A) (A) (A) (A)
                 (A) (A) (A) (A) (A) (A) (A) (A) (A) (A) (A) (A)
                 (A) (A) (A) (A) (A) (A) (A) (A) (A) (A) (A) (A)
                 (A) (A) (A) (A) (A) (A) (A) (A) (A) (A) (A) (A)
                 (A) (A) (A) (A) (A) (A) (A) (A) (A) (A) (A) (A)
                 (A) (A) (A) (A) (A) (A) (A) (A) (A) (A) (A) (A)
                 (A) (A) (A) (A) (A) (A) (A) (A) (A) (A) (A) (A)
                 (A) (A) (A) (A) (A) (A) (A) (A) (A) (A) (A) (A)
       Virtual   (A) (A) (A) (A) (A) (A) (A) (A) (A) (A) (A) (A)
                 (A) (A) (A) (A) (A) (A) (A) (A) (A) (A) (A) (A)
                 (A) (A) (A) (A) (A) (A) (A) (A) (A) (A) (A) (A)
                 (A) (A) (A) (A) (A) (A) (A) (A) (A) (A) (A) (A)
                 (A) (A) (A) (A) (A) (A) (A) (A) (A) (A) (A) (A)
                 (A) (A) (A) (A) (A) (A) (A) (A) (A) (A) (A) (A)
                 (A) (A) (A) (A) (A) (A) (A) (A) (A) (A) (A) (A)
                 (A) (A) (A) (A) (A) (A) (A) (A) (A) (A) (A) (A)
                 (A) (A) (A) (A) (A) (A) (A) (A) (A) (A) (A) (A)
                 (A) (A) (A) (A) (A) (A) (A) (A) (A) (A) (A) (A)
                 (A) (A) (A) (A) (A) (A) (A) (A) (A) (A) (A) (A)
                 (A) (A) (A) (A) (A) (A) (A) (A) (A) (A) (A) (A)
                 (A) (A) (A) (A) (A) (A) (A) (A) (A) (A) (A) (A)
                 (A) (A) (A) (A) (A) (A) (A) (A) (A) (A) (A) (A)
                 (A) (A) (A) (A) (A) (A) (A) (A) (A) (A) (A) (A)
                 (A) (A) (A) (A) (A) (A) (A) (A) (A) (A) (A) (A)
                 (A) (A) (A) (A) (A) (A) (A) (A) (A) (A) (A) (A)
                 (A) (A) (A) (A) (A) (A) (A) (A) (A) (A) (A) (A)
                 (A) (A) (A) (A) (A) (A) (A) (A) (A) (A) (A) (A)
                 (A) (A) (A) (A) (A) (A) (A) (A) (A) (A) (A) (A)
                 (A) (A) (A) (A) (A) (A) (A) (A) (A) (A) (A) (A)
                 (A) (A) (A) (A) (A) (A) (A) (A) (A) (A) (A) (A)
                 (A) (A) (A) (A) (A) (A) (A) (A) (A) (A) (A) (A)
                 (A) (A) (A) (A) (A) (A) (A) (A) (A) (A) (A) (A)
                 (A) (A) (A) (A) (A) (A) (A) (A) (A) (A) (A) (A)
                 (A) (A) (A) (A) (A) (A) (A) (A) (A) (A) (A) (A)
                 (A) (A) (A) (A) (A) (A) (A) (A) (A) (A) (A) (A)
                 (A) (A) (A) (A) (A) (A) (A) (A) (A) (A) (A) (A)
                 (A) (A) (A) (A) (A) (A) (A) (A) (A) (A) (A) (A)
                 (A) (A) (A) (A) (A) (A) (A) (A) (A) (A) (A) (A)
                 (A) (A) (A) (A) (A) (A) (A) (A) (A) (A) (A) (A)
                 (A) (A) (A) (A) (A) (A) (A) (A) (A) (A) (A) (A)
                 (A) (A) (A) (A) (A) (A) (A) (A) (A) (A) (A) (A)
                 (A) (A) (A) (A) (A) (A) (A) (A) (A) (A) (A) (A)
                 (A) (A) (A) (A) (A) (A) (A) (A) (A) (A) (A) (A)
                 (A) (A) (A) (A) (A) (A) (A) (A) (A) (A) (A) (A)
                 (A) (A) (A) (A) (A) (A) (A) (A) (A) (A) (A) (A)
                 (A) (A) (A) (A) (A) (A) (A) (A) (A) (A) (A) (A)
                 (A) (A) (A) (A) (A) (A) (A) (A) (A) (A) (A) (A)
                 (A) (A) (A) (A) (A) (A) (A) (A) (A) (A) (A) (A)
                 (A) (A) (A) (A) (A) (A) (A) (A) (A) (A) (A) (A)
                 (A) (A) (A) (A) (A) (A) (A) (A) (A) (A) (A) (A)
                 (A) (A) (A) (A) (A) (A) (A) (A) (A) (A) (A) (A)
                 (A) (A) (A) (A) (A) (A) (A) (A) (A) (A) (A) (A)
                 (A) (A) (A) (A) (A) (A) (A) (A) (A) (A) (A) (A)
                 (A) (A) (A) (A) (A) (A) (A) (A) (A) (A) (A) (A)
                 (A) (A) (A) (A) (A) (A) (A) (A) (A) (A) (A) (A)
                 (A) (A) (A) (A) (A) (A) (A) (A) (A) (A) (A) (A)
                 (A) (A) (A) (A) (A) (A) (A) (A) (A) (A) (A) (A)
                 (A) (A) (A) (A) (A) (A) (A) (A) (A) (A) (A) (A)
                 (A) (A) (A) (A) (A) (A) (A) (A) (A) (A) (A) (A)
                 (A) (A) (A) (A) (A) (A) (A) (A) (A) (A) (A) (A)
                 (A) (A) (A) (A) (A) (A) (A) (A) (A) (A) (A) (A)
                 (A) (A) (A) (A) (A) (A) (A) (A) (A) (A) (A) (A)
                 (A) (A) (A) (A) (A) (A) (A) (A) (A) (A) (A) (A)
                 (A) (A) (A) (A) (A) (A) (A) (A) (A) (A) (A) (A)
                 (A) (A) (A) (A) (A) (A) (A) (A) (A) (A) (A) (A)
                 (A) (A) (A) (A) (A) (A) (A) (A) (A) (A) (A) (A)
                 (A) (A) (A) (A) (A) (A) (A) (A) (A) (A) (A) (A)
                 (A) (A) (A) (A) (A) (A) (A) (A) (A) (A) (A) (A)
                 (A) (A) (A) (A) (A) (A) (A) (A) (A) (A) (A) (A)
                 (A) (A) (A) (A) (A) (A) (A) (A) (A) (A) (A) (A)
                 (A) (A) (A) (A) (A) (A) (A) (A) (A) (A) (A) (A)
                 (A) (A) (A) (A) (A) (A) (A) (A) (A) (A) (A) (A)
                 (A) (A) (A) (A) (A) (A) (A) (A) (A) (A) (A) (A)
                 (A) (A) (A) (A) (A) (A) (A) (A) (A) (A) (A) (A)
                 (A) (A) (A) (A) (A) (A) (A) (A) (A) (A) (A) (A)
                 (A) (A) (A) (A) (A) (A) (A) (A) (A) (A) (A) (A)
                 (A) (A) (A) (A) (A) (A) (A) (A) (A) (A) (A) (A)
                 (A) (A) (A) (A) (A) (A) (A) (A) (A) (A) (A) (A)
                 (A) (A) (A) (A) (A) (A) (A) (A) (A) (A) (A) (A)
                 (A) (A) (A) (A) (A) (A) (A) (A) (A) (A) (A) (A)
                 (A) (A) (A) (A) (A) (A) (A) (A) (A) (A) (A) (A)
                 (A) (A) (A) (A) (A) (A) (A) (A) (A) (A) (A) (A)
                 (A) (A) (A) (A) (A) (A) (A) (A) (A) (A) (A) (A)
                 (A) (A) (A) (A) (A) (A) (A) (A) (A) (A) (A) (A)
                 (A) (A) (A) (A) (A) (A) (A) (A) (A) (A) (A) (A)
                 (A) (A) (A) (A) (A) (A) (A) (A) (A) (A) (A) (A)
                 (A) (A) (A) (A) (A) (A) (A) (A) (A) (A) (A) (A)
                 (A) (A) (A) (A) (A) (A) (A) (A) (A) (A) (A) (A)
                 (A) (A) (A) (A) (A) (A) (A) (A) (A) (A) (A) (A)
                 (A) (A) (A) (A) (A) (A) (A) (A) (A) (A) (A) (A)
                 (A) (A) (A) (A) (A) (A) (A) (A) (A) (A) (A) (A)
                 (A) (A) (A) (A) (A) (A) (A) (A) (A) (A) (A) (A)
                 (A) (A) (A) (A) (A) (A) (A) (A) (A) (A) (A) (A)
                 (A) (A) (A) (A) (A) (A) (A) (A) (A) (A) (A) (A)
                 (A) (A) (A) (A) (A) (A) (A) (A) (A) (A) (A) (A)
                 (A) (A) (A) (A) (A) (A) (A) (A) (A) (A) (A) (A)
                 (A) (A) (A) (A) (A) (A) (A) (A) (A) (A) (A) (A)
                 (A) (A) (A) (A) (A) (A) (A) (A) (A) (A) (A) (A)
                 (A) (A) (A) (A) (A) (A) (A) (A) (A) (A) (A) (A)
                 (A) (A) (A) (A) (A) (A) (A) (A) (A) (A) (A) (A)
                 (A) (A) (A) (A) (A) (A) (A) (A) (A) (A) (A) (A)
                 (A) (A) (A) (A) (A) (A) (A) (A) (A) (A) (A) (A)
                 (A) (A) (A) (A) (A) (A) (A) (A) (A) (A) (A) (A)
                 (A) (A) (A) (A) (A) (A) (A) (A) (A) (A) (A) (A)
                 (A) (A) (A) (A) (A) (A) (A) (A) (A) (A) (A) (A)
                 (A) (A) (A) (A) (A) (A) (A) (A) (A) (A) (A) (A)
                 (A) (A) (A) (A) (A) (A) (A) (A) (A) (A) (A) (A)
                 (A) (A) (A) (A) (A) (A) (A) (A) (A) (A) (A) (A)
                 (A) (A) (A) (A) (A) (A) (A) (A) (A) (A) (A) (A)
                 (A) (A) (A) (A) (A) (A) (A) (A) (A) (A) (A) (A)
                 (A) (A) (A) (A) (A) (A) (A) (A) (A) (A) (A) (A)
                 (A) (A) (A) (A) (A) (A) (A) (A) (A) (A) (A) (A)
                 (A) (A) (A) (A) (A) (A) (A) (A) (A) (A) (A) (A)
    20 initial guesses have been made.
 Convergence on wavefunction:    0.001000000000000
 Davidson Disk Diagonalization:  ConvIn= 1.00D-03 SkipCon=T Conv= 1.00D-03.
 Max sub-space:  2000 roots to seek:    20 dimension of matrix:       549360
 Iteration     1 Dimension    20 NMult     0 NNew     20
 CISAX will form    20 AO SS matrices at one time.
 NMat=    20 NSing=    20 JSym2X= 0.
 FoFJK:  IHMeth= 1 ICntrl=       0 DoSepK=T KAlg= 0 I1Cent=           0 FoldK=F
 IRaf=         1 NMat=      40 IRICut=       1 DoRegI=T DoRafI=F ISym2E= 0 IDoP0=3 IntGTp=3.
 FoFCou: FMM=T IPFlag=           0 FMFlag=      100000 FMFlg1=        2001
         NFxFlg=           0 DoJE=F BraDBF=F KetDBF=F FulRan=T
         wScrn=  0.000000 ICntrl=       500 IOpCl=  0 I1Cent=           0 NGrid=           0
         NMat0=   20 NMatS0=     20 NMatT0=    0 NMatD0=   20 NMtDS0=    0 NMtDT0=    0
 Symmetry not used in FoFCou.
 FMM levels:  10  Number of levels for PrismC:   9
 New state      1 was old state      7
 New state      2 was old state      6
 New state      3 was old state      2
 New state      4 was old state      3
 New state      5 was old state      1
 Excitation Energies [eV] at current iteration:
 Root      1 :     2.613204588232732
 Root      2 :     2.619878620177619
 Root      3 :     2.679823780035807
 Root      4 :     2.690769144826901
 Root      5 :     2.731724876611726
 Root      6 :     2.829871679750425
 Root      7 :     3.539050950443080
 Root      8 :     3.630940294097533
 Root      9 :     3.631811915229356
 Root     10 :     3.670214843172011
 Root     11 :     3.733698620880478
 Root     12 :     3.759722816229091
 Root     13 :     4.293078381333485
 Root     14 :     4.318768949022533
 Root     15 :     4.640549464376891
 Root     16 :     4.755379166751947
 Root     17 :     4.822763825968334
 Root     18 :     5.049026352366118
 Root     19 :     5.058059238454318
 Root     20 :     5.089881039274061
 Iteration     2 Dimension    30 NMult    20 NNew     10
 CISAX will form    10 AO SS matrices at one time.
 NMat=    10 NSing=    10 JSym2X= 0.
 New state      1 was old state      3
 Root      1 not converged, maximum delta is    0.177339040819180
 New state      2 was old state      4
 Root      2 not converged, maximum delta is    0.179364068003786
 New state      3 was old state      2
 Root      3 not converged, maximum delta is    0.406917293273603
 New state      4 was old state      1
 Root      4 not converged, maximum delta is    0.404245403037138
 Root      5 not converged, maximum delta is    0.008601559227555
 Excitation Energies [eV] at current iteration:
 Root      1 :     1.800290810254623   Change is   -0.879532969781185
 Root      2 :     1.807745970488989   Change is   -0.883023174337912
 Root      3 :     2.235241220940228   Change is   -0.384637399237391
 Root      4 :     2.240022743076852   Change is   -0.373181845155880
 Root      5 :     2.730766959341663   Change is   -0.000957917270064
 Iteration     3 Dimension    40 NMult    30 NNew     10
 CISAX will form    10 AO SS matrices at one time.
 NMat=    10 NSing=    10 JSym2X= 0.
 Root      1 not converged, maximum delta is    0.063950428621709
 Root      2 not converged, maximum delta is    0.065201066989733
 Root      3 not converged, maximum delta is    0.106842904649073
 Root      4 not converged, maximum delta is    0.106366897012713
 Root      5 has converged.
 Excitation Energies [eV] at current iteration:
 Root      1 :     1.693175741543752   Change is   -0.107115068710871
 Root      2 :     1.699401912431154   Change is   -0.108344058057835
 Root      3 :     2.194291424106765   Change is   -0.040949796833463
 Root      4 :     2.201127801085756   Change is   -0.038894941991097
 Root      5 :     2.730765642303086   Change is   -0.000001317038576
 Iteration     4 Dimension    48 NMult    40 NNew      8
 CISAX will form     8 AO SS matrices at one time.
 NMat=     8 NSing=     8 JSym2X= 0.
 Root      1 not converged, maximum delta is    0.012216043713520
 Root      2 not converged, maximum delta is    0.012314752180087
 Root      3 not converged, maximum delta is    0.014010851555920
 Root      4 not converged, maximum delta is    0.013882484356312
 Root      5 has converged.
 Excitation Energies [eV] at current iteration:
 Root      1 :     1.676433017781643   Change is   -0.016742723762109
 Root      2 :     1.682549944794968   Change is   -0.016851967636186
 Root      3 :     2.187061514712673   Change is   -0.007229909394092
 Root      4 :     2.194348968239093   Change is   -0.006778832846662
 Root      5 :     2.730765642301280   Change is   -0.000000000001806
 Iteration     5 Dimension    56 NMult    48 NNew      8
 CISAX will form     8 AO SS matrices at one time.
 NMat=     8 NSing=     8 JSym2X= 0.
 Root      1 not converged, maximum delta is    0.002034195697903
 Root      2 not converged, maximum delta is    0.001817630494202
 Root      3 not converged, maximum delta is    0.002434338138898
 Root      4 not converged, maximum delta is    0.002300427804722
 Root      5 has converged.
 Excitation Energies [eV] at current iteration:
 Root      1 :     1.674653095616618   Change is   -0.001779922165025
 Root      2 :     1.680777797167230   Change is   -0.001772147627739
 Root      3 :     2.186222076433958   Change is   -0.000839438278715
 Root      4 :     2.193577668916680   Change is   -0.000771299322413
 Root      5 :     2.730765642300136   Change is   -0.000000000001144
 Iteration     6 Dimension    64 NMult    56 NNew      8
 CISAX will form     8 AO SS matrices at one time.
 NMat=     8 NSing=     8 JSym2X= 0.
 Root      1 not converged, maximum delta is    0.001264540675802
 Root      2 not converged, maximum delta is    0.001274885054216
 Root      3 not converged, maximum delta is    0.001026551877835
 Root      4 has converged.
 Root      5 has converged.
 Excitation Energies [eV] at current iteration:
 Root      1 :     1.674399959689607   Change is   -0.000253135927011
 Root      2 :     1.680522527587020   Change is   -0.000255269580210
 Root      3 :     2.186095223926314   Change is   -0.000126852507645
 Root      4 :     2.193459857548448   Change is   -0.000117811368232
 Root      5 :     2.730765642298239   Change is   -0.000000000001896
 Iteration     7 Dimension    70 NMult    64 NNew      6
 CISAX will form     6 AO SS matrices at one time.
 NMat=     6 NSing=     6 JSym2X= 0.
 Root      1 has converged.
 Root      2 has converged.
 Root      3 has converged.
 Root      4 has converged.
 Root      5 has converged.
 Excitation Energies [eV] at current iteration:
 Root      1 :     1.674375598973370   Change is   -0.000024360716237
[...]
 Alpha virt. eigenvalues --    1.84380   1.84556   1.84734   1.84828   1.85038
 Alpha virt. eigenvalues --    1.85149   1.85201   1.85392   1.85423   1.85526
 Alpha virt. eigenvalues --    1.85795   1.85936   1.86297   1.86420   1.86490
 Alpha virt. eigenvalues --    1.86686   1.86717   1.86857   1.86966   1.87063
 Alpha virt. eigenvalues --    1.87369   1.87513   1.87597   1.87795   1.87798
 Alpha virt. eigenvalues --    1.87967   1.88046   1.88213   1.88460   1.88613
 Alpha virt. eigenvalues --    1.88737   1.88979   1.89071   1.89097   1.89557
 Alpha virt. eigenvalues --    1.89674   1.89700   1.89915   1.90042   1.90227
 Alpha virt. eigenvalues --    1.90671   1.90923   1.91267   1.91378   1.91453
 Alpha virt. eigenvalues --    1.91627   1.92077   1.92212   1.92524   1.92683
 Alpha virt. eigenvalues --    1.92912   1.93183   1.93279   1.93532   1.94221
 Alpha virt. eigenvalues --    1.94333   1.94624   1.94850   1.95428   1.95617
 Alpha virt. eigenvalues --    1.95641   1.95837   1.95903   1.96078   1.96095
 Alpha virt. eigenvalues --    1.96198   1.96507   1.96525   1.96823   1.96974
 Alpha virt. eigenvalues --    1.97380   1.97561   1.97770   1.97824   1.98082
 Alpha virt. eigenvalues --    1.98195   1.98367   1.98569   1.99051   1.99103
 Alpha virt. eigenvalues --    1.99725   1.99965   2.00590   2.00752   2.00906
 Alpha virt. eigenvalues --    2.01124   2.01371   2.01534   2.01612   2.01626
 Alpha virt. eigenvalues --    2.01632   2.01847   2.02704   2.02737   2.03164
 Alpha virt. eigenvalues --    2.03172   2.03315   2.03386   2.03407   2.03545
 Alpha virt. eigenvalues --    2.03954   2.04051   2.04885   2.05011   2.05443
 Alpha virt. eigenvalues --    2.05665   2.06004   2.06318   2.06800   2.07053
 Alpha virt. eigenvalues --    2.07107   2.07373   2.08526   2.08593   2.08896
 Alpha virt. eigenvalues --    2.09030   2.09495   2.09640   2.10733   2.11057
 Alpha virt. eigenvalues --    2.11103   2.11435   2.11437   2.11550   2.11645
 Alpha virt. eigenvalues --    2.11904   2.12377   2.12489   2.12729   2.12758
 Alpha virt. eigenvalues --    2.12834   2.12897   2.13656   2.13657   2.14086
 Alpha virt. eigenvalues --    2.14278   2.15259   2.15437   2.15840   2.16109
 Alpha virt. eigenvalues --    2.16458   2.16624   2.16673   2.17198   2.17342
 Alpha virt. eigenvalues --    2.17634   2.17677   2.17963   2.18010   2.18027
 Alpha virt. eigenvalues --    2.18229   2.18695   2.18769   2.19256   2.19552
 Alpha virt. eigenvalues --    2.19846   2.19945   2.20129   2.20264   2.20467
 Alpha virt. eigenvalues --    2.21106   2.21197   2.21594   2.21652   2.21790
 Alpha virt. eigenvalues --    2.21897   2.22604   2.22733   2.23246   2.23364
 Alpha virt. eigenvalues --    2.24324   2.24441   2.24916   2.25035   2.26200
 Alpha virt. eigenvalues --    2.26464   2.26707   2.27008   2.27032   2.27226
 Alpha virt. eigenvalues --    2.28051   2.28345   2.29192   2.29468   2.29642
 Alpha virt. eigenvalues --    2.29905   2.30357   2.30641   2.30836   2.30992
 Alpha virt. eigenvalues --    2.31082   2.31222   2.32054   2.32267   2.33042
 Alpha virt. eigenvalues --    2.33260   2.33379   2.33500   2.34074   2.34158
 Alpha virt. eigenvalues --    2.35267   2.35311   2.35705   2.35941   2.36301
 Alpha virt. eigenvalues --    2.36365   2.36469   2.36539   2.37601   2.37696
 Alpha virt. eigenvalues --    2.38192   2.38414   2.38751   2.38804   2.39526
 Alpha virt. eigenvalues --    2.39691   2.40116   2.40283   2.40387   2.40846
 Alpha virt. eigenvalues --    2.41165   2.41226   2.41625   2.41711   2.41937
 Alpha virt. eigenvalues --    2.42143   2.42844   2.42891   2.43062   2.43409
 Alpha virt. eigenvalues --    2.44003   2.44077   2.44645   2.44818   2.44830
 Alpha virt. eigenvalues --    2.45009   2.45472   2.45593   2.46227   2.46314
 Alpha virt. eigenvalues --    2.46392   2.46520   2.46707   2.46817   2.47180
 Alpha virt. eigenvalues --    2.47391   2.47636   2.47905   2.49248   2.49419
 Alpha virt. eigenvalues --    2.49906   2.50013   2.50484   2.50492   2.51019
 Alpha virt. eigenvalues --    2.51280   2.51637   2.51789   2.52334   2.52400
 Alpha virt. eigenvalues --    2.52719   2.53184   2.53844   2.53992   2.54085
 Alpha virt. eigenvalues --    2.54311   2.54714   2.54818   2.55444   2.55684
 Alpha virt. eigenvalues --    2.57785   2.58100   2.58573   2.58922   2.60102
 Alpha virt. eigenvalues --    2.60308   2.60512   2.60939   2.61634   2.61841
 Alpha virt. eigenvalues --    2.62439   2.62443   2.62870   2.63135   2.63844
 Alpha virt. eigenvalues --    2.64196   2.64239   2.64431   2.65000   2.65107
 Alpha virt. eigenvalues --    2.65684   2.65869   2.66712   2.66829   2.66831
 Alpha virt. eigenvalues --    2.67075   2.67834   2.67991   2.68769   2.68831
 Alpha virt. eigenvalues --    2.68926   2.69034   2.69323   2.69600   2.69918
 Alpha virt. eigenvalues --    2.70144   2.70897   2.71073   2.71895   2.71960
 Alpha virt. eigenvalues --    2.72489   2.72556   2.72709   2.72735   2.73221
 Alpha virt. eigenvalues --    2.73292   2.73405   2.73456   2.74426   2.74510
 Alpha virt. eigenvalues --    2.74883   2.75059   2.76520   2.76524   2.77067
 Alpha virt. eigenvalues --    2.77137   2.77373   2.77618   2.78119   2.78312
 Alpha virt. eigenvalues --    2.78633   2.78692   2.79048   2.79159   2.80259
 Alpha virt. eigenvalues --    2.80284   2.80478   2.80686   2.81024   2.81153
 Alpha virt. eigenvalues --    2.81840   2.81989   2.82265   2.82335   2.83652
 Alpha virt. eigenvalues --    2.83687   2.83861   2.83897   2.84467   2.84529
 Alpha virt. eigenvalues --    2.84816   2.84884   2.85594   2.85698   2.86651
 Alpha virt. eigenvalues --    2.86912   2.87157   2.87493   2.88076   2.88249
 Alpha virt. eigenvalues --    2.88431   2.88611   2.88853   2.88871   2.90407
 Alpha virt. eigenvalues --    2.90653   2.91065   2.91127   2.93058   2.93323
 Alpha virt. eigenvalues --    2.93769   2.94116   2.94495   2.94575   2.95259
 Alpha virt. eigenvalues --    2.95469   2.95817   2.96084   2.96368   2.96370
 Alpha virt. eigenvalues --    2.96852   2.97063   2.97702   2.98041   2.98119
 Alpha virt. eigenvalues --    2.98291   2.98348   2.98516   2.98574   2.98775
 Alpha virt. eigenvalues --    2.98808   2.98922   2.99527   2.99802   2.99924
 Alpha virt. eigenvalues --    3.00001   3.00128   3.00346   3.00363   3.00990
 Alpha virt. eigenvalues --    3.01896   3.01930   3.01948   3.02119   3.02617
 Alpha virt. eigenvalues --    3.02817   3.02878   3.03253   3.03332   3.03707
 Alpha virt. eigenvalues --    3.04048   3.04111   3.04370   3.04422   3.04483
 Alpha virt. eigenvalues --    3.04715   3.05241   3.05363   3.06032   3.06158
 Alpha virt. eigenvalues --    3.06698   3.06936   3.07933   3.08079   3.09296
 Alpha virt. eigenvalues --    3.09358   3.09600   3.10348   3.10418   3.10737
 Alpha virt. eigenvalues --    3.11282   3.11475   3.11832   3.11884   3.12143
 Alpha virt. eigenvalues --    3.12296   3.13177   3.13579   3.13640   3.13687
 Alpha virt. eigenvalues --    3.13970   3.14452   3.15882   3.15975   3.17179
 Alpha virt. eigenvalues --    3.17513   3.17885   3.18015   3.19034   3.19054
 Alpha virt. eigenvalues --    3.22180   3.22577   3.23858   3.24433   3.24575
 Alpha virt. eigenvalues --    3.25181   3.26419   3.26653   3.27389   3.27533
 Alpha virt. eigenvalues --    3.28971   3.29198   3.31374   3.31437   3.33183
 Alpha virt. eigenvalues --    3.33335   3.40230   3.40494   3.42743   3.42824
 Alpha virt. eigenvalues --    3.48569   3.48689   3.49937   3.50280   3.50835
 Alpha virt. eigenvalues --    3.51391   3.56471   3.57003   3.59026   3.59336
 Alpha virt. eigenvalues --    3.62509   3.62749   3.66122   3.66124   3.67056
 Alpha virt. eigenvalues --    3.67516   3.73150   3.73999   3.75944   3.76660
          Condensed to atoms (all electrons):
 Mulliken charges:
               1
     1  Mg   0.837960
     2  C   -0.003390
     3  C   -0.094490
     4  C   -0.045666
     5  C   -0.063678
     6  N   -0.256808
     7  C   -0.052705
     8  C   -0.013912
     9  C   -0.086948
    10  C    0.046117
    11  C    0.104760
    12  C    0.053582
    13  C   -0.071595
    14  H    0.035241
    15  N   -0.433225
    16  C    0.168218
    17  C   -0.177338
    18  C   -0.003977
    19  C    0.148559
    20  C    0.110173
    21  C    0.012243
    22  O   -0.249031
    23  C    0.062552
    24  N   -0.341156
    25  C    0.041287
    26  C   -0.028292
    27  C   -0.024054
    28  C    0.074848
    29  C    0.076063
    30  C    0.035012
    31  C   -0.004563
    32  N   -0.310458
    33  C    0.080287
    34  C   -0.169638
    35  C    0.008346
    36  C    0.082755
    37  C    0.127320
    38  C    0.045968
    39  O   -0.188449
    40  C   -0.005267
    41  C    0.213020
    42  O   -0.257945
    43  O   -0.304534
    44  C    0.157801
    45  H   -0.017494
    46  H   -0.016372
    47  H   -0.041135
    48  H    0.001080
    49  H   -0.004211
    50  H    0.025592
    51  H    0.016686
    52  H    0.016807
    53  H    0.010657
    54  H    0.043451
    55  H    0.018366
    56  H    0.017956
    57  H    0.005811
    58  H    0.027184
    59  H    0.039183
    60  H    0.037479
    61  H    0.036163
    62  H    0.030946
    63  H    0.017043
    64  H    0.009628
    65  H    0.023622
    66  H    0.012483
    67  H    0.004926
    68  H    0.006879
    69  H    0.004794
    70  H    0.009388
    71  H    0.018870
    72  H    0.028132
    73  H    0.047507
    74  H    0.009408
    75  H    0.046198
    76  H    0.035363
    77  H    0.043240
    78  H    0.046315
    79  H    0.053066
    80  Mg   0.837726
    81  C   -0.016881
    82  C   -0.087770
    83  C   -0.045413
    84  C   -0.064880
    85  N   -0.254549
    86  C   -0.049906
    87  C   -0.015099
    88  C   -0.090455
    89  C    0.045635
    90  C    0.114252
    91  C    0.062570
    92  C   -0.077720
    93  H    0.034431
    94  N   -0.423593
    95  C    0.162808
    96  C   -0.174091
    97  C   -0.007720
    98  C    0.152204
    99  C    0.099009
   100  C    0.015707
   101  O   -0.253169
   102  C    0.061074
   103  N   -0.350016
   104  C    0.037617
   105  C   -0.019885
   106  C   -0.034748
   107  C    0.088807
   108  C    0.073622
   109  C    0.034784
   110  C   -0.007643
   111  N   -0.324052
   112  C    0.078297
   113  C   -0.163292
   114  C    0.002181
   115  C    0.096079
   116  C    0.131528
   117  C    0.042241
   118  O   -0.188185
   119  C    0.000952
   120  C    0.211220
   121  O   -0.251166
   122  O   -0.305579
   123  C    0.152111
   124  H   -0.018840
   125  H   -0.015531
   126  H   -0.040656
   127  H   -0.000694
   128  H   -0.004393
   129  H    0.022343
   130  H    0.014961
   131  H    0.016701
   132  H    0.013770
   133  H    0.037528
   134  H    0.020882
   135  H    0.019481
   136  H    0.009170
   137  H    0.027747
   138  H    0.039120
   139  H    0.039049
   140  H    0.036652
   141  H    0.033237
   142  H    0.014296
   143  H    0.012361
   144  H    0.025018
   145  H    0.011989
   146  H    0.005619
   147  H    0.006137
   148  H    0.003527
   149  H    0.010893
   150  H    0.017728
   151  H    0.030138
   152  H    0.045784
   153  H    0.008366
   154  H    0.046875
   155  H    0.035041
   156  H    0.043794
   157  H    0.049441
   158  H    0.053428
 Sum of Mulliken charges =  -0.00000
 Mulliken charges with hydrogens summed into heavy atoms:
               1
     1  Mg   0.837960
     2  C   -0.003390
     3  C   -0.111984
     4  C   -0.062038
     5  C   -0.104813
     6  N   -0.256808
     7  C   -0.052705
     8  C   -0.012833
     9  C   -0.091159
    10  C    0.046117
    11  C    0.163845
    12  C    0.107690
    13  C   -0.000032
    15  N   -0.433225
    16  C    0.168218
    17  C   -0.177338
    18  C   -0.003977
    19  C    0.148559
    20  C    0.182350
    21  C    0.012243
    22  O   -0.249031
    23  C    0.167140
    24  N   -0.341156
    25  C    0.041287
    26  C   -0.011249
    27  C   -0.014427
    28  C    0.074848
    29  C    0.117093
    30  C    0.046684
    31  C    0.051827
    32  N   -0.310458
    33  C    0.080287
    34  C   -0.169638
    35  C    0.008346
    36  C    0.082755
    37  C    0.230433
    38  C    0.045968
    39  O   -0.188449
    40  C    0.030095
    41  C    0.213020
    42  O   -0.257945
    43  O   -0.304534
    44  C    0.300422
    80  Mg   0.837726
    81  C   -0.016881
    82  C   -0.106609
    83  C   -0.060944
    84  C   -0.105537
    85  N   -0.254549
    86  C   -0.049906
    87  C   -0.015793
    88  C   -0.094848
    89  C    0.045635
    90  C    0.168258
    91  C    0.113867
    92  C   -0.002926
    94  N   -0.423593
    95  C    0.162808
    96  C   -0.174091
    97  C   -0.007720
    98  C    0.152204
    99  C    0.175045
   100  C    0.015707
   101  O   -0.253169
   102  C    0.170012
   103  N   -0.350016
   104  C    0.037617
   105  C   -0.005589
   106  C   -0.022387
   107  C    0.088807
   108  C    0.116247
   109  C    0.044448
   110  C    0.051116
   111  N   -0.324052
   112  C    0.078297
   113  C   -0.163292
   114  C    0.002181
   115  C    0.096079
   116  C    0.232553
   117  C    0.042241
   118  O   -0.188185
   119  C    0.035993
   120  C    0.211220
   121  O   -0.251166
   122  O   -0.305579
   123  C    0.298774
 Electronic spatial extent (au):  <R**2>=         201522.2299
 Charge=             -0.0000 electrons
 Dipole moment (field-independent basis, Debye):
    X=              6.1621    Y=              2.2597    Z=              3.5717  Tot=              7.4723
 Quadrupole moment (field-independent basis, Debye-Ang):
   XX=           -564.0707   YY=           -483.3786   ZZ=           -504.4996
   XY=             16.4891   XZ=             43.4487   YZ=             48.9959
 Traceless Quadrupole moment (field-independent basis, Debye-Ang):
   XX=            -46.7544   YY=             33.9377   ZZ=             12.8167
   XY=             16.4891   XZ=             43.4487   YZ=             48.9959
 Octapole moment (field-independent basis, Debye-Ang**2):
  XXX=           1709.7648  YYY=            321.5612  ZZZ=            185.9912  XYY=           -265.4981
  XXY=           -180.1848  XXZ=            130.7699  XZZ=             40.6026  YZZ=            -76.0557
  YYZ=            -65.6843  XYZ=            164.6402
 Hexadecapole moment (field-independent basis, Debye-Ang**3):
 XXXX=        -241001.9427 YYYY=         -34765.1172 ZZZZ=         -16399.2745 XXXY=           4285.3400
 XXXZ=           2667.5039 YYYX=            515.5810 YYYZ=            765.3897 ZZZX=           1481.2446
 ZZZY=            357.6733 XXYY=         -39359.3702 XXZZ=         -39282.1646 YYZZ=          -9197.2656
 XXYZ=           4039.2806 YYXZ=           -695.9685 ZZXY=           -728.3255
 N-N= 1.379004085500D+04 E-N=-3.706077857923D+04  KE= 4.028802189248D+03
 Leave Link  601 at Sun Sep 12 08:10:25 2021, MaxMem= 23488102400 cpu:              15.1 elap:               0.7
 (Enter /sw/apps/gaussian-16.0/g16/l9999.exe)
 1\1\GINC-BP1-COMPUTE00114\SP\RCAM-B3LYP TD-FC\def2SVP\C68H72Mg2N8O8\OF
 15641\12-Sep-2021\0\\#p cam-b3lyp/Def2SVP td=(nstates=5)\\TDDFT excite
 d states in gaussian\\0,1\Mg,0,0.,0.,0.\C,0,-0.217,-2.218,2.801\C,0,-1
 .255,2.442,2.026\C,0,-0.245,1.85,-2.564\C,0,0.146,-2.824,-2.037\N,0,-0
 .617,-0.009,2.126\C,0,-0.594,-0.908,3.105\C,0,-0.936,-0.309,4.502\C,0,
 -1.773,0.964,4.032\C,0,-1.155,1.168,2.66\C,0,-3.263,0.685,3.863\C,0,0.
 345,0.11,5.299\C,0,0.124,0.397,6.787\H,0,1.168,0.033,7.733\N,0,-0.185,
 1.961,-0.152\C,0,-0.703,2.8,0.777\C,0,-0.62,4.156,0.193\C,0,-0.187,4.0
 15,-1.225\C,0,-0.214,2.583,-1.38\C,0,-0.887,5.406,0.974\C,0,0.181,5.01
 3,-2.277\O,0,0.303,4.69,-3.508\C,0,0.31,6.414,-1.837\N,0,-0.265,-0.413
 ,-2.029\C,0,-0.279,0.569,-2.937\C,0,-0.196,0.024,-4.332\C,0,0.124,-1.5
 33,-4.18\C,0,0.086,-1.632,-2.635\C,0,-1.451,0.205,-5.197\C,0,1.373,-2.
 07,-4.923\C,0,2.626,-1.49,-4.306\N,0,0.15,-2.144,0.303\C,0,0.173,-3.13
 6,-0.688\C,0,0.173,-4.438,0.004\C,0,0.133,-4.111,1.358\C,0,0.083,-2.69
 5,1.502\C,0,0.149,-5.715,-0.623\C,0,0.096,-4.629,2.716\O,0,0.208,-5.74
 7,3.221\C,0,-0.255,-3.428,3.701\C,0,0.717,-3.482,4.848\O,0,1.931,-3.25
 5,4.669\O,0,0.038,-3.556,6.003\C,0,0.943,-3.583,7.183\H,0,-1.859,3.22,
 2.497\H,0,-0.218,2.453,-3.474\H,0,0.276,-3.747,-2.605\H,0,-1.554,-0.94
 9,5.132\H,0,-1.585,1.831,4.665\H,0,-3.484,-0.377,3.969\H,0,-3.511,1.02
 7,2.858\H,0,-3.852,1.301,4.543\H,0,0.669,1.096,4.966\H,0,1.13,-0.639,5
 .189\H,0,-0.844,0.026,7.125\H,0,0.062,1.477,6.921\H,0,-1.344,5.186,1.9
 38\H,0,-1.651,5.963,0.432\H,0,0.007,6.02,1.084\H,0,-0.635,6.744,-1.405
 \H,0,0.665,6.97,-2.704\H,0,1.048,6.466,-1.036\H,0,0.608,0.501,-4.891\H
 ,0,-0.692,-2.156,-4.547\H,0,-1.267,0.74,-6.129\H,0,-2.204,0.714,-4.596
 \H,0,-1.967,-0.72,-5.453\H,0,1.356,-1.759,-5.967\H,0,1.452,-3.157,-4.9
 02\H,0,2.714,-0.522,-4.798\H,0,3.487,-2.121,-4.529\H,0,2.495,-1.303,-3
 .24\H,0,0.867,-6.333,-0.084\H,0,0.404,-5.642,-1.68\H,0,-0.891,-5.999,-
 0.463\H,0,-1.283,-3.581,4.028\H,0,0.698,-4.478,7.755\H,0,0.833,-2.619,
 7.68\H,0,2.,-3.754,6.976\Mg,0,15.76325,1.42773,1.20348\C,0,17.95043,1.
 11108,4.03103\C,0,13.15258,1.13036,3.37847\C,0,13.82493,1.25142,-1.302
 37\C,0,18.47076,0.56075,-0.81232\N,0,15.68864,1.16055,3.39786\C,0,16.5
 8239,1.11581,4.37436\C,0,15.97659,1.15478,5.80301\C,0,14.51509,0.58443
 ,5.46012\C,0,14.42292,1.01215,3.99682\C,0,14.43125,-0.93169,5.52076\C,
 0,15.90352,2.6114,6.38175\C,0,15.61255,2.69353,7.88186\H,0,16.24542,3.
 7575,8.65639\N,0,13.80301,1.70916,1.07382\C,0,12.89345,1.56666,2.06058
 \C,0,11.58865,1.868,1.45161\C,0,11.78327,2.03926,-0.01382\C,0,13.17149
 ,1.6441,-0.14333\C,0,10.33559,2.04595,2.25884\C,0,10.86746,2.47304,-1.
 11805\O,0,11.18086,2.32112,-2.35156\C,0,9.55395,2.99501,-0.71342\N,0,1
 6.03906,0.76818,-0.74877\C,0,15.04671,0.84892,-1.65246\C,0,15.55598,0.
 57613,-3.04768\C,0,17.14974,0.53312,-2.92252\C,0,17.28836,0.70744,-1.3
 942\C,0,15.06152,-0.7171,-3.69532\C,0,17.95449,1.4835,-3.85088\C,0,17.
 70868,2.92168,-3.45517\N,0,17.87921,1.10335,1.49598\C,0,18.82659,0.722
 33,0.5206\C,0,20.11119,0.51345,1.2196\C,0,19.81425,0.76709,2.56719\C,0
 ,18.4369,1.09015,2.7015\C,0,21.32891,0.09299,0.61422\C,0,20.3504,0.824
 61,3.90806\O,0,21.47478,0.73133,4.39877\C,0,19.13944,0.92643,4.93257\C
 ,0,19.45191,2.02305,5.91354\O,0,19.52891,3.20556,5.53624\O,0,19.39318,
 1.52669,7.16276\C,0,19.68502,2.57936,8.17199\H,0,12.27117,0.82006,3.94
 035\H,0,13.22522,1.28147,-2.21501\H,0,19.3847,0.3847,-1.38362\H,0,16.4
 6776,0.51058,6.52242\H,0,13.74912,1.07977,6.05113\H,0,15.40088,-1.3831
 9,5.66944\H,0,14.01114,-1.24123,4.57274\H,0,13.71102,-1.23916,6.28434\
 H,0,15.00703,3.10818,5.98899\H,0,16.79997,3.156,6.15719\H,0,15.74291,1
 .72544,8.38063\H,0,14.55321,2.92452,8.01773\H,0,10.46862,1.697,3.29031
 \H,0,9.58495,1.3685,1.83759\H,0,9.95115,3.06741,2.22017\H,0,9.02571,2.
 23768,-0.13907\H,0,9.07832,3.33574,-1.63514\H,0,9.70782,3.84796,-0.043
 04\H,0,15.27803,1.37521,-3.72393\H,0,17.5506,-0.46256,-3.16288\H,0,14.
 54926,-0.55295,-4.66213\H,0,14.40464,-1.21893,-2.99732\H,0,15.82941,-1
 .46855,-3.87101\H,0,17.61246,1.38302,-4.88387\H,0,19.02217,1.29111,-3.
 84499\H,0,16.7697,3.16046,-3.9635\H,0,18.51916,3.55872,-3.80351\H,0,17
 .53109,3.00836,-2.37693\H,0,22.11408,0.70679,1.03524\H,0,21.28754,0.18
 678,-0.46895\H,0,21.35564,-0.95181,0.93505\H,0,19.04098,-0.04385,5.420
 87\H,0,20.51299,2.21224,8.78629\H,0,18.725,2.77519,8.68558\H,0,20.0881
 5,3.5193,7.81359\\Version=ES64L-G16RevA.03\State=1-A\HF=-4069.8118782\
 RMSD=4.531e-09\PG=C01 [X(C68H72Mg2N8O8)]\\@


 THE POLHOLDE ROLLS WITHOUT SLIPPING ON THE HERPOLHOLDE LYING IN
 THE INVARIABLE PLANE.
 H.GOLDSTEIN, "CLASSICAL MECHANICS", PG 161
 Job cpu time:       0 days 11 hours 52 minutes  5.1 seconds.
 Elapsed time:       0 days  0 hours 30 minutes 15.0 seconds.
 File lengths (MBytes):  RWF=  13225 Int=      0 D2E=      0 Chk=    574 Scr=      1
 Normal termination of Gaussian 16 at Sun Sep 12 08:10:26 2021.
