 Entering Gaussian System, Link 0=g16
 Initial command:
 /sw/apps/gaussian-16.0/g16/l1.exe "/tmp/Gau-198006.inp" -scrdir="/tmp/"
 Entering Link 1 = /sw/apps/gaussian-16.0/g16/l1.exe PID=    198007.
  
 Copyright (c) 1988,1990,1992,1993,1995,1998,2003,2009,2016,
            Gaussian, Inc.  All Rights Reserved.
  
 This is part of the Gaussian(R) 16 program.  It is based on
 the Gaussian(R) 09 system (copyright 2009, Gaussian, Inc.),
 the Gaussian(R) 03 system (copyright 2003, Gaussian, Inc.),
 the Gaussian(R) 98 system (copyright 1998, Gaussian, Inc.),
 the Gaussian(R) 94 system (copyright 1995, Gaussian, Inc.),
 the Gaussian 92(TM) system (copyright 1992, Gaussian, Inc.),
 the Gaussian 90(TM) system (copyright 1990, Gaussian, Inc.),
 the Gaussian 88(TM) system (copyright 1988, Gaussian, Inc.),
 the Gaussian 86(TM) system (copyright 1986, Carnegie Mellon
 University), and the Gaussian 82(TM) system (copyright 1983,
 Carnegie Mellon University). Gaussian is a federally registered
 trademark of Gaussian, Inc.
  
 This software contains proprietary and confidential information,
 including trade secrets, belonging to Gaussian, Inc.
  
 This software is provided under written license and may be
 used, copied, transmitted, or stored only in accord with that
 written license.
  
 The following legend is applicable only to US Government
 contracts under FAR:
  
                    RESTRICTED RIGHTS LEGEND
  
 Use, reproduction and disclosure by the US Government is
 subject to restrictions as set forth in subparagraphs (a)
 and (c) of the Commercial Computer Software - Restricted
 Rights clause in FAR 52.227-19.
  
 Gaussian, Inc.
 340 Quinnipiac St., Bldg. 40, Wallingford CT 06492
  
  
 ---------------------------------------------------------------
 Warning -- This program may not be used in any manner that
 competes with the business of Gaussian, Inc. or will provide
 assistance to any competitor of Gaussian, Inc.  The licensee
 of this program is prohibited from giving any competitor of
 Gaussian, Inc. access to this program.  By using this program,
 the user acknowledges that Gaussian, Inc. is engaged in the
 business of creating and licensing software in the field of
 computational chemistry and represents and warrants to the
 licensee that it is not a competitor of Gaussian, Inc. and that
 it will not use this program in any manner prohibited above.
 ---------------------------------------------------------------
  

 Cite this work as:
 Gaussian 16, Revision A.03,
 M. J. Frisch, G. W. Trucks, H. B. Schlegel, G. E. Scuseria, 
 M. A. Robb, J. R. Cheeseman, G. Scalmani, V. Barone, 
 G. A. Petersson, H. Nakatsuji, X. Li, M. Caricato, A. V. Marenich, 
 J. Bloino, B. G. Janesko, R. Gomperts, B. Mennucci, H. P. Hratchian, 
 J. V. Ortiz, A. F. Izmaylov, J. L. Sonnenberg, D. Williams-Young, 
 F. Ding, F. Lipparini, F. Egidi, J. Goings, B. Peng, A. Petrone, 
 T. Henderson, D. Ranasinghe, V. G. Zakrzewski, J. Gao, N. Rega, 
 G. Zheng, W. Liang, M. Hada, M. Ehara, K. Toyota, R. Fukuda, 
 J. Hasegawa, M. Ishida, T. Nakajima, Y. Honda, O. Kitao, H. Nakai, 
 T. Vreven, K. Throssell, J. A. Montgomery, Jr., J. E. Peralta, 
 F. Ogliaro, M. J. Bearpark, J. J. Heyd, E. N. Brothers, K. N. Kudin, 
 V. N. Staroverov, T. A. Keith, R. Kobayashi, J. Normand, 
 K. Raghavachari, A. P. Rendell, J. C. Burant, S. S. Iyengar, 
 J. Tomasi, M. Cossi, J. M. Millam, M. Klene, C. Adamo, R. Cammi, 
 J. W. Ochterski, R. L. Martin, K. Morokuma, O. Farkas, 
 J. B. Foresman, and D. J. Fox, Gaussian, Inc., Wallingford CT, 2016.
 
 ******************************************
 Gaussian 16:  ES64L-G16RevA.03 25-Dec-2016
                10-Sep-2021 
 ******************************************
 %nproc=24
 Will use up to   24 processors via shared memory.
 %mem=175gb
 -----------------------------------
 #p cam-b3lyp/Def2SVP td=(nstates=5)
 -----------------------------------
 1/38=1,172=1/1;
 2/12=2,17=6,18=5,40=1/2;
 3/5=43,7=101,11=9,25=1,30=1,74=-40/1,2,3,8;
 4//1;
 5/5=2,38=5/2;
 8/6=1,10=1,108=5/1;
 9/41=5,42=1,70=2/14;
 6/7=2,8=2,9=2,10=2/1;
 99/5=1,9=1/99;
 Leave Link    1 at Fri Sep 10 11:38:01 2021, MaxMem= 23488102400 cpu:               0.5 elap:               0.0
 (Enter /sw/apps/gaussian-16.0/g16/l101.exe)
 --------------------------------
 TDDFT excited states in gaussian
 --------------------------------
 Symbolic Z-matrix:
 Charge =  0 Multiplicity = 1
 Mg                    0.        0.        0. 
 C                    -0.217    -2.218     2.801 
 C                    -1.255     2.442     2.026 
 C                    -0.245     1.85     -2.564 
 C                     0.146    -2.824    -2.037 
 N                    -0.617    -0.009     2.126 
 C                    -0.594    -0.908     3.105 
 C                    -0.936    -0.309     4.502 
 C                    -1.773     0.964     4.032 
 C                    -1.155     1.168     2.66 
 C                    -3.263     0.685     3.863 
 C                     0.345     0.11      5.299 
 C                     0.124     0.397     6.787 
 H                     1.168     0.033     7.733 
 N                    -0.185     1.961    -0.152 
 C                    -0.703     2.8       0.777 
 C                    -0.62      4.156     0.193 
 C                    -0.187     4.015    -1.225 
 C                    -0.214     2.583    -1.38 
 C                    -0.887     5.406     0.974 
 C                     0.181     5.013    -2.277 
 O                     0.303     4.69     -3.508 
 C                     0.31      6.414    -1.837 
 N                    -0.265    -0.413    -2.029 
 C                    -0.279     0.569    -2.937 
 C                    -0.196     0.024    -4.332 
 C                     0.124    -1.533    -4.18 
 C                     0.086    -1.632    -2.635 
 C                    -1.451     0.205    -5.197 
 C                     1.373    -2.07     -4.923 
 C                     2.626    -1.49     -4.306 
 N                     0.15     -2.144     0.303 
 C                     0.173    -3.136    -0.688 
 C                     0.173    -4.438     0.004 
 C                     0.133    -4.111     1.358 
 C                     0.083    -2.695     1.502 
 C                     0.149    -5.715    -0.623 
 C                     0.096    -4.629     2.716 
 O                     0.208    -5.747     3.221 
 C                    -0.255    -3.428     3.701 
 C                     0.717    -3.482     4.848 
 O                     1.931    -3.255     4.669 
 O                     0.038    -3.556     6.003 
 C                     0.943    -3.583     7.183 
 H                    -1.859     3.22      2.497 
 H                    -0.218     2.453    -3.474 
 H                     0.276    -3.747    -2.605 
 H                    -1.554    -0.949     5.132 
 H                    -1.585     1.831     4.665 
 H                    -3.484    -0.377     3.969 
 H                    -3.511     1.027     2.858 
 H                    -3.852     1.301     4.543 
 H                     0.669     1.096     4.966 
 H                     1.13     -0.639     5.189 
 H                    -0.844     0.026     7.125 
 H                     0.062     1.477     6.921 
 H                    -1.344     5.186     1.938 
 H                    -1.651     5.963     0.432 
 H                     0.007     6.02      1.084 
 H                    -0.635     6.744    -1.405 
 H                     0.665     6.97     -2.704 
 H                     1.048     6.466    -1.036 
 H                     0.608     0.501    -4.891 
 H                    -0.692    -2.156    -4.547 
 H                    -1.267     0.74     -6.129 
 H                    -2.204     0.714    -4.596 
 H                    -1.967    -0.72     -5.453 
 H                     1.356    -1.759    -5.967 
 H                     1.452    -3.157    -4.902 
 H                     2.714    -0.522    -4.798 
 H                     3.487    -2.121    -4.529 
 H                     2.495    -1.303    -3.24 
 H                     0.867    -6.333    -0.084 
 H                     0.404    -5.642    -1.68 
 H                    -0.891    -5.999    -0.463 
 H                    -1.283    -3.581     4.028 
 H                     0.698    -4.478     7.755 
 H                     0.833    -2.619     7.68 
 H                     2.       -3.754     6.976 
 Mg                    10.50747   0.94853   0.78866 
 C                     12.11369  -1.64581  -1.1004 
 C                     12.21387   3.19514  -1.12852 
 C                     9.46223   3.23952   2.71901 
 C                     9.84319  -1.43862   3.23936 
 N                     11.94774   0.68617  -0.86937 
 C                     12.43522  -0.34543  -1.54206 
 C                     13.252    0.03831  -2.80506 
 C                     13.67992   1.52442  -2.37235 
 C                     12.52701   1.84409  -1.42299 
 C                     14.97676   1.57105  -1.58155 
 C                     12.37304   0.04916  -4.10481 
 C                     13.16228   0.11172  -5.41436 
 H                     12.64637  -0.61175  -6.5732 
 N                     10.39757   2.91059   0.51147 
 C                     11.15073   3.65803  -0.32241 
 C                     10.6946   5.045    -0.1423 
 C                     9.72433   5.07696   0.98564 
 C                     9.84206   3.71737   1.47324 
 C                     11.11746   6.16478  -1.04823 
 C                     8.84646   6.1566    1.54236 
 O                     8.25998   6.03038   2.67503 
 C                     8.76825   7.40306   0.76667 
 N                     9.94806   0.95892   2.79098 
 C                     9.48077   2.07762   3.37243 
 C                     8.8856    1.78006   4.72802 
 C                     8.83204   0.18517   4.83301 
 C                     9.51788  -0.17949   3.49808 
 C                     9.64761   2.34347   5.92731 
 C                     7.45279  -0.45308   5.15392 
 C                     6.50519  -0.2442    3.9947 
 N                     10.72737  -1.19278   0.97433 
 C                     10.4101  -1.98868   2.09681 
 C                     10.84142  -3.36762   1.78869 
 C                     11.40506  -3.27307   0.50734 
 C                     11.34857  -1.92625   0.05748 
 C                     10.73426  -4.48728   2.66104 
 C                     12.0446  -4.00442  -0.56262 
 O                     12.28112  -5.19149  -0.78322 
 C                     12.64628  -2.96042  -1.59917 
 C                     12.24915  -3.39779  -2.98247 
 O                     11.0543  -3.39581  -3.32734 
 O                     13.35566  -3.53722  -3.73518 
 C                     13.01256  -3.95926  -5.11937 
 H                     12.86852   3.97593  -1.5167 
 H                     8.99297   3.9706    3.38142 
 H                     9.58269  -2.25882   3.91174 
 H                     14.13372  -0.56726  -2.97715 
 H                     13.6723   2.20109  -3.22289 
 H                     15.33631   0.58218  -1.33865 
 H                     14.75124   2.1239   -0.67902 
 H                     15.72444   2.16213  -2.11815 
 H                     11.83397   1.0034   -4.16456 
 H                     11.7092  -0.79323  -4.12287 
 H                     14.22611  -0.10973  -5.26546 
 H                     13.15129   1.14235  -5.77726 
 H                     11.96267   5.87132  -1.68298 
 H                     11.52019   6.95821  -0.40936 
 H                     10.28874   6.56883  -1.63357 
 H                     9.76476   7.82491   0.6596 
 H                     8.02448   8.01841   1.2766 
 H                     8.41707   7.16498  -0.24358 
 H                     7.87832   2.17116   4.80242 
 H                     9.48373  -0.19251   5.63457 
 H                     9.02875   2.99869   6.569 
 H                     10.51368   2.87837   5.56077 
 H                     10.09638   1.59762   6.58115 
 H                     6.99954   0.03915   6.01788 
 H                     7.50927  -1.51267   5.3799 
 H                     6.12009   0.76488   4.1695 
 H                     5.70502  -0.98129   4.01641 
 H                     7.04646  -0.22993   3.04156 
 H                     10.38067  -5.31594   2.06203 
 H                     10.06263  -4.28117   3.49182 
 H                     11.77364  -4.58079   2.98693 
 H                     13.72888  -2.95415  -1.46679 
 H                     13.57344  -4.87691  -5.32188 
 H                     13.22939  -3.08445  -5.76082 
 H                     11.99655  -4.2868   -5.30617 
 
 ITRead=  0  0  0  0  0  0  0  0  0  0  0  0  0  0  0  0  0  0  0  0
 ITRead=  0  0  0  0  0  0  0  0  0  0  0  0  0  0  0  0  0  0  0  0
 ITRead=  0  0  0  0  0  0  0  0  0  0  0  0  0  0  0  0  0  0  0  0
 ITRead=  0  0  0  0  0  0  0  0  0  0  0  0  0  0  0  0  0  0  0  0
 ITRead=  0  0  0  0  0  0  0  0  0  0  0  0  0  0  0  0  0  0  0  0
 ITRead=  0  0  0  0  0  0  0  0  0  0  0  0  0  0  0  0  0  0  0  0
 ITRead=  0  0  0  0  0  0  0  0  0  0  0  0  0  0  0  0  0  0  0  0
 ITRead=  0  0  0  0  0  0  0  0  0  0  0  0  0  0  0  0  0  0
 MicOpt= -1 -1 -1 -1 -1 -1 -1 -1 -1 -1 -1 -1 -1 -1 -1 -1 -1 -1 -1 -1
 MicOpt= -1 -1 -1 -1 -1 -1 -1 -1 -1 -1 -1 -1 -1 -1 -1 -1 -1 -1 -1 -1
 MicOpt= -1 -1 -1 -1 -1 -1 -1 -1 -1 -1 -1 -1 -1 -1 -1 -1 -1 -1 -1 -1
 MicOpt= -1 -1 -1 -1 -1 -1 -1 -1 -1 -1 -1 -1 -1 -1 -1 -1 -1 -1 -1 -1
 MicOpt= -1 -1 -1 -1 -1 -1 -1 -1 -1 -1 -1 -1 -1 -1 -1 -1 -1 -1 -1 -1
 MicOpt= -1 -1 -1 -1 -1 -1 -1 -1 -1 -1 -1 -1 -1 -1 -1 -1 -1 -1 -1 -1
 MicOpt= -1 -1 -1 -1 -1 -1 -1 -1 -1 -1 -1 -1 -1 -1 -1 -1 -1 -1 -1 -1
 MicOpt= -1 -1 -1 -1 -1 -1 -1 -1 -1 -1 -1 -1 -1 -1 -1 -1 -1 -1
 NAtoms=    158 NQM=      158 NQMF=       0 NMMI=      0 NMMIF=      0
                NMic=       0 NMicF=      0.
                    Isotopes and Nuclear Properties:
 (Nuclear quadrupole moments (NQMom) in fm**2, nuclear magnetic moments (NMagM)
  in nuclear magnetons)

  Atom         1           2           3           4           5           6           7           8           9          10
 IAtWgt=          24          12          12          12          12          14          12          12          12          12
 AtmWgt=  23.9850450  12.0000000  12.0000000  12.0000000  12.0000000  14.0030740  12.0000000  12.0000000  12.0000000  12.0000000
 NucSpn=           0           0           0           0           0           2           0           0           0           0
 AtZEff=  -0.0000000  -0.0000000  -0.0000000  -0.0000000  -0.0000000  -0.0000000  -0.0000000  -0.0000000  -0.0000000  -0.0000000
 NQMom=    0.0000000   0.0000000   0.0000000   0.0000000   0.0000000   2.0440000   0.0000000   0.0000000   0.0000000   0.0000000
 NMagM=    0.0000000   0.0000000   0.0000000   0.0000000   0.0000000   0.4037610   0.0000000   0.0000000   0.0000000   0.0000000
 AtZNuc=  12.0000000   6.0000000   6.0000000   6.0000000   6.0000000   7.0000000   6.0000000   6.0000000   6.0000000   6.0000000

  Atom        11          12          13          14          15          16          17          18          19          20
 IAtWgt=          12          12          12           1          14          12          12          12          12          12
 AtmWgt=  12.0000000  12.0000000  12.0000000   1.0078250  14.0030740  12.0000000  12.0000000  12.0000000  12.0000000  12.0000000
 NucSpn=           0           0           0           1           2           0           0           0           0           0
 AtZEff=  -0.0000000  -0.0000000  -0.0000000  -0.0000000  -0.0000000  -0.0000000  -0.0000000  -0.0000000  -0.0000000  -0.0000000
 NQMom=    0.0000000   0.0000000   0.0000000   0.0000000   2.0440000   0.0000000   0.0000000   0.0000000   0.0000000   0.0000000
 NMagM=    0.0000000   0.0000000   0.0000000   2.7928460   0.4037610   0.0000000   0.0000000   0.0000000   0.0000000   0.0000000
 AtZNuc=   6.0000000   6.0000000   6.0000000   1.0000000   7.0000000   6.0000000   6.0000000   6.0000000   6.0000000   6.0000000

  Atom        21          22          23          24          25          26          27          28          29          30
 IAtWgt=          12          16          12          14          12          12          12          12          12          12
 AtmWgt=  12.0000000  15.9949146  12.0000000  14.0030740  12.0000000  12.0000000  12.0000000  12.0000000  12.0000000  12.0000000
 NucSpn=           0           0           0           2           0           0           0           0           0           0
 AtZEff=  -0.0000000  -0.0000000  -0.0000000  -0.0000000  -0.0000000  -0.0000000  -0.0000000  -0.0000000  -0.0000000  -0.0000000
 NQMom=    0.0000000   0.0000000   0.0000000   2.0440000   0.0000000   0.0000000   0.0000000   0.0000000   0.0000000   0.0000000
 NMagM=    0.0000000   0.0000000   0.0000000   0.4037610   0.0000000   0.0000000   0.0000000   0.0000000   0.0000000   0.0000000
 AtZNuc=   6.0000000   8.0000000   6.0000000   7.0000000   6.0000000   6.0000000   6.0000000   6.0000000   6.0000000   6.0000000

  Atom        31          32          33          34          35          36          37          38          39          40
 IAtWgt=          12          14          12          12          12          12          12          12          16          12
 AtmWgt=  12.0000000  14.0030740  12.0000000  12.0000000  12.0000000  12.0000000  12.0000000  12.0000000  15.9949146  12.0000000
 NucSpn=           0           2           0           0           0           0           0           0           0           0
 AtZEff=  -0.0000000  -0.0000000  -0.0000000  -0.0000000  -0.0000000  -0.0000000  -0.0000000  -0.0000000  -0.0000000  -0.0000000
 NQMom=    0.0000000   2.0440000   0.0000000   0.0000000   0.0000000   0.0000000   0.0000000   0.0000000   0.0000000   0.0000000
 NMagM=    0.0000000   0.4037610   0.0000000   0.0000000   0.0000000   0.0000000   0.0000000   0.0000000   0.0000000   0.0000000
 AtZNuc=   6.0000000   7.0000000   6.0000000   6.0000000   6.0000000   6.0000000   6.0000000   6.0000000   8.0000000   6.0000000

  Atom        41          42          43          44          45          46          47          48          49          50
 IAtWgt=          12          16          16          12           1           1           1           1           1           1
 AtmWgt=  12.0000000  15.9949146  15.9949146  12.0000000   1.0078250   1.0078250   1.0078250   1.0078250   1.0078250   1.0078250
 NucSpn=           0           0           0           0           1           1           1           1           1           1
 AtZEff=  -0.0000000  -0.0000000  -0.0000000  -0.0000000  -0.0000000  -0.0000000  -0.0000000  -0.0000000  -0.0000000  -0.0000000
 NQMom=    0.0000000   0.0000000   0.0000000   0.0000000   0.0000000   0.0000000   0.0000000   0.0000000   0.0000000   0.0000000
 NMagM=    0.0000000   0.0000000   0.0000000   0.0000000   2.7928460   2.7928460   2.7928460   2.7928460   2.7928460   2.7928460
 AtZNuc=   6.0000000   8.0000000   8.0000000   6.0000000   1.0000000   1.0000000   1.0000000   1.0000000   1.0000000   1.0000000

  Atom        51          52          53          54          55          56          57          58          59          60
 IAtWgt=           1           1           1           1           1           1           1           1           1           1
 AtmWgt=   1.0078250   1.0078250   1.0078250   1.0078250   1.0078250   1.0078250   1.0078250   1.0078250   1.0078250   1.0078250
 NucSpn=           1           1           1           1           1           1           1           1           1           1
 AtZEff=  -0.0000000  -0.0000000  -0.0000000  -0.0000000  -0.0000000  -0.0000000  -0.0000000  -0.0000000  -0.0000000  -0.0000000
 NQMom=    0.0000000   0.0000000   0.0000000   0.0000000   0.0000000   0.0000000   0.0000000   0.0000000   0.0000000   0.0000000
 NMagM=    2.7928460   2.7928460   2.7928460   2.7928460   2.7928460   2.7928460   2.7928460   2.7928460   2.7928460   2.7928460
 AtZNuc=   1.0000000   1.0000000   1.0000000   1.0000000   1.0000000   1.0000000   1.0000000   1.0000000   1.0000000   1.0000000

  Atom        61          62          63          64          65          66          67          68          69          70
 IAtWgt=           1           1           1           1           1           1           1           1           1           1
 AtmWgt=   1.0078250   1.0078250   1.0078250   1.0078250   1.0078250   1.0078250   1.0078250   1.0078250   1.0078250   1.0078250
 NucSpn=           1           1           1           1           1           1           1           1           1           1
 AtZEff=  -0.0000000  -0.0000000  -0.0000000  -0.0000000  -0.0000000  -0.0000000  -0.0000000  -0.0000000  -0.0000000  -0.0000000
 NQMom=    0.0000000   0.0000000   0.0000000   0.0000000   0.0000000   0.0000000   0.0000000   0.0000000   0.0000000   0.0000000
 NMagM=    2.7928460   2.7928460   2.7928460   2.7928460   2.7928460   2.7928460   2.7928460   2.7928460   2.7928460   2.7928460
 AtZNuc=   1.0000000   1.0000000   1.0000000   1.0000000   1.0000000   1.0000000   1.0000000   1.0000000   1.0000000   1.0000000

  Atom        71          72          73          74          75          76          77          78          79          80
 IAtWgt=           1           1           1           1           1           1           1           1           1          24
 AtmWgt=   1.0078250   1.0078250   1.0078250   1.0078250   1.0078250   1.0078250   1.0078250   1.0078250   1.0078250  23.9850450
 NucSpn=           1           1           1           1           1           1           1           1           1           0
 AtZEff=  -0.0000000  -0.0000000  -0.0000000  -0.0000000  -0.0000000  -0.0000000  -0.0000000  -0.0000000  -0.0000000  -0.0000000
 NQMom=    0.0000000   0.0000000   0.0000000   0.0000000   0.0000000   0.0000000   0.0000000   0.0000000   0.0000000   0.0000000
 NMagM=    2.7928460   2.7928460   2.7928460   2.7928460   2.7928460   2.7928460   2.7928460   2.7928460   2.7928460   0.0000000
 AtZNuc=   1.0000000   1.0000000   1.0000000   1.0000000   1.0000000   1.0000000   1.0000000   1.0000000   1.0000000  12.0000000

  Atom        81          82          83          84          85          86          87          88          89          90
 IAtWgt=          12          12          12          12          14          12          12          12          12          12
 AtmWgt=  12.0000000  12.0000000  12.0000000  12.0000000  14.0030740  12.0000000  12.0000000  12.0000000  12.0000000  12.0000000
 NucSpn=           0           0           0           0           2           0           0           0           0           0
 AtZEff=  -0.0000000  -0.0000000  -0.0000000  -0.0000000  -0.0000000  -0.0000000  -0.0000000  -0.0000000  -0.0000000  -0.0000000
 NQMom=    0.0000000   0.0000000   0.0000000   0.0000000   2.0440000   0.0000000   0.0000000   0.0000000   0.0000000   0.0000000
 NMagM=    0.0000000   0.0000000   0.0000000   0.0000000   0.4037610   0.0000000   0.0000000   0.0000000   0.0000000   0.0000000
 AtZNuc=   6.0000000   6.0000000   6.0000000   6.0000000   7.0000000   6.0000000   6.0000000   6.0000000   6.0000000   6.0000000

  Atom        91          92          93          94          95          96          97          98          99         100
 IAtWgt=          12          12           1          14          12          12          12          12          12          12
 AtmWgt=  12.0000000  12.0000000   1.0078250  14.0030740  12.0000000  12.0000000  12.0000000  12.0000000  12.0000000  12.0000000
 NucSpn=           0           0           1           2           0           0           0           0           0           0
 AtZEff=  -0.0000000  -0.0000000  -0.0000000  -0.0000000  -0.0000000  -0.0000000  -0.0000000  -0.0000000  -0.0000000  -0.0000000
 NQMom=    0.0000000   0.0000000   0.0000000   2.0440000   0.0000000   0.0000000   0.0000000   0.0000000   0.0000000   0.0000000
 NMagM=    0.0000000   0.0000000   2.7928460   0.4037610   0.0000000   0.0000000   0.0000000   0.0000000   0.0000000   0.0000000
 AtZNuc=   6.0000000   6.0000000   1.0000000   7.0000000   6.0000000   6.0000000   6.0000000   6.0000000   6.0000000   6.0000000

  Atom       101         102         103         104         105         106         107         108         109         110
 IAtWgt=          16          12          14          12          12          12          12          12          12          12
 AtmWgt=  15.9949146  12.0000000  14.0030740  12.0000000  12.0000000  12.0000000  12.0000000  12.0000000  12.0000000  12.0000000
 NucSpn=           0           0           2           0           0           0           0           0           0           0
 AtZEff=  -0.0000000  -0.0000000  -0.0000000  -0.0000000  -0.0000000  -0.0000000  -0.0000000  -0.0000000  -0.0000000  -0.0000000
 NQMom=    0.0000000   0.0000000   2.0440000   0.0000000   0.0000000   0.0000000   0.0000000   0.0000000   0.0000000   0.0000000
 NMagM=    0.0000000   0.0000000   0.4037610   0.0000000   0.0000000   0.0000000   0.0000000   0.0000000   0.0000000   0.0000000
 AtZNuc=   8.0000000   6.0000000   7.0000000   6.0000000   6.0000000   6.0000000   6.0000000   6.0000000   6.0000000   6.0000000

  Atom       111         112         113         114         115         116         117         118         119         120
 IAtWgt=          14          12          12          12          12          12          12          16          12          12
 AtmWgt=  14.0030740  12.0000000  12.0000000  12.0000000  12.0000000  12.0000000  12.0000000  15.9949146  12.0000000  12.0000000
 NucSpn=           2           0           0           0           0           0           0           0           0           0
 AtZEff=  -0.0000000  -0.0000000  -0.0000000  -0.0000000  -0.0000000  -0.0000000  -0.0000000  -0.0000000  -0.0000000  -0.0000000
 NQMom=    2.0440000   0.0000000   0.0000000   0.0000000   0.0000000   0.0000000   0.0000000   0.0000000   0.0000000   0.0000000
 NMagM=    0.4037610   0.0000000   0.0000000   0.0000000   0.0000000   0.0000000   0.0000000   0.0000000   0.0000000   0.0000000
 AtZNuc=   7.0000000   6.0000000   6.0000000   6.0000000   6.0000000   6.0000000   6.0000000   8.0000000   6.0000000   6.0000000

  Atom       121         122         123         124         125         126         127         128         129         130
 IAtWgt=          16          16          12           1           1           1           1           1           1           1
 AtmWgt=  15.9949146  15.9949146  12.0000000   1.0078250   1.0078250   1.0078250   1.0078250   1.0078250   1.0078250   1.0078250
 NucSpn=           0           0           0           1           1           1           1           1           1           1
 AtZEff=  -0.0000000  -0.0000000  -0.0000000  -0.0000000  -0.0000000  -0.0000000  -0.0000000  -0.0000000  -0.0000000  -0.0000000
 NQMom=    0.0000000   0.0000000   0.0000000   0.0000000   0.0000000   0.0000000   0.0000000   0.0000000   0.0000000   0.0000000
 NMagM=    0.0000000   0.0000000   0.0000000   2.7928460   2.7928460   2.7928460   2.7928460   2.7928460   2.7928460   2.7928460
 AtZNuc=   8.0000000   8.0000000   6.0000000   1.0000000   1.0000000   1.0000000   1.0000000   1.0000000   1.0000000   1.0000000

  Atom       131         132         133         134         135         136         137         138         139         140
 IAtWgt=           1           1           1           1           1           1           1           1           1           1
 AtmWgt=   1.0078250   1.0078250   1.0078250   1.0078250   1.0078250   1.0078250   1.0078250   1.0078250   1.0078250   1.0078250
 NucSpn=           1           1           1           1           1           1           1           1           1           1
 AtZEff=  -0.0000000  -0.0000000  -0.0000000  -0.0000000  -0.0000000  -0.0000000  -0.0000000  -0.0000000  -0.0000000  -0.0000000
 NQMom=    0.0000000   0.0000000   0.0000000   0.0000000   0.0000000   0.0000000   0.0000000   0.0000000   0.0000000   0.0000000
 NMagM=    2.7928460   2.7928460   2.7928460   2.7928460   2.7928460   2.7928460   2.7928460   2.7928460   2.7928460   2.7928460
 AtZNuc=   1.0000000   1.0000000   1.0000000   1.0000000   1.0000000   1.0000000   1.0000000   1.0000000   1.0000000   1.0000000

  Atom       141         142         143         144         145         146         147         148         149         150
 IAtWgt=           1           1           1           1           1           1           1           1           1           1
 AtmWgt=   1.0078250   1.0078250   1.0078250   1.0078250   1.0078250   1.0078250   1.0078250   1.0078250   1.0078250   1.0078250
 NucSpn=           1           1           1           1           1           1           1           1           1           1
 AtZEff=  -0.0000000  -0.0000000  -0.0000000  -0.0000000  -0.0000000  -0.0000000  -0.0000000  -0.0000000  -0.0000000  -0.0000000
 NQMom=    0.0000000   0.0000000   0.0000000   0.0000000   0.0000000   0.0000000   0.0000000   0.0000000   0.0000000   0.0000000
 NMagM=    2.7928460   2.7928460   2.7928460   2.7928460   2.7928460   2.7928460   2.7928460   2.7928460   2.7928460   2.7928460
 AtZNuc=   1.0000000   1.0000000   1.0000000   1.0000000   1.0000000   1.0000000   1.0000000   1.0000000   1.0000000   1.0000000

  Atom       151         152         153         154         155         156         157         158
 IAtWgt=           1           1           1           1           1           1           1           1
 AtmWgt=   1.0078250   1.0078250   1.0078250   1.0078250   1.0078250   1.0078250   1.0078250   1.0078250
 NucSpn=           1           1           1           1           1           1           1           1
 AtZEff=  -0.0000000  -0.0000000  -0.0000000  -0.0000000  -0.0000000  -0.0000000  -0.0000000  -0.0000000
 NQMom=    0.0000000   0.0000000   0.0000000   0.0000000   0.0000000   0.0000000   0.0000000   0.0000000
 NMagM=    2.7928460   2.7928460   2.7928460   2.7928460   2.7928460   2.7928460   2.7928460   2.7928460
 AtZNuc=   1.0000000   1.0000000   1.0000000   1.0000000   1.0000000   1.0000000   1.0000000   1.0000000
 Leave Link  101 at Fri Sep 10 11:38:02 2021, MaxMem= 23488102400 cpu:               3.2 elap:               0.2
 (Enter /sw/apps/gaussian-16.0/g16/l202.exe)
 Stoichiometry    C68H72Mg2N8O8
 Framework group  C1[X(C68H72Mg2N8O8)]
 Deg. of freedom   468
 Full point group                 C1      NOp   1
 Largest Abelian subgroup         C1      NOp   1
 Largest concise Abelian subgroup C1      NOp   1
                         Standard orientation:                         
 ---------------------------------------------------------------------
 Center     Atomic      Atomic             Coordinates (Angstroms)
 Number     Number       Type             X           Y           Z
 ---------------------------------------------------------------------
      1         12           0        5.272882    0.575461    1.173495
      2          6           0        5.991232   -2.386492   -0.703477
      3          6           0        6.719255    2.350297   -1.356531
      4          6           0        5.060709    3.154077    3.007164
      5          6           0        4.935572   -1.462666    3.980258
      6          7           0        6.199566   -0.051796   -0.736598
      7          6           0        6.357814   -1.212420   -1.365153
      8          6           0        6.880420   -1.058312   -2.824779
      9          6           0        7.587664    0.364240   -2.690056
     10          6           0        6.764687    0.937656   -1.549956
     11          6           0        9.045619    0.280548   -2.249756
     12          6           0        5.717047   -1.022814   -3.872173
     13          6           0        6.145847   -1.202571   -5.331341
     14          1           0        5.269448   -1.933943   -6.233764
     15          7           0        5.356382    2.492402    0.703161
     16          6           0        5.973794    3.036026   -0.373204
     17          6           0        5.751787    4.494824   -0.276754
     18          6           0        5.118236    4.772443    1.042198
     19          6           0        5.177799    3.470368    1.655736
     20          6           0        6.083082    5.452256   -1.380076
     21          6           0        4.558910    6.016445    1.656808
     22          8           0        4.267618    6.089458    2.899544
     23          6           0        4.442230    7.190581    0.773161
     24          7           0        5.248620    0.848239    3.242948
     25          6           0        5.088812    2.064121    3.776873
     26          6           0        4.820303    1.982424    5.250361
     27          6           0        4.587622    0.435808    5.572220
     28          6           0        4.859185   -0.142283    4.161428
     29          6           0        5.924404    2.533211    6.163381
     30          6           0        3.263834    0.056745    6.282371
     31          6           0        2.095021    0.303601    5.354990
     32          7           0        5.253611   -1.559121    1.566224
     33          6           0        5.122039   -2.185698    2.813927
     34          6           0        5.276012   -3.634613    2.588083
     35          6           0        5.504448   -3.749646    1.218254
     36          6           0        5.519954   -2.452675    0.630107
     37          6           0        5.256242   -4.641450    3.593231
     38          6           0        5.763544   -4.664760    0.118576
     39          8           0        5.771806   -5.890268   -0.006142
     40          6           0        6.210140   -3.810900   -1.149219
     41          6           0        5.422705   -4.306646   -2.331375
     42          8           0        4.187651   -4.138777   -2.393239
     43          8           0        6.268548   -4.683514   -3.302488
     44          6           0        5.551175   -5.158468   -4.515727
     45          1           0        7.355800    2.988174   -1.972862
     46          1           0        4.874906    4.008934    3.660719
     47          1           0        4.758590   -2.166671    4.795432
     48          1           0        7.609909   -1.809515   -3.128033
     49          1           0        7.462311    0.967777   -3.588805
     50          1           0        9.321284   -0.737773   -1.975983
     51          1           0        9.127586    0.942110   -1.387138
     52          1           0        9.704809    0.698071   -3.011281
     53          1           0        5.308768   -0.013404   -3.921786
     54          1           0        4.954303   -1.762635   -3.626793
     55          1           0        7.167150   -1.577629   -5.403328
     56          1           0        6.184854   -0.218958   -5.799512
     57          1           0        6.686828    4.978845   -2.153326
     58          1           0        6.735458    6.214683   -0.954847
     59          1           0        5.192133    5.921814   -1.797279
     60          1           0        5.427409    7.446369    0.382592
     61          1           0        3.940583    7.959572    1.359550
     62          1           0        3.830320    6.924129   -0.089114
     63          1           0        3.923980    2.541364    5.516102
     64          1           0        5.363570    0.032253    6.223159
     65          1           0        5.582855    3.317409    6.839460
     66          1           0        6.738052    2.888492    5.531681
     67          1           0        6.432270    1.783715    6.769800
     68          1           0        3.112959    0.681693    7.161929
     69          1           0        3.231393   -0.983862    6.605381
     70          1           0        1.896945    1.366252    5.490528
     71          1           0        1.235738   -0.295489    5.658198
     72          1           0        2.375942    0.154918    4.312175
     73          1           0        4.651254   -5.456668    3.196522
     74          1           0        4.843978   -4.260434    4.527291
     75          1           0        6.318769   -4.871975    3.669054
     76          1           0        7.280567   -3.971367   -1.273953
     77          1           0        5.913442   -6.164045   -4.729764
     78          1           0        5.696217   -4.395001   -5.280245
     79          1           0        4.482634   -5.344545   -4.402000
     80         12           0       -5.028830    0.329946   -1.222974
     81          6           0       -6.795880   -1.661938    1.183066
     82          6           0       -7.088274    2.913341   -0.374802
     83          6           0       -3.798061    1.974442   -3.641289
     84          6           0       -3.914107   -2.643260   -2.659330
     85          7           0       -6.688646    0.483054    0.230932
     86          6           0       -7.230193   -0.320911    1.133548
     87          6           0       -8.240367    0.371063    2.087632
     88          6           0       -8.656813    1.602531    1.144798
     89          6           0       -7.388734    1.702893    0.299471
     90          6           0       -9.822206    1.286733    0.222049
     91          6           0       -7.565930    0.866347    3.414985
     92          6           0       -8.543273    1.271828    4.520481
     93          1           0       -8.177862    0.997808    5.907518
     94          7           0       -5.038224    2.281030   -1.585982
     95          6           0       -5.935831    3.186649   -1.143908
     96          6           0       -5.512526    4.479298   -1.704309
     97          6           0       -4.387061    4.235862   -2.647050
     98          6           0       -4.377610    2.787047   -2.677780
     99          6           0       -6.109060    5.787611   -1.273155
    100          6           0       -3.478934    5.155015   -3.406445
    101          8           0       -2.725793    4.727983   -4.351566
    102          6           0       -3.565927    6.584509   -3.074102
    103          7           0       -4.178231   -0.244834   -3.030857
    104          6           0       -3.673629    0.668533   -3.878838
    105          6           0       -2.871998    0.009939   -4.976123
    106          6           0       -2.741097   -1.525898   -4.549935
    107          6           0       -3.603355   -1.507359   -3.268701
    108          6           0       -3.468291    0.099011   -6.380718
    109          6           0       -1.305550   -2.113175   -4.466339
    110          6           0       -0.550099   -1.469276   -3.326139
    111          7           0       -5.134751   -1.770992   -0.730147
    112          6           0       -4.622949   -2.850561   -1.482919
    113          6           0       -5.041122   -4.093101   -0.801981
    114          6           0       -5.792606   -3.647120    0.295680
    115          6           0       -5.856446   -2.227492    0.287324
    116          6           0       -4.761529   -5.417527   -1.242254
    117          6           0       -6.555313   -4.054837    1.453585
    118          8           0       -6.775473   -5.127127    2.015248
    119          6           0       -7.345029   -2.792100    2.008773
    120          6           0       -7.141600   -2.734973    3.498026
    121          8           0       -6.012454   -2.522686    3.974020
    122          8           0       -8.341584   -2.723140    4.106528
    123          6           0       -8.192272   -2.655837    5.584701
    124          1           0       -7.823458    3.718140   -0.348563
    125          1           0       -3.264301    2.496099   -4.439065
    126          1           0       -3.524496   -3.608521   -2.989721
    127          1           0       -9.113533   -0.221828    2.332217
    128          1           0       -8.802432    2.511180    1.723167
    129          1           0      -10.102631    0.244968    0.269233
    130          1           0       -9.486543    1.543435   -0.774193
    131          1           0      -10.664003    1.951198    0.437002
    132          1           0       -7.079491    1.832821    3.230470
    133          1           0       -6.879773    0.132366    3.790606
    134          1           0       -9.563575    0.925134    4.316197
    135          1           0       -8.626757    2.361322    4.527426
    136          1           0       -7.027270    5.638844   -0.691635
    137          1           0       -6.442832    6.301520   -2.181104
    138          1           0       -5.393213    6.424675   -0.749354
    139          1           0       -4.582987    6.932295   -3.238686
    140          1           0       -2.779122    7.068263   -3.656167
    141          1           0       -3.360119    6.708296   -2.005021
    142          1           0       -1.880939    0.441658   -5.043421
    143          1           0       -3.250848   -2.191258   -5.262177
    144          1           0       -2.786837    0.568231   -7.115239
    145          1           0       -4.399537    0.646634   -6.322097
    146          1           0       -3.785156   -0.850407   -6.808965
    147          1           0       -0.748250   -1.882232   -5.377512
    148          1           0       -1.286277   -3.190677   -4.341419
    149          1           0       -0.182997   -0.538109   -3.768025
    150          1           0        0.272570   -2.104714   -3.004457
    151          1           0       -1.227451   -1.200879   -2.507109
    152          1           0       -4.468997   -5.981490   -0.366533
    153          1           0       -3.982214   -5.427948   -2.001412
    154          1           0       -5.736309   -5.697110   -1.650783
    155          1           0       -8.395239   -2.919968    1.743641
    156          1           0       -8.740759   -3.506789    6.000300
    157          1           0       -8.536261   -1.645021    5.873990
    158          1           0       -7.203406   -2.820062    5.996559
 ---------------------------------------------------------------------
 Rotational constants (GHZ):           0.0219028           0.0101752           0.0099085
 Leave Link  202 at Fri Sep 10 11:38:02 2021, MaxMem= 23488102400 cpu:               0.2 elap:               0.0
 (Enter /sw/apps/gaussian-16.0/g16/l301.exe)
 Standard basis: def2SVP (5D, 7F)
 Ernie: Thresh=  0.10000D-02 Tol=  0.10000D-05 Strict=F.
 There are  1658 symmetry adapted cartesian basis functions of A   symmetry.
 There are  1572 symmetry adapted basis functions of A   symmetry.
  1572 basis functions,  2678 primitive gaussians,  1658 cartesian basis functions
   312 alpha electrons      312 beta electrons
       nuclear repulsion energy     14866.6339646080 Hartrees.
 IExCor=20419 DFT=T Ex+Corr=CAM-B3LYP ExCW=0 ScaHFX=  1.000000
 ScaDFX=  1.000000  1.000000  1.000000  0.810000 ScalE2=  1.000000  1.000000
 IRadAn=      5 IRanWt=     -1 IRanGd=            0 ICorTp=0 IEmpDi=  4
 HFx  wShort=  0.000000 wLong=  0.330000 cFull=  0.190000 cShort=  0.000000 cLong=  0.460000
 DFx  wShort=  0.000000 wLong=  0.330000 cFull=  0.190000 cShort=  0.000000 cLong=  0.460000
 NAtoms=  158 NActive=  158 NUniq=  158 SFac= 1.00D+00 NAtFMM=   60 NAOKFM=T Big=T
 Integral buffers will be    131072 words long.
 Raffenetti 1 integral format.
 Two-electron integral symmetry is turned on.
 Leave Link  301 at Fri Sep 10 11:38:02 2021, MaxMem= 23488102400 cpu:               1.3 elap:               0.1
 (Enter /sw/apps/gaussian-16.0/g16/l302.exe)
 NPDir=0 NMtPBC=     1 NCelOv=     1 NCel=       1 NClECP=     1 NCelD=      1
         NCelK=      1 NCelE2=     1 NClLst=     1 CellRange=     0.0.
 One-electron integrals computed using PRISM.
 One-electron integral symmetry used in STVInt
   1 Symmetry operations used in ECPInt.
 ECPInt:  NShTT=  271216 NPrTT=  987664 LenC2=  134809 LenP2D=  284287.
 LDataN:  DoStor=T MaxTD1= 4 Len=   56
 NBasis=  1572 RedAO= T EigKep=  3.36D-04  NBF=  1572
 NBsUse=  1572 1.00D-06 EigRej= -1.00D+00 NBFU=  1572
 Precomputing XC quadrature grid using
 IXCGrd= 4 IRadAn=           5 IRanWt=          -1 IRanGd=           0 AccXCQ= 0.00D+00.
 Generated NRdTot=       0 NPtTot=           0 NUsed=           0 NTot=          32
 NSgBfM=  1269  1224  1234  1252  1269 MxSgAt=   158 MxSgA2=   158.
 Leave Link  302 at Fri Sep 10 11:38:07 2021, MaxMem= 23488102400 cpu:             125.7 elap:               5.3
 (Enter /sw/apps/gaussian-16.0/g16/l303.exe)
 DipDrv:  MaxL=1.
 Leave Link  303 at Fri Sep 10 11:38:07 2021, MaxMem= 23488102400 cpu:               9.1 elap:               0.4
 (Enter /sw/apps/gaussian-16.0/g16/l308.exe)
 Leave Link  308 at Fri Sep 10 11:38:08 2021, MaxMem= 23488102400 cpu:              14.9 elap:               0.7
 (Enter /sw/apps/gaussian-16.0/g16/l401.exe)
 ExpMin= 3.36D-02 ExpMax= 4.95D+03 ExpMxC= 7.45D+02 IAcc=3 IRadAn=         5 AccDes= 0.00D+00
 Harris functional with IExCor=20419 and IRadAn=       5 diagonalized for initial guess.
 HarFok:  IExCor=20419 AccDes= 0.00D+00 IRadAn=         5 IDoV= 1 UseB2=F ITyADJ=14
 ICtDFT=  3500011 ScaDFX=  1.000000  1.000000  1.000000  1.000000
 FoFCou: FMM=F IPFlag=           0 FMFlag=      100000 FMFlg1=        2001
         NFxFlg=           0 DoJE=T BraDBF=F KetDBF=T FulRan=T
         wScrn=  0.000000 ICntrl=       500 IOpCl=  0 I1Cent=   200000004 NGrid=           0
         NMat0=    1 NMatS0=      1 NMatT0=    0 NMatD0=    1 NMtDS0=    0 NMtDT0=    0
 Petite list used in FoFCou.
 Harris En= -3918.65808360876    
 JPrj=0 DoOrth=F DoCkMO=F.
 Leave Link  401 at Fri Sep 10 11:38:16 2021, MaxMem= 23488102400 cpu:             176.2 elap:               7.4
 (Enter /sw/apps/gaussian-16.0/g16/l502.exe)
 Integral symmetry usage will be decided dynamically.
 Closed shell SCF:
 Using DIIS extrapolation, IDIIS=  1040.
 NGot= 23488102400 LenX= 23482547354 LenY= 23479796732
 Requested convergence on RMS density matrix=1.00D-08 within 128 cycles.
 Requested convergence on MAX density matrix=1.00D-06.
 Requested convergence on             energy=1.00D-06.
 No special actions if energy rises.
 Fock matrices will be formed incrementally for  20 cycles.

 Cycle   1  Pass 1  IDiag  1:
 FoFJK:  IHMeth= 1 ICntrl=       0 DoSepK=T KAlg= 0 I1Cent=           0 FoldK=F
 IRaf=         1 NMat=       1 IRICut=       1 DoRegI=T DoRafI=F ISym2E= 0 IDoP0=0 IntGTp=1.
 FoFCou: FMM=T IPFlag=           0 FMFlag=      100000 FMFlg1=        2001
         NFxFlg=           0 DoJE=T BraDBF=F KetDBF=F FulRan=T
         wScrn=  0.000000 ICntrl=       500 IOpCl=  0 I1Cent=           0 NGrid=           0
         NMat0=    1 NMatS0=      1 NMatT0=    0 NMatD0=    1 NMtDS0=    0 NMtDT0=    0
 Symmetry not used in FoFCou.
 FMM levels:  10  Number of levels for PrismC:   9
 E= -4068.94933632994    
 DIIS: error= 2.04D-02 at cycle   1 NSaved=   1.
 NSaved= 1 IEnMin= 1 EnMin= -4068.94933632994     IErMin= 1 ErrMin= 2.04D-02
 ErrMax= 2.04D-02  0.00D+00 EMaxC= 1.00D-01 BMatC= 1.69D+00 BMatP= 1.69D+00
 IDIUse=3 WtCom= 7.96D-01 WtEn= 2.04D-01
 Coeff-Com:  0.100D+01
 Coeff-En:   0.100D+01
 Coeff:      0.100D+01
 Gap=     0.120 Goal=   None    Shift=    0.000
 GapD=    0.120 DampG=1.000 DampE=0.500 DampFc=0.5000 IDamp=-1.
 Damping current iteration by 5.00D-01
 RMSDP=1.57D-03 MaxDP=1.35D-01              OVMax= 2.06D-01

 Cycle   2  Pass 1  IDiag  1:
 RMSU=  7.70D-04    CP:  9.82D-01
 E= -4069.33784589795     Delta-E=       -0.388509568005 Rises=F Damp=T
 DIIS: error= 1.27D-02 at cycle   2 NSaved=   2.
 NSaved= 2 IEnMin= 2 EnMin= -4069.33784589795     IErMin= 2 ErrMin= 1.27D-02
 ErrMax= 1.27D-02  0.00D+00 EMaxC= 1.00D-01 BMatC= 3.07D-01 BMatP= 1.69D+00
 IDIUse=3 WtCom= 8.73D-01 WtEn= 1.27D-01
 Coeff-Com: -0.212D+00 0.121D+01
 Coeff-En:   0.000D+00 0.100D+01
 Coeff:     -0.185D+00 0.119D+01
 Gap=     0.138 Goal=   None    Shift=    0.000
 RMSDP=7.68D-04 MaxDP=9.44D-02 DE=-3.89D-01 OVMax= 1.89D-01

 Cycle   3  Pass 1  IDiag  1:
 RMSU=  7.36D-04    CP:  9.68D-01  1.24D+00
 E= -4069.62524098745     Delta-E=       -0.287395089501 Rises=F Damp=F
 DIIS: error= 1.58D-02 at cycle   3 NSaved=   3.
 NSaved= 3 IEnMin= 3 EnMin= -4069.62524098745     IErMin= 2 ErrMin= 1.27D-02
 ErrMax= 1.58D-02  0.00D+00 EMaxC= 1.00D-01 BMatC= 2.04D-01 BMatP= 3.07D-01
 IDIUse=3 WtCom= 8.42D-01 WtEn= 1.58D-01
 Coeff-Com: -0.267D+00 0.653D+00 0.614D+00
 Coeff-En:   0.000D+00 0.000D+00 0.100D+01
 Coeff:     -0.225D+00 0.550D+00 0.675D+00
 Gap=     0.124 Goal=   None    Shift=    0.000
 RMSDP=5.17D-04 MaxDP=4.81D-02 DE=-2.87D-01 OVMax= 1.52D-01

 Cycle   4  Pass 1  IDiag  1:
 RMSU=  2.69D-04    CP:  9.65D-01  1.55D+00  4.99D-01
 E= -4069.76327921027     Delta-E=       -0.138038222827 Rises=F Damp=F
 DIIS: error= 7.40D-03 at cycle   4 NSaved=   4.
 NSaved= 4 IEnMin= 4 EnMin= -4069.76327921027     IErMin= 4 ErrMin= 7.40D-03
 ErrMax= 7.40D-03  0.00D+00 EMaxC= 1.00D-01 BMatC= 5.21D-02 BMatP= 2.04D-01
 IDIUse=3 WtCom= 9.26D-01 WtEn= 7.40D-02
 Coeff-Com: -0.109D+00 0.228D+00 0.410D+00 0.472D+00
 Coeff-En:   0.000D+00 0.000D+00 0.227D+00 0.773D+00
 Coeff:     -0.101D+00 0.211D+00 0.397D+00 0.494D+00
 Gap=     0.123 Goal=   None    Shift=    0.000
 RMSDP=2.07D-04 MaxDP=2.06D-02 DE=-1.38D-01 OVMax= 6.89D-02

 Cycle   5  Pass 1  IDiag  1:
 RMSU=  7.90D-05    CP:  9.64D-01  1.49D+00  6.87D-01  5.40D-01
 E= -4069.81076492336     Delta-E=       -0.047485713083 Rises=F Damp=F
 DIIS: error= 7.53D-04 at cycle   5 NSaved=   5.
 NSaved= 5 IEnMin= 5 EnMin= -4069.81076492336     IErMin= 5 ErrMin= 7.53D-04
 ErrMax= 7.53D-04  0.00D+00 EMaxC= 1.00D-01 BMatC= 1.33D-03 BMatP= 5.21D-02
 IDIUse=3 WtCom= 9.92D-01 WtEn= 7.53D-03
 Coeff-Com: -0.378D-01 0.745D-01 0.173D+00 0.256D+00 0.534D+00
 Coeff-En:   0.000D+00 0.000D+00 0.000D+00 0.000D+00 0.100D+01
 Coeff:     -0.376D-01 0.739D-01 0.172D+00 0.254D+00 0.538D+00
 Gap=     0.122 Goal=   None    Shift=    0.000
 RMSDP=4.48D-05 MaxDP=4.24D-03 DE=-4.75D-02 OVMax= 1.96D-02

 Cycle   6  Pass 1  IDiag  1:
 RMSU=  3.23D-05    CP:  9.64D-01  1.49D+00  6.78D-01  6.18D-01  7.25D-01
 E= -4069.81196245330     Delta-E=       -0.001197529946 Rises=F Damp=F
 DIIS: error= 1.95D-04 at cycle   6 NSaved=   6.
 NSaved= 6 IEnMin= 6 EnMin= -4069.81196245330     IErMin= 6 ErrMin= 1.95D-04
 ErrMax= 1.95D-04  0.00D+00 EMaxC= 1.00D-01 BMatC= 1.97D-04 BMatP= 1.33D-03
 IDIUse=3 WtCom= 9.98D-01 WtEn= 1.95D-03
 Coeff-Com:  0.188D-02-0.598D-02 0.132D-01 0.429D-01 0.302D+00 0.646D+00
 Coeff-En:   0.000D+00 0.000D+00 0.000D+00 0.000D+00 0.112D+00 0.888D+00
 Coeff:      0.188D-02-0.597D-02 0.132D-01 0.428D-01 0.302D+00 0.646D+00
 Gap=     0.123 Goal=   None    Shift=    0.000
 RMSDP=1.73D-05 MaxDP=1.22D-03 DE=-1.20D-03 OVMax= 8.14D-03

 Cycle   7  Pass 1  IDiag  1:
 RMSU=  1.14D-05    CP:  9.64D-01  1.49D+00  6.84D-01  6.16D-01  8.36D-01
                    CP:  7.40D-01
 E= -4069.81217996452     Delta-E=       -0.000217511220 Rises=F Damp=F
 DIIS: error= 9.69D-05 at cycle   7 NSaved=   7.
 NSaved= 7 IEnMin= 7 EnMin= -4069.81217996452     IErMin= 7 ErrMin= 9.69D-05
 ErrMax= 9.69D-05  0.00D+00 EMaxC= 1.00D-01 BMatC= 2.58D-05 BMatP= 1.97D-04
 IDIUse=1 WtCom= 1.00D+00 WtEn= 0.00D+00
 Coeff-Com:  0.457D-02-0.101D-01-0.874D-02-0.280D-02 0.107D+00 0.342D+00
 Coeff-Com:  0.568D+00
 Coeff:      0.457D-02-0.101D-01-0.874D-02-0.280D-02 0.107D+00 0.342D+00
 Coeff:      0.568D+00
 Gap=     0.123 Goal=   None    Shift=    0.000
 RMSDP=6.90D-06 MaxDP=1.11D-03 DE=-2.18D-04 OVMax= 3.50D-03

 Cycle   8  Pass 1  IDiag  1:
 RMSU=  4.88D-06    CP:  9.64D-01  1.50D+00  6.85D-01  6.21D-01  8.36D-01
                    CP:  8.64D-01  8.04D-01
 E= -4069.81221185657     Delta-E=       -0.000031892043 Rises=F Damp=F
 DIIS: error= 5.26D-05 at cycle   8 NSaved=   8.
 NSaved= 8 IEnMin= 8 EnMin= -4069.81221185657     IErMin= 8 ErrMin= 5.26D-05
 ErrMax= 5.26D-05  0.00D+00 EMaxC= 1.00D-01 BMatC= 4.98D-06 BMatP= 2.58D-05
 IDIUse=1 WtCom= 1.00D+00 WtEn= 0.00D+00
 Coeff-Com:  0.223D-02-0.443D-02-0.789D-02-0.121D-01-0.899D-02 0.350D-01
 Coeff-Com:  0.319D+00 0.677D+00
 Coeff:      0.223D-02-0.443D-02-0.789D-02-0.121D-01-0.899D-02 0.350D-01
 Coeff:      0.319D+00 0.677D+00
 Gap=     0.123 Goal=   None    Shift=    0.000
 RMSDP=3.40D-06 MaxDP=3.74D-04 DE=-3.19D-05 OVMax= 1.17D-03

 Cycle   9  Pass 1  IDiag  1:
 RMSU=  1.98D-06    CP:  9.64D-01  1.49D+00  6.85D-01  6.22D-01  8.53D-01
                    CP:  8.92D-01  9.95D-01  9.69D-01
 E= -4069.81221997585     Delta-E=       -0.000008119285 Rises=F Damp=F
 DIIS: error= 2.04D-05 at cycle   9 NSaved=   9.
 NSaved= 9 IEnMin= 9 EnMin= -4069.81221997585     IErMin= 9 ErrMin= 2.04D-05
 ErrMax= 2.04D-05  0.00D+00 EMaxC= 1.00D-01 BMatC= 7.79D-07 BMatP= 4.98D-06
 IDIUse=1 WtCom= 1.00D+00 WtEn= 0.00D+00
 Coeff-Com:  0.483D-03-0.803D-03-0.276D-02-0.612D-02-0.205D-01-0.406D-01
 Coeff-Com:  0.921D-01 0.341D+00 0.638D+00
 Coeff:      0.483D-03-0.803D-03-0.276D-02-0.612D-02-0.205D-01-0.406D-01
 Coeff:      0.921D-01 0.341D+00 0.638D+00
 Gap=     0.123 Goal=   None    Shift=    0.000
 RMSDP=1.48D-06 MaxDP=1.55D-04 DE=-8.12D-06 OVMax= 7.91D-04

 Cycle  10  Pass 1  IDiag  1:
 RMSU=  9.72D-07    CP:  9.64D-01  1.49D+00  6.85D-01  6.23D-01  8.57D-01
                    CP:  9.05D-01  1.04D+00  1.14D+00  1.06D+00
 E= -4069.81222173951     Delta-E=       -0.000001763656 Rises=F Damp=F
 DIIS: error= 9.64D-06 at cycle  10 NSaved=  10.
 NSaved=10 IEnMin=10 EnMin= -4069.81222173951     IErMin=10 ErrMin= 9.64D-06
 ErrMax= 9.64D-06  0.00D+00 EMaxC= 1.00D-01 BMatC= 1.74D-07 BMatP= 7.79D-07
 IDIUse=1 WtCom= 1.00D+00 WtEn= 0.00D+00
 Coeff-Com: -0.429D-03 0.902D-03 0.122D-02 0.106D-02-0.361D-02-0.313D-01
 Coeff-Com: -0.445D-01-0.704D-01 0.231D+00 0.916D+00
 Coeff:     -0.429D-03 0.902D-03 0.122D-02 0.106D-02-0.361D-02-0.313D-01
 Coeff:     -0.445D-01-0.704D-01 0.231D+00 0.916D+00
 Gap=     0.123 Goal=   None    Shift=    0.000
 RMSDP=1.27D-06 MaxDP=1.22D-04 DE=-1.76D-06 OVMax= 6.61D-04

 Cycle  11  Pass 1  IDiag  1:
 RMSU=  5.45D-07    CP:  9.64D-01  1.50D+00  6.85D-01  6.23D-01  8.59D-01
                    CP:  9.15D-01  1.09D+00  1.25D+00  1.40D+00  1.38D+00
 E= -4069.81222258496     Delta-E=       -0.000000845452 Rises=F Damp=F
 DIIS: error= 4.36D-06 at cycle  11 NSaved=  11.
 NSaved=11 IEnMin=11 EnMin= -4069.81222258496     IErMin=11 ErrMin= 4.36D-06
 ErrMax= 4.36D-06  0.00D+00 EMaxC= 1.00D-01 BMatC= 6.96D-08 BMatP= 1.74D-07
 IDIUse=1 WtCom= 1.00D+00 WtEn= 0.00D+00
 Coeff-Com: -0.341D-03 0.664D-03 0.138D-02 0.215D-02 0.443D-02-0.845D-02
 Coeff-Com: -0.413D-01-0.132D+00-0.424D-01 0.489D+00 0.727D+00
 Coeff:     -0.341D-03 0.664D-03 0.138D-02 0.215D-02 0.443D-02-0.845D-02
 Coeff:     -0.413D-01-0.132D+00-0.424D-01 0.489D+00 0.727D+00
 Gap=     0.123 Goal=   None    Shift=    0.000
 RMSDP=7.23D-07 MaxDP=6.91D-05 DE=-8.45D-07 OVMax= 4.11D-04

 Cycle  12  Pass 1  IDiag  1:
 RMSU=  2.75D-07    CP:  9.64D-01  1.50D+00  6.85D-01  6.23D-01  8.60D-01
                    CP:  9.17D-01  1.11D+00  1.32D+00  1.56D+00  1.78D+00
                    CP:  1.19D+00
 E= -4069.81222287516     Delta-E=       -0.000000290198 Rises=F Damp=F
 DIIS: error= 2.72D-06 at cycle  12 NSaved=  12.
 NSaved=12 IEnMin=12 EnMin= -4069.81222287516     IErMin=12 ErrMin= 2.72D-06
 ErrMax= 2.72D-06  0.00D+00 EMaxC= 1.00D-01 BMatC= 1.62D-08 BMatP= 6.96D-08
 IDIUse=1 WtCom= 1.00D+00 WtEn= 0.00D+00
 Coeff-Com: -0.743D-05-0.262D-05 0.214D-03 0.557D-03 0.344D-02 0.392D-02
 Coeff-Com:  0.220D-02-0.352D-01-0.732D-01-0.578D-01 0.246D+00 0.910D+00
 Coeff:     -0.743D-05-0.262D-05 0.214D-03 0.557D-03 0.344D-02 0.392D-02
 Coeff:      0.220D-02-0.352D-01-0.732D-01-0.578D-01 0.246D+00 0.910D+00
 Gap=     0.123 Goal=   None    Shift=    0.000
 RMSDP=4.52D-07 MaxDP=2.55D-05 DE=-2.90D-07 OVMax= 2.68D-04

 Cycle  13  Pass 1  IDiag  1:
 RMSU=  1.71D-07    CP:  9.64D-01  1.50D+00  6.85D-01  6.24D-01  8.60D-01
                    CP:  9.17D-01  1.11D+00  1.34D+00  1.67D+00  2.00D+00
                    CP:  1.60D+00  1.27D+00
 E= -4069.81222297472     Delta-E=       -0.000000099568 Rises=F Damp=F
 DIIS: error= 1.45D-06 at cycle  13 NSaved=  13.
 NSaved=13 IEnMin=13 EnMin= -4069.81222297472     IErMin=13 ErrMin= 1.45D-06
 ErrMax= 1.45D-06  0.00D+00 EMaxC= 1.00D-01 BMatC= 9.08D-09 BMatP= 1.62D-08
 IDIUse=1 WtCom= 1.00D+00 WtEn= 0.00D+00
 Coeff-Com:  0.122D-03-0.249D-03-0.373D-03-0.458D-03 0.659D-03 0.493D-02
 Coeff-Com:  0.187D-01 0.240D-01-0.306D-01-0.240D+00-0.168D+00 0.595D+00
 Coeff-Com:  0.797D+00
 Coeff:      0.122D-03-0.249D-03-0.373D-03-0.458D-03 0.659D-03 0.493D-02
 Coeff:      0.187D-01 0.240D-01-0.306D-01-0.240D+00-0.168D+00 0.595D+00
 Coeff:      0.797D+00
 Gap=     0.123 Goal=   None    Shift=    0.000
 RMSDP=3.60D-07 MaxDP=2.39D-05 DE=-9.96D-08 OVMax= 2.23D-04

 Cycle  14  Pass 1  IDiag  1:
 RMSU=  7.91D-08    CP:  9.64D-01  1.50D+00  6.85D-01  6.24D-01  8.60D-01
                    CP:  9.18D-01  1.12D+00  1.37D+00  1.75D+00  2.20D+00
                    CP:  1.86D+00  1.78D+00  1.10D+00
 E= -4069.81222301467     Delta-E=       -0.000000039949 Rises=F Damp=F
 DIIS: error= 7.47D-07 at cycle  14 NSaved=  14.
 NSaved=14 IEnMin=14 EnMin= -4069.81222301467     IErMin=14 ErrMin= 7.47D-07
 ErrMax= 7.47D-07  0.00D+00 EMaxC= 1.00D-01 BMatC= 1.34D-09 BMatP= 9.08D-09
 IDIUse=1 WtCom= 1.00D+00 WtEn= 0.00D+00
 Coeff-Com:  0.680D-04-0.134D-03-0.252D-03-0.392D-03-0.435D-03 0.119D-02
 Coeff-Com:  0.101D-01 0.197D-01 0.567D-02-0.101D+00-0.145D+00 0.914D-01
 Coeff-Com:  0.400D+00 0.719D+00
 Coeff:      0.680D-04-0.134D-03-0.252D-03-0.392D-03-0.435D-03 0.119D-02
 Coeff:      0.101D-01 0.197D-01 0.567D-02-0.101D+00-0.145D+00 0.914D-01
 Coeff:      0.400D+00 0.719D+00
 Gap=     0.123 Goal=   None    Shift=    0.000
 RMSDP=1.07D-07 MaxDP=7.42D-06 DE=-3.99D-08 OVMax= 6.09D-05

 Cycle  15  Pass 1  IDiag  1:
 RMSU=  3.90D-08    CP:  9.64D-01  1.50D+00  6.85D-01  6.24D-01  8.60D-01
                    CP:  9.18D-01  1.12D+00  1.37D+00  1.77D+00  2.25D+00
                    CP:  1.96D+00  1.93D+00  1.34D+00  1.04D+00
 E= -4069.81222301907     Delta-E=       -0.000000004398 Rises=F Damp=F
 DIIS: error= 3.59D-07 at cycle  15 NSaved=  15.
 NSaved=15 IEnMin=15 EnMin= -4069.81222301907     IErMin=15 ErrMin= 3.59D-07
 ErrMax= 3.59D-07  0.00D+00 EMaxC= 1.00D-01 BMatC= 2.42D-10 BMatP= 1.34D-09
 IDIUse=1 WtCom= 1.00D+00 WtEn= 0.00D+00
 Coeff-Com:  0.589D-05-0.995D-05-0.350D-04-0.855D-04-0.286D-03-0.551D-03
 Coeff-Com:  0.109D-02 0.271D-02 0.876D-02 0.140D-02-0.305D-01-0.712D-01
 Coeff-Com:  0.288D-01 0.304D+00 0.756D+00
 Coeff:      0.589D-05-0.995D-05-0.350D-04-0.855D-04-0.286D-03-0.551D-03
 Coeff:      0.109D-02 0.271D-02 0.876D-02 0.140D-02-0.305D-01-0.712D-01
 Coeff:      0.288D-01 0.304D+00 0.756D+00
 Gap=     0.123 Goal=   None    Shift=    0.000
 RMSDP=3.99D-08 MaxDP=2.13D-06 DE=-4.40D-09 OVMax= 2.98D-05

 Cycle  16  Pass 1  IDiag  1:
 RMSU=  1.94D-08    CP:  9.64D-01  1.50D+00  6.85D-01  6.24D-01  8.60D-01
                    CP:  9.18D-01  1.12D+00  1.37D+00  1.77D+00  2.26D+00
                    CP:  1.98D+00  1.98D+00  1.41D+00  1.24D+00  1.13D+00
 E= -4069.81222301981     Delta-E=       -0.000000000742 Rises=F Damp=F
 DIIS: error= 2.06D-07 at cycle  16 NSaved=  16.
 NSaved=16 IEnMin=16 EnMin= -4069.81222301981     IErMin=16 ErrMin= 2.06D-07
 ErrMax= 2.06D-07  0.00D+00 EMaxC= 1.00D-01 BMatC= 8.88D-11 BMatP= 2.42D-10
 IDIUse=1 WtCom= 1.00D+00 WtEn= 0.00D+00
 Coeff-Com: -0.137D-04 0.278D-04 0.445D-04 0.487D-04-0.346D-04-0.626D-03
 Coeff-Com: -0.174D-02-0.407D-02 0.387D-02 0.248D-01 0.197D-01-0.627D-01
 Coeff-Com: -0.793D-01-0.287D-01 0.400D+00 0.729D+00
 Coeff:     -0.137D-04 0.278D-04 0.445D-04 0.487D-04-0.346D-04-0.626D-03
 Coeff:     -0.174D-02-0.407D-02 0.387D-02 0.248D-01 0.197D-01-0.627D-01
 Coeff:     -0.793D-01-0.287D-01 0.400D+00 0.729D+00
 Gap=     0.123 Goal=   None    Shift=    0.000
 RMSDP=2.31D-08 MaxDP=1.32D-06 DE=-7.42D-10 OVMax= 1.30D-05

 Cycle  17  Pass 1  IDiag  1:
 RMSU=  1.08D-08    CP:  9.64D-01  1.50D+00  6.85D-01  6.24D-01  8.60D-01
                    CP:  9.18D-01  1.12D+00  1.37D+00  1.77D+00  2.26D+00
                    CP:  2.00D+00  2.01D+00  1.45D+00  1.34D+00  1.42D+00
                    CP:  1.20D+00
 E= -4069.81222302013     Delta-E=       -0.000000000313 Rises=F Damp=F
 DIIS: error= 9.57D-08 at cycle  17 NSaved=  17.
 NSaved=17 IEnMin=17 EnMin= -4069.81222302013     IErMin=17 ErrMin= 9.57D-08
 ErrMax= 9.57D-08  0.00D+00 EMaxC= 1.00D-01 BMatC= 1.95D-11 BMatP= 8.88D-11
 IDIUse=1 WtCom= 1.00D+00 WtEn= 0.00D+00
 Coeff-Com: -0.751D-05 0.147D-04 0.293D-04 0.425D-04 0.780D-04-0.139D-03
 Coeff-Com: -0.889D-03-0.283D-02-0.747D-04 0.101D-01 0.175D-01-0.889D-02
 Coeff-Com: -0.373D-01-0.987D-01-0.168D-01 0.303D+00 0.835D+00
 Coeff:     -0.751D-05 0.147D-04 0.293D-04 0.425D-04 0.780D-04-0.139D-03
 Coeff:     -0.889D-03-0.283D-02-0.747D-04 0.101D-01 0.175D-01-0.889D-02
 Coeff:     -0.373D-01-0.987D-01-0.168D-01 0.303D+00 0.835D+00
 Gap=     0.123 Goal=   None    Shift=    0.000
 RMSDP=1.35D-08 MaxDP=7.77D-07 DE=-3.13D-10 OVMax= 9.97D-06

 Cycle  18  Pass 1  IDiag  1:
 RMSU=  5.40D-09    CP:  9.64D-01  1.50D+00  6.85D-01  6.24D-01  8.60D-01
                    CP:  9.18D-01  1.12D+00  1.37D+00  1.77D+00  2.26D+00
                    CP:  2.00D+00  2.01D+00  1.47D+00  1.40D+00  1.58D+00
                    CP:  1.60D+00  1.33D+00
 E= -4069.81222302025     Delta-E=       -0.000000000127 Rises=F Damp=F
 DIIS: error= 7.24D-08 at cycle  18 NSaved=  18.
 NSaved=18 IEnMin=18 EnMin= -4069.81222302025     IErMin=18 ErrMin= 7.24D-08
 ErrMax= 7.24D-08  0.00D+00 EMaxC= 1.00D-01 BMatC= 8.41D-12 BMatP= 1.95D-11
 IDIUse=1 WtCom= 1.00D+00 WtEn= 0.00D+00
 Coeff-Com:  0.882D-06-0.211D-05-0.254D-06 0.424D-05 0.642D-04 0.149D-03
 Coeff-Com:  0.237D-03-0.138D-03-0.117D-02-0.429D-02 0.178D-02 0.167D-01
 Coeff-Com:  0.120D-01-0.427D-01-0.150D+00-0.137D+00 0.417D+00 0.888D+00
 Coeff:      0.882D-06-0.211D-05-0.254D-06 0.424D-05 0.642D-04 0.149D-03
 Coeff:      0.237D-03-0.138D-03-0.117D-02-0.429D-02 0.178D-02 0.167D-01
 Coeff:      0.120D-01-0.427D-01-0.150D+00-0.137D+00 0.417D+00 0.888D+00
 Gap=     0.123 Goal=   None    Shift=    0.000
 RMSDP=1.09D-08 MaxDP=6.62D-07 DE=-1.27D-10 OVMax= 6.10D-06

 Cycle  19  Pass 1  IDiag  1:
 RMSU=  3.17D-09    CP:  9.64D-01  1.50D+00  6.85D-01  6.24D-01  8.60D-01
                    CP:  9.18D-01  1.12D+00  1.37D+00  1.77D+00  2.27D+00
                    CP:  2.00D+00  2.02D+00  1.48D+00  1.44D+00  1.71D+00
                    CP:  1.87D+00  1.85D+00  1.20D+00
 E= -4069.81222302020     Delta-E=        0.000000000055 Rises=F Damp=F
 DIIS: error= 2.59D-08 at cycle  19 NSaved=  19.
 NSaved=19 IEnMin=18 EnMin= -4069.81222302025     IErMin=19 ErrMin= 2.59D-08
 ErrMax= 2.59D-08  0.00D+00 EMaxC= 1.00D-01 BMatC= 2.36D-12 BMatP= 8.41D-12
 IDIUse=1 WtCom= 1.00D+00 WtEn= 0.00D+00
 Coeff-Com:  0.311D-05-0.631D-05-0.102D-04-0.122D-04 0.190D-04 0.136D-03
 Coeff-Com:  0.483D-03 0.835D-03-0.620D-03-0.644D-02-0.492D-02 0.138D-01
 Coeff-Com:  0.219D-01 0.754D-02-0.870D-01-0.200D+00-0.725D-02 0.538D+00
 Coeff-Com:  0.724D+00
 Coeff:      0.311D-05-0.631D-05-0.102D-04-0.122D-04 0.190D-04 0.136D-03
 Coeff:      0.483D-03 0.835D-03-0.620D-03-0.644D-02-0.492D-02 0.138D-01
 Coeff:      0.219D-01 0.754D-02-0.870D-01-0.200D+00-0.725D-02 0.538D+00
 Coeff:      0.724D+00
 Gap=     0.123 Goal=   None    Shift=    0.000
 RMSDP=5.71D-09 MaxDP=4.15D-07 DE= 5.46D-11 OVMax= 4.12D-06

 SCF Done:  E(RCAM-B3LYP) =  -4069.81222302     A.U. after   19 cycles
            NFock= 19  Conv=0.57D-08     -V/T= 2.0102
 KE= 4.028801106644D+03 PE=-3.921498155434D+04 EE= 1.624973426007D+04
 Leave Link  502 at Fri Sep 10 11:48:14 2021, MaxMem= 23488102400 cpu:           13768.5 elap:             598.1
 (Enter /sw/apps/gaussian-16.0/g16/l801.exe)
 DoSCS=F DFT=T ScalE2(SS,OS)=  1.000000  1.000000
 ExpMin= 3.36D-02 ExpMax= 4.95D+03 ExpMxC= 7.45D+02 IAcc=3 IRadAn=         5 AccDes= 0.00D+00
 HarFok:  IExCor=  205 AccDes= 0.00D+00 IRadAn=         5 IDoV=-2 UseB2=F ITyADJ=14
 ICtDFT= 12500011 ScaDFX=  1.000000  1.000000  1.000000  1.000000
 GSVD:  LWork=       -9588 too small for GESVD, short by       45590 words or       45590 for optimal perf.
 Largest valence mixing into a core orbital is  2.03D-04
 Largest core mixing into a valence orbital is  5.23D-05
 Range of M.O.s used for correlation:    95  1572
 NBasis=  1572 NAE=   312 NBE=   312 NFC=    94 NFV=     0
 NROrb=   1478 NOA=   218 NOB=   218 NVA=  1260 NVB=  1260
 Leave Link  801 at Fri Sep 10 11:48:14 2021, MaxMem= 23488102400 cpu:               8.5 elap:               0.4
 (Enter /sw/apps/gaussian-16.0/g16/l914.exe)
 RHF ground state
 Two-electron integrals replicated using symmetry.
 MDV= 23488102400 DFT=T DoStab=F Mixed=T DoRPA=T DoScal=F NonHer=T
 Making orbital integer symmetry assigments:
 Orbital symmetries:
       Occupied  (A) (A) (A) (A) (A) (A) (A) (A) (A) (A) (A) (A)
                 (A) (A) (A) (A) (A) (A) (A) (A) (A) (A) (A) (A)
                 (A) (A) (A) (A) (A) (A) (A) (A) (A) (A) (A) (A)
                 (A) (A) (A) (A) (A) (A) (A) (A) (A) (A) (A) (A)
                 (A) (A) (A) (A) (A) (A) (A) (A) (A) (A) (A) (A)
                 (A) (A) (A) (A) (A) (A) (A) (A) (A) (A) (A) (A)
                 (A) (A) (A) (A) (A) (A) (A) (A) (A) (A) (A) (A)
                 (A) (A) (A) (A) (A) (A) (A) (A) (A) (A) (A) (A)
                 (A) (A) (A) (A) (A) (A) (A) (A) (A) (A) (A) (A)
                 (A) (A) (A) (A) (A) (A) (A) (A) (A) (A) (A) (A)
                 (A) (A) (A) (A) (A) (A) (A) (A) (A) (A) (A) (A)
                 (A) (A) (A) (A) (A) (A) (A) (A) (A) (A) (A) (A)
                 (A) (A) (A) (A) (A) (A) (A) (A) (A) (A) (A) (A)
                 (A) (A) (A) (A) (A) (A) (A) (A) (A) (A) (A) (A)
                 (A) (A) (A) (A) (A) (A) (A) (A) (A) (A) (A) (A)
                 (A) (A) (A) (A) (A) (A) (A) (A) (A) (A) (A) (A)
                 (A) (A) (A) (A) (A) (A) (A) (A) (A) (A) (A) (A)
                 (A) (A) (A) (A) (A) (A) (A) (A) (A) (A) (A) (A)
                 (A) (A) (A) (A) (A) (A) (A) (A) (A) (A) (A) (A)
                 (A) (A) (A) (A) (A) (A) (A) (A) (A) (A) (A) (A)
                 (A) (A) (A) (A) (A) (A) (A) (A) (A) (A) (A) (A)
                 (A) (A) (A) (A) (A) (A) (A) (A) (A) (A) (A) (A)
                 (A) (A) (A) (A) (A) (A) (A) (A) (A) (A) (A) (A)
                 (A) (A) (A) (A) (A) (A) (A) (A) (A) (A) (A) (A)
                 (A) (A) (A) (A) (A) (A) (A) (A) (A) (A) (A) (A)
                 (A) (A) (A) (A) (A) (A) (A) (A) (A) (A) (A) (A)
       Virtual   (A) (A) (A) (A) (A) (A) (A) (A) (A) (A) (A) (A)
                 (A) (A) (A) (A) (A) (A) (A) (A) (A) (A) (A) (A)
                 (A) (A) (A) (A) (A) (A) (A) (A) (A) (A) (A) (A)
                 (A) (A) (A) (A) (A) (A) (A) (A) (A) (A) (A) (A)
                 (A) (A) (A) (A) (A) (A) (A) (A) (A) (A) (A) (A)
                 (A) (A) (A) (A) (A) (A) (A) (A) (A) (A) (A) (A)
                 (A) (A) (A) (A) (A) (A) (A) (A) (A) (A) (A) (A)
                 (A) (A) (A) (A) (A) (A) (A) (A) (A) (A) (A) (A)
                 (A) (A) (A) (A) (A) (A) (A) (A) (A) (A) (A) (A)
                 (A) (A) (A) (A) (A) (A) (A) (A) (A) (A) (A) (A)
                 (A) (A) (A) (A) (A) (A) (A) (A) (A) (A) (A) (A)
                 (A) (A) (A) (A) (A) (A) (A) (A) (A) (A) (A) (A)
                 (A) (A) (A) (A) (A) (A) (A) (A) (A) (A) (A) (A)
                 (A) (A) (A) (A) (A) (A) (A) (A) (A) (A) (A) (A)
                 (A) (A) (A) (A) (A) (A) (A) (A) (A) (A) (A) (A)
                 (A) (A) (A) (A) (A) (A) (A) (A) (A) (A) (A) (A)
                 (A) (A) (A) (A) (A) (A) (A) (A) (A) (A) (A) (A)
                 (A) (A) (A) (A) (A) (A) (A) (A) (A) (A) (A) (A)
                 (A) (A) (A) (A) (A) (A) (A) (A) (A) (A) (A) (A)
                 (A) (A) (A) (A) (A) (A) (A) (A) (A) (A) (A) (A)
                 (A) (A) (A) (A) (A) (A) (A) (A) (A) (A) (A) (A)
                 (A) (A) (A) (A) (A) (A) (A) (A) (A) (A) (A) (A)
                 (A) (A) (A) (A) (A) (A) (A) (A) (A) (A) (A) (A)
                 (A) (A) (A) (A) (A) (A) (A) (A) (A) (A) (A) (A)
                 (A) (A) (A) (A) (A) (A) (A) (A) (A) (A) (A) (A)
                 (A) (A) (A) (A) (A) (A) (A) (A) (A) (A) (A) (A)
                 (A) (A) (A) (A) (A) (A) (A) (A) (A) (A) (A) (A)
                 (A) (A) (A) (A) (A) (A) (A) (A) (A) (A) (A) (A)
                 (A) (A) (A) (A) (A) (A) (A) (A) (A) (A) (A) (A)
                 (A) (A) (A) (A) (A) (A) (A) (A) (A) (A) (A) (A)
                 (A) (A) (A) (A) (A) (A) (A) (A) (A) (A) (A) (A)
                 (A) (A) (A) (A) (A) (A) (A) (A) (A) (A) (A) (A)
                 (A) (A) (A) (A) (A) (A) (A) (A) (A) (A) (A) (A)
                 (A) (A) (A) (A) (A) (A) (A) (A) (A) (A) (A) (A)
                 (A) (A) (A) (A) (A) (A) (A) (A) (A) (A) (A) (A)
                 (A) (A) (A) (A) (A) (A) (A) (A) (A) (A) (A) (A)
                 (A) (A) (A) (A) (A) (A) (A) (A) (A) (A) (A) (A)
                 (A) (A) (A) (A) (A) (A) (A) (A) (A) (A) (A) (A)
                 (A) (A) (A) (A) (A) (A) (A) (A) (A) (A) (A) (A)
                 (A) (A) (A) (A) (A) (A) (A) (A) (A) (A) (A) (A)
                 (A) (A) (A) (A) (A) (A) (A) (A) (A) (A) (A) (A)
                 (A) (A) (A) (A) (A) (A) (A) (A) (A) (A) (A) (A)
                 (A) (A) (A) (A) (A) (A) (A) (A) (A) (A) (A) (A)
                 (A) (A) (A) (A) (A) (A) (A) (A) (A) (A) (A) (A)
                 (A) (A) (A) (A) (A) (A) (A) (A) (A) (A) (A) (A)
                 (A) (A) (A) (A) (A) (A) (A) (A) (A) (A) (A) (A)
                 (A) (A) (A) (A) (A) (A) (A) (A) (A) (A) (A) (A)
                 (A) (A) (A) (A) (A) (A) (A) (A) (A) (A) (A) (A)
                 (A) (A) (A) (A) (A) (A) (A) (A) (A) (A) (A) (A)
                 (A) (A) (A) (A) (A) (A) (A) (A) (A) (A) (A) (A)
                 (A) (A) (A) (A) (A) (A) (A) (A) (A) (A) (A) (A)
                 (A) (A) (A) (A) (A) (A) (A) (A) (A) (A) (A) (A)
                 (A) (A) (A) (A) (A) (A) (A) (A) (A) (A) (A) (A)
                 (A) (A) (A) (A) (A) (A) (A) (A) (A) (A) (A) (A)
                 (A) (A) (A) (A) (A) (A) (A) (A) (A) (A) (A) (A)
                 (A) (A) (A) (A) (A) (A) (A) (A) (A) (A) (A) (A)
                 (A) (A) (A) (A) (A) (A) (A) (A) (A) (A) (A) (A)
                 (A) (A) (A) (A) (A) (A) (A) (A) (A) (A) (A) (A)
                 (A) (A) (A) (A) (A) (A) (A) (A) (A) (A) (A) (A)
                 (A) (A) (A) (A) (A) (A) (A) (A) (A) (A) (A) (A)
                 (A) (A) (A) (A) (A) (A) (A) (A) (A) (A) (A) (A)
                 (A) (A) (A) (A) (A) (A) (A) (A) (A) (A) (A) (A)
                 (A) (A) (A) (A) (A) (A) (A) (A) (A) (A) (A) (A)
                 (A) (A) (A) (A) (A) (A) (A) (A) (A) (A) (A) (A)
                 (A) (A) (A) (A) (A) (A) (A) (A) (A) (A) (A) (A)
                 (A) (A) (A) (A) (A) (A) (A) (A) (A) (A) (A) (A)
                 (A) (A) (A) (A) (A) (A) (A) (A) (A) (A) (A) (A)
                 (A) (A) (A) (A) (A) (A) (A) (A) (A) (A) (A) (A)
                 (A) (A) (A) (A) (A) (A) (A) (A) (A) (A) (A) (A)
                 (A) (A) (A) (A) (A) (A) (A) (A) (A) (A) (A) (A)
                 (A) (A) (A) (A) (A) (A) (A) (A) (A) (A) (A) (A)
                 (A) (A) (A) (A) (A) (A) (A) (A) (A) (A) (A) (A)
                 (A) (A) (A) (A) (A) (A) (A) (A) (A) (A) (A) (A)
                 (A) (A) (A) (A) (A) (A) (A) (A) (A) (A) (A) (A)
                 (A) (A) (A) (A) (A) (A) (A) (A) (A) (A) (A) (A)
                 (A) (A) (A) (A) (A) (A) (A) (A) (A) (A) (A) (A)
                 (A) (A) (A) (A) (A) (A) (A) (A) (A) (A) (A) (A)
                 (A) (A) (A) (A) (A) (A) (A) (A) (A) (A) (A) (A)
                 (A) (A) (A) (A) (A) (A) (A) (A) (A) (A) (A) (A)
                 (A) (A) (A) (A) (A) (A) (A) (A) (A) (A) (A) (A)
                 (A) (A) (A) (A) (A) (A) (A) (A) (A) (A) (A) (A)
                 (A) (A) (A) (A) (A) (A) (A) (A) (A) (A) (A) (A)
                 (A) (A) (A) (A) (A) (A) (A) (A) (A) (A) (A) (A)
                 (A) (A) (A) (A) (A) (A) (A) (A) (A) (A) (A) (A)
                 (A) (A) (A) (A) (A) (A) (A) (A) (A) (A) (A) (A)
                 (A) (A) (A) (A) (A) (A) (A) (A) (A) (A) (A) (A)
                 (A) (A) (A) (A) (A) (A) (A) (A) (A) (A) (A) (A)
                 (A) (A) (A) (A) (A) (A) (A) (A) (A) (A) (A) (A)
                 (A) (A) (A) (A) (A) (A) (A) (A) (A) (A) (A) (A)
                 (A) (A) (A) (A) (A) (A) (A) (A) (A) (A) (A) (A)
                 (A) (A) (A) (A) (A) (A) (A) (A) (A) (A) (A) (A)
                 (A) (A) (A) (A) (A) (A) (A) (A) (A) (A) (A) (A)
                 (A) (A) (A) (A) (A) (A) (A) (A) (A) (A) (A) (A)
                 (A) (A) (A) (A) (A) (A) (A) (A) (A) (A) (A) (A)
                 (A) (A) (A) (A) (A) (A) (A) (A) (A) (A) (A) (A)
                 (A) (A) (A) (A) (A) (A) (A) (A) (A) (A) (A) (A)
                 (A) (A) (A) (A) (A) (A) (A) (A) (A) (A) (A) (A)
                 (A) (A) (A) (A) (A) (A) (A) (A) (A) (A) (A) (A)
                 (A) (A) (A) (A) (A) (A) (A) (A) (A) (A) (A) (A)
                 (A) (A) (A) (A) (A) (A) (A) (A) (A) (A) (A) (A)
                 (A) (A) (A) (A) (A) (A) (A) (A) (A) (A) (A) (A)
                 (A) (A) (A) (A) (A) (A) (A) (A) (A) (A) (A) (A)
                 (A) (A) (A) (A) (A) (A) (A) (A) (A) (A) (A) (A)
                 (A) (A) (A) (A) (A) (A) (A) (A) (A) (A) (A) (A)
                 (A) (A) (A) (A) (A) (A) (A) (A) (A) (A) (A) (A)
    20 initial guesses have been made.
 Convergence on wavefunction:    0.001000000000000
 Davidson Disk Diagonalization:  ConvIn= 1.00D-03 SkipCon=T Conv= 1.00D-03.
 Max sub-space:  2000 roots to seek:    20 dimension of matrix:       549360
 Iteration     1 Dimension    20 NMult     0 NNew     20
 CISAX will form    20 AO SS matrices at one time.
 NMat=    20 NSing=    20 JSym2X= 0.
 FoFJK:  IHMeth= 1 ICntrl=       0 DoSepK=T KAlg= 0 I1Cent=           0 FoldK=F
 IRaf=         1 NMat=      40 IRICut=       1 DoRegI=T DoRafI=F ISym2E= 0 IDoP0=3 IntGTp=3.
 FoFCou: FMM=T IPFlag=           0 FMFlag=      100000 FMFlg1=        2001
         NFxFlg=           0 DoJE=F BraDBF=F KetDBF=F FulRan=T
         wScrn=  0.000000 ICntrl=       500 IOpCl=  0 I1Cent=           0 NGrid=           0
         NMat0=   20 NMatS0=     20 NMatT0=    0 NMatD0=   20 NMtDS0=    0 NMtDT0=    0
 Symmetry not used in FoFCou.
 FMM levels:  10  Number of levels for PrismC:   9
 New state      2 was old state      4
 New state      3 was old state      7
 New state      4 was old state      6
 New state      5 was old state      2
 Excitation Energies [eV] at current iteration:
 Root      1 :     2.573576115555164
 Root      2 :     2.595528882040008
 Root      3 :     2.610538592101387
 Root      4 :     2.616819468750125
 Root      5 :     2.643347642323673
 Root      6 :     2.729150098390924
 Root      7 :     3.367290381803524
 Root      8 :     3.395860680015671
 Root      9 :     3.624280119626643
 Root     10 :     3.669555751121415
 Root     11 :     3.742742882221669
 Root     12 :     3.759428526129735
 Root     13 :     4.274918184819165
 Root     14 :     4.331327226680024
 Root     15 :     4.480184798502685
 Root     16 :     4.509016985679546
 Root     17 :     4.779277174537446
 Root     18 :     4.807961625691993
 Root     19 :     4.820107496460011
 Root     20 :     4.853020068749427
 Iteration     2 Dimension    30 NMult    20 NNew     10
 CISAX will form    10 AO SS matrices at one time.
 NMat=    10 NSing=    10 JSym2X= 0.
 New state      1 was old state      5
 Root      1 not converged, maximum delta is    0.201296655507070
 New state      2 was old state      4
 Root      2 not converged, maximum delta is    0.288543402193813
 Root      3 not converged, maximum delta is    0.367255252841249
 New state      4 was old state      1
 Root      4 not converged, maximum delta is    0.009619634952792
 New state      5 was old state      2
 Root      5 not converged, maximum delta is    0.003437162307375
 Excitation Energies [eV] at current iteration:
 Root      1 :     1.780059339617738   Change is   -0.863288302705935
 Root      2 :     2.230038758865760   Change is   -0.386780709884365
 Root      3 :     2.239933664857087   Change is   -0.370604927244299
 Root      4 :     2.572566670364615   Change is   -0.001009445190549
 Root      5 :     2.594988989597018   Change is   -0.000539892442990
 Iteration     3 Dimension    40 NMult    30 NNew     10
 CISAX will form    10 AO SS matrices at one time.
 NMat=    10 NSing=    10 JSym2X= 0.
 Root      1 not converged, maximum delta is    0.054038053920387
 Root      2 not converged, maximum delta is    0.103729075372325
 Root      3 not converged, maximum delta is    0.110197660185901
 Root      4 not converged, maximum delta is    0.017292611422154
 No map to state      5
 Excitation Energies [eV] at current iteration:
 Root      1 :     1.674666243972480   Change is   -0.105393095645258
 Root      2 :     2.174807716097742   Change is   -0.055231042768018
 Root      3 :     2.197753672232686   Change is   -0.042179992624401
 Root      4 :     2.572549887511197   Change is   -0.000016782853419
 Root      5 :     2.577425800261007
 Iteration     4 Dimension    50 NMult    40 NNew     10
 CISAX will form    10 AO SS matrices at one time.
 NMat=    10 NSing=    10 JSym2X= 0.
 Root      1 not converged, maximum delta is    0.010404650740314
 New state      2 was old state      5
 Root      2 not converged, maximum delta is    0.168496502813093
 New state      3 was old state      2
 Root      3 not converged, maximum delta is    0.324151557906868
 New state      4 was old state      3
 Root      4 not converged, maximum delta is    0.352994674078757
 New state      5 was old state      4
 Root      5 not converged, maximum delta is    0.017408056317669
 Excitation Energies [eV] at current iteration:
 Root      1 :     1.657998336015788   Change is   -0.016667907956692
 Root      2 :     1.787349682595313   Change is   -0.790076117665693
 Root      3 :     2.185132233091117   Change is    0.010324516993375
 Root      4 :     2.195938919181750   Change is   -0.001814753050936
 Root      5 :     2.572560428332033   Change is    0.000010540820837
 Iteration     5 Dimension    60 NMult    50 NNew     10
 CISAX will form    10 AO SS matrices at one time.
 NMat=    10 NSing=    10 JSym2X= 0.
 Root      1 not converged, maximum delta is    0.001686248106770
 Root      2 not converged, maximum delta is    0.037495336108072
 Root      3 not converged, maximum delta is    0.057867951343341
 Root      4 not converged, maximum delta is    0.057190663441299
 Root      5 has converged.
 Excitation Energies [eV] at current iteration:
 Root      1 :     1.656262144379111   Change is   -0.001736191636677
 Root      2 :     1.708003086805937   Change is   -0.079346595789376
 Root      3 :     2.183310437003034   Change is   -0.001821796088083
 Root      4 :     2.194049964156211   Change is   -0.001888955025539
 Root      5 :     2.572560401706467   Change is   -0.000000026625566
 Iteration     6 Dimension    68 NMult    60 NNew      8
 CISAX will form     8 AO SS matrices at one time.
 NMat=     8 NSing=     8 JSym2X= 0.
 Root      1 not converged, maximum delta is    0.001036473615132
 Root      2 not converged, maximum delta is    0.006413945499976
 Root      3 not converged, maximum delta is    0.004945599662898
 Root      4 not converged, maximum delta is    0.005055953698773
 Root      5 has converged.
 Excitation Energies [eV] at current iteration:
 Root      1 :     1.656014946499171   Change is   -0.000247197879940
 Root      2 :     1.696860533002814   Change is   -0.011142553803124
 Root      3 :     2.183093684508186   Change is   -0.000216752494848
 Root      4 :     2.193825161588653   Change is   -0.000224802567559
 Root      5 :     2.572560401004148   Change is   -0.000000000702318
 Iteration     7 Dimension    76 NMult    68 NNew      8
 CISAX will form     8 AO SS matrices at one time.
 NMat=     8 NSing=     8 JSym2X= 0.
 Root      1 has converged.
 Root      2 not converged, maximum delta is    0.001407030899907
 Root      3 has converged.
 Root      4 has converged.
 Root      5 has converged.
[...]
 Alpha virt. eigenvalues --    1.84612   1.84715   1.84904   1.84967   1.85273
 Alpha virt. eigenvalues --    1.85372   1.85397   1.85448   1.85617   1.85643
 Alpha virt. eigenvalues --    1.86039   1.86048   1.86532   1.86551   1.86717
 Alpha virt. eigenvalues --    1.86779   1.86948   1.87016   1.87199   1.87265
 Alpha virt. eigenvalues --    1.87609   1.87636   1.87821   1.87893   1.88034
 Alpha virt. eigenvalues --    1.88156   1.88209   1.88312   1.88684   1.88695
 Alpha virt. eigenvalues --    1.88960   1.89044   1.89254   1.89308   1.89746
 Alpha virt. eigenvalues --    1.89784   1.89912   1.89995   1.90271   1.90297
 Alpha virt. eigenvalues --    1.90899   1.91015   1.91491   1.91573   1.91595
 Alpha virt. eigenvalues --    1.91698   1.92305   1.92316   1.92751   1.92795
 Alpha virt. eigenvalues --    1.93148   1.93286   1.93519   1.93669   1.94464
 Alpha virt. eigenvalues --    1.94508   1.94851   1.94929   1.95662   1.95792
 Alpha virt. eigenvalues --    1.95876   1.95950   1.96130   1.96212   1.96293
 Alpha virt. eigenvalues --    1.96342   1.96673   1.96765   1.97042   1.97068
 Alpha virt. eigenvalues --    1.97616   1.97712   1.97956   1.98012   1.98293
 Alpha virt. eigenvalues --    1.98318   1.98483   1.98768   1.99193   1.99275
 Alpha virt. eigenvalues --    1.99952   2.00029   2.00834   2.00880   2.01137
 Alpha virt. eigenvalues --    2.01199   2.01590   2.01677   2.01724   2.01843
 Alpha virt. eigenvalues --    2.01854   2.01936   2.02829   2.02933   2.03291
 Alpha virt. eigenvalues --    2.03397   2.03488   2.03539   2.03614   2.03632
 Alpha virt. eigenvalues --    2.04152   2.04181   2.05105   2.05126   2.05676
 Alpha virt. eigenvalues --    2.05752   2.06229   2.06382   2.07017   2.07125
 Alpha virt. eigenvalues --    2.07345   2.07486   2.08641   2.08751   2.09121
 Alpha virt. eigenvalues --    2.09138   2.09719   2.09734   2.10977   2.11242
 Alpha virt. eigenvalues --    2.11342   2.11541   2.11630   2.11667   2.11887
 Alpha virt. eigenvalues --    2.11964   2.12574   2.12611   2.12941   2.12967
 Alpha virt. eigenvalues --    2.12997   2.13012   2.13723   2.13887   2.14312
 Alpha virt. eigenvalues --    2.14393   2.15490   2.15554   2.16067   2.16199
 Alpha virt. eigenvalues --    2.16696   2.16729   2.16914   2.17298   2.17568
 Alpha virt. eigenvalues --    2.17782   2.17862   2.18039   2.18194   2.18252
 Alpha virt. eigenvalues --    2.18443   2.18757   2.18995   2.19343   2.19781
 Alpha virt. eigenvalues --    2.19923   2.20184   2.20365   2.20375   2.20540
 Alpha virt. eigenvalues --    2.21348   2.21380   2.21821   2.21875   2.21884
 Alpha virt. eigenvalues --    2.21980   2.22831   2.22848   2.23489   2.23516
 Alpha virt. eigenvalues --    2.24566   2.24604   2.25167   2.25192   2.26430
 Alpha virt. eigenvalues --    2.26546   2.26941   2.27127   2.27240   2.27318
 Alpha virt. eigenvalues --    2.28285   2.28422   2.29431   2.29561   2.29878
 Alpha virt. eigenvalues --    2.29986   2.30586   2.30711   2.30900   2.31206
 Alpha virt. eigenvalues --    2.31305   2.31348   2.32290   2.32371   2.33272
 Alpha virt. eigenvalues --    2.33324   2.33617   2.33640   2.34307   2.34309
 Alpha virt. eigenvalues --    2.35396   2.35477   2.35940   2.36001   2.36431
 Alpha virt. eigenvalues --    2.36543   2.36641   2.36780   2.37850   2.37875
 Alpha virt. eigenvalues --    2.38425   2.38492   2.38862   2.38979   2.39761
 Alpha virt. eigenvalues --    2.39779   2.40353   2.40461   2.40623   2.40917
 Alpha virt. eigenvalues --    2.41314   2.41394   2.41870   2.41905   2.42160
 Alpha virt. eigenvalues --    2.42223   2.43017   2.43133   2.43139   2.43579
 Alpha virt. eigenvalues --    2.44073   2.44291   2.44881   2.44908   2.45050
 Alpha virt. eigenvalues --    2.45100   2.45691   2.45714   2.46361   2.46459
 Alpha virt. eigenvalues --    2.46603   2.46630   2.46900   2.46938   2.47413
 Alpha virt. eigenvalues --    2.47526   2.47872   2.48017   2.49479   2.49517
 Alpha virt. eigenvalues --    2.50116   2.50265   2.50613   2.50746   2.51257
 Alpha virt. eigenvalues --    2.51361   2.51714   2.52022   2.52475   2.52563
 Alpha virt. eigenvalues --    2.52953   2.53259   2.54076   2.54082   2.54305
 Alpha virt. eigenvalues --    2.54350   2.54942   2.54949   2.55674   2.55768
 Alpha virt. eigenvalues --    2.58021   2.58175   2.58803   2.59014   2.60328
 Alpha virt. eigenvalues --    2.60380   2.60741   2.61002   2.61872   2.61925
 Alpha virt. eigenvalues --    2.62524   2.62672   2.63105   2.63238   2.64082
 Alpha virt. eigenvalues --    2.64301   2.64434   2.64613   2.65226   2.65237
 Alpha virt. eigenvalues --    2.65915   2.65937   2.66962   2.67010   2.67070
 Alpha virt. eigenvalues --    2.67163   2.68073   2.68107   2.68938   2.68997
 Alpha virt. eigenvalues --    2.69119   2.69155   2.69576   2.69736   2.70161
 Alpha virt. eigenvalues --    2.70298   2.71128   2.71179   2.71984   2.72174
 Alpha virt. eigenvalues --    2.72575   2.72778   2.72820   2.72910   2.73468
 Alpha virt. eigenvalues --    2.73470   2.73541   2.73586   2.74632   2.74663
 Alpha virt. eigenvalues --    2.75116   2.75145   2.76670   2.76762   2.77166
 Alpha virt. eigenvalues --    2.77374   2.77600   2.77665   2.78335   2.78343
 Alpha virt. eigenvalues --    2.78790   2.78852   2.79227   2.79277   2.80313
 Alpha virt. eigenvalues --    2.80475   2.80695   2.80758   2.81242   2.81257
 Alpha virt. eigenvalues --    2.82062   2.82075   2.82449   2.82505   2.83875
 Alpha virt. eigenvalues --    2.83915   2.83923   2.83984   2.84638   2.84710
 Alpha virt. eigenvalues --    2.85026   2.85058   2.85772   2.85823   2.86762
 Alpha virt. eigenvalues --    2.87127   2.87252   2.87695   2.88285   2.88306
 Alpha virt. eigenvalues --    2.88674   2.88760   2.88983   2.89093   2.90645
 Alpha virt. eigenvalues --    2.90785   2.91186   2.91365   2.93294   2.93402
 Alpha virt. eigenvalues --    2.93868   2.94358   2.94703   2.94731   2.95482
 Alpha virt. eigenvalues --    2.95539   2.95885   2.96271   2.96531   2.96614
 Alpha virt. eigenvalues --    2.96971   2.97267   2.97914   2.98116   2.98352
 Alpha virt. eigenvalues --    2.98416   2.98535   2.98657   2.98758   2.98889
 Alpha virt. eigenvalues --    2.99035   2.99038   2.99785   2.99965   3.00089
 Alpha virt. eigenvalues --    3.00128   3.00367   3.00469   3.00600   3.01087
 Alpha virt. eigenvalues --    3.02085   3.02158   3.02161   3.02176   3.02803
 Alpha virt. eigenvalues --    3.02855   3.03099   3.03367   3.03481   3.03815
 Alpha virt. eigenvalues --    3.04196   3.04360   3.04587   3.04650   3.04740
 Alpha virt. eigenvalues --    3.04902   3.05433   3.05463   3.06240   3.06262
 Alpha virt. eigenvalues --    3.06926   3.07023   3.08002   3.08318   3.09450
 Alpha virt. eigenvalues --    3.09541   3.09831   3.10478   3.10581   3.10807
 Alpha virt. eigenvalues --    3.11495   3.11574   3.12052   3.12169   3.12372
 Alpha virt. eigenvalues --    3.12405   3.13427   3.13714   3.13804   3.13823
 Alpha virt. eigenvalues --    3.14159   3.14519   3.16142   3.16268   3.17420
 Alpha virt. eigenvalues --    3.17611   3.17944   3.18240   3.19120   3.19293
 Alpha virt. eigenvalues --    3.22367   3.22650   3.24101   3.24519   3.24798
 Alpha virt. eigenvalues --    3.25266   3.26665   3.26748   3.27479   3.27773
 Alpha virt. eigenvalues --    3.29150   3.29269   3.31458   3.31674   3.33271
 Alpha virt. eigenvalues --    3.33579   3.40294   3.40666   3.42861   3.42969
 Alpha virt. eigenvalues --    3.48777   3.48805   3.50183   3.50371   3.50914
 Alpha virt. eigenvalues --    3.51632   3.56711   3.57084   3.59271   3.59442
 Alpha virt. eigenvalues --    3.62594   3.62986   3.66133   3.66330   3.67241
 Alpha virt. eigenvalues --    3.67585   3.73346   3.74075   3.76155   3.76739
          Condensed to atoms (all electrons):
 Mulliken charges:
               1
     1  Mg   0.839384
     2  C   -0.003620
     3  C   -0.093920
     4  C   -0.045825
     5  C   -0.063361
     6  N   -0.256779
     7  C   -0.052590
     8  C   -0.014074
     9  C   -0.087061
    10  C    0.046287
    11  C    0.104844
    12  C    0.053447
    13  C   -0.071363
    14  H    0.034244
    15  N   -0.433108
    16  C    0.168678
    17  C   -0.176829
    18  C   -0.003951
    19  C    0.148763
    20  C    0.110087
    21  C    0.012263
    22  O   -0.250074
    23  C    0.062285
    24  N   -0.341250
    25  C    0.041381
    26  C   -0.028044
    27  C   -0.024091
    28  C    0.075022
    29  C    0.076299
    30  C    0.034978
    31  C   -0.004761
    32  N   -0.310520
    33  C    0.080600
    34  C   -0.168951
    35  C    0.008218
    36  C    0.083115
    37  C    0.127200
    38  C    0.045946
    39  O   -0.188717
    40  C   -0.005409
    41  C    0.213351
    42  O   -0.258787
    43  O   -0.304362
    44  C    0.158050
    45  H   -0.017793
    46  H   -0.017057
    47  H   -0.040875
    48  H    0.000675
    49  H   -0.003985
    50  H    0.025323
    51  H    0.016549
    52  H    0.016493
    53  H    0.011967
    54  H    0.042829
    55  H    0.018059
    56  H    0.018531
    57  H    0.005849
    58  H    0.026361
    59  H    0.040525
    60  H    0.037268
    61  H    0.034800
    62  H    0.032304
    63  H    0.016545
    64  H    0.009244
    65  H    0.022877
    66  H    0.012245
    67  H    0.004665
    68  H    0.005957
    69  H    0.005391
    70  H    0.007926
    71  H    0.021062
    72  H    0.028893
    73  H    0.048121
    74  H    0.009928
    75  H    0.045631
    76  H    0.035102
    77  H    0.043181
    78  H    0.046384
    79  H    0.052164
    80  Mg   0.838150
    81  C   -0.017157
    82  C   -0.088052
    83  C   -0.045722
    84  C   -0.063860
    85  N   -0.254576
    86  C   -0.049789
    87  C   -0.015135
    88  C   -0.090451
    89  C    0.045611
    90  C    0.114499
    91  C    0.062581
    92  C   -0.077650
    93  H    0.034369
    94  N   -0.423300
    95  C    0.162703
    96  C   -0.174941
    97  C   -0.008271
    98  C    0.152009
    99  C    0.099440
   100  C    0.015032
   101  O   -0.254442
   102  C    0.061409
   103  N   -0.350329
   104  C    0.037731
   105  C   -0.019261
   106  C   -0.035177
   107  C    0.089649
   108  C    0.074087
   109  C    0.034834
   110  C   -0.011103
   111  N   -0.324353
   112  C    0.079120
   113  C   -0.161797
   114  C    0.002038
   115  C    0.096669
   116  C    0.131190
   117  C    0.042630
   118  O   -0.187848
   119  C    0.000786
   120  C    0.211260
   121  O   -0.251042
   122  O   -0.305657
   123  C    0.152184
   124  H   -0.020239
   125  H   -0.016438
   126  H   -0.038780
   127  H   -0.000895
   128  H   -0.004621
   129  H    0.022273
   130  H    0.014352
   131  H    0.015845
   132  H    0.014064
   133  H    0.037603
   134  H    0.020636
   135  H    0.019500
   136  H    0.008571
   137  H    0.025436
   138  H    0.039450
   139  H    0.038265
   140  H    0.034697
   141  H    0.034038
   142  H    0.013840
   143  H    0.011701
   144  H    0.023837
   145  H    0.011046
   146  H    0.005393
   147  H    0.004427
   148  H    0.006127
   149  H    0.007126
   150  H    0.031785
   151  H    0.028022
   152  H    0.046944
   153  H    0.010505
   154  H    0.046257
   155  H    0.034701
   156  H    0.043715
   157  H    0.049306
   158  H    0.053309
 Sum of Mulliken charges =  -0.00000
 Mulliken charges with hydrogens summed into heavy atoms:
               1
     1  Mg   0.839384
     2  C   -0.003620
     3  C   -0.111713
     4  C   -0.062882
     5  C   -0.104236
     6  N   -0.256779
     7  C   -0.052590
     8  C   -0.013399
     9  C   -0.091047
    10  C    0.046287
    11  C    0.163209
    12  C    0.108243
    13  C   -0.000530
    15  N   -0.433108
    16  C    0.168678
    17  C   -0.176829
    18  C   -0.003951
    19  C    0.148763
    20  C    0.182821
    21  C    0.012263
    22  O   -0.250074
    23  C    0.166658
    24  N   -0.341250
    25  C    0.041381
    26  C   -0.011499
    27  C   -0.014847
    28  C    0.075022
    29  C    0.116086
    30  C    0.046325
    31  C    0.053120
    32  N   -0.310520
    33  C    0.080600
    34  C   -0.168951
    35  C    0.008218
    36  C    0.083115
    37  C    0.230880
    38  C    0.045946
    39  O   -0.188717
    40  C    0.029693
    41  C    0.213351
    42  O   -0.258787
    43  O   -0.304362
    44  C    0.299779
    80  Mg   0.838150
    81  C   -0.017157
    82  C   -0.108290
    83  C   -0.062161
    84  C   -0.102640
    85  N   -0.254576
    86  C   -0.049789
    87  C   -0.016031
    88  C   -0.095072
    89  C    0.045611
    90  C    0.166969
    91  C    0.114247
    92  C   -0.003145
    94  N   -0.423300
    95  C    0.162703
    96  C   -0.174941
    97  C   -0.008271
    98  C    0.152009
    99  C    0.172897
   100  C    0.015032
   101  O   -0.254442
   102  C    0.168409
   103  N   -0.350329
   104  C    0.037731
   105  C   -0.005421
   106  C   -0.023476
   107  C    0.089649
   108  C    0.114364
   109  C    0.045388
   110  C    0.055830
   111  N   -0.324353
   112  C    0.079120
   113  C   -0.161797
   114  C    0.002038
   115  C    0.096669
   116  C    0.234895
   117  C    0.042630
   118  O   -0.187848
   119  C    0.035487
   120  C    0.211260
   121  O   -0.251042
   122  O   -0.305657
   123  C    0.298515
 Electronic spatial extent (au):  <R**2>=         120298.7984
 Charge=             -0.0000 electrons
 Dipole moment (field-independent basis, Debye):
    X=              0.1155    Y=              6.7835    Z=             -2.3463  Tot=              7.1787
 Quadrupole moment (field-independent basis, Debye-Ang):
   XX=           -451.8177   YY=           -538.1156   ZZ=           -477.9859
   XY=            -16.8832   XZ=            -23.2503   YZ=             10.0882
 Traceless Quadrupole moment (field-independent basis, Debye-Ang):
   XX=             37.4887   YY=            -48.8092   ZZ=             11.3205
   XY=            -16.8832   XZ=            -23.2503   YZ=             10.0882
 Octapole moment (field-independent basis, Debye-Ang**2):
  XXX=           -163.8849  YYY=            308.7057  ZZZ=            162.1260  XYY=            -91.4893
  XXY=            410.7268  XXZ=            -45.5041  XZZ=             91.1203  YZZ=           -242.9118
  YYZ=           -196.0468  XYZ=           -142.0461
 Hexadecapole moment (field-independent basis, Debye-Ang**3):
 XXXX=         -97066.6285 YYYY=         -32827.3626 ZZZZ=         -28424.9196 XXXY=          -1087.8591
 XXXZ=          -2451.6905 YYYX=           -393.7256 YYYZ=           -110.2376 ZZZX=           -993.4078
 ZZZY=            373.5223 XXYY=         -22957.8231 XXZZ=         -20418.5435 YYZZ=         -10509.3446
 XXYZ=           -159.7998 YYXZ=           -393.6614 ZZXY=           -165.2437
 N-N= 1.486663396461D+04 E-N=-3.921498154790D+04  KE= 4.028801106644D+03
 Leave Link  601 at Fri Sep 10 12:19:30 2021, MaxMem= 23488102400 cpu:              13.4 elap:               0.7
 (Enter /sw/apps/gaussian-16.0/g16/l9999.exe)
 1\1\GINC-BP1-COMPUTE00105\SP\RCAM-B3LYP TD-FC\def2SVP\C68H72Mg2N8O8\OF
 15641\10-Sep-2021\0\\#p cam-b3lyp/Def2SVP td=(nstates=5)\\TDDFT excite
 d states in gaussian\\0,1\Mg,0,0.,0.,0.\C,0,-0.217,-2.218,2.801\C,0,-1
 .255,2.442,2.026\C,0,-0.245,1.85,-2.564\C,0,0.146,-2.824,-2.037\N,0,-0
 .617,-0.009,2.126\C,0,-0.594,-0.908,3.105\C,0,-0.936,-0.309,4.502\C,0,
 -1.773,0.964,4.032\C,0,-1.155,1.168,2.66\C,0,-3.263,0.685,3.863\C,0,0.
 345,0.11,5.299\C,0,0.124,0.397,6.787\H,0,1.168,0.033,7.733\N,0,-0.185,
 1.961,-0.152\C,0,-0.703,2.8,0.777\C,0,-0.62,4.156,0.193\C,0,-0.187,4.0
 15,-1.225\C,0,-0.214,2.583,-1.38\C,0,-0.887,5.406,0.974\C,0,0.181,5.01
 3,-2.277\O,0,0.303,4.69,-3.508\C,0,0.31,6.414,-1.837\N,0,-0.265,-0.413
 ,-2.029\C,0,-0.279,0.569,-2.937\C,0,-0.196,0.024,-4.332\C,0,0.124,-1.5
 33,-4.18\C,0,0.086,-1.632,-2.635\C,0,-1.451,0.205,-5.197\C,0,1.373,-2.
 07,-4.923\C,0,2.626,-1.49,-4.306\N,0,0.15,-2.144,0.303\C,0,0.173,-3.13
 6,-0.688\C,0,0.173,-4.438,0.004\C,0,0.133,-4.111,1.358\C,0,0.083,-2.69
 5,1.502\C,0,0.149,-5.715,-0.623\C,0,0.096,-4.629,2.716\O,0,0.208,-5.74
 7,3.221\C,0,-0.255,-3.428,3.701\C,0,0.717,-3.482,4.848\O,0,1.931,-3.25
 5,4.669\O,0,0.038,-3.556,6.003\C,0,0.943,-3.583,7.183\H,0,-1.859,3.22,
 2.497\H,0,-0.218,2.453,-3.474\H,0,0.276,-3.747,-2.605\H,0,-1.554,-0.94
 9,5.132\H,0,-1.585,1.831,4.665\H,0,-3.484,-0.377,3.969\H,0,-3.511,1.02
 7,2.858\H,0,-3.852,1.301,4.543\H,0,0.669,1.096,4.966\H,0,1.13,-0.639,5
 .189\H,0,-0.844,0.026,7.125\H,0,0.062,1.477,6.921\H,0,-1.344,5.186,1.9
 38\H,0,-1.651,5.963,0.432\H,0,0.007,6.02,1.084\H,0,-0.635,6.744,-1.405
 \H,0,0.665,6.97,-2.704\H,0,1.048,6.466,-1.036\H,0,0.608,0.501,-4.891\H
 ,0,-0.692,-2.156,-4.547\H,0,-1.267,0.74,-6.129\H,0,-2.204,0.714,-4.596
 \H,0,-1.967,-0.72,-5.453\H,0,1.356,-1.759,-5.967\H,0,1.452,-3.157,-4.9
 02\H,0,2.714,-0.522,-4.798\H,0,3.487,-2.121,-4.529\H,0,2.495,-1.303,-3
 .24\H,0,0.867,-6.333,-0.084\H,0,0.404,-5.642,-1.68\H,0,-0.891,-5.999,-
 0.463\H,0,-1.283,-3.581,4.028\H,0,0.698,-4.478,7.755\H,0,0.833,-2.619,
 7.68\H,0,2.,-3.754,6.976\Mg,0,10.50747,0.94853,0.78866\C,0,12.11369,-1
 .64581,-1.1004\C,0,12.21387,3.19514,-1.12852\C,0,9.46223,3.23952,2.719
 01\C,0,9.84319,-1.43862,3.23936\N,0,11.94774,0.68617,-0.86937\C,0,12.4
 3522,-0.34543,-1.54206\C,0,13.252,0.03831,-2.80506\C,0,13.67992,1.5244
 2,-2.37235\C,0,12.52701,1.84409,-1.42299\C,0,14.97676,1.57105,-1.58155
 \C,0,12.37304,0.04916,-4.10481\C,0,13.16228,0.11172,-5.41436\H,0,12.64
 637,-0.61175,-6.5732\N,0,10.39757,2.91059,0.51147\C,0,11.15073,3.65803
 ,-0.32241\C,0,10.6946,5.045,-0.1423\C,0,9.72433,5.07696,0.98564\C,0,9.
 84206,3.71737,1.47324\C,0,11.11746,6.16478,-1.04823\C,0,8.84646,6.1566
 ,1.54236\O,0,8.25998,6.03038,2.67503\C,0,8.76825,7.40306,0.76667\N,0,9
 .94806,0.95892,2.79098\C,0,9.48077,2.07762,3.37243\C,0,8.8856,1.78006,
 4.72802\C,0,8.83204,0.18517,4.83301\C,0,9.51788,-0.17949,3.49808\C,0,9
 .64761,2.34347,5.92731\C,0,7.45279,-0.45308,5.15392\C,0,6.50519,-0.244
 2,3.9947\N,0,10.72737,-1.19278,0.97433\C,0,10.4101,-1.98868,2.09681\C,
 0,10.84142,-3.36762,1.78869\C,0,11.40506,-3.27307,0.50734\C,0,11.34857
 ,-1.92625,0.05748\C,0,10.73426,-4.48728,2.66104\C,0,12.0446,-4.00442,-
 0.56262\O,0,12.28112,-5.19149,-0.78322\C,0,12.64628,-2.96042,-1.59917\
 C,0,12.24915,-3.39779,-2.98247\O,0,11.0543,-3.39581,-3.32734\O,0,13.35
 566,-3.53722,-3.73518\C,0,13.01256,-3.95926,-5.11937\H,0,12.86852,3.97
 593,-1.5167\H,0,8.99297,3.9706,3.38142\H,0,9.58269,-2.25882,3.91174\H,
 0,14.13372,-0.56726,-2.97715\H,0,13.6723,2.20109,-3.22289\H,0,15.33631
 ,0.58218,-1.33865\H,0,14.75124,2.1239,-0.67902\H,0,15.72444,2.16213,-2
 .11815\H,0,11.83397,1.0034,-4.16456\H,0,11.7092,-0.79323,-4.12287\H,0,
 14.22611,-0.10973,-5.26546\H,0,13.15129,1.14235,-5.77726\H,0,11.96267,
 5.87132,-1.68298\H,0,11.52019,6.95821,-0.40936\H,0,10.28874,6.56883,-1
 .63357\H,0,9.76476,7.82491,0.6596\H,0,8.02448,8.01841,1.2766\H,0,8.417
 07,7.16498,-0.24358\H,0,7.87832,2.17116,4.80242\H,0,9.48373,-0.19251,5
 .63457\H,0,9.02875,2.99869,6.569\H,0,10.51368,2.87837,5.56077\H,0,10.0
 9638,1.59762,6.58115\H,0,6.99954,0.03915,6.01788\H,0,7.50927,-1.51267,
 5.3799\H,0,6.12009,0.76488,4.1695\H,0,5.70502,-0.98129,4.01641\H,0,7.0
 4646,-0.22993,3.04156\H,0,10.38067,-5.31594,2.06203\H,0,10.06263,-4.28
 117,3.49182\H,0,11.77364,-4.58079,2.98693\H,0,13.72888,-2.95415,-1.466
 79\H,0,13.57344,-4.87691,-5.32188\H,0,13.22939,-3.08445,-5.76082\H,0,1
 1.99655,-4.2868,-5.30617\\Version=ES64L-G16RevA.03\State=1-A\HF=-4069.
 812223\RMSD=5.710e-09\PG=C01 [X(C68H72Mg2N8O8)]\\@


 SCIENCE AT ITS BEST PROVIDES US WITH BETTER QUESTIONS, 
 NOT ABSOLUTE ANSWERS

                                    -- NORMAN COUSINS, 1976
 Job cpu time:       0 days 16 hours 19 minutes 58.6 seconds.
 Elapsed time:       0 days  0 hours 41 minutes 28.5 seconds.
 File lengths (MBytes):  RWF=  13225 Int=      0 D2E=      0 Chk=    574 Scr=      1
 Normal termination of Gaussian 16 at Fri Sep 10 12:19:31 2021.
