 Entering Gaussian System, Link 0=g16
 Initial command:
 /sw/apps/gaussian-16.0/g16/l1.exe "/tmp/Gau-133883.inp" -scrdir="/tmp/"
 Entering Link 1 = /sw/apps/gaussian-16.0/g16/l1.exe PID=    133885.
  
 Copyright (c) 1988,1990,1992,1993,1995,1998,2003,2009,2016,
            Gaussian, Inc.  All Rights Reserved.
  
 This is part of the Gaussian(R) 16 program.  It is based on
 the Gaussian(R) 09 system (copyright 2009, Gaussian, Inc.),
 the Gaussian(R) 03 system (copyright 2003, Gaussian, Inc.),
 the Gaussian(R) 98 system (copyright 1998, Gaussian, Inc.),
 the Gaussian(R) 94 system (copyright 1995, Gaussian, Inc.),
 the Gaussian 92(TM) system (copyright 1992, Gaussian, Inc.),
 the Gaussian 90(TM) system (copyright 1990, Gaussian, Inc.),
 the Gaussian 88(TM) system (copyright 1988, Gaussian, Inc.),
 the Gaussian 86(TM) system (copyright 1986, Carnegie Mellon
 University), and the Gaussian 82(TM) system (copyright 1983,
 Carnegie Mellon University). Gaussian is a federally registered
 trademark of Gaussian, Inc.
  
 This software contains proprietary and confidential information,
 including trade secrets, belonging to Gaussian, Inc.
  
 This software is provided under written license and may be
 used, copied, transmitted, or stored only in accord with that
 written license.
  
 The following legend is applicable only to US Government
 contracts under FAR:
  
                    RESTRICTED RIGHTS LEGEND
  
 Use, reproduction and disclosure by the US Government is
 subject to restrictions as set forth in subparagraphs (a)
 and (c) of the Commercial Computer Software - Restricted
 Rights clause in FAR 52.227-19.
  
 Gaussian, Inc.
 340 Quinnipiac St., Bldg. 40, Wallingford CT 06492
  
  
 ---------------------------------------------------------------
 Warning -- This program may not be used in any manner that
 competes with the business of Gaussian, Inc. or will provide
 assistance to any competitor of Gaussian, Inc.  The licensee
 of this program is prohibited from giving any competitor of
 Gaussian, Inc. access to this program.  By using this program,
 the user acknowledges that Gaussian, Inc. is engaged in the
 business of creating and licensing software in the field of
 computational chemistry and represents and warrants to the
 licensee that it is not a competitor of Gaussian, Inc. and that
 it will not use this program in any manner prohibited above.
 ---------------------------------------------------------------
  

 Cite this work as:
 Gaussian 16, Revision A.03,
 M. J. Frisch, G. W. Trucks, H. B. Schlegel, G. E. Scuseria, 
 M. A. Robb, J. R. Cheeseman, G. Scalmani, V. Barone, 
 G. A. Petersson, H. Nakatsuji, X. Li, M. Caricato, A. V. Marenich, 
 J. Bloino, B. G. Janesko, R. Gomperts, B. Mennucci, H. P. Hratchian, 
 J. V. Ortiz, A. F. Izmaylov, J. L. Sonnenberg, D. Williams-Young, 
 F. Ding, F. Lipparini, F. Egidi, J. Goings, B. Peng, A. Petrone, 
 T. Henderson, D. Ranasinghe, V. G. Zakrzewski, J. Gao, N. Rega, 
 G. Zheng, W. Liang, M. Hada, M. Ehara, K. Toyota, R. Fukuda, 
 J. Hasegawa, M. Ishida, T. Nakajima, Y. Honda, O. Kitao, H. Nakai, 
 T. Vreven, K. Throssell, J. A. Montgomery, Jr., J. E. Peralta, 
 F. Ogliaro, M. J. Bearpark, J. J. Heyd, E. N. Brothers, K. N. Kudin, 
 V. N. Staroverov, T. A. Keith, R. Kobayashi, J. Normand, 
 K. Raghavachari, A. P. Rendell, J. C. Burant, S. S. Iyengar, 
 J. Tomasi, M. Cossi, J. M. Millam, M. Klene, C. Adamo, R. Cammi, 
 J. W. Ochterski, R. L. Martin, K. Morokuma, O. Farkas, 
 J. B. Foresman, and D. J. Fox, Gaussian, Inc., Wallingford CT, 2016.
 
 ******************************************
 Gaussian 16:  ES64L-G16RevA.03 25-Dec-2016
                 9-Sep-2021 
 ******************************************
 %nproc=24
 Will use up to   24 processors via shared memory.
 %mem=175gb
 -----------------------------------
 #p cam-b3lyp/Def2SVP td=(nstates=5)
 -----------------------------------
 1/38=1,172=1/1;
 2/12=2,17=6,18=5,40=1/2;
 3/5=43,7=101,11=9,25=1,30=1,74=-40/1,2,3,8;
 4//1;
 5/5=2,38=5/2;
 8/6=1,10=1,108=5/1;
 9/41=5,42=1,70=2/14;
 6/7=2,8=2,9=2,10=2/1;
 99/5=1,9=1/99;
 Leave Link    1 at Thu Sep  9 12:33:10 2021, MaxMem= 23488102400 cpu:               0.6 elap:               0.0
 (Enter /sw/apps/gaussian-16.0/g16/l101.exe)
 --------------------------------
 TDDFT excited states in gaussian
 --------------------------------
 Symbolic Z-matrix:
 Charge =  0 Multiplicity = 1
 Mg                    0.        0.        0. 
 C                    -0.217    -2.218     2.801 
 C                    -1.255     2.442     2.026 
 C                    -0.245     1.85     -2.564 
 C                     0.146    -2.824    -2.037 
 N                    -0.617    -0.009     2.126 
 C                    -0.594    -0.908     3.105 
 C                    -0.936    -0.309     4.502 
 C                    -1.773     0.964     4.032 
 C                    -1.155     1.168     2.66 
 C                    -3.263     0.685     3.863 
 C                     0.345     0.11      5.299 
 C                     0.124     0.397     6.787 
 H                     1.168     0.033     7.733 
 N                    -0.185     1.961    -0.152 
 C                    -0.703     2.8       0.777 
 C                    -0.62      4.156     0.193 
 C                    -0.187     4.015    -1.225 
 C                    -0.214     2.583    -1.38 
 C                    -0.887     5.406     0.974 
 C                     0.181     5.013    -2.277 
 O                     0.303     4.69     -3.508 
 C                     0.31      6.414    -1.837 
 N                    -0.265    -0.413    -2.029 
 C                    -0.279     0.569    -2.937 
 C                    -0.196     0.024    -4.332 
 C                     0.124    -1.533    -4.18 
 C                     0.086    -1.632    -2.635 
 C                    -1.451     0.205    -5.197 
 C                     1.373    -2.07     -4.923 
 C                     2.626    -1.49     -4.306 
 N                     0.15     -2.144     0.303 
 C                     0.173    -3.136    -0.688 
 C                     0.173    -4.438     0.004 
 C                     0.133    -4.111     1.358 
 C                     0.083    -2.695     1.502 
 C                     0.149    -5.715    -0.623 
 C                     0.096    -4.629     2.716 
 O                     0.208    -5.747     3.221 
 C                    -0.255    -3.428     3.701 
 C                     0.717    -3.482     4.848 
 O                     1.931    -3.255     4.669 
 O                     0.038    -3.556     6.003 
 C                     0.943    -3.583     7.183 
 H                    -1.859     3.22      2.497 
 H                    -0.218     2.453    -3.474 
 H                     0.276    -3.747    -2.605 
 H                    -1.554    -0.949     5.132 
 H                    -1.585     1.831     4.665 
 H                    -3.484    -0.377     3.969 
 H                    -3.511     1.027     2.858 
 H                    -3.852     1.301     4.543 
 H                     0.669     1.096     4.966 
 H                     1.13     -0.639     5.189 
 H                    -0.844     0.026     7.125 
 H                     0.062     1.477     6.921 
 H                    -1.344     5.186     1.938 
 H                    -1.651     5.963     0.432 
 H                     0.007     6.02      1.084 
 H                    -0.635     6.744    -1.405 
 H                     0.665     6.97     -2.704 
 H                     1.048     6.466    -1.036 
 H                     0.608     0.501    -4.891 
 H                    -0.692    -2.156    -4.547 
 H                    -1.267     0.74     -6.129 
 H                    -2.204     0.714    -4.596 
 H                    -1.967    -0.72     -5.453 
 H                     1.356    -1.759    -5.967 
 H                     1.452    -3.157    -4.902 
 H                     2.714    -0.522    -4.798 
 H                     3.487    -2.121    -4.529 
 H                     2.495    -1.303    -3.24 
 H                     0.867    -6.333    -0.084 
 H                     0.404    -5.642    -1.68 
 H                    -0.891    -5.999    -0.463 
 H                    -1.283    -3.581     4.028 
 H                     0.698    -4.478     7.755 
 H                     0.833    -2.619     7.68 
 H                     2.       -3.754     6.976 
 Mg                    8.94194   0.79752   0.68121 
 C                     9.13827  -1.15187  -2.32552 
 C                     8.19386  -2.09367   2.32923 
 C                     8.32017   2.54322   3.25674 
 C                     8.57229   3.61581  -1.33531 
 N                     8.72395  -1.28982  -0.0172 
 C                     8.88236  -1.92067  -1.17101 
 C                     8.83923  -3.46897  -1.06873 
 C                     7.983    -3.59686   0.28382 
 C                     8.34496  -2.2609    0.92948 
 C                     6.48228  -3.62137   0.04601 
 C                     10.26777  -4.09726  -0.9058 
 C                     10.33092  -5.61258  -1.10963 
 H                     11.51906  -6.18116  -1.74011 
 N                     8.82784   0.27248   2.59167 
 C                     8.53519  -0.94967   3.08361 
 C                     8.55702  -0.80975   4.54789 
 C                     8.72413   0.63149   4.87895 
 C                     8.6071    1.22023   3.55994 
 C                     8.50592  -1.98645   5.47858 
 C                     8.93922   1.36048   6.17065 
 O                     8.81922   2.63391   6.25322 
 C                     9.2026    0.53099   7.35559 
 N                     8.29787   2.75805   0.93388 
 C                     8.15724   3.28666   2.16217 
 C                     7.95308   4.78127   2.0927 
 C                     8.22847   5.18215   0.56921 
 C                     8.46742   3.77599  -0.02324 
 C                     6.57094   5.28396   2.50909 
 C                     9.29374   6.2831    0.31269 
 C                     10.66527   5.77242   0.69149 
 N                     9.04901   1.22093  -1.43476 
 C                     8.83636   2.46533  -2.06747 
 C                     8.90356   2.23011  -3.52438 
 C                     9.12954   0.85019  -3.63953 
 C                     9.17819   0.2633   -2.34621 
 C                     8.71543   3.21419  -4.53547 
 C                     9.32739  -0.24514  -4.56138 
 O                     9.47074  -0.34012  -5.77964 
 C                     9.21577  -1.61048  -3.7553 
 C                     10.37825  -2.47946  -4.15033 
 O                     11.54223  -2.14473  -3.86802 
 O                     9.91357  -3.6594   -4.6 
 C                     11.02966  -4.56004  -4.99372 
 H                     7.73099  -2.89853   2.90093 
 H                     8.20703   3.20976   4.11487 
 H                     8.5647    4.45939  -2.02884 
 H                     8.32393  -3.96384  -1.88319 
 H                     8.3332   -4.42365   0.8963 
 H                     6.23494  -3.42919  -0.98745 
 H                     6.07081  -2.84964   0.68333 
 H                     6.05933  -4.56462   0.4034 
 H                     10.5674  -4.03683   0.14839 
 H                     10.97223  -3.61557  -1.55567 
 H                     9.4212   -6.00327  -1.58155 
 H                     10.35207  -6.09405  -0.12893 
 H                     8.21768  -2.90419   4.95125 
 H                     7.68278  -1.80526   6.17821 
 H                     9.43013  -2.11516   6.04597 
 H                     8.37159  -0.15329   7.50935 
 H                     9.41815   1.2341    8.16246 
 H                     10.08673  -0.08632   7.16101 
 H                     8.66335   5.29846   2.72607 
 H                     7.32531   5.57885   0.08262 
 H                     6.60502   6.02477   3.33013 
 H                     5.96826   4.43094   2.79137 
 H                     5.98121   5.72904   1.70951 
 H                     9.10028   7.15221   0.94623 
 H                     9.31584   6.63179  -0.7144 
 H                     10.70059   5.93848   1.77235 
 H                     11.44007   6.33952   0.1795 
 H                     10.74397   4.6924    0.52117 
 H                     9.48298   3.04695  -5.27937 
 H                     8.77028   4.22065  -4.12582 
 H                     7.70533   2.96104  -4.86848 
 H                     8.25851  -2.06549  -4.01257 
 H                     10.8495  -4.85721  -6.03146 
 H                     11.04601  -5.36481  -4.23489 
 H                     12.02072  -4.12767  -5.06655 
 
 ITRead=  0  0  0  0  0  0  0  0  0  0  0  0  0  0  0  0  0  0  0  0
 ITRead=  0  0  0  0  0  0  0  0  0  0  0  0  0  0  0  0  0  0  0  0
 ITRead=  0  0  0  0  0  0  0  0  0  0  0  0  0  0  0  0  0  0  0  0
 ITRead=  0  0  0  0  0  0  0  0  0  0  0  0  0  0  0  0  0  0  0  0
 ITRead=  0  0  0  0  0  0  0  0  0  0  0  0  0  0  0  0  0  0  0  0
 ITRead=  0  0  0  0  0  0  0  0  0  0  0  0  0  0  0  0  0  0  0  0
 ITRead=  0  0  0  0  0  0  0  0  0  0  0  0  0  0  0  0  0  0  0  0
 ITRead=  0  0  0  0  0  0  0  0  0  0  0  0  0  0  0  0  0  0
 MicOpt= -1 -1 -1 -1 -1 -1 -1 -1 -1 -1 -1 -1 -1 -1 -1 -1 -1 -1 -1 -1
 MicOpt= -1 -1 -1 -1 -1 -1 -1 -1 -1 -1 -1 -1 -1 -1 -1 -1 -1 -1 -1 -1
 MicOpt= -1 -1 -1 -1 -1 -1 -1 -1 -1 -1 -1 -1 -1 -1 -1 -1 -1 -1 -1 -1
 MicOpt= -1 -1 -1 -1 -1 -1 -1 -1 -1 -1 -1 -1 -1 -1 -1 -1 -1 -1 -1 -1
 MicOpt= -1 -1 -1 -1 -1 -1 -1 -1 -1 -1 -1 -1 -1 -1 -1 -1 -1 -1 -1 -1
 MicOpt= -1 -1 -1 -1 -1 -1 -1 -1 -1 -1 -1 -1 -1 -1 -1 -1 -1 -1 -1 -1
 MicOpt= -1 -1 -1 -1 -1 -1 -1 -1 -1 -1 -1 -1 -1 -1 -1 -1 -1 -1 -1 -1
 MicOpt= -1 -1 -1 -1 -1 -1 -1 -1 -1 -1 -1 -1 -1 -1 -1 -1 -1 -1
 NAtoms=    158 NQM=      158 NQMF=       0 NMMI=      0 NMMIF=      0
                NMic=       0 NMicF=      0.
                    Isotopes and Nuclear Properties:
 (Nuclear quadrupole moments (NQMom) in fm**2, nuclear magnetic moments (NMagM)
  in nuclear magnetons)

  Atom         1           2           3           4           5           6           7           8           9          10
 IAtWgt=          24          12          12          12          12          14          12          12          12          12
 AtmWgt=  23.9850450  12.0000000  12.0000000  12.0000000  12.0000000  14.0030740  12.0000000  12.0000000  12.0000000  12.0000000
 NucSpn=           0           0           0           0           0           2           0           0           0           0
 AtZEff=  -0.0000000  -0.0000000  -0.0000000  -0.0000000  -0.0000000  -0.0000000  -0.0000000  -0.0000000  -0.0000000  -0.0000000
 NQMom=    0.0000000   0.0000000   0.0000000   0.0000000   0.0000000   2.0440000   0.0000000   0.0000000   0.0000000   0.0000000
 NMagM=    0.0000000   0.0000000   0.0000000   0.0000000   0.0000000   0.4037610   0.0000000   0.0000000   0.0000000   0.0000000
 AtZNuc=  12.0000000   6.0000000   6.0000000   6.0000000   6.0000000   7.0000000   6.0000000   6.0000000   6.0000000   6.0000000

  Atom        11          12          13          14          15          16          17          18          19          20
 IAtWgt=          12          12          12           1          14          12          12          12          12          12
 AtmWgt=  12.0000000  12.0000000  12.0000000   1.0078250  14.0030740  12.0000000  12.0000000  12.0000000  12.0000000  12.0000000
 NucSpn=           0           0           0           1           2           0           0           0           0           0
 AtZEff=  -0.0000000  -0.0000000  -0.0000000  -0.0000000  -0.0000000  -0.0000000  -0.0000000  -0.0000000  -0.0000000  -0.0000000
 NQMom=    0.0000000   0.0000000   0.0000000   0.0000000   2.0440000   0.0000000   0.0000000   0.0000000   0.0000000   0.0000000
 NMagM=    0.0000000   0.0000000   0.0000000   2.7928460   0.4037610   0.0000000   0.0000000   0.0000000   0.0000000   0.0000000
 AtZNuc=   6.0000000   6.0000000   6.0000000   1.0000000   7.0000000   6.0000000   6.0000000   6.0000000   6.0000000   6.0000000

  Atom        21          22          23          24          25          26          27          28          29          30
 IAtWgt=          12          16          12          14          12          12          12          12          12          12
 AtmWgt=  12.0000000  15.9949146  12.0000000  14.0030740  12.0000000  12.0000000  12.0000000  12.0000000  12.0000000  12.0000000
 NucSpn=           0           0           0           2           0           0           0           0           0           0
 AtZEff=  -0.0000000  -0.0000000  -0.0000000  -0.0000000  -0.0000000  -0.0000000  -0.0000000  -0.0000000  -0.0000000  -0.0000000
 NQMom=    0.0000000   0.0000000   0.0000000   2.0440000   0.0000000   0.0000000   0.0000000   0.0000000   0.0000000   0.0000000
 NMagM=    0.0000000   0.0000000   0.0000000   0.4037610   0.0000000   0.0000000   0.0000000   0.0000000   0.0000000   0.0000000
 AtZNuc=   6.0000000   8.0000000   6.0000000   7.0000000   6.0000000   6.0000000   6.0000000   6.0000000   6.0000000   6.0000000

  Atom        31          32          33          34          35          36          37          38          39          40
 IAtWgt=          12          14          12          12          12          12          12          12          16          12
 AtmWgt=  12.0000000  14.0030740  12.0000000  12.0000000  12.0000000  12.0000000  12.0000000  12.0000000  15.9949146  12.0000000
 NucSpn=           0           2           0           0           0           0           0           0           0           0
 AtZEff=  -0.0000000  -0.0000000  -0.0000000  -0.0000000  -0.0000000  -0.0000000  -0.0000000  -0.0000000  -0.0000000  -0.0000000
 NQMom=    0.0000000   2.0440000   0.0000000   0.0000000   0.0000000   0.0000000   0.0000000   0.0000000   0.0000000   0.0000000
 NMagM=    0.0000000   0.4037610   0.0000000   0.0000000   0.0000000   0.0000000   0.0000000   0.0000000   0.0000000   0.0000000
 AtZNuc=   6.0000000   7.0000000   6.0000000   6.0000000   6.0000000   6.0000000   6.0000000   6.0000000   8.0000000   6.0000000

  Atom        41          42          43          44          45          46          47          48          49          50
 IAtWgt=          12          16          16          12           1           1           1           1           1           1
 AtmWgt=  12.0000000  15.9949146  15.9949146  12.0000000   1.0078250   1.0078250   1.0078250   1.0078250   1.0078250   1.0078250
 NucSpn=           0           0           0           0           1           1           1           1           1           1
 AtZEff=  -0.0000000  -0.0000000  -0.0000000  -0.0000000  -0.0000000  -0.0000000  -0.0000000  -0.0000000  -0.0000000  -0.0000000
 NQMom=    0.0000000   0.0000000   0.0000000   0.0000000   0.0000000   0.0000000   0.0000000   0.0000000   0.0000000   0.0000000
 NMagM=    0.0000000   0.0000000   0.0000000   0.0000000   2.7928460   2.7928460   2.7928460   2.7928460   2.7928460   2.7928460
 AtZNuc=   6.0000000   8.0000000   8.0000000   6.0000000   1.0000000   1.0000000   1.0000000   1.0000000   1.0000000   1.0000000

  Atom        51          52          53          54          55          56          57          58          59          60
 IAtWgt=           1           1           1           1           1           1           1           1           1           1
 AtmWgt=   1.0078250   1.0078250   1.0078250   1.0078250   1.0078250   1.0078250   1.0078250   1.0078250   1.0078250   1.0078250
 NucSpn=           1           1           1           1           1           1           1           1           1           1
 AtZEff=  -0.0000000  -0.0000000  -0.0000000  -0.0000000  -0.0000000  -0.0000000  -0.0000000  -0.0000000  -0.0000000  -0.0000000
 NQMom=    0.0000000   0.0000000   0.0000000   0.0000000   0.0000000   0.0000000   0.0000000   0.0000000   0.0000000   0.0000000
 NMagM=    2.7928460   2.7928460   2.7928460   2.7928460   2.7928460   2.7928460   2.7928460   2.7928460   2.7928460   2.7928460
 AtZNuc=   1.0000000   1.0000000   1.0000000   1.0000000   1.0000000   1.0000000   1.0000000   1.0000000   1.0000000   1.0000000

  Atom        61          62          63          64          65          66          67          68          69          70
 IAtWgt=           1           1           1           1           1           1           1           1           1           1
 AtmWgt=   1.0078250   1.0078250   1.0078250   1.0078250   1.0078250   1.0078250   1.0078250   1.0078250   1.0078250   1.0078250
 NucSpn=           1           1           1           1           1           1           1           1           1           1
 AtZEff=  -0.0000000  -0.0000000  -0.0000000  -0.0000000  -0.0000000  -0.0000000  -0.0000000  -0.0000000  -0.0000000  -0.0000000
 NQMom=    0.0000000   0.0000000   0.0000000   0.0000000   0.0000000   0.0000000   0.0000000   0.0000000   0.0000000   0.0000000
 NMagM=    2.7928460   2.7928460   2.7928460   2.7928460   2.7928460   2.7928460   2.7928460   2.7928460   2.7928460   2.7928460
 AtZNuc=   1.0000000   1.0000000   1.0000000   1.0000000   1.0000000   1.0000000   1.0000000   1.0000000   1.0000000   1.0000000

  Atom        71          72          73          74          75          76          77          78          79          80
 IAtWgt=           1           1           1           1           1           1           1           1           1          24
 AtmWgt=   1.0078250   1.0078250   1.0078250   1.0078250   1.0078250   1.0078250   1.0078250   1.0078250   1.0078250  23.9850450
 NucSpn=           1           1           1           1           1           1           1           1           1           0
 AtZEff=  -0.0000000  -0.0000000  -0.0000000  -0.0000000  -0.0000000  -0.0000000  -0.0000000  -0.0000000  -0.0000000  -0.0000000
 NQMom=    0.0000000   0.0000000   0.0000000   0.0000000   0.0000000   0.0000000   0.0000000   0.0000000   0.0000000   0.0000000
 NMagM=    2.7928460   2.7928460   2.7928460   2.7928460   2.7928460   2.7928460   2.7928460   2.7928460   2.7928460   0.0000000
 AtZNuc=   1.0000000   1.0000000   1.0000000   1.0000000   1.0000000   1.0000000   1.0000000   1.0000000   1.0000000  12.0000000

  Atom        81          82          83          84          85          86          87          88          89          90
 IAtWgt=          12          12          12          12          14          12          12          12          12          12
 AtmWgt=  12.0000000  12.0000000  12.0000000  12.0000000  14.0030740  12.0000000  12.0000000  12.0000000  12.0000000  12.0000000
 NucSpn=           0           0           0           0           2           0           0           0           0           0
 AtZEff=  -0.0000000  -0.0000000  -0.0000000  -0.0000000  -0.0000000  -0.0000000  -0.0000000  -0.0000000  -0.0000000  -0.0000000
 NQMom=    0.0000000   0.0000000   0.0000000   0.0000000   2.0440000   0.0000000   0.0000000   0.0000000   0.0000000   0.0000000
 NMagM=    0.0000000   0.0000000   0.0000000   0.0000000   0.4037610   0.0000000   0.0000000   0.0000000   0.0000000   0.0000000
 AtZNuc=   6.0000000   6.0000000   6.0000000   6.0000000   7.0000000   6.0000000   6.0000000   6.0000000   6.0000000   6.0000000

  Atom        91          92          93          94          95          96          97          98          99         100
 IAtWgt=          12          12           1          14          12          12          12          12          12          12
 AtmWgt=  12.0000000  12.0000000   1.0078250  14.0030740  12.0000000  12.0000000  12.0000000  12.0000000  12.0000000  12.0000000
 NucSpn=           0           0           1           2           0           0           0           0           0           0
 AtZEff=  -0.0000000  -0.0000000  -0.0000000  -0.0000000  -0.0000000  -0.0000000  -0.0000000  -0.0000000  -0.0000000  -0.0000000
 NQMom=    0.0000000   0.0000000   0.0000000   2.0440000   0.0000000   0.0000000   0.0000000   0.0000000   0.0000000   0.0000000
 NMagM=    0.0000000   0.0000000   2.7928460   0.4037610   0.0000000   0.0000000   0.0000000   0.0000000   0.0000000   0.0000000
 AtZNuc=   6.0000000   6.0000000   1.0000000   7.0000000   6.0000000   6.0000000   6.0000000   6.0000000   6.0000000   6.0000000

  Atom       101         102         103         104         105         106         107         108         109         110
 IAtWgt=          16          12          14          12          12          12          12          12          12          12
 AtmWgt=  15.9949146  12.0000000  14.0030740  12.0000000  12.0000000  12.0000000  12.0000000  12.0000000  12.0000000  12.0000000
 NucSpn=           0           0           2           0           0           0           0           0           0           0
 AtZEff=  -0.0000000  -0.0000000  -0.0000000  -0.0000000  -0.0000000  -0.0000000  -0.0000000  -0.0000000  -0.0000000  -0.0000000
 NQMom=    0.0000000   0.0000000   2.0440000   0.0000000   0.0000000   0.0000000   0.0000000   0.0000000   0.0000000   0.0000000
 NMagM=    0.0000000   0.0000000   0.4037610   0.0000000   0.0000000   0.0000000   0.0000000   0.0000000   0.0000000   0.0000000
 AtZNuc=   8.0000000   6.0000000   7.0000000   6.0000000   6.0000000   6.0000000   6.0000000   6.0000000   6.0000000   6.0000000

  Atom       111         112         113         114         115         116         117         118         119         120
 IAtWgt=          14          12          12          12          12          12          12          16          12          12
 AtmWgt=  14.0030740  12.0000000  12.0000000  12.0000000  12.0000000  12.0000000  12.0000000  15.9949146  12.0000000  12.0000000
 NucSpn=           2           0           0           0           0           0           0           0           0           0
 AtZEff=  -0.0000000  -0.0000000  -0.0000000  -0.0000000  -0.0000000  -0.0000000  -0.0000000  -0.0000000  -0.0000000  -0.0000000
 NQMom=    2.0440000   0.0000000   0.0000000   0.0000000   0.0000000   0.0000000   0.0000000   0.0000000   0.0000000   0.0000000
 NMagM=    0.4037610   0.0000000   0.0000000   0.0000000   0.0000000   0.0000000   0.0000000   0.0000000   0.0000000   0.0000000
 AtZNuc=   7.0000000   6.0000000   6.0000000   6.0000000   6.0000000   6.0000000   6.0000000   8.0000000   6.0000000   6.0000000

  Atom       121         122         123         124         125         126         127         128         129         130
 IAtWgt=          16          16          12           1           1           1           1           1           1           1
 AtmWgt=  15.9949146  15.9949146  12.0000000   1.0078250   1.0078250   1.0078250   1.0078250   1.0078250   1.0078250   1.0078250
 NucSpn=           0           0           0           1           1           1           1           1           1           1
 AtZEff=  -0.0000000  -0.0000000  -0.0000000  -0.0000000  -0.0000000  -0.0000000  -0.0000000  -0.0000000  -0.0000000  -0.0000000
 NQMom=    0.0000000   0.0000000   0.0000000   0.0000000   0.0000000   0.0000000   0.0000000   0.0000000   0.0000000   0.0000000
 NMagM=    0.0000000   0.0000000   0.0000000   2.7928460   2.7928460   2.7928460   2.7928460   2.7928460   2.7928460   2.7928460
 AtZNuc=   8.0000000   8.0000000   6.0000000   1.0000000   1.0000000   1.0000000   1.0000000   1.0000000   1.0000000   1.0000000

  Atom       131         132         133         134         135         136         137         138         139         140
 IAtWgt=           1           1           1           1           1           1           1           1           1           1
 AtmWgt=   1.0078250   1.0078250   1.0078250   1.0078250   1.0078250   1.0078250   1.0078250   1.0078250   1.0078250   1.0078250
 NucSpn=           1           1           1           1           1           1           1           1           1           1
 AtZEff=  -0.0000000  -0.0000000  -0.0000000  -0.0000000  -0.0000000  -0.0000000  -0.0000000  -0.0000000  -0.0000000  -0.0000000
 NQMom=    0.0000000   0.0000000   0.0000000   0.0000000   0.0000000   0.0000000   0.0000000   0.0000000   0.0000000   0.0000000
 NMagM=    2.7928460   2.7928460   2.7928460   2.7928460   2.7928460   2.7928460   2.7928460   2.7928460   2.7928460   2.7928460
 AtZNuc=   1.0000000   1.0000000   1.0000000   1.0000000   1.0000000   1.0000000   1.0000000   1.0000000   1.0000000   1.0000000

  Atom       141         142         143         144         145         146         147         148         149         150
 IAtWgt=           1           1           1           1           1           1           1           1           1           1
 AtmWgt=   1.0078250   1.0078250   1.0078250   1.0078250   1.0078250   1.0078250   1.0078250   1.0078250   1.0078250   1.0078250
 NucSpn=           1           1           1           1           1           1           1           1           1           1
 AtZEff=  -0.0000000  -0.0000000  -0.0000000  -0.0000000  -0.0000000  -0.0000000  -0.0000000  -0.0000000  -0.0000000  -0.0000000
 NQMom=    0.0000000   0.0000000   0.0000000   0.0000000   0.0000000   0.0000000   0.0000000   0.0000000   0.0000000   0.0000000
 NMagM=    2.7928460   2.7928460   2.7928460   2.7928460   2.7928460   2.7928460   2.7928460   2.7928460   2.7928460   2.7928460
 AtZNuc=   1.0000000   1.0000000   1.0000000   1.0000000   1.0000000   1.0000000   1.0000000   1.0000000   1.0000000   1.0000000

  Atom       151         152         153         154         155         156         157         158
 IAtWgt=           1           1           1           1           1           1           1           1
 AtmWgt=   1.0078250   1.0078250   1.0078250   1.0078250   1.0078250   1.0078250   1.0078250   1.0078250
 NucSpn=           1           1           1           1           1           1           1           1
 AtZEff=  -0.0000000  -0.0000000  -0.0000000  -0.0000000  -0.0000000  -0.0000000  -0.0000000  -0.0000000
 NQMom=    0.0000000   0.0000000   0.0000000   0.0000000   0.0000000   0.0000000   0.0000000   0.0000000
 NMagM=    2.7928460   2.7928460   2.7928460   2.7928460   2.7928460   2.7928460   2.7928460   2.7928460
 AtZNuc=   1.0000000   1.0000000   1.0000000   1.0000000   1.0000000   1.0000000   1.0000000   1.0000000
 Leave Link  101 at Thu Sep  9 12:33:10 2021, MaxMem= 23488102400 cpu:               4.1 elap:               0.2
 (Enter /sw/apps/gaussian-16.0/g16/l202.exe)
 Stoichiometry    C68H72Mg2N8O8
 Framework group  C1[X(C68H72Mg2N8O8)]
 Deg. of freedom   468
 Full point group                 C1      NOp   1
 Largest Abelian subgroup         C1      NOp   1
 Largest concise Abelian subgroup C1      NOp   1
                         Standard orientation:                         
 ---------------------------------------------------------------------
 Center     Atomic      Atomic             Coordinates (Angstroms)
 Number     Number       Type             X           Y           Z
 ---------------------------------------------------------------------
      1         12           0        4.221553   -1.359889    0.206641
      2          6           0        5.148789    1.386578   -1.893207
      3          6           0        5.783294    0.264945    2.768661
      4          6           0        3.813012   -3.967168    1.964997
      5          6           0        3.754849   -3.230423   -2.696624
      6          7           0        5.292031    0.575496    0.301544
      7          6           0        5.525275    1.560983   -0.559608
      8          6           0        6.140146    2.829162    0.104493
      9          6           0        6.795772    2.148197    1.388409
     10          6           0        5.881996    0.942214    1.517023
     11          6           0        8.222647    1.660946    1.157939
     12          6           0        5.049233    3.878011    0.506435
     13          6           0        5.580065    5.270835    0.858020
     14          1           0        4.787549    6.435146    0.492441
     15          7           0        4.281614   -1.606292    2.165858
     16          6           0        4.954148   -0.840299    3.058179
     17          6           0        4.684539   -1.430615    4.386908
     18          6           0        3.956126   -2.712425    4.176026
     19          6           0        4.011542   -2.827713    2.741099
     20          6           0        5.061699   -0.765151    5.674797
     21          6           0        3.321426   -3.685172    5.118921
     22          8           0        2.945330   -4.848439    4.744840
     23          6           0        3.230851   -3.268575    6.530050
     24          7           0        4.050517   -3.384169   -0.273641
     25          6           0        3.820494   -4.300882    0.672780
     26          6           0        3.456041   -5.626167    0.072170
     27          6           0        3.246583   -5.361587   -1.488560
     28          6           0        3.628737   -3.861336   -1.526961
     29          6           0        4.480103   -6.753022    0.265833
     30          6           0        1.889456   -5.792877   -2.098982
     31          6           0        0.779011   -4.930372   -1.542121
     32          7           0        4.236987   -0.968747   -1.928263
     33          6           0        4.039855   -1.900560   -2.957601
     34          6           0        4.250024   -1.188139   -4.231318
     35          6           0        4.573172    0.113088   -3.851545
     36          6           0        4.591064    0.201033   -2.430194
     37          6           0        4.191565   -1.767305   -5.529618
     38          6           0        4.931628    1.443529   -4.315543
     39          8           0        4.983291    1.993184   -5.416772
     40          6           0        5.437793    2.290604   -3.065708
     41          6           0        4.746061    3.625792   -3.111399
     42          8           0        3.513660    3.714138   -2.936046
     43          8           0        5.665668    4.602952   -3.116256
     44          6           0        5.045304    5.954646   -3.131267
     45          1           0        6.441309    0.567253    3.585709
     46          1           0        3.559351   -4.865675    2.531370
     47          1           0        3.543703   -3.728235   -3.644809
     48          1           0        6.909543    3.324691   -0.487877
     49          1           0        6.713878    2.781568    2.271504
     50          1           0        8.508301    1.746188    0.109580
     51          1           0        8.227521    0.616432    1.470124
     52          1           0        8.919301    2.175005    1.820656
     53          1           0        4.616513    3.596604    1.466448
     54          1           0        4.293195    3.966867   -0.274485
     55          1           0        6.614203    5.396251    0.535934
     56          1           0        5.622295    5.356172    1.943899
     57          1           0        5.729323    0.079383    5.508707
     58          1           0        5.661962   -1.479202    6.238289
     59          1           0        4.187731   -0.477446    6.259381
     60          1           0        4.232327   -3.066889    6.910731
     61          1           0        2.669156   -4.051009    7.039114
     62          1           0        2.686127   -2.325631    6.585557
     63          1           0        2.528274   -6.006464    0.497667
     64          1           0        3.988265   -5.882198   -2.094816
     65          1           0        4.071618   -7.636144    0.757708
     66          1           0        5.323860   -6.349234    0.824689
     67          1           0        4.967302   -7.090060   -0.648748
     68          1           0        1.662019   -6.823231   -1.827709
     69          1           0        1.865156   -5.723170   -3.186548
     70          1           0        0.541970   -5.418594   -0.597514
     71          1           0       -0.081218   -4.938224   -2.212312
     72          1           0        1.133496   -3.925948   -1.309828
     73          1           0        3.638157   -1.064608   -6.152454
     74          1           0        3.706751   -2.743022   -5.506475
     75          1           0        5.252754   -1.833890   -5.768992
     76          1           0        6.518331    2.385624   -3.168322
     77          1           0        5.449739    6.483866   -3.994165
     78          1           0        5.219491    6.386503   -2.145588
     79          1           0        3.977295    5.992469   -3.348674
     80         12           0       -4.376244    1.265271    0.701418
     81          6           0       -5.144520   -1.564729   -1.367384
     82          6           0       -3.156074    2.789788   -2.095296
     83          6           0       -3.279529    3.586537    2.565919
     84          6           0       -4.585379   -0.864328    3.452203
     85          7           0       -4.225617    0.597092   -1.401707
     86          6           0       -4.606559   -0.473883   -2.081589
     87          6           0       -4.473543   -0.338606   -3.622225
     88          6           0       -3.335296    0.793331   -3.666850
     89          6           0       -3.604627    1.463968   -2.321343
     90          6           0       -1.924400    0.229213   -3.645425
     91          6           0       -5.801770    0.155556   -4.295752
     92          6           0       -5.841281    0.015115   -5.819053
     93          1           0       -7.112895   -0.319096   -6.454477
     94          7           0       -3.820507    3.117248    0.254336
     95          6           0       -3.372841    3.567408   -0.936568
     96          6           0       -3.077347    4.995296   -0.741662
     97          6           0       -3.230860    5.313001    0.704089
     98          6           0       -3.433760    3.984314    1.245863
     99          6           0       -2.770282    5.925354   -1.879256
    100          6           0       -3.187773    6.598396    1.473559
    101          8           0       -3.108921    6.615093    2.752756
    102          6           0       -3.146400    7.835918    0.680884
    103          7           0       -3.779606    1.311402    2.692458
    104          6           0       -3.395043    2.461895    3.272439
    105          6           0       -3.277497    2.305280    4.769777
    106          6           0       -3.899556    0.869871    5.101757
    107          6           0       -4.200897    0.386503    3.666164
    108          6           0       -1.861160    2.389700    5.338328
    109          6           0       -5.042763    0.824162    6.152320
    110          6           0       -6.273029    1.512633    5.606580
    111          7           0       -4.965964   -0.785596    1.039413
    112          6           0       -4.953310   -1.485745    2.265669
    113          6           0       -5.329715   -2.883912    1.972616
    114          6           0       -5.514309   -2.905735    0.581949
    115          6           0       -5.250529   -1.617316    0.043546
    116          6           0       -5.412899   -3.939804    2.923553
    117          6           0       -5.861992   -3.728334   -0.554338
    118          8           0       -6.266159   -4.881097   -0.701014
    119          6           0       -5.515103   -2.927652   -1.882854
    120          6           0       -6.696509   -3.029319   -2.808315
    121          8           0       -7.783191   -2.505613   -2.505914
    122          8           0       -6.290760   -3.536287   -3.986763
    123          6           0       -7.425277   -3.646050   -4.942090
    124          1           0       -2.543402    3.267734   -2.860208
    125          1           0       -3.009488    4.378340    3.268478
    126          1           0       -4.768227   -1.566552    4.268363
    127          1           0       -4.129205   -1.232325   -4.128657
    128          1           0       -3.504895    1.492108   -4.481896
    129          1           0       -1.919824   -0.838523   -3.483962
    130          1           0       -1.417022    0.736531   -2.835334
    131          1           0       -1.391775    0.511183   -4.558189
    132          1           0       -5.863889    1.247731   -4.206083
    133          1           0       -6.652797   -0.335533   -3.865398
    134          1           0       -5.041688   -0.635330   -6.193901
    135          1           0       -5.624314    0.989669   -6.263128
    136          1           0       -2.565169    5.374206   -2.805307
    137          1           0       -1.821941    6.419266   -1.641409
    138          1           0       -3.539981    6.687213   -2.019960
    139          1           0       -2.272530    7.821309    0.033894
    140          1           0       -3.209547    8.649642    1.405957
    141          1           0       -4.023504    7.860499    0.024603
    142          1           0       -3.852734    3.065124    5.284429
    143          1           0       -3.144393    0.183617    5.512393
    144          1           0       -1.746028    3.175861    6.108240
    145          1           0       -1.173964    2.555947    4.519382
    146          1           0       -1.482563    1.466546    5.773824
    147          1           0       -4.752947    1.373340    7.051521
    148          1           0       -5.306235   -0.182133    6.460443
    149          1           0       -6.076399    2.569062    5.812436
    150          1           0       -7.165959    1.169045    6.124918
    151          1           0       -6.339541    1.395605    4.518680
    152          1           0       -6.317455   -4.489606    2.699981
    153          1           0       -5.420479   -3.557734    3.942253
    154          1           0       -4.490941   -4.481153    2.695041
    155          1           0       -4.619005   -3.377568   -2.311983
    156          1           0       -7.465474   -4.688773   -5.271916
    157          1           0       -7.238277   -2.879370   -5.717318
    158          1           0       -8.426112   -3.509696   -4.549428
 ---------------------------------------------------------------------
 Rotational constants (GHZ):           0.0207762           0.0135854           0.0129700
 Leave Link  202 at Thu Sep  9 12:33:10 2021, MaxMem= 23488102400 cpu:               0.2 elap:               0.0
 (Enter /sw/apps/gaussian-16.0/g16/l301.exe)
 Standard basis: def2SVP (5D, 7F)
 Ernie: Thresh=  0.10000D-02 Tol=  0.10000D-05 Strict=F.
 There are  1658 symmetry adapted cartesian basis functions of A   symmetry.
 There are  1572 symmetry adapted basis functions of A   symmetry.
  1572 basis functions,  2678 primitive gaussians,  1658 cartesian basis functions
   312 alpha electrons      312 beta electrons
       nuclear repulsion energy     15479.7448460544 Hartrees.
 IExCor=20419 DFT=T Ex+Corr=CAM-B3LYP ExCW=0 ScaHFX=  1.000000
 ScaDFX=  1.000000  1.000000  1.000000  0.810000 ScalE2=  1.000000  1.000000
 IRadAn=      5 IRanWt=     -1 IRanGd=            0 ICorTp=0 IEmpDi=  4
 HFx  wShort=  0.000000 wLong=  0.330000 cFull=  0.190000 cShort=  0.000000 cLong=  0.460000
 DFx  wShort=  0.000000 wLong=  0.330000 cFull=  0.190000 cShort=  0.000000 cLong=  0.460000
 NAtoms=  158 NActive=  158 NUniq=  158 SFac= 1.00D+00 NAtFMM=   60 NAOKFM=T Big=T
 Integral buffers will be    131072 words long.
 Raffenetti 1 integral format.
 Two-electron integral symmetry is turned on.
 Leave Link  301 at Thu Sep  9 12:33:10 2021, MaxMem= 23488102400 cpu:               1.6 elap:               0.1
 (Enter /sw/apps/gaussian-16.0/g16/l302.exe)
 NPDir=0 NMtPBC=     1 NCelOv=     1 NCel=       1 NClECP=     1 NCelD=      1
         NCelK=      1 NCelE2=     1 NClLst=     1 CellRange=     0.0.
 One-electron integrals computed using PRISM.
 One-electron integral symmetry used in STVInt
   1 Symmetry operations used in ECPInt.
 ECPInt:  NShTT=  271216 NPrTT=  987664 LenC2=  153665 LenP2D=  320111.
 LDataN:  DoStor=T MaxTD1= 4 Len=   56
 NBasis=  1572 RedAO= T EigKep=  3.36D-04  NBF=  1572
 NBsUse=  1572 1.00D-06 EigRej= -1.00D+00 NBFU=  1572
 Precomputing XC quadrature grid using
 IXCGrd= 4 IRadAn=           5 IRanWt=          -1 IRanGd=           0 AccXCQ= 0.00D+00.
 Generated NRdTot=       0 NPtTot=           0 NUsed=           0 NTot=          32
 NSgBfM=  1204  1190  1191  1197  1204 MxSgAt=   158 MxSgA2=   158.
 Leave Link  302 at Thu Sep  9 12:33:15 2021, MaxMem= 23488102400 cpu:             125.6 elap:               5.3
 (Enter /sw/apps/gaussian-16.0/g16/l303.exe)
 DipDrv:  MaxL=1.
 Leave Link  303 at Thu Sep  9 12:33:16 2021, MaxMem= 23488102400 cpu:               9.5 elap:               0.4
 (Enter /sw/apps/gaussian-16.0/g16/l308.exe)
 Leave Link  308 at Thu Sep  9 12:33:17 2021, MaxMem= 23488102400 cpu:              14.7 elap:               0.7
 (Enter /sw/apps/gaussian-16.0/g16/l401.exe)
 ExpMin= 3.36D-02 ExpMax= 4.95D+03 ExpMxC= 7.45D+02 IAcc=3 IRadAn=         5 AccDes= 0.00D+00
 Harris functional with IExCor=20419 and IRadAn=       5 diagonalized for initial guess.
 HarFok:  IExCor=20419 AccDes= 0.00D+00 IRadAn=         5 IDoV= 1 UseB2=F ITyADJ=14
 ICtDFT=  3500011 ScaDFX=  1.000000  1.000000  1.000000  1.000000
 FoFCou: FMM=F IPFlag=           0 FMFlag=      100000 FMFlg1=        2001
         NFxFlg=           0 DoJE=T BraDBF=F KetDBF=T FulRan=T
         wScrn=  0.000000 ICntrl=       500 IOpCl=  0 I1Cent=   200000004 NGrid=           0
         NMat0=    1 NMatS0=      1 NMatT0=    0 NMatD0=    1 NMtDS0=    0 NMtDT0=    0
 Petite list used in FoFCou.
 Harris En= -3918.65798957103    
 JPrj=0 DoOrth=F DoCkMO=F.
 Leave Link  401 at Thu Sep  9 12:33:25 2021, MaxMem= 23488102400 cpu:             196.2 elap:               8.2
 (Enter /sw/apps/gaussian-16.0/g16/l502.exe)
 Integral symmetry usage will be decided dynamically.
 Closed shell SCF:
 Using DIIS extrapolation, IDIIS=  1040.
 NGot= 23488102400 LenX= 23482547354 LenY= 23479796732
 Requested convergence on RMS density matrix=1.00D-08 within 128 cycles.
 Requested convergence on MAX density matrix=1.00D-06.
 Requested convergence on             energy=1.00D-06.
 No special actions if energy rises.
 Fock matrices will be formed incrementally for  20 cycles.

 Cycle   1  Pass 1  IDiag  1:
 FoFJK:  IHMeth= 1 ICntrl=       0 DoSepK=T KAlg= 0 I1Cent=           0 FoldK=F
 IRaf=         1 NMat=       1 IRICut=       1 DoRegI=T DoRafI=F ISym2E= 0 IDoP0=0 IntGTp=1.
 FoFCou: FMM=T IPFlag=           0 FMFlag=      100000 FMFlg1=        2001
         NFxFlg=           0 DoJE=T BraDBF=F KetDBF=F FulRan=T
         wScrn=  0.000000 ICntrl=       500 IOpCl=  0 I1Cent=           0 NGrid=           0
         NMat0=    1 NMatS0=      1 NMatT0=    0 NMatD0=    1 NMtDS0=    0 NMtDT0=    0
 Symmetry not used in FoFCou.
 FMM levels:  10  Number of levels for PrismC:   9
 E= -4068.95132267571    
 DIIS: error= 2.04D-02 at cycle   1 NSaved=   1.
 NSaved= 1 IEnMin= 1 EnMin= -4068.95132267571     IErMin= 1 ErrMin= 2.04D-02
 ErrMax= 2.04D-02  0.00D+00 EMaxC= 1.00D-01 BMatC= 1.69D+00 BMatP= 1.69D+00
 IDIUse=3 WtCom= 7.96D-01 WtEn= 2.04D-01
 Coeff-Com:  0.100D+01
 Coeff-En:   0.100D+01
 Coeff:      0.100D+01
 Gap=     0.120 Goal=   None    Shift=    0.000
 GapD=    0.120 DampG=1.000 DampE=0.500 DampFc=0.5000 IDamp=-1.
 Damping current iteration by 5.00D-01
 RMSDP=1.57D-03 MaxDP=1.36D-01              OVMax= 1.94D-01

 Cycle   2  Pass 1  IDiag  1:
 RMSU=  7.68D-04    CP:  9.82D-01
 E= -4069.34022247683     Delta-E=       -0.388899801121 Rises=F Damp=T
 DIIS: error= 1.27D-02 at cycle   2 NSaved=   2.
 NSaved= 2 IEnMin= 2 EnMin= -4069.34022247683     IErMin= 2 ErrMin= 1.27D-02
 ErrMax= 1.27D-02  0.00D+00 EMaxC= 1.00D-01 BMatC= 3.06D-01 BMatP= 1.69D+00
 IDIUse=3 WtCom= 8.73D-01 WtEn= 1.27D-01
 Coeff-Com: -0.214D+00 0.121D+01
 Coeff-En:   0.000D+00 0.100D+01
 Coeff:     -0.187D+00 0.119D+01
 Gap=     0.133 Goal=   None    Shift=    0.000
 RMSDP=7.62D-04 MaxDP=9.48D-02 DE=-3.89D-01 OVMax= 1.84D-01

 Cycle   3  Pass 1  IDiag  1:
 RMSU=  7.29D-04    CP:  9.68D-01  1.24D+00
 E= -4069.63184852145     Delta-E=       -0.291626044618 Rises=F Damp=F
 DIIS: error= 1.55D-02 at cycle   3 NSaved=   3.
 NSaved= 3 IEnMin= 3 EnMin= -4069.63184852145     IErMin= 2 ErrMin= 1.27D-02
 ErrMax= 1.55D-02  0.00D+00 EMaxC= 1.00D-01 BMatC= 1.99D-01 BMatP= 3.06D-01
 IDIUse=3 WtCom= 8.45D-01 WtEn= 1.55D-01
 Coeff-Com: -0.267D+00 0.650D+00 0.617D+00
 Coeff-En:   0.000D+00 0.000D+00 0.100D+01
 Coeff:     -0.226D+00 0.549D+00 0.676D+00
 Gap=     0.120 Goal=   None    Shift=    0.000
 RMSDP=5.01D-04 MaxDP=4.69D-02 DE=-2.92D-01 OVMax= 1.29D-01

 Cycle   4  Pass 1  IDiag  1:
 RMSU=  2.61D-04    CP:  9.65D-01  1.55D+00  5.12D-01
 E= -4069.76851515844     Delta-E=       -0.136666636990 Rises=F Damp=F
 DIIS: error= 7.02D-03 at cycle   4 NSaved=   4.
 NSaved= 4 IEnMin= 4 EnMin= -4069.76851515844     IErMin= 4 ErrMin= 7.02D-03
 ErrMax= 7.02D-03  0.00D+00 EMaxC= 1.00D-01 BMatC= 4.81D-02 BMatP= 1.99D-01
 IDIUse=3 WtCom= 9.30D-01 WtEn= 7.02D-02
 Coeff-Com: -0.108D+00 0.224D+00 0.406D+00 0.478D+00
 Coeff-En:   0.000D+00 0.000D+00 0.212D+00 0.788D+00
 Coeff:     -0.100D+00 0.208D+00 0.393D+00 0.500D+00
 Gap=     0.120 Goal=   None    Shift=    0.000
 RMSDP=1.92D-04 MaxDP=2.00D-02 DE=-1.37D-01 OVMax= 5.28D-02

 Cycle   5  Pass 1  IDiag  1:
 RMSU=  7.27D-05    CP:  9.64D-01  1.49D+00  6.90D-01  5.61D-01
 E= -4069.81154110451     Delta-E=       -0.043025946066 Rises=F Damp=F
 DIIS: error= 7.93D-04 at cycle   5 NSaved=   5.
 NSaved= 5 IEnMin= 5 EnMin= -4069.81154110451     IErMin= 5 ErrMin= 7.93D-04
 ErrMax= 7.93D-04  0.00D+00 EMaxC= 1.00D-01 BMatC= 1.01D-03 BMatP= 4.81D-02
 IDIUse=3 WtCom= 9.92D-01 WtEn= 7.93D-03
 Coeff-Com: -0.342D-01 0.670D-01 0.158D+00 0.243D+00 0.566D+00
 Coeff-En:   0.000D+00 0.000D+00 0.000D+00 0.000D+00 0.100D+01
 Coeff:     -0.339D-01 0.664D-01 0.157D+00 0.241D+00 0.570D+00
 Gap=     0.119 Goal=   None    Shift=    0.000
 RMSDP=3.76D-05 MaxDP=4.15D-03 DE=-4.30D-02 OVMax= 1.21D-02

 Cycle   6  Pass 1  IDiag  1:
 RMSU=  2.89D-05    CP:  9.64D-01  1.50D+00  6.83D-01  6.27D-01  7.84D-01
 E= -4069.81238251387     Delta-E=       -0.000841409361 Rises=F Damp=F
 DIIS: error= 2.39D-04 at cycle   6 NSaved=   6.
 NSaved= 6 IEnMin= 6 EnMin= -4069.81238251387     IErMin= 6 ErrMin= 2.39D-04
 ErrMax= 2.39D-04  0.00D+00 EMaxC= 1.00D-01 BMatC= 1.62D-04 BMatP= 1.01D-03
 IDIUse=3 WtCom= 9.98D-01 WtEn= 2.39D-03
 Coeff-Com:  0.241D-02-0.692D-02 0.968D-02 0.380D-01 0.313D+00 0.644D+00
 Coeff-En:   0.000D+00 0.000D+00 0.000D+00 0.000D+00 0.103D+00 0.897D+00
 Coeff:      0.241D-02-0.690D-02 0.966D-02 0.379D-01 0.313D+00 0.644D+00
 Gap=     0.120 Goal=   None    Shift=    0.000
 RMSDP=1.48D-05 MaxDP=1.23D-03 DE=-8.41D-04 OVMax= 5.90D-03

 Cycle   7  Pass 1  IDiag  1:
 RMSU=  1.01D-05    CP:  9.64D-01  1.50D+00  6.88D-01  6.28D-01  8.77D-01
                    CP:  7.49D-01
 E= -4069.81255165298     Delta-E=       -0.000169139108 Rises=F Damp=F
 DIIS: error= 7.52D-05 at cycle   7 NSaved=   7.
 NSaved= 7 IEnMin= 7 EnMin= -4069.81255165298     IErMin= 7 ErrMin= 7.52D-05
 ErrMax= 7.52D-05  0.00D+00 EMaxC= 1.00D-01 BMatC= 1.80D-05 BMatP= 1.62D-04
 IDIUse=1 WtCom= 1.00D+00 WtEn= 0.00D+00
 Coeff-Com:  0.433D-02-0.944D-02-0.900D-02-0.450D-02 0.100D+00 0.321D+00
 Coeff-Com:  0.598D+00
 Coeff:      0.433D-02-0.944D-02-0.900D-02-0.450D-02 0.100D+00 0.321D+00
 Coeff:      0.598D+00
 Gap=     0.120 Goal=   None    Shift=    0.000
 RMSDP=6.32D-06 MaxDP=1.20D-03 DE=-1.69D-04 OVMax= 3.01D-03

 Cycle   8  Pass 1  IDiag  1:
 RMSU=  4.53D-06    CP:  9.64D-01  1.50D+00  6.89D-01  6.32D-01  8.85D-01
                    CP:  8.79D-01  8.33D-01
 E= -4069.81257383669     Delta-E=       -0.000022183714 Rises=F Damp=F
 DIIS: error= 4.01D-05 at cycle   8 NSaved=   8.
 NSaved= 8 IEnMin= 8 EnMin= -4069.81257383669     IErMin= 8 ErrMin= 4.01D-05
 ErrMax= 4.01D-05  0.00D+00 EMaxC= 1.00D-01 BMatC= 4.49D-06 BMatP= 1.80D-05
 IDIUse=1 WtCom= 1.00D+00 WtEn= 0.00D+00
 Coeff-Com:  0.211D-02-0.417D-02-0.764D-02-0.122D-01-0.141D-01 0.348D-01
 Coeff-Com:  0.356D+00 0.646D+00
 Coeff:      0.211D-02-0.417D-02-0.764D-02-0.122D-01-0.141D-01 0.348D-01
 Coeff:      0.356D+00 0.646D+00
 Gap=     0.120 Goal=   None    Shift=    0.000
 RMSDP=3.16D-06 MaxDP=3.28D-04 DE=-2.22D-05 OVMax= 1.15D-03

 Cycle   9  Pass 1  IDiag  1:
 RMSU=  1.86D-06    CP:  9.64D-01  1.50D+00  6.90D-01  6.33D-01  9.01D-01
                    CP:  9.03D-01  1.04D+00  9.09D-01
 E= -4069.81258095135     Delta-E=       -0.000007114657 Rises=F Damp=F
 DIIS: error= 2.05D-05 at cycle   9 NSaved=   9.
 NSaved= 9 IEnMin= 9 EnMin= -4069.81258095135     IErMin= 9 ErrMin= 2.05D-05
 ErrMax= 2.05D-05  0.00D+00 EMaxC= 1.00D-01 BMatC= 6.50D-07 BMatP= 4.49D-06
 IDIUse=1 WtCom= 1.00D+00 WtEn= 0.00D+00
 Coeff-Com:  0.477D-03-0.800D-03-0.268D-02-0.602D-02-0.227D-01-0.352D-01
 Coeff-Com:  0.111D+00 0.330D+00 0.626D+00
 Coeff:      0.477D-03-0.800D-03-0.268D-02-0.602D-02-0.227D-01-0.352D-01
 Coeff:      0.111D+00 0.330D+00 0.626D+00
 Gap=     0.120 Goal=   None    Shift=    0.000
 RMSDP=1.36D-06 MaxDP=1.58D-04 DE=-7.11D-06 OVMax= 7.55D-04

 Cycle  10  Pass 1  IDiag  1:
 RMSU=  9.11D-07    CP:  9.64D-01  1.50D+00  6.90D-01  6.34D-01  9.04D-01
                    CP:  9.17D-01  1.08D+00  1.08D+00  1.02D+00
 E= -4069.81258239564     Delta-E=       -0.000001444292 Rises=F Damp=F
 DIIS: error= 1.00D-05 at cycle  10 NSaved=  10.
 NSaved=10 IEnMin=10 EnMin= -4069.81258239564     IErMin=10 ErrMin= 1.00D-05
 ErrMax= 1.00D-05  0.00D+00 EMaxC= 1.00D-01 BMatC= 1.59D-07 BMatP= 6.50D-07
 IDIUse=1 WtCom= 1.00D+00 WtEn= 0.00D+00
 Coeff-Com: -0.411D-03 0.862D-03 0.118D-02 0.108D-02-0.429D-02-0.300D-01
 Coeff-Com: -0.481D-01-0.699D-01 0.266D+00 0.884D+00
 Coeff:     -0.411D-03 0.862D-03 0.118D-02 0.108D-02-0.429D-02-0.300D-01
 Coeff:     -0.481D-01-0.699D-01 0.266D+00 0.884D+00
 Gap=     0.120 Goal=   None    Shift=    0.000
 RMSDP=1.15D-06 MaxDP=1.21D-04 DE=-1.44D-06 OVMax= 5.73D-04

 Cycle  11  Pass 1  IDiag  1:
 RMSU=  4.83D-07    CP:  9.64D-01  1.50D+00  6.90D-01  6.34D-01  9.07D-01
                    CP:  9.27D-01  1.13D+00  1.18D+00  1.35D+00  1.35D+00
 E= -4069.81258309600     Delta-E=       -0.000000700358 Rises=F Damp=F
 DIIS: error= 4.07D-06 at cycle  11 NSaved=  11.
 NSaved=11 IEnMin=11 EnMin= -4069.81258309600     IErMin=11 ErrMin= 4.07D-06
 ErrMax= 4.07D-06  0.00D+00 EMaxC= 1.00D-01 BMatC= 5.03D-08 BMatP= 1.59D-07
 IDIUse=1 WtCom= 1.00D+00 WtEn= 0.00D+00
 Coeff-Com: -0.312D-03 0.608D-03 0.126D-02 0.207D-02 0.434D-02-0.803D-02
 Coeff-Com: -0.448D-01-0.128D+00-0.120D-01 0.435D+00 0.749D+00
 Coeff:     -0.312D-03 0.608D-03 0.126D-02 0.207D-02 0.434D-02-0.803D-02
 Coeff:     -0.448D-01-0.128D+00-0.120D-01 0.435D+00 0.749D+00
 Gap=     0.120 Goal=   None    Shift=    0.000
 RMSDP=6.37D-07 MaxDP=5.52D-05 DE=-7.00D-07 OVMax= 3.38D-04

 Cycle  12  Pass 1  IDiag  1:
 RMSU=  2.45D-07    CP:  9.64D-01  1.50D+00  6.90D-01  6.34D-01  9.08D-01
                    CP:  9.30D-01  1.15D+00  1.24D+00  1.51D+00  1.72D+00
                    CP:  1.23D+00
 E= -4069.81258332268     Delta-E=       -0.000000226682 Rises=F Damp=F
 DIIS: error= 2.40D-06 at cycle  12 NSaved=  12.
 NSaved=12 IEnMin=12 EnMin= -4069.81258332268     IErMin=12 ErrMin= 2.40D-06
 ErrMax= 2.40D-06  0.00D+00 EMaxC= 1.00D-01 BMatC= 1.23D-08 BMatP= 5.03D-08
 IDIUse=1 WtCom= 1.00D+00 WtEn= 0.00D+00
 Coeff-Com:  0.944D-05-0.340D-04 0.129D-03 0.431D-03 0.307D-02 0.411D-02
 Coeff-Com:  0.406D-02-0.312D-01-0.610D-01-0.101D+00 0.236D+00 0.946D+00
 Coeff:      0.944D-05-0.340D-04 0.129D-03 0.431D-03 0.307D-02 0.411D-02
 Coeff:      0.406D-02-0.312D-01-0.610D-01-0.101D+00 0.236D+00 0.946D+00
 Gap=     0.120 Goal=   None    Shift=    0.000
 RMSDP=4.13D-07 MaxDP=2.64D-05 DE=-2.27D-07 OVMax= 2.34D-04

 Cycle  13  Pass 1  IDiag  1:
 RMSU=  1.53D-07    CP:  9.64D-01  1.50D+00  6.90D-01  6.34D-01  9.08D-01
                    CP:  9.30D-01  1.15D+00  1.27D+00  1.61D+00  1.94D+00
                    CP:  1.63D+00  1.32D+00
 E= -4069.81258340287     Delta-E=       -0.000000080188 Rises=F Damp=F
 DIIS: error= 1.37D-06 at cycle  13 NSaved=  13.
 NSaved=13 IEnMin=13 EnMin= -4069.81258340287     IErMin=13 ErrMin= 1.37D-06
 ErrMax= 1.37D-06  0.00D+00 EMaxC= 1.00D-01 BMatC= 6.61D-09 BMatP= 1.23D-08
 IDIUse=1 WtCom= 1.00D+00 WtEn= 0.00D+00
 Coeff-Com:  0.117D-03-0.238D-03-0.365D-03-0.463D-03 0.434D-03 0.486D-02
 Coeff-Com:  0.202D-01 0.218D-01-0.318D-01-0.238D+00-0.155D+00 0.600D+00
 Coeff-Com:  0.779D+00
 Coeff:      0.117D-03-0.238D-03-0.365D-03-0.463D-03 0.434D-03 0.486D-02
 Coeff:      0.202D-01 0.218D-01-0.318D-01-0.238D+00-0.155D+00 0.600D+00
 Coeff:      0.779D+00
 Gap=     0.120 Goal=   None    Shift=    0.000
 RMSDP=3.03D-07 MaxDP=2.05D-05 DE=-8.02D-08 OVMax= 1.70D-04

 Cycle  14  Pass 1  IDiag  1:
 RMSU=  7.07D-08    CP:  9.64D-01  1.50D+00  6.90D-01  6.34D-01  9.08D-01
                    CP:  9.31D-01  1.16D+00  1.29D+00  1.68D+00  2.11D+00
                    CP:  1.90D+00  1.83D+00  1.08D+00
 E= -4069.81258343221     Delta-E=       -0.000000029337 Rises=F Damp=F
 DIIS: error= 7.75D-07 at cycle  14 NSaved=  14.
 NSaved=14 IEnMin=14 EnMin= -4069.81258343221     IErMin=14 ErrMin= 7.75D-07
 ErrMax= 7.75D-07  0.00D+00 EMaxC= 1.00D-01 BMatC= 1.08D-09 BMatP= 6.61D-09
 IDIUse=1 WtCom= 1.00D+00 WtEn= 0.00D+00
 Coeff-Com:  0.634D-04-0.125D-03-0.235D-03-0.374D-03-0.518D-03 0.126D-02
 Coeff-Com:  0.110D-01 0.180D-01 0.322D-02-0.949D-01-0.138D+00 0.951D-01
 Coeff-Com:  0.402D+00 0.704D+00
 Coeff:      0.634D-04-0.125D-03-0.235D-03-0.374D-03-0.518D-03 0.126D-02
 Coeff:      0.110D-01 0.180D-01 0.322D-02-0.949D-01-0.138D+00 0.951D-01
 Coeff:      0.402D+00 0.704D+00
 Gap=     0.120 Goal=   None    Shift=    0.000
 RMSDP=9.18D-08 MaxDP=7.16D-06 DE=-2.93D-08 OVMax= 4.99D-05

 Cycle  15  Pass 1  IDiag  1:
 RMSU=  3.66D-08    CP:  9.64D-01  1.50D+00  6.90D-01  6.34D-01  9.08D-01
                    CP:  9.31D-01  1.16D+00  1.29D+00  1.69D+00  2.15D+00
                    CP:  2.00D+00  1.96D+00  1.32D+00  1.01D+00
 E= -4069.81258343528     Delta-E=       -0.000000003078 Rises=F Damp=F
 DIIS: error= 3.23D-07 at cycle  15 NSaved=  15.
 NSaved=15 IEnMin=15 EnMin= -4069.81258343528     IErMin=15 ErrMin= 3.23D-07
 ErrMax= 3.23D-07  0.00D+00 EMaxC= 1.00D-01 BMatC= 2.19D-10 BMatP= 1.08D-09
 IDIUse=1 WtCom= 1.00D+00 WtEn= 0.00D+00
 Coeff-Com:  0.459D-05-0.748D-05-0.287D-04-0.749D-04-0.300D-03-0.490D-03
 Coeff-Com:  0.112D-02 0.222D-02 0.848D-02 0.297D-02-0.305D-01-0.740D-01
 Coeff-Com:  0.221D-01 0.310D+00 0.758D+00
 Coeff:      0.459D-05-0.748D-05-0.287D-04-0.749D-04-0.300D-03-0.490D-03
 Coeff:      0.112D-02 0.222D-02 0.848D-02 0.297D-02-0.305D-01-0.740D-01
 Coeff:      0.221D-01 0.310D+00 0.758D+00
 Gap=     0.120 Goal=   None    Shift=    0.000
 RMSDP=4.02D-08 MaxDP=2.51D-06 DE=-3.08D-09 OVMax= 2.73D-05

 Cycle  16  Pass 1  IDiag  1:
 RMSU=  1.77D-08    CP:  9.64D-01  1.50D+00  6.90D-01  6.34D-01  9.08D-01
                    CP:  9.31D-01  1.16D+00  1.29D+00  1.70D+00  2.17D+00
                    CP:  2.02D+00  2.03D+00  1.40D+00  1.24D+00  1.13D+00
 E= -4069.81258343618     Delta-E=       -0.000000000891 Rises=F Damp=F
 DIIS: error= 1.79D-07 at cycle  16 NSaved=  16.
 NSaved=16 IEnMin=16 EnMin= -4069.81258343618     IErMin=16 ErrMin= 1.79D-07
 ErrMax= 1.79D-07  0.00D+00 EMaxC= 1.00D-01 BMatC= 7.20D-11 BMatP= 2.19D-10
 IDIUse=1 WtCom= 1.00D+00 WtEn= 0.00D+00
 Coeff-Com: -0.137D-04 0.278D-04 0.459D-04 0.537D-04-0.210D-04-0.612D-03
 Coeff-Com: -0.203D-02-0.413D-02 0.468D-02 0.250D-01 0.197D-01-0.643D-01
 Coeff-Com: -0.891D-01-0.208D-01 0.394D+00 0.737D+00
 Coeff:     -0.137D-04 0.278D-04 0.459D-04 0.537D-04-0.210D-04-0.612D-03
 Coeff:     -0.203D-02-0.413D-02 0.468D-02 0.250D-01 0.197D-01-0.643D-01
 Coeff:     -0.891D-01-0.208D-01 0.394D+00 0.737D+00
 Gap=     0.120 Goal=   None    Shift=    0.000
 RMSDP=2.16D-08 MaxDP=1.33D-06 DE=-8.91D-10 OVMax= 1.15D-05

 Cycle  17  Pass 1  IDiag  1:
 RMSU=  1.02D-08    CP:  9.64D-01  1.50D+00  6.90D-01  6.34D-01  9.08D-01
                    CP:  9.31D-01  1.16D+00  1.29D+00  1.70D+00  2.17D+00
                    CP:  2.04D+00  2.06D+00  1.45D+00  1.34D+00  1.43D+00
                    CP:  1.23D+00
 E= -4069.81258343650     Delta-E=       -0.000000000320 Rises=F Damp=F
 DIIS: error= 1.05D-07 at cycle  17 NSaved=  17.
 NSaved=17 IEnMin=17 EnMin= -4069.81258343650     IErMin=17 ErrMin= 1.05D-07
 ErrMax= 1.05D-07  0.00D+00 EMaxC= 1.00D-01 BMatC= 1.80D-11 BMatP= 7.20D-11
 IDIUse=1 WtCom= 1.00D+00 WtEn= 0.00D+00
 Coeff-Com: -0.728D-05 0.142D-04 0.287D-04 0.429D-04 0.845D-04-0.139D-03
 Coeff-Com: -0.105D-02-0.282D-02 0.488D-03 0.955D-02 0.177D-01-0.804D-02
 Coeff-Com: -0.427D-01-0.975D-01-0.288D-01 0.327D+00 0.826D+00
 Coeff:     -0.728D-05 0.142D-04 0.287D-04 0.429D-04 0.845D-04-0.139D-03
 Coeff:     -0.105D-02-0.282D-02 0.488D-03 0.955D-02 0.177D-01-0.804D-02
 Coeff:     -0.427D-01-0.975D-01-0.288D-01 0.327D+00 0.826D+00
 Gap=     0.120 Goal=   None    Shift=    0.000
 RMSDP=1.31D-08 MaxDP=8.52D-07 DE=-3.20D-10 OVMax= 9.09D-06

 Cycle  18  Pass 1  IDiag  1:
 RMSU=  4.87D-09    CP:  9.64D-01  1.50D+00  6.90D-01  6.34D-01  9.08D-01
                    CP:  9.31D-01  1.16D+00  1.29D+00  1.70D+00  2.17D+00
                    CP:  2.04D+00  2.07D+00  1.47D+00  1.41D+00  1.59D+00
                    CP:  1.65D+00  1.34D+00
 E= -4069.81258343656     Delta-E=       -0.000000000062 Rises=F Damp=F
 DIIS: error= 6.18D-08 at cycle  18 NSaved=  18.
 NSaved=18 IEnMin=18 EnMin= -4069.81258343656     IErMin=18 ErrMin= 6.18D-08
 ErrMax= 6.18D-08  0.00D+00 EMaxC= 1.00D-01 BMatC= 6.70D-12 BMatP= 1.80D-11
 IDIUse=1 WtCom= 1.00D+00 WtEn= 0.00D+00
 Coeff-Com:  0.146D-05-0.324D-05-0.253D-05 0.820D-06 0.610D-04 0.162D-03
 Coeff-Com:  0.323D-03-0.189D-04-0.116D-02-0.545D-02 0.123D-02 0.200D-01
 Coeff-Com:  0.147D-01-0.407D-01-0.163D+00-0.142D+00 0.373D+00 0.942D+00
 Coeff:      0.146D-05-0.324D-05-0.253D-05 0.820D-06 0.610D-04 0.162D-03
 Coeff:      0.323D-03-0.189D-04-0.116D-02-0.545D-02 0.123D-02 0.200D-01
 Coeff:      0.147D-01-0.407D-01-0.163D+00-0.142D+00 0.373D+00 0.942D+00
 Gap=     0.120 Goal=   None    Shift=    0.000
 RMSDP=1.09D-08 MaxDP=7.36D-07 DE=-6.18D-11 OVMax= 6.34D-06

 Cycle  19  Pass 1  IDiag  1:
 RMSU=  3.07D-09    CP:  9.64D-01  1.50D+00  6.90D-01  6.34D-01  9.08D-01
                    CP:  9.31D-01  1.16D+00  1.29D+00  1.70D+00  2.17D+00
                    CP:  2.04D+00  2.07D+00  1.48D+00  1.46D+00  1.74D+00
                    CP:  1.97D+00  1.87D+00  1.27D+00
 E= -4069.81258343679     Delta-E=       -0.000000000233 Rises=F Damp=F
 DIIS: error= 3.08D-08 at cycle  19 NSaved=  19.
 NSaved=19 IEnMin=19 EnMin= -4069.81258343679     IErMin=19 ErrMin= 3.08D-08
 ErrMax= 3.08D-08  0.00D+00 EMaxC= 1.00D-01 BMatC= 2.18D-12 BMatP= 6.70D-12
 IDIUse=1 WtCom= 1.00D+00 WtEn= 0.00D+00
 Coeff-Com:  0.322D-05-0.650D-05-0.108D-04-0.134D-04 0.147D-04 0.141D-03
 Coeff-Com:  0.562D-03 0.835D-03-0.750D-03-0.676D-02-0.491D-02 0.153D-01
 Coeff-Com:  0.236D-01 0.639D-02-0.933D-01-0.200D+00-0.241D-01 0.581D+00
 Coeff-Com:  0.702D+00
 Coeff:      0.322D-05-0.650D-05-0.108D-04-0.134D-04 0.147D-04 0.141D-03
 Coeff:      0.562D-03 0.835D-03-0.750D-03-0.676D-02-0.491D-02 0.153D-01
 Coeff:      0.236D-01 0.639D-02-0.933D-01-0.200D+00-0.241D-01 0.581D+00
 Coeff:      0.702D+00
 Gap=     0.120 Goal=   None    Shift=    0.000
 RMSDP=5.47D-09 MaxDP=3.18D-07 DE=-2.33D-10 OVMax= 3.78D-06

 SCF Done:  E(RCAM-B3LYP) =  -4069.81258344     A.U. after   19 cycles
            NFock= 19  Conv=0.55D-08     -V/T= 2.0102
 KE= 4.028801147445D+03 PE=-4.044055679051D+04 EE= 1.686219821357D+04
 Leave Link  502 at Thu Sep  9 12:44:32 2021, MaxMem= 23488102400 cpu:           15393.0 elap:             667.0
 (Enter /sw/apps/gaussian-16.0/g16/l801.exe)
 DoSCS=F DFT=T ScalE2(SS,OS)=  1.000000  1.000000
 ExpMin= 3.36D-02 ExpMax= 4.95D+03 ExpMxC= 7.45D+02 IAcc=3 IRadAn=         5 AccDes= 0.00D+00
 HarFok:  IExCor=  205 AccDes= 0.00D+00 IRadAn=         5 IDoV=-2 UseB2=F ITyADJ=14
 ICtDFT= 12500011 ScaDFX=  1.000000  1.000000  1.000000  1.000000
 GSVD:  LWork=       -9588 too small for GESVD, short by       45590 words or       45590 for optimal perf.
 Largest valence mixing into a core orbital is  2.03D-04
 Largest core mixing into a valence orbital is  5.22D-05
 Range of M.O.s used for correlation:    95  1572
 NBasis=  1572 NAE=   312 NBE=   312 NFC=    94 NFV=     0
 NROrb=   1478 NOA=   218 NOB=   218 NVA=  1260 NVB=  1260
 Leave Link  801 at Thu Sep  9 12:44:33 2021, MaxMem= 23488102400 cpu:               9.2 elap:               0.4
 (Enter /sw/apps/gaussian-16.0/g16/l914.exe)
 RHF ground state
 Two-electron integrals replicated using symmetry.
 MDV= 23488102400 DFT=T DoStab=F Mixed=T DoRPA=T DoScal=F NonHer=T
 Making orbital integer symmetry assigments:
 Orbital symmetries:
       Occupied  (A) (A) (A) (A) (A) (A) (A) (A) (A) (A) (A) (A)
                 (A) (A) (A) (A) (A) (A) (A) (A) (A) (A) (A) (A)
                 (A) (A) (A) (A) (A) (A) (A) (A) (A) (A) (A) (A)
                 (A) (A) (A) (A) (A) (A) (A) (A) (A) (A) (A) (A)
                 (A) (A) (A) (A) (A) (A) (A) (A) (A) (A) (A) (A)
                 (A) (A) (A) (A) (A) (A) (A) (A) (A) (A) (A) (A)
                 (A) (A) (A) (A) (A) (A) (A) (A) (A) (A) (A) (A)
                 (A) (A) (A) (A) (A) (A) (A) (A) (A) (A) (A) (A)
                 (A) (A) (A) (A) (A) (A) (A) (A) (A) (A) (A) (A)
                 (A) (A) (A) (A) (A) (A) (A) (A) (A) (A) (A) (A)
                 (A) (A) (A) (A) (A) (A) (A) (A) (A) (A) (A) (A)
                 (A) (A) (A) (A) (A) (A) (A) (A) (A) (A) (A) (A)
                 (A) (A) (A) (A) (A) (A) (A) (A) (A) (A) (A) (A)
                 (A) (A) (A) (A) (A) (A) (A) (A) (A) (A) (A) (A)
                 (A) (A) (A) (A) (A) (A) (A) (A) (A) (A) (A) (A)
                 (A) (A) (A) (A) (A) (A) (A) (A) (A) (A) (A) (A)
                 (A) (A) (A) (A) (A) (A) (A) (A) (A) (A) (A) (A)
                 (A) (A) (A) (A) (A) (A) (A) (A) (A) (A) (A) (A)
                 (A) (A) (A) (A) (A) (A) (A) (A) (A) (A) (A) (A)
                 (A) (A) (A) (A) (A) (A) (A) (A) (A) (A) (A) (A)
                 (A) (A) (A) (A) (A) (A) (A) (A) (A) (A) (A) (A)
                 (A) (A) (A) (A) (A) (A) (A) (A) (A) (A) (A) (A)
                 (A) (A) (A) (A) (A) (A) (A) (A) (A) (A) (A) (A)
                 (A) (A) (A) (A) (A) (A) (A) (A) (A) (A) (A) (A)
                 (A) (A) (A) (A) (A) (A) (A) (A) (A) (A) (A) (A)
                 (A) (A) (A) (A) (A) (A) (A) (A) (A) (A) (A) (A)
       Virtual   (A) (A) (A) (A) (A) (A) (A) (A) (A) (A) (A) (A)
                 (A) (A) (A) (A) (A) (A) (A) (A) (A) (A) (A) (A)
                 (A) (A) (A) (A) (A) (A) (A) (A) (A) (A) (A) (A)
                 (A) (A) (A) (A) (A) (A) (A) (A) (A) (A) (A) (A)
                 (A) (A) (A) (A) (A) (A) (A) (A) (A) (A) (A) (A)
                 (A) (A) (A) (A) (A) (A) (A) (A) (A) (A) (A) (A)
                 (A) (A) (A) (A) (A) (A) (A) (A) (A) (A) (A) (A)
                 (A) (A) (A) (A) (A) (A) (A) (A) (A) (A) (A) (A)
                 (A) (A) (A) (A) (A) (A) (A) (A) (A) (A) (A) (A)
                 (A) (A) (A) (A) (A) (A) (A) (A) (A) (A) (A) (A)
                 (A) (A) (A) (A) (A) (A) (A) (A) (A) (A) (A) (A)
                 (A) (A) (A) (A) (A) (A) (A) (A) (A) (A) (A) (A)
                 (A) (A) (A) (A) (A) (A) (A) (A) (A) (A) (A) (A)
                 (A) (A) (A) (A) (A) (A) (A) (A) (A) (A) (A) (A)
                 (A) (A) (A) (A) (A) (A) (A) (A) (A) (A) (A) (A)
                 (A) (A) (A) (A) (A) (A) (A) (A) (A) (A) (A) (A)
                 (A) (A) (A) (A) (A) (A) (A) (A) (A) (A) (A) (A)
                 (A) (A) (A) (A) (A) (A) (A) (A) (A) (A) (A) (A)
                 (A) (A) (A) (A) (A) (A) (A) (A) (A) (A) (A) (A)
                 (A) (A) (A) (A) (A) (A) (A) (A) (A) (A) (A) (A)
                 (A) (A) (A) (A) (A) (A) (A) (A) (A) (A) (A) (A)
                 (A) (A) (A) (A) (A) (A) (A) (A) (A) (A) (A) (A)
                 (A) (A) (A) (A) (A) (A) (A) (A) (A) (A) (A) (A)
                 (A) (A) (A) (A) (A) (A) (A) (A) (A) (A) (A) (A)
                 (A) (A) (A) (A) (A) (A) (A) (A) (A) (A) (A) (A)
                 (A) (A) (A) (A) (A) (A) (A) (A) (A) (A) (A) (A)
                 (A) (A) (A) (A) (A) (A) (A) (A) (A) (A) (A) (A)
                 (A) (A) (A) (A) (A) (A) (A) (A) (A) (A) (A) (A)
                 (A) (A) (A) (A) (A) (A) (A) (A) (A) (A) (A) (A)
                 (A) (A) (A) (A) (A) (A) (A) (A) (A) (A) (A) (A)
                 (A) (A) (A) (A) (A) (A) (A) (A) (A) (A) (A) (A)
                 (A) (A) (A) (A) (A) (A) (A) (A) (A) (A) (A) (A)
                 (A) (A) (A) (A) (A) (A) (A) (A) (A) (A) (A) (A)
                 (A) (A) (A) (A) (A) (A) (A) (A) (A) (A) (A) (A)
                 (A) (A) (A) (A) (A) (A) (A) (A) (A) (A) (A) (A)
                 (A) (A) (A) (A) (A) (A) (A) (A) (A) (A) (A) (A)
                 (A) (A) (A) (A) (A) (A) (A) (A) (A) (A) (A) (A)
                 (A) (A) (A) (A) (A) (A) (A) (A) (A) (A) (A) (A)
                 (A) (A) (A) (A) (A) (A) (A) (A) (A) (A) (A) (A)
                 (A) (A) (A) (A) (A) (A) (A) (A) (A) (A) (A) (A)
                 (A) (A) (A) (A) (A) (A) (A) (A) (A) (A) (A) (A)
                 (A) (A) (A) (A) (A) (A) (A) (A) (A) (A) (A) (A)
                 (A) (A) (A) (A) (A) (A) (A) (A) (A) (A) (A) (A)
                 (A) (A) (A) (A) (A) (A) (A) (A) (A) (A) (A) (A)
                 (A) (A) (A) (A) (A) (A) (A) (A) (A) (A) (A) (A)
                 (A) (A) (A) (A) (A) (A) (A) (A) (A) (A) (A) (A)
                 (A) (A) (A) (A) (A) (A) (A) (A) (A) (A) (A) (A)
                 (A) (A) (A) (A) (A) (A) (A) (A) (A) (A) (A) (A)
                 (A) (A) (A) (A) (A) (A) (A) (A) (A) (A) (A) (A)
                 (A) (A) (A) (A) (A) (A) (A) (A) (A) (A) (A) (A)
                 (A) (A) (A) (A) (A) (A) (A) (A) (A) (A) (A) (A)
                 (A) (A) (A) (A) (A) (A) (A) (A) (A) (A) (A) (A)
                 (A) (A) (A) (A) (A) (A) (A) (A) (A) (A) (A) (A)
                 (A) (A) (A) (A) (A) (A) (A) (A) (A) (A) (A) (A)
                 (A) (A) (A) (A) (A) (A) (A) (A) (A) (A) (A) (A)
                 (A) (A) (A) (A) (A) (A) (A) (A) (A) (A) (A) (A)
                 (A) (A) (A) (A) (A) (A) (A) (A) (A) (A) (A) (A)
                 (A) (A) (A) (A) (A) (A) (A) (A) (A) (A) (A) (A)
                 (A) (A) (A) (A) (A) (A) (A) (A) (A) (A) (A) (A)
                 (A) (A) (A) (A) (A) (A) (A) (A) (A) (A) (A) (A)
                 (A) (A) (A) (A) (A) (A) (A) (A) (A) (A) (A) (A)
                 (A) (A) (A) (A) (A) (A) (A) (A) (A) (A) (A) (A)
                 (A) (A) (A) (A) (A) (A) (A) (A) (A) (A) (A) (A)
                 (A) (A) (A) (A) (A) (A) (A) (A) (A) (A) (A) (A)
                 (A) (A) (A) (A) (A) (A) (A) (A) (A) (A) (A) (A)
                 (A) (A) (A) (A) (A) (A) (A) (A) (A) (A) (A) (A)
                 (A) (A) (A) (A) (A) (A) (A) (A) (A) (A) (A) (A)
                 (A) (A) (A) (A) (A) (A) (A) (A) (A) (A) (A) (A)
                 (A) (A) (A) (A) (A) (A) (A) (A) (A) (A) (A) (A)
                 (A) (A) (A) (A) (A) (A) (A) (A) (A) (A) (A) (A)
                 (A) (A) (A) (A) (A) (A) (A) (A) (A) (A) (A) (A)
                 (A) (A) (A) (A) (A) (A) (A) (A) (A) (A) (A) (A)
                 (A) (A) (A) (A) (A) (A) (A) (A) (A) (A) (A) (A)
                 (A) (A) (A) (A) (A) (A) (A) (A) (A) (A) (A) (A)
                 (A) (A) (A) (A) (A) (A) (A) (A) (A) (A) (A) (A)
                 (A) (A) (A) (A) (A) (A) (A) (A) (A) (A) (A) (A)
                 (A) (A) (A) (A) (A) (A) (A) (A) (A) (A) (A) (A)
                 (A) (A) (A) (A) (A) (A) (A) (A) (A) (A) (A) (A)
                 (A) (A) (A) (A) (A) (A) (A) (A) (A) (A) (A) (A)
                 (A) (A) (A) (A) (A) (A) (A) (A) (A) (A) (A) (A)
                 (A) (A) (A) (A) (A) (A) (A) (A) (A) (A) (A) (A)
                 (A) (A) (A) (A) (A) (A) (A) (A) (A) (A) (A) (A)
                 (A) (A) (A) (A) (A) (A) (A) (A) (A) (A) (A) (A)
                 (A) (A) (A) (A) (A) (A) (A) (A) (A) (A) (A) (A)
                 (A) (A) (A) (A) (A) (A) (A) (A) (A) (A) (A) (A)
                 (A) (A) (A) (A) (A) (A) (A) (A) (A) (A) (A) (A)
                 (A) (A) (A) (A) (A) (A) (A) (A) (A) (A) (A) (A)
                 (A) (A) (A) (A) (A) (A) (A) (A) (A) (A) (A) (A)
                 (A) (A) (A) (A) (A) (A) (A) (A) (A) (A) (A) (A)
                 (A) (A) (A) (A) (A) (A) (A) (A) (A) (A) (A) (A)
                 (A) (A) (A) (A) (A) (A) (A) (A) (A) (A) (A) (A)
                 (A) (A) (A) (A) (A) (A) (A) (A) (A) (A) (A) (A)
                 (A) (A) (A) (A) (A) (A) (A) (A) (A) (A) (A) (A)
                 (A) (A) (A) (A) (A) (A) (A) (A) (A) (A) (A) (A)
                 (A) (A) (A) (A) (A) (A) (A) (A) (A) (A) (A) (A)
                 (A) (A) (A) (A) (A) (A) (A) (A) (A) (A) (A) (A)
                 (A) (A) (A) (A) (A) (A) (A) (A) (A) (A) (A) (A)
                 (A) (A) (A) (A) (A) (A) (A) (A) (A) (A) (A) (A)
                 (A) (A) (A) (A) (A) (A) (A) (A) (A) (A) (A) (A)
                 (A) (A) (A) (A) (A) (A) (A) (A) (A) (A) (A) (A)
                 (A) (A) (A) (A) (A) (A) (A) (A) (A) (A) (A) (A)
                 (A) (A) (A) (A) (A) (A) (A) (A) (A) (A) (A) (A)
                 (A) (A) (A) (A) (A) (A) (A) (A) (A) (A) (A) (A)
                 (A) (A) (A) (A) (A) (A) (A) (A) (A) (A) (A) (A)
                 (A) (A) (A) (A) (A) (A) (A) (A) (A) (A) (A) (A)
    20 initial guesses have been made.
 Convergence on wavefunction:    0.001000000000000
 Davidson Disk Diagonalization:  ConvIn= 1.00D-03 SkipCon=T Conv= 1.00D-03.
 Max sub-space:  2000 roots to seek:    20 dimension of matrix:       549360
 Iteration     1 Dimension    20 NMult     0 NNew     20
 CISAX will form    20 AO SS matrices at one time.
 NMat=    20 NSing=    20 JSym2X= 0.
 FoFJK:  IHMeth= 1 ICntrl=       0 DoSepK=T KAlg= 0 I1Cent=           0 FoldK=F
 IRaf=         1 NMat=      40 IRICut=       1 DoRegI=T DoRafI=F ISym2E= 0 IDoP0=3 IntGTp=3.
 FoFCou: FMM=T IPFlag=           0 FMFlag=      100000 FMFlg1=        2001
         NFxFlg=           0 DoJE=F BraDBF=F KetDBF=F FulRan=T
         wScrn=  0.000000 ICntrl=       500 IOpCl=  0 I1Cent=           0 NGrid=           0
         NMat0=   20 NMatS0=     20 NMatT0=    0 NMatD0=   20 NMtDS0=    0 NMtDT0=    0
 Symmetry not used in FoFCou.
 FMM levels:  10  Number of levels for PrismC:   9
 New state      2 was old state      4
 New state      3 was old state      7
 New state      4 was old state      6
 New state      5 was old state      2
 Excitation Energies [eV] at current iteration:
 Root      1 :     2.337549044254382
 Root      2 :     2.540736517954890
 Root      3 :     2.605666746760233
 Root      4 :     2.619414113208808
 Root      5 :     2.666678564550745
 Root      6 :     2.709095757320434
 Root      7 :     3.121773979718731
 Root      8 :     3.335461454409900
 Root      9 :     3.634553623756076
 Root     10 :     3.676205786307708
 Root     11 :     3.732182170093154
 Root     12 :     3.758997896918121
 Root     13 :     4.241884036259762
 Root     14 :     4.289369213303105
 Root     15 :     4.318837799949397
 Root     16 :     4.468040594668406
 Root     17 :     4.574371393616560
 Root     18 :     4.608942167946728
 Root     19 :     4.725925406371499
 Root     20 :     4.855859977252813
 Iteration     2 Dimension    30 NMult    20 NNew     10
 CISAX will form    10 AO SS matrices at one time.
 NMat=    10 NSing=    10 JSym2X= 0.
 New state      1 was old state      5
 Root      1 not converged, maximum delta is    0.232912456110690
 New state      2 was old state      4
 Root      2 not converged, maximum delta is    0.123865607075988
 Root      3 not converged, maximum delta is    0.194393531666660
 New state      4 was old state      1
 Root      4 not converged, maximum delta is    0.003701458203753
 New state      5 was old state      2
 Root      5 not converged, maximum delta is    0.006227074564678
 Excitation Energies [eV] at current iteration:
 Root      1 :     1.788596385741009   Change is   -0.878082178809736
 Root      2 :     2.190145527331031   Change is   -0.429268585877777
 Root      3 :     2.239522069100767   Change is   -0.366144677659466
 Root      4 :     2.336719243739164   Change is   -0.000829800515219
 Root      5 :     2.539723556333774   Change is   -0.001012961621116
 Iteration     3 Dimension    40 NMult    30 NNew     10
 CISAX will form    10 AO SS matrices at one time.
 NMat=    10 NSing=    10 JSym2X= 0.
 Root      1 not converged, maximum delta is    0.054647740348940
 Root      2 not converged, maximum delta is    0.287018410263645
 Root      3 not converged, maximum delta is    0.041923438898709
 No map to state      4
 New state      5 was old state      4
 Root      5 has converged.
 Excitation Energies [eV] at current iteration:
 Root      1 :     1.682887531114128   Change is   -0.105708854626881
 Root      2 :     1.935436218727812   Change is   -0.254709308603220
 Root      3 :     2.200350096863847   Change is   -0.039171972236921
 Root      4 :     2.311065036709996
 Root      5 :     2.336713345457701   Change is   -0.000005898281462
 Iteration     4 Dimension    48 NMult    40 NNew      8
 CISAX will form     8 AO SS matrices at one time.
 NMat=     8 NSing=     8 JSym2X= 0.
 Root      1 not converged, maximum delta is    0.010130333180714
 Root      2 not converged, maximum delta is    0.234124595694580
 Root      3 not converged, maximum delta is    0.330063478990332
 Root      4 not converged, maximum delta is    0.311648290501407
 Root      5 has converged.
 Excitation Energies [eV] at current iteration:
 Root      1 :     1.666167798737683   Change is   -0.016719732376445
 Root      2 :     1.718015488319235   Change is   -0.217420730408577
 Root      3 :     2.193079130693974   Change is   -0.007270966169873
 Root      4 :     2.193900154381378   Change is   -0.117164882328618
 Root      5 :     2.336713337641577   Change is   -0.000000007816125
 Iteration     5 Dimension    56 NMult    48 NNew      8
 CISAX will form     8 AO SS matrices at one time.
 NMat=     8 NSing=     8 JSym2X= 0.
 Root      1 not converged, maximum delta is    0.001717828283142
 Root      2 not converged, maximum delta is    0.019936010056653
 New state      3 was old state      4
 Root      3 not converged, maximum delta is    0.351194000682832
 New state      4 was old state      3
 Root      4 not converged, maximum delta is    0.349000819418907
 Root      5 has converged.
 Excitation Energies [eV] at current iteration:
 Root      1 :     1.664417566702928   Change is   -0.001750232034755
 Root      2 :     1.689139744736522   Change is   -0.028875743582713
 Root      3 :     2.186734406601182   Change is   -0.007165747780196
 Root      4 :     2.192482031650409   Change is   -0.000597099043565
 Root      5 :     2.336713336515579   Change is   -0.000000001125998
 Iteration     6 Dimension    64 NMult    56 NNew      8
 CISAX will form     8 AO SS matrices at one time.
 NMat=     8 NSing=     8 JSym2X= 0.
 Root      1 not converged, maximum delta is    0.001060439135713
 Root      2 not converged, maximum delta is    0.004894317875080
 Root      3 not converged, maximum delta is    0.003392595577605
 Root      4 not converged, maximum delta is    0.003563095932829
 Root      5 has converged.
 Excitation Energies [eV] at current iteration:
 Root      1 :     1.664168177850825   Change is   -0.000249388852103
 Root      2 :     1.684767589339342   Change is   -0.004372155397180
 Root      3 :     2.185772023178660   Change is   -0.000962383422521
 Root      4 :     2.192357665333198   Change is   -0.000124366317211
 Root      5 :     2.336713335776183   Change is   -0.000000000739395
 Iteration     7 Dimension    72 NMult    64 NNew      8
 CISAX will form     8 AO SS matrices at one time.
 NMat=     8 NSing=     8 JSym2X= 0.
 Root      1 has converged.
 Root      2 not converged, maximum delta is    0.001593219133474
 Root      3 has converged.
 Root      4 has converged.
 Root      5 has converged.
 Excitation Energies [eV] at current iteration:
 Root      1 :     1.664143752123981   Change is   -0.000024425726844
[...]
 Alpha virt. eigenvalues --    1.84455   1.84664   1.84724   1.85006   1.85037
 Alpha virt. eigenvalues --    1.85192   1.85263   1.85402   1.85500   1.85658
 Alpha virt. eigenvalues --    1.85788   1.86092   1.86293   1.86483   1.86546
 Alpha virt. eigenvalues --    1.86704   1.86819   1.86941   1.86949   1.87177
 Alpha virt. eigenvalues --    1.87371   1.87574   1.87673   1.87797   1.87914
 Alpha virt. eigenvalues --    1.87970   1.88143   1.88364   1.88462   1.88742
 Alpha virt. eigenvalues --    1.88786   1.89079   1.89117   1.89270   1.89551
 Alpha virt. eigenvalues --    1.89660   1.89845   1.90026   1.90043   1.90386
 Alpha virt. eigenvalues --    1.90655   1.91061   1.91258   1.91379   1.91508
 Alpha virt. eigenvalues --    1.91852   1.92071   1.92395   1.92550   1.92843
 Alpha virt. eigenvalues --    1.92904   1.93279   1.93323   1.93626   1.94228
 Alpha virt. eigenvalues --    1.94427   1.94621   1.94947   1.95438   1.95631
 Alpha virt. eigenvalues --    1.95675   1.95895   1.95986   1.96105   1.96213
 Alpha virt. eigenvalues --    1.96351   1.96517   1.96648   1.96832   1.97141
 Alpha virt. eigenvalues --    1.97374   1.97664   1.97768   1.97960   1.98077
 Alpha virt. eigenvalues --    1.98361   1.98506   1.98538   1.99047   1.99243
 Alpha virt. eigenvalues --    1.99722   2.00179   2.00583   2.00873   2.00916
 Alpha virt. eigenvalues --    2.01270   2.01371   2.01594   2.01611   2.01622
 Alpha virt. eigenvalues --    2.01794   2.02016   2.02704   2.02869   2.03184
 Alpha virt. eigenvalues --    2.03242   2.03289   2.03370   2.03564   2.03695
 Alpha virt. eigenvalues --    2.03948   2.04191   2.04880   2.05142   2.05433
 Alpha virt. eigenvalues --    2.05784   2.05984   2.06436   2.06763   2.07080
 Alpha virt. eigenvalues --    2.07199   2.07512   2.08512   2.08669   2.08887
 Alpha virt. eigenvalues --    2.09203   2.09486   2.09796   2.10742   2.11082
 Alpha virt. eigenvalues --    2.11130   2.11454   2.11581   2.11640   2.11718
 Alpha virt. eigenvalues --    2.12101   2.12377   2.12656   2.12724   2.12750
 Alpha virt. eigenvalues --    2.12989   2.13064   2.13683   2.13902   2.14085
 Alpha virt. eigenvalues --    2.14333   2.15247   2.15559   2.15824   2.16281
 Alpha virt. eigenvalues --    2.16448   2.16633   2.16783   2.17333   2.17349
 Alpha virt. eigenvalues --    2.17629   2.17743   2.17991   2.18098   2.18176
 Alpha virt. eigenvalues --    2.18222   2.18759   2.18846   2.19432   2.19542
 Alpha virt. eigenvalues --    2.19947   2.20044   2.20094   2.20411   2.20656
 Alpha virt. eigenvalues --    2.21112   2.21260   2.21570   2.21610   2.21943
 Alpha virt. eigenvalues --    2.22024   2.22604   2.22916   2.23234   2.23474
 Alpha virt. eigenvalues --    2.24308   2.24542   2.24925   2.25131   2.26179
 Alpha virt. eigenvalues --    2.26623   2.26702   2.26984   2.27166   2.27383
 Alpha virt. eigenvalues --    2.28055   2.28558   2.29190   2.29630   2.29641
 Alpha virt. eigenvalues --    2.30079   2.30362   2.30810   2.30971   2.31002
 Alpha virt. eigenvalues --    2.31060   2.31351   2.32054   2.32374   2.33030
 Alpha virt. eigenvalues --    2.33371   2.33443   2.33608   2.34090   2.34274
 Alpha virt. eigenvalues --    2.35232   2.35439   2.35705   2.36147   2.36309
 Alpha virt. eigenvalues --    2.36516   2.36523   2.36559   2.37594   2.37797
 Alpha virt. eigenvalues --    2.38182   2.38523   2.38764   2.39021   2.39515
 Alpha virt. eigenvalues --    2.39838   2.40128   2.40361   2.40390   2.41041
 Alpha virt. eigenvalues --    2.41186   2.41411   2.41634   2.41824   2.41902
 Alpha virt. eigenvalues --    2.42288   2.42900   2.42915   2.43168   2.43332
 Alpha virt. eigenvalues --    2.44058   2.44148   2.44634   2.44815   2.44978
 Alpha virt. eigenvalues --    2.45174   2.45447   2.45745   2.46200   2.46365
 Alpha virt. eigenvalues --    2.46464   2.46663   2.46681   2.46973   2.47154
 Alpha virt. eigenvalues --    2.47494   2.47630   2.48017   2.49246   2.49505
 Alpha virt. eigenvalues --    2.50001   2.50019   2.50498   2.50628   2.51012
 Alpha virt. eigenvalues --    2.51442   2.51786   2.51791   2.52342   2.52568
 Alpha virt. eigenvalues --    2.52719   2.53387   2.53840   2.54065   2.54125
 Alpha virt. eigenvalues --    2.54385   2.54696   2.54925   2.55424   2.55804
 Alpha virt. eigenvalues --    2.57774   2.58240   2.58575   2.59070   2.60077
 Alpha virt. eigenvalues --    2.60477   2.60532   2.61141   2.61630   2.61983
 Alpha virt. eigenvalues --    2.62447   2.62600   2.62857   2.63275   2.63847
 Alpha virt. eigenvalues --    2.64209   2.64431   2.64488   2.65000   2.65242
 Alpha virt. eigenvalues --    2.65697   2.66055   2.66717   2.66837   2.66948
 Alpha virt. eigenvalues --    2.67266   2.67830   2.68141   2.68759   2.68906
 Alpha virt. eigenvalues --    2.68961   2.69189   2.69331   2.69766   2.69918
 Alpha virt. eigenvalues --    2.70279   2.70884   2.71240   2.71921   2.72024
 Alpha virt. eigenvalues --    2.72513   2.72614   2.72660   2.72911   2.73226
 Alpha virt. eigenvalues --    2.73317   2.73385   2.73575   2.74399   2.74644
 Alpha virt. eigenvalues --    2.74862   2.75210   2.76513   2.76647   2.77100
 Alpha virt. eigenvalues --    2.77208   2.77363   2.77765   2.78102   2.78422
 Alpha virt. eigenvalues --    2.78606   2.78807   2.79038   2.79315   2.80222
 Alpha virt. eigenvalues --    2.80412   2.80447   2.80837   2.80966   2.81290
 Alpha virt. eigenvalues --    2.81819   2.82139   2.82254   2.82467   2.83601
 Alpha virt. eigenvalues --    2.83671   2.83993   2.84026   2.84440   2.84650
 Alpha virt. eigenvalues --    2.84808   2.84971   2.85582   2.85807   2.86751
 Alpha virt. eigenvalues --    2.86877   2.87282   2.87441   2.88058   2.88369
 Alpha virt. eigenvalues --    2.88408   2.88749   2.88833   2.88995   2.90420
 Alpha virt. eigenvalues --    2.90807   2.91131   2.91184   2.93056   2.93496
 Alpha virt. eigenvalues --    2.93920   2.94123   2.94493   2.94665   2.95286
 Alpha virt. eigenvalues --    2.95675   2.95942   2.96020   2.96364   2.96484
 Alpha virt. eigenvalues --    2.96964   2.97030   2.97695   2.98107   2.98157
 Alpha virt. eigenvalues --    2.98254   2.98468   2.98529   2.98748   2.98791
 Alpha virt. eigenvalues --    2.98955   2.99066   2.99530   2.99875   2.99903
 Alpha virt. eigenvalues --    3.00091   3.00174   3.00354   3.00503   3.01181
 Alpha virt. eigenvalues --    3.01928   3.01939   3.02033   3.02300   3.02556
 Alpha virt. eigenvalues --    3.02884   3.02937   3.03250   3.03511   3.03912
 Alpha virt. eigenvalues --    3.04127   3.04227   3.04314   3.04480   3.04594
 Alpha virt. eigenvalues --    3.04864   3.05251   3.05478   3.06043   3.06251
 Alpha virt. eigenvalues --    3.06725   3.07118   3.08058   3.08083   3.09321
 Alpha virt. eigenvalues --    3.09420   3.09625   3.10366   3.10634   3.10941
 Alpha virt. eigenvalues --    3.11294   3.11500   3.11837   3.11933   3.12166
 Alpha virt. eigenvalues --    3.12485   3.13188   3.13575   3.13784   3.13829
 Alpha virt. eigenvalues --    3.13904   3.14572   3.15896   3.16033   3.17139
 Alpha virt. eigenvalues --    3.17651   3.17972   3.18002   3.19036   3.19156
 Alpha virt. eigenvalues --    3.22091   3.22699   3.23828   3.24504   3.24575
 Alpha virt. eigenvalues --    3.25310   3.26393   3.26801   3.27511   3.27537
 Alpha virt. eigenvalues --    3.28872   3.29314   3.31409   3.31519   3.33320
 Alpha virt. eigenvalues --    3.33331   3.40335   3.40388   3.42726   3.42940
 Alpha virt. eigenvalues --    3.48517   3.48824   3.49928   3.50439   3.50993
 Alpha virt. eigenvalues --    3.51379   3.56452   3.57134   3.59018   3.59457
 Alpha virt. eigenvalues --    3.62642   3.62710   3.66100   3.66204   3.66958
 Alpha virt. eigenvalues --    3.67626   3.73048   3.74113   3.75848   3.76776
          Condensed to atoms (all electrons):
 Mulliken charges:
               1
     1  Mg   0.839041
     2  C   -0.003472
     3  C   -0.093837
     4  C   -0.045529
     5  C   -0.064132
     6  N   -0.256950
     7  C   -0.052291
     8  C   -0.014195
     9  C   -0.087137
    10  C    0.046689
    11  C    0.104719
    12  C    0.053374
    13  C   -0.071839
    14  H    0.035664
    15  N   -0.433267
    16  C    0.168834
    17  C   -0.176969
    18  C   -0.003767
    19  C    0.149123
    20  C    0.110124
    21  C    0.012319
    22  O   -0.248857
    23  C    0.062538
    24  N   -0.341260
    25  C    0.041591
    26  C   -0.028448
    27  C   -0.024056
    28  C    0.074999
    29  C    0.076017
    30  C    0.034982
    31  C   -0.004732
    32  N   -0.310091
    33  C    0.079844
    34  C   -0.171105
    35  C    0.007634
    36  C    0.082230
    37  C    0.127710
    38  C    0.044656
    39  O   -0.189773
    40  C   -0.004876
    41  C    0.213026
    42  O   -0.259576
    43  O   -0.304032
    44  C    0.158356
    45  H   -0.017212
    46  H   -0.016188
    47  H   -0.041557
    48  H    0.000756
    49  H   -0.003500
    50  H    0.025437
    51  H    0.016587
    52  H    0.017047
    53  H    0.012343
    54  H    0.043009
    55  H    0.017793
    56  H    0.019023
    57  H    0.006347
    58  H    0.027229
    59  H    0.039596
    60  H    0.037733
    61  H    0.035875
    62  H    0.030752
    63  H    0.017508
    64  H    0.009592
    65  H    0.023983
    66  H    0.012351
    67  H    0.004995
    68  H    0.007930
    69  H    0.004171
    70  H    0.010661
    71  H    0.018418
    72  H    0.027590
    73  H    0.045572
    74  H    0.009210
    75  H    0.046476
    76  H    0.035574
    77  H    0.043094
    78  H    0.047321
    79  H    0.051184
    80  Mg   0.837499
    81  C   -0.016744
    82  C   -0.086011
    83  C   -0.045999
    84  C   -0.064948
    85  N   -0.254698
    86  C   -0.049779
    87  C   -0.015116
    88  C   -0.090161
    89  C    0.044406
    90  C    0.113196
    91  C    0.062480
    92  C   -0.077556
    93  H    0.033618
    94  N   -0.423854
    95  C    0.162143
    96  C   -0.171663
    97  C   -0.008685
    98  C    0.153044
    99  C    0.098871
   100  C    0.015344
   101  O   -0.254584
   102  C    0.061303
   103  N   -0.350067
   104  C    0.037508
   105  C   -0.019570
   106  C   -0.034669
   107  C    0.088566
   108  C    0.074465
   109  C    0.034973
   110  C   -0.007521
   111  N   -0.323972
   112  C    0.077892
   113  C   -0.163339
   114  C    0.001981
   115  C    0.095941
   116  C    0.131584
   117  C    0.041891
   118  O   -0.189106
   119  C    0.001116
   120  C    0.211336
   121  O   -0.251097
   122  O   -0.305875
   123  C    0.152162
   124  H   -0.013284
   125  H   -0.016887
   126  H   -0.041059
   127  H   -0.001595
   128  H   -0.003635
   129  H    0.019630
   130  H    0.019238
   131  H    0.020954
   132  H    0.013894
   133  H    0.036909
   134  H    0.020788
   135  H    0.020259
   136  H    0.011698
   137  H    0.028070
   138  H    0.038513
   139  H    0.038563
   140  H    0.035175
   141  H    0.033968
   142  H    0.013917
   143  H    0.011494
   144  H    0.023688
   145  H    0.011565
   146  H    0.003322
   147  H    0.005007
   148  H    0.003590
   149  H    0.010488
   150  H    0.017572
   151  H    0.030786
   152  H    0.045244
   153  H    0.008021
   154  H    0.047451
   155  H    0.034022
   156  H    0.043154
   157  H    0.049815
   158  H    0.053383
 Sum of Mulliken charges =  -0.00000
 Mulliken charges with hydrogens summed into heavy atoms:
               1
     1  Mg   0.839041
     2  C   -0.003472
     3  C   -0.111049
     4  C   -0.061717
     5  C   -0.105689
     6  N   -0.256950
     7  C   -0.052291
     8  C   -0.013440
     9  C   -0.090637
    10  C    0.046689
    11  C    0.163790
    12  C    0.108726
    13  C    0.000641
    15  N   -0.433267
    16  C    0.168834
    17  C   -0.176969
    18  C   -0.003767
    19  C    0.149123
    20  C    0.183296
    21  C    0.012319
    22  O   -0.248857
    23  C    0.166897
    24  N   -0.341260
    25  C    0.041591
    26  C   -0.010940
    27  C   -0.014464
    28  C    0.074999
    29  C    0.117346
    30  C    0.047083
    31  C    0.051937
    32  N   -0.310091
    33  C    0.079844
    34  C   -0.171105
    35  C    0.007634
    36  C    0.082230
    37  C    0.228969
    38  C    0.044656
    39  O   -0.189773
    40  C    0.030697
    41  C    0.213026
    42  O   -0.259576
    43  O   -0.304032
    44  C    0.299955
    80  Mg   0.837499
    81  C   -0.016744
    82  C   -0.099295
    83  C   -0.062886
    84  C   -0.106007
    85  N   -0.254698
    86  C   -0.049779
    87  C   -0.016711
    88  C   -0.093795
    89  C    0.044406
    90  C    0.173018
    91  C    0.113282
    92  C   -0.002890
    94  N   -0.423854
    95  C    0.162143
    96  C   -0.171663
    97  C   -0.008685
    98  C    0.153044
    99  C    0.177152
   100  C    0.015344
   101  O   -0.254584
   102  C    0.169009
   103  N   -0.350067
   104  C    0.037508
   105  C   -0.005652
   106  C   -0.023175
   107  C    0.088566
   108  C    0.113039
   109  C    0.043570
   110  C    0.051324
   111  N   -0.323972
   112  C    0.077892
   113  C   -0.163339
   114  C    0.001981
   115  C    0.095941
   116  C    0.232300
   117  C    0.041891
   118  O   -0.189106
   119  C    0.035138
   120  C    0.211336
   121  O   -0.251097
   122  O   -0.305875
   123  C    0.298514
 Electronic spatial extent (au):  <R**2>=          98202.1351
 Charge=             -0.0000 electrons
 Dipole moment (field-independent basis, Debye):
    X=              5.4079    Y=              2.9360    Z=              1.4268  Tot=              6.3168
 Quadrupole moment (field-independent basis, Debye-Ang):
   XX=           -521.3835   YY=           -514.9429   ZZ=           -483.5620
   XY=            -10.4377   XZ=             32.8871   YZ=              8.3294
 Traceless Quadrupole moment (field-independent basis, Debye-Ang):
   XX=            -14.7540   YY=             -8.3134   ZZ=             23.0674
   XY=            -10.4377   XZ=             32.8871   YZ=              8.3294
 Octapole moment (field-independent basis, Debye-Ang**2):
  XXX=            445.7223  YYY=            214.0420  ZZZ=            179.2580  XYY=            175.1573
  XXY=            202.7440  XXZ=            116.8043  XZZ=           -207.9249  YZZ=           -115.2966
  YYZ=           -311.5014  XYZ=            135.9958
 Hexadecapole moment (field-independent basis, Debye-Ang**3):
 XXXX=         -69303.3080 YYYY=         -34346.0080 ZZZZ=         -29877.4269 XXXY=            -36.2938
 XXXZ=           1185.4528 YYYX=            217.0608 YYYZ=           -695.8718 ZZZX=           1436.6842
 ZZZY=            561.2919 XXYY=         -17372.9996 XXZZ=         -15315.2580 YYZZ=         -11354.6188
 XXYZ=            412.8146 YYXZ=             37.7792 ZZXY=            441.6966
 N-N= 1.547974484605D+04 E-N=-4.044055679052D+04  KE= 4.028801147445D+03
 Leave Link  601 at Thu Sep  9 13:12:31 2021, MaxMem= 23488102400 cpu:              18.8 elap:               0.9
 (Enter /sw/apps/gaussian-16.0/g16/l9999.exe)
 1\1\GINC-BP1-COMPUTE00065\SP\RCAM-B3LYP TD-FC\def2SVP\C68H72Mg2N8O8\OF
 15641\09-Sep-2021\0\\#p cam-b3lyp/Def2SVP td=(nstates=5)\\TDDFT excite
 d states in gaussian\\0,1\Mg,0,0.,0.,0.\C,0,-0.217,-2.218,2.801\C,0,-1
 .255,2.442,2.026\C,0,-0.245,1.85,-2.564\C,0,0.146,-2.824,-2.037\N,0,-0
 .617,-0.009,2.126\C,0,-0.594,-0.908,3.105\C,0,-0.936,-0.309,4.502\C,0,
 -1.773,0.964,4.032\C,0,-1.155,1.168,2.66\C,0,-3.263,0.685,3.863\C,0,0.
 345,0.11,5.299\C,0,0.124,0.397,6.787\H,0,1.168,0.033,7.733\N,0,-0.185,
 1.961,-0.152\C,0,-0.703,2.8,0.777\C,0,-0.62,4.156,0.193\C,0,-0.187,4.0
 15,-1.225\C,0,-0.214,2.583,-1.38\C,0,-0.887,5.406,0.974\C,0,0.181,5.01
 3,-2.277\O,0,0.303,4.69,-3.508\C,0,0.31,6.414,-1.837\N,0,-0.265,-0.413
 ,-2.029\C,0,-0.279,0.569,-2.937\C,0,-0.196,0.024,-4.332\C,0,0.124,-1.5
 33,-4.18\C,0,0.086,-1.632,-2.635\C,0,-1.451,0.205,-5.197\C,0,1.373,-2.
 07,-4.923\C,0,2.626,-1.49,-4.306\N,0,0.15,-2.144,0.303\C,0,0.173,-3.13
 6,-0.688\C,0,0.173,-4.438,0.004\C,0,0.133,-4.111,1.358\C,0,0.083,-2.69
 5,1.502\C,0,0.149,-5.715,-0.623\C,0,0.096,-4.629,2.716\O,0,0.208,-5.74
 7,3.221\C,0,-0.255,-3.428,3.701\C,0,0.717,-3.482,4.848\O,0,1.931,-3.25
 5,4.669\O,0,0.038,-3.556,6.003\C,0,0.943,-3.583,7.183\H,0,-1.859,3.22,
 2.497\H,0,-0.218,2.453,-3.474\H,0,0.276,-3.747,-2.605\H,0,-1.554,-0.94
 9,5.132\H,0,-1.585,1.831,4.665\H,0,-3.484,-0.377,3.969\H,0,-3.511,1.02
 7,2.858\H,0,-3.852,1.301,4.543\H,0,0.669,1.096,4.966\H,0,1.13,-0.639,5
 .189\H,0,-0.844,0.026,7.125\H,0,0.062,1.477,6.921\H,0,-1.344,5.186,1.9
 38\H,0,-1.651,5.963,0.432\H,0,0.007,6.02,1.084\H,0,-0.635,6.744,-1.405
 \H,0,0.665,6.97,-2.704\H,0,1.048,6.466,-1.036\H,0,0.608,0.501,-4.891\H
 ,0,-0.692,-2.156,-4.547\H,0,-1.267,0.74,-6.129\H,0,-2.204,0.714,-4.596
 \H,0,-1.967,-0.72,-5.453\H,0,1.356,-1.759,-5.967\H,0,1.452,-3.157,-4.9
 02\H,0,2.714,-0.522,-4.798\H,0,3.487,-2.121,-4.529\H,0,2.495,-1.303,-3
 .24\H,0,0.867,-6.333,-0.084\H,0,0.404,-5.642,-1.68\H,0,-0.891,-5.999,-
 0.463\H,0,-1.283,-3.581,4.028\H,0,0.698,-4.478,7.755\H,0,0.833,-2.619,
 7.68\H,0,2.,-3.754,6.976\Mg,0,8.94194,0.79752,0.68121\C,0,9.13827,-1.1
 5187,-2.32552\C,0,8.19386,-2.09367,2.32923\C,0,8.32017,2.54322,3.25674
 \C,0,8.57229,3.61581,-1.33531\N,0,8.72395,-1.28982,-0.0172\C,0,8.88236
 ,-1.92067,-1.17101\C,0,8.83923,-3.46897,-1.06873\C,0,7.983,-3.59686,0.
 28382\C,0,8.34496,-2.2609,0.92948\C,0,6.48228,-3.62137,0.04601\C,0,10.
 26777,-4.09726,-0.9058\C,0,10.33092,-5.61258,-1.10963\H,0,11.51906,-6.
 18116,-1.74011\N,0,8.82784,0.27248,2.59167\C,0,8.53519,-0.94967,3.0836
 1\C,0,8.55702,-0.80975,4.54789\C,0,8.72413,0.63149,4.87895\C,0,8.6071,
 1.22023,3.55994\C,0,8.50592,-1.98645,5.47858\C,0,8.93922,1.36048,6.170
 65\O,0,8.81922,2.63391,6.25322\C,0,9.2026,0.53099,7.35559\N,0,8.29787,
 2.75805,0.93388\C,0,8.15724,3.28666,2.16217\C,0,7.95308,4.78127,2.0927
 \C,0,8.22847,5.18215,0.56921\C,0,8.46742,3.77599,-0.02324\C,0,6.57094,
 5.28396,2.50909\C,0,9.29374,6.2831,0.31269\C,0,10.66527,5.77242,0.6914
 9\N,0,9.04901,1.22093,-1.43476\C,0,8.83636,2.46533,-2.06747\C,0,8.9035
 6,2.23011,-3.52438\C,0,9.12954,0.85019,-3.63953\C,0,9.17819,0.2633,-2.
 34621\C,0,8.71543,3.21419,-4.53547\C,0,9.32739,-0.24514,-4.56138\O,0,9
 .47074,-0.34012,-5.77964\C,0,9.21577,-1.61048,-3.7553\C,0,10.37825,-2.
 47946,-4.15033\O,0,11.54223,-2.14473,-3.86802\O,0,9.91357,-3.6594,-4.6
 \C,0,11.02966,-4.56004,-4.99372\H,0,7.73099,-2.89853,2.90093\H,0,8.207
 03,3.20976,4.11487\H,0,8.5647,4.45939,-2.02884\H,0,8.32393,-3.96384,-1
 .88319\H,0,8.3332,-4.42365,0.8963\H,0,6.23494,-3.42919,-0.98745\H,0,6.
 07081,-2.84964,0.68333\H,0,6.05933,-4.56462,0.4034\H,0,10.5674,-4.0368
 3,0.14839\H,0,10.97223,-3.61557,-1.55567\H,0,9.4212,-6.00327,-1.58155\
 H,0,10.35207,-6.09405,-0.12893\H,0,8.21768,-2.90419,4.95125\H,0,7.6827
 8,-1.80526,6.17821\H,0,9.43013,-2.11516,6.04597\H,0,8.37159,-0.15329,7
 .50935\H,0,9.41815,1.2341,8.16246\H,0,10.08673,-0.08632,7.16101\H,0,8.
 66335,5.29846,2.72607\H,0,7.32531,5.57885,0.08262\H,0,6.60502,6.02477,
 3.33013\H,0,5.96826,4.43094,2.79137\H,0,5.98121,5.72904,1.70951\H,0,9.
 10028,7.15221,0.94623\H,0,9.31584,6.63179,-0.7144\H,0,10.70059,5.93848
 ,1.77235\H,0,11.44007,6.33952,0.1795\H,0,10.74397,4.6924,0.52117\H,0,9
 .48298,3.04695,-5.27937\H,0,8.77028,4.22065,-4.12582\H,0,7.70533,2.961
 04,-4.86848\H,0,8.25851,-2.06549,-4.01257\H,0,10.8495,-4.85721,-6.0314
 6\H,0,11.04601,-5.36481,-4.23489\H,0,12.02072,-4.12767,-5.06655\\Versi
 on=ES64L-G16RevA.03\State=1-A\HF=-4069.8125834\RMSD=5.469e-09\PG=C01 [
 X(C68H72Mg2N8O8)]\\@


 Ideas are like rabbits. You get a couple and learn
 how to handle them, and pretty soon you have a dozen.
                                    -- John Steinbeck
 Job cpu time:       0 days 15 hours 28 minutes  4.1 seconds.
 Elapsed time:       0 days  0 hours 39 minutes 20.6 seconds.
 File lengths (MBytes):  RWF=  13225 Int=      0 D2E=      0 Chk=    574 Scr=      1
 Normal termination of Gaussian 16 at Thu Sep  9 13:12:32 2021.
