 Entering Gaussian System, Link 0=g16
 Initial command:
 /sw/apps/gaussian-16.0/g16/l1.exe "/tmp/Gau-93433.inp" -scrdir="/tmp/"
 Entering Link 1 = /sw/apps/gaussian-16.0/g16/l1.exe PID=     93434.
  
 Copyright (c) 1988,1990,1992,1993,1995,1998,2003,2009,2016,
            Gaussian, Inc.  All Rights Reserved.
  
 This is part of the Gaussian(R) 16 program.  It is based on
 the Gaussian(R) 09 system (copyright 2009, Gaussian, Inc.),
 the Gaussian(R) 03 system (copyright 2003, Gaussian, Inc.),
 the Gaussian(R) 98 system (copyright 1998, Gaussian, Inc.),
 the Gaussian(R) 94 system (copyright 1995, Gaussian, Inc.),
 the Gaussian 92(TM) system (copyright 1992, Gaussian, Inc.),
 the Gaussian 90(TM) system (copyright 1990, Gaussian, Inc.),
 the Gaussian 88(TM) system (copyright 1988, Gaussian, Inc.),
 the Gaussian 86(TM) system (copyright 1986, Carnegie Mellon
 University), and the Gaussian 82(TM) system (copyright 1983,
 Carnegie Mellon University). Gaussian is a federally registered
 trademark of Gaussian, Inc.
  
 This software contains proprietary and confidential information,
 including trade secrets, belonging to Gaussian, Inc.
  
 This software is provided under written license and may be
 used, copied, transmitted, or stored only in accord with that
 written license.
  
 The following legend is applicable only to US Government
 contracts under FAR:
  
                    RESTRICTED RIGHTS LEGEND
  
 Use, reproduction and disclosure by the US Government is
 subject to restrictions as set forth in subparagraphs (a)
 and (c) of the Commercial Computer Software - Restricted
 Rights clause in FAR 52.227-19.
  
 Gaussian, Inc.
 340 Quinnipiac St., Bldg. 40, Wallingford CT 06492
  
  
 ---------------------------------------------------------------
 Warning -- This program may not be used in any manner that
 competes with the business of Gaussian, Inc. or will provide
 assistance to any competitor of Gaussian, Inc.  The licensee
 of this program is prohibited from giving any competitor of
 Gaussian, Inc. access to this program.  By using this program,
 the user acknowledges that Gaussian, Inc. is engaged in the
 business of creating and licensing software in the field of
 computational chemistry and represents and warrants to the
 licensee that it is not a competitor of Gaussian, Inc. and that
 it will not use this program in any manner prohibited above.
 ---------------------------------------------------------------
  

 Cite this work as:
 Gaussian 16, Revision A.03,
 M. J. Frisch, G. W. Trucks, H. B. Schlegel, G. E. Scuseria, 
 M. A. Robb, J. R. Cheeseman, G. Scalmani, V. Barone, 
 G. A. Petersson, H. Nakatsuji, X. Li, M. Caricato, A. V. Marenich, 
 J. Bloino, B. G. Janesko, R. Gomperts, B. Mennucci, H. P. Hratchian, 
 J. V. Ortiz, A. F. Izmaylov, J. L. Sonnenberg, D. Williams-Young, 
 F. Ding, F. Lipparini, F. Egidi, J. Goings, B. Peng, A. Petrone, 
 T. Henderson, D. Ranasinghe, V. G. Zakrzewski, J. Gao, N. Rega, 
 G. Zheng, W. Liang, M. Hada, M. Ehara, K. Toyota, R. Fukuda, 
 J. Hasegawa, M. Ishida, T. Nakajima, Y. Honda, O. Kitao, H. Nakai, 
 T. Vreven, K. Throssell, J. A. Montgomery, Jr., J. E. Peralta, 
 F. Ogliaro, M. J. Bearpark, J. J. Heyd, E. N. Brothers, K. N. Kudin, 
 V. N. Staroverov, T. A. Keith, R. Kobayashi, J. Normand, 
 K. Raghavachari, A. P. Rendell, J. C. Burant, S. S. Iyengar, 
 J. Tomasi, M. Cossi, J. M. Millam, M. Klene, C. Adamo, R. Cammi, 
 J. W. Ochterski, R. L. Martin, K. Morokuma, O. Farkas, 
 J. B. Foresman, and D. J. Fox, Gaussian, Inc., Wallingford CT, 2016.
 
 ******************************************
 Gaussian 16:  ES64L-G16RevA.03 25-Dec-2016
                11-Sep-2021 
 ******************************************
 %nproc=24
 Will use up to   24 processors via shared memory.
 %mem=175gb
 -----------------------------------
 #p cam-b3lyp/Def2SVP td=(nstates=5)
 -----------------------------------
 1/38=1,172=1/1;
 2/12=2,17=6,18=5,40=1/2;
 3/5=43,7=101,11=9,25=1,30=1,74=-40/1,2,3,8;
 4//1;
 5/5=2,38=5/2;
 8/6=1,10=1,108=5/1;
 9/41=5,42=1,70=2/14;
 6/7=2,8=2,9=2,10=2/1;
 99/5=1,9=1/99;
 Leave Link    1 at Sat Sep 11 16:06:16 2021, MaxMem= 23488102400 cpu:               0.6 elap:               0.0
 (Enter /sw/apps/gaussian-16.0/g16/l101.exe)
 --------------------------------
 TDDFT excited states in gaussian
 --------------------------------
 Symbolic Z-matrix:
 Charge =  0 Multiplicity = 1
 Mg                    0.        0.        0. 
 C                    -0.217    -2.218     2.801 
 C                    -1.255     2.442     2.026 
 C                    -0.245     1.85     -2.564 
 C                     0.146    -2.824    -2.037 
 N                    -0.617    -0.009     2.126 
 C                    -0.594    -0.908     3.105 
 C                    -0.936    -0.309     4.502 
 C                    -1.773     0.964     4.032 
 C                    -1.155     1.168     2.66 
 C                    -3.263     0.685     3.863 
 C                     0.345     0.11      5.299 
 C                     0.124     0.397     6.787 
 H                     1.168     0.033     7.733 
 N                    -0.185     1.961    -0.152 
 C                    -0.703     2.8       0.777 
 C                    -0.62      4.156     0.193 
 C                    -0.187     4.015    -1.225 
 C                    -0.214     2.583    -1.38 
 C                    -0.887     5.406     0.974 
 C                     0.181     5.013    -2.277 
 O                     0.303     4.69     -3.508 
 C                     0.31      6.414    -1.837 
 N                    -0.265    -0.413    -2.029 
 C                    -0.279     0.569    -2.937 
 C                    -0.196     0.024    -4.332 
 C                     0.124    -1.533    -4.18 
 C                     0.086    -1.632    -2.635 
 C                    -1.451     0.205    -5.197 
 C                     1.373    -2.07     -4.923 
 C                     2.626    -1.49     -4.306 
 N                     0.15     -2.144     0.303 
 C                     0.173    -3.136    -0.688 
 C                     0.173    -4.438     0.004 
 C                     0.133    -4.111     1.358 
 C                     0.083    -2.695     1.502 
 C                     0.149    -5.715    -0.623 
 C                     0.096    -4.629     2.716 
 O                     0.208    -5.747     3.221 
 C                    -0.255    -3.428     3.701 
 C                     0.717    -3.482     4.848 
 O                     1.931    -3.255     4.669 
 O                     0.038    -3.556     6.003 
 C                     0.943    -3.583     7.183 
 H                    -1.859     3.22      2.497 
 H                    -0.218     2.453    -3.474 
 H                     0.276    -3.747    -2.605 
 H                    -1.554    -0.949     5.132 
 H                    -1.585     1.831     4.665 
 H                    -3.484    -0.377     3.969 
 H                    -3.511     1.027     2.858 
 H                    -3.852     1.301     4.543 
 H                     0.669     1.096     4.966 
 H                     1.13     -0.639     5.189 
 H                    -0.844     0.026     7.125 
 H                     0.062     1.477     6.921 
 H                    -1.344     5.186     1.938 
 H                    -1.651     5.963     0.432 
 H                     0.007     6.02      1.084 
 H                    -0.635     6.744    -1.405 
 H                     0.665     6.97     -2.704 
 H                     1.048     6.466    -1.036 
 H                     0.608     0.501    -4.891 
 H                    -0.692    -2.156    -4.547 
 H                    -1.267     0.74     -6.129 
 H                    -2.204     0.714    -4.596 
 H                    -1.967    -0.72     -5.453 
 H                     1.356    -1.759    -5.967 
 H                     1.452    -3.157    -4.902 
 H                     2.714    -0.522    -4.798 
 H                     3.487    -2.121    -4.529 
 H                     2.495    -1.303    -3.24 
 H                     0.867    -6.333    -0.084 
 H                     0.404    -5.642    -1.68 
 H                    -0.891    -5.999    -0.463 
 H                    -1.283    -3.581     4.028 
 H                     0.698    -4.478     7.755 
 H                     0.833    -2.619     7.68 
 H                     2.       -3.754     6.976 
 Mg                    13.14552   1.18028   1.00563 
 C                     13.28818  -2.38486   0.62024 
 C                     12.06834   0.64239   4.19702 
 C                     12.57893   4.29388   1.23344 
 C                     13.11933   1.41581  -2.47137 
 N                     12.76706  -0.67653   2.14638 
 C                     12.91517  -1.97251   1.91649 
 C                     12.72654  -2.87316   3.16661 
 C                     11.80654  -1.88619   4.03745 
 C                     12.26179  -0.54988   3.45461 
 C                     10.32108  -2.04698   3.76014 
 C                     14.08366  -3.18197   3.89109 
 C                     14.01655  -4.30119   4.93253 
 H                     15.17304  -5.17954   5.08584 
 N                     12.90433   2.32798   2.60663 
 C                     12.48098   1.9417    3.82845 
 C                     12.45441   3.16211   4.64945 
 C                     12.73853   4.32686   3.76778 
 C                     12.7309   3.68284   2.4696 
 C                     12.25724   3.1377    6.13739 
 C                     12.96526   5.78203   4.04576 
 O                     12.95875   6.65569   3.10794 
 C                     13.10209   6.16608   5.4583 
 N                     12.67327   2.63426  -0.40336 
 C                     12.53041   3.92261  -0.04607 
 C                     12.46673   4.821    -1.25819 
 C                     12.8409   3.88973  -2.50331 
 C                     12.97489   2.53462  -1.77454 
 C                     11.12013   5.49703  -1.51515 
 C                     14.01206   4.36139  -3.40807 
 C                     15.31421   4.29548  -2.64291 
 N                     13.37899  -0.19054  -0.64797 
 C                     13.3075   0.11399  -2.025 
 C                     13.41364  -1.1634   -2.75947 
 C                     13.51721  -2.13245  -1.75017 
 C                     13.45805  -1.50536  -0.47629 
 C                     13.35854  -1.31701  -4.1735 
 C                     13.65245  -3.54432  -1.4726 
 O                     13.83721  -4.55027  -2.15645 
 C                     13.38304  -3.78305   0.07556 
 C                     14.47672  -4.66897   0.60615 
 O                     15.65362  -4.26856   0.64057 
 O                     13.92535  -5.75223   1.18313 
 C                     14.96994  -6.65599   1.73437 
 H                     11.51043   0.58652   5.13217 
 H                     12.49147   5.38266   1.25323 
 H                     13.21778   1.4141   -3.55902 
 H                     12.20261  -3.80323   2.98153 
 H                     12.05388  -1.94536   5.09418 
 H                     10.13565  -2.71805   2.93466 
 H                     9.95561  -1.05465   3.53046 
 H                     9.79919  -2.35727   4.66991 
 H                     14.34332  -2.3362    4.54069 
 H                     14.85567  -3.39751   3.17823 
 H                     13.09542  -4.89022   4.84583 
 H                     13.9527  -3.84837   5.92495 
 H                     11.90861   2.15594   6.48091 
 H                     11.42563   3.81471   6.36089 
 H                     13.14135   3.47113   6.68496 
 H                     12.20635   5.87289   6.00066 
 H                     13.34713   7.22992   5.44948 
 H                     13.93346   5.60177   5.89532 
 H                     13.19423   5.62013  -1.1859 
 H                     11.99885   3.78801  -3.20361 
 H                     11.18747   6.60038  -1.5616 
 H                     10.43079   5.19045  -0.73968 
 H                     10.6074   5.17586  -2.42023 
 H                     13.87255   5.40688  -3.6938 
 H                     14.10876   3.78747  -4.32363 
 H                     15.31943   5.23562  -2.08326 
 H                     16.15825   4.23888  -3.32733 
 H                     15.30095   3.47755  -1.91321 
 H                     14.13797  -2.01799  -4.44113 
 H                     13.48798  -0.36405  -4.68229 
 H                     12.34432  -1.7089   -4.28774 
 H                     12.39977  -4.2456    0.16946 
 H                     14.80683  -7.64211   1.28867 
 H                     14.88103  -6.57944   2.83437 
 H                     15.99853  -6.46392   1.45231 
 
 ITRead=  0  0  0  0  0  0  0  0  0  0  0  0  0  0  0  0  0  0  0  0
 ITRead=  0  0  0  0  0  0  0  0  0  0  0  0  0  0  0  0  0  0  0  0
 ITRead=  0  0  0  0  0  0  0  0  0  0  0  0  0  0  0  0  0  0  0  0
 ITRead=  0  0  0  0  0  0  0  0  0  0  0  0  0  0  0  0  0  0  0  0
 ITRead=  0  0  0  0  0  0  0  0  0  0  0  0  0  0  0  0  0  0  0  0
 ITRead=  0  0  0  0  0  0  0  0  0  0  0  0  0  0  0  0  0  0  0  0
 ITRead=  0  0  0  0  0  0  0  0  0  0  0  0  0  0  0  0  0  0  0  0
 ITRead=  0  0  0  0  0  0  0  0  0  0  0  0  0  0  0  0  0  0
 MicOpt= -1 -1 -1 -1 -1 -1 -1 -1 -1 -1 -1 -1 -1 -1 -1 -1 -1 -1 -1 -1
 MicOpt= -1 -1 -1 -1 -1 -1 -1 -1 -1 -1 -1 -1 -1 -1 -1 -1 -1 -1 -1 -1
 MicOpt= -1 -1 -1 -1 -1 -1 -1 -1 -1 -1 -1 -1 -1 -1 -1 -1 -1 -1 -1 -1
 MicOpt= -1 -1 -1 -1 -1 -1 -1 -1 -1 -1 -1 -1 -1 -1 -1 -1 -1 -1 -1 -1
 MicOpt= -1 -1 -1 -1 -1 -1 -1 -1 -1 -1 -1 -1 -1 -1 -1 -1 -1 -1 -1 -1
 MicOpt= -1 -1 -1 -1 -1 -1 -1 -1 -1 -1 -1 -1 -1 -1 -1 -1 -1 -1 -1 -1
 MicOpt= -1 -1 -1 -1 -1 -1 -1 -1 -1 -1 -1 -1 -1 -1 -1 -1 -1 -1 -1 -1
 MicOpt= -1 -1 -1 -1 -1 -1 -1 -1 -1 -1 -1 -1 -1 -1 -1 -1 -1 -1
 NAtoms=    158 NQM=      158 NQMF=       0 NMMI=      0 NMMIF=      0
                NMic=       0 NMicF=      0.
                    Isotopes and Nuclear Properties:
 (Nuclear quadrupole moments (NQMom) in fm**2, nuclear magnetic moments (NMagM)
  in nuclear magnetons)

  Atom         1           2           3           4           5           6           7           8           9          10
 IAtWgt=          24          12          12          12          12          14          12          12          12          12
 AtmWgt=  23.9850450  12.0000000  12.0000000  12.0000000  12.0000000  14.0030740  12.0000000  12.0000000  12.0000000  12.0000000
 NucSpn=           0           0           0           0           0           2           0           0           0           0
 AtZEff=  -0.0000000  -0.0000000  -0.0000000  -0.0000000  -0.0000000  -0.0000000  -0.0000000  -0.0000000  -0.0000000  -0.0000000
 NQMom=    0.0000000   0.0000000   0.0000000   0.0000000   0.0000000   2.0440000   0.0000000   0.0000000   0.0000000   0.0000000
 NMagM=    0.0000000   0.0000000   0.0000000   0.0000000   0.0000000   0.4037610   0.0000000   0.0000000   0.0000000   0.0000000
 AtZNuc=  12.0000000   6.0000000   6.0000000   6.0000000   6.0000000   7.0000000   6.0000000   6.0000000   6.0000000   6.0000000

  Atom        11          12          13          14          15          16          17          18          19          20
 IAtWgt=          12          12          12           1          14          12          12          12          12          12
 AtmWgt=  12.0000000  12.0000000  12.0000000   1.0078250  14.0030740  12.0000000  12.0000000  12.0000000  12.0000000  12.0000000
 NucSpn=           0           0           0           1           2           0           0           0           0           0
 AtZEff=  -0.0000000  -0.0000000  -0.0000000  -0.0000000  -0.0000000  -0.0000000  -0.0000000  -0.0000000  -0.0000000  -0.0000000
 NQMom=    0.0000000   0.0000000   0.0000000   0.0000000   2.0440000   0.0000000   0.0000000   0.0000000   0.0000000   0.0000000
 NMagM=    0.0000000   0.0000000   0.0000000   2.7928460   0.4037610   0.0000000   0.0000000   0.0000000   0.0000000   0.0000000
 AtZNuc=   6.0000000   6.0000000   6.0000000   1.0000000   7.0000000   6.0000000   6.0000000   6.0000000   6.0000000   6.0000000

  Atom        21          22          23          24          25          26          27          28          29          30
 IAtWgt=          12          16          12          14          12          12          12          12          12          12
 AtmWgt=  12.0000000  15.9949146  12.0000000  14.0030740  12.0000000  12.0000000  12.0000000  12.0000000  12.0000000  12.0000000
 NucSpn=           0           0           0           2           0           0           0           0           0           0
 AtZEff=  -0.0000000  -0.0000000  -0.0000000  -0.0000000  -0.0000000  -0.0000000  -0.0000000  -0.0000000  -0.0000000  -0.0000000
 NQMom=    0.0000000   0.0000000   0.0000000   2.0440000   0.0000000   0.0000000   0.0000000   0.0000000   0.0000000   0.0000000
 NMagM=    0.0000000   0.0000000   0.0000000   0.4037610   0.0000000   0.0000000   0.0000000   0.0000000   0.0000000   0.0000000
 AtZNuc=   6.0000000   8.0000000   6.0000000   7.0000000   6.0000000   6.0000000   6.0000000   6.0000000   6.0000000   6.0000000

  Atom        31          32          33          34          35          36          37          38          39          40
 IAtWgt=          12          14          12          12          12          12          12          12          16          12
 AtmWgt=  12.0000000  14.0030740  12.0000000  12.0000000  12.0000000  12.0000000  12.0000000  12.0000000  15.9949146  12.0000000
 NucSpn=           0           2           0           0           0           0           0           0           0           0
 AtZEff=  -0.0000000  -0.0000000  -0.0000000  -0.0000000  -0.0000000  -0.0000000  -0.0000000  -0.0000000  -0.0000000  -0.0000000
 NQMom=    0.0000000   2.0440000   0.0000000   0.0000000   0.0000000   0.0000000   0.0000000   0.0000000   0.0000000   0.0000000
 NMagM=    0.0000000   0.4037610   0.0000000   0.0000000   0.0000000   0.0000000   0.0000000   0.0000000   0.0000000   0.0000000
 AtZNuc=   6.0000000   7.0000000   6.0000000   6.0000000   6.0000000   6.0000000   6.0000000   6.0000000   8.0000000   6.0000000

  Atom        41          42          43          44          45          46          47          48          49          50
 IAtWgt=          12          16          16          12           1           1           1           1           1           1
 AtmWgt=  12.0000000  15.9949146  15.9949146  12.0000000   1.0078250   1.0078250   1.0078250   1.0078250   1.0078250   1.0078250
 NucSpn=           0           0           0           0           1           1           1           1           1           1
 AtZEff=  -0.0000000  -0.0000000  -0.0000000  -0.0000000  -0.0000000  -0.0000000  -0.0000000  -0.0000000  -0.0000000  -0.0000000
 NQMom=    0.0000000   0.0000000   0.0000000   0.0000000   0.0000000   0.0000000   0.0000000   0.0000000   0.0000000   0.0000000
 NMagM=    0.0000000   0.0000000   0.0000000   0.0000000   2.7928460   2.7928460   2.7928460   2.7928460   2.7928460   2.7928460
 AtZNuc=   6.0000000   8.0000000   8.0000000   6.0000000   1.0000000   1.0000000   1.0000000   1.0000000   1.0000000   1.0000000

  Atom        51          52          53          54          55          56          57          58          59          60
 IAtWgt=           1           1           1           1           1           1           1           1           1           1
 AtmWgt=   1.0078250   1.0078250   1.0078250   1.0078250   1.0078250   1.0078250   1.0078250   1.0078250   1.0078250   1.0078250
 NucSpn=           1           1           1           1           1           1           1           1           1           1
 AtZEff=  -0.0000000  -0.0000000  -0.0000000  -0.0000000  -0.0000000  -0.0000000  -0.0000000  -0.0000000  -0.0000000  -0.0000000
 NQMom=    0.0000000   0.0000000   0.0000000   0.0000000   0.0000000   0.0000000   0.0000000   0.0000000   0.0000000   0.0000000
 NMagM=    2.7928460   2.7928460   2.7928460   2.7928460   2.7928460   2.7928460   2.7928460   2.7928460   2.7928460   2.7928460
 AtZNuc=   1.0000000   1.0000000   1.0000000   1.0000000   1.0000000   1.0000000   1.0000000   1.0000000   1.0000000   1.0000000

  Atom        61          62          63          64          65          66          67          68          69          70
 IAtWgt=           1           1           1           1           1           1           1           1           1           1
 AtmWgt=   1.0078250   1.0078250   1.0078250   1.0078250   1.0078250   1.0078250   1.0078250   1.0078250   1.0078250   1.0078250
 NucSpn=           1           1           1           1           1           1           1           1           1           1
 AtZEff=  -0.0000000  -0.0000000  -0.0000000  -0.0000000  -0.0000000  -0.0000000  -0.0000000  -0.0000000  -0.0000000  -0.0000000
 NQMom=    0.0000000   0.0000000   0.0000000   0.0000000   0.0000000   0.0000000   0.0000000   0.0000000   0.0000000   0.0000000
 NMagM=    2.7928460   2.7928460   2.7928460   2.7928460   2.7928460   2.7928460   2.7928460   2.7928460   2.7928460   2.7928460
 AtZNuc=   1.0000000   1.0000000   1.0000000   1.0000000   1.0000000   1.0000000   1.0000000   1.0000000   1.0000000   1.0000000

  Atom        71          72          73          74          75          76          77          78          79          80
 IAtWgt=           1           1           1           1           1           1           1           1           1          24
 AtmWgt=   1.0078250   1.0078250   1.0078250   1.0078250   1.0078250   1.0078250   1.0078250   1.0078250   1.0078250  23.9850450
 NucSpn=           1           1           1           1           1           1           1           1           1           0
 AtZEff=  -0.0000000  -0.0000000  -0.0000000  -0.0000000  -0.0000000  -0.0000000  -0.0000000  -0.0000000  -0.0000000  -0.0000000
 NQMom=    0.0000000   0.0000000   0.0000000   0.0000000   0.0000000   0.0000000   0.0000000   0.0000000   0.0000000   0.0000000
 NMagM=    2.7928460   2.7928460   2.7928460   2.7928460   2.7928460   2.7928460   2.7928460   2.7928460   2.7928460   0.0000000
 AtZNuc=   1.0000000   1.0000000   1.0000000   1.0000000   1.0000000   1.0000000   1.0000000   1.0000000   1.0000000  12.0000000

  Atom        81          82          83          84          85          86          87          88          89          90
 IAtWgt=          12          12          12          12          14          12          12          12          12          12
 AtmWgt=  12.0000000  12.0000000  12.0000000  12.0000000  14.0030740  12.0000000  12.0000000  12.0000000  12.0000000  12.0000000
 NucSpn=           0           0           0           0           2           0           0           0           0           0
 AtZEff=  -0.0000000  -0.0000000  -0.0000000  -0.0000000  -0.0000000  -0.0000000  -0.0000000  -0.0000000  -0.0000000  -0.0000000
 NQMom=    0.0000000   0.0000000   0.0000000   0.0000000   2.0440000   0.0000000   0.0000000   0.0000000   0.0000000   0.0000000
 NMagM=    0.0000000   0.0000000   0.0000000   0.0000000   0.4037610   0.0000000   0.0000000   0.0000000   0.0000000   0.0000000
 AtZNuc=   6.0000000   6.0000000   6.0000000   6.0000000   7.0000000   6.0000000   6.0000000   6.0000000   6.0000000   6.0000000

  Atom        91          92          93          94          95          96          97          98          99         100
 IAtWgt=          12          12           1          14          12          12          12          12          12          12
 AtmWgt=  12.0000000  12.0000000   1.0078250  14.0030740  12.0000000  12.0000000  12.0000000  12.0000000  12.0000000  12.0000000
 NucSpn=           0           0           1           2           0           0           0           0           0           0
 AtZEff=  -0.0000000  -0.0000000  -0.0000000  -0.0000000  -0.0000000  -0.0000000  -0.0000000  -0.0000000  -0.0000000  -0.0000000
 NQMom=    0.0000000   0.0000000   0.0000000   2.0440000   0.0000000   0.0000000   0.0000000   0.0000000   0.0000000   0.0000000
 NMagM=    0.0000000   0.0000000   2.7928460   0.4037610   0.0000000   0.0000000   0.0000000   0.0000000   0.0000000   0.0000000
 AtZNuc=   6.0000000   6.0000000   1.0000000   7.0000000   6.0000000   6.0000000   6.0000000   6.0000000   6.0000000   6.0000000

  Atom       101         102         103         104         105         106         107         108         109         110
 IAtWgt=          16          12          14          12          12          12          12          12          12          12
 AtmWgt=  15.9949146  12.0000000  14.0030740  12.0000000  12.0000000  12.0000000  12.0000000  12.0000000  12.0000000  12.0000000
 NucSpn=           0           0           2           0           0           0           0           0           0           0
 AtZEff=  -0.0000000  -0.0000000  -0.0000000  -0.0000000  -0.0000000  -0.0000000  -0.0000000  -0.0000000  -0.0000000  -0.0000000
 NQMom=    0.0000000   0.0000000   2.0440000   0.0000000   0.0000000   0.0000000   0.0000000   0.0000000   0.0000000   0.0000000
 NMagM=    0.0000000   0.0000000   0.4037610   0.0000000   0.0000000   0.0000000   0.0000000   0.0000000   0.0000000   0.0000000
 AtZNuc=   8.0000000   6.0000000   7.0000000   6.0000000   6.0000000   6.0000000   6.0000000   6.0000000   6.0000000   6.0000000

  Atom       111         112         113         114         115         116         117         118         119         120
 IAtWgt=          14          12          12          12          12          12          12          16          12          12
 AtmWgt=  14.0030740  12.0000000  12.0000000  12.0000000  12.0000000  12.0000000  12.0000000  15.9949146  12.0000000  12.0000000
 NucSpn=           2           0           0           0           0           0           0           0           0           0
 AtZEff=  -0.0000000  -0.0000000  -0.0000000  -0.0000000  -0.0000000  -0.0000000  -0.0000000  -0.0000000  -0.0000000  -0.0000000
 NQMom=    2.0440000   0.0000000   0.0000000   0.0000000   0.0000000   0.0000000   0.0000000   0.0000000   0.0000000   0.0000000
 NMagM=    0.4037610   0.0000000   0.0000000   0.0000000   0.0000000   0.0000000   0.0000000   0.0000000   0.0000000   0.0000000
 AtZNuc=   7.0000000   6.0000000   6.0000000   6.0000000   6.0000000   6.0000000   6.0000000   8.0000000   6.0000000   6.0000000

  Atom       121         122         123         124         125         126         127         128         129         130
 IAtWgt=          16          16          12           1           1           1           1           1           1           1
 AtmWgt=  15.9949146  15.9949146  12.0000000   1.0078250   1.0078250   1.0078250   1.0078250   1.0078250   1.0078250   1.0078250
 NucSpn=           0           0           0           1           1           1           1           1           1           1
 AtZEff=  -0.0000000  -0.0000000  -0.0000000  -0.0000000  -0.0000000  -0.0000000  -0.0000000  -0.0000000  -0.0000000  -0.0000000
 NQMom=    0.0000000   0.0000000   0.0000000   0.0000000   0.0000000   0.0000000   0.0000000   0.0000000   0.0000000   0.0000000
 NMagM=    0.0000000   0.0000000   0.0000000   2.7928460   2.7928460   2.7928460   2.7928460   2.7928460   2.7928460   2.7928460
 AtZNuc=   8.0000000   8.0000000   6.0000000   1.0000000   1.0000000   1.0000000   1.0000000   1.0000000   1.0000000   1.0000000

  Atom       131         132         133         134         135         136         137         138         139         140
 IAtWgt=           1           1           1           1           1           1           1           1           1           1
 AtmWgt=   1.0078250   1.0078250   1.0078250   1.0078250   1.0078250   1.0078250   1.0078250   1.0078250   1.0078250   1.0078250
 NucSpn=           1           1           1           1           1           1           1           1           1           1
 AtZEff=  -0.0000000  -0.0000000  -0.0000000  -0.0000000  -0.0000000  -0.0000000  -0.0000000  -0.0000000  -0.0000000  -0.0000000
 NQMom=    0.0000000   0.0000000   0.0000000   0.0000000   0.0000000   0.0000000   0.0000000   0.0000000   0.0000000   0.0000000
 NMagM=    2.7928460   2.7928460   2.7928460   2.7928460   2.7928460   2.7928460   2.7928460   2.7928460   2.7928460   2.7928460
 AtZNuc=   1.0000000   1.0000000   1.0000000   1.0000000   1.0000000   1.0000000   1.0000000   1.0000000   1.0000000   1.0000000

  Atom       141         142         143         144         145         146         147         148         149         150
 IAtWgt=           1           1           1           1           1           1           1           1           1           1
 AtmWgt=   1.0078250   1.0078250   1.0078250   1.0078250   1.0078250   1.0078250   1.0078250   1.0078250   1.0078250   1.0078250
 NucSpn=           1           1           1           1           1           1           1           1           1           1
 AtZEff=  -0.0000000  -0.0000000  -0.0000000  -0.0000000  -0.0000000  -0.0000000  -0.0000000  -0.0000000  -0.0000000  -0.0000000
 NQMom=    0.0000000   0.0000000   0.0000000   0.0000000   0.0000000   0.0000000   0.0000000   0.0000000   0.0000000   0.0000000
 NMagM=    2.7928460   2.7928460   2.7928460   2.7928460   2.7928460   2.7928460   2.7928460   2.7928460   2.7928460   2.7928460
 AtZNuc=   1.0000000   1.0000000   1.0000000   1.0000000   1.0000000   1.0000000   1.0000000   1.0000000   1.0000000   1.0000000

  Atom       151         152         153         154         155         156         157         158
 IAtWgt=           1           1           1           1           1           1           1           1
 AtmWgt=   1.0078250   1.0078250   1.0078250   1.0078250   1.0078250   1.0078250   1.0078250   1.0078250
 NucSpn=           1           1           1           1           1           1           1           1
 AtZEff=  -0.0000000  -0.0000000  -0.0000000  -0.0000000  -0.0000000  -0.0000000  -0.0000000  -0.0000000
 NQMom=    0.0000000   0.0000000   0.0000000   0.0000000   0.0000000   0.0000000   0.0000000   0.0000000
 NMagM=    2.7928460   2.7928460   2.7928460   2.7928460   2.7928460   2.7928460   2.7928460   2.7928460
 AtZNuc=   1.0000000   1.0000000   1.0000000   1.0000000   1.0000000   1.0000000   1.0000000   1.0000000
 Leave Link  101 at Sat Sep 11 16:06:16 2021, MaxMem= 23488102400 cpu:               3.4 elap:               0.2
 (Enter /sw/apps/gaussian-16.0/g16/l202.exe)
 Stoichiometry    C68H72Mg2N8O8
 Framework group  C1[X(C68H72Mg2N8O8)]
 Deg. of freedom   468
 Full point group                 C1      NOp   1
 Largest Abelian subgroup         C1      NOp   1
 Largest concise Abelian subgroup C1      NOp   1
                         Standard orientation:                         
 ---------------------------------------------------------------------
 Center     Atomic      Atomic             Coordinates (Angstroms)
 Number     Number       Type             X           Y           Z
 ---------------------------------------------------------------------
      1         12           0       -6.518501    0.583881   -0.565702
      2          6           0       -6.787551   -2.654133    0.935996
      3          6           0       -7.644361    1.880898    2.382730
      4          6           0       -6.722829    3.400658   -2.008144
      5          6           0       -6.516406   -1.014978   -3.662363
      6          7           0       -7.105987   -0.367898    1.344697
      7          6           0       -7.106342   -1.612933    1.810593
      8          6           0       -7.404226   -1.701205    3.337304
      9          6           0       -8.194773   -0.328648    3.519301
     10          6           0       -7.587906    0.455534    2.369217
     11          6           0       -9.697140   -0.455631    3.288495
     12          6           0       -6.096272   -1.727428    4.197711
     13          6           0       -6.284797   -2.138599    5.660841
     14          1           0       -5.243644   -2.922863    6.307586
     15          7           0       -6.625089    2.405833    0.190591
     16          6           0       -7.095428    2.748634    1.413928
     17          6           0       -6.965006    4.218893    1.503430
     18          6           0       -6.557733    4.722059    0.162144
     19          6           0       -6.645508    3.516926   -0.622284
     20          6           0       -7.169783    4.987351    2.772795
     21          6           0       -6.163694    6.076519   -0.336155
     22          8           0       -6.072009    6.342263   -1.583371
     23          6           0       -5.971356    7.121916    0.685213
     24          7           0       -6.828142    1.142404   -2.553115
     25          6           0       -6.814416    2.428989   -2.918483
     26          6           0       -6.773050    2.572324   -4.411026
     27          6           0       -6.515039    1.106304   -4.988928
     28          6           0       -6.535761    0.319803   -3.655040
     29          6           0       -8.031386    3.163231   -5.061741
     30          6           0       -5.299447    0.926281   -5.932510
     31          6           0       -4.015352    1.125867   -5.158970
     32          7           0       -6.452296   -1.468449   -1.268982
     33          6           0       -6.483617   -1.904532   -2.601471
     34          6           0       -6.527416   -3.378075   -2.572843
     35          6           0       -6.535318   -3.698421   -1.216686
     36          6           0       -6.525278   -2.500234   -0.446921
     37          6           0       -6.612351   -4.231495   -3.708138
     38          6           0       -6.574785   -4.773687   -0.238881
     39          8           0       -6.501728   -6.001997   -0.297283
     40          6           0       -6.862678   -4.138702    1.192810
     41          6           0       -5.877988   -4.735523    2.161055
     42          8           0       -4.658290   -4.488977    2.066613
     43          8           0       -6.543463   -5.303772    3.178295
     44          6           0       -5.624149   -5.889441    4.190227
     45          1           0       -8.209432    2.379284    3.172823
     46          1           0       -6.683695    4.349162   -2.547816
     47          1           0       -6.432169   -1.584307   -4.589844
     48          1           0       -8.039183   -2.538020    3.628843
     49          1           0       -7.962705    0.151718    4.469625
     50          1           0       -9.959978   -1.443320    2.909934
     51          1           0       -9.944751    0.311622    2.554667
     52          1           0      -10.250980   -0.196681    4.191259
     53          1           0       -5.736773   -0.707823    4.336372
     54          1           0       -5.344206   -2.368880    3.736992
     55          1           0       -7.262432   -2.592903    5.824388
     56          1           0       -6.300648   -1.234946    6.270234
     57          1           0       -7.622080    4.368736    3.546932
     58          1           0       -7.917722    5.752230    2.564815
     59          1           0       -6.249948    5.457633    3.120749
     60          1           0       -6.895999    7.249054    1.248614
     61          1           0       -5.605862    7.999134    0.152528
     62          1           0       -5.220874    6.783282    1.400092
     63          1           0       -5.957966    3.226105   -4.718652
     64          1           0       -7.360857    0.741984   -5.572482
     65          1           0       -7.838489    4.056340   -5.656595
     66          1           0       -8.754546    3.367560   -4.272704
     67          1           0       -8.588327    2.470446   -5.692045
     68          1           0       -5.318082    1.676566   -6.722238
     69          1           0       -5.264761   -0.054295   -6.407399
     70          1           0       -3.894561    2.208561   -5.162923
     71          1           0       -3.184081    0.638423   -5.669457
     72          1           0       -4.123875    0.813896   -4.120036
     73          1           0       -5.912909   -5.047983   -3.528978
     74          1           0       -6.369169   -3.695658   -4.625385
     75          1           0       -7.660808   -4.525507   -3.661755
     76          1           0       -7.891478   -4.391939    1.446906
     77          1           0       -5.897700   -6.938541    4.303331
     78          1           0       -5.687704   -5.252039    5.072318
     79          1           0       -4.577996   -5.980139    3.895820
     80         12           0        6.676947    0.782187    0.458924
     81          6           0        6.668111   -2.224725   -1.500029
     82          6           0        5.622731   -1.109276    3.094376
     83          6           0        6.241580    3.470893    2.086421
     84          6           0        6.612501    2.566927   -2.533774
     85          7           0        6.238499   -1.377458    0.648606
     86          6           0        6.330210   -2.432780   -0.146527
     87          6           0        6.122093   -3.795611    0.566867
     88          6           0        5.255390   -3.282439    1.817607
     89          6           0        5.756923   -1.841530    1.887769
     90          6           0        3.760908   -3.255185    1.543512
     91          6           0        7.475281   -4.439895    1.031400
     92          6           0        7.376739   -5.906715    1.456233
     93          1           0        8.498279   -6.793893    1.160368
     94          7           0        6.505069    1.087482    2.412342
     95          6           0        6.083133    0.202951    3.340166
     96          6           0        6.117900    0.919649    4.624410
     97          6           0        6.437317    2.348139    4.355904
     98          6           0        6.385416    2.362147    2.907732
     99          6           0        5.940425    0.230271    5.946038
    100          6           0        6.727280    3.512196    5.254287
    101          8           0        6.743639    4.715507    4.813146
    102          6           0        6.899186    3.210832    6.682962
    103          7           0        6.245280    2.730059   -0.125706
    104          6           0        6.160258    3.720747    0.779401
    105          6           0        6.116732    5.072005    0.106644
    106          6           0        6.435238    4.794445   -1.435790
    107          6           0        6.523635    3.252867   -1.402509
    108          6           0        4.795543    5.831569    0.224540
    109          6           0        7.612154    5.588872   -2.065413
    110          6           0        8.920935    5.144296   -1.453159
    111          7           0        6.831247    0.302107   -1.641972
    112          6           0        6.753318    1.199042   -2.729858
    113          6           0        6.796904    0.389984   -3.965157
    114          6           0        6.874592   -0.933634   -3.506383
    115          6           0        6.858737   -0.949704   -2.085467
    116          6           0        6.716071    0.894902   -5.293553
    117          6           0        6.955693   -2.321570   -3.901058
    118          8           0        7.089643   -2.914033   -4.970996
    119          6           0        6.698096   -3.227011   -2.620357
    120          6           0        7.761775   -4.289828   -2.581341
    121          8           0        8.954452   -3.984240   -2.406007
    122          8           0        7.174496   -5.499668   -2.539420
    123          6           0        8.188685   -6.586245   -2.488541
    124          1           0        5.075944   -1.565509    3.920067
    125          1           0        6.199077    4.434845    2.598742
    126          1           0        6.695796    3.054805   -3.507280
    127          1           0        5.558000   -4.524780   -0.002255
    128          1           0        5.514641   -3.821048    2.725377
    129          1           0        3.536781   -3.473890    0.510036
    130          1           0        3.433266   -2.255826    1.798405
    131          1           0        3.239335   -3.927746    2.230501
    132          1           0        7.778301   -3.988134    1.984721
    133          1           0        8.227913   -4.332645    0.274651
    134          1           0        6.431144   -6.364472    1.141172
    135          1           0        7.345179   -5.950525    2.547611
    136          1           0        5.556637   -0.789571    5.819430
    137          1           0        5.140408    0.757600    6.476855
    138          1           0        6.844917    0.252734    6.557634
    139          1           0        5.999749    2.731164    7.061639
    140          1           0        7.187457    4.155437    7.148256
    141          1           0        7.712686    2.484922    6.791967
    142          1           0        6.877286    5.729381    0.509764
    143          1           0        5.580155    5.046336   -2.080149
    144          1           0        4.907380    6.833802    0.679615
    145          1           0        4.104977    5.228185    0.798633
    146          1           0        4.257659    5.970626   -0.711706
    147          1           0        7.511666    6.654133   -1.843436
    148          1           0        7.672632    5.488974   -3.143999
    149          1           0        8.972378    5.728583   -0.529546
    150          1           0        9.752433    5.378127   -2.114953
    151          1           0        8.884238    4.085464   -1.171777
    152          1           0        7.462367    0.367772   -5.872937
    153          1           0        6.877416    1.970539   -5.320549
    154          1           0        5.685170    0.628114   -5.541217
    155          1           0        5.698090   -3.651931   -2.715336
    156          1           0        7.979186   -7.258309   -3.326471
    157          1           0        8.118157   -7.013310   -1.470501
    158          1           0        9.220294   -6.318554   -2.684935
 ---------------------------------------------------------------------
 Rotational constants (GHZ):           0.0203298           0.0079870           0.0075308
 Leave Link  202 at Sat Sep 11 16:06:16 2021, MaxMem= 23488102400 cpu:               0.2 elap:               0.0
 (Enter /sw/apps/gaussian-16.0/g16/l301.exe)
 Standard basis: def2SVP (5D, 7F)
 Ernie: Thresh=  0.10000D-02 Tol=  0.10000D-05 Strict=F.
 There are  1658 symmetry adapted cartesian basis functions of A   symmetry.
 There are  1572 symmetry adapted basis functions of A   symmetry.
  1572 basis functions,  2678 primitive gaussians,  1658 cartesian basis functions
   312 alpha electrons      312 beta electrons
       nuclear repulsion energy     14248.3100426583 Hartrees.
 IExCor=20419 DFT=T Ex+Corr=CAM-B3LYP ExCW=0 ScaHFX=  1.000000
 ScaDFX=  1.000000  1.000000  1.000000  0.810000 ScalE2=  1.000000  1.000000
 IRadAn=      5 IRanWt=     -1 IRanGd=            0 ICorTp=0 IEmpDi=  4
 HFx  wShort=  0.000000 wLong=  0.330000 cFull=  0.190000 cShort=  0.000000 cLong=  0.460000
 DFx  wShort=  0.000000 wLong=  0.330000 cFull=  0.190000 cShort=  0.000000 cLong=  0.460000
 NAtoms=  158 NActive=  158 NUniq=  158 SFac= 1.00D+00 NAtFMM=   60 NAOKFM=T Big=T
 Integral buffers will be    131072 words long.
 Raffenetti 1 integral format.
 Two-electron integral symmetry is turned on.
 Leave Link  301 at Sat Sep 11 16:06:16 2021, MaxMem= 23488102400 cpu:               1.3 elap:               0.1
 (Enter /sw/apps/gaussian-16.0/g16/l302.exe)
 NPDir=0 NMtPBC=     1 NCelOv=     1 NCel=       1 NClECP=     1 NCelD=      1
         NCelK=      1 NCelE2=     1 NClLst=     1 CellRange=     0.0.
 One-electron integrals computed using PRISM.
 One-electron integral symmetry used in STVInt
   1 Symmetry operations used in ECPInt.
 ECPInt:  NShTT=  271216 NPrTT=  987664 LenC2=  116716 LenP2D=  255456.
 LDataN:  DoStor=T MaxTD1= 4 Len=   56
 NBasis=  1572 RedAO= T EigKep=  3.36D-04  NBF=  1572
 NBsUse=  1572 1.00D-06 EigRej= -1.00D+00 NBFU=  1572
 Precomputing XC quadrature grid using
 IXCGrd= 4 IRadAn=           5 IRanWt=          -1 IRanGd=           0 AccXCQ= 0.00D+00.
 Generated NRdTot=       0 NPtTot=           0 NUsed=           0 NTot=          32
 NSgBfM=  1035  1009  1014  1035  1035 MxSgAt=   158 MxSgA2=   157.
 Leave Link  302 at Sat Sep 11 16:06:21 2021, MaxMem= 23488102400 cpu:             112.1 elap:               4.7
 (Enter /sw/apps/gaussian-16.0/g16/l303.exe)
 DipDrv:  MaxL=1.
 Leave Link  303 at Sat Sep 11 16:06:21 2021, MaxMem= 23488102400 cpu:               8.7 elap:               0.4
 (Enter /sw/apps/gaussian-16.0/g16/l308.exe)
 Leave Link  308 at Sat Sep 11 16:06:22 2021, MaxMem= 23488102400 cpu:              13.8 elap:               0.7
 (Enter /sw/apps/gaussian-16.0/g16/l401.exe)
 ExpMin= 3.36D-02 ExpMax= 4.95D+03 ExpMxC= 7.45D+02 IAcc=3 IRadAn=         5 AccDes= 0.00D+00
 Harris functional with IExCor=20419 and IRadAn=       5 diagonalized for initial guess.
 HarFok:  IExCor=20419 AccDes= 0.00D+00 IRadAn=         5 IDoV= 1 UseB2=F ITyADJ=14
 ICtDFT=  3500011 ScaDFX=  1.000000  1.000000  1.000000  1.000000
 FoFCou: FMM=F IPFlag=           0 FMFlag=      100000 FMFlg1=        2001
         NFxFlg=           0 DoJE=T BraDBF=F KetDBF=T FulRan=T
         wScrn=  0.000000 ICntrl=       500 IOpCl=  0 I1Cent=   200000004 NGrid=           0
         NMat0=    1 NMatS0=      1 NMatT0=    0 NMatD0=    1 NMtDS0=    0 NMtDT0=    0
 Petite list used in FoFCou.
 Harris En= -3918.65801467825    
 JPrj=0 DoOrth=F DoCkMO=F.
 Leave Link  401 at Sat Sep 11 16:06:29 2021, MaxMem= 23488102400 cpu:             167.0 elap:               7.0
 (Enter /sw/apps/gaussian-16.0/g16/l502.exe)
 Integral symmetry usage will be decided dynamically.
 Closed shell SCF:
 Using DIIS extrapolation, IDIIS=  1040.
 NGot= 23488102400 LenX= 23482547354 LenY= 23479796732
 Requested convergence on RMS density matrix=1.00D-08 within 128 cycles.
 Requested convergence on MAX density matrix=1.00D-06.
 Requested convergence on             energy=1.00D-06.
 No special actions if energy rises.
 Fock matrices will be formed incrementally for  20 cycles.

 Cycle   1  Pass 1  IDiag  1:
 FoFJK:  IHMeth= 1 ICntrl=       0 DoSepK=T KAlg= 0 I1Cent=           0 FoldK=F
 IRaf=         1 NMat=       1 IRICut=       1 DoRegI=T DoRafI=F ISym2E= 0 IDoP0=0 IntGTp=1.
 FoFCou: FMM=T IPFlag=           0 FMFlag=      100000 FMFlg1=        2001
         NFxFlg=           0 DoJE=T BraDBF=F KetDBF=F FulRan=T
         wScrn=  0.000000 ICntrl=       500 IOpCl=  0 I1Cent=           0 NGrid=           0
         NMat0=    1 NMatS0=      1 NMatT0=    0 NMatD0=    1 NMtDS0=    0 NMtDT0=    0
 Symmetry not used in FoFCou.
 FMM levels:  10  Number of levels for PrismC:   9
 E= -4068.94967233024    
 DIIS: error= 2.04D-02 at cycle   1 NSaved=   1.
 NSaved= 1 IEnMin= 1 EnMin= -4068.94967233024     IErMin= 1 ErrMin= 2.04D-02
 ErrMax= 2.04D-02  0.00D+00 EMaxC= 1.00D-01 BMatC= 1.69D+00 BMatP= 1.69D+00
 IDIUse=3 WtCom= 7.96D-01 WtEn= 2.04D-01
 Coeff-Com:  0.100D+01
 Coeff-En:   0.100D+01
 Coeff:      0.100D+01
 Gap=     0.120 Goal=   None    Shift=    0.000
 GapD=    0.120 DampG=1.000 DampE=0.500 DampFc=0.5000 IDamp=-1.
 Damping current iteration by 5.00D-01
 RMSDP=1.57D-03 MaxDP=1.35D-01              OVMax= 2.02D-01

 Cycle   2  Pass 1  IDiag  1:
 RMSU=  7.69D-04    CP:  9.82D-01
 E= -4069.33855873861     Delta-E=       -0.388886408364 Rises=F Damp=T
 DIIS: error= 1.27D-02 at cycle   2 NSaved=   2.
 NSaved= 2 IEnMin= 2 EnMin= -4069.33855873861     IErMin= 2 ErrMin= 1.27D-02
 ErrMax= 1.27D-02  0.00D+00 EMaxC= 1.00D-01 BMatC= 3.06D-01 BMatP= 1.69D+00
 IDIUse=3 WtCom= 8.73D-01 WtEn= 1.27D-01
 Coeff-Com: -0.213D+00 0.121D+01
 Coeff-En:   0.000D+00 0.100D+01
 Coeff:     -0.186D+00 0.119D+01
 Gap=     0.135 Goal=   None    Shift=    0.000
 RMSDP=7.65D-04 MaxDP=9.45D-02 DE=-3.89D-01 OVMax= 1.87D-01

 Cycle   3  Pass 1  IDiag  1:
 RMSU=  7.32D-04    CP:  9.68D-01  1.24D+00
 E= -4069.62835038355     Delta-E=       -0.289791644944 Rises=F Damp=F
 DIIS: error= 1.56D-02 at cycle   3 NSaved=   3.
 NSaved= 3 IEnMin= 3 EnMin= -4069.62835038355     IErMin= 2 ErrMin= 1.27D-02
 ErrMax= 1.56D-02  0.00D+00 EMaxC= 1.00D-01 BMatC= 2.01D-01 BMatP= 3.06D-01
 IDIUse=3 WtCom= 8.44D-01 WtEn= 1.56D-01
 Coeff-Com: -0.267D+00 0.651D+00 0.616D+00
 Coeff-En:   0.000D+00 0.000D+00 0.100D+01
 Coeff:     -0.225D+00 0.549D+00 0.676D+00
 Gap=     0.122 Goal=   None    Shift=    0.000
 RMSDP=5.08D-04 MaxDP=4.78D-02 DE=-2.90D-01 OVMax= 1.41D-01

 Cycle   4  Pass 1  IDiag  1:
 RMSU=  2.65D-04    CP:  9.65D-01  1.55D+00  5.06D-01
 E= -4069.76554010471     Delta-E=       -0.137189721165 Rises=F Damp=F
 DIIS: error= 7.17D-03 at cycle   4 NSaved=   4.
 NSaved= 4 IEnMin= 4 EnMin= -4069.76554010471     IErMin= 4 ErrMin= 7.17D-03
 ErrMax= 7.17D-03  0.00D+00 EMaxC= 1.00D-01 BMatC= 4.99D-02 BMatP= 2.01D-01
 IDIUse=3 WtCom= 9.28D-01 WtEn= 7.17D-02
 Coeff-Com: -0.109D+00 0.226D+00 0.408D+00 0.475D+00
 Coeff-En:   0.000D+00 0.000D+00 0.220D+00 0.780D+00
 Coeff:     -0.101D+00 0.210D+00 0.395D+00 0.497D+00
 Gap=     0.121 Goal=   None    Shift=    0.000
 RMSDP=2.00D-04 MaxDP=2.01D-02 DE=-1.37D-01 OVMax= 6.11D-02

 Cycle   5  Pass 1  IDiag  1:
 RMSU=  7.59D-05    CP:  9.64D-01  1.49D+00  6.89D-01  5.50D-01
 E= -4069.81070129979     Delta-E=       -0.045161195078 Rises=F Damp=F
 DIIS: error= 7.61D-04 at cycle   5 NSaved=   5.
 NSaved= 5 IEnMin= 5 EnMin= -4069.81070129979     IErMin= 5 ErrMin= 7.61D-04
 ErrMax= 7.61D-04  0.00D+00 EMaxC= 1.00D-01 BMatC= 1.16D-03 BMatP= 4.99D-02
 IDIUse=3 WtCom= 9.92D-01 WtEn= 7.61D-03
 Coeff-Com: -0.361D-01 0.709D-01 0.166D+00 0.250D+00 0.550D+00
 Coeff-En:   0.000D+00 0.000D+00 0.000D+00 0.000D+00 0.100D+01
 Coeff:     -0.358D-01 0.703D-01 0.164D+00 0.248D+00 0.553D+00
 Gap=     0.121 Goal=   None    Shift=    0.000
 RMSDP=4.13D-05 MaxDP=4.11D-03 DE=-4.52D-02 OVMax= 1.60D-02

 Cycle   6  Pass 1  IDiag  1:
 RMSU=  3.06D-05    CP:  9.64D-01  1.49D+00  6.81D-01  6.22D-01  7.53D-01
 E= -4069.81171581743     Delta-E=       -0.001014517638 Rises=F Damp=F
 DIIS: error= 2.09D-04 at cycle   6 NSaved=   6.
 NSaved= 6 IEnMin= 6 EnMin= -4069.81171581743     IErMin= 6 ErrMin= 2.09D-04
 ErrMax= 2.09D-04  0.00D+00 EMaxC= 1.00D-01 BMatC= 1.81D-04 BMatP= 1.16D-03
 IDIUse=3 WtCom= 9.98D-01 WtEn= 2.09D-03
 Coeff-Com:  0.215D-02-0.645D-02 0.115D-01 0.406D-01 0.309D+00 0.644D+00
 Coeff-En:   0.000D+00 0.000D+00 0.000D+00 0.000D+00 0.112D+00 0.888D+00
 Coeff:      0.214D-02-0.644D-02 0.115D-01 0.405D-01 0.308D+00 0.644D+00
 Gap=     0.121 Goal=   None    Shift=    0.000
 RMSDP=1.62D-05 MaxDP=1.15D-03 DE=-1.01D-03 OVMax= 7.08D-03

 Cycle   7  Pass 1  IDiag  1:
 RMSU=  1.08D-05    CP:  9.64D-01  1.50D+00  6.87D-01  6.21D-01  8.58D-01
                    CP:  7.42D-01
 E= -4069.81191214322     Delta-E=       -0.000196325793 Rises=F Damp=F
 DIIS: error= 8.34D-05 at cycle   7 NSaved=   7.
 NSaved= 7 IEnMin= 7 EnMin= -4069.81191214322     IErMin= 7 ErrMin= 8.34D-05
 ErrMax= 8.34D-05  0.00D+00 EMaxC= 1.00D-01 BMatC= 2.20D-05 BMatP= 1.81D-04
 IDIUse=1 WtCom= 1.00D+00 WtEn= 0.00D+00
 Coeff-Com:  0.447D-02-0.979D-02-0.886D-02-0.351D-02 0.105D+00 0.332D+00
 Coeff-Com:  0.580D+00
 Coeff:      0.447D-02-0.979D-02-0.886D-02-0.351D-02 0.105D+00 0.332D+00
 Coeff:      0.580D+00
 Gap=     0.122 Goal=   None    Shift=    0.000
 RMSDP=6.60D-06 MaxDP=1.11D-03 DE=-1.96D-04 OVMax= 3.22D-03

 Cycle   8  Pass 1  IDiag  1:
 RMSU=  4.71D-06    CP:  9.64D-01  1.50D+00  6.87D-01  6.26D-01  8.61D-01
                    CP:  8.68D-01  8.16D-01
 E= -4069.81193936997     Delta-E=       -0.000027226743 Rises=F Damp=F
 DIIS: error= 5.07D-05 at cycle   8 NSaved=   8.
 NSaved= 8 IEnMin= 8 EnMin= -4069.81193936997     IErMin= 8 ErrMin= 5.07D-05
 ErrMax= 5.07D-05  0.00D+00 EMaxC= 1.00D-01 BMatC= 4.87D-06 BMatP= 2.20D-05
 IDIUse=1 WtCom= 1.00D+00 WtEn= 0.00D+00
 Coeff-Com:  0.218D-02-0.432D-02-0.780D-02-0.122D-01-0.111D-01 0.338D-01
 Coeff-Com:  0.338D+00 0.662D+00
 Coeff:      0.218D-02-0.432D-02-0.780D-02-0.122D-01-0.111D-01 0.338D-01
 Coeff:      0.338D+00 0.662D+00
 Gap=     0.122 Goal=   None    Shift=    0.000
 RMSDP=3.30D-06 MaxDP=3.44D-04 DE=-2.72D-05 OVMax= 1.09D-03

 Cycle   9  Pass 1  IDiag  1:
 RMSU=  1.92D-06    CP:  9.64D-01  1.50D+00  6.88D-01  6.28D-01  8.78D-01
                    CP:  8.94D-01  1.01D+00  9.46D-01
 E= -4069.81194715731     Delta-E=       -0.000007787348 Rises=F Damp=F
 DIIS: error= 2.05D-05 at cycle   9 NSaved=   9.
 NSaved= 9 IEnMin= 9 EnMin= -4069.81194715731     IErMin= 9 ErrMin= 2.05D-05
 ErrMax= 2.05D-05  0.00D+00 EMaxC= 1.00D-01 BMatC= 7.05D-07 BMatP= 4.87D-06
 IDIUse=1 WtCom= 1.00D+00 WtEn= 0.00D+00
 Coeff-Com:  0.478D-03-0.798D-03-0.271D-02-0.606D-02-0.212D-01-0.388D-01
 Coeff-Com:  0.102D+00 0.329D+00 0.637D+00
 Coeff:      0.478D-03-0.798D-03-0.271D-02-0.606D-02-0.212D-01-0.388D-01
 Coeff:      0.102D+00 0.329D+00 0.637D+00
 Gap=     0.122 Goal=   None    Shift=    0.000
 RMSDP=1.42D-06 MaxDP=1.48D-04 DE=-7.79D-06 OVMax= 7.61D-04

 Cycle  10  Pass 1  IDiag  1:
 RMSU=  9.41D-07    CP:  9.64D-01  1.50D+00  6.88D-01  6.28D-01  8.81D-01
                    CP:  9.07D-01  1.06D+00  1.11D+00  1.05D+00
 E= -4069.81194876035     Delta-E=       -0.000001603035 Rises=F Damp=F
 DIIS: error= 1.05D-05 at cycle  10 NSaved=  10.
 NSaved=10 IEnMin=10 EnMin= -4069.81194876035     IErMin=10 ErrMin= 1.05D-05
 ErrMax= 1.05D-05  0.00D+00 EMaxC= 1.00D-01 BMatC= 1.71D-07 BMatP= 7.05D-07
 IDIUse=1 WtCom= 1.00D+00 WtEn= 0.00D+00
 Coeff-Com: -0.425D-03 0.891D-03 0.122D-02 0.110D-02-0.378D-02-0.310D-01
 Coeff-Com: -0.450D-01-0.751D-01 0.248D+00 0.904D+00
 Coeff:     -0.425D-03 0.891D-03 0.122D-02 0.110D-02-0.378D-02-0.310D-01
 Coeff:     -0.450D-01-0.751D-01 0.248D+00 0.904D+00
 Gap=     0.122 Goal=   None    Shift=    0.000
 RMSDP=1.22D-06 MaxDP=1.19D-04 DE=-1.60D-06 OVMax= 6.22D-04

 Cycle  11  Pass 1  IDiag  1:
 RMSU=  5.19D-07    CP:  9.64D-01  1.50D+00  6.88D-01  6.28D-01  8.83D-01
                    CP:  9.17D-01  1.11D+00  1.22D+00  1.39D+00  1.37D+00
 E= -4069.81194954722     Delta-E=       -0.000000786869 Rises=F Damp=F
 DIIS: error= 4.09D-06 at cycle  11 NSaved=  11.
 NSaved=11 IEnMin=11 EnMin= -4069.81194954722     IErMin=11 ErrMin= 4.09D-06
 ErrMax= 4.09D-06  0.00D+00 EMaxC= 1.00D-01 BMatC= 6.32D-08 BMatP= 1.71D-07
 IDIUse=1 WtCom= 1.00D+00 WtEn= 0.00D+00
 Coeff-Com: -0.332D-03 0.646D-03 0.134D-02 0.212D-02 0.442D-02-0.857D-02
 Coeff-Com: -0.425D-01-0.132D+00-0.271D-01 0.473D+00 0.729D+00
 Coeff:     -0.332D-03 0.646D-03 0.134D-02 0.212D-02 0.442D-02-0.857D-02
 Coeff:     -0.425D-01-0.132D+00-0.271D-01 0.473D+00 0.729D+00
 Gap=     0.122 Goal=   None    Shift=    0.000
 RMSDP=6.87D-07 MaxDP=6.14D-05 DE=-7.87D-07 OVMax= 3.77D-04

 Cycle  12  Pass 1  IDiag  1:
 RMSU=  2.64D-07    CP:  9.64D-01  1.50D+00  6.88D-01  6.29D-01  8.84D-01
                    CP:  9.20D-01  1.13D+00  1.29D+00  1.55D+00  1.75D+00
                    CP:  1.19D+00
 E= -4069.81194981143     Delta-E=       -0.000000264215 Rises=F Damp=F
 DIIS: error= 2.53D-06 at cycle  12 NSaved=  12.
 NSaved=12 IEnMin=12 EnMin= -4069.81194981143     IErMin=12 ErrMin= 2.53D-06
 ErrMax= 2.53D-06  0.00D+00 EMaxC= 1.00D-01 BMatC= 1.54D-08 BMatP= 6.32D-08
 IDIUse=1 WtCom= 1.00D+00 WtEn= 0.00D+00
 Coeff-Com: -0.630D-05-0.412D-05 0.201D-03 0.542D-03 0.339D-02 0.376D-02
 Coeff-Com:  0.227D-02-0.362D-01-0.688D-01-0.643D-01 0.254D+00 0.905D+00
 Coeff:     -0.630D-05-0.412D-05 0.201D-03 0.542D-03 0.339D-02 0.376D-02
 Coeff:      0.227D-02-0.362D-01-0.688D-01-0.643D-01 0.254D+00 0.905D+00
 Gap=     0.122 Goal=   None    Shift=    0.000
 RMSDP=4.33D-07 MaxDP=3.08D-05 DE=-2.64D-07 OVMax= 2.51D-04

 Cycle  13  Pass 1  IDiag  1:
 RMSU=  1.66D-07    CP:  9.64D-01  1.50D+00  6.88D-01  6.29D-01  8.84D-01
                    CP:  9.20D-01  1.13D+00  1.31D+00  1.66D+00  1.98D+00
                    CP:  1.60D+00  1.26D+00
 E= -4069.81194990308     Delta-E=       -0.000000091644 Rises=F Damp=F
 DIIS: error= 1.28D-06 at cycle  13 NSaved=  13.
 NSaved=13 IEnMin=13 EnMin= -4069.81194990308     IErMin=13 ErrMin= 1.28D-06
 ErrMax= 1.28D-06  0.00D+00 EMaxC= 1.00D-01 BMatC= 8.45D-09 BMatP= 1.54D-08
 IDIUse=1 WtCom= 1.00D+00 WtEn= 0.00D+00
 Coeff-Com:  0.120D-03-0.245D-03-0.367D-03-0.452D-03 0.627D-03 0.498D-02
 Coeff-Com:  0.194D-01 0.226D-01-0.334D-01-0.240D+00-0.158D+00 0.595D+00
 Coeff-Com:  0.789D+00
 Coeff:      0.120D-03-0.245D-03-0.367D-03-0.452D-03 0.627D-03 0.498D-02
 Coeff:      0.194D-01 0.226D-01-0.334D-01-0.240D+00-0.158D+00 0.595D+00
 Coeff:      0.789D+00
 Gap=     0.122 Goal=   None    Shift=    0.000
 RMSDP=3.43D-07 MaxDP=2.27D-05 DE=-9.16D-08 OVMax= 2.02D-04

 Cycle  14  Pass 1  IDiag  1:
 RMSU=  7.65D-08    CP:  9.64D-01  1.50D+00  6.88D-01  6.29D-01  8.85D-01
                    CP:  9.21D-01  1.14D+00  1.34D+00  1.74D+00  2.17D+00
                    CP:  1.87D+00  1.77D+00  1.10D+00
 E= -4069.81194994035     Delta-E=       -0.000000037267 Rises=F Damp=F
 DIIS: error= 6.99D-07 at cycle  14 NSaved=  14.
 NSaved=14 IEnMin=14 EnMin= -4069.81194994035     IErMin=14 ErrMin= 6.99D-07
 ErrMax= 6.99D-07  0.00D+00 EMaxC= 1.00D-01 BMatC= 1.29D-09 BMatP= 8.45D-09
 IDIUse=1 WtCom= 1.00D+00 WtEn= 0.00D+00
 Coeff-Com:  0.674D-04-0.133D-03-0.249D-03-0.391D-03-0.472D-03 0.127D-02
 Coeff-Com:  0.107D-01 0.194D-01 0.405D-02-0.101D+00-0.144D+00 0.911D-01
 Coeff-Com:  0.405D+00 0.714D+00
 Coeff:      0.674D-04-0.133D-03-0.249D-03-0.391D-03-0.472D-03 0.127D-02
 Coeff:      0.107D-01 0.194D-01 0.405D-02-0.101D+00-0.144D+00 0.911D-01
 Coeff:      0.405D+00 0.714D+00
 Gap=     0.122 Goal=   None    Shift=    0.000
 RMSDP=1.04D-07 MaxDP=6.77D-06 DE=-3.73D-08 OVMax= 5.69D-05

 Cycle  15  Pass 1  IDiag  1:
 RMSU=  3.83D-08    CP:  9.64D-01  1.50D+00  6.88D-01  6.29D-01  8.85D-01
                    CP:  9.20D-01  1.14D+00  1.34D+00  1.76D+00  2.21D+00
                    CP:  1.97D+00  1.92D+00  1.33D+00  1.03D+00
 E= -4069.81194994451     Delta-E=       -0.000000004162 Rises=F Damp=F
 DIIS: error= 3.29D-07 at cycle  15 NSaved=  15.
 NSaved=15 IEnMin=15 EnMin= -4069.81194994451     IErMin=15 ErrMin= 3.29D-07
 ErrMax= 3.29D-07  0.00D+00 EMaxC= 1.00D-01 BMatC= 2.27D-10 BMatP= 1.29D-09
 IDIUse=1 WtCom= 1.00D+00 WtEn= 0.00D+00
 Coeff-Com:  0.582D-05-0.985D-05-0.341D-04-0.838D-04-0.298D-03-0.510D-03
 Coeff-Com:  0.119D-02 0.264D-02 0.872D-02 0.102D-02-0.309D-01-0.724D-01
 Coeff-Com:  0.306D-01 0.296D+00 0.764D+00
 Coeff:      0.582D-05-0.985D-05-0.341D-04-0.838D-04-0.298D-03-0.510D-03
 Coeff:      0.119D-02 0.264D-02 0.872D-02 0.102D-02-0.309D-01-0.724D-01
 Coeff:      0.306D-01 0.296D+00 0.764D+00
 Gap=     0.122 Goal=   None    Shift=    0.000
 RMSDP=4.00D-08 MaxDP=2.62D-06 DE=-4.16D-09 OVMax= 2.73D-05

 Cycle  16  Pass 1  IDiag  1:
 RMSU=  1.85D-08    CP:  9.64D-01  1.50D+00  6.88D-01  6.29D-01  8.85D-01
                    CP:  9.21D-01  1.14D+00  1.34D+00  1.76D+00  2.23D+00
                    CP:  2.00D+00  1.97D+00  1.41D+00  1.24D+00  1.15D+00
 E= -4069.81194994529     Delta-E=       -0.000000000782 Rises=F Damp=F
 DIIS: error= 1.77D-07 at cycle  16 NSaved=  16.
 NSaved=16 IEnMin=16 EnMin= -4069.81194994529     IErMin=16 ErrMin= 1.77D-07
 ErrMax= 1.77D-07  0.00D+00 EMaxC= 1.00D-01 BMatC= 8.34D-11 BMatP= 2.27D-10
 IDIUse=1 WtCom= 1.00D+00 WtEn= 0.00D+00
 Coeff-Com: -0.141D-04 0.285D-04 0.464D-04 0.528D-04-0.280D-04-0.627D-03
 Coeff-Com: -0.190D-02-0.423D-02 0.437D-02 0.252D-01 0.208D-01-0.639D-01
 Coeff-Com: -0.815D-01-0.391D-01 0.397D+00 0.744D+00
 Coeff:     -0.141D-04 0.285D-04 0.464D-04 0.528D-04-0.280D-04-0.627D-03
 Coeff:     -0.190D-02-0.423D-02 0.437D-02 0.252D-01 0.208D-01-0.639D-01
 Coeff:     -0.815D-01-0.391D-01 0.397D+00 0.744D+00
 Gap=     0.122 Goal=   None    Shift=    0.000
 RMSDP=2.30D-08 MaxDP=1.62D-06 DE=-7.82D-10 OVMax= 1.28D-05

 Cycle  17  Pass 1  IDiag  1:
 RMSU=  1.03D-08    CP:  9.64D-01  1.50D+00  6.88D-01  6.29D-01  8.85D-01
                    CP:  9.21D-01  1.14D+00  1.34D+00  1.76D+00  2.23D+00
                    CP:  2.01D+00  2.00D+00  1.46D+00  1.34D+00  1.44D+00
                    CP:  1.25D+00
 E= -4069.81194994543     Delta-E=       -0.000000000142 Rises=F Damp=F
 DIIS: error= 9.56D-08 at cycle  17 NSaved=  17.
 NSaved=17 IEnMin=17 EnMin= -4069.81194994543     IErMin=17 ErrMin= 9.56D-08
 ErrMax= 9.56D-08  0.00D+00 EMaxC= 1.00D-01 BMatC= 1.81D-11 BMatP= 8.34D-11
 IDIUse=1 WtCom= 1.00D+00 WtEn= 0.00D+00
 Coeff-Com: -0.725D-05 0.141D-04 0.286D-04 0.425D-04 0.836D-04-0.125D-03
 Coeff-Com: -0.930D-03-0.281D-02 0.867D-04 0.925D-02 0.175D-01-0.733D-02
 Coeff-Com: -0.358D-01-0.101D+00-0.306D-01 0.292D+00 0.860D+00
 Coeff:     -0.725D-05 0.141D-04 0.286D-04 0.425D-04 0.836D-04-0.125D-03
 Coeff:     -0.930D-03-0.281D-02 0.867D-04 0.925D-02 0.175D-01-0.733D-02
 Coeff:     -0.358D-01-0.101D+00-0.306D-01 0.292D+00 0.860D+00
 Gap=     0.122 Goal=   None    Shift=    0.000
 RMSDP=1.36D-08 MaxDP=1.03D-06 DE=-1.42D-10 OVMax= 8.96D-06

 Cycle  18  Pass 1  IDiag  1:
 RMSU=  4.83D-09    CP:  9.64D-01  1.50D+00  6.88D-01  6.29D-01  8.85D-01
                    CP:  9.21D-01  1.14D+00  1.34D+00  1.76D+00  2.24D+00
                    CP:  2.01D+00  2.01D+00  1.47D+00  1.41D+00  1.61D+00
                    CP:  1.66D+00  1.39D+00
 E= -4069.81194994542     Delta-E=        0.000000000007 Rises=F Damp=F
 DIIS: error= 5.50D-08 at cycle  18 NSaved=  18.
 NSaved=18 IEnMin=17 EnMin= -4069.81194994543     IErMin=18 ErrMin= 5.50D-08
 ErrMax= 5.50D-08  0.00D+00 EMaxC= 1.00D-01 BMatC= 7.02D-12 BMatP= 1.81D-11
 IDIUse=1 WtCom= 1.00D+00 WtEn= 0.00D+00
 Coeff-Com:  0.196D-05-0.423D-05-0.427D-05-0.141D-05 0.596D-04 0.177D-03
 Coeff-Com:  0.389D-03 0.203D-03-0.124D-02-0.600D-02-0.114D-03 0.196D-01
 Coeff-Com:  0.183D-01-0.319D-01-0.160D+00-0.190D+00 0.348D+00 0.100D+01
 Coeff:      0.196D-05-0.423D-05-0.427D-05-0.141D-05 0.596D-04 0.177D-03
 Coeff:      0.389D-03 0.203D-03-0.124D-02-0.600D-02-0.114D-03 0.196D-01
 Coeff:      0.183D-01-0.319D-01-0.160D+00-0.190D+00 0.348D+00 0.100D+01
 Gap=     0.122 Goal=   None    Shift=    0.000
 RMSDP=1.16D-08 MaxDP=7.69D-07 DE= 7.28D-12 OVMax= 6.65D-06

 Cycle  19  Pass 1  IDiag  1:
 RMSU=  2.78D-09    CP:  9.64D-01  1.50D+00  6.88D-01  6.29D-01  8.85D-01
                    CP:  9.21D-01  1.14D+00  1.34D+00  1.76D+00  2.24D+00
                    CP:  2.02D+00  2.01D+00  1.49D+00  1.45D+00  1.76D+00
                    CP:  1.99D+00  1.94D+00  1.38D+00
 E= -4069.81194994586     Delta-E=       -0.000000000437 Rises=F Damp=F
 DIIS: error= 3.35D-08 at cycle  19 NSaved=  19.
 NSaved=19 IEnMin=19 EnMin= -4069.81194994586     IErMin=19 ErrMin= 3.35D-08
 ErrMax= 3.35D-08  0.00D+00 EMaxC= 1.00D-01 BMatC= 1.45D-12 BMatP= 7.02D-12
 IDIUse=1 WtCom= 1.00D+00 WtEn= 0.00D+00
 Coeff-Com:  0.288D-05-0.580D-05-0.981D-05-0.123D-04 0.113D-04 0.116D-03
 Coeff-Com:  0.464D-03 0.792D-03-0.560D-03-0.589D-02-0.487D-02 0.117D-01
 Coeff-Com:  0.200D-01 0.118D-01-0.679D-01-0.178D+00-0.376D-01 0.490D+00
 Coeff-Com:  0.760D+00
 Coeff:      0.288D-05-0.580D-05-0.981D-05-0.123D-04 0.113D-04 0.116D-03
 Coeff:      0.464D-03 0.792D-03-0.560D-03-0.589D-02-0.487D-02 0.117D-01
 Coeff:      0.200D-01 0.118D-01-0.679D-01-0.178D+00-0.376D-01 0.490D+00
 Coeff:      0.760D+00
 Gap=     0.122 Goal=   None    Shift=    0.000
 RMSDP=4.59D-09 MaxDP=3.24D-07 DE=-4.37D-10 OVMax= 3.03D-06

 SCF Done:  E(RCAM-B3LYP) =  -4069.81194995     A.U. after   19 cycles
            NFock= 19  Conv=0.46D-08     -V/T= 2.0102
 KE= 4.028802069014D+03 PE=-3.797759608513D+04 EE= 1.563067202352D+04
 Leave Link  502 at Sat Sep 11 16:15:23 2021, MaxMem= 23488102400 cpu:           12269.6 elap:             534.7
 (Enter /sw/apps/gaussian-16.0/g16/l801.exe)
 DoSCS=F DFT=T ScalE2(SS,OS)=  1.000000  1.000000
 ExpMin= 3.36D-02 ExpMax= 4.95D+03 ExpMxC= 7.45D+02 IAcc=3 IRadAn=         5 AccDes= 0.00D+00
 HarFok:  IExCor=  205 AccDes= 0.00D+00 IRadAn=         5 IDoV=-2 UseB2=F ITyADJ=14
 ICtDFT= 12500011 ScaDFX=  1.000000  1.000000  1.000000  1.000000
 GSVD:  LWork=       -9588 too small for GESVD, short by       45590 words or       45590 for optimal perf.
 Largest valence mixing into a core orbital is  2.03D-04
 Largest core mixing into a valence orbital is  5.24D-05
 Range of M.O.s used for correlation:    95  1572
 NBasis=  1572 NAE=   312 NBE=   312 NFC=    94 NFV=     0
 NROrb=   1478 NOA=   218 NOB=   218 NVA=  1260 NVB=  1260
 Leave Link  801 at Sat Sep 11 16:15:24 2021, MaxMem= 23488102400 cpu:               8.0 elap:               0.4
 (Enter /sw/apps/gaussian-16.0/g16/l914.exe)
 RHF ground state
 Two-electron integrals replicated using symmetry.
 MDV= 23488102400 DFT=T DoStab=F Mixed=T DoRPA=T DoScal=F NonHer=T
 Making orbital integer symmetry assigments:
 Orbital symmetries:
       Occupied  (A) (A) (A) (A) (A) (A) (A) (A) (A) (A) (A) (A)
                 (A) (A) (A) (A) (A) (A) (A) (A) (A) (A) (A) (A)
                 (A) (A) (A) (A) (A) (A) (A) (A) (A) (A) (A) (A)
                 (A) (A) (A) (A) (A) (A) (A) (A) (A) (A) (A) (A)
                 (A) (A) (A) (A) (A) (A) (A) (A) (A) (A) (A) (A)
                 (A) (A) (A) (A) (A) (A) (A) (A) (A) (A) (A) (A)
                 (A) (A) (A) (A) (A) (A) (A) (A) (A) (A) (A) (A)
                 (A) (A) (A) (A) (A) (A) (A) (A) (A) (A) (A) (A)
                 (A) (A) (A) (A) (A) (A) (A) (A) (A) (A) (A) (A)
                 (A) (A) (A) (A) (A) (A) (A) (A) (A) (A) (A) (A)
                 (A) (A) (A) (A) (A) (A) (A) (A) (A) (A) (A) (A)
                 (A) (A) (A) (A) (A) (A) (A) (A) (A) (A) (A) (A)
                 (A) (A) (A) (A) (A) (A) (A) (A) (A) (A) (A) (A)
                 (A) (A) (A) (A) (A) (A) (A) (A) (A) (A) (A) (A)
                 (A) (A) (A) (A) (A) (A) (A) (A) (A) (A) (A) (A)
                 (A) (A) (A) (A) (A) (A) (A) (A) (A) (A) (A) (A)
                 (A) (A) (A) (A) (A) (A) (A) (A) (A) (A) (A) (A)
                 (A) (A) (A) (A) (A) (A) (A) (A) (A) (A) (A) (A)
                 (A) (A) (A) (A) (A) (A) (A) (A) (A) (A) (A) (A)
                 (A) (A) (A) (A) (A) (A) (A) (A) (A) (A) (A) (A)
                 (A) (A) (A) (A) (A) (A) (A) (A) (A) (A) (A) (A)
                 (A) (A) (A) (A) (A) (A) (A) (A) (A) (A) (A) (A)
                 (A) (A) (A) (A) (A) (A) (A) (A) (A) (A) (A) (A)
                 (A) (A) (A) (A) (A) (A) (A) (A) (A) (A) (A) (A)
                 (A) (A) (A) (A) (A) (A) (A) (A) (A) (A) (A) (A)
                 (A) (A) (A) (A) (A) (A) (A) (A) (A) (A) (A) (A)
       Virtual   (A) (A) (A) (A) (A) (A) (A) (A) (A) (A) (A) (A)
                 (A) (A) (A) (A) (A) (A) (A) (A) (A) (A) (A) (A)
                 (A) (A) (A) (A) (A) (A) (A) (A) (A) (A) (A) (A)
                 (A) (A) (A) (A) (A) (A) (A) (A) (A) (A) (A) (A)
                 (A) (A) (A) (A) (A) (A) (A) (A) (A) (A) (A) (A)
                 (A) (A) (A) (A) (A) (A) (A) (A) (A) (A) (A) (A)
                 (A) (A) (A) (A) (A) (A) (A) (A) (A) (A) (A) (A)
                 (A) (A) (A) (A) (A) (A) (A) (A) (A) (A) (A) (A)
                 (A) (A) (A) (A) (A) (A) (A) (A) (A) (A) (A) (A)
                 (A) (A) (A) (A) (A) (A) (A) (A) (A) (A) (A) (A)
                 (A) (A) (A) (A) (A) (A) (A) (A) (A) (A) (A) (A)
                 (A) (A) (A) (A) (A) (A) (A) (A) (A) (A) (A) (A)
                 (A) (A) (A) (A) (A) (A) (A) (A) (A) (A) (A) (A)
                 (A) (A) (A) (A) (A) (A) (A) (A) (A) (A) (A) (A)
                 (A) (A) (A) (A) (A) (A) (A) (A) (A) (A) (A) (A)
                 (A) (A) (A) (A) (A) (A) (A) (A) (A) (A) (A) (A)
                 (A) (A) (A) (A) (A) (A) (A) (A) (A) (A) (A) (A)
                 (A) (A) (A) (A) (A) (A) (A) (A) (A) (A) (A) (A)
                 (A) (A) (A) (A) (A) (A) (A) (A) (A) (A) (A) (A)
                 (A) (A) (A) (A) (A) (A) (A) (A) (A) (A) (A) (A)
                 (A) (A) (A) (A) (A) (A) (A) (A) (A) (A) (A) (A)
                 (A) (A) (A) (A) (A) (A) (A) (A) (A) (A) (A) (A)
                 (A) (A) (A) (A) (A) (A) (A) (A) (A) (A) (A) (A)
                 (A) (A) (A) (A) (A) (A) (A) (A) (A) (A) (A) (A)
                 (A) (A) (A) (A) (A) (A) (A) (A) (A) (A) (A) (A)
                 (A) (A) (A) (A) (A) (A) (A) (A) (A) (A) (A) (A)
                 (A) (A) (A) (A) (A) (A) (A) (A) (A) (A) (A) (A)
                 (A) (A) (A) (A) (A) (A) (A) (A) (A) (A) (A) (A)
                 (A) (A) (A) (A) (A) (A) (A) (A) (A) (A) (A) (A)
                 (A) (A) (A) (A) (A) (A) (A) (A) (A) (A) (A) (A)
                 (A) (A) (A) (A) (A) (A) (A) (A) (A) (A) (A) (A)
                 (A) (A) (A) (A) (A) (A) (A) (A) (A) (A) (A) (A)
                 (A) (A) (A) (A) (A) (A) (A) (A) (A) (A) (A) (A)
                 (A) (A) (A) (A) (A) (A) (A) (A) (A) (A) (A) (A)
                 (A) (A) (A) (A) (A) (A) (A) (A) (A) (A) (A) (A)
                 (A) (A) (A) (A) (A) (A) (A) (A) (A) (A) (A) (A)
                 (A) (A) (A) (A) (A) (A) (A) (A) (A) (A) (A) (A)
                 (A) (A) (A) (A) (A) (A) (A) (A) (A) (A) (A) (A)
                 (A) (A) (A) (A) (A) (A) (A) (A) (A) (A) (A) (A)
                 (A) (A) (A) (A) (A) (A) (A) (A) (A) (A) (A) (A)
                 (A) (A) (A) (A) (A) (A) (A) (A) (A) (A) (A) (A)
                 (A) (A) (A) (A) (A) (A) (A) (A) (A) (A) (A) (A)
                 (A) (A) (A) (A) (A) (A) (A) (A) (A) (A) (A) (A)
                 (A) (A) (A) (A) (A) (A) (A) (A) (A) (A) (A) (A)
                 (A) (A) (A) (A) (A) (A) (A) (A) (A) (A) (A) (A)
                 (A) (A) (A) (A) (A) (A) (A) (A) (A) (A) (A) (A)
                 (A) (A) (A) (A) (A) (A) (A) (A) (A) (A) (A) (A)
                 (A) (A) (A) (A) (A) (A) (A) (A) (A) (A) (A) (A)
                 (A) (A) (A) (A) (A) (A) (A) (A) (A) (A) (A) (A)
                 (A) (A) (A) (A) (A) (A) (A) (A) (A) (A) (A) (A)
                 (A) (A) (A) (A) (A) (A) (A) (A) (A) (A) (A) (A)
                 (A) (A) (A) (A) (A) (A) (A) (A) (A) (A) (A) (A)
                 (A) (A) (A) (A) (A) (A) (A) (A) (A) (A) (A) (A)
                 (A) (A) (A) (A) (A) (A) (A) (A) (A) (A) (A) (A)
                 (A) (A) (A) (A) (A) (A) (A) (A) (A) (A) (A) (A)
                 (A) (A) (A) (A) (A) (A) (A) (A) (A) (A) (A) (A)
                 (A) (A) (A) (A) (A) (A) (A) (A) (A) (A) (A) (A)
                 (A) (A) (A) (A) (A) (A) (A) (A) (A) (A) (A) (A)
                 (A) (A) (A) (A) (A) (A) (A) (A) (A) (A) (A) (A)
                 (A) (A) (A) (A) (A) (A) (A) (A) (A) (A) (A) (A)
                 (A) (A) (A) (A) (A) (A) (A) (A) (A) (A) (A) (A)
                 (A) (A) (A) (A) (A) (A) (A) (A) (A) (A) (A) (A)
                 (A) (A) (A) (A) (A) (A) (A) (A) (A) (A) (A) (A)
                 (A) (A) (A) (A) (A) (A) (A) (A) (A) (A) (A) (A)
                 (A) (A) (A) (A) (A) (A) (A) (A) (A) (A) (A) (A)
                 (A) (A) (A) (A) (A) (A) (A) (A) (A) (A) (A) (A)
                 (A) (A) (A) (A) (A) (A) (A) (A) (A) (A) (A) (A)
                 (A) (A) (A) (A) (A) (A) (A) (A) (A) (A) (A) (A)
                 (A) (A) (A) (A) (A) (A) (A) (A) (A) (A) (A) (A)
                 (A) (A) (A) (A) (A) (A) (A) (A) (A) (A) (A) (A)
                 (A) (A) (A) (A) (A) (A) (A) (A) (A) (A) (A) (A)
                 (A) (A) (A) (A) (A) (A) (A) (A) (A) (A) (A) (A)
                 (A) (A) (A) (A) (A) (A) (A) (A) (A) (A) (A) (A)
                 (A) (A) (A) (A) (A) (A) (A) (A) (A) (A) (A) (A)
                 (A) (A) (A) (A) (A) (A) (A) (A) (A) (A) (A) (A)
                 (A) (A) (A) (A) (A) (A) (A) (A) (A) (A) (A) (A)
                 (A) (A) (A) (A) (A) (A) (A) (A) (A) (A) (A) (A)
                 (A) (A) (A) (A) (A) (A) (A) (A) (A) (A) (A) (A)
                 (A) (A) (A) (A) (A) (A) (A) (A) (A) (A) (A) (A)
                 (A) (A) (A) (A) (A) (A) (A) (A) (A) (A) (A) (A)
                 (A) (A) (A) (A) (A) (A) (A) (A) (A) (A) (A) (A)
                 (A) (A) (A) (A) (A) (A) (A) (A) (A) (A) (A) (A)
                 (A) (A) (A) (A) (A) (A) (A) (A) (A) (A) (A) (A)
                 (A) (A) (A) (A) (A) (A) (A) (A) (A) (A) (A) (A)
                 (A) (A) (A) (A) (A) (A) (A) (A) (A) (A) (A) (A)
                 (A) (A) (A) (A) (A) (A) (A) (A) (A) (A) (A) (A)
                 (A) (A) (A) (A) (A) (A) (A) (A) (A) (A) (A) (A)
                 (A) (A) (A) (A) (A) (A) (A) (A) (A) (A) (A) (A)
                 (A) (A) (A) (A) (A) (A) (A) (A) (A) (A) (A) (A)
                 (A) (A) (A) (A) (A) (A) (A) (A) (A) (A) (A) (A)
                 (A) (A) (A) (A) (A) (A) (A) (A) (A) (A) (A) (A)
                 (A) (A) (A) (A) (A) (A) (A) (A) (A) (A) (A) (A)
                 (A) (A) (A) (A) (A) (A) (A) (A) (A) (A) (A) (A)
                 (A) (A) (A) (A) (A) (A) (A) (A) (A) (A) (A) (A)
                 (A) (A) (A) (A) (A) (A) (A) (A) (A) (A) (A) (A)
                 (A) (A) (A) (A) (A) (A) (A) (A) (A) (A) (A) (A)
                 (A) (A) (A) (A) (A) (A) (A) (A) (A) (A) (A) (A)
                 (A) (A) (A) (A) (A) (A) (A) (A) (A) (A) (A) (A)
                 (A) (A) (A) (A) (A) (A) (A) (A) (A) (A) (A) (A)
                 (A) (A) (A) (A) (A) (A) (A) (A) (A) (A) (A) (A)
                 (A) (A) (A) (A) (A) (A) (A) (A) (A) (A) (A) (A)
                 (A) (A) (A) (A) (A) (A) (A) (A) (A) (A) (A) (A)
                 (A) (A) (A) (A) (A) (A) (A) (A) (A) (A) (A) (A)
                 (A) (A) (A) (A) (A) (A) (A) (A) (A) (A) (A) (A)
                 (A) (A) (A) (A) (A) (A) (A) (A) (A) (A) (A) (A)
    20 initial guesses have been made.
 Convergence on wavefunction:    0.001000000000000
 Davidson Disk Diagonalization:  ConvIn= 1.00D-03 SkipCon=T Conv= 1.00D-03.
 Max sub-space:  2000 roots to seek:    20 dimension of matrix:       549360
 Iteration     1 Dimension    20 NMult     0 NNew     20
 CISAX will form    20 AO SS matrices at one time.
 NMat=    20 NSing=    20 JSym2X= 0.
 FoFJK:  IHMeth= 1 ICntrl=       0 DoSepK=T KAlg= 0 I1Cent=           0 FoldK=F
 IRaf=         1 NMat=      40 IRICut=       1 DoRegI=T DoRafI=F ISym2E= 0 IDoP0=3 IntGTp=3.
 FoFCou: FMM=T IPFlag=           0 FMFlag=      100000 FMFlg1=        2001
         NFxFlg=           0 DoJE=F BraDBF=F KetDBF=F FulRan=T
         wScrn=  0.000000 ICntrl=       500 IOpCl=  0 I1Cent=           0 NGrid=           0
         NMat0=   20 NMatS0=     20 NMatT0=    0 NMatD0=   20 NMtDS0=    0 NMtDT0=    0
 Symmetry not used in FoFCou.
 FMM levels:  10  Number of levels for PrismC:   9
 New state      1 was old state      7
 New state      2 was old state      6
 New state      3 was old state      1
 New state      4 was old state      2
 New state      5 was old state      3
 Excitation Energies [eV] at current iteration:
 Root      1 :     2.613030097625921
 Root      2 :     2.620438850995298
 Root      3 :     2.646364979897585
 Root      4 :     2.669788448110800
 Root      5 :     2.700461473143350
 Root      6 :     2.741819993917486
 Root      7 :     3.435311733673761
 Root      8 :     3.543011497352046
 Root      9 :     3.627892294891314
 Root     10 :     3.670208410598231
 Root     11 :     3.738264369217148
 Root     12 :     3.758877034168936
 Root     13 :     4.291051018103293
 Root     14 :     4.316570086647606
 Root     15 :     4.553612955313517
 Root     16 :     4.675548967880918
 Root     17 :     4.865527078445906
 Root     18 :     4.900964019368639
 Root     19 :     4.968085010842775
 Root     20 :     5.001868119050691
 Iteration     2 Dimension    30 NMult    20 NNew     10
 CISAX will form    10 AO SS matrices at one time.
 NMat=    10 NSing=    10 JSym2X= 0.
 New state      1 was old state      4
 Root      1 not converged, maximum delta is    0.158602005908744
 New state      2 was old state      5
 Root      2 not converged, maximum delta is    0.162588050301953
 New state      3 was old state      2
 Root      3 not converged, maximum delta is    0.418629298097710
 New state      4 was old state      1
 Root      4 not converged, maximum delta is    0.408555809731336
 New state      5 was old state      3
 Root      5 not converged, maximum delta is    0.001206203666354
 Excitation Energies [eV] at current iteration:
 Root      1 :     1.796217096734601   Change is   -0.873571351376198
 Root      2 :     1.810791592095822   Change is   -0.889669881047529
 Root      3 :     2.234942481581479   Change is   -0.385496369413819
 Root      4 :     2.239988616344856   Change is   -0.373041481281065
 Root      5 :     2.646192042256716   Change is   -0.000172937640869
 Iteration     3 Dimension    40 NMult    30 NNew     10
 CISAX will form    10 AO SS matrices at one time.
 NMat=    10 NSing=    10 JSym2X= 0.
 Root      1 not converged, maximum delta is    0.057735168073503
 Root      2 not converged, maximum delta is    0.058834647435901
 Root      3 not converged, maximum delta is    0.113857987204562
 Root      4 not converged, maximum delta is    0.113400693307487
 Root      5 has converged.
 Excitation Energies [eV] at current iteration:
 Root      1 :     1.689278077520472   Change is   -0.106939019214129
 Root      2 :     1.702343745912406   Change is   -0.108447846183416
 Root      3 :     2.193034424950647   Change is   -0.041908056630832
 Root      4 :     2.200976407210927   Change is   -0.039012209133929
 Root      5 :     2.646191247748732   Change is   -0.000000794507984
 Iteration     4 Dimension    48 NMult    40 NNew      8
 CISAX will form     8 AO SS matrices at one time.
 NMat=     8 NSing=     8 JSym2X= 0.
 Root      1 not converged, maximum delta is    0.011205620283596
 Root      2 not converged, maximum delta is    0.011232465413866
 Root      3 not converged, maximum delta is    0.011326040998833
 Root      4 not converged, maximum delta is    0.011228625184384
 Root      5 has converged.
 Excitation Energies [eV] at current iteration:
 Root      1 :     1.672547832519947   Change is   -0.016730245000525
 Root      2 :     1.685481690843958   Change is   -0.016862055068448
 Root      3 :     2.185665490001936   Change is   -0.007368934948711
 Root      4 :     2.194205862093538   Change is   -0.006770545117389
 Root      5 :     2.646191247746061   Change is   -0.000000000002671
 Iteration     5 Dimension    56 NMult    48 NNew      8
 CISAX will form     8 AO SS matrices at one time.
 NMat=     8 NSing=     8 JSym2X= 0.
 Root      1 not converged, maximum delta is    0.001802740912018
 Root      2 not converged, maximum delta is    0.001851319033872
 Root      3 not converged, maximum delta is    0.002524095640891
 Root      4 not converged, maximum delta is    0.002328991795183
 Root      5 has converged.
 Excitation Energies [eV] at current iteration:
 Root      1 :     1.670781792875355   Change is   -0.001766039644592
 Root      2 :     1.683699941726541   Change is   -0.001781749117417
 Root      3 :     2.184803671144893   Change is   -0.000861818857043
 Root      4 :     2.193433978778405   Change is   -0.000771883315133
 Root      5 :     2.646191247745470   Change is   -0.000000000000590
 Iteration     6 Dimension    64 NMult    56 NNew      8
 CISAX will form     8 AO SS matrices at one time.
 NMat=     8 NSing=     8 JSym2X= 0.
 Root      1 not converged, maximum delta is    0.001134660627700
 Root      2 not converged, maximum delta is    0.001144962741627
 Root      3 not converged, maximum delta is    0.001080468573467
 Root      4 has converged.
 Root      5 has converged.
 Excitation Energies [eV] at current iteration:
 Root      1 :     1.670529921603434   Change is   -0.000251871271921
 Root      2 :     1.683444320240449   Change is   -0.000255621486091
 Root      3 :     2.184673041442676   Change is   -0.000130629702216
 Root      4 :     2.193316302482949   Change is   -0.000117676295456
 Root      5 :     2.646191247745159   Change is   -0.000000000000311
 Iteration     7 Dimension    70 NMult    64 NNew      6
 CISAX will form     6 AO SS matrices at one time.
 NMat=     6 NSing=     6 JSym2X= 0.
 Root      1 has converged.
 Root      2 has converged.
 Root      3 has converged.
 Root      4 has converged.
 Root      5 has converged.
 Excitation Energies [eV] at current iteration:
 Root      1 :     1.670505528657280   Change is   -0.000024392946154
[...]
 Alpha virt. eigenvalues --    1.83614   1.83734   1.83957   1.84003   1.84311
 Alpha virt. eigenvalues --    1.84424   1.84578   1.84786   1.84871   1.85075
 Alpha virt. eigenvalues --    1.85183   1.85249   1.85385   1.85477   1.85555
 Alpha virt. eigenvalues --    1.85844   1.85972   1.86343   1.86442   1.86535
 Alpha virt. eigenvalues --    1.86715   1.86759   1.86873   1.87003   1.87105
 Alpha virt. eigenvalues --    1.87415   1.87557   1.87641   1.87844   1.87844
 Alpha virt. eigenvalues --    1.88015   1.88072   1.88248   1.88510   1.88654
 Alpha virt. eigenvalues --    1.88787   1.89033   1.89110   1.89160   1.89608
 Alpha virt. eigenvalues --    1.89724   1.89727   1.89926   1.90091   1.90264
 Alpha virt. eigenvalues --    1.90717   1.90975   1.91314   1.91416   1.91480
 Alpha virt. eigenvalues --    1.91709   1.92126   1.92274   1.92572   1.92746
 Alpha virt. eigenvalues --    1.92960   1.93220   1.93323   1.93554   1.94262
 Alpha virt. eigenvalues --    1.94363   1.94671   1.94869   1.95466   1.95638
 Alpha virt. eigenvalues --    1.95688   1.95899   1.95951   1.96122   1.96137
 Alpha virt. eigenvalues --    1.96255   1.96551   1.96568   1.96873   1.97013
 Alpha virt. eigenvalues --    1.97424   1.97606   1.97813   1.97878   1.98133
 Alpha virt. eigenvalues --    1.98257   1.98434   1.98607   1.99097   1.99145
 Alpha virt. eigenvalues --    1.99776   2.00025   2.00639   2.00793   2.00957
 Alpha virt. eigenvalues --    2.01169   2.01421   2.01554   2.01653   2.01674
 Alpha virt. eigenvalues --    2.01686   2.01912   2.02751   2.02781   2.03198
 Alpha virt. eigenvalues --    2.03212   2.03363   2.03437   2.03454   2.03594
 Alpha virt. eigenvalues --    2.04000   2.04095   2.04937   2.05031   2.05492
 Alpha virt. eigenvalues --    2.05681   2.06053   2.06342   2.06846   2.07117
 Alpha virt. eigenvalues --    2.07156   2.07413   2.08575   2.08581   2.08950
 Alpha virt. eigenvalues --    2.09080   2.09547   2.09681   2.10772   2.11076
 Alpha virt. eigenvalues --    2.11154   2.11470   2.11486   2.11620   2.11699
 Alpha virt. eigenvalues --    2.11943   2.12426   2.12552   2.12781   2.12808
 Alpha virt. eigenvalues --    2.12863   2.12951   2.13709   2.13747   2.14126
 Alpha virt. eigenvalues --    2.14300   2.15308   2.15462   2.15888   2.16169
 Alpha virt. eigenvalues --    2.16505   2.16661   2.16726   2.17235   2.17387
 Alpha virt. eigenvalues --    2.17679   2.17693   2.18027   2.18052   2.18057
 Alpha virt. eigenvalues --    2.18275   2.18753   2.18817   2.19328   2.19601
 Alpha virt. eigenvalues --    2.19901   2.20000   2.20178   2.20311   2.20517
 Alpha virt. eigenvalues --    2.21145   2.21209   2.21642   2.21703   2.21828
 Alpha virt. eigenvalues --    2.21937   2.22654   2.22777   2.23292   2.23395
 Alpha virt. eigenvalues --    2.24375   2.24464   2.24954   2.25042   2.26252
 Alpha virt. eigenvalues --    2.26517   2.26753   2.27059   2.27073   2.27276
 Alpha virt. eigenvalues --    2.28102   2.28416   2.29243   2.29511   2.29695
 Alpha virt. eigenvalues --    2.29958   2.30408   2.30713   2.30917   2.31037
 Alpha virt. eigenvalues --    2.31125   2.31261   2.32101   2.32287   2.33093
 Alpha virt. eigenvalues --    2.33314   2.33428   2.33543   2.34115   2.34206
 Alpha virt. eigenvalues --    2.35310   2.35375   2.35759   2.35997   2.36342
 Alpha virt. eigenvalues --    2.36392   2.36486   2.36594   2.37646   2.37723
 Alpha virt. eigenvalues --    2.38242   2.38418   2.38804   2.38879   2.39578
 Alpha virt. eigenvalues --    2.39732   2.40158   2.40312   2.40440   2.40918
 Alpha virt. eigenvalues --    2.41214   2.41300   2.41667   2.41740   2.41985
 Alpha virt. eigenvalues --    2.42198   2.42855   2.42932   2.43149   2.43438
 Alpha virt. eigenvalues --    2.44033   2.44121   2.44698   2.44864   2.44868
 Alpha virt. eigenvalues --    2.45062   2.45523   2.45625   2.46281   2.46338
 Alpha virt. eigenvalues --    2.46444   2.46543   2.46759   2.46862   2.47225
 Alpha virt. eigenvalues --    2.47423   2.47685   2.47934   2.49294   2.49423
 Alpha virt. eigenvalues --    2.49929   2.50056   2.50496   2.50536   2.51070
 Alpha virt. eigenvalues --    2.51341   2.51657   2.51842   2.52383   2.52475
 Alpha virt. eigenvalues --    2.52770   2.53247   2.53893   2.54017   2.54135
 Alpha virt. eigenvalues --    2.54303   2.54760   2.54853   2.55494   2.55712
 Alpha virt. eigenvalues --    2.57838   2.58126   2.58619   2.58962   2.60153
 Alpha virt. eigenvalues --    2.60376   2.60564   2.61004   2.61686   2.61869
 Alpha virt. eigenvalues --    2.62487   2.62490   2.62920   2.63180   2.63898
 Alpha virt. eigenvalues --    2.64233   2.64297   2.64453   2.65047   2.65152
 Alpha virt. eigenvalues --    2.65737   2.65937   2.66757   2.66856   2.66880
 Alpha virt. eigenvalues --    2.67129   2.67881   2.68038   2.68818   2.68858
 Alpha virt. eigenvalues --    2.68974   2.69098   2.69367   2.69653   2.69965
 Alpha virt. eigenvalues --    2.70182   2.70941   2.71135   2.71941   2.72003
 Alpha virt. eigenvalues --    2.72544   2.72605   2.72748   2.72807   2.73261
 Alpha virt. eigenvalues --    2.73311   2.73445   2.73527   2.74474   2.74550
 Alpha virt. eigenvalues --    2.74934   2.75104   2.76560   2.76566   2.77110
 Alpha virt. eigenvalues --    2.77189   2.77423   2.77644   2.78167   2.78314
 Alpha virt. eigenvalues --    2.78680   2.78727   2.79097   2.79209   2.80281
 Alpha virt. eigenvalues --    2.80308   2.80528   2.80741   2.81075   2.81186
 Alpha virt. eigenvalues --    2.81892   2.82039   2.82314   2.82375   2.83700
 Alpha virt. eigenvalues --    2.83742   2.83865   2.83952   2.84519   2.84551
 Alpha virt. eigenvalues --    2.84862   2.84909   2.85642   2.85713   2.86692
 Alpha virt. eigenvalues --    2.86952   2.87229   2.87531   2.88130   2.88253
 Alpha virt. eigenvalues --    2.88479   2.88654   2.88898   2.88903   2.90454
 Alpha virt. eigenvalues --    2.90715   2.91105   2.91169   2.93111   2.93375
 Alpha virt. eigenvalues --    2.93812   2.94167   2.94540   2.94584   2.95308
 Alpha virt. eigenvalues --    2.95553   2.95904   2.96120   2.96403   2.96409
 Alpha virt. eigenvalues --    2.96927   2.97103   2.97749   2.98043   2.98174
 Alpha virt. eigenvalues --    2.98339   2.98427   2.98569   2.98625   2.98821
 Alpha virt. eigenvalues --    2.98857   2.98949   2.99573   2.99807   2.99968
 Alpha virt. eigenvalues --    3.00072   3.00178   3.00355   3.00413   3.01062
 Alpha virt. eigenvalues --    3.01943   3.01969   3.01996   3.02180   3.02657
 Alpha virt. eigenvalues --    3.02857   3.02923   3.03303   3.03363   3.03796
 Alpha virt. eigenvalues --    3.04114   3.04151   3.04424   3.04467   3.04523
 Alpha virt. eigenvalues --    3.04752   3.05284   3.05370   3.06080   3.06197
 Alpha virt. eigenvalues --    3.06749   3.06997   3.07937   3.08128   3.09348
 Alpha virt. eigenvalues --    3.09363   3.09647   3.10399   3.10512   3.10804
 Alpha virt. eigenvalues --    3.11318   3.11489   3.11882   3.11905   3.12175
 Alpha virt. eigenvalues --    3.12375   3.13233   3.13624   3.13695   3.13710
 Alpha virt. eigenvalues --    3.14010   3.14532   3.15918   3.15989   3.17231
 Alpha virt. eigenvalues --    3.17549   3.17877   3.18062   3.19046   3.19105
 Alpha virt. eigenvalues --    3.22221   3.22644   3.23913   3.24471   3.24624
 Alpha virt. eigenvalues --    3.25228   3.26473   3.26688   3.27430   3.27586
 Alpha virt. eigenvalues --    3.29011   3.29271   3.31410   3.31490   3.33216
 Alpha virt. eigenvalues --    3.33389   3.40316   3.40528   3.42794   3.42827
 Alpha virt. eigenvalues --    3.48621   3.48729   3.49992   3.50316   3.50873
 Alpha virt. eigenvalues --    3.51445   3.56524   3.57028   3.59077   3.59363
 Alpha virt. eigenvalues --    3.62544   3.62801   3.66108   3.66168   3.67095
 Alpha virt. eigenvalues --    3.67594   3.73192   3.74065   3.75989   3.76720
          Condensed to atoms (all electrons):
 Mulliken charges:
               1
     1  Mg   0.838601
     2  C   -0.003283
     3  C   -0.094247
     4  C   -0.045770
     5  C   -0.063705
     6  N   -0.256789
     7  C   -0.052583
     8  C   -0.014040
     9  C   -0.086991
    10  C    0.046239
    11  C    0.104777
    12  C    0.053544
    13  C   -0.071464
    14  H    0.034903
    15  N   -0.433188
    16  C    0.168442
    17  C   -0.177104
    18  C   -0.003881
    19  C    0.148699
    20  C    0.110134
    21  C    0.012327
    22  O   -0.249528
    23  C    0.062436
    24  N   -0.341130
    25  C    0.041295
    26  C   -0.028228
    27  C   -0.024014
    28  C    0.074761
    29  C    0.076133
    30  C    0.035076
    31  C   -0.004596
    32  N   -0.310425
    33  C    0.080301
    34  C   -0.169572
    35  C    0.008268
    36  C    0.082882
    37  C    0.127310
    38  C    0.045970
    39  O   -0.188633
    40  C   -0.005323
    41  C    0.212948
    42  O   -0.257862
    43  O   -0.304518
    44  C    0.157957
    45  H   -0.017547
    46  H   -0.016682
    47  H   -0.041142
    48  H    0.000920
    49  H   -0.004140
    50  H    0.025514
    51  H    0.016650
    52  H    0.016718
    53  H    0.011153
    54  H    0.043527
    55  H    0.018183
    56  H    0.018067
    57  H    0.005812
    58  H    0.026988
    59  H    0.039722
    60  H    0.037422
    61  H    0.035792
    62  H    0.031631
    63  H    0.016620
    64  H    0.009629
    65  H    0.023341
    66  H    0.012523
    67  H    0.004922
    68  H    0.006561
    69  H    0.005082
    70  H    0.008620
    71  H    0.018729
    72  H    0.028685
    73  H    0.047575
    74  H    0.009498
    75  H    0.046088
    76  H    0.035270
    77  H    0.043059
    78  H    0.046324
    79  H    0.052757
    80  Mg   0.837964
    81  C   -0.016756
    82  C   -0.087590
    83  C   -0.045840
    84  C   -0.064988
    85  N   -0.254676
    86  C   -0.049336
    87  C   -0.015220
    88  C   -0.090568
    89  C    0.045905
    90  C    0.114316
    91  C    0.062496
    92  C   -0.077854
    93  H    0.034346
    94  N   -0.423485
    95  C    0.162878
    96  C   -0.174693
    97  C   -0.008200
    98  C    0.152264
    99  C    0.099461
   100  C    0.015287
   101  O   -0.253635
   102  C    0.061308
   103  N   -0.350052
   104  C    0.037621
   105  C   -0.019811
   106  C   -0.034798
   107  C    0.088977
   108  C    0.073690
   109  C    0.034789
   110  C   -0.007612
   111  N   -0.324132
   112  C    0.078594
   113  C   -0.163254
   114  C    0.002367
   115  C    0.096194
   116  C    0.131474
   117  C    0.042350
   118  O   -0.187926
   119  C    0.000943
   120  C    0.211187
   121  O   -0.251339
   122  O   -0.305244
   123  C    0.152140
   124  H   -0.019268
   125  H   -0.016060
   126  H   -0.040697
   127  H    0.000246
   128  H   -0.004596
   129  H    0.023671
   130  H    0.014573
   131  H    0.017914
   132  H    0.013546
   133  H    0.037346
   134  H    0.021653
   135  H    0.019437
   136  H    0.008985
   137  H    0.025609
   138  H    0.039446
   139  H    0.037926
   140  H    0.035917
   141  H    0.033916
   142  H    0.014091
   143  H    0.012498
   144  H    0.024633
   145  H    0.011548
   146  H    0.005928
   147  H    0.006026
   148  H    0.003569
   149  H    0.010751
   150  H    0.017717
   151  H    0.030245
   152  H    0.045818
   153  H    0.008293
   154  H    0.046954
   155  H    0.035972
   156  H    0.043946
   157  H    0.049686
   158  H    0.053223
 Sum of Mulliken charges =  -0.00000
 Mulliken charges with hydrogens summed into heavy atoms:
               1
     1  Mg   0.838601
     2  C   -0.003283
     3  C   -0.111793
     4  C   -0.062451
     5  C   -0.104847
     6  N   -0.256789
     7  C   -0.052583
     8  C   -0.013121
     9  C   -0.091131
    10  C    0.046239
    11  C    0.163658
    12  C    0.108224
    13  C   -0.000310
    15  N   -0.433188
    16  C    0.168442
    17  C   -0.177104
    18  C   -0.003881
    19  C    0.148699
    20  C    0.182656
    21  C    0.012327
    22  O   -0.249528
    23  C    0.167282
    24  N   -0.341130
    25  C    0.041295
    26  C   -0.011609
    27  C   -0.014385
    28  C    0.074761
    29  C    0.116919
    30  C    0.046718
    31  C    0.051438
    32  N   -0.310425
    33  C    0.080301
    34  C   -0.169572
    35  C    0.008268
    36  C    0.082882
    37  C    0.230471
    38  C    0.045970
    39  O   -0.188633
    40  C    0.029947
    41  C    0.212948
    42  O   -0.257862
    43  O   -0.304518
    44  C    0.300096
    80  Mg   0.837964
    81  C   -0.016756
    82  C   -0.106858
    83  C   -0.061900
    84  C   -0.105685
    85  N   -0.254676
    86  C   -0.049336
    87  C   -0.014975
    88  C   -0.095164
    89  C    0.045905
    90  C    0.170474
    91  C    0.113388
    92  C   -0.002418
    94  N   -0.423485
    95  C    0.162878
    96  C   -0.174693
    97  C   -0.008200
    98  C    0.152264
    99  C    0.173502
   100  C    0.015287
   101  O   -0.253635
   102  C    0.169067
   103  N   -0.350052
   104  C    0.037621
   105  C   -0.005720
   106  C   -0.022300
   107  C    0.088977
   108  C    0.115799
   109  C    0.044384
   110  C    0.051101
   111  N   -0.324132
   112  C    0.078594
   113  C   -0.163254
   114  C    0.002367
   115  C    0.096194
   116  C    0.232539
   117  C    0.042350
   118  O   -0.187926
   119  C    0.036915
   120  C    0.211187
   121  O   -0.251339
   122  O   -0.305244
   123  C    0.298995
 Electronic spatial extent (au):  <R**2>=         150074.1653
 Charge=             -0.0000 electrons
 Dipole moment (field-independent basis, Debye):
    X=             -4.6434    Y=              1.9933    Z=              6.2795  Tot=              8.0602
 Quadrupole moment (field-independent basis, Debye-Ang):
   XX=           -518.1171   YY=           -527.0383   ZZ=           -472.5246
   XY=            -19.7169   XZ=              4.3597   YZ=            -26.2995
 Traceless Quadrupole moment (field-independent basis, Debye-Ang):
   XX=            -12.2238   YY=            -21.1449   ZZ=             33.3687
   XY=            -19.7169   XZ=              4.3597   YZ=            -26.2995
 Octapole moment (field-independent basis, Debye-Ang**2):
  XXX=           -635.0964  YYY=           -131.8778  ZZZ=            162.1608  XYY=            281.2436
  XXY=            114.7686  XXZ=            374.5900  XZZ=           -282.4628  YZZ=            -44.1625
  YYZ=             70.7120  XYZ=           -290.4619
 Hexadecapole moment (field-independent basis, Debye-Ang**3):
 XXXX=        -140243.6505 YYYY=         -38205.6460 ZZZZ=         -27768.4677 XXXY=           -390.2686
 XXXZ=            -42.0435 YYYX=          -2162.4422 YYYZ=            -90.0187 ZZZX=           1376.9788
 ZZZY=           -782.1711 XXYY=         -29579.3323 XXZZ=         -26495.3033 YYZZ=         -11140.7682
 XXYZ=          -1000.3178 YYXZ=          -2001.3145 ZZXY=            510.5440
 N-N= 1.424831004266D+04 E-N=-3.797759607709D+04  KE= 4.028802069014D+03
 Leave Link  601 at Sat Sep 11 16:36:34 2021, MaxMem= 23488102400 cpu:              16.6 elap:               0.8
 (Enter /sw/apps/gaussian-16.0/g16/l9999.exe)
 1\1\GINC-BP1-COMPUTE00089\SP\RCAM-B3LYP TD-FC\def2SVP\C68H72Mg2N8O8\OF
 15641\11-Sep-2021\0\\#p cam-b3lyp/Def2SVP td=(nstates=5)\\TDDFT excite
 d states in gaussian\\0,1\Mg,0,0.,0.,0.\C,0,-0.217,-2.218,2.801\C,0,-1
 .255,2.442,2.026\C,0,-0.245,1.85,-2.564\C,0,0.146,-2.824,-2.037\N,0,-0
 .617,-0.009,2.126\C,0,-0.594,-0.908,3.105\C,0,-0.936,-0.309,4.502\C,0,
 -1.773,0.964,4.032\C,0,-1.155,1.168,2.66\C,0,-3.263,0.685,3.863\C,0,0.
 345,0.11,5.299\C,0,0.124,0.397,6.787\H,0,1.168,0.033,7.733\N,0,-0.185,
 1.961,-0.152\C,0,-0.703,2.8,0.777\C,0,-0.62,4.156,0.193\C,0,-0.187,4.0
 15,-1.225\C,0,-0.214,2.583,-1.38\C,0,-0.887,5.406,0.974\C,0,0.181,5.01
 3,-2.277\O,0,0.303,4.69,-3.508\C,0,0.31,6.414,-1.837\N,0,-0.265,-0.413
 ,-2.029\C,0,-0.279,0.569,-2.937\C,0,-0.196,0.024,-4.332\C,0,0.124,-1.5
 33,-4.18\C,0,0.086,-1.632,-2.635\C,0,-1.451,0.205,-5.197\C,0,1.373,-2.
 07,-4.923\C,0,2.626,-1.49,-4.306\N,0,0.15,-2.144,0.303\C,0,0.173,-3.13
 6,-0.688\C,0,0.173,-4.438,0.004\C,0,0.133,-4.111,1.358\C,0,0.083,-2.69
 5,1.502\C,0,0.149,-5.715,-0.623\C,0,0.096,-4.629,2.716\O,0,0.208,-5.74
 7,3.221\C,0,-0.255,-3.428,3.701\C,0,0.717,-3.482,4.848\O,0,1.931,-3.25
 5,4.669\O,0,0.038,-3.556,6.003\C,0,0.943,-3.583,7.183\H,0,-1.859,3.22,
 2.497\H,0,-0.218,2.453,-3.474\H,0,0.276,-3.747,-2.605\H,0,-1.554,-0.94
 9,5.132\H,0,-1.585,1.831,4.665\H,0,-3.484,-0.377,3.969\H,0,-3.511,1.02
 7,2.858\H,0,-3.852,1.301,4.543\H,0,0.669,1.096,4.966\H,0,1.13,-0.639,5
 .189\H,0,-0.844,0.026,7.125\H,0,0.062,1.477,6.921\H,0,-1.344,5.186,1.9
 38\H,0,-1.651,5.963,0.432\H,0,0.007,6.02,1.084\H,0,-0.635,6.744,-1.405
 \H,0,0.665,6.97,-2.704\H,0,1.048,6.466,-1.036\H,0,0.608,0.501,-4.891\H
 ,0,-0.692,-2.156,-4.547\H,0,-1.267,0.74,-6.129\H,0,-2.204,0.714,-4.596
 \H,0,-1.967,-0.72,-5.453\H,0,1.356,-1.759,-5.967\H,0,1.452,-3.157,-4.9
 02\H,0,2.714,-0.522,-4.798\H,0,3.487,-2.121,-4.529\H,0,2.495,-1.303,-3
 .24\H,0,0.867,-6.333,-0.084\H,0,0.404,-5.642,-1.68\H,0,-0.891,-5.999,-
 0.463\H,0,-1.283,-3.581,4.028\H,0,0.698,-4.478,7.755\H,0,0.833,-2.619,
 7.68\H,0,2.,-3.754,6.976\Mg,0,13.14552,1.18028,1.00563\C,0,13.28818,-2
 .38486,0.62024\C,0,12.06834,0.64239,4.19702\C,0,12.57893,4.29388,1.233
 44\C,0,13.11933,1.41581,-2.47137\N,0,12.76706,-0.67653,2.14638\C,0,12.
 91517,-1.97251,1.91649\C,0,12.72654,-2.87316,3.16661\C,0,11.80654,-1.8
 8619,4.03745\C,0,12.26179,-0.54988,3.45461\C,0,10.32108,-2.04698,3.760
 14\C,0,14.08366,-3.18197,3.89109\C,0,14.01655,-4.30119,4.93253\H,0,15.
 17304,-5.17954,5.08584\N,0,12.90433,2.32798,2.60663\C,0,12.48098,1.941
 7,3.82845\C,0,12.45441,3.16211,4.64945\C,0,12.73853,4.32686,3.76778\C,
 0,12.7309,3.68284,2.4696\C,0,12.25724,3.1377,6.13739\C,0,12.96526,5.78
 203,4.04576\O,0,12.95875,6.65569,3.10794\C,0,13.10209,6.16608,5.4583\N
 ,0,12.67327,2.63426,-0.40336\C,0,12.53041,3.92261,-0.04607\C,0,12.4667
 3,4.821,-1.25819\C,0,12.8409,3.88973,-2.50331\C,0,12.97489,2.53462,-1.
 77454\C,0,11.12013,5.49703,-1.51515\C,0,14.01206,4.36139,-3.40807\C,0,
 15.31421,4.29548,-2.64291\N,0,13.37899,-0.19054,-0.64797\C,0,13.3075,0
 .11399,-2.025\C,0,13.41364,-1.1634,-2.75947\C,0,13.51721,-2.13245,-1.7
 5017\C,0,13.45805,-1.50536,-0.47629\C,0,13.35854,-1.31701,-4.1735\C,0,
 13.65245,-3.54432,-1.4726\O,0,13.83721,-4.55027,-2.15645\C,0,13.38304,
 -3.78305,0.07556\C,0,14.47672,-4.66897,0.60615\O,0,15.65362,-4.26856,0
 .64057\O,0,13.92535,-5.75223,1.18313\C,0,14.96994,-6.65599,1.73437\H,0
 ,11.51043,0.58652,5.13217\H,0,12.49147,5.38266,1.25323\H,0,13.21778,1.
 4141,-3.55902\H,0,12.20261,-3.80323,2.98153\H,0,12.05388,-1.94536,5.09
 418\H,0,10.13565,-2.71805,2.93466\H,0,9.95561,-1.05465,3.53046\H,0,9.7
 9919,-2.35727,4.66991\H,0,14.34332,-2.3362,4.54069\H,0,14.85567,-3.397
 51,3.17823\H,0,13.09542,-4.89022,4.84583\H,0,13.9527,-3.84837,5.92495\
 H,0,11.90861,2.15594,6.48091\H,0,11.42563,3.81471,6.36089\H,0,13.14135
 ,3.47113,6.68496\H,0,12.20635,5.87289,6.00066\H,0,13.34713,7.22992,5.4
 4948\H,0,13.93346,5.60177,5.89532\H,0,13.19423,5.62013,-1.1859\H,0,11.
 99885,3.78801,-3.20361\H,0,11.18747,6.60038,-1.5616\H,0,10.43079,5.190
 45,-0.73968\H,0,10.6074,5.17586,-2.42023\H,0,13.87255,5.40688,-3.6938\
 H,0,14.10876,3.78747,-4.32363\H,0,15.31943,5.23562,-2.08326\H,0,16.158
 25,4.23888,-3.32733\H,0,15.30095,3.47755,-1.91321\H,0,14.13797,-2.0179
 9,-4.44113\H,0,13.48798,-0.36405,-4.68229\H,0,12.34432,-1.7089,-4.2877
 4\H,0,12.39977,-4.2456,0.16946\H,0,14.80683,-7.64211,1.28867\H,0,14.88
 103,-6.57944,2.83437\H,0,15.99853,-6.46392,1.45231\\Version=ES64L-G16R
 evA.03\State=1-A\HF=-4069.8119499\RMSD=4.594e-09\PG=C01 [X(C68H72Mg2N8
 O8)]\\@


 You can't act like a skunk without someone's getting wind of it.
 -- Lorene Workman
 Job cpu time:       0 days 11 hours 53 minutes 12.0 seconds.
 Elapsed time:       0 days  0 hours 30 minutes 18.2 seconds.
 File lengths (MBytes):  RWF=  13225 Int=      0 D2E=      0 Chk=    574 Scr=      1
 Normal termination of Gaussian 16 at Sat Sep 11 16:36:34 2021.
