 Entering Gaussian System, Link 0=g16
 Initial command:
 /sw/apps/gaussian-16.0/g16/l1.exe "/tmp/Gau-123277.inp" -scrdir="/tmp/"
 Entering Link 1 = /sw/apps/gaussian-16.0/g16/l1.exe PID=    123278.
  
 Copyright (c) 1988,1990,1992,1993,1995,1998,2003,2009,2016,
            Gaussian, Inc.  All Rights Reserved.
  
 This is part of the Gaussian(R) 16 program.  It is based on
 the Gaussian(R) 09 system (copyright 2009, Gaussian, Inc.),
 the Gaussian(R) 03 system (copyright 2003, Gaussian, Inc.),
 the Gaussian(R) 98 system (copyright 1998, Gaussian, Inc.),
 the Gaussian(R) 94 system (copyright 1995, Gaussian, Inc.),
 the Gaussian 92(TM) system (copyright 1992, Gaussian, Inc.),
 the Gaussian 90(TM) system (copyright 1990, Gaussian, Inc.),
 the Gaussian 88(TM) system (copyright 1988, Gaussian, Inc.),
 the Gaussian 86(TM) system (copyright 1986, Carnegie Mellon
 University), and the Gaussian 82(TM) system (copyright 1983,
 Carnegie Mellon University). Gaussian is a federally registered
 trademark of Gaussian, Inc.
  
 This software contains proprietary and confidential information,
 including trade secrets, belonging to Gaussian, Inc.
  
 This software is provided under written license and may be
 used, copied, transmitted, or stored only in accord with that
 written license.
  
 The following legend is applicable only to US Government
 contracts under FAR:
  
                    RESTRICTED RIGHTS LEGEND
  
 Use, reproduction and disclosure by the US Government is
 subject to restrictions as set forth in subparagraphs (a)
 and (c) of the Commercial Computer Software - Restricted
 Rights clause in FAR 52.227-19.
  
 Gaussian, Inc.
 340 Quinnipiac St., Bldg. 40, Wallingford CT 06492
  
  
 ---------------------------------------------------------------
 Warning -- This program may not be used in any manner that
 competes with the business of Gaussian, Inc. or will provide
 assistance to any competitor of Gaussian, Inc.  The licensee
 of this program is prohibited from giving any competitor of
 Gaussian, Inc. access to this program.  By using this program,
 the user acknowledges that Gaussian, Inc. is engaged in the
 business of creating and licensing software in the field of
 computational chemistry and represents and warrants to the
 licensee that it is not a competitor of Gaussian, Inc. and that
 it will not use this program in any manner prohibited above.
 ---------------------------------------------------------------
  

 Cite this work as:
 Gaussian 16, Revision A.03,
 M. J. Frisch, G. W. Trucks, H. B. Schlegel, G. E. Scuseria, 
 M. A. Robb, J. R. Cheeseman, G. Scalmani, V. Barone, 
 G. A. Petersson, H. Nakatsuji, X. Li, M. Caricato, A. V. Marenich, 
 J. Bloino, B. G. Janesko, R. Gomperts, B. Mennucci, H. P. Hratchian, 
 J. V. Ortiz, A. F. Izmaylov, J. L. Sonnenberg, D. Williams-Young, 
 F. Ding, F. Lipparini, F. Egidi, J. Goings, B. Peng, A. Petrone, 
 T. Henderson, D. Ranasinghe, V. G. Zakrzewski, J. Gao, N. Rega, 
 G. Zheng, W. Liang, M. Hada, M. Ehara, K. Toyota, R. Fukuda, 
 J. Hasegawa, M. Ishida, T. Nakajima, Y. Honda, O. Kitao, H. Nakai, 
 T. Vreven, K. Throssell, J. A. Montgomery, Jr., J. E. Peralta, 
 F. Ogliaro, M. J. Bearpark, J. J. Heyd, E. N. Brothers, K. N. Kudin, 
 V. N. Staroverov, T. A. Keith, R. Kobayashi, J. Normand, 
 K. Raghavachari, A. P. Rendell, J. C. Burant, S. S. Iyengar, 
 J. Tomasi, M. Cossi, J. M. Millam, M. Klene, C. Adamo, R. Cammi, 
 J. W. Ochterski, R. L. Martin, K. Morokuma, O. Farkas, 
 J. B. Foresman, and D. J. Fox, Gaussian, Inc., Wallingford CT, 2016.
 
 ******************************************
 Gaussian 16:  ES64L-G16RevA.03 25-Dec-2016
                 4-Sep-2021 
 ******************************************
 %nproc=24
 Will use up to   24 processors via shared memory.
 %mem=175gb
 -----------------------------------
 #p cam-b3lyp/Def2SVP td=(nstates=5)
 -----------------------------------
 1/38=1,172=1/1;
 2/12=2,17=6,18=5,40=1/2;
 3/5=43,7=101,11=9,25=1,30=1,74=-40/1,2,3,8;
 4//1;
 5/5=2,38=5/2;
 8/6=1,10=1,108=5/1;
 9/41=5,42=1,70=2/14;
 6/7=2,8=2,9=2,10=2/1;
 99/5=1,9=1/99;
 Leave Link    1 at Sat Sep  4 09:58:32 2021, MaxMem= 23488102400 cpu:               0.9 elap:               0.0
 (Enter /sw/apps/gaussian-16.0/g16/l101.exe)
 --------------------------------
 TDDFT excited states in gaussian
 --------------------------------
 Symbolic Z-matrix:
 Charge =  0 Multiplicity = 1
 Mg                    0.        0.        0. 
 C                    -0.217    -2.218     2.801 
 C                    -1.255     2.442     2.026 
 C                    -0.245     1.85     -2.564 
 C                     0.146    -2.824    -2.037 
 N                    -0.617    -0.009     2.126 
 C                    -0.594    -0.908     3.105 
 C                    -0.936    -0.309     4.502 
 C                    -1.773     0.964     4.032 
 C                    -1.155     1.168     2.66 
 C                    -3.263     0.685     3.863 
 C                     0.345     0.11      5.299 
 C                     0.124     0.397     6.787 
 H                     1.168     0.033     7.733 
 N                    -0.185     1.961    -0.152 
 C                    -0.703     2.8       0.777 
 C                    -0.62      4.156     0.193 
 C                    -0.187     4.015    -1.225 
 C                    -0.214     2.583    -1.38 
 C                    -0.887     5.406     0.974 
 C                     0.181     5.013    -2.277 
 O                     0.303     4.69     -3.508 
 C                     0.31      6.414    -1.837 
 N                    -0.265    -0.413    -2.029 
 C                    -0.279     0.569    -2.937 
 C                    -0.196     0.024    -4.332 
 C                     0.124    -1.533    -4.18 
 C                     0.086    -1.632    -2.635 
 C                    -1.451     0.205    -5.197 
 C                     1.373    -2.07     -4.923 
 C                     2.626    -1.49     -4.306 
 N                     0.15     -2.144     0.303 
 C                     0.173    -3.136    -0.688 
 C                     0.173    -4.438     0.004 
 C                     0.133    -4.111     1.358 
 C                     0.083    -2.695     1.502 
 C                     0.149    -5.715    -0.623 
 C                     0.096    -4.629     2.716 
 O                     0.208    -5.747     3.221 
 C                    -0.255    -3.428     3.701 
 C                     0.717    -3.482     4.848 
 O                     1.931    -3.255     4.669 
 O                     0.038    -3.556     6.003 
 C                     0.943    -3.583     7.183 
 H                    -1.859     3.22      2.497 
 H                    -0.218     2.453    -3.474 
 H                     0.276    -3.747    -2.605 
 H                    -1.554    -0.949     5.132 
 H                    -1.585     1.831     4.665 
 H                    -3.484    -0.377     3.969 
 H                    -3.511     1.027     2.858 
 H                    -3.852     1.301     4.543 
 H                     0.669     1.096     4.966 
 H                     1.13     -0.639     5.189 
 H                    -0.844     0.026     7.125 
 H                     0.062     1.477     6.921 
 H                    -1.344     5.186     1.938 
 H                    -1.651     5.963     0.432 
 H                     0.007     6.02      1.084 
 H                    -0.635     6.744    -1.405 
 H                     0.665     6.97     -2.704 
 H                     1.048     6.466    -1.036 
 H                     0.608     0.501    -4.891 
 H                    -0.692    -2.156    -4.547 
 H                    -1.267     0.74     -6.129 
 H                    -2.204     0.714    -4.596 
 H                    -1.967    -0.72     -5.453 
 H                     1.356    -1.759    -5.967 
 H                     1.452    -3.157    -4.902 
 H                     2.714    -0.522    -4.798 
 H                     3.487    -2.121    -4.529 
 H                     2.495    -1.303    -3.24 
 H                     0.867    -6.333    -0.084 
 H                     0.404    -5.642    -1.68 
 H                    -0.891    -5.999    -0.463 
 H                    -1.283    -3.581     4.028 
 H                     0.698    -4.478     7.755 
 H                     0.833    -2.619     7.68 
 H                     2.       -3.754     6.976 
 Mg                    13.14488   1.19033   1.00209 
 C                     12.72244   0.61007   4.51833 
 C                     11.93844   4.3371    1.52831 
 C                     13.07954   1.58441  -2.14558 
 C                     13.21911  -2.26847   0.58146 
 N                     12.45393   2.22331   2.83179 
 C                     12.39697   1.92361   4.12069 
 C                     12.04432   3.12032   5.04432 
 C                     11.27852   4.03579   3.96992 
 C                     11.95201   3.53183   2.69513 
 C                     9.79169   3.73636   3.87503 
 C                     13.32136   3.83913   5.60512 
 C                     13.05744   4.81655   6.75262 
 H                     14.05563   4.93179   7.81225 
 N                     13.06165   2.84994  -0.08296 
 C                     12.56011   4.04462   0.29449 
 C                     12.71432   4.93146  -0.86908 
 C                     13.19684   4.11807  -2.01812 
 C                     13.10962   2.7863   -1.45342 
 C                     12.48911   6.41389  -0.79784 
 C                     13.64835   4.47802  -3.40115 
 O                     13.79848   3.58984  -4.31297 
 C                     13.81946   5.91081  -3.68281 
 N                     12.93661  -0.14056  -0.58149 
 C                     12.99524   0.28597  -1.85528 
 C                     13.09782  -0.87525  -2.81519 
 C                     13.34054  -2.16637  -1.90323 
 C                     13.24298  -1.51231  -0.5075 
 C                     11.88151  -1.10691  -3.71146 
 C                     14.5881  -3.03289  -2.22788 
 C                     15.849   -2.26057  -1.91315 
 N                     13.18576  -0.5342    2.30302 
 C                     13.18862  -1.89293   1.9184 
 C                     13.10228  -2.69577   3.1555 
 C                     13.0314  -1.74058   4.18072 
 C                     13.05044  -0.43463   3.62068 
 C                     13.04871  -4.11657   3.2231 
 C                     12.9341  -1.54013   5.60867 
 O                     12.96785  -2.27673   6.59357 
 C                     12.60223  -0.01005   5.88274 
 C                     13.53045   0.48089   6.95972 
 O                     14.75543   0.54819   6.756 
 O                     12.80267   0.99209   7.96936 
 C                     13.67921   1.50221   9.05714 
 H                     11.36208   5.26255   1.5433 
 H                     13.16699   1.66346  -3.23167 
 H                     13.33553  -3.3536    0.54131 
 H                     11.3818   2.87937   5.86699 
 H                     11.49421   5.08988   4.12398 
 H                     9.51618   2.87343   4.46288 
 H                     9.59381   3.55845   2.82611 
 H                     9.21065   4.62277   4.14522 
 H                     13.70124   4.53679   4.84769 
 H                     14.06164   3.12261   5.90381 
 H                     12.05567   4.68898   7.18057 
 H                     13.04903   5.83181   6.34868 
 H                     11.98186   6.69947   0.13197 
 H                     11.77261   6.66676  -1.58685 
 H                     13.4052   6.98716  -0.95539 
 H                     12.87877   6.42788  -3.50902 
 H                     14.2316   5.96298  -4.69241 
 H                     14.54191   6.32366  -2.9699 
 H                     13.94235  -0.75227  -3.48209 
 H                     12.50576  -2.87896  -1.97538 
 H                     12.12526  -1.09176  -4.79054 
 H                     11.1382  -0.35593  -3.47895 
 H                     11.34034  -2.03302  -3.52527 
 H                     14.62274  -3.26175  -3.29586 
 H                     14.60818  -3.9778   -1.69522 
 H                     15.99446  -1.64986  -2.80923 
 H                     16.68527  -2.93927  -1.75803 
 H                     15.692   -1.57729  -1.07047 
 H                     13.71067  -4.41529   4.02502 
 H                     13.338   -4.57077   2.2777 
 H                     11.98708  -4.26161   3.44033 
 H                     11.55612   0.04911   6.18561 
 H                     13.36852   1.00127   9.97922 
 H                     13.58396   2.60388   9.02571 
 H                     14.73017   1.24066   9.01816 
 
 ITRead=  0  0  0  0  0  0  0  0  0  0  0  0  0  0  0  0  0  0  0  0
 ITRead=  0  0  0  0  0  0  0  0  0  0  0  0  0  0  0  0  0  0  0  0
 ITRead=  0  0  0  0  0  0  0  0  0  0  0  0  0  0  0  0  0  0  0  0
 ITRead=  0  0  0  0  0  0  0  0  0  0  0  0  0  0  0  0  0  0  0  0
 ITRead=  0  0  0  0  0  0  0  0  0  0  0  0  0  0  0  0  0  0  0  0
 ITRead=  0  0  0  0  0  0  0  0  0  0  0  0  0  0  0  0  0  0  0  0
 ITRead=  0  0  0  0  0  0  0  0  0  0  0  0  0  0  0  0  0  0  0  0
 ITRead=  0  0  0  0  0  0  0  0  0  0  0  0  0  0  0  0  0  0
 MicOpt= -1 -1 -1 -1 -1 -1 -1 -1 -1 -1 -1 -1 -1 -1 -1 -1 -1 -1 -1 -1
 MicOpt= -1 -1 -1 -1 -1 -1 -1 -1 -1 -1 -1 -1 -1 -1 -1 -1 -1 -1 -1 -1
 MicOpt= -1 -1 -1 -1 -1 -1 -1 -1 -1 -1 -1 -1 -1 -1 -1 -1 -1 -1 -1 -1
 MicOpt= -1 -1 -1 -1 -1 -1 -1 -1 -1 -1 -1 -1 -1 -1 -1 -1 -1 -1 -1 -1
 MicOpt= -1 -1 -1 -1 -1 -1 -1 -1 -1 -1 -1 -1 -1 -1 -1 -1 -1 -1 -1 -1
 MicOpt= -1 -1 -1 -1 -1 -1 -1 -1 -1 -1 -1 -1 -1 -1 -1 -1 -1 -1 -1 -1
 MicOpt= -1 -1 -1 -1 -1 -1 -1 -1 -1 -1 -1 -1 -1 -1 -1 -1 -1 -1 -1 -1
 MicOpt= -1 -1 -1 -1 -1 -1 -1 -1 -1 -1 -1 -1 -1 -1 -1 -1 -1 -1
 NAtoms=    158 NQM=      158 NQMF=       0 NMMI=      0 NMMIF=      0
                NMic=       0 NMicF=      0.
                    Isotopes and Nuclear Properties:
 (Nuclear quadrupole moments (NQMom) in fm**2, nuclear magnetic moments (NMagM)
  in nuclear magnetons)

  Atom         1           2           3           4           5           6           7           8           9          10
 IAtWgt=          24          12          12          12          12          14          12          12          12          12
 AtmWgt=  23.9850450  12.0000000  12.0000000  12.0000000  12.0000000  14.0030740  12.0000000  12.0000000  12.0000000  12.0000000
 NucSpn=           0           0           0           0           0           2           0           0           0           0
 AtZEff=  -0.0000000  -0.0000000  -0.0000000  -0.0000000  -0.0000000  -0.0000000  -0.0000000  -0.0000000  -0.0000000  -0.0000000
 NQMom=    0.0000000   0.0000000   0.0000000   0.0000000   0.0000000   2.0440000   0.0000000   0.0000000   0.0000000   0.0000000
 NMagM=    0.0000000   0.0000000   0.0000000   0.0000000   0.0000000   0.4037610   0.0000000   0.0000000   0.0000000   0.0000000
 AtZNuc=  12.0000000   6.0000000   6.0000000   6.0000000   6.0000000   7.0000000   6.0000000   6.0000000   6.0000000   6.0000000

  Atom        11          12          13          14          15          16          17          18          19          20
 IAtWgt=          12          12          12           1          14          12          12          12          12          12
 AtmWgt=  12.0000000  12.0000000  12.0000000   1.0078250  14.0030740  12.0000000  12.0000000  12.0000000  12.0000000  12.0000000
 NucSpn=           0           0           0           1           2           0           0           0           0           0
 AtZEff=  -0.0000000  -0.0000000  -0.0000000  -0.0000000  -0.0000000  -0.0000000  -0.0000000  -0.0000000  -0.0000000  -0.0000000
 NQMom=    0.0000000   0.0000000   0.0000000   0.0000000   2.0440000   0.0000000   0.0000000   0.0000000   0.0000000   0.0000000
 NMagM=    0.0000000   0.0000000   0.0000000   2.7928460   0.4037610   0.0000000   0.0000000   0.0000000   0.0000000   0.0000000
 AtZNuc=   6.0000000   6.0000000   6.0000000   1.0000000   7.0000000   6.0000000   6.0000000   6.0000000   6.0000000   6.0000000

  Atom        21          22          23          24          25          26          27          28          29          30
 IAtWgt=          12          16          12          14          12          12          12          12          12          12
 AtmWgt=  12.0000000  15.9949146  12.0000000  14.0030740  12.0000000  12.0000000  12.0000000  12.0000000  12.0000000  12.0000000
 NucSpn=           0           0           0           2           0           0           0           0           0           0
 AtZEff=  -0.0000000  -0.0000000  -0.0000000  -0.0000000  -0.0000000  -0.0000000  -0.0000000  -0.0000000  -0.0000000  -0.0000000
 NQMom=    0.0000000   0.0000000   0.0000000   2.0440000   0.0000000   0.0000000   0.0000000   0.0000000   0.0000000   0.0000000
 NMagM=    0.0000000   0.0000000   0.0000000   0.4037610   0.0000000   0.0000000   0.0000000   0.0000000   0.0000000   0.0000000
 AtZNuc=   6.0000000   8.0000000   6.0000000   7.0000000   6.0000000   6.0000000   6.0000000   6.0000000   6.0000000   6.0000000

  Atom        31          32          33          34          35          36          37          38          39          40
 IAtWgt=          12          14          12          12          12          12          12          12          16          12
 AtmWgt=  12.0000000  14.0030740  12.0000000  12.0000000  12.0000000  12.0000000  12.0000000  12.0000000  15.9949146  12.0000000
 NucSpn=           0           2           0           0           0           0           0           0           0           0
 AtZEff=  -0.0000000  -0.0000000  -0.0000000  -0.0000000  -0.0000000  -0.0000000  -0.0000000  -0.0000000  -0.0000000  -0.0000000
 NQMom=    0.0000000   2.0440000   0.0000000   0.0000000   0.0000000   0.0000000   0.0000000   0.0000000   0.0000000   0.0000000
 NMagM=    0.0000000   0.4037610   0.0000000   0.0000000   0.0000000   0.0000000   0.0000000   0.0000000   0.0000000   0.0000000
 AtZNuc=   6.0000000   7.0000000   6.0000000   6.0000000   6.0000000   6.0000000   6.0000000   6.0000000   8.0000000   6.0000000

  Atom        41          42          43          44          45          46          47          48          49          50
 IAtWgt=          12          16          16          12           1           1           1           1           1           1
 AtmWgt=  12.0000000  15.9949146  15.9949146  12.0000000   1.0078250   1.0078250   1.0078250   1.0078250   1.0078250   1.0078250
 NucSpn=           0           0           0           0           1           1           1           1           1           1
 AtZEff=  -0.0000000  -0.0000000  -0.0000000  -0.0000000  -0.0000000  -0.0000000  -0.0000000  -0.0000000  -0.0000000  -0.0000000
 NQMom=    0.0000000   0.0000000   0.0000000   0.0000000   0.0000000   0.0000000   0.0000000   0.0000000   0.0000000   0.0000000
 NMagM=    0.0000000   0.0000000   0.0000000   0.0000000   2.7928460   2.7928460   2.7928460   2.7928460   2.7928460   2.7928460
 AtZNuc=   6.0000000   8.0000000   8.0000000   6.0000000   1.0000000   1.0000000   1.0000000   1.0000000   1.0000000   1.0000000

  Atom        51          52          53          54          55          56          57          58          59          60
 IAtWgt=           1           1           1           1           1           1           1           1           1           1
 AtmWgt=   1.0078250   1.0078250   1.0078250   1.0078250   1.0078250   1.0078250   1.0078250   1.0078250   1.0078250   1.0078250
 NucSpn=           1           1           1           1           1           1           1           1           1           1
 AtZEff=  -0.0000000  -0.0000000  -0.0000000  -0.0000000  -0.0000000  -0.0000000  -0.0000000  -0.0000000  -0.0000000  -0.0000000
 NQMom=    0.0000000   0.0000000   0.0000000   0.0000000   0.0000000   0.0000000   0.0000000   0.0000000   0.0000000   0.0000000
 NMagM=    2.7928460   2.7928460   2.7928460   2.7928460   2.7928460   2.7928460   2.7928460   2.7928460   2.7928460   2.7928460
 AtZNuc=   1.0000000   1.0000000   1.0000000   1.0000000   1.0000000   1.0000000   1.0000000   1.0000000   1.0000000   1.0000000

  Atom        61          62          63          64          65          66          67          68          69          70
 IAtWgt=           1           1           1           1           1           1           1           1           1           1
 AtmWgt=   1.0078250   1.0078250   1.0078250   1.0078250   1.0078250   1.0078250   1.0078250   1.0078250   1.0078250   1.0078250
 NucSpn=           1           1           1           1           1           1           1           1           1           1
 AtZEff=  -0.0000000  -0.0000000  -0.0000000  -0.0000000  -0.0000000  -0.0000000  -0.0000000  -0.0000000  -0.0000000  -0.0000000
 NQMom=    0.0000000   0.0000000   0.0000000   0.0000000   0.0000000   0.0000000   0.0000000   0.0000000   0.0000000   0.0000000
 NMagM=    2.7928460   2.7928460   2.7928460   2.7928460   2.7928460   2.7928460   2.7928460   2.7928460   2.7928460   2.7928460
 AtZNuc=   1.0000000   1.0000000   1.0000000   1.0000000   1.0000000   1.0000000   1.0000000   1.0000000   1.0000000   1.0000000

  Atom        71          72          73          74          75          76          77          78          79          80
 IAtWgt=           1           1           1           1           1           1           1           1           1          24
 AtmWgt=   1.0078250   1.0078250   1.0078250   1.0078250   1.0078250   1.0078250   1.0078250   1.0078250   1.0078250  23.9850450
 NucSpn=           1           1           1           1           1           1           1           1           1           0
 AtZEff=  -0.0000000  -0.0000000  -0.0000000  -0.0000000  -0.0000000  -0.0000000  -0.0000000  -0.0000000  -0.0000000  -0.0000000
 NQMom=    0.0000000   0.0000000   0.0000000   0.0000000   0.0000000   0.0000000   0.0000000   0.0000000   0.0000000   0.0000000
 NMagM=    2.7928460   2.7928460   2.7928460   2.7928460   2.7928460   2.7928460   2.7928460   2.7928460   2.7928460   0.0000000
 AtZNuc=   1.0000000   1.0000000   1.0000000   1.0000000   1.0000000   1.0000000   1.0000000   1.0000000   1.0000000  12.0000000

  Atom        81          82          83          84          85          86          87          88          89          90
 IAtWgt=          12          12          12          12          14          12          12          12          12          12
 AtmWgt=  12.0000000  12.0000000  12.0000000  12.0000000  14.0030740  12.0000000  12.0000000  12.0000000  12.0000000  12.0000000
 NucSpn=           0           0           0           0           2           0           0           0           0           0
 AtZEff=  -0.0000000  -0.0000000  -0.0000000  -0.0000000  -0.0000000  -0.0000000  -0.0000000  -0.0000000  -0.0000000  -0.0000000
 NQMom=    0.0000000   0.0000000   0.0000000   0.0000000   2.0440000   0.0000000   0.0000000   0.0000000   0.0000000   0.0000000
 NMagM=    0.0000000   0.0000000   0.0000000   0.0000000   0.4037610   0.0000000   0.0000000   0.0000000   0.0000000   0.0000000
 AtZNuc=   6.0000000   6.0000000   6.0000000   6.0000000   7.0000000   6.0000000   6.0000000   6.0000000   6.0000000   6.0000000

  Atom        91          92          93          94          95          96          97          98          99         100
 IAtWgt=          12          12           1          14          12          12          12          12          12          12
 AtmWgt=  12.0000000  12.0000000   1.0078250  14.0030740  12.0000000  12.0000000  12.0000000  12.0000000  12.0000000  12.0000000
 NucSpn=           0           0           1           2           0           0           0           0           0           0
 AtZEff=  -0.0000000  -0.0000000  -0.0000000  -0.0000000  -0.0000000  -0.0000000  -0.0000000  -0.0000000  -0.0000000  -0.0000000
 NQMom=    0.0000000   0.0000000   0.0000000   2.0440000   0.0000000   0.0000000   0.0000000   0.0000000   0.0000000   0.0000000
 NMagM=    0.0000000   0.0000000   2.7928460   0.4037610   0.0000000   0.0000000   0.0000000   0.0000000   0.0000000   0.0000000
 AtZNuc=   6.0000000   6.0000000   1.0000000   7.0000000   6.0000000   6.0000000   6.0000000   6.0000000   6.0000000   6.0000000

  Atom       101         102         103         104         105         106         107         108         109         110
 IAtWgt=          16          12          14          12          12          12          12          12          12          12
 AtmWgt=  15.9949146  12.0000000  14.0030740  12.0000000  12.0000000  12.0000000  12.0000000  12.0000000  12.0000000  12.0000000
 NucSpn=           0           0           2           0           0           0           0           0           0           0
 AtZEff=  -0.0000000  -0.0000000  -0.0000000  -0.0000000  -0.0000000  -0.0000000  -0.0000000  -0.0000000  -0.0000000  -0.0000000
 NQMom=    0.0000000   0.0000000   2.0440000   0.0000000   0.0000000   0.0000000   0.0000000   0.0000000   0.0000000   0.0000000
 NMagM=    0.0000000   0.0000000   0.4037610   0.0000000   0.0000000   0.0000000   0.0000000   0.0000000   0.0000000   0.0000000
 AtZNuc=   8.0000000   6.0000000   7.0000000   6.0000000   6.0000000   6.0000000   6.0000000   6.0000000   6.0000000   6.0000000

  Atom       111         112         113         114         115         116         117         118         119         120
 IAtWgt=          14          12          12          12          12          12          12          16          12          12
 AtmWgt=  14.0030740  12.0000000  12.0000000  12.0000000  12.0000000  12.0000000  12.0000000  15.9949146  12.0000000  12.0000000
 NucSpn=           2           0           0           0           0           0           0           0           0           0
 AtZEff=  -0.0000000  -0.0000000  -0.0000000  -0.0000000  -0.0000000  -0.0000000  -0.0000000  -0.0000000  -0.0000000  -0.0000000
 NQMom=    2.0440000   0.0000000   0.0000000   0.0000000   0.0000000   0.0000000   0.0000000   0.0000000   0.0000000   0.0000000
 NMagM=    0.4037610   0.0000000   0.0000000   0.0000000   0.0000000   0.0000000   0.0000000   0.0000000   0.0000000   0.0000000
 AtZNuc=   7.0000000   6.0000000   6.0000000   6.0000000   6.0000000   6.0000000   6.0000000   8.0000000   6.0000000   6.0000000

  Atom       121         122         123         124         125         126         127         128         129         130
 IAtWgt=          16          16          12           1           1           1           1           1           1           1
 AtmWgt=  15.9949146  15.9949146  12.0000000   1.0078250   1.0078250   1.0078250   1.0078250   1.0078250   1.0078250   1.0078250
 NucSpn=           0           0           0           1           1           1           1           1           1           1
 AtZEff=  -0.0000000  -0.0000000  -0.0000000  -0.0000000  -0.0000000  -0.0000000  -0.0000000  -0.0000000  -0.0000000  -0.0000000
 NQMom=    0.0000000   0.0000000   0.0000000   0.0000000   0.0000000   0.0000000   0.0000000   0.0000000   0.0000000   0.0000000
 NMagM=    0.0000000   0.0000000   0.0000000   2.7928460   2.7928460   2.7928460   2.7928460   2.7928460   2.7928460   2.7928460
 AtZNuc=   8.0000000   8.0000000   6.0000000   1.0000000   1.0000000   1.0000000   1.0000000   1.0000000   1.0000000   1.0000000

  Atom       131         132         133         134         135         136         137         138         139         140
 IAtWgt=           1           1           1           1           1           1           1           1           1           1
 AtmWgt=   1.0078250   1.0078250   1.0078250   1.0078250   1.0078250   1.0078250   1.0078250   1.0078250   1.0078250   1.0078250
 NucSpn=           1           1           1           1           1           1           1           1           1           1
 AtZEff=  -0.0000000  -0.0000000  -0.0000000  -0.0000000  -0.0000000  -0.0000000  -0.0000000  -0.0000000  -0.0000000  -0.0000000
 NQMom=    0.0000000   0.0000000   0.0000000   0.0000000   0.0000000   0.0000000   0.0000000   0.0000000   0.0000000   0.0000000
 NMagM=    2.7928460   2.7928460   2.7928460   2.7928460   2.7928460   2.7928460   2.7928460   2.7928460   2.7928460   2.7928460
 AtZNuc=   1.0000000   1.0000000   1.0000000   1.0000000   1.0000000   1.0000000   1.0000000   1.0000000   1.0000000   1.0000000

  Atom       141         142         143         144         145         146         147         148         149         150
 IAtWgt=           1           1           1           1           1           1           1           1           1           1
 AtmWgt=   1.0078250   1.0078250   1.0078250   1.0078250   1.0078250   1.0078250   1.0078250   1.0078250   1.0078250   1.0078250
 NucSpn=           1           1           1           1           1           1           1           1           1           1
 AtZEff=  -0.0000000  -0.0000000  -0.0000000  -0.0000000  -0.0000000  -0.0000000  -0.0000000  -0.0000000  -0.0000000  -0.0000000
 NQMom=    0.0000000   0.0000000   0.0000000   0.0000000   0.0000000   0.0000000   0.0000000   0.0000000   0.0000000   0.0000000
 NMagM=    2.7928460   2.7928460   2.7928460   2.7928460   2.7928460   2.7928460   2.7928460   2.7928460   2.7928460   2.7928460
 AtZNuc=   1.0000000   1.0000000   1.0000000   1.0000000   1.0000000   1.0000000   1.0000000   1.0000000   1.0000000   1.0000000

  Atom       151         152         153         154         155         156         157         158
 IAtWgt=           1           1           1           1           1           1           1           1
 AtmWgt=   1.0078250   1.0078250   1.0078250   1.0078250   1.0078250   1.0078250   1.0078250   1.0078250
 NucSpn=           1           1           1           1           1           1           1           1
 AtZEff=  -0.0000000  -0.0000000  -0.0000000  -0.0000000  -0.0000000  -0.0000000  -0.0000000  -0.0000000
 NQMom=    0.0000000   0.0000000   0.0000000   0.0000000   0.0000000   0.0000000   0.0000000   0.0000000
 NMagM=    2.7928460   2.7928460   2.7928460   2.7928460   2.7928460   2.7928460   2.7928460   2.7928460
 AtZNuc=   1.0000000   1.0000000   1.0000000   1.0000000   1.0000000   1.0000000   1.0000000   1.0000000
 Leave Link  101 at Sat Sep  4 09:58:32 2021, MaxMem= 23488102400 cpu:               3.6 elap:               0.2
 (Enter /sw/apps/gaussian-16.0/g16/l202.exe)
 Stoichiometry    C68H72Mg2N8O8
 Framework group  C1[X(C68H72Mg2N8O8)]
 Deg. of freedom   468
 Full point group                 C1      NOp   1
 Largest Abelian subgroup         C1      NOp   1
 Largest concise Abelian subgroup C1      NOp   1
                         Standard orientation:                         
 ---------------------------------------------------------------------
 Center     Atomic      Atomic             Coordinates (Angstroms)
 Number     Number       Type             X           Y           Z
 ---------------------------------------------------------------------
      1         12           0       -6.536357   -0.718707   -0.112266
      2          6           0       -6.752379    2.683132    0.979997
      3          6           0       -7.315193    0.393037   -3.242842
      4          6           0       -6.798173   -3.750195   -1.005660
      5          6           0       -6.899428   -1.658276    3.224057
      6          7           0       -6.955878    1.305044   -0.905412
      7          6           0       -6.947777    2.532340   -0.394676
      8          6           0       -7.091368    3.650152   -1.470432
      9          6           0       -7.815953    2.807640   -2.613738
     10          6           0       -7.305034    1.423116   -2.255997
     11          6           0       -9.337242    2.813449   -2.503517
     12          6           0       -5.704111    4.194040   -1.951509
     13          6           0       -5.755537    5.499496   -2.750567
     14          1           0       -4.679026    6.464488   -2.585450
     15          7           0       -6.508367   -1.530661   -1.913043
     16          6           0       -6.840816   -0.926442   -3.079098
     17          6           0       -6.656022   -1.946328   -4.133785
     18          6           0       -6.371813   -3.246288   -3.464889
     19          6           0       -6.576624   -2.895300   -2.082775
     20          6           0       -6.706415   -1.634315   -5.597977
     21          6           0       -5.988341   -4.594006   -3.989043
     22          8           0       -6.015782   -5.641643   -3.256733
     23          6           0       -5.660447   -4.671801   -5.424130
     24          7           0       -7.029006   -2.465555    0.918972
     25          6           0       -7.012282   -3.655408    0.308272
     26          6           0       -7.118552   -4.778236    1.297162
     27          6           0       -6.966688   -4.112082    2.740397
     28          6           0       -6.876162   -2.628086    2.306999
     29          6           0       -8.417465   -5.594455    1.245950
     30          6           0       -5.859660   -4.679613    3.663877
     31          6           0       -4.497900   -4.358813    3.089597
     32          7           0       -6.606314    0.299624    1.803237
     33          6           0       -6.786700   -0.287304    3.064050
     34          6           0       -6.873445    0.811363    4.043578
     35          6           0       -6.753319    1.969170    3.277486
     36          6           0       -6.627511    1.616905    1.903305
     37          6           0       -7.100131    0.666252    5.440715
     38          6           0       -6.726702    3.422700    3.297430
     39          8           0       -6.698439    4.277401    4.184098
     40          6           0       -6.847398    3.946670    1.798525
     41          6           0       -5.788447    4.996157    1.597258
     42          8           0       -4.577578    4.694714    1.614409
     43          8           0       -6.364404    6.135133    1.183071
     44          6           0       -5.365663    7.209262    0.936258
     45          1           0       -7.781055    0.592995   -4.209760
     46          1           0       -6.784501   -4.812769   -1.257032
     47          1           0       -6.927867   -1.877467    4.292981
     48          1           0       -7.719232    4.489963   -1.172223
     49          1           0       -7.473466    3.092651   -3.608320
     50          1           0       -9.668015    3.289974   -1.580785
     51          1           0       -9.634115    1.764568   -2.517938
     52          1           0       -9.787964    3.264613   -3.387869
     53          1           0       -5.300640    3.526350   -2.712733
     54          1           0       -5.023274    4.314171   -1.108089
     55          1           0       -6.725187    5.988555   -2.653057
     56          1           0       -5.681009    5.254557   -3.810119
     57          1           0       -7.096720   -0.633977   -5.781093
     58          1           0       -7.447335   -2.300111   -6.040088
     59          1           0       -5.741685   -1.784127   -6.082935
     60          1           0       -6.518524   -4.338018   -6.007948
     61          1           0       -5.323790   -5.692741   -5.600746
     62          1           0       -4.852079   -3.972603   -5.640026
     63          1           0       -6.318949   -5.503612    1.152629
     64          1           0       -7.878483   -4.203577    3.331102
     65          1           0       -8.258252   -6.661280    1.087080
     66          1           0       -9.049827   -5.172887    0.465123
     67          1           0       -9.057059   -5.491159    2.122115
     68          1           0       -5.935077   -5.764835    3.723482
     69          1           0       -5.904180   -4.287755    4.680103
     70          1           0       -4.344320   -5.158571    2.365972
     71          1           0       -3.738554   -4.388839    3.871712
     72          1           0       -4.509843   -3.418398    2.538270
     73          1           0       -6.411981    1.352416    5.934271
     74          1           0       -6.934907   -0.361247    5.764056
     75          1           0       -8.147109    0.961681    5.507167
     76          1           0       -7.852416    4.352786    1.688394
     77          1           0       -5.658976    8.065903    1.543191
     78          1           0       -5.319148    7.346827   -0.144167
     79          1           0       -4.358253    7.026301    1.311743
     80         12           0        6.694768   -0.788732    0.263729
     81          6           0        6.527754    2.726648   -0.438631
     82          6           0        5.909357   -1.328493   -3.011382
     83          6           0        6.391154   -3.872130    0.947741
     84          6           0        6.333853    0.009344    3.636940
     85          7           0        6.294753    0.600470   -1.410298
     86          6           0        6.320404    1.914680   -1.573157
     87          6           0        6.192045    2.382688   -3.047627
     88          6           0        5.442367    1.094064   -3.644535
     89          6           0        5.935824    0.042863   -2.652501
     90          6           0        3.928562    1.176251   -3.539807
     91          6           0        7.588421    2.601736   -3.728924
     92          6           0        7.542921    3.351339   -5.062260
     93          1           0        8.639289    4.259243   -5.388089
     94          7           0        6.704675   -2.375622   -0.928013
     95          6           0        6.379483   -2.412045   -2.237286
     96          6           0        6.528643   -3.816183   -2.649973
     97          6           0        6.809064   -4.633873   -1.438582
     98          6           0        6.621130   -3.640260   -0.400546
     99          6           0        6.482160   -4.251639   -4.085804
    100          6           0        7.172150   -6.075075   -1.245444
    101          8           0        7.136580   -6.629462   -0.090364
    102          6           0        7.480204   -6.842146   -2.461257
    103          7           0        6.193258   -1.803384    2.007673
    104          6           0        6.185158   -3.147352    2.047555
    105          6           0        6.066915   -3.650261    3.466527
    106          6           0        6.241396   -2.360237    4.395488
    107          6           0        6.345826   -1.273764    3.302764
    108          6           0        4.756164   -4.354893    3.815529
    109          6           0        7.347000   -2.421694    5.484764
    110          6           0        8.711330   -2.451038    4.834267
    111          7           0        6.655011    1.024858    1.437358
    112          6           0        6.467410    1.133949    2.832705
    113          6           0        6.401658    2.574877    3.151805
    114          6           0        6.533547    3.208780    1.907112
    115          6           0        6.651492    2.231561    0.882102
    116          6           0        6.191939    3.131832    4.444836
    117          6           0        6.589158    4.482249    1.226030
    118          8           0        6.627037    5.658445    1.585022
    119          6           0        6.460926    4.225272   -0.337273
    120          6           0        7.532695    5.022742   -1.028542
    121          8           0        8.733893    4.752838   -0.852811
    122          8           0        6.962423    5.825398   -1.945546
    123          6           0        7.986238    6.628710   -2.665478
    124          1           0        5.446573   -1.608156   -3.958215
    125          1           0        6.388688   -4.921366    1.252020
    126          1           0        6.321047    0.341542    4.677206
    127          1           0        5.583260    3.267154   -3.192121
    128          1           0        5.790455    0.864256   -4.648220
    129          1           0        3.610172    2.038048   -2.972308
    130          1           0        3.617726    0.263656   -3.048285
    131          1           0        3.479711    1.149480   -4.536877
    132          1           0        7.975818    1.633388   -4.070923
    133          1           0        8.265630    3.095716   -3.059593
    134          1           0        6.575878    3.842086   -5.226437
    135          1           0        7.614487    2.622161   -5.872920
    136          1           0        6.096997   -3.455836   -4.735228
    137          1           0        5.731082   -5.045968   -4.154899
    138          1           0        7.439925   -4.639135   -4.439660
    139          1           0        6.624521   -6.815234   -3.131739
    140          1           0        7.802778   -7.825165   -2.112699
    141          1           0        8.306591   -6.349546   -2.985709
    142          1           0        6.856304   -4.356227    3.693658
    143          1           0        5.327371   -2.143561    4.967726
    144          1           0        4.901636   -5.382577    4.198624
    145          1           0        4.127857   -4.362782    2.934785
    146          1           0        4.131458   -3.835628    4.540317
    147          1           0        7.258638   -3.345112    6.062387
    148          1           0        7.306660   -1.596725    6.188173
    149          1           0        8.844334   -3.508617    4.587447
    150          1           0        9.474876   -2.109058    5.530033
    151          1           0        8.710381   -1.890306    3.892349
    152          1           0        6.884971    3.956592    4.544724
    153          1           0        6.340743    2.389620    5.226339
    154          1           0        5.144653    3.433845    4.359599
    155          1           0        5.460127    4.536254   -0.639377
    156          1           0        7.704698    7.680225   -2.552549
    157          1           0        8.015422    6.222744   -3.694107
    158          1           0        8.992462    6.634802   -2.263085
 ---------------------------------------------------------------------
 Rotational constants (GHZ):           0.0202516           0.0081638           0.0074174
 Leave Link  202 at Sat Sep  4 09:58:32 2021, MaxMem= 23488102400 cpu:               0.2 elap:               0.0
 (Enter /sw/apps/gaussian-16.0/g16/l301.exe)
 Standard basis: def2SVP (5D, 7F)
 Ernie: Thresh=  0.10000D-02 Tol=  0.10000D-05 Strict=F.
 There are  1658 symmetry adapted cartesian basis functions of A   symmetry.
 There are  1572 symmetry adapted basis functions of A   symmetry.
  1572 basis functions,  2678 primitive gaussians,  1658 cartesian basis functions
   312 alpha electrons      312 beta electrons
       nuclear repulsion energy     14249.8297317699 Hartrees.
 IExCor=20419 DFT=T Ex+Corr=CAM-B3LYP ExCW=0 ScaHFX=  1.000000
 ScaDFX=  1.000000  1.000000  1.000000  0.810000 ScalE2=  1.000000  1.000000
 IRadAn=      5 IRanWt=     -1 IRanGd=            0 ICorTp=0 IEmpDi=  4
 HFx  wShort=  0.000000 wLong=  0.330000 cFull=  0.190000 cShort=  0.000000 cLong=  0.460000
 DFx  wShort=  0.000000 wLong=  0.330000 cFull=  0.190000 cShort=  0.000000 cLong=  0.460000
 NAtoms=  158 NActive=  158 NUniq=  158 SFac= 1.00D+00 NAtFMM=   60 NAOKFM=T Big=T
 Integral buffers will be    131072 words long.
 Raffenetti 1 integral format.
 Two-electron integral symmetry is turned on.
 Leave Link  301 at Sat Sep  4 09:58:32 2021, MaxMem= 23488102400 cpu:               1.4 elap:               0.1
 (Enter /sw/apps/gaussian-16.0/g16/l302.exe)
 NPDir=0 NMtPBC=     1 NCelOv=     1 NCel=       1 NClECP=     1 NCelD=      1
         NCelK=      1 NCelE2=     1 NClLst=     1 CellRange=     0.0.
 One-electron integrals computed using PRISM.
 One-electron integral symmetry used in STVInt
   1 Symmetry operations used in ECPInt.
 ECPInt:  NShTT=  271216 NPrTT=  987664 LenC2=  116473 LenP2D=  254878.
 LDataN:  DoStor=T MaxTD1= 4 Len=   56
 NBasis=  1572 RedAO= T EigKep=  3.36D-04  NBF=  1572
 NBsUse=  1572 1.00D-06 EigRej= -1.00D+00 NBFU=  1572
 Precomputing XC quadrature grid using
 IXCGrd= 4 IRadAn=           5 IRanWt=          -1 IRanGd=           0 AccXCQ= 0.00D+00.
 Generated NRdTot=       0 NPtTot=           0 NUsed=           0 NTot=          32
 NSgBfM=   960   947   951   951   960 MxSgAt=   158 MxSgA2=   157.
 Leave Link  302 at Sat Sep  4 09:58:37 2021, MaxMem= 23488102400 cpu:             111.9 elap:               4.7
 (Enter /sw/apps/gaussian-16.0/g16/l303.exe)
 DipDrv:  MaxL=1.
 Leave Link  303 at Sat Sep  4 09:58:37 2021, MaxMem= 23488102400 cpu:               9.4 elap:               0.4
 (Enter /sw/apps/gaussian-16.0/g16/l308.exe)
 Leave Link  308 at Sat Sep  4 09:58:38 2021, MaxMem= 23488102400 cpu:              15.0 elap:               0.7
 (Enter /sw/apps/gaussian-16.0/g16/l401.exe)
 ExpMin= 3.36D-02 ExpMax= 4.95D+03 ExpMxC= 7.45D+02 IAcc=3 IRadAn=         5 AccDes= 0.00D+00
 Harris functional with IExCor=20419 and IRadAn=       5 diagonalized for initial guess.
 HarFok:  IExCor=20419 AccDes= 0.00D+00 IRadAn=         5 IDoV= 1 UseB2=F ITyADJ=14
 ICtDFT=  3500011 ScaDFX=  1.000000  1.000000  1.000000  1.000000
 FoFCou: FMM=F IPFlag=           0 FMFlag=      100000 FMFlg1=        2001
         NFxFlg=           0 DoJE=T BraDBF=F KetDBF=T FulRan=T
         wScrn=  0.000000 ICntrl=       500 IOpCl=  0 I1Cent=   200000004 NGrid=           0
         NMat0=    1 NMatS0=      1 NMatT0=    0 NMatD0=    1 NMtDS0=    0 NMtDT0=    0
 Petite list used in FoFCou.
 Harris En= -3918.65801644724    
 JPrj=0 DoOrth=F DoCkMO=F.
 Leave Link  401 at Sat Sep  4 09:58:45 2021, MaxMem= 23488102400 cpu:             161.3 elap:               6.8
 (Enter /sw/apps/gaussian-16.0/g16/l502.exe)
 Integral symmetry usage will be decided dynamically.
 Closed shell SCF:
 Using DIIS extrapolation, IDIIS=  1040.
 NGot= 23488102400 LenX= 23482547354 LenY= 23479796732
 Requested convergence on RMS density matrix=1.00D-08 within 128 cycles.
 Requested convergence on MAX density matrix=1.00D-06.
 Requested convergence on             energy=1.00D-06.
 No special actions if energy rises.
 Fock matrices will be formed incrementally for  20 cycles.

 Cycle   1  Pass 1  IDiag  1:
 FoFJK:  IHMeth= 1 ICntrl=       0 DoSepK=T KAlg= 0 I1Cent=           0 FoldK=F
 IRaf=         1 NMat=       1 IRICut=       1 DoRegI=T DoRafI=F ISym2E= 0 IDoP0=0 IntGTp=1.
 FoFCou: FMM=T IPFlag=           0 FMFlag=      100000 FMFlg1=        2001
         NFxFlg=           0 DoJE=T BraDBF=F KetDBF=F FulRan=T
         wScrn=  0.000000 ICntrl=       500 IOpCl=  0 I1Cent=           0 NGrid=           0
         NMat0=    1 NMatS0=      1 NMatT0=    0 NMatD0=    1 NMtDS0=    0 NMtDT0=    0
 Symmetry not used in FoFCou.
 FMM levels:  10  Number of levels for PrismC:   9
 E= -4068.94870161495    
 DIIS: error= 2.04D-02 at cycle   1 NSaved=   1.
 NSaved= 1 IEnMin= 1 EnMin= -4068.94870161495     IErMin= 1 ErrMin= 2.04D-02
 ErrMax= 2.04D-02  0.00D+00 EMaxC= 1.00D-01 BMatC= 1.69D+00 BMatP= 1.69D+00
 IDIUse=3 WtCom= 7.96D-01 WtEn= 2.04D-01
 Coeff-Com:  0.100D+01
 Coeff-En:   0.100D+01
 Coeff:      0.100D+01
 Gap=     0.120 Goal=   None    Shift=    0.000
 GapD=    0.120 DampG=1.000 DampE=0.500 DampFc=0.5000 IDamp=-1.
 Damping current iteration by 5.00D-01
 RMSDP=1.57D-03 MaxDP=1.35D-01              OVMax= 2.06D-01

 Cycle   2  Pass 1  IDiag  1:
 RMSU=  7.70D-04    CP:  9.82D-01
 E= -4069.33743491063     Delta-E=       -0.388733295687 Rises=F Damp=T
 DIIS: error= 1.27D-02 at cycle   2 NSaved=   2.
 NSaved= 2 IEnMin= 2 EnMin= -4069.33743491063     IErMin= 2 ErrMin= 1.27D-02
 ErrMax= 1.27D-02  0.00D+00 EMaxC= 1.00D-01 BMatC= 3.07D-01 BMatP= 1.69D+00
 IDIUse=3 WtCom= 8.73D-01 WtEn= 1.27D-01
 Coeff-Com: -0.213D+00 0.121D+01
 Coeff-En:   0.000D+00 0.100D+01
 Coeff:     -0.186D+00 0.119D+01
 Gap=     0.136 Goal=   None    Shift=    0.000
 RMSDP=7.66D-04 MaxDP=9.43D-02 DE=-3.89D-01 OVMax= 1.92D-01

 Cycle   3  Pass 1  IDiag  1:
 RMSU=  7.34D-04    CP:  9.68D-01  1.24D+00
 E= -4069.62589042101     Delta-E=       -0.288455510381 Rises=F Damp=F
 DIIS: error= 1.57D-02 at cycle   3 NSaved=   3.
 NSaved= 3 IEnMin= 3 EnMin= -4069.62589042101     IErMin= 2 ErrMin= 1.27D-02
 ErrMax= 1.57D-02  0.00D+00 EMaxC= 1.00D-01 BMatC= 2.03D-01 BMatP= 3.07D-01
 IDIUse=3 WtCom= 8.43D-01 WtEn= 1.57D-01
 Coeff-Com: -0.267D+00 0.652D+00 0.615D+00
 Coeff-En:   0.000D+00 0.000D+00 0.100D+01
 Coeff:     -0.225D+00 0.550D+00 0.675D+00
 Gap=     0.123 Goal=   None    Shift=    0.000
 RMSDP=5.12D-04 MaxDP=4.91D-02 DE=-2.88D-01 OVMax= 1.49D-01

 Cycle   4  Pass 1  IDiag  1:
 RMSU=  2.67D-04    CP:  9.65D-01  1.55D+00  5.03D-01
 E= -4069.76384664627     Delta-E=       -0.137956225255 Rises=F Damp=F
 DIIS: error= 7.25D-03 at cycle   4 NSaved=   4.
 NSaved= 4 IEnMin= 4 EnMin= -4069.76384664627     IErMin= 4 ErrMin= 7.25D-03
 ErrMax= 7.25D-03  0.00D+00 EMaxC= 1.00D-01 BMatC= 5.10D-02 BMatP= 2.03D-01
 IDIUse=3 WtCom= 9.27D-01 WtEn= 7.25D-02
 Coeff-Com: -0.109D+00 0.227D+00 0.409D+00 0.473D+00
 Coeff-En:   0.000D+00 0.000D+00 0.223D+00 0.777D+00
 Coeff:     -0.101D+00 0.210D+00 0.396D+00 0.495D+00
 Gap=     0.122 Goal=   None    Shift=    0.000
 RMSDP=2.03D-04 MaxDP=2.04D-02 DE=-1.38D-01 OVMax= 6.61D-02

 Cycle   5  Pass 1  IDiag  1:
 RMSU=  7.75D-05    CP:  9.64D-01  1.49D+00  6.88D-01  5.45D-01
 E= -4069.81029206158     Delta-E=       -0.046445415312 Rises=F Damp=F
 DIIS: error= 7.61D-04 at cycle   5 NSaved=   5.
 NSaved= 5 IEnMin= 5 EnMin= -4069.81029206158     IErMin= 5 ErrMin= 7.61D-04
 ErrMax= 7.61D-04  0.00D+00 EMaxC= 1.00D-01 BMatC= 1.24D-03 BMatP= 5.10D-02
 IDIUse=3 WtCom= 9.92D-01 WtEn= 7.61D-03
 Coeff-Com: -0.368D-01 0.723D-01 0.169D+00 0.252D+00 0.543D+00
 Coeff-En:   0.000D+00 0.000D+00 0.000D+00 0.000D+00 0.100D+01
 Coeff:     -0.365D-01 0.718D-01 0.167D+00 0.250D+00 0.547D+00
 Gap=     0.121 Goal=   None    Shift=    0.000
 RMSDP=4.29D-05 MaxDP=4.19D-03 DE=-4.64D-02 OVMax= 1.84D-02

 Cycle   6  Pass 1  IDiag  1:
 RMSU=  3.13D-05    CP:  9.64D-01  1.49D+00  6.80D-01  6.20D-01  7.42D-01
 E= -4069.81139236950     Delta-E=       -0.001100307920 Rises=F Damp=F
 DIIS: error= 1.95D-04 at cycle   6 NSaved=   6.
 NSaved= 6 IEnMin= 6 EnMin= -4069.81139236950     IErMin= 6 ErrMin= 1.95D-04
 ErrMax= 1.95D-04  0.00D+00 EMaxC= 1.00D-01 BMatC= 1.90D-04 BMatP= 1.24D-03
 IDIUse=3 WtCom= 9.98D-01 WtEn= 1.95D-03
 Coeff-Com:  0.209D-02-0.637D-02 0.120D-01 0.413D-01 0.307D+00 0.644D+00
 Coeff-En:   0.000D+00 0.000D+00 0.000D+00 0.000D+00 0.113D+00 0.887D+00
 Coeff:      0.208D-02-0.636D-02 0.120D-01 0.413D-01 0.306D+00 0.645D+00
 Gap=     0.122 Goal=   None    Shift=    0.000
 RMSDP=1.68D-05 MaxDP=1.17D-03 DE=-1.10D-03 OVMax= 7.84D-03

 Cycle   7  Pass 1  IDiag  1:
 RMSU=  1.11D-05    CP:  9.64D-01  1.49D+00  6.86D-01  6.19D-01  8.49D-01
                    CP:  7.41D-01
 E= -4069.81160095127     Delta-E=       -0.000208581769 Rises=F Damp=F
 DIIS: error= 9.01D-05 at cycle   7 NSaved=   7.
 NSaved= 7 IEnMin= 7 EnMin= -4069.81160095127     IErMin= 7 ErrMin= 9.01D-05
 ErrMax= 9.01D-05  0.00D+00 EMaxC= 1.00D-01 BMatC= 2.35D-05 BMatP= 1.90D-04
 IDIUse=1 WtCom= 1.00D+00 WtEn= 0.00D+00
 Coeff-Com:  0.453D-02-0.994D-02-0.889D-02-0.332D-02 0.106D+00 0.335D+00
 Coeff-Com:  0.576D+00
 Coeff:      0.453D-02-0.994D-02-0.889D-02-0.332D-02 0.106D+00 0.335D+00
 Coeff:      0.576D+00
 Gap=     0.122 Goal=   None    Shift=    0.000
 RMSDP=6.67D-06 MaxDP=1.09D-03 DE=-2.09D-04 OVMax= 3.51D-03

 Cycle   8  Pass 1  IDiag  1:
 RMSU=  4.77D-06    CP:  9.64D-01  1.50D+00  6.86D-01  6.24D-01  8.51D-01
                    CP:  8.65D-01  8.15D-01
 E= -4069.81163000753     Delta-E=       -0.000029056260 Rises=F Damp=F
 DIIS: error= 5.26D-05 at cycle   8 NSaved=   8.
 NSaved= 8 IEnMin= 8 EnMin= -4069.81163000753     IErMin= 8 ErrMin= 5.26D-05
 ErrMax= 5.26D-05  0.00D+00 EMaxC= 1.00D-01 BMatC= 4.95D-06 BMatP= 2.35D-05
 IDIUse=1 WtCom= 1.00D+00 WtEn= 0.00D+00
 Coeff-Com:  0.219D-02-0.435D-02-0.782D-02-0.121D-01-0.996D-02 0.331D-01
 Coeff-Com:  0.331D+00 0.668D+00
 Coeff:      0.219D-02-0.435D-02-0.782D-02-0.121D-01-0.996D-02 0.331D-01
 Coeff:      0.331D+00 0.668D+00
 Gap=     0.122 Goal=   None    Shift=    0.000
 RMSDP=3.35D-06 MaxDP=3.85D-04 DE=-2.91D-05 OVMax= 1.09D-03

 Cycle   9  Pass 1  IDiag  1:
 RMSU=  1.95D-06    CP:  9.64D-01  1.50D+00  6.87D-01  6.25D-01  8.69D-01
                    CP:  8.91D-01  1.01D+00  9.59D-01
 E= -4069.81163797199     Delta-E=       -0.000007964460 Rises=F Damp=F
 DIIS: error= 2.00D-05 at cycle   9 NSaved=   9.
 NSaved= 9 IEnMin= 9 EnMin= -4069.81163797199     IErMin= 9 ErrMin= 2.00D-05
 ErrMax= 2.00D-05  0.00D+00 EMaxC= 1.00D-01 BMatC= 7.35D-07 BMatP= 4.95D-06
 IDIUse=1 WtCom= 1.00D+00 WtEn= 0.00D+00
 Coeff-Com:  0.474D-03-0.788D-03-0.271D-02-0.605D-02-0.206D-01-0.399D-01
 Coeff-Com:  0.986D-01 0.332D+00 0.639D+00
 Coeff:      0.474D-03-0.788D-03-0.271D-02-0.605D-02-0.206D-01-0.399D-01
 Coeff:      0.986D-01 0.332D+00 0.639D+00
 Gap=     0.122 Goal=   None    Shift=    0.000
 RMSDP=1.45D-06 MaxDP=1.49D-04 DE=-7.96D-06 OVMax= 7.49D-04

 Cycle  10  Pass 1  IDiag  1:
 RMSU=  9.58D-07    CP:  9.64D-01  1.50D+00  6.87D-01  6.25D-01  8.72D-01
                    CP:  9.04D-01  1.05D+00  1.12D+00  1.06D+00
 E= -4069.81163965012     Delta-E=       -0.000001678134 Rises=F Damp=F
 DIIS: error= 1.04D-05 at cycle  10 NSaved=  10.
 NSaved=10 IEnMin=10 EnMin= -4069.81163965012     IErMin=10 ErrMin= 1.04D-05
 ErrMax= 1.04D-05  0.00D+00 EMaxC= 1.00D-01 BMatC= 1.77D-07 BMatP= 7.35D-07
 IDIUse=1 WtCom= 1.00D+00 WtEn= 0.00D+00
 Coeff-Com: -0.429D-03 0.900D-03 0.123D-02 0.109D-02-0.369D-02-0.314D-01
 Coeff-Com: -0.445D-01-0.749D-01 0.245D+00 0.907D+00
 Coeff:     -0.429D-03 0.900D-03 0.123D-02 0.109D-02-0.369D-02-0.314D-01
 Coeff:     -0.445D-01-0.749D-01 0.245D+00 0.907D+00
 Gap=     0.122 Goal=   None    Shift=    0.000
 RMSDP=1.25D-06 MaxDP=1.25D-04 DE=-1.68D-06 OVMax= 6.33D-04

 Cycle  11  Pass 1  IDiag  1:
 RMSU=  5.36D-07    CP:  9.64D-01  1.50D+00  6.87D-01  6.26D-01  8.74D-01
                    CP:  9.14D-01  1.10D+00  1.24D+00  1.40D+00  1.37D+00
 E= -4069.81164047568     Delta-E=       -0.000000825559 Rises=F Damp=F
 DIIS: error= 4.17D-06 at cycle  11 NSaved=  11.
 NSaved=11 IEnMin=11 EnMin= -4069.81164047568     IErMin=11 ErrMin= 4.17D-06
 ErrMax= 4.17D-06  0.00D+00 EMaxC= 1.00D-01 BMatC= 6.82D-08 BMatP= 1.77D-07
 IDIUse=1 WtCom= 1.00D+00 WtEn= 0.00D+00
 Coeff-Com: -0.337D-03 0.657D-03 0.136D-02 0.214D-02 0.439D-02-0.872D-02
 Coeff-Com: -0.420D-01-0.133D+00-0.313D-01 0.483D+00 0.724D+00
 Coeff:     -0.337D-03 0.657D-03 0.136D-02 0.214D-02 0.439D-02-0.872D-02
 Coeff:     -0.420D-01-0.133D+00-0.313D-01 0.483D+00 0.724D+00
 Gap=     0.122 Goal=   None    Shift=    0.000
 RMSDP=7.09D-07 MaxDP=6.31D-05 DE=-8.26D-07 OVMax= 3.93D-04

 Cycle  12  Pass 1  IDiag  1:
 RMSU=  2.72D-07    CP:  9.64D-01  1.50D+00  6.87D-01  6.26D-01  8.75D-01
                    CP:  9.17D-01  1.12D+00  1.30D+00  1.57D+00  1.76D+00
                    CP:  1.19D+00
 E= -4069.81164075621     Delta-E=       -0.000000280532 Rises=F Damp=F
 DIIS: error= 2.54D-06 at cycle  12 NSaved=  12.
 NSaved=12 IEnMin=12 EnMin= -4069.81164075621     IErMin=12 ErrMin= 2.54D-06
 ErrMax= 2.54D-06  0.00D+00 EMaxC= 1.00D-01 BMatC= 1.66D-08 BMatP= 6.82D-08
 IDIUse=1 WtCom= 1.00D+00 WtEn= 0.00D+00
 Coeff-Com: -0.111D-04 0.472D-05 0.226D-03 0.579D-03 0.350D-02 0.375D-02
 Coeff-Com:  0.162D-02-0.380D-01-0.724D-01-0.540D-01 0.262D+00 0.893D+00
 Coeff:     -0.111D-04 0.472D-05 0.226D-03 0.579D-03 0.350D-02 0.375D-02
 Coeff:      0.162D-02-0.380D-01-0.724D-01-0.540D-01 0.262D+00 0.893D+00
 Gap=     0.122 Goal=   None    Shift=    0.000
 RMSDP=4.44D-07 MaxDP=3.21D-05 DE=-2.81D-07 OVMax= 2.54D-04

 Cycle  13  Pass 1  IDiag  1:
 RMSU=  1.71D-07    CP:  9.64D-01  1.50D+00  6.87D-01  6.26D-01  8.76D-01
                    CP:  9.17D-01  1.13D+00  1.33D+00  1.68D+00  1.99D+00
                    CP:  1.60D+00  1.24D+00
 E= -4069.81164085393     Delta-E=       -0.000000097716 Rises=F Damp=F
 DIIS: error= 1.31D-06 at cycle  13 NSaved=  13.
 NSaved=13 IEnMin=13 EnMin= -4069.81164085393     IErMin=13 ErrMin= 1.31D-06
 ErrMax= 1.31D-06  0.00D+00 EMaxC= 1.00D-01 BMatC= 8.91D-09 BMatP= 1.66D-08
 IDIUse=1 WtCom= 1.00D+00 WtEn= 0.00D+00
 Coeff-Com:  0.121D-03-0.247D-03-0.367D-03-0.447D-03 0.691D-03 0.504D-02
 Coeff-Com:  0.190D-01 0.230D-01-0.341D-01-0.239D+00-0.157D+00 0.585D+00
 Coeff-Com:  0.798D+00
 Coeff:      0.121D-03-0.247D-03-0.367D-03-0.447D-03 0.691D-03 0.504D-02
 Coeff:      0.190D-01 0.230D-01-0.341D-01-0.239D+00-0.157D+00 0.585D+00
 Coeff:      0.798D+00
 Gap=     0.122 Goal=   None    Shift=    0.000
 RMSDP=3.57D-07 MaxDP=2.46D-05 DE=-9.77D-08 OVMax= 2.15D-04

 Cycle  14  Pass 1  IDiag  1:
 RMSU=  7.88D-08    CP:  9.64D-01  1.50D+00  6.87D-01  6.26D-01  8.76D-01
                    CP:  9.17D-01  1.14D+00  1.36D+00  1.76D+00  2.19D+00
                    CP:  1.86D+00  1.76D+00  1.10D+00
 E= -4069.81164089345     Delta-E=       -0.000000039516 Rises=F Damp=F
 DIIS: error= 7.25D-07 at cycle  14 NSaved=  14.
 NSaved=14 IEnMin=14 EnMin= -4069.81164089345     IErMin=14 ErrMin= 7.25D-07
 ErrMax= 7.25D-07  0.00D+00 EMaxC= 1.00D-01 BMatC= 1.38D-09 BMatP= 8.91D-09
 IDIUse=1 WtCom= 1.00D+00 WtEn= 0.00D+00
 Coeff-Com:  0.686D-04-0.135D-03-0.253D-03-0.395D-03-0.453D-03 0.130D-02
 Coeff-Com:  0.105D-01 0.200D-01 0.411D-02-0.103D+00-0.145D+00 0.863D-01
 Coeff-Com:  0.411D+00 0.716D+00
 Coeff:      0.686D-04-0.135D-03-0.253D-03-0.395D-03-0.453D-03 0.130D-02
 Coeff:      0.105D-01 0.200D-01 0.411D-02-0.103D+00-0.145D+00 0.863D-01
 Coeff:      0.411D+00 0.716D+00
 Gap=     0.122 Goal=   None    Shift=    0.000
 RMSDP=1.09D-07 MaxDP=7.34D-06 DE=-3.95D-08 OVMax= 5.94D-05

 Cycle  15  Pass 1  IDiag  1:
 RMSU=  3.93D-08    CP:  9.64D-01  1.50D+00  6.87D-01  6.26D-01  8.76D-01
                    CP:  9.17D-01  1.14D+00  1.36D+00  1.77D+00  2.23D+00
                    CP:  1.97D+00  1.90D+00  1.34D+00  1.03D+00
 E= -4069.81164089816     Delta-E=       -0.000000004715 Rises=F Damp=F
 DIIS: error= 3.41D-07 at cycle  15 NSaved=  15.
 NSaved=15 IEnMin=15 EnMin= -4069.81164089816     IErMin=15 ErrMin= 3.41D-07
 ErrMax= 3.41D-07  0.00D+00 EMaxC= 1.00D-01 BMatC= 2.29D-10 BMatP= 1.38D-09
 IDIUse=1 WtCom= 1.00D+00 WtEn= 0.00D+00
 Coeff-Com:  0.631D-05-0.108D-04-0.362D-04-0.870D-04-0.298D-03-0.511D-03
 Coeff-Com:  0.119D-02 0.287D-02 0.879D-02 0.352D-03-0.308D-01-0.722D-01
 Coeff-Com:  0.357D-01 0.292D+00 0.763D+00
 Coeff:      0.631D-05-0.108D-04-0.362D-04-0.870D-04-0.298D-03-0.511D-03
 Coeff:      0.119D-02 0.287D-02 0.879D-02 0.352D-03-0.308D-01-0.722D-01
 Coeff:      0.357D-01 0.292D+00 0.763D+00
 Gap=     0.122 Goal=   None    Shift=    0.000
 RMSDP=3.95D-08 MaxDP=2.76D-06 DE=-4.71D-09 OVMax= 2.88D-05

 Cycle  16  Pass 1  IDiag  1:
 RMSU=  1.93D-08    CP:  9.64D-01  1.50D+00  6.87D-01  6.26D-01  8.76D-01
                    CP:  9.17D-01  1.14D+00  1.36D+00  1.78D+00  2.24D+00
                    CP:  1.99D+00  1.96D+00  1.42D+00  1.24D+00  1.14D+00
 E= -4069.81164089895     Delta-E=       -0.000000000793 Rises=F Damp=F
 DIIS: error= 1.94D-07 at cycle  16 NSaved=  16.
 NSaved=16 IEnMin=16 EnMin= -4069.81164089895     IErMin=16 ErrMin= 1.94D-07
 ErrMax= 1.94D-07  0.00D+00 EMaxC= 1.00D-01 BMatC= 9.15D-11 BMatP= 2.29D-10
 IDIUse=1 WtCom= 1.00D+00 WtEn= 0.00D+00
 Coeff-Com: -0.141D-04 0.285D-04 0.458D-04 0.510D-04-0.378D-04-0.636D-03
 Coeff-Com: -0.187D-02-0.417D-02 0.437D-02 0.251D-01 0.206D-01-0.644D-01
 Coeff-Com: -0.791D-01-0.405D-01 0.408D+00 0.732D+00
 Coeff:     -0.141D-04 0.285D-04 0.458D-04 0.510D-04-0.378D-04-0.636D-03
 Coeff:     -0.187D-02-0.417D-02 0.437D-02 0.251D-01 0.206D-01-0.644D-01
 Coeff:     -0.791D-01-0.405D-01 0.408D+00 0.732D+00
 Gap=     0.122 Goal=   None    Shift=    0.000
 RMSDP=2.39D-08 MaxDP=1.68D-06 DE=-7.93D-10 OVMax= 1.29D-05

 Cycle  17  Pass 1  IDiag  1:
 RMSU=  1.08D-08    CP:  9.64D-01  1.50D+00  6.87D-01  6.26D-01  8.76D-01
                    CP:  9.17D-01  1.14D+00  1.36D+00  1.78D+00  2.25D+00
                    CP:  2.00D+00  1.98D+00  1.47D+00  1.34D+00  1.43D+00
                    CP:  1.22D+00
 E= -4069.81164089939     Delta-E=       -0.000000000437 Rises=F Damp=F
 DIIS: error= 9.54D-08 at cycle  17 NSaved=  17.
 NSaved=17 IEnMin=17 EnMin= -4069.81164089939     IErMin=17 ErrMin= 9.54D-08
 ErrMax= 9.54D-08  0.00D+00 EMaxC= 1.00D-01 BMatC= 1.88D-11 BMatP= 9.15D-11
 IDIUse=1 WtCom= 1.00D+00 WtEn= 0.00D+00
 Coeff-Com: -0.761D-05 0.149D-04 0.297D-04 0.434D-04 0.796D-04-0.141D-03
 Coeff-Com: -0.952D-03-0.289D-02 0.120D-03 0.996D-02 0.179D-01-0.882D-02
 Coeff-Com: -0.365D-01-0.102D+00-0.145D-01 0.290D+00 0.847D+00
 Coeff:     -0.761D-05 0.149D-04 0.297D-04 0.434D-04 0.796D-04-0.141D-03
 Coeff:     -0.952D-03-0.289D-02 0.120D-03 0.996D-02 0.179D-01-0.882D-02
 Coeff:     -0.365D-01-0.102D+00-0.145D-01 0.290D+00 0.847D+00
 Gap=     0.122 Goal=   None    Shift=    0.000
 RMSDP=1.37D-08 MaxDP=1.10D-06 DE=-4.37D-10 OVMax= 9.92D-06

 Cycle  18  Pass 1  IDiag  1:
 RMSU=  5.43D-09    CP:  9.64D-01  1.50D+00  6.87D-01  6.26D-01  8.76D-01
                    CP:  9.17D-01  1.14D+00  1.36D+00  1.78D+00  2.25D+00
                    CP:  2.01D+00  1.99D+00  1.48D+00  1.40D+00  1.60D+00
                    CP:  1.62D+00  1.34D+00
 E= -4069.81164089948     Delta-E=       -0.000000000087 Rises=F Damp=F
 DIIS: error= 7.10D-08 at cycle  18 NSaved=  18.
 NSaved=18 IEnMin=18 EnMin= -4069.81164089948     IErMin=18 ErrMin= 7.10D-08
 ErrMax= 7.10D-08  0.00D+00 EMaxC= 1.00D-01 BMatC= 8.62D-12 BMatP= 1.88D-11
 IDIUse=1 WtCom= 1.00D+00 WtEn= 0.00D+00
 Coeff-Com:  0.891D-06-0.213D-05-0.242D-06 0.438D-05 0.659D-04 0.152D-03
 Coeff-Com:  0.234D-03-0.150D-03-0.121D-02-0.436D-02 0.204D-02 0.168D-01
 Coeff-Com:  0.124D-01-0.421D-01-0.150D+00-0.149D+00 0.432D+00 0.883D+00
 Coeff:      0.891D-06-0.213D-05-0.242D-06 0.438D-05 0.659D-04 0.152D-03
 Coeff:      0.234D-03-0.150D-03-0.121D-02-0.436D-02 0.204D-02 0.168D-01
 Coeff:      0.124D-01-0.421D-01-0.150D+00-0.149D+00 0.432D+00 0.883D+00
 Gap=     0.122 Goal=   None    Shift=    0.000
 RMSDP=1.11D-08 MaxDP=7.64D-07 DE=-8.73D-11 OVMax= 5.98D-06

 Cycle  19  Pass 1  IDiag  1:
 RMSU=  3.20D-09    CP:  9.64D-01  1.50D+00  6.87D-01  6.26D-01  8.76D-01
                    CP:  9.17D-01  1.14D+00  1.36D+00  1.78D+00  2.25D+00
                    CP:  2.01D+00  2.00D+00  1.49D+00  1.44D+00  1.74D+00
                    CP:  1.90D+00  1.86D+00  1.19D+00
 E= -4069.81164089963     Delta-E=       -0.000000000153 Rises=F Damp=F
 DIIS: error= 2.79D-08 at cycle  19 NSaved=  19.
 NSaved=19 IEnMin=19 EnMin= -4069.81164089963     IErMin=19 ErrMin= 2.79D-08
 ErrMax= 2.79D-08  0.00D+00 EMaxC= 1.00D-01 BMatC= 2.33D-12 BMatP= 8.62D-12
 IDIUse=1 WtCom= 1.00D+00 WtEn= 0.00D+00
 Coeff-Com:  0.312D-05-0.634D-05-0.103D-04-0.122D-04 0.195D-04 0.140D-03
 Coeff-Com:  0.498D-03 0.836D-03-0.713D-03-0.650D-02-0.486D-02 0.137D-01
 Coeff-Com:  0.220D-01 0.846D-02-0.864D-01-0.203D+00 0.440D-02 0.532D+00
 Coeff-Com:  0.720D+00
 Coeff:      0.312D-05-0.634D-05-0.103D-04-0.122D-04 0.195D-04 0.140D-03
 Coeff:      0.498D-03 0.836D-03-0.713D-03-0.650D-02-0.486D-02 0.137D-01
 Coeff:      0.220D-01 0.846D-02-0.864D-01-0.203D+00 0.440D-02 0.532D+00
 Coeff:      0.720D+00
 Gap=     0.122 Goal=   None    Shift=    0.000
 RMSDP=5.66D-09 MaxDP=4.35D-07 DE=-1.53D-10 OVMax= 4.05D-06

 SCF Done:  E(RCAM-B3LYP) =  -4069.81164090     A.U. after   19 cycles
            NFock= 19  Conv=0.57D-08     -V/T= 2.0102
 KE= 4.028802044631D+03 PE=-3.798064282968D+04 EE= 1.563219941238D+04
 Leave Link  502 at Sat Sep  4 10:07:34 2021, MaxMem= 23488102400 cpu:           12100.9 elap:             528.6
 (Enter /sw/apps/gaussian-16.0/g16/l801.exe)
 DoSCS=F DFT=T ScalE2(SS,OS)=  1.000000  1.000000
 ExpMin= 3.36D-02 ExpMax= 4.95D+03 ExpMxC= 7.45D+02 IAcc=3 IRadAn=         5 AccDes= 0.00D+00
 HarFok:  IExCor=  205 AccDes= 0.00D+00 IRadAn=         5 IDoV=-2 UseB2=F ITyADJ=14
 ICtDFT= 12500011 ScaDFX=  1.000000  1.000000  1.000000  1.000000
 GSVD:  LWork=       -9588 too small for GESVD, short by       45590 words or       45590 for optimal perf.
 Largest valence mixing into a core orbital is  2.03D-04
 Largest core mixing into a valence orbital is  5.24D-05
 Range of M.O.s used for correlation:    95  1572
 NBasis=  1572 NAE=   312 NBE=   312 NFC=    94 NFV=     0
 NROrb=   1478 NOA=   218 NOB=   218 NVA=  1260 NVB=  1260
 Leave Link  801 at Sat Sep  4 10:07:34 2021, MaxMem= 23488102400 cpu:               8.7 elap:               0.4
 (Enter /sw/apps/gaussian-16.0/g16/l914.exe)
 RHF ground state
 Two-electron integrals replicated using symmetry.
 MDV= 23488102400 DFT=T DoStab=F Mixed=T DoRPA=T DoScal=F NonHer=T
 Making orbital integer symmetry assigments:
 Orbital symmetries:
       Occupied  (A) (A) (A) (A) (A) (A) (A) (A) (A) (A) (A) (A)
                 (A) (A) (A) (A) (A) (A) (A) (A) (A) (A) (A) (A)
                 (A) (A) (A) (A) (A) (A) (A) (A) (A) (A) (A) (A)
                 (A) (A) (A) (A) (A) (A) (A) (A) (A) (A) (A) (A)
                 (A) (A) (A) (A) (A) (A) (A) (A) (A) (A) (A) (A)
                 (A) (A) (A) (A) (A) (A) (A) (A) (A) (A) (A) (A)
                 (A) (A) (A) (A) (A) (A) (A) (A) (A) (A) (A) (A)
                 (A) (A) (A) (A) (A) (A) (A) (A) (A) (A) (A) (A)
                 (A) (A) (A) (A) (A) (A) (A) (A) (A) (A) (A) (A)
                 (A) (A) (A) (A) (A) (A) (A) (A) (A) (A) (A) (A)
                 (A) (A) (A) (A) (A) (A) (A) (A) (A) (A) (A) (A)
                 (A) (A) (A) (A) (A) (A) (A) (A) (A) (A) (A) (A)
                 (A) (A) (A) (A) (A) (A) (A) (A) (A) (A) (A) (A)
                 (A) (A) (A) (A) (A) (A) (A) (A) (A) (A) (A) (A)
                 (A) (A) (A) (A) (A) (A) (A) (A) (A) (A) (A) (A)
                 (A) (A) (A) (A) (A) (A) (A) (A) (A) (A) (A) (A)
                 (A) (A) (A) (A) (A) (A) (A) (A) (A) (A) (A) (A)
                 (A) (A) (A) (A) (A) (A) (A) (A) (A) (A) (A) (A)
                 (A) (A) (A) (A) (A) (A) (A) (A) (A) (A) (A) (A)
                 (A) (A) (A) (A) (A) (A) (A) (A) (A) (A) (A) (A)
                 (A) (A) (A) (A) (A) (A) (A) (A) (A) (A) (A) (A)
                 (A) (A) (A) (A) (A) (A) (A) (A) (A) (A) (A) (A)
                 (A) (A) (A) (A) (A) (A) (A) (A) (A) (A) (A) (A)
                 (A) (A) (A) (A) (A) (A) (A) (A) (A) (A) (A) (A)
                 (A) (A) (A) (A) (A) (A) (A) (A) (A) (A) (A) (A)
                 (A) (A) (A) (A) (A) (A) (A) (A) (A) (A) (A) (A)
       Virtual   (A) (A) (A) (A) (A) (A) (A) (A) (A) (A) (A) (A)
                 (A) (A) (A) (A) (A) (A) (A) (A) (A) (A) (A) (A)
                 (A) (A) (A) (A) (A) (A) (A) (A) (A) (A) (A) (A)
                 (A) (A) (A) (A) (A) (A) (A) (A) (A) (A) (A) (A)
                 (A) (A) (A) (A) (A) (A) (A) (A) (A) (A) (A) (A)
                 (A) (A) (A) (A) (A) (A) (A) (A) (A) (A) (A) (A)
                 (A) (A) (A) (A) (A) (A) (A) (A) (A) (A) (A) (A)
                 (A) (A) (A) (A) (A) (A) (A) (A) (A) (A) (A) (A)
                 (A) (A) (A) (A) (A) (A) (A) (A) (A) (A) (A) (A)
                 (A) (A) (A) (A) (A) (A) (A) (A) (A) (A) (A) (A)
                 (A) (A) (A) (A) (A) (A) (A) (A) (A) (A) (A) (A)
                 (A) (A) (A) (A) (A) (A) (A) (A) (A) (A) (A) (A)
                 (A) (A) (A) (A) (A) (A) (A) (A) (A) (A) (A) (A)
                 (A) (A) (A) (A) (A) (A) (A) (A) (A) (A) (A) (A)
                 (A) (A) (A) (A) (A) (A) (A) (A) (A) (A) (A) (A)
                 (A) (A) (A) (A) (A) (A) (A) (A) (A) (A) (A) (A)
                 (A) (A) (A) (A) (A) (A) (A) (A) (A) (A) (A) (A)
                 (A) (A) (A) (A) (A) (A) (A) (A) (A) (A) (A) (A)
                 (A) (A) (A) (A) (A) (A) (A) (A) (A) (A) (A) (A)
                 (A) (A) (A) (A) (A) (A) (A) (A) (A) (A) (A) (A)
                 (A) (A) (A) (A) (A) (A) (A) (A) (A) (A) (A) (A)
                 (A) (A) (A) (A) (A) (A) (A) (A) (A) (A) (A) (A)
                 (A) (A) (A) (A) (A) (A) (A) (A) (A) (A) (A) (A)
                 (A) (A) (A) (A) (A) (A) (A) (A) (A) (A) (A) (A)
                 (A) (A) (A) (A) (A) (A) (A) (A) (A) (A) (A) (A)
                 (A) (A) (A) (A) (A) (A) (A) (A) (A) (A) (A) (A)
                 (A) (A) (A) (A) (A) (A) (A) (A) (A) (A) (A) (A)
                 (A) (A) (A) (A) (A) (A) (A) (A) (A) (A) (A) (A)
                 (A) (A) (A) (A) (A) (A) (A) (A) (A) (A) (A) (A)
                 (A) (A) (A) (A) (A) (A) (A) (A) (A) (A) (A) (A)
                 (A) (A) (A) (A) (A) (A) (A) (A) (A) (A) (A) (A)
                 (A) (A) (A) (A) (A) (A) (A) (A) (A) (A) (A) (A)
                 (A) (A) (A) (A) (A) (A) (A) (A) (A) (A) (A) (A)
                 (A) (A) (A) (A) (A) (A) (A) (A) (A) (A) (A) (A)
                 (A) (A) (A) (A) (A) (A) (A) (A) (A) (A) (A) (A)
                 (A) (A) (A) (A) (A) (A) (A) (A) (A) (A) (A) (A)
                 (A) (A) (A) (A) (A) (A) (A) (A) (A) (A) (A) (A)
                 (A) (A) (A) (A) (A) (A) (A) (A) (A) (A) (A) (A)
                 (A) (A) (A) (A) (A) (A) (A) (A) (A) (A) (A) (A)
                 (A) (A) (A) (A) (A) (A) (A) (A) (A) (A) (A) (A)
                 (A) (A) (A) (A) (A) (A) (A) (A) (A) (A) (A) (A)
                 (A) (A) (A) (A) (A) (A) (A) (A) (A) (A) (A) (A)
                 (A) (A) (A) (A) (A) (A) (A) (A) (A) (A) (A) (A)
                 (A) (A) (A) (A) (A) (A) (A) (A) (A) (A) (A) (A)
                 (A) (A) (A) (A) (A) (A) (A) (A) (A) (A) (A) (A)
                 (A) (A) (A) (A) (A) (A) (A) (A) (A) (A) (A) (A)
                 (A) (A) (A) (A) (A) (A) (A) (A) (A) (A) (A) (A)
                 (A) (A) (A) (A) (A) (A) (A) (A) (A) (A) (A) (A)
                 (A) (A) (A) (A) (A) (A) (A) (A) (A) (A) (A) (A)
                 (A) (A) (A) (A) (A) (A) (A) (A) (A) (A) (A) (A)
                 (A) (A) (A) (A) (A) (A) (A) (A) (A) (A) (A) (A)
                 (A) (A) (A) (A) (A) (A) (A) (A) (A) (A) (A) (A)
                 (A) (A) (A) (A) (A) (A) (A) (A) (A) (A) (A) (A)
                 (A) (A) (A) (A) (A) (A) (A) (A) (A) (A) (A) (A)
                 (A) (A) (A) (A) (A) (A) (A) (A) (A) (A) (A) (A)
                 (A) (A) (A) (A) (A) (A) (A) (A) (A) (A) (A) (A)
                 (A) (A) (A) (A) (A) (A) (A) (A) (A) (A) (A) (A)
                 (A) (A) (A) (A) (A) (A) (A) (A) (A) (A) (A) (A)
                 (A) (A) (A) (A) (A) (A) (A) (A) (A) (A) (A) (A)
                 (A) (A) (A) (A) (A) (A) (A) (A) (A) (A) (A) (A)
                 (A) (A) (A) (A) (A) (A) (A) (A) (A) (A) (A) (A)
                 (A) (A) (A) (A) (A) (A) (A) (A) (A) (A) (A) (A)
                 (A) (A) (A) (A) (A) (A) (A) (A) (A) (A) (A) (A)
                 (A) (A) (A) (A) (A) (A) (A) (A) (A) (A) (A) (A)
                 (A) (A) (A) (A) (A) (A) (A) (A) (A) (A) (A) (A)
                 (A) (A) (A) (A) (A) (A) (A) (A) (A) (A) (A) (A)
                 (A) (A) (A) (A) (A) (A) (A) (A) (A) (A) (A) (A)
                 (A) (A) (A) (A) (A) (A) (A) (A) (A) (A) (A) (A)
                 (A) (A) (A) (A) (A) (A) (A) (A) (A) (A) (A) (A)
                 (A) (A) (A) (A) (A) (A) (A) (A) (A) (A) (A) (A)
                 (A) (A) (A) (A) (A) (A) (A) (A) (A) (A) (A) (A)
                 (A) (A) (A) (A) (A) (A) (A) (A) (A) (A) (A) (A)
                 (A) (A) (A) (A) (A) (A) (A) (A) (A) (A) (A) (A)
                 (A) (A) (A) (A) (A) (A) (A) (A) (A) (A) (A) (A)
                 (A) (A) (A) (A) (A) (A) (A) (A) (A) (A) (A) (A)
                 (A) (A) (A) (A) (A) (A) (A) (A) (A) (A) (A) (A)
                 (A) (A) (A) (A) (A) (A) (A) (A) (A) (A) (A) (A)
                 (A) (A) (A) (A) (A) (A) (A) (A) (A) (A) (A) (A)
                 (A) (A) (A) (A) (A) (A) (A) (A) (A) (A) (A) (A)
                 (A) (A) (A) (A) (A) (A) (A) (A) (A) (A) (A) (A)
                 (A) (A) (A) (A) (A) (A) (A) (A) (A) (A) (A) (A)
                 (A) (A) (A) (A) (A) (A) (A) (A) (A) (A) (A) (A)
                 (A) (A) (A) (A) (A) (A) (A) (A) (A) (A) (A) (A)
                 (A) (A) (A) (A) (A) (A) (A) (A) (A) (A) (A) (A)
                 (A) (A) (A) (A) (A) (A) (A) (A) (A) (A) (A) (A)
                 (A) (A) (A) (A) (A) (A) (A) (A) (A) (A) (A) (A)
                 (A) (A) (A) (A) (A) (A) (A) (A) (A) (A) (A) (A)
                 (A) (A) (A) (A) (A) (A) (A) (A) (A) (A) (A) (A)
                 (A) (A) (A) (A) (A) (A) (A) (A) (A) (A) (A) (A)
                 (A) (A) (A) (A) (A) (A) (A) (A) (A) (A) (A) (A)
                 (A) (A) (A) (A) (A) (A) (A) (A) (A) (A) (A) (A)
                 (A) (A) (A) (A) (A) (A) (A) (A) (A) (A) (A) (A)
                 (A) (A) (A) (A) (A) (A) (A) (A) (A) (A) (A) (A)
                 (A) (A) (A) (A) (A) (A) (A) (A) (A) (A) (A) (A)
                 (A) (A) (A) (A) (A) (A) (A) (A) (A) (A) (A) (A)
                 (A) (A) (A) (A) (A) (A) (A) (A) (A) (A) (A) (A)
                 (A) (A) (A) (A) (A) (A) (A) (A) (A) (A) (A) (A)
                 (A) (A) (A) (A) (A) (A) (A) (A) (A) (A) (A) (A)
                 (A) (A) (A) (A) (A) (A) (A) (A) (A) (A) (A) (A)
                 (A) (A) (A) (A) (A) (A) (A) (A) (A) (A) (A) (A)
                 (A) (A) (A) (A) (A) (A) (A) (A) (A) (A) (A) (A)
                 (A) (A) (A) (A) (A) (A) (A) (A) (A) (A) (A) (A)
                 (A) (A) (A) (A) (A) (A) (A) (A) (A) (A) (A) (A)
                 (A) (A) (A) (A) (A) (A) (A) (A) (A) (A) (A) (A)
                 (A) (A) (A) (A) (A) (A) (A) (A) (A) (A) (A) (A)
    20 initial guesses have been made.
 Convergence on wavefunction:    0.001000000000000
 Davidson Disk Diagonalization:  ConvIn= 1.00D-03 SkipCon=T Conv= 1.00D-03.
 Max sub-space:  2000 roots to seek:    20 dimension of matrix:       549360
 Iteration     1 Dimension    20 NMult     0 NNew     20
 CISAX will form    20 AO SS matrices at one time.
 NMat=    20 NSing=    20 JSym2X= 0.
 FoFJK:  IHMeth= 1 ICntrl=       0 DoSepK=T KAlg= 0 I1Cent=           0 FoldK=F
 IRaf=         1 NMat=      40 IRICut=       1 DoRegI=T DoRafI=F ISym2E= 0 IDoP0=3 IntGTp=3.
 FoFCou: FMM=T IPFlag=           0 FMFlag=      100000 FMFlg1=        2001
         NFxFlg=           0 DoJE=F BraDBF=F KetDBF=F FulRan=T
         wScrn=  0.000000 ICntrl=       500 IOpCl=  0 I1Cent=           0 NGrid=           0
         NMat0=   20 NMatS0=     20 NMatT0=    0 NMatD0=   20 NMtDS0=    0 NMtDT0=    0
 Symmetry not used in FoFCou.
 FMM levels:  10  Number of levels for PrismC:   9
 New state      1 was old state      7
 New state      2 was old state      6
 New state      3 was old state      1
 New state      4 was old state      2
 New state      5 was old state      3
 Excitation Energies [eV] at current iteration:
 Root      1 :     2.612435308350946
 Root      2 :     2.619229879990668
 Root      3 :     2.650151653844806
 Root      4 :     2.662129310781557
 Root      5 :     2.709410093734142
 Root      6 :     2.739085419805176
 Root      7 :     3.439743691454075
 Root      8 :     3.538728552286162
 Root      9 :     3.625271037667265
 Root     10 :     3.667169863922898
 Root     11 :     3.738105255606466
 Root     12 :     3.761057440037290
 Root     13 :     4.286802493238930
 Root     14 :     4.321780772944394
 Root     15 :     4.557186137533472
 Root     16 :     4.671351475789730
 Root     17 :     4.863632527358819
 Root     18 :     4.901198503010487
 Root     19 :     4.964861635059245
 Root     20 :     4.998608339729290
 Iteration     2 Dimension    30 NMult    20 NNew     10
 CISAX will form    10 AO SS matrices at one time.
 NMat=    10 NSing=    10 JSym2X= 0.
 New state      1 was old state      4
 Root      1 not converged, maximum delta is    0.147454447333589
 New state      2 was old state      5
 Root      2 not converged, maximum delta is    0.152652150399316
 New state      3 was old state      2
 Root      3 not converged, maximum delta is    0.446040503456618
 New state      4 was old state      1
 Root      4 not converged, maximum delta is    0.440600582498651
 New state      5 was old state      3
 Root      5 not converged, maximum delta is    0.001228883978012
 Excitation Energies [eV] at current iteration:
 Root      1 :     1.791906680760516   Change is   -0.870222630021041
 Root      2 :     1.815661595269071   Change is   -0.893748498465071
 Root      3 :     2.234224625519060   Change is   -0.385005254471608
 Root      4 :     2.239991924540865   Change is   -0.372443383810080
 Root      5 :     2.649978860067204   Change is   -0.000172793777602
 Iteration     3 Dimension    40 NMult    30 NNew     10
 CISAX will form    10 AO SS matrices at one time.
 NMat=    10 NSing=    10 JSym2X= 0.
 Root      1 not converged, maximum delta is    0.054017481444351
 Root      2 not converged, maximum delta is    0.054807829629460
 Root      3 not converged, maximum delta is    0.086290751811585
 Root      4 not converged, maximum delta is    0.085824841764957
 Root      5 has converged.
 Excitation Energies [eV] at current iteration:
 Root      1 :     1.685393491234586   Change is   -0.106513189525931
 Root      2 :     1.706725221127521   Change is   -0.108936374141550
 Root      3 :     2.193365628652300   Change is   -0.040858996866760
 Root      4 :     2.200387057640620   Change is   -0.039604866900246
 Root      5 :     2.649978054561418   Change is   -0.000000805505786
 Iteration     4 Dimension    48 NMult    40 NNew      8
 CISAX will form     8 AO SS matrices at one time.
 NMat=     8 NSing=     8 JSym2X= 0.
 Root      1 not converged, maximum delta is    0.010408152026223
 Root      2 not converged, maximum delta is    0.010292020696451
 Root      3 not converged, maximum delta is    0.014230478105175
 Root      4 not converged, maximum delta is    0.014077443932239
 Root      5 has converged.
 Excitation Energies [eV] at current iteration:
 Root      1 :     1.668684883370406   Change is   -0.016708607864179
 Root      2 :     1.689845658939344   Change is   -0.016879562188178
 Root      3 :     2.186134212882798   Change is   -0.007231415769501
 Root      4 :     2.193515501352406   Change is   -0.006871556288214
 Root      5 :     2.649978054559991   Change is   -0.000000000001427
 Iteration     5 Dimension    56 NMult    48 NNew      8
 CISAX will form     8 AO SS matrices at one time.
 NMat=     8 NSing=     8 JSym2X= 0.
 Root      1 not converged, maximum delta is    0.001700210321043
 Root      2 not converged, maximum delta is    0.001730806575915
 Root      3 not converged, maximum delta is    0.002383765739819
 Root      4 not converged, maximum delta is    0.002290418162280
 Root      5 has converged.
 Excitation Energies [eV] at current iteration:
 Root      1 :     1.666936984675476   Change is   -0.001747898694930
 Root      2 :     1.688043248253185   Change is   -0.001802410686159
 Root      3 :     2.185298091394810   Change is   -0.000836121487988
 Root      4 :     2.192728644098461   Change is   -0.000786857253945
 Root      5 :     2.649978054558564   Change is   -0.000000000001427
 Iteration     6 Dimension    64 NMult    56 NNew      8
 CISAX will form     8 AO SS matrices at one time.
 NMat=     8 NSing=     8 JSym2X= 0.
 Root      1 not converged, maximum delta is    0.001054023729609
 Root      2 not converged, maximum delta is    0.001075224076541
 Root      3 not converged, maximum delta is    0.001007617945219
 Root      4 has converged.
 Root      5 has converged.
 Excitation Energies [eV] at current iteration:
 Root      1 :     1.666688186392311   Change is   -0.000248798283165
 Root      2 :     1.687784475152541   Change is   -0.000258773100643
 Root      3 :     2.185171228481193   Change is   -0.000126862913618
 Root      4 :     2.192608731786342   Change is   -0.000119912312119
 Root      5 :     2.649978054557912   Change is   -0.000000000000651
 Iteration     7 Dimension    70 NMult    64 NNew      6
 CISAX will form     6 AO SS matrices at one time.
 NMat=     6 NSing=     6 JSym2X= 0.
 Root      1 has converged.
 Root      2 has converged.
 Root      3 has converged.
 Root      4 has converged.
 Root      5 has converged.
 Excitation Energies [eV] at current iteration:
 Root      1 :     1.666663876056013   Change is   -0.000024310336299
[...]
 Alpha virt. eigenvalues --    1.84440   1.84578   1.84790   1.84835   1.85098
 Alpha virt. eigenvalues --    1.85168   1.85259   1.85384   1.85440   1.85538
 Alpha virt. eigenvalues --    1.85854   1.85953   1.86344   1.86432   1.86536
 Alpha virt. eigenvalues --    1.86697   1.86774   1.86874   1.87043   1.87089
 Alpha virt. eigenvalues --    1.87434   1.87531   1.87678   1.87813   1.87854
 Alpha virt. eigenvalues --    1.88026   1.88065   1.88223   1.88517   1.88616
 Alpha virt. eigenvalues --    1.88810   1.88983   1.89118   1.89122   1.89601
 Alpha virt. eigenvalues --    1.89704   1.89721   1.89927   1.90105   1.90236
 Alpha virt. eigenvalues --    1.90747   1.90942   1.91341   1.91436   1.91475
 Alpha virt. eigenvalues --    1.91631   1.92143   1.92230   1.92616   1.92696
 Alpha virt. eigenvalues --    1.92969   1.93203   1.93325   1.93557   1.94274
 Alpha virt. eigenvalues --    1.94356   1.94671   1.94865   1.95466   1.95646
 Alpha virt. eigenvalues --    1.95721   1.95855   1.95989   1.96093   1.96140
 Alpha virt. eigenvalues --    1.96218   1.96531   1.96587   1.96881   1.96978
 Alpha virt. eigenvalues --    1.97442   1.97585   1.97828   1.97849   1.98160
 Alpha virt. eigenvalues --    1.98212   1.98389   1.98689   1.99121   1.99131
 Alpha virt. eigenvalues --    1.99812   1.99967   2.00647   2.00778   2.00988
 Alpha virt. eigenvalues --    2.01142   2.01474   2.01561   2.01643   2.01663
 Alpha virt. eigenvalues --    2.01716   2.01862   2.02754   2.02774   2.03189
 Alpha virt. eigenvalues --    2.03227   2.03397   2.03422   2.03479   2.03569
 Alpha virt. eigenvalues --    2.04028   2.04071   2.04938   2.05027   2.05495
 Alpha virt. eigenvalues --    2.05677   2.06061   2.06331   2.06906   2.07074
 Alpha virt. eigenvalues --    2.07178   2.07408   2.08557   2.08598   2.08964
 Alpha virt. eigenvalues --    2.09049   2.09576   2.09657   2.10765   2.11088
 Alpha virt. eigenvalues --    2.11170   2.11458   2.11529   2.11563   2.11708
 Alpha virt. eigenvalues --    2.11908   2.12454   2.12500   2.12785   2.12823
 Alpha virt. eigenvalues --    2.12849   2.12918   2.13659   2.13755   2.14127
 Alpha virt. eigenvalues --    2.14308   2.15319   2.15453   2.15919   2.16129
 Alpha virt. eigenvalues --    2.16506   2.16639   2.16744   2.17237   2.17406
 Alpha virt. eigenvalues --    2.17692   2.17700   2.17977   2.18056   2.18061
 Alpha virt. eigenvalues --    2.18320   2.18710   2.18863   2.19274   2.19629
 Alpha virt. eigenvalues --    2.19860   2.20021   2.20206   2.20292   2.20474
 Alpha virt. eigenvalues --    2.21135   2.21223   2.21653   2.21742   2.21815
 Alpha virt. eigenvalues --    2.21921   2.22663   2.22745   2.23304   2.23398
 Alpha virt. eigenvalues --    2.24375   2.24469   2.24942   2.25050   2.26291
 Alpha virt. eigenvalues --    2.26484   2.26765   2.27052   2.27095   2.27249
 Alpha virt. eigenvalues --    2.28122   2.28351   2.29250   2.29482   2.29721
 Alpha virt. eigenvalues --    2.29925   2.30442   2.30654   2.30847   2.31073
 Alpha virt. eigenvalues --    2.31192   2.31252   2.32101   2.32288   2.33120
 Alpha virt. eigenvalues --    2.33272   2.33450   2.33527   2.34129   2.34181
 Alpha virt. eigenvalues --    2.35336   2.35375   2.35779   2.35946   2.36336
 Alpha virt. eigenvalues --    2.36378   2.36497   2.36603   2.37646   2.37731
 Alpha virt. eigenvalues --    2.38229   2.38424   2.38804   2.38841   2.39592
 Alpha virt. eigenvalues --    2.39711   2.40169   2.40310   2.40470   2.40856
 Alpha virt. eigenvalues --    2.41237   2.41257   2.41669   2.41734   2.42037
 Alpha virt. eigenvalues --    2.42170   2.42864   2.42923   2.43079   2.43561
 Alpha virt. eigenvalues --    2.44008   2.44162   2.44711   2.44845   2.44889
 Alpha virt. eigenvalues --    2.45032   2.45531   2.45618   2.46271   2.46322
 Alpha virt. eigenvalues --    2.46463   2.46545   2.46784   2.46842   2.47246
 Alpha virt. eigenvalues --    2.47428   2.47697   2.47928   2.49287   2.49432
 Alpha virt. eigenvalues --    2.49933   2.50047   2.50488   2.50524   2.51108
 Alpha virt. eigenvalues --    2.51301   2.51644   2.51867   2.52409   2.52427
 Alpha virt. eigenvalues --    2.52793   2.53193   2.53899   2.54004   2.54115
 Alpha virt. eigenvalues --    2.54318   2.54775   2.54852   2.55495   2.55708
 Alpha virt. eigenvalues --    2.57838   2.58113   2.58626   2.58938   2.60197
 Alpha virt. eigenvalues --    2.60328   2.60594   2.60943   2.61686   2.61854
 Alpha virt. eigenvalues --    2.62456   2.62515   2.62941   2.63162   2.63914
 Alpha virt. eigenvalues --    2.64230   2.64244   2.64460   2.65063   2.65129
 Alpha virt. eigenvalues --    2.65766   2.65876   2.66758   2.66851   2.66888
 Alpha virt. eigenvalues --    2.67083   2.67890   2.68009   2.68836   2.68845
 Alpha virt. eigenvalues --    2.69014   2.69051   2.69372   2.69618   2.69981
 Alpha virt. eigenvalues --    2.70169   2.70968   2.71087   2.71913   2.72046
 Alpha virt. eigenvalues --    2.72514   2.72642   2.72753   2.72846   2.73256
 Alpha virt. eigenvalues --    2.73317   2.73481   2.73547   2.74497   2.74539
 Alpha virt. eigenvalues --    2.74961   2.75082   2.76551   2.76573   2.77101
 Alpha virt. eigenvalues --    2.77220   2.77430   2.77624   2.78155   2.78316
 Alpha virt. eigenvalues --    2.78715   2.78719   2.79116   2.79172   2.80279
 Alpha virt. eigenvalues --    2.80318   2.80582   2.80703   2.81104   2.81182
 Alpha virt. eigenvalues --    2.81916   2.82012   2.82324   2.82363   2.83725
 Alpha virt. eigenvalues --    2.83753   2.83868   2.83931   2.84526   2.84561
 Alpha virt. eigenvalues --    2.84864   2.84916   2.85638   2.85709   2.86675
 Alpha virt. eigenvalues --    2.86987   2.87179   2.87619   2.88119   2.88255
 Alpha virt. eigenvalues --    2.88495   2.88650   2.88901   2.88916   2.90481
 Alpha virt. eigenvalues --    2.90669   2.91092   2.91172   2.93136   2.93337
 Alpha virt. eigenvalues --    2.93789   2.94178   2.94529   2.94593   2.95351
 Alpha virt. eigenvalues --    2.95469   2.95835   2.96214   2.96386   2.96429
 Alpha virt. eigenvalues --    2.96873   2.97183   2.97808   2.98043   2.98177
 Alpha virt. eigenvalues --    2.98353   2.98358   2.98589   2.98589   2.98825
 Alpha virt. eigenvalues --    2.98860   2.98956   2.99556   2.99812   3.00019
 Alpha virt. eigenvalues --    3.00022   3.00210   3.00348   3.00449   3.01000
 Alpha virt. eigenvalues --    3.01917   3.01974   3.02005   3.02117   3.02738
 Alpha virt. eigenvalues --    3.02821   3.02970   3.03296   3.03321   3.03717
 Alpha virt. eigenvalues --    3.04064   3.04154   3.04438   3.04440   3.04532
 Alpha virt. eigenvalues --    3.04776   3.05274   3.05368   3.06093   3.06178
 Alpha virt. eigenvalues --    3.06787   3.06946   3.07932   3.08112   3.09375
 Alpha virt. eigenvalues --    3.09380   3.09673   3.10416   3.10422   3.10746
 Alpha virt. eigenvalues --    3.11313   3.11499   3.11918   3.11932   3.12160
 Alpha virt. eigenvalues --    3.12303   3.13263   3.13616   3.13654   3.13710
 Alpha virt. eigenvalues --    3.14106   3.14476   3.15901   3.16005   3.17249
 Alpha virt. eigenvalues --    3.17548   3.17894   3.18045   3.19053   3.19101
 Alpha virt. eigenvalues --    3.22320   3.22604   3.23930   3.24464   3.24673
 Alpha virt. eigenvalues --    3.25217   3.26488   3.26682   3.27416   3.27606
 Alpha virt. eigenvalues --    3.29119   3.29226   3.31400   3.31509   3.33208
 Alpha virt. eigenvalues --    3.33399   3.40255   3.40660   3.42786   3.42833
 Alpha virt. eigenvalues --    3.48651   3.48725   3.50003   3.50303   3.50856
 Alpha virt. eigenvalues --    3.51455   3.56531   3.57029   3.59082   3.59365
 Alpha virt. eigenvalues --    3.62540   3.62825   3.66128   3.66152   3.67208
 Alpha virt. eigenvalues --    3.67543   3.73287   3.74034   3.76067   3.76698
          Condensed to atoms (all electrons):
 Mulliken charges:
               1
     1  Mg   0.838477
     2  C   -0.002939
     3  C   -0.094366
     4  C   -0.045864
     5  C   -0.063975
     6  N   -0.256747
     7  C   -0.052439
     8  C   -0.013955
     9  C   -0.086948
    10  C    0.046221
    11  C    0.104811
    12  C    0.053553
    13  C   -0.071897
    14  H    0.036533
    15  N   -0.433086
    16  C    0.168257
    17  C   -0.177430
    18  C   -0.004199
    19  C    0.148627
    20  C    0.110235
    21  C    0.012083
    22  O   -0.249522
    23  C    0.062641
    24  N   -0.341140
    25  C    0.041192
    26  C   -0.028171
    27  C   -0.024043
    28  C    0.074951
    29  C    0.076128
    30  C    0.035101
    31  C   -0.004480
    32  N   -0.310533
    33  C    0.080544
    34  C   -0.169633
    35  C    0.008509
    36  C    0.083051
    37  C    0.127282
    38  C    0.046274
    39  O   -0.187924
    40  C   -0.005354
    41  C    0.212958
    42  O   -0.256945
    43  O   -0.304894
    44  C    0.157421
    45  H   -0.017682
    46  H   -0.016821
    47  H   -0.041382
    48  H    0.001166
    49  H   -0.004236
    50  H    0.025606
    51  H    0.016445
    52  H    0.016668
    53  H    0.010657
    54  H    0.044315
    55  H    0.018076
    56  H    0.017565
    57  H    0.005830
    58  H    0.026866
    59  H    0.038743
    60  H    0.037459
    61  H    0.035472
    62  H    0.030726
    63  H    0.016597
    64  H    0.009580
    65  H    0.023291
    66  H    0.012540
    67  H    0.004842
    68  H    0.006541
    69  H    0.004736
    70  H    0.008945
    71  H    0.018034
    72  H    0.028859
    73  H    0.047767
    74  H    0.009106
    75  H    0.046183
    76  H    0.035262
    77  H    0.043300
    78  H    0.046263
    79  H    0.054310
    80  Mg   0.838048
    81  C   -0.016750
    82  C   -0.087895
    83  C   -0.045381
    84  C   -0.064323
    85  N   -0.254494
    86  C   -0.049618
    87  C   -0.015094
    88  C   -0.090589
    89  C    0.045819
    90  C    0.114432
    91  C    0.062599
    92  C   -0.077621
    93  H    0.034585
    94  N   -0.423445
    95  C    0.162850
    96  C   -0.174780
    97  C   -0.007888
    98  C    0.152004
    99  C    0.099449
   100  C    0.015498
   101  O   -0.253317
   102  C    0.061251
   103  N   -0.349911
   104  C    0.037514
   105  C   -0.019858
   106  C   -0.034902
   107  C    0.088989
   108  C    0.073630
   109  C    0.034693
   110  C   -0.007612
   111  N   -0.324246
   112  C    0.078586
   113  C   -0.162525
   114  C    0.002590
   115  C    0.096281
   116  C    0.131308
   117  C    0.042887
   118  O   -0.187648
   119  C    0.000703
   120  C    0.211150
   121  O   -0.251182
   122  O   -0.305571
   123  C    0.152138
   124  H   -0.020237
   125  H   -0.015696
   126  H   -0.040111
   127  H   -0.000718
   128  H   -0.004893
   129  H    0.023203
   130  H    0.014800
   131  H    0.015130
   132  H    0.013839
   133  H    0.037699
   134  H    0.020503
   135  H    0.019277
   136  H    0.008301
   137  H    0.025986
   138  H    0.039447
   139  H    0.038212
   140  H    0.036190
   141  H    0.033680
   142  H    0.014160
   143  H    0.012912
   144  H    0.024748
   145  H    0.011920
   146  H    0.005844
   147  H    0.006082
   148  H    0.003816
   149  H    0.010773
   150  H    0.017786
   151  H    0.030094
   152  H    0.045778
   153  H    0.008427
   154  H    0.048636
   155  H    0.035638
   156  H    0.043754
   157  H    0.049177
   158  H    0.053491
 Sum of Mulliken charges =  -0.00000
 Mulliken charges with hydrogens summed into heavy atoms:
               1
     1  Mg   0.838477
     2  C   -0.002939
     3  C   -0.112047
     4  C   -0.062685
     5  C   -0.105357
     6  N   -0.256747
     7  C   -0.052439
     8  C   -0.012789
     9  C   -0.091183
    10  C    0.046221
    11  C    0.163530
    12  C    0.108525
    13  C    0.000277
    15  N   -0.433086
    16  C    0.168257
    17  C   -0.177430
    18  C   -0.004199
    19  C    0.148627
    20  C    0.181674
    21  C    0.012083
    22  O   -0.249522
    23  C    0.166299
    24  N   -0.341140
    25  C    0.041192
    26  C   -0.011573
    27  C   -0.014463
    28  C    0.074951
    29  C    0.116801
    30  C    0.046378
    31  C    0.051358
    32  N   -0.310533
    33  C    0.080544
    34  C   -0.169633
    35  C    0.008509
    36  C    0.083051
    37  C    0.230339
    38  C    0.046274
    39  O   -0.187924
    40  C    0.029908
    41  C    0.212958
    42  O   -0.256945
    43  O   -0.304894
    44  C    0.301294
    80  Mg   0.838048
    81  C   -0.016750
    82  C   -0.108132
    83  C   -0.061077
    84  C   -0.104434
    85  N   -0.254494
    86  C   -0.049618
    87  C   -0.015813
    88  C   -0.095482
    89  C    0.045819
    90  C    0.167565
    91  C    0.114138
    92  C   -0.003256
    94  N   -0.423445
    95  C    0.162850
    96  C   -0.174780
    97  C   -0.007888
    98  C    0.152004
    99  C    0.173182
   100  C    0.015498
   101  O   -0.253317
   102  C    0.169333
   103  N   -0.349911
   104  C    0.037514
   105  C   -0.005699
   106  C   -0.021990
   107  C    0.088989
   108  C    0.116141
   109  C    0.044591
   110  C    0.051041
   111  N   -0.324246
   112  C    0.078586
   113  C   -0.162525
   114  C    0.002590
   115  C    0.096281
   116  C    0.234149
   117  C    0.042887
   118  O   -0.187648
   119  C    0.036341
   120  C    0.211150
   121  O   -0.251182
   122  O   -0.305571
   123  C    0.298560
 Electronic spatial extent (au):  <R**2>=         149847.9921
 Charge=             -0.0000 electrons
 Dipole moment (field-independent basis, Debye):
    X=             -3.8512    Y=             -2.1931    Z=             -7.4360  Tot=              8.6566
 Quadrupole moment (field-independent basis, Debye-Ang):
   XX=           -518.0863   YY=           -545.0558   ZZ=           -454.0120
   XY=            -16.5386   XZ=              2.4316   YZ=            -42.3025
 Traceless Quadrupole moment (field-independent basis, Debye-Ang):
   XX=            -12.3682   YY=            -39.3378   ZZ=             51.7060
   XY=            -16.5386   XZ=              2.4316   YZ=            -42.3025
 Octapole moment (field-independent basis, Debye-Ang**2):
  XXX=           -512.8991  YYY=            344.0963  ZZZ=           -112.2656  XYY=           -140.3685
  XXY=           -102.3981  XXZ=           -330.8560  XZZ=            146.9069  YZZ=           -150.8584
  YYZ=           -173.0139  XYZ=            165.8112
 Hexadecapole moment (field-independent basis, Debye-Ang**3):
 XXXX=        -139660.3592 YYYY=         -41546.2244 ZZZZ=         -24953.4342 XXXY=          -1246.5056
 XXXZ=           -183.9714 YYYX=           -180.5077 YYYZ=          -1041.4218 ZZZX=           1077.8382
 ZZZY=           -115.9679 XXYY=         -31274.7865 XXZZ=         -24755.8867 YYZZ=         -10993.3315
 XXYZ=          -1966.0657 YYXZ=          -1457.0201 ZZXY=            501.1902
 N-N= 1.424982973177D+04 E-N=-3.798064282209D+04  KE= 4.028802044631D+03
 Leave Link  601 at Sat Sep  4 10:28:13 2021, MaxMem= 23488102400 cpu:              17.0 elap:               0.8
 (Enter /sw/apps/gaussian-16.0/g16/l9999.exe)
 1\1\GINC-BP1-COMPUTE00084\SP\RCAM-B3LYP TD-FC\def2SVP\C68H72Mg2N8O8\OF
 15641\04-Sep-2021\0\\#p cam-b3lyp/Def2SVP td=(nstates=5)\\TDDFT excite
 d states in gaussian\\0,1\Mg,0,0.,0.,0.\C,0,-0.217,-2.218,2.801\C,0,-1
 .255,2.442,2.026\C,0,-0.245,1.85,-2.564\C,0,0.146,-2.824,-2.037\N,0,-0
 .617,-0.009,2.126\C,0,-0.594,-0.908,3.105\C,0,-0.936,-0.309,4.502\C,0,
 -1.773,0.964,4.032\C,0,-1.155,1.168,2.66\C,0,-3.263,0.685,3.863\C,0,0.
 345,0.11,5.299\C,0,0.124,0.397,6.787\H,0,1.168,0.033,7.733\N,0,-0.185,
 1.961,-0.152\C,0,-0.703,2.8,0.777\C,0,-0.62,4.156,0.193\C,0,-0.187,4.0
 15,-1.225\C,0,-0.214,2.583,-1.38\C,0,-0.887,5.406,0.974\C,0,0.181,5.01
 3,-2.277\O,0,0.303,4.69,-3.508\C,0,0.31,6.414,-1.837\N,0,-0.265,-0.413
 ,-2.029\C,0,-0.279,0.569,-2.937\C,0,-0.196,0.024,-4.332\C,0,0.124,-1.5
 33,-4.18\C,0,0.086,-1.632,-2.635\C,0,-1.451,0.205,-5.197\C,0,1.373,-2.
 07,-4.923\C,0,2.626,-1.49,-4.306\N,0,0.15,-2.144,0.303\C,0,0.173,-3.13
 6,-0.688\C,0,0.173,-4.438,0.004\C,0,0.133,-4.111,1.358\C,0,0.083,-2.69
 5,1.502\C,0,0.149,-5.715,-0.623\C,0,0.096,-4.629,2.716\O,0,0.208,-5.74
 7,3.221\C,0,-0.255,-3.428,3.701\C,0,0.717,-3.482,4.848\O,0,1.931,-3.25
 5,4.669\O,0,0.038,-3.556,6.003\C,0,0.943,-3.583,7.183\H,0,-1.859,3.22,
 2.497\H,0,-0.218,2.453,-3.474\H,0,0.276,-3.747,-2.605\H,0,-1.554,-0.94
 9,5.132\H,0,-1.585,1.831,4.665\H,0,-3.484,-0.377,3.969\H,0,-3.511,1.02
 7,2.858\H,0,-3.852,1.301,4.543\H,0,0.669,1.096,4.966\H,0,1.13,-0.639,5
 .189\H,0,-0.844,0.026,7.125\H,0,0.062,1.477,6.921\H,0,-1.344,5.186,1.9
 38\H,0,-1.651,5.963,0.432\H,0,0.007,6.02,1.084\H,0,-0.635,6.744,-1.405
 \H,0,0.665,6.97,-2.704\H,0,1.048,6.466,-1.036\H,0,0.608,0.501,-4.891\H
 ,0,-0.692,-2.156,-4.547\H,0,-1.267,0.74,-6.129\H,0,-2.204,0.714,-4.596
 \H,0,-1.967,-0.72,-5.453\H,0,1.356,-1.759,-5.967\H,0,1.452,-3.157,-4.9
 02\H,0,2.714,-0.522,-4.798\H,0,3.487,-2.121,-4.529\H,0,2.495,-1.303,-3
 .24\H,0,0.867,-6.333,-0.084\H,0,0.404,-5.642,-1.68\H,0,-0.891,-5.999,-
 0.463\H,0,-1.283,-3.581,4.028\H,0,0.698,-4.478,7.755\H,0,0.833,-2.619,
 7.68\H,0,2.,-3.754,6.976\Mg,0,13.14488,1.19033,1.00209\C,0,12.72244,0.
 61007,4.51833\C,0,11.93844,4.3371,1.52831\C,0,13.07954,1.58441,-2.1455
 8\C,0,13.21911,-2.26847,0.58146\N,0,12.45393,2.22331,2.83179\C,0,12.39
 697,1.92361,4.12069\C,0,12.04432,3.12032,5.04432\C,0,11.27852,4.03579,
 3.96992\C,0,11.95201,3.53183,2.69513\C,0,9.79169,3.73636,3.87503\C,0,1
 3.32136,3.83913,5.60512\C,0,13.05744,4.81655,6.75262\H,0,14.05563,4.93
 179,7.81225\N,0,13.06165,2.84994,-0.08296\C,0,12.56011,4.04462,0.29449
 \C,0,12.71432,4.93146,-0.86908\C,0,13.19684,4.11807,-2.01812\C,0,13.10
 962,2.7863,-1.45342\C,0,12.48911,6.41389,-0.79784\C,0,13.64835,4.47802
 ,-3.40115\O,0,13.79848,3.58984,-4.31297\C,0,13.81946,5.91081,-3.68281\
 N,0,12.93661,-0.14056,-0.58149\C,0,12.99524,0.28597,-1.85528\C,0,13.09
 782,-0.87525,-2.81519\C,0,13.34054,-2.16637,-1.90323\C,0,13.24298,-1.5
 1231,-0.5075\C,0,11.88151,-1.10691,-3.71146\C,0,14.5881,-3.03289,-2.22
 788\C,0,15.849,-2.26057,-1.91315\N,0,13.18576,-0.5342,2.30302\C,0,13.1
 8862,-1.89293,1.9184\C,0,13.10228,-2.69577,3.1555\C,0,13.0314,-1.74058
 ,4.18072\C,0,13.05044,-0.43463,3.62068\C,0,13.04871,-4.11657,3.2231\C,
 0,12.9341,-1.54013,5.60867\O,0,12.96785,-2.27673,6.59357\C,0,12.60223,
 -0.01005,5.88274\C,0,13.53045,0.48089,6.95972\O,0,14.75543,0.54819,6.7
 56\O,0,12.80267,0.99209,7.96936\C,0,13.67921,1.50221,9.05714\H,0,11.36
 208,5.26255,1.5433\H,0,13.16699,1.66346,-3.23167\H,0,13.33553,-3.3536,
 0.54131\H,0,11.3818,2.87937,5.86699\H,0,11.49421,5.08988,4.12398\H,0,9
 .51618,2.87343,4.46288\H,0,9.59381,3.55845,2.82611\H,0,9.21065,4.62277
 ,4.14522\H,0,13.70124,4.53679,4.84769\H,0,14.06164,3.12261,5.90381\H,0
 ,12.05567,4.68898,7.18057\H,0,13.04903,5.83181,6.34868\H,0,11.98186,6.
 69947,0.13197\H,0,11.77261,6.66676,-1.58685\H,0,13.4052,6.98716,-0.955
 39\H,0,12.87877,6.42788,-3.50902\H,0,14.2316,5.96298,-4.69241\H,0,14.5
 4191,6.32366,-2.9699\H,0,13.94235,-0.75227,-3.48209\H,0,12.50576,-2.87
 896,-1.97538\H,0,12.12526,-1.09176,-4.79054\H,0,11.1382,-0.35593,-3.47
 895\H,0,11.34034,-2.03302,-3.52527\H,0,14.62274,-3.26175,-3.29586\H,0,
 14.60818,-3.9778,-1.69522\H,0,15.99446,-1.64986,-2.80923\H,0,16.68527,
 -2.93927,-1.75803\H,0,15.692,-1.57729,-1.07047\H,0,13.71067,-4.41529,4
 .02502\H,0,13.338,-4.57077,2.2777\H,0,11.98708,-4.26161,3.44033\H,0,11
 .55612,0.04911,6.18561\H,0,13.36852,1.00127,9.97922\H,0,13.58396,2.603
 88,9.02571\H,0,14.73017,1.24066,9.01816\\Version=ES64L-G16RevA.03\Stat
 e=1-A\HF=-4069.8116409\RMSD=5.657e-09\PG=C01 [X(C68H72Mg2N8O8)]\\@


 WE STILL HAVE JUDGEMENT HERE,
 THAT WE TEACH BUT BLOODY INSTRUCTIONS,
 WHICH, BEING TAUGHT,
 RETURN TO PLAGUE THE INVENTOR.
           MACBETH ACT I, SCENE VII
 Job cpu time:       0 days 11 hours 37 minutes 59.6 seconds.
 Elapsed time:       0 days  0 hours 29 minutes 41.0 seconds.
 File lengths (MBytes):  RWF=  13225 Int=      0 D2E=      0 Chk=    574 Scr=      1
 Normal termination of Gaussian 16 at Sat Sep  4 10:28:13 2021.
