 Entering Gaussian System, Link 0=g16
 Initial command:
 /sw/apps/gaussian-16.0/g16/l1.exe "/tmp/Gau-275453.inp" -scrdir="/tmp/"
 Entering Link 1 = /sw/apps/gaussian-16.0/g16/l1.exe PID=    275454.
  
 Copyright (c) 1988,1990,1992,1993,1995,1998,2003,2009,2016,
            Gaussian, Inc.  All Rights Reserved.
  
 This is part of the Gaussian(R) 16 program.  It is based on
 the Gaussian(R) 09 system (copyright 2009, Gaussian, Inc.),
 the Gaussian(R) 03 system (copyright 2003, Gaussian, Inc.),
 the Gaussian(R) 98 system (copyright 1998, Gaussian, Inc.),
 the Gaussian(R) 94 system (copyright 1995, Gaussian, Inc.),
 the Gaussian 92(TM) system (copyright 1992, Gaussian, Inc.),
 the Gaussian 90(TM) system (copyright 1990, Gaussian, Inc.),
 the Gaussian 88(TM) system (copyright 1988, Gaussian, Inc.),
 the Gaussian 86(TM) system (copyright 1986, Carnegie Mellon
 University), and the Gaussian 82(TM) system (copyright 1983,
 Carnegie Mellon University). Gaussian is a federally registered
 trademark of Gaussian, Inc.
  
 This software contains proprietary and confidential information,
 including trade secrets, belonging to Gaussian, Inc.
  
 This software is provided under written license and may be
 used, copied, transmitted, or stored only in accord with that
 written license.
  
 The following legend is applicable only to US Government
 contracts under FAR:
  
                    RESTRICTED RIGHTS LEGEND
  
 Use, reproduction and disclosure by the US Government is
 subject to restrictions as set forth in subparagraphs (a)
 and (c) of the Commercial Computer Software - Restricted
 Rights clause in FAR 52.227-19.
  
 Gaussian, Inc.
 340 Quinnipiac St., Bldg. 40, Wallingford CT 06492
  
  
 ---------------------------------------------------------------
 Warning -- This program may not be used in any manner that
 competes with the business of Gaussian, Inc. or will provide
 assistance to any competitor of Gaussian, Inc.  The licensee
 of this program is prohibited from giving any competitor of
 Gaussian, Inc. access to this program.  By using this program,
 the user acknowledges that Gaussian, Inc. is engaged in the
 business of creating and licensing software in the field of
 computational chemistry and represents and warrants to the
 licensee that it is not a competitor of Gaussian, Inc. and that
 it will not use this program in any manner prohibited above.
 ---------------------------------------------------------------
  

 Cite this work as:
 Gaussian 16, Revision A.03,
 M. J. Frisch, G. W. Trucks, H. B. Schlegel, G. E. Scuseria, 
 M. A. Robb, J. R. Cheeseman, G. Scalmani, V. Barone, 
 G. A. Petersson, H. Nakatsuji, X. Li, M. Caricato, A. V. Marenich, 
 J. Bloino, B. G. Janesko, R. Gomperts, B. Mennucci, H. P. Hratchian, 
 J. V. Ortiz, A. F. Izmaylov, J. L. Sonnenberg, D. Williams-Young, 
 F. Ding, F. Lipparini, F. Egidi, J. Goings, B. Peng, A. Petrone, 
 T. Henderson, D. Ranasinghe, V. G. Zakrzewski, J. Gao, N. Rega, 
 G. Zheng, W. Liang, M. Hada, M. Ehara, K. Toyota, R. Fukuda, 
 J. Hasegawa, M. Ishida, T. Nakajima, Y. Honda, O. Kitao, H. Nakai, 
 T. Vreven, K. Throssell, J. A. Montgomery, Jr., J. E. Peralta, 
 F. Ogliaro, M. J. Bearpark, J. J. Heyd, E. N. Brothers, K. N. Kudin, 
 V. N. Staroverov, T. A. Keith, R. Kobayashi, J. Normand, 
 K. Raghavachari, A. P. Rendell, J. C. Burant, S. S. Iyengar, 
 J. Tomasi, M. Cossi, J. M. Millam, M. Klene, C. Adamo, R. Cammi, 
 J. W. Ochterski, R. L. Martin, K. Morokuma, O. Farkas, 
 J. B. Foresman, and D. J. Fox, Gaussian, Inc., Wallingford CT, 2016.
 
 ******************************************
 Gaussian 16:  ES64L-G16RevA.03 25-Dec-2016
                11-Sep-2021 
 ******************************************
 %nproc=24
 Will use up to   24 processors via shared memory.
 %mem=175gb
 -----------------------------------
 #p cam-b3lyp/Def2SVP td=(nstates=5)
 -----------------------------------
 1/38=1,172=1/1;
 2/12=2,17=6,18=5,40=1/2;
 3/5=43,7=101,11=9,25=1,30=1,74=-40/1,2,3,8;
 4//1;
 5/5=2,38=5/2;
 8/6=1,10=1,108=5/1;
 9/41=5,42=1,70=2/14;
 6/7=2,8=2,9=2,10=2/1;
 99/5=1,9=1/99;
 Leave Link    1 at Sat Sep 11 01:21:05 2021, MaxMem= 23488102400 cpu:               0.7 elap:               0.0
 (Enter /sw/apps/gaussian-16.0/g16/l101.exe)
 --------------------------------
 TDDFT excited states in gaussian
 --------------------------------
 Symbolic Z-matrix:
 Charge =  0 Multiplicity = 1
 Mg                    0.        0.        0. 
 C                    -0.217    -2.218     2.801 
 C                    -1.255     2.442     2.026 
 C                    -0.245     1.85     -2.564 
 C                     0.146    -2.824    -2.037 
 N                    -0.617    -0.009     2.126 
 C                    -0.594    -0.908     3.105 
 C                    -0.936    -0.309     4.502 
 C                    -1.773     0.964     4.032 
 C                    -1.155     1.168     2.66 
 C                    -3.263     0.685     3.863 
 C                     0.345     0.11      5.299 
 C                     0.124     0.397     6.787 
 H                     1.168     0.033     7.733 
 N                    -0.185     1.961    -0.152 
 C                    -0.703     2.8       0.777 
 C                    -0.62      4.156     0.193 
 C                    -0.187     4.015    -1.225 
 C                    -0.214     2.583    -1.38 
 C                    -0.887     5.406     0.974 
 C                     0.181     5.013    -2.277 
 O                     0.303     4.69     -3.508 
 C                     0.31      6.414    -1.837 
 N                    -0.265    -0.413    -2.029 
 C                    -0.279     0.569    -2.937 
 C                    -0.196     0.024    -4.332 
 C                     0.124    -1.533    -4.18 
 C                     0.086    -1.632    -2.635 
 C                    -1.451     0.205    -5.197 
 C                     1.373    -2.07     -4.923 
 C                     2.626    -1.49     -4.306 
 N                     0.15     -2.144     0.303 
 C                     0.173    -3.136    -0.688 
 C                     0.173    -4.438     0.004 
 C                     0.133    -4.111     1.358 
 C                     0.083    -2.695     1.502 
 C                     0.149    -5.715    -0.623 
 C                     0.096    -4.629     2.716 
 O                     0.208    -5.747     3.221 
 C                    -0.255    -3.428     3.701 
 C                     0.717    -3.482     4.848 
 O                     1.931    -3.255     4.669 
 O                     0.038    -3.556     6.003 
 C                     0.943    -3.583     7.183 
 H                    -1.859     3.22      2.497 
 H                    -0.218     2.453    -3.474 
 H                     0.276    -3.747    -2.605 
 H                    -1.554    -0.949     5.132 
 H                    -1.585     1.831     4.665 
 H                    -3.484    -0.377     3.969 
 H                    -3.511     1.027     2.858 
 H                    -3.852     1.301     4.543 
 H                     0.669     1.096     4.966 
 H                     1.13     -0.639     5.189 
 H                    -0.844     0.026     7.125 
 H                     0.062     1.477     6.921 
 H                    -1.344     5.186     1.938 
 H                    -1.651     5.963     0.432 
 H                     0.007     6.02      1.084 
 H                    -0.635     6.744    -1.405 
 H                     0.665     6.97     -2.704 
 H                     1.048     6.466    -1.036 
 H                     0.608     0.501    -4.891 
 H                    -0.692    -2.156    -4.547 
 H                    -1.267     0.74     -6.129 
 H                    -2.204     0.714    -4.596 
 H                    -1.967    -0.72     -5.453 
 H                     1.356    -1.759    -5.967 
 H                     1.452    -3.157    -4.902 
 H                     2.714    -0.522    -4.798 
 H                     3.487    -2.121    -4.529 
 H                     2.495    -1.303    -3.24 
 H                     0.867    -6.333    -0.084 
 H                     0.404    -5.642    -1.68 
 H                    -0.891    -5.999    -0.463 
 H                    -1.283    -3.581     4.028 
 H                     0.698    -4.478     7.755 
 H                     0.833    -2.619     7.68 
 H                     2.       -3.754     6.976 
 Mg                    10.50734   0.95442   0.80423 
 C                     12.72689   0.79157   3.61957 
 C                     7.93354   0.50548   2.99708 
 C                     8.56909   0.64273  -1.68845 
 C                     13.252    0.2483   -1.22406 
 N                     10.46275   0.6952    3.00038 
 C                     11.36333   0.71215   3.97147 
 C                     10.76479   0.72083   5.40368 
 C                     9.34006   0.05782   5.07291 
 C                     9.21245   0.47081   3.60804 
 C                     9.35214  -1.46022   5.14186 
 C                     10.60366   2.17314   5.97537 
 C                     10.31702   2.24509   7.47684 
 H                     10.88629   3.35102   8.24191 
 N                     8.53254   1.11131   0.68545 
 C                     7.63964   0.91733   1.67862 
 C                     6.31486   1.13266   1.07633 
 C                     6.4896    1.30772  -0.39116 
 C                     7.89914   0.99994  -0.52736 
 C                     5.05791   1.23591   1.89049 
 C                     5.54176   1.67695  -1.49183 
 O                     5.85675   1.53823  -2.72648 
 C                     4.20043   2.11751  -1.08164 
 N                     10.81248   0.30275  -1.1463 
 C                     9.81167   0.31593  -2.04414 
 C                     10.32878   0.06802  -3.4411 
 C                     11.92281   0.126    -3.32575 
 C                     12.05927   0.31714  -1.79924 
 C                     9.91282  -1.25731  -4.07898 
 C                     12.66062   1.11997  -4.26401 
 C                     12.32717   2.54201  -3.87416 
 N                     12.64122   0.76536   1.08509 
 C                     13.60488   0.4393    0.10575 
 C                     14.90421   0.31548   0.79773 
 C                     14.59992   0.55738   2.14583 
 C                     13.2058   0.79393   2.28713 
 C                     16.14235  -0.0309    0.18687 
 C                     15.13935   0.65591   3.483 
 O                     16.27027   0.63623   3.96711 
 C                     13.93051   0.68703   4.51456 
 C                     14.17919   1.80653   5.4879 
 O                     14.17939   2.98944   5.10406 
 O                     14.15924   1.31437   6.74 
 C                     14.39026   2.38886   7.74195 
 H                     7.07675   0.14347   3.56608 
 H                     7.96325   0.62997  -2.59744 
 H                     14.17179   0.12693  -1.80018 
 H                     11.29978   0.11277   6.12328 
 H                     8.54796   0.50726   5.66616 
 H                     10.34913  -1.84902   5.28677 
 H                     8.9467   -1.8008    4.1981 
 H                     8.65724  -1.80816   5.91152 
 H                     9.67537   2.61038   5.58571 
 H                     11.46271   2.77179   5.74239 
 H                     10.511    1.28989   7.97975 
 H                     9.24607   2.40976   7.61817 
 H                     5.21877   0.90171   2.92288 
 H                     4.34889   0.51028   1.47745 
 H                     4.60974   2.23094   1.849 
 H                     3.72433   1.33164  -0.5001 
 H                     3.69884   2.42256  -2.00208 
 H                     4.30433   2.98214  -0.41663 
 H                     9.99708   0.84429  -4.11969 
 H                     12.38408  -0.84381  -3.5635 
 H                     9.38551  -1.13104  -5.04338 
 H                     9.29298  -1.7956   -3.3743 
 H                     10.72542  -1.95994  -4.25563 
 H                     12.31946   0.99248  -5.29431 
 H                     13.73831   0.99514  -4.26385 
 H                     11.37202   2.71846  -4.3778 
 H                     13.09388   3.22683  -4.23086 
 H                     12.1509   2.6233   -2.79528 
 H                     16.88984   0.63337   0.5998 
 H                     16.08872   0.05412  -0.89648 
 H                     16.23667  -1.07017   0.51289 
 H                     13.8962  -0.28481   5.00844 
 H                     15.24333   2.07793   8.35292 
 H                     13.4229   2.52676   8.26055 
 H                     14.73132   3.3503    7.37621 
 
 ITRead=  0  0  0  0  0  0  0  0  0  0  0  0  0  0  0  0  0  0  0  0
 ITRead=  0  0  0  0  0  0  0  0  0  0  0  0  0  0  0  0  0  0  0  0
 ITRead=  0  0  0  0  0  0  0  0  0  0  0  0  0  0  0  0  0  0  0  0
 ITRead=  0  0  0  0  0  0  0  0  0  0  0  0  0  0  0  0  0  0  0  0
 ITRead=  0  0  0  0  0  0  0  0  0  0  0  0  0  0  0  0  0  0  0  0
 ITRead=  0  0  0  0  0  0  0  0  0  0  0  0  0  0  0  0  0  0  0  0
 ITRead=  0  0  0  0  0  0  0  0  0  0  0  0  0  0  0  0  0  0  0  0
 ITRead=  0  0  0  0  0  0  0  0  0  0  0  0  0  0  0  0  0  0
 MicOpt= -1 -1 -1 -1 -1 -1 -1 -1 -1 -1 -1 -1 -1 -1 -1 -1 -1 -1 -1 -1
 MicOpt= -1 -1 -1 -1 -1 -1 -1 -1 -1 -1 -1 -1 -1 -1 -1 -1 -1 -1 -1 -1
 MicOpt= -1 -1 -1 -1 -1 -1 -1 -1 -1 -1 -1 -1 -1 -1 -1 -1 -1 -1 -1 -1
 MicOpt= -1 -1 -1 -1 -1 -1 -1 -1 -1 -1 -1 -1 -1 -1 -1 -1 -1 -1 -1 -1
 MicOpt= -1 -1 -1 -1 -1 -1 -1 -1 -1 -1 -1 -1 -1 -1 -1 -1 -1 -1 -1 -1
 MicOpt= -1 -1 -1 -1 -1 -1 -1 -1 -1 -1 -1 -1 -1 -1 -1 -1 -1 -1 -1 -1
 MicOpt= -1 -1 -1 -1 -1 -1 -1 -1 -1 -1 -1 -1 -1 -1 -1 -1 -1 -1 -1 -1
 MicOpt= -1 -1 -1 -1 -1 -1 -1 -1 -1 -1 -1 -1 -1 -1 -1 -1 -1 -1
 NAtoms=    158 NQM=      158 NQMF=       0 NMMI=      0 NMMIF=      0
                NMic=       0 NMicF=      0.
                    Isotopes and Nuclear Properties:
 (Nuclear quadrupole moments (NQMom) in fm**2, nuclear magnetic moments (NMagM)
  in nuclear magnetons)

  Atom         1           2           3           4           5           6           7           8           9          10
 IAtWgt=          24          12          12          12          12          14          12          12          12          12
 AtmWgt=  23.9850450  12.0000000  12.0000000  12.0000000  12.0000000  14.0030740  12.0000000  12.0000000  12.0000000  12.0000000
 NucSpn=           0           0           0           0           0           2           0           0           0           0
 AtZEff=  -0.0000000  -0.0000000  -0.0000000  -0.0000000  -0.0000000  -0.0000000  -0.0000000  -0.0000000  -0.0000000  -0.0000000
 NQMom=    0.0000000   0.0000000   0.0000000   0.0000000   0.0000000   2.0440000   0.0000000   0.0000000   0.0000000   0.0000000
 NMagM=    0.0000000   0.0000000   0.0000000   0.0000000   0.0000000   0.4037610   0.0000000   0.0000000   0.0000000   0.0000000
 AtZNuc=  12.0000000   6.0000000   6.0000000   6.0000000   6.0000000   7.0000000   6.0000000   6.0000000   6.0000000   6.0000000

  Atom        11          12          13          14          15          16          17          18          19          20
 IAtWgt=          12          12          12           1          14          12          12          12          12          12
 AtmWgt=  12.0000000  12.0000000  12.0000000   1.0078250  14.0030740  12.0000000  12.0000000  12.0000000  12.0000000  12.0000000
 NucSpn=           0           0           0           1           2           0           0           0           0           0
 AtZEff=  -0.0000000  -0.0000000  -0.0000000  -0.0000000  -0.0000000  -0.0000000  -0.0000000  -0.0000000  -0.0000000  -0.0000000
 NQMom=    0.0000000   0.0000000   0.0000000   0.0000000   2.0440000   0.0000000   0.0000000   0.0000000   0.0000000   0.0000000
 NMagM=    0.0000000   0.0000000   0.0000000   2.7928460   0.4037610   0.0000000   0.0000000   0.0000000   0.0000000   0.0000000
 AtZNuc=   6.0000000   6.0000000   6.0000000   1.0000000   7.0000000   6.0000000   6.0000000   6.0000000   6.0000000   6.0000000

  Atom        21          22          23          24          25          26          27          28          29          30
 IAtWgt=          12          16          12          14          12          12          12          12          12          12
 AtmWgt=  12.0000000  15.9949146  12.0000000  14.0030740  12.0000000  12.0000000  12.0000000  12.0000000  12.0000000  12.0000000
 NucSpn=           0           0           0           2           0           0           0           0           0           0
 AtZEff=  -0.0000000  -0.0000000  -0.0000000  -0.0000000  -0.0000000  -0.0000000  -0.0000000  -0.0000000  -0.0000000  -0.0000000
 NQMom=    0.0000000   0.0000000   0.0000000   2.0440000   0.0000000   0.0000000   0.0000000   0.0000000   0.0000000   0.0000000
 NMagM=    0.0000000   0.0000000   0.0000000   0.4037610   0.0000000   0.0000000   0.0000000   0.0000000   0.0000000   0.0000000
 AtZNuc=   6.0000000   8.0000000   6.0000000   7.0000000   6.0000000   6.0000000   6.0000000   6.0000000   6.0000000   6.0000000

  Atom        31          32          33          34          35          36          37          38          39          40
 IAtWgt=          12          14          12          12          12          12          12          12          16          12
 AtmWgt=  12.0000000  14.0030740  12.0000000  12.0000000  12.0000000  12.0000000  12.0000000  12.0000000  15.9949146  12.0000000
 NucSpn=           0           2           0           0           0           0           0           0           0           0
 AtZEff=  -0.0000000  -0.0000000  -0.0000000  -0.0000000  -0.0000000  -0.0000000  -0.0000000  -0.0000000  -0.0000000  -0.0000000
 NQMom=    0.0000000   2.0440000   0.0000000   0.0000000   0.0000000   0.0000000   0.0000000   0.0000000   0.0000000   0.0000000
 NMagM=    0.0000000   0.4037610   0.0000000   0.0000000   0.0000000   0.0000000   0.0000000   0.0000000   0.0000000   0.0000000
 AtZNuc=   6.0000000   7.0000000   6.0000000   6.0000000   6.0000000   6.0000000   6.0000000   6.0000000   8.0000000   6.0000000

  Atom        41          42          43          44          45          46          47          48          49          50
 IAtWgt=          12          16          16          12           1           1           1           1           1           1
 AtmWgt=  12.0000000  15.9949146  15.9949146  12.0000000   1.0078250   1.0078250   1.0078250   1.0078250   1.0078250   1.0078250
 NucSpn=           0           0           0           0           1           1           1           1           1           1
 AtZEff=  -0.0000000  -0.0000000  -0.0000000  -0.0000000  -0.0000000  -0.0000000  -0.0000000  -0.0000000  -0.0000000  -0.0000000
 NQMom=    0.0000000   0.0000000   0.0000000   0.0000000   0.0000000   0.0000000   0.0000000   0.0000000   0.0000000   0.0000000
 NMagM=    0.0000000   0.0000000   0.0000000   0.0000000   2.7928460   2.7928460   2.7928460   2.7928460   2.7928460   2.7928460
 AtZNuc=   6.0000000   8.0000000   8.0000000   6.0000000   1.0000000   1.0000000   1.0000000   1.0000000   1.0000000   1.0000000

  Atom        51          52          53          54          55          56          57          58          59          60
 IAtWgt=           1           1           1           1           1           1           1           1           1           1
 AtmWgt=   1.0078250   1.0078250   1.0078250   1.0078250   1.0078250   1.0078250   1.0078250   1.0078250   1.0078250   1.0078250
 NucSpn=           1           1           1           1           1           1           1           1           1           1
 AtZEff=  -0.0000000  -0.0000000  -0.0000000  -0.0000000  -0.0000000  -0.0000000  -0.0000000  -0.0000000  -0.0000000  -0.0000000
 NQMom=    0.0000000   0.0000000   0.0000000   0.0000000   0.0000000   0.0000000   0.0000000   0.0000000   0.0000000   0.0000000
 NMagM=    2.7928460   2.7928460   2.7928460   2.7928460   2.7928460   2.7928460   2.7928460   2.7928460   2.7928460   2.7928460
 AtZNuc=   1.0000000   1.0000000   1.0000000   1.0000000   1.0000000   1.0000000   1.0000000   1.0000000   1.0000000   1.0000000

  Atom        61          62          63          64          65          66          67          68          69          70
 IAtWgt=           1           1           1           1           1           1           1           1           1           1
 AtmWgt=   1.0078250   1.0078250   1.0078250   1.0078250   1.0078250   1.0078250   1.0078250   1.0078250   1.0078250   1.0078250
 NucSpn=           1           1           1           1           1           1           1           1           1           1
 AtZEff=  -0.0000000  -0.0000000  -0.0000000  -0.0000000  -0.0000000  -0.0000000  -0.0000000  -0.0000000  -0.0000000  -0.0000000
 NQMom=    0.0000000   0.0000000   0.0000000   0.0000000   0.0000000   0.0000000   0.0000000   0.0000000   0.0000000   0.0000000
 NMagM=    2.7928460   2.7928460   2.7928460   2.7928460   2.7928460   2.7928460   2.7928460   2.7928460   2.7928460   2.7928460
 AtZNuc=   1.0000000   1.0000000   1.0000000   1.0000000   1.0000000   1.0000000   1.0000000   1.0000000   1.0000000   1.0000000

  Atom        71          72          73          74          75          76          77          78          79          80
 IAtWgt=           1           1           1           1           1           1           1           1           1          24
 AtmWgt=   1.0078250   1.0078250   1.0078250   1.0078250   1.0078250   1.0078250   1.0078250   1.0078250   1.0078250  23.9850450
 NucSpn=           1           1           1           1           1           1           1           1           1           0
 AtZEff=  -0.0000000  -0.0000000  -0.0000000  -0.0000000  -0.0000000  -0.0000000  -0.0000000  -0.0000000  -0.0000000  -0.0000000
 NQMom=    0.0000000   0.0000000   0.0000000   0.0000000   0.0000000   0.0000000   0.0000000   0.0000000   0.0000000   0.0000000
 NMagM=    2.7928460   2.7928460   2.7928460   2.7928460   2.7928460   2.7928460   2.7928460   2.7928460   2.7928460   0.0000000
 AtZNuc=   1.0000000   1.0000000   1.0000000   1.0000000   1.0000000   1.0000000   1.0000000   1.0000000   1.0000000  12.0000000

  Atom        81          82          83          84          85          86          87          88          89          90
 IAtWgt=          12          12          12          12          14          12          12          12          12          12
 AtmWgt=  12.0000000  12.0000000  12.0000000  12.0000000  14.0030740  12.0000000  12.0000000  12.0000000  12.0000000  12.0000000
 NucSpn=           0           0           0           0           2           0           0           0           0           0
 AtZEff=  -0.0000000  -0.0000000  -0.0000000  -0.0000000  -0.0000000  -0.0000000  -0.0000000  -0.0000000  -0.0000000  -0.0000000
 NQMom=    0.0000000   0.0000000   0.0000000   0.0000000   2.0440000   0.0000000   0.0000000   0.0000000   0.0000000   0.0000000
 NMagM=    0.0000000   0.0000000   0.0000000   0.0000000   0.4037610   0.0000000   0.0000000   0.0000000   0.0000000   0.0000000
 AtZNuc=   6.0000000   6.0000000   6.0000000   6.0000000   7.0000000   6.0000000   6.0000000   6.0000000   6.0000000   6.0000000

  Atom        91          92          93          94          95          96          97          98          99         100
 IAtWgt=          12          12           1          14          12          12          12          12          12          12
 AtmWgt=  12.0000000  12.0000000   1.0078250  14.0030740  12.0000000  12.0000000  12.0000000  12.0000000  12.0000000  12.0000000
 NucSpn=           0           0           1           2           0           0           0           0           0           0
 AtZEff=  -0.0000000  -0.0000000  -0.0000000  -0.0000000  -0.0000000  -0.0000000  -0.0000000  -0.0000000  -0.0000000  -0.0000000
 NQMom=    0.0000000   0.0000000   0.0000000   2.0440000   0.0000000   0.0000000   0.0000000   0.0000000   0.0000000   0.0000000
 NMagM=    0.0000000   0.0000000   2.7928460   0.4037610   0.0000000   0.0000000   0.0000000   0.0000000   0.0000000   0.0000000
 AtZNuc=   6.0000000   6.0000000   1.0000000   7.0000000   6.0000000   6.0000000   6.0000000   6.0000000   6.0000000   6.0000000

  Atom       101         102         103         104         105         106         107         108         109         110
 IAtWgt=          16          12          14          12          12          12          12          12          12          12
 AtmWgt=  15.9949146  12.0000000  14.0030740  12.0000000  12.0000000  12.0000000  12.0000000  12.0000000  12.0000000  12.0000000
 NucSpn=           0           0           2           0           0           0           0           0           0           0
 AtZEff=  -0.0000000  -0.0000000  -0.0000000  -0.0000000  -0.0000000  -0.0000000  -0.0000000  -0.0000000  -0.0000000  -0.0000000
 NQMom=    0.0000000   0.0000000   2.0440000   0.0000000   0.0000000   0.0000000   0.0000000   0.0000000   0.0000000   0.0000000
 NMagM=    0.0000000   0.0000000   0.4037610   0.0000000   0.0000000   0.0000000   0.0000000   0.0000000   0.0000000   0.0000000
 AtZNuc=   8.0000000   6.0000000   7.0000000   6.0000000   6.0000000   6.0000000   6.0000000   6.0000000   6.0000000   6.0000000

  Atom       111         112         113         114         115         116         117         118         119         120
 IAtWgt=          14          12          12          12          12          12          12          16          12          12
 AtmWgt=  14.0030740  12.0000000  12.0000000  12.0000000  12.0000000  12.0000000  12.0000000  15.9949146  12.0000000  12.0000000
 NucSpn=           2           0           0           0           0           0           0           0           0           0
 AtZEff=  -0.0000000  -0.0000000  -0.0000000  -0.0000000  -0.0000000  -0.0000000  -0.0000000  -0.0000000  -0.0000000  -0.0000000
 NQMom=    2.0440000   0.0000000   0.0000000   0.0000000   0.0000000   0.0000000   0.0000000   0.0000000   0.0000000   0.0000000
 NMagM=    0.4037610   0.0000000   0.0000000   0.0000000   0.0000000   0.0000000   0.0000000   0.0000000   0.0000000   0.0000000
 AtZNuc=   7.0000000   6.0000000   6.0000000   6.0000000   6.0000000   6.0000000   6.0000000   8.0000000   6.0000000   6.0000000

  Atom       121         122         123         124         125         126         127         128         129         130
 IAtWgt=          16          16          12           1           1           1           1           1           1           1
 AtmWgt=  15.9949146  15.9949146  12.0000000   1.0078250   1.0078250   1.0078250   1.0078250   1.0078250   1.0078250   1.0078250
 NucSpn=           0           0           0           1           1           1           1           1           1           1
 AtZEff=  -0.0000000  -0.0000000  -0.0000000  -0.0000000  -0.0000000  -0.0000000  -0.0000000  -0.0000000  -0.0000000  -0.0000000
 NQMom=    0.0000000   0.0000000   0.0000000   0.0000000   0.0000000   0.0000000   0.0000000   0.0000000   0.0000000   0.0000000
 NMagM=    0.0000000   0.0000000   0.0000000   2.7928460   2.7928460   2.7928460   2.7928460   2.7928460   2.7928460   2.7928460
 AtZNuc=   8.0000000   8.0000000   6.0000000   1.0000000   1.0000000   1.0000000   1.0000000   1.0000000   1.0000000   1.0000000

  Atom       131         132         133         134         135         136         137         138         139         140
 IAtWgt=           1           1           1           1           1           1           1           1           1           1
 AtmWgt=   1.0078250   1.0078250   1.0078250   1.0078250   1.0078250   1.0078250   1.0078250   1.0078250   1.0078250   1.0078250
 NucSpn=           1           1           1           1           1           1           1           1           1           1
 AtZEff=  -0.0000000  -0.0000000  -0.0000000  -0.0000000  -0.0000000  -0.0000000  -0.0000000  -0.0000000  -0.0000000  -0.0000000
 NQMom=    0.0000000   0.0000000   0.0000000   0.0000000   0.0000000   0.0000000   0.0000000   0.0000000   0.0000000   0.0000000
 NMagM=    2.7928460   2.7928460   2.7928460   2.7928460   2.7928460   2.7928460   2.7928460   2.7928460   2.7928460   2.7928460
 AtZNuc=   1.0000000   1.0000000   1.0000000   1.0000000   1.0000000   1.0000000   1.0000000   1.0000000   1.0000000   1.0000000

  Atom       141         142         143         144         145         146         147         148         149         150
 IAtWgt=           1           1           1           1           1           1           1           1           1           1
 AtmWgt=   1.0078250   1.0078250   1.0078250   1.0078250   1.0078250   1.0078250   1.0078250   1.0078250   1.0078250   1.0078250
 NucSpn=           1           1           1           1           1           1           1           1           1           1
 AtZEff=  -0.0000000  -0.0000000  -0.0000000  -0.0000000  -0.0000000  -0.0000000  -0.0000000  -0.0000000  -0.0000000  -0.0000000
 NQMom=    0.0000000   0.0000000   0.0000000   0.0000000   0.0000000   0.0000000   0.0000000   0.0000000   0.0000000   0.0000000
 NMagM=    2.7928460   2.7928460   2.7928460   2.7928460   2.7928460   2.7928460   2.7928460   2.7928460   2.7928460   2.7928460
 AtZNuc=   1.0000000   1.0000000   1.0000000   1.0000000   1.0000000   1.0000000   1.0000000   1.0000000   1.0000000   1.0000000

  Atom       151         152         153         154         155         156         157         158
 IAtWgt=           1           1           1           1           1           1           1           1
 AtmWgt=   1.0078250   1.0078250   1.0078250   1.0078250   1.0078250   1.0078250   1.0078250   1.0078250
 NucSpn=           1           1           1           1           1           1           1           1
 AtZEff=  -0.0000000  -0.0000000  -0.0000000  -0.0000000  -0.0000000  -0.0000000  -0.0000000  -0.0000000
 NQMom=    0.0000000   0.0000000   0.0000000   0.0000000   0.0000000   0.0000000   0.0000000   0.0000000
 NMagM=    2.7928460   2.7928460   2.7928460   2.7928460   2.7928460   2.7928460   2.7928460   2.7928460
 AtZNuc=   1.0000000   1.0000000   1.0000000   1.0000000   1.0000000   1.0000000   1.0000000   1.0000000
 Leave Link  101 at Sat Sep 11 01:21:06 2021, MaxMem= 23488102400 cpu:               3.2 elap:               0.2
 (Enter /sw/apps/gaussian-16.0/g16/l202.exe)
 Stoichiometry    C68H72Mg2N8O8
 Framework group  C1[X(C68H72Mg2N8O8)]
 Deg. of freedom   468
 Full point group                 C1      NOp   1
 Largest Abelian subgroup         C1      NOp   1
 Largest concise Abelian subgroup C1      NOp   1
                         Standard orientation:                         
 ---------------------------------------------------------------------
 Center     Atomic      Atomic             Coordinates (Angstroms)
 Number     Number       Type             X           Y           Z
 ---------------------------------------------------------------------
      1         12           0        5.489231   -0.382252    0.183896
      2          6           0        5.528022    2.776008   -1.500178
      3          6           0        6.231306    1.307187    3.054120
      4          6           0        5.907901   -3.189137    1.599077
      5          6           0        5.877704   -1.884386   -2.936736
      6          7           0        5.812074    1.768447    0.597307
      7          6           0        5.739405    2.882880   -0.123755
      8          6           0        5.833741    4.180536    0.733313
      9          6           0        6.606752    3.591718    1.997332
     10          6           0        6.163428    2.142624    1.899794
     11          6           0        8.125121    3.650834    1.864807
     12          6           0        4.424101    4.734339    1.130740
     13          6           0        4.415260    6.162519    1.683531
     14          1           0        3.290836    7.029604    1.365441
     15          7           0        5.513254   -0.859706    2.100745
     16          6           0        5.822453   -0.041560    3.135307
     17          6           0        5.695546   -0.864224    4.357518
     18          6           0        5.472449   -2.274928    3.935338
     19          6           0        5.650713   -2.167161    2.509860
     20          6           0        5.739540   -0.293510    5.741750
     21          6           0        5.160148   -3.524122    4.696990
     22          8           0        5.235291   -4.683217    4.162738
     23          6           0        4.845637   -3.359862    6.127774
     24          7           0        6.062052   -2.259549   -0.526928
     25          6           0        6.108689   -3.320513    0.286191
     26          6           0        6.264696   -4.595567   -0.488302
     27          6           0        6.070597   -4.206140   -2.024670
     28          6           0        5.908747   -2.674674   -1.861307
     29          6           0        7.603084   -5.326117   -0.312159
     30          6           0        4.987503   -4.982104   -2.815370
     31          6           0        3.615070   -4.629652   -2.286878
     32          7           0        5.496081    0.279528   -1.883239
     33          6           0        5.697601   -0.513917   -3.021883
     34          6           0        5.723121    0.394888   -4.182698
     35          6           0        5.550118    1.663834   -3.633433
     36          6           0        5.450770    1.557190   -2.216730
     37          6           0        5.947936    0.013492   -5.534892
     38          6           0        5.450751    3.087414   -3.911644
     39          8           0        5.374191    3.767536   -4.935884
     40          6           0        5.554582    3.876006   -2.532090
     41          6           0        4.445788    4.892447   -2.505024
     42          8           0        3.251417    4.534958   -2.449844
     43          8           0        4.966699    6.113447   -2.309183
     44          6           0        3.917096    7.165138   -2.242607
     45          1           0        6.692698    1.698878    3.962765
     46          1           0        5.948952   -4.189091    2.035934
     47          1           0        5.910303   -2.289455   -3.949806
     48          1           0        6.416942    4.982718    0.280760
     49          1           0        6.256744    4.033092    2.930288
     50          1           0        8.425818    3.970119    0.867029
     51          1           0        8.474139    2.636913    2.061389
     52          1           0        8.558312    4.273908    2.647687
     53          1           0        4.059334    4.194834    2.004776
     54          1           0        3.732790    4.668949    0.289825
     55          1           0        5.358616    6.672301    1.485763
     56          1           0        4.359773    6.107584    2.770777
     57          1           0        6.080503    0.741030    5.737760
     58          1           0        6.515596   -0.833191    6.284143
     59          1           0        4.786592   -0.400426    6.260200
     60          1           0        5.689631   -2.886275    6.629708
     61          1           0        4.561558   -4.347782    6.488555
     62          1           0        4.004709   -2.673004    6.227852
     63          1           0        5.503282   -5.321009   -0.204737
     64          1           0        6.982071   -4.357806   -2.603363
     65          1           0        7.498405   -6.353774    0.036651
     66          1           0        8.218508   -4.741900    0.371387
     67          1           0        8.231160   -5.350451   -1.202296
     68          1           0        5.116695   -6.055608   -2.681791
     69          1           0        5.005951   -4.776486   -3.885712
     70          1           0        3.506239   -5.293655   -1.430089
     71          1           0        2.853242   -4.835422   -3.039532
     72          1           0        3.583476   -3.606378   -1.912183
     73          1           0        5.223238    0.566531   -6.132329
     74          1           0        5.832238   -1.061984   -5.667437
     75          1           0        6.978396    0.342253   -5.668773
     76          1           0        6.538720    4.343085   -2.511322
     77          1           0        4.163376    7.912611   -2.996838
     78          1           0        3.870597    7.491176   -1.203405
     79          1           0        2.917736    6.869823   -2.564179
     80         12           0       -5.073418   -0.996596    0.061789
     81          6           0       -7.628184    1.523154    0.117369
     82          6           0       -2.788757    1.527013    0.276980
     83          6           0       -2.796397   -3.149207   -0.437067
     84          6           0       -7.443414   -3.172922   -1.277035
     85          7           0       -5.301963    1.200399    0.176851
     86          6           0       -6.323041    2.040664    0.252361
     87          6           0       -5.926452    3.508275    0.566024
     88          6           0       -4.415609    3.470378    0.023102
     89          6           0       -4.129830    1.980429    0.199379
     90          6           0       -4.298255    3.807733   -1.453977
     91          6           0       -5.977152    3.825955    2.101767
     92          6           0       -5.903415    5.313422    2.453555
     93          1           0       -6.669227    5.796489    3.599269
     94          7           0       -3.123285   -0.909632    0.419526
     95          6           0       -2.358551    0.199753    0.495243
     96          6           0       -0.989881   -0.272127    0.756460
     97          6           0       -0.980343   -1.757471    0.664963
     98          6           0       -2.324599   -2.000413    0.181190
     99          6           0        0.131053    0.651833    1.134934
    100          6           0        0.069589   -2.787839    0.951650
    101          8           0       -0.062011   -4.006028    0.575459
    102          6           0        1.297471   -2.308954    1.603180
    103          7           0       -5.051922   -2.821269   -0.934434
    104          6           0       -3.944582   -3.583636   -0.956933
    105          6           0       -4.243745   -4.964512   -1.489889
    106          6           0       -5.837344   -5.048694   -1.594561
    107          6           0       -6.195316   -3.607577   -1.169793
    108          6           0       -3.626324   -5.302036   -2.846827
    109          6           0       -6.529491   -6.229322   -0.859903
    110          6           0       -6.382883   -6.063709    0.635573
    111          7           0       -7.199431   -0.938084   -0.318625
    112          6           0       -7.988374   -1.949259   -0.909520
    113          6           0       -9.352384   -1.403143   -1.063344
    114          6           0       -9.256061   -0.093824   -0.568483
    115          6           0       -7.921205    0.165032   -0.155392
    116          6           0      -10.459986   -2.082829   -1.644176
    117          6           0       -9.977632    1.131735   -0.311471
    118          8           0      -11.156951    1.475866   -0.378644
    119          6           0       -8.926903    2.275342    0.026919
    120          6           0       -9.405733    2.996952    1.256762
    121          8           0       -9.462141    2.410460    2.351958
    122          8           0       -9.509998    4.310463    0.984384
    123          6           0       -9.971154    5.070136    2.176875
    124          1           0       -1.987104    2.247841    0.113702
    125          1           0       -2.074882   -3.964040   -0.531573
    126          1           0       -8.262142   -3.821653   -1.595614
    127          1           0       -6.495848    4.257378    0.028988
    128          1           0       -3.755125    4.062247    0.651446
    129          1           0       -5.265987    3.902163   -1.923797
    130          1           0       -3.739850    2.994098   -1.898095
    131          1           0       -3.684677    4.703130   -1.588558
    132          1           0       -5.048614    3.475729    2.570696
    133          1           0       -6.847957    3.390813    2.552298
    134          1           0       -6.075440    5.952803    1.579167
    135          1           0       -4.880857    5.547348    2.759622
    136          1           0       -0.136394    1.701312    0.960405
    137          1           0        0.952554    0.461023    0.435950
    138          1           0        0.488005    0.485835    2.153606
    139          1           0        1.760517   -1.544635    0.983620
    140          1           0        1.888661   -3.203992    1.806307
    141          1           0        1.026339   -1.826047    2.548646
    142          1           0       -3.895811   -5.727411   -0.804301
    143          1           0       -6.171861   -5.161528   -2.636287
    144          1           0       -2.987509   -6.205045   -2.823212
    145          1           0       -3.060665   -4.444868   -3.187156
    146          1           0       -4.340111   -5.444057   -3.656489
    147          1           0       -6.042287   -7.173118   -1.116893
    148          1           0       -7.581419   -6.332937   -1.104257
    149          1           0       -5.388664   -6.475513    0.833175
    150          1           0       -7.153760   -6.624316    1.160478
    151          1           0       -6.361899   -5.003655    0.913973
    152          1           0      -11.313827   -1.885657   -1.009679
    153          1           0      -10.268718   -3.150086   -1.734347
    154          1           0      -10.502149   -1.589562   -2.618946
    155          1           0       -8.870948    2.935587   -0.839403
    156          1           0      -10.866855    5.622778    1.876882
    157          1           0       -9.099243    5.665285    2.507504
    158          1           0      -10.346096    4.501042    3.019493
 ---------------------------------------------------------------------
 Rotational constants (GHZ):           0.0261024           0.0103254           0.0089866
 Leave Link  202 at Sat Sep 11 01:21:06 2021, MaxMem= 23488102400 cpu:               0.2 elap:               0.0
 (Enter /sw/apps/gaussian-16.0/g16/l301.exe)
 Standard basis: def2SVP (5D, 7F)
 Ernie: Thresh=  0.10000D-02 Tol=  0.10000D-05 Strict=F.
 There are  1658 symmetry adapted cartesian basis functions of A   symmetry.
 There are  1572 symmetry adapted basis functions of A   symmetry.
  1572 basis functions,  2678 primitive gaussians,  1658 cartesian basis functions
   312 alpha electrons      312 beta electrons
       nuclear repulsion energy     15140.2502368450 Hartrees.
 IExCor=20419 DFT=T Ex+Corr=CAM-B3LYP ExCW=0 ScaHFX=  1.000000
 ScaDFX=  1.000000  1.000000  1.000000  0.810000 ScalE2=  1.000000  1.000000
 IRadAn=      5 IRanWt=     -1 IRanGd=            0 ICorTp=0 IEmpDi=  4
 HFx  wShort=  0.000000 wLong=  0.330000 cFull=  0.190000 cShort=  0.000000 cLong=  0.460000
 DFx  wShort=  0.000000 wLong=  0.330000 cFull=  0.190000 cShort=  0.000000 cLong=  0.460000
 NAtoms=  158 NActive=  158 NUniq=  158 SFac= 1.00D+00 NAtFMM=   60 NAOKFM=T Big=T
 Integral buffers will be    131072 words long.
 Raffenetti 1 integral format.
 Two-electron integral symmetry is turned on.
 Leave Link  301 at Sat Sep 11 01:21:06 2021, MaxMem= 23488102400 cpu:               1.3 elap:               0.1
 (Enter /sw/apps/gaussian-16.0/g16/l302.exe)
 NPDir=0 NMtPBC=     1 NCelOv=     1 NCel=       1 NClECP=     1 NCelD=      1
         NCelK=      1 NCelE2=     1 NClLst=     1 CellRange=     0.0.
 One-electron integrals computed using PRISM.
 One-electron integral symmetry used in STVInt
   1 Symmetry operations used in ECPInt.
 ECPInt:  NShTT=  271216 NPrTT=  987664 LenC2=  141030 LenP2D=  301743.
 LDataN:  DoStor=T MaxTD1= 4 Len=   56
 NBasis=  1572 RedAO= T EigKep=  3.34D-04  NBF=  1572
 NBsUse=  1572 1.00D-06 EigRej= -1.00D+00 NBFU=  1572
 Precomputing XC quadrature grid using
 IXCGrd= 4 IRadAn=           5 IRanWt=          -1 IRanGd=           0 AccXCQ= 0.00D+00.
 Generated NRdTot=       0 NPtTot=           0 NUsed=           0 NTot=          32
 NSgBfM=  1501  1498  1501  1501  1501 MxSgAt=   158 MxSgA2=   158.
 Leave Link  302 at Sat Sep 11 01:21:11 2021, MaxMem= 23488102400 cpu:             123.2 elap:               5.2
 (Enter /sw/apps/gaussian-16.0/g16/l303.exe)
 DipDrv:  MaxL=1.
 Leave Link  303 at Sat Sep 11 01:21:11 2021, MaxMem= 23488102400 cpu:               9.0 elap:               0.4
 (Enter /sw/apps/gaussian-16.0/g16/l308.exe)
 Leave Link  308 at Sat Sep 11 01:21:12 2021, MaxMem= 23488102400 cpu:              12.5 elap:               0.6
 (Enter /sw/apps/gaussian-16.0/g16/l401.exe)
 ExpMin= 3.36D-02 ExpMax= 4.95D+03 ExpMxC= 7.45D+02 IAcc=3 IRadAn=         5 AccDes= 0.00D+00
 Harris functional with IExCor=20419 and IRadAn=       5 diagonalized for initial guess.
 HarFok:  IExCor=20419 AccDes= 0.00D+00 IRadAn=         5 IDoV= 1 UseB2=F ITyADJ=14
 ICtDFT=  3500011 ScaDFX=  1.000000  1.000000  1.000000  1.000000
 FoFCou: FMM=F IPFlag=           0 FMFlag=      100000 FMFlg1=        2001
         NFxFlg=           0 DoJE=T BraDBF=F KetDBF=T FulRan=T
         wScrn=  0.000000 ICntrl=       500 IOpCl=  0 I1Cent=   200000004 NGrid=           0
         NMat0=    1 NMatS0=      1 NMatT0=    0 NMatD0=    1 NMtDS0=    0 NMtDT0=    0
 Petite list used in FoFCou.
 Harris En= -3918.65965919729    
 JPrj=0 DoOrth=F DoCkMO=F.
 Leave Link  401 at Sat Sep 11 01:21:19 2021, MaxMem= 23488102400 cpu:             176.8 elap:               7.4
 (Enter /sw/apps/gaussian-16.0/g16/l502.exe)
 Integral symmetry usage will be decided dynamically.
 Closed shell SCF:
 Using DIIS extrapolation, IDIIS=  1040.
 NGot= 23488102400 LenX= 23482547354 LenY= 23479796732
 Requested convergence on RMS density matrix=1.00D-08 within 128 cycles.
 Requested convergence on MAX density matrix=1.00D-06.
 Requested convergence on             energy=1.00D-06.
 No special actions if energy rises.
 Fock matrices will be formed incrementally for  20 cycles.

 Cycle   1  Pass 1  IDiag  1:
 FoFJK:  IHMeth= 1 ICntrl=       0 DoSepK=T KAlg= 0 I1Cent=           0 FoldK=F
 IRaf=         1 NMat=       1 IRICut=       1 DoRegI=T DoRafI=F ISym2E= 0 IDoP0=0 IntGTp=1.
 FoFCou: FMM=T IPFlag=           0 FMFlag=      100000 FMFlg1=        2001
         NFxFlg=           0 DoJE=T BraDBF=F KetDBF=F FulRan=T
         wScrn=  0.000000 ICntrl=       500 IOpCl=  0 I1Cent=           0 NGrid=           0
         NMat0=    1 NMatS0=      1 NMatT0=    0 NMatD0=    1 NMtDS0=    0 NMtDT0=    0
 Symmetry not used in FoFCou.
 FMM levels:  10  Number of levels for PrismC:   9
 E= -4068.94834537430    
 DIIS: error= 2.07D-02 at cycle   1 NSaved=   1.
 NSaved= 1 IEnMin= 1 EnMin= -4068.94834537430     IErMin= 1 ErrMin= 2.07D-02
 ErrMax= 2.07D-02  0.00D+00 EMaxC= 1.00D-01 BMatC= 1.69D+00 BMatP= 1.69D+00
 IDIUse=3 WtCom= 7.93D-01 WtEn= 2.07D-01
 Coeff-Com:  0.100D+01
 Coeff-En:   0.100D+01
 Coeff:      0.100D+01
 Gap=     0.120 Goal=   None    Shift=    0.000
 GapD=    0.120 DampG=1.000 DampE=0.500 DampFc=0.5000 IDamp=-1.
 Damping current iteration by 5.00D-01
 RMSDP=1.58D-03 MaxDP=1.36D-01              OVMax= 2.04D-01

 Cycle   2  Pass 1  IDiag  1:
 RMSU=  7.73D-04    CP:  9.82D-01
 E= -4069.33813527967     Delta-E=       -0.389789905366 Rises=F Damp=T
 DIIS: error= 1.28D-02 at cycle   2 NSaved=   2.
 NSaved= 2 IEnMin= 2 EnMin= -4069.33813527967     IErMin= 2 ErrMin= 1.28D-02
 ErrMax= 1.28D-02  0.00D+00 EMaxC= 1.00D-01 BMatC= 3.07D-01 BMatP= 1.69D+00
 IDIUse=3 WtCom= 8.72D-01 WtEn= 1.28D-01
 Coeff-Com: -0.214D+00 0.121D+01
 Coeff-En:   0.000D+00 0.100D+01
 Coeff:     -0.186D+00 0.119D+01
 Gap=     0.133 Goal=   None    Shift=    0.000
 RMSDP=7.67D-04 MaxDP=9.40D-02 DE=-3.90D-01 OVMax= 1.94D-01

 Cycle   3  Pass 1  IDiag  1:
 RMSU=  7.33D-04    CP:  9.68D-01  1.24D+00
 E= -4069.62875628851     Delta-E=       -0.290621008840 Rises=F Damp=F
 DIIS: error= 1.48D-02 at cycle   3 NSaved=   3.
 NSaved= 3 IEnMin= 3 EnMin= -4069.62875628851     IErMin= 2 ErrMin= 1.28D-02
 ErrMax= 1.48D-02  0.00D+00 EMaxC= 1.00D-01 BMatC= 2.01D-01 BMatP= 3.07D-01
 IDIUse=3 WtCom= 8.52D-01 WtEn= 1.48D-01
 Coeff-Com: -0.267D+00 0.651D+00 0.616D+00
 Coeff-En:   0.000D+00 0.000D+00 0.100D+01
 Coeff:     -0.227D+00 0.554D+00 0.673D+00
 Gap=     0.119 Goal=   None    Shift=    0.000
 RMSDP=5.04D-04 MaxDP=4.96D-02 DE=-2.91D-01 OVMax= 1.42D-01

 Cycle   4  Pass 1  IDiag  1:
 RMSU=  2.65D-04    CP:  9.65D-01  1.54D+00  5.11D-01
 E= -4069.76764314925     Delta-E=       -0.138886860743 Rises=F Damp=F
 DIIS: error= 6.59D-03 at cycle   4 NSaved=   4.
 NSaved= 4 IEnMin= 4 EnMin= -4069.76764314925     IErMin= 4 ErrMin= 6.59D-03
 ErrMax= 6.59D-03  0.00D+00 EMaxC= 1.00D-01 BMatC= 4.79D-02 BMatP= 2.01D-01
 IDIUse=3 WtCom= 9.34D-01 WtEn= 6.59D-02
 Coeff-Com: -0.110D+00 0.228D+00 0.405D+00 0.477D+00
 Coeff-En:   0.000D+00 0.000D+00 0.212D+00 0.788D+00
 Coeff:     -0.102D+00 0.213D+00 0.393D+00 0.497D+00
 Gap=     0.119 Goal=   None    Shift=    0.000
 RMSDP=1.97D-04 MaxDP=2.00D-02 DE=-1.39D-01 OVMax= 6.17D-02

 Cycle   5  Pass 1  IDiag  1:
 RMSU=  7.64D-05    CP:  9.64D-01  1.49D+00  6.90D-01  5.53D-01
 E= -4069.81127670628     Delta-E=       -0.043633557023 Rises=F Damp=F
 DIIS: error= 7.53D-04 at cycle   5 NSaved=   5.
 NSaved= 5 IEnMin= 5 EnMin= -4069.81127670628     IErMin= 5 ErrMin= 7.53D-04
 ErrMax= 7.53D-04  0.00D+00 EMaxC= 1.00D-01 BMatC= 1.15D-03 BMatP= 4.79D-02
 IDIUse=3 WtCom= 9.92D-01 WtEn= 7.53D-03
 Coeff-Com: -0.367D-01 0.722D-01 0.165D+00 0.250D+00 0.550D+00
 Coeff-En:   0.000D+00 0.000D+00 0.000D+00 0.000D+00 0.100D+01
 Coeff:     -0.365D-01 0.716D-01 0.163D+00 0.248D+00 0.553D+00
 Gap=     0.118 Goal=   None    Shift=    0.000
 RMSDP=4.11D-05 MaxDP=4.00D-03 DE=-4.36D-02 OVMax= 1.65D-02

 Cycle   6  Pass 1  IDiag  1:
 RMSU=  3.03D-05    CP:  9.64D-01  1.49D+00  6.82D-01  6.24D-01  7.53D-01
 E= -4069.81229256977     Delta-E=       -0.001015863494 Rises=F Damp=F
 DIIS: error= 1.93D-04 at cycle   6 NSaved=   6.
 NSaved= 6 IEnMin= 6 EnMin= -4069.81229256977     IErMin= 6 ErrMin= 1.93D-04
 ErrMax= 1.93D-04  0.00D+00 EMaxC= 1.00D-01 BMatC= 1.80D-04 BMatP= 1.15D-03
 IDIUse=3 WtCom= 9.98D-01 WtEn= 1.93D-03
 Coeff-Com:  0.196D-02-0.610D-02 0.114D-01 0.400D-01 0.308D+00 0.645D+00
 Coeff-En:   0.000D+00 0.000D+00 0.000D+00 0.000D+00 0.112D+00 0.888D+00
 Coeff:      0.195D-02-0.609D-02 0.114D-01 0.400D-01 0.307D+00 0.646D+00
 Gap=     0.119 Goal=   None    Shift=    0.000
 RMSDP=1.63D-05 MaxDP=1.09D-03 DE=-1.02D-03 OVMax= 7.22D-03

 Cycle   7  Pass 1  IDiag  1:
 RMSU=  1.09D-05    CP:  9.64D-01  1.50D+00  6.88D-01  6.23D-01  8.58D-01
                    CP:  7.47D-01
 E= -4069.81248974514     Delta-E=       -0.000197175370 Rises=F Damp=F
 DIIS: error= 7.91D-05 at cycle   7 NSaved=   7.
 NSaved= 7 IEnMin= 7 EnMin= -4069.81248974514     IErMin= 7 ErrMin= 7.91D-05
 ErrMax= 7.91D-05  0.00D+00 EMaxC= 1.00D-01 BMatC= 2.15D-05 BMatP= 1.80D-04
 IDIUse=1 WtCom= 1.00D+00 WtEn= 0.00D+00
 Coeff-Com:  0.443D-02-0.970D-02-0.876D-02-0.385D-02 0.104D+00 0.330D+00
 Coeff-Com:  0.584D+00
 Coeff:      0.443D-02-0.970D-02-0.876D-02-0.385D-02 0.104D+00 0.330D+00
 Coeff:      0.584D+00
 Gap=     0.119 Goal=   None    Shift=    0.000
 RMSDP=6.43D-06 MaxDP=1.00D-03 DE=-1.97D-04 OVMax= 3.30D-03

 Cycle   8  Pass 1  IDiag  1:
 RMSU=  4.66D-06    CP:  9.64D-01  1.50D+00  6.89D-01  6.28D-01  8.61D-01
                    CP:  8.69D-01  8.22D-01
 E= -4069.81251611071     Delta-E=       -0.000026365567 Rises=F Damp=F
 DIIS: error= 5.31D-05 at cycle   8 NSaved=   8.
 NSaved= 8 IEnMin= 8 EnMin= -4069.81251611071     IErMin= 8 ErrMin= 5.31D-05
 ErrMax= 5.31D-05  0.00D+00 EMaxC= 1.00D-01 BMatC= 4.98D-06 BMatP= 2.15D-05
 IDIUse=1 WtCom= 1.00D+00 WtEn= 0.00D+00
 Coeff-Com:  0.221D-02-0.438D-02-0.776D-02-0.123D-01-0.109D-01 0.327D-01
 Coeff-Com:  0.343D+00 0.658D+00
 Coeff:      0.221D-02-0.438D-02-0.776D-02-0.123D-01-0.109D-01 0.327D-01
 Coeff:      0.343D+00 0.658D+00
 Gap=     0.119 Goal=   None    Shift=    0.000
 RMSDP=3.33D-06 MaxDP=3.79D-04 DE=-2.64D-05 OVMax= 1.09D-03

 Cycle   9  Pass 1  IDiag  1:
 RMSU=  1.92D-06    CP:  9.64D-01  1.50D+00  6.89D-01  6.30D-01  8.78D-01
                    CP:  8.96D-01  1.02D+00  9.45D-01
 E= -4069.81252388979     Delta-E=       -0.000007779083 Rises=F Damp=F
 DIIS: error= 1.80D-05 at cycle   9 NSaved=   9.
 NSaved= 9 IEnMin= 9 EnMin= -4069.81252388979     IErMin= 9 ErrMin= 1.80D-05
 ErrMax= 1.80D-05  0.00D+00 EMaxC= 1.00D-01 BMatC= 6.94D-07 BMatP= 4.98D-06
 IDIUse=1 WtCom= 1.00D+00 WtEn= 0.00D+00
 Coeff-Com:  0.503D-03-0.848D-03-0.269D-02-0.604D-02-0.207D-01-0.388D-01
 Coeff-Com:  0.105D+00 0.324D+00 0.640D+00
 Coeff:      0.503D-03-0.848D-03-0.269D-02-0.604D-02-0.207D-01-0.388D-01
 Coeff:      0.105D+00 0.324D+00 0.640D+00
 Gap=     0.119 Goal=   None    Shift=    0.000
 RMSDP=1.39D-06 MaxDP=1.34D-04 DE=-7.78D-06 OVMax= 7.46D-04

 Cycle  10  Pass 1  IDiag  1:
 RMSU=  9.31D-07    CP:  9.64D-01  1.50D+00  6.89D-01  6.30D-01  8.82D-01
                    CP:  9.08D-01  1.06D+00  1.10D+00  1.06D+00
 E= -4069.81252545565     Delta-E=       -0.000001565855 Rises=F Damp=F
 DIIS: error= 1.08D-05 at cycle  10 NSaved=  10.
 NSaved=10 IEnMin=10 EnMin= -4069.81252545565     IErMin=10 ErrMin= 1.08D-05
 ErrMax= 1.08D-05  0.00D+00 EMaxC= 1.00D-01 BMatC= 1.73D-07 BMatP= 6.94D-07
 IDIUse=1 WtCom= 1.00D+00 WtEn= 0.00D+00
 Coeff-Com: -0.421D-03 0.883D-03 0.120D-02 0.109D-02-0.366D-02-0.308D-01
 Coeff-Com: -0.445D-01-0.757D-01 0.251D+00 0.901D+00
 Coeff:     -0.421D-03 0.883D-03 0.120D-02 0.109D-02-0.366D-02-0.308D-01
 Coeff:     -0.445D-01-0.757D-01 0.251D+00 0.901D+00
 Gap=     0.119 Goal=   None    Shift=    0.000
 RMSDP=1.21D-06 MaxDP=1.24D-04 DE=-1.57D-06 OVMax= 6.27D-04

 Cycle  11  Pass 1  IDiag  1:
 RMSU=  5.08D-07    CP:  9.64D-01  1.50D+00  6.89D-01  6.30D-01  8.84D-01
                    CP:  9.18D-01  1.11D+00  1.21D+00  1.39D+00  1.37D+00
 E= -4069.81252622037     Delta-E=       -0.000000764725 Rises=F Damp=F
 DIIS: error= 3.21D-06 at cycle  11 NSaved=  11.
 NSaved=11 IEnMin=11 EnMin= -4069.81252622037     IErMin=11 ErrMin= 3.21D-06
 ErrMax= 3.21D-06  0.00D+00 EMaxC= 1.00D-01 BMatC= 6.15D-08 BMatP= 1.73D-07
 IDIUse=1 WtCom= 1.00D+00 WtEn= 0.00D+00
 Coeff-Com: -0.330D-03 0.643D-03 0.130D-02 0.208D-02 0.436D-02-0.833D-02
 Coeff-Com: -0.419D-01-0.130D+00-0.240D-01 0.463D+00 0.733D+00
 Coeff:     -0.330D-03 0.643D-03 0.130D-02 0.208D-02 0.436D-02-0.833D-02
 Coeff:     -0.419D-01-0.130D+00-0.240D-01 0.463D+00 0.733D+00
 Gap=     0.119 Goal=   None    Shift=    0.000
 RMSDP=6.74D-07 MaxDP=5.56D-05 DE=-7.65D-07 OVMax= 3.66D-04

 Cycle  12  Pass 1  IDiag  1:
 RMSU=  2.62D-07    CP:  9.64D-01  1.50D+00  6.89D-01  6.30D-01  8.85D-01
                    CP:  9.20D-01  1.13D+00  1.28D+00  1.55D+00  1.75D+00
                    CP:  1.20D+00
 E= -4069.81252647577     Delta-E=       -0.000000255404 Rises=F Damp=F
 DIIS: error= 2.13D-06 at cycle  12 NSaved=  12.
 NSaved=12 IEnMin=12 EnMin= -4069.81252647577     IErMin=12 ErrMin= 2.13D-06
 ErrMax= 2.13D-06  0.00D+00 EMaxC= 1.00D-01 BMatC= 1.55D-08 BMatP= 6.15D-08
 IDIUse=1 WtCom= 1.00D+00 WtEn= 0.00D+00
 Coeff-Com: -0.120D-04 0.736D-05 0.212D-03 0.550D-03 0.335D-02 0.364D-02
 Coeff-Com:  0.155D-02-0.372D-01-0.685D-01-0.628D-01 0.269D+00 0.890D+00
 Coeff:     -0.120D-04 0.736D-05 0.212D-03 0.550D-03 0.335D-02 0.364D-02
 Coeff:      0.155D-02-0.372D-01-0.685D-01-0.628D-01 0.269D+00 0.890D+00
 Gap=     0.119 Goal=   None    Shift=    0.000
 RMSDP=4.23D-07 MaxDP=3.21D-05 DE=-2.55D-07 OVMax= 2.48D-04

 Cycle  13  Pass 1  IDiag  1:
 RMSU=  1.64D-07    CP:  9.64D-01  1.50D+00  6.89D-01  6.31D-01  8.85D-01
                    CP:  9.20D-01  1.14D+00  1.30D+00  1.65D+00  1.98D+00
                    CP:  1.61D+00  1.24D+00
 E= -4069.81252656481     Delta-E=       -0.000000089040 Rises=F Damp=F
 DIIS: error= 1.11D-06 at cycle  13 NSaved=  13.
 NSaved=13 IEnMin=13 EnMin= -4069.81252656481     IErMin=13 ErrMin= 1.11D-06
 ErrMax= 1.11D-06  0.00D+00 EMaxC= 1.00D-01 BMatC= 7.91D-09 BMatP= 1.55D-08
 IDIUse=1 WtCom= 1.00D+00 WtEn= 0.00D+00
 Coeff-Com:  0.119D-03-0.243D-03-0.357D-03-0.447D-03 0.600D-03 0.491D-02
 Coeff-Com:  0.190D-01 0.226D-01-0.343D-01-0.236D+00-0.149D+00 0.579D+00
 Coeff-Com:  0.795D+00
 Coeff:      0.119D-03-0.243D-03-0.357D-03-0.447D-03 0.600D-03 0.491D-02
 Coeff:      0.190D-01 0.226D-01-0.343D-01-0.236D+00-0.149D+00 0.579D+00
 Coeff:      0.795D+00
 Gap=     0.119 Goal=   None    Shift=    0.000
 RMSDP=3.36D-07 MaxDP=2.08D-05 DE=-8.90D-08 OVMax= 1.88D-04

 Cycle  14  Pass 1  IDiag  1:
 RMSU=  7.69D-08    CP:  9.64D-01  1.50D+00  6.89D-01  6.31D-01  8.86D-01
                    CP:  9.21D-01  1.15D+00  1.33D+00  1.73D+00  2.17D+00
                    CP:  1.87D+00  1.76D+00  1.10D+00
 E= -4069.81252660048     Delta-E=       -0.000000035663 Rises=F Damp=F
 DIIS: error= 5.94D-07 at cycle  14 NSaved=  14.
 NSaved=14 IEnMin=14 EnMin= -4069.81252660048     IErMin=14 ErrMin= 5.94D-07
 ErrMax= 5.94D-07  0.00D+00 EMaxC= 1.00D-01 BMatC= 1.33D-09 BMatP= 7.91D-09
 IDIUse=1 WtCom= 1.00D+00 WtEn= 0.00D+00
 Coeff-Com:  0.692D-04-0.137D-03-0.250D-03-0.395D-03-0.481D-03 0.131D-02
 Coeff-Com:  0.107D-01 0.200D-01 0.281D-02-0.102D+00-0.145D+00 0.864D-01
 Coeff-Com:  0.423D+00 0.705D+00
 Coeff:      0.692D-04-0.137D-03-0.250D-03-0.395D-03-0.481D-03 0.131D-02
 Coeff:      0.107D-01 0.200D-01 0.281D-02-0.102D+00-0.145D+00 0.864D-01
 Coeff:      0.423D+00 0.705D+00
 Gap=     0.119 Goal=   None    Shift=    0.000
 RMSDP=1.05D-07 MaxDP=6.97D-06 DE=-3.57D-08 OVMax= 5.47D-05

 Cycle  15  Pass 1  IDiag  1:
 RMSU=  3.88D-08    CP:  9.64D-01  1.50D+00  6.89D-01  6.31D-01  8.86D-01
                    CP:  9.21D-01  1.15D+00  1.33D+00  1.74D+00  2.21D+00
                    CP:  1.98D+00  1.90D+00  1.34D+00  1.01D+00
 E= -4069.81252660453     Delta-E=       -0.000000004049 Rises=F Damp=F
 DIIS: error= 3.10D-07 at cycle  15 NSaved=  15.
 NSaved=15 IEnMin=15 EnMin= -4069.81252660453     IErMin=15 ErrMin= 3.10D-07
 ErrMax= 3.10D-07  0.00D+00 EMaxC= 1.00D-01 BMatC= 2.15D-10 BMatP= 1.33D-09
 IDIUse=1 WtCom= 1.00D+00 WtEn= 0.00D+00
 Coeff-Com:  0.698D-05-0.122D-04-0.366D-04-0.874D-04-0.299D-03-0.472D-03
 Coeff-Com:  0.127D-02 0.305D-02 0.826D-02-0.124D-04-0.326D-01-0.724D-01
 Coeff-Com:  0.419D-01 0.288D+00 0.763D+00
 Coeff:      0.698D-05-0.122D-04-0.366D-04-0.874D-04-0.299D-03-0.472D-03
 Coeff:      0.127D-02 0.305D-02 0.826D-02-0.124D-04-0.326D-01-0.724D-01
 Coeff:      0.419D-01 0.288D+00 0.763D+00
 Gap=     0.119 Goal=   None    Shift=    0.000
 RMSDP=3.93D-08 MaxDP=2.64D-06 DE=-4.05D-09 OVMax= 2.53D-05

 Cycle  16  Pass 1  IDiag  1:
 RMSU=  1.88D-08    CP:  9.64D-01  1.50D+00  6.89D-01  6.31D-01  8.86D-01
                    CP:  9.21D-01  1.15D+00  1.33D+00  1.75D+00  2.23D+00
                    CP:  2.01D+00  1.96D+00  1.42D+00  1.22D+00  1.13D+00
 E= -4069.81252660525     Delta-E=       -0.000000000728 Rises=F Damp=F
 DIIS: error= 1.57D-07 at cycle  16 NSaved=  16.
 NSaved=16 IEnMin=16 EnMin= -4069.81252660525     IErMin=16 ErrMin= 1.57D-07
 ErrMax= 1.57D-07  0.00D+00 EMaxC= 1.00D-01 BMatC= 8.83D-11 BMatP= 2.15D-10
 IDIUse=1 WtCom= 1.00D+00 WtEn= 0.00D+00
 Coeff-Com: -0.142D-04 0.289D-04 0.463D-04 0.531D-04-0.299D-04-0.627D-03
 Coeff-Com: -0.194D-02-0.418D-02 0.448D-02 0.255D-01 0.207D-01-0.660D-01
 Coeff-Com: -0.805D-01-0.455D-01 0.414D+00 0.734D+00
 Coeff:     -0.142D-04 0.289D-04 0.463D-04 0.531D-04-0.299D-04-0.627D-03
 Coeff:     -0.194D-02-0.418D-02 0.448D-02 0.255D-01 0.207D-01-0.660D-01
 Coeff:     -0.805D-01-0.455D-01 0.414D+00 0.734D+00
 Gap=     0.119 Goal=   None    Shift=    0.000
 RMSDP=2.36D-08 MaxDP=1.54D-06 DE=-7.28D-10 OVMax= 1.15D-05

 Cycle  17  Pass 1  IDiag  1:
 RMSU=  1.03D-08    CP:  9.64D-01  1.50D+00  6.89D-01  6.31D-01  8.86D-01
                    CP:  9.21D-01  1.15D+00  1.33D+00  1.75D+00  2.23D+00
                    CP:  2.02D+00  1.98D+00  1.47D+00  1.32D+00  1.43D+00
                    CP:  1.24D+00
 E= -4069.81252660582     Delta-E=       -0.000000000568 Rises=F Damp=F
 DIIS: error= 8.76D-08 at cycle  17 NSaved=  17.
 NSaved=17 IEnMin=17 EnMin= -4069.81252660582     IErMin=17 ErrMin= 8.76D-08
 ErrMax= 8.76D-08  0.00D+00 EMaxC= 1.00D-01 BMatC= 1.70D-11 BMatP= 8.83D-11
 IDIUse=1 WtCom= 1.00D+00 WtEn= 0.00D+00
 Coeff-Com: -0.745D-05 0.145D-04 0.287D-04 0.426D-04 0.822D-04-0.127D-03
 Coeff-Com: -0.956D-03-0.282D-02 0.166D-03 0.931D-02 0.178D-01-0.786D-02
 Coeff-Com: -0.353D-01-0.103D+00-0.182D-01 0.266D+00 0.874D+00
 Coeff:     -0.745D-05 0.145D-04 0.287D-04 0.426D-04 0.822D-04-0.127D-03
 Coeff:     -0.956D-03-0.282D-02 0.166D-03 0.931D-02 0.178D-01-0.786D-02
 Coeff:     -0.353D-01-0.103D+00-0.182D-01 0.266D+00 0.874D+00
 Gap=     0.119 Goal=   None    Shift=    0.000
 RMSDP=1.36D-08 MaxDP=9.96D-07 DE=-5.68D-10 OVMax= 8.52D-06

 Cycle  18  Pass 1  IDiag  1:
 RMSU=  4.91D-09    CP:  9.64D-01  1.50D+00  6.89D-01  6.31D-01  8.86D-01
                    CP:  9.21D-01  1.15D+00  1.33D+00  1.75D+00  2.23D+00
                    CP:  2.02D+00  1.99D+00  1.49D+00  1.38D+00  1.60D+00
                    CP:  1.65D+00  1.41D+00
 E= -4069.81252660596     Delta-E=       -0.000000000142 Rises=F Damp=F
 DIIS: error= 5.26D-08 at cycle  18 NSaved=  18.
 NSaved=18 IEnMin=18 EnMin= -4069.81252660596     IErMin=18 ErrMin= 5.26D-08
 ErrMax= 5.26D-08  0.00D+00 EMaxC= 1.00D-01 BMatC= 7.47D-12 BMatP= 1.70D-11
 IDIUse=1 WtCom= 1.00D+00 WtEn= 0.00D+00
 Coeff-Com:  0.175D-05-0.381D-05-0.344D-05-0.400D-06 0.603D-04 0.173D-03
 Coeff-Com:  0.354D-03 0.135D-03-0.124D-02-0.572D-02 0.556D-03 0.191D-01
 Coeff-Com:  0.177D-01-0.345D-01-0.157D+00-0.198D+00 0.385D+00 0.974D+00
 Coeff:      0.175D-05-0.381D-05-0.344D-05-0.400D-06 0.603D-04 0.173D-03
 Coeff:      0.354D-03 0.135D-03-0.124D-02-0.572D-02 0.556D-03 0.191D-01
 Coeff:      0.177D-01-0.345D-01-0.157D+00-0.198D+00 0.385D+00 0.974D+00
 Gap=     0.119 Goal=   None    Shift=    0.000
 RMSDP=1.16D-08 MaxDP=7.59D-07 DE=-1.42D-10 OVMax= 6.04D-06

 Cycle  19  Pass 1  IDiag  1:
 RMSU=  2.83D-09    CP:  9.64D-01  1.50D+00  6.89D-01  6.31D-01  8.86D-01
                    CP:  9.21D-01  1.15D+00  1.33D+00  1.75D+00  2.23D+00
                    CP:  2.03D+00  2.00D+00  1.50D+00  1.43D+00  1.75D+00
                    CP:  1.97D+00  1.96D+00  1.34D+00
 E= -4069.81252660596     Delta-E=        0.000000000000 Rises=F Damp=F
 DIIS: error= 2.87D-08 at cycle  19 NSaved=  19.
 NSaved=19 IEnMin=18 EnMin= -4069.81252660596     IErMin=19 ErrMin= 2.87D-08
 ErrMax= 2.87D-08  0.00D+00 EMaxC= 1.00D-01 BMatC= 1.50D-12 BMatP= 7.47D-12
 IDIUse=1 WtCom= 1.00D+00 WtEn= 0.00D+00
 Coeff-Com:  0.291D-05-0.589D-05-0.971D-05-0.122D-04 0.122D-04 0.120D-03
 Coeff-Com:  0.467D-03 0.795D-03-0.622D-03-0.599D-02-0.475D-02 0.121D-01
 Coeff-Com:  0.207D-01 0.111D-01-0.696D-01-0.183D+00-0.224D-01 0.477D+00
 Coeff-Com:  0.764D+00
 Coeff:      0.291D-05-0.589D-05-0.971D-05-0.122D-04 0.122D-04 0.120D-03
 Coeff:      0.467D-03 0.795D-03-0.622D-03-0.599D-02-0.475D-02 0.121D-01
 Coeff:      0.207D-01 0.111D-01-0.696D-01-0.183D+00-0.224D-01 0.477D+00
 Coeff:      0.764D+00
 Gap=     0.119 Goal=   None    Shift=    0.000
 RMSDP=4.76D-09 MaxDP=3.51D-07 DE= 0.00D+00 OVMax= 3.07D-06

 SCF Done:  E(RCAM-B3LYP) =  -4069.81252661     A.U. after   19 cycles
            NFock= 19  Conv=0.48D-08     -V/T= 2.0102
 KE= 4.028788069947D+03 PE=-3.976110827366D+04 EE= 1.652225744026D+04
 Leave Link  502 at Sat Sep 11 01:31:56 2021, MaxMem= 23488102400 cpu:           14665.0 elap:             636.1
 (Enter /sw/apps/gaussian-16.0/g16/l801.exe)
 DoSCS=F DFT=T ScalE2(SS,OS)=  1.000000  1.000000
 ExpMin= 3.36D-02 ExpMax= 4.95D+03 ExpMxC= 7.45D+02 IAcc=3 IRadAn=         5 AccDes= 0.00D+00
 HarFok:  IExCor=  205 AccDes= 0.00D+00 IRadAn=         5 IDoV=-2 UseB2=F ITyADJ=14
 ICtDFT= 12500011 ScaDFX=  1.000000  1.000000  1.000000  1.000000
 GSVD:  LWork=       -9588 too small for GESVD, short by       45590 words or       45590 for optimal perf.
 Largest valence mixing into a core orbital is  2.03D-04
 Largest core mixing into a valence orbital is  5.24D-05
 Range of M.O.s used for correlation:    95  1572
 NBasis=  1572 NAE=   312 NBE=   312 NFC=    94 NFV=     0
 NROrb=   1478 NOA=   218 NOB=   218 NVA=  1260 NVB=  1260
 Leave Link  801 at Sat Sep 11 01:31:56 2021, MaxMem= 23488102400 cpu:               7.4 elap:               0.3
 (Enter /sw/apps/gaussian-16.0/g16/l914.exe)
 RHF ground state
 Two-electron integrals replicated using symmetry.
 MDV= 23488102400 DFT=T DoStab=F Mixed=T DoRPA=T DoScal=F NonHer=T
 Making orbital integer symmetry assigments:
 Orbital symmetries:
       Occupied  (A) (A) (A) (A) (A) (A) (A) (A) (A) (A) (A) (A)
                 (A) (A) (A) (A) (A) (A) (A) (A) (A) (A) (A) (A)
                 (A) (A) (A) (A) (A) (A) (A) (A) (A) (A) (A) (A)
                 (A) (A) (A) (A) (A) (A) (A) (A) (A) (A) (A) (A)
                 (A) (A) (A) (A) (A) (A) (A) (A) (A) (A) (A) (A)
                 (A) (A) (A) (A) (A) (A) (A) (A) (A) (A) (A) (A)
                 (A) (A) (A) (A) (A) (A) (A) (A) (A) (A) (A) (A)
                 (A) (A) (A) (A) (A) (A) (A) (A) (A) (A) (A) (A)
                 (A) (A) (A) (A) (A) (A) (A) (A) (A) (A) (A) (A)
                 (A) (A) (A) (A) (A) (A) (A) (A) (A) (A) (A) (A)
                 (A) (A) (A) (A) (A) (A) (A) (A) (A) (A) (A) (A)
                 (A) (A) (A) (A) (A) (A) (A) (A) (A) (A) (A) (A)
                 (A) (A) (A) (A) (A) (A) (A) (A) (A) (A) (A) (A)
                 (A) (A) (A) (A) (A) (A) (A) (A) (A) (A) (A) (A)
                 (A) (A) (A) (A) (A) (A) (A) (A) (A) (A) (A) (A)
                 (A) (A) (A) (A) (A) (A) (A) (A) (A) (A) (A) (A)
                 (A) (A) (A) (A) (A) (A) (A) (A) (A) (A) (A) (A)
                 (A) (A) (A) (A) (A) (A) (A) (A) (A) (A) (A) (A)
                 (A) (A) (A) (A) (A) (A) (A) (A) (A) (A) (A) (A)
                 (A) (A) (A) (A) (A) (A) (A) (A) (A) (A) (A) (A)
                 (A) (A) (A) (A) (A) (A) (A) (A) (A) (A) (A) (A)
                 (A) (A) (A) (A) (A) (A) (A) (A) (A) (A) (A) (A)
                 (A) (A) (A) (A) (A) (A) (A) (A) (A) (A) (A) (A)
                 (A) (A) (A) (A) (A) (A) (A) (A) (A) (A) (A) (A)
                 (A) (A) (A) (A) (A) (A) (A) (A) (A) (A) (A) (A)
                 (A) (A) (A) (A) (A) (A) (A) (A) (A) (A) (A) (A)
       Virtual   (A) (A) (A) (A) (A) (A) (A) (A) (A) (A) (A) (A)
                 (A) (A) (A) (A) (A) (A) (A) (A) (A) (A) (A) (A)
                 (A) (A) (A) (A) (A) (A) (A) (A) (A) (A) (A) (A)
                 (A) (A) (A) (A) (A) (A) (A) (A) (A) (A) (A) (A)
                 (A) (A) (A) (A) (A) (A) (A) (A) (A) (A) (A) (A)
                 (A) (A) (A) (A) (A) (A) (A) (A) (A) (A) (A) (A)
                 (A) (A) (A) (A) (A) (A) (A) (A) (A) (A) (A) (A)
                 (A) (A) (A) (A) (A) (A) (A) (A) (A) (A) (A) (A)
                 (A) (A) (A) (A) (A) (A) (A) (A) (A) (A) (A) (A)
                 (A) (A) (A) (A) (A) (A) (A) (A) (A) (A) (A) (A)
                 (A) (A) (A) (A) (A) (A) (A) (A) (A) (A) (A) (A)
                 (A) (A) (A) (A) (A) (A) (A) (A) (A) (A) (A) (A)
                 (A) (A) (A) (A) (A) (A) (A) (A) (A) (A) (A) (A)
                 (A) (A) (A) (A) (A) (A) (A) (A) (A) (A) (A) (A)
                 (A) (A) (A) (A) (A) (A) (A) (A) (A) (A) (A) (A)
                 (A) (A) (A) (A) (A) (A) (A) (A) (A) (A) (A) (A)
                 (A) (A) (A) (A) (A) (A) (A) (A) (A) (A) (A) (A)
                 (A) (A) (A) (A) (A) (A) (A) (A) (A) (A) (A) (A)
                 (A) (A) (A) (A) (A) (A) (A) (A) (A) (A) (A) (A)
                 (A) (A) (A) (A) (A) (A) (A) (A) (A) (A) (A) (A)
                 (A) (A) (A) (A) (A) (A) (A) (A) (A) (A) (A) (A)
                 (A) (A) (A) (A) (A) (A) (A) (A) (A) (A) (A) (A)
                 (A) (A) (A) (A) (A) (A) (A) (A) (A) (A) (A) (A)
                 (A) (A) (A) (A) (A) (A) (A) (A) (A) (A) (A) (A)
                 (A) (A) (A) (A) (A) (A) (A) (A) (A) (A) (A) (A)
                 (A) (A) (A) (A) (A) (A) (A) (A) (A) (A) (A) (A)
                 (A) (A) (A) (A) (A) (A) (A) (A) (A) (A) (A) (A)
                 (A) (A) (A) (A) (A) (A) (A) (A) (A) (A) (A) (A)
                 (A) (A) (A) (A) (A) (A) (A) (A) (A) (A) (A) (A)
                 (A) (A) (A) (A) (A) (A) (A) (A) (A) (A) (A) (A)
                 (A) (A) (A) (A) (A) (A) (A) (A) (A) (A) (A) (A)
                 (A) (A) (A) (A) (A) (A) (A) (A) (A) (A) (A) (A)
                 (A) (A) (A) (A) (A) (A) (A) (A) (A) (A) (A) (A)
                 (A) (A) (A) (A) (A) (A) (A) (A) (A) (A) (A) (A)
                 (A) (A) (A) (A) (A) (A) (A) (A) (A) (A) (A) (A)
                 (A) (A) (A) (A) (A) (A) (A) (A) (A) (A) (A) (A)
                 (A) (A) (A) (A) (A) (A) (A) (A) (A) (A) (A) (A)
                 (A) (A) (A) (A) (A) (A) (A) (A) (A) (A) (A) (A)
                 (A) (A) (A) (A) (A) (A) (A) (A) (A) (A) (A) (A)
                 (A) (A) (A) (A) (A) (A) (A) (A) (A) (A) (A) (A)
                 (A) (A) (A) (A) (A) (A) (A) (A) (A) (A) (A) (A)
                 (A) (A) (A) (A) (A) (A) (A) (A) (A) (A) (A) (A)
                 (A) (A) (A) (A) (A) (A) (A) (A) (A) (A) (A) (A)
                 (A) (A) (A) (A) (A) (A) (A) (A) (A) (A) (A) (A)
                 (A) (A) (A) (A) (A) (A) (A) (A) (A) (A) (A) (A)
                 (A) (A) (A) (A) (A) (A) (A) (A) (A) (A) (A) (A)
                 (A) (A) (A) (A) (A) (A) (A) (A) (A) (A) (A) (A)
                 (A) (A) (A) (A) (A) (A) (A) (A) (A) (A) (A) (A)
                 (A) (A) (A) (A) (A) (A) (A) (A) (A) (A) (A) (A)
                 (A) (A) (A) (A) (A) (A) (A) (A) (A) (A) (A) (A)
                 (A) (A) (A) (A) (A) (A) (A) (A) (A) (A) (A) (A)
                 (A) (A) (A) (A) (A) (A) (A) (A) (A) (A) (A) (A)
                 (A) (A) (A) (A) (A) (A) (A) (A) (A) (A) (A) (A)
                 (A) (A) (A) (A) (A) (A) (A) (A) (A) (A) (A) (A)
                 (A) (A) (A) (A) (A) (A) (A) (A) (A) (A) (A) (A)
                 (A) (A) (A) (A) (A) (A) (A) (A) (A) (A) (A) (A)
                 (A) (A) (A) (A) (A) (A) (A) (A) (A) (A) (A) (A)
                 (A) (A) (A) (A) (A) (A) (A) (A) (A) (A) (A) (A)
                 (A) (A) (A) (A) (A) (A) (A) (A) (A) (A) (A) (A)
                 (A) (A) (A) (A) (A) (A) (A) (A) (A) (A) (A) (A)
                 (A) (A) (A) (A) (A) (A) (A) (A) (A) (A) (A) (A)
                 (A) (A) (A) (A) (A) (A) (A) (A) (A) (A) (A) (A)
                 (A) (A) (A) (A) (A) (A) (A) (A) (A) (A) (A) (A)
                 (A) (A) (A) (A) (A) (A) (A) (A) (A) (A) (A) (A)
                 (A) (A) (A) (A) (A) (A) (A) (A) (A) (A) (A) (A)
                 (A) (A) (A) (A) (A) (A) (A) (A) (A) (A) (A) (A)
                 (A) (A) (A) (A) (A) (A) (A) (A) (A) (A) (A) (A)
                 (A) (A) (A) (A) (A) (A) (A) (A) (A) (A) (A) (A)
                 (A) (A) (A) (A) (A) (A) (A) (A) (A) (A) (A) (A)
                 (A) (A) (A) (A) (A) (A) (A) (A) (A) (A) (A) (A)
                 (A) (A) (A) (A) (A) (A) (A) (A) (A) (A) (A) (A)
                 (A) (A) (A) (A) (A) (A) (A) (A) (A) (A) (A) (A)
                 (A) (A) (A) (A) (A) (A) (A) (A) (A) (A) (A) (A)
                 (A) (A) (A) (A) (A) (A) (A) (A) (A) (A) (A) (A)
                 (A) (A) (A) (A) (A) (A) (A) (A) (A) (A) (A) (A)
                 (A) (A) (A) (A) (A) (A) (A) (A) (A) (A) (A) (A)
                 (A) (A) (A) (A) (A) (A) (A) (A) (A) (A) (A) (A)
                 (A) (A) (A) (A) (A) (A) (A) (A) (A) (A) (A) (A)
                 (A) (A) (A) (A) (A) (A) (A) (A) (A) (A) (A) (A)
                 (A) (A) (A) (A) (A) (A) (A) (A) (A) (A) (A) (A)
                 (A) (A) (A) (A) (A) (A) (A) (A) (A) (A) (A) (A)
                 (A) (A) (A) (A) (A) (A) (A) (A) (A) (A) (A) (A)
                 (A) (A) (A) (A) (A) (A) (A) (A) (A) (A) (A) (A)
                 (A) (A) (A) (A) (A) (A) (A) (A) (A) (A) (A) (A)
                 (A) (A) (A) (A) (A) (A) (A) (A) (A) (A) (A) (A)
                 (A) (A) (A) (A) (A) (A) (A) (A) (A) (A) (A) (A)
                 (A) (A) (A) (A) (A) (A) (A) (A) (A) (A) (A) (A)
                 (A) (A) (A) (A) (A) (A) (A) (A) (A) (A) (A) (A)
                 (A) (A) (A) (A) (A) (A) (A) (A) (A) (A) (A) (A)
                 (A) (A) (A) (A) (A) (A) (A) (A) (A) (A) (A) (A)
                 (A) (A) (A) (A) (A) (A) (A) (A) (A) (A) (A) (A)
                 (A) (A) (A) (A) (A) (A) (A) (A) (A) (A) (A) (A)
                 (A) (A) (A) (A) (A) (A) (A) (A) (A) (A) (A) (A)
                 (A) (A) (A) (A) (A) (A) (A) (A) (A) (A) (A) (A)
                 (A) (A) (A) (A) (A) (A) (A) (A) (A) (A) (A) (A)
                 (A) (A) (A) (A) (A) (A) (A) (A) (A) (A) (A) (A)
                 (A) (A) (A) (A) (A) (A) (A) (A) (A) (A) (A) (A)
                 (A) (A) (A) (A) (A) (A) (A) (A) (A) (A) (A) (A)
                 (A) (A) (A) (A) (A) (A) (A) (A) (A) (A) (A) (A)
                 (A) (A) (A) (A) (A) (A) (A) (A) (A) (A) (A) (A)
                 (A) (A) (A) (A) (A) (A) (A) (A) (A) (A) (A) (A)
                 (A) (A) (A) (A) (A) (A) (A) (A) (A) (A) (A) (A)
                 (A) (A) (A) (A) (A) (A) (A) (A) (A) (A) (A) (A)
                 (A) (A) (A) (A) (A) (A) (A) (A) (A) (A) (A) (A)
                 (A) (A) (A) (A) (A) (A) (A) (A) (A) (A) (A) (A)
    20 initial guesses have been made.
 Convergence on wavefunction:    0.001000000000000
 Davidson Disk Diagonalization:  ConvIn= 1.00D-03 SkipCon=T Conv= 1.00D-03.
 Max sub-space:  2000 roots to seek:    20 dimension of matrix:       549360
 Iteration     1 Dimension    20 NMult     0 NNew     20
 CISAX will form    20 AO SS matrices at one time.
 NMat=    20 NSing=    20 JSym2X= 0.
 FoFJK:  IHMeth= 1 ICntrl=       0 DoSepK=T KAlg= 0 I1Cent=           0 FoldK=F
 IRaf=         1 NMat=      40 IRICut=       1 DoRegI=T DoRafI=F ISym2E= 0 IDoP0=3 IntGTp=3.
 FoFCou: FMM=T IPFlag=           0 FMFlag=      100000 FMFlg1=        2001
         NFxFlg=           0 DoJE=F BraDBF=F KetDBF=F FulRan=T
         wScrn=  0.000000 ICntrl=       500 IOpCl=  0 I1Cent=           0 NGrid=           0
         NMat0=   20 NMatS0=     20 NMatT0=    0 NMatD0=   20 NMtDS0=    0 NMtDT0=    0
 Symmetry not used in FoFCou.
 FMM levels:  10  Number of levels for PrismC:   9
 New state      2 was old state      4
 New state      3 was old state      7
 New state      4 was old state      6
 New state      5 was old state      2
 Excitation Energies [eV] at current iteration:
 Root      1 :     2.400110619477598
 Root      2 :     2.608866312707577
 Root      3 :     2.611244014946339
 Root      4 :     2.624945666913979
 Root      5 :     2.674889066613681
 Root      6 :     2.693967489211436
 Root      7 :     3.224119491292686
 Root      8 :     3.409686977948022
 Root      9 :     3.633336047470846
 Root     10 :     3.673020133955412
 Root     11 :     3.732683545523901
 Root     12 :     3.764336931312800
 Root     13 :     4.262814660893711
 Root     14 :     4.301625305077405
 Root     15 :     4.327169705381155
 Root     16 :     4.344511895604310
 Root     17 :     4.524901230772145
 Root     18 :     4.787975800034134
 Root     19 :     4.823044975260323
 Root     20 :     5.084315202458653
 Iteration     2 Dimension    30 NMult    20 NNew     10
 CISAX will form    10 AO SS matrices at one time.
 NMat=    10 NSing=    10 JSym2X= 0.
 New state      1 was old state      5
 Root      1 not converged, maximum delta is    0.155777346865388
 New state      2 was old state      6
 Root      2 not converged, maximum delta is    0.146121576183531
 New state      3 was old state      4
 Root      3 not converged, maximum delta is    0.482945907225911
 New state      4 was old state      3
 Root      4 not converged, maximum delta is    0.449578277937156
 New state      5 was old state      1
 Root      5 not converged, maximum delta is    0.018115590313494
 Excitation Energies [eV] at current iteration:
 Root      1 :     1.790418758250985   Change is   -0.884470308362696
 Root      2 :     2.027771076424230   Change is   -0.666196412787207
 Root      3 :     2.233782620117137   Change is   -0.391163046796842
 Root      4 :     2.249631764699422   Change is   -0.361612250246917
 Root      5 :     2.395609878312920   Change is   -0.004500741164677
 Iteration     3 Dimension    40 NMult    30 NNew     10
 CISAX will form    10 AO SS matrices at one time.
 NMat=    10 NSing=    10 JSym2X= 0.
 Root      1 not converged, maximum delta is    0.061493686776866
 Root      2 not converged, maximum delta is    0.083206713944366
 Root      3 not converged, maximum delta is    0.040704046606890
 Root      4 not converged, maximum delta is    0.040848725335755
 Root      5 not converged, maximum delta is    0.001513701549872
 Excitation Energies [eV] at current iteration:
 Root      1 :     1.684652451321567   Change is   -0.105766306929417
 Root      2 :     1.721359084039028   Change is   -0.306411992385201
 Root      3 :     2.191141870173828   Change is   -0.042640749943310
 Root      4 :     2.205258060886544   Change is   -0.044373703812878
 Root      5 :     2.395583225516454   Change is   -0.000026652796467
 Iteration     4 Dimension    50 NMult    40 NNew     10
 CISAX will form    10 AO SS matrices at one time.
 NMat=    10 NSing=    10 JSym2X= 0.
 Root      1 not converged, maximum delta is    0.049183529241036
 Root      2 not converged, maximum delta is    0.049693044237858
 Root      3 not converged, maximum delta is    0.016151205317928
 Root      4 not converged, maximum delta is    0.015896673581667
 Root      5 has converged.
 Excitation Energies [eV] at current iteration:
 Root      1 :     1.667919906504211   Change is   -0.016732544817356
 Root      2 :     1.686162319141116   Change is   -0.035196764897913
 Root      3 :     2.183876934754614   Change is   -0.007264935419214
 Root      4 :     2.198386250472313   Change is   -0.006871810414231
 Root      5 :     2.395581522453513   Change is   -0.000001703062940
 Iteration     5 Dimension    58 NMult    50 NNew      8
 CISAX will form     8 AO SS matrices at one time.
 NMat=     8 NSing=     8 JSym2X= 0.
 Root      1 not converged, maximum delta is    0.007944547175034
 Root      2 not converged, maximum delta is    0.010320318603065
 Root      3 not converged, maximum delta is    0.002115387554675
 Root      4 not converged, maximum delta is    0.001885424234502
 Root      5 has converged.
 Excitation Energies [eV] at current iteration:
 Root      1 :     1.666101257105914   Change is   -0.001818649398297
 Root      2 :     1.681472822153627   Change is   -0.004689496987489
 Root      3 :     2.183064307600822   Change is   -0.000812627153792
 Root      4 :     2.197539901503140   Change is   -0.000846348969173
 Root      5 :     2.395581426631979   Change is   -0.000000095821534
 Iteration     6 Dimension    66 NMult    58 NNew      8
 CISAX will form     8 AO SS matrices at one time.
 NMat=     8 NSing=     8 JSym2X= 0.
 Root      1 not converged, maximum delta is    0.002930167853298
 Root      2 not converged, maximum delta is    0.002822221051245
 Root      3 has converged.
 Root      4 has converged.
 Root      5 has converged.
 Excitation Energies [eV] at current iteration:
 Root      1 :     1.665840240370033   Change is   -0.000261016735881
 Root      2 :     1.680852189818269   Change is   -0.000620632335358
 Root      3 :     2.182933820329835   Change is   -0.000130487270987
 Root      4 :     2.197429226666154   Change is   -0.000110674836986
 Root      5 :     2.395581403803568   Change is   -0.000000022828411
 Iteration     7 Dimension    70 NMult    66 NNew      4
 CISAX will form     4 AO SS matrices at one time.
 NMat=     4 NSing=     4 JSym2X= 0.
 Root      1 has converged.
 Root      2 has converged.
 Root      3 has converged.
 Root      4 has converged.
 Root      5 has converged.
 Excitation Energies [eV] at current iteration:
 Root      1 :     1.665815558530542   Change is   -0.000024681839491
 Root      2 :     1.680788713320017   Change is   -0.000063476498252
[...]
 Alpha virt. eigenvalues --    1.83617   1.83705   1.83927   1.84122   1.84328
 Alpha virt. eigenvalues --    1.84536   1.84620   1.84717   1.84983   1.85142
 Alpha virt. eigenvalues --    1.85262   1.85302   1.85400   1.85601   1.85771
 Alpha virt. eigenvalues --    1.86037   1.86249   1.86333   1.86515   1.86656
 Alpha virt. eigenvalues --    1.86815   1.86940   1.86964   1.87110   1.87336
 Alpha virt. eigenvalues --    1.87533   1.87565   1.87675   1.87805   1.87903
 Alpha virt. eigenvalues --    1.88049   1.88282   1.88369   1.88418   1.88658
 Alpha virt. eigenvalues --    1.88853   1.89118   1.89161   1.89266   1.89480
 Alpha virt. eigenvalues --    1.89608   1.89905   1.90079   1.90399   1.90602
 Alpha virt. eigenvalues --    1.90656   1.91021   1.91163   1.91463   1.91602
 Alpha virt. eigenvalues --    1.91874   1.92008   1.92414   1.92432   1.92813
 Alpha virt. eigenvalues --    1.92927   1.93239   1.93470   1.93691   1.94267
 Alpha virt. eigenvalues --    1.94464   1.94588   1.94980   1.95418   1.95604
 Alpha virt. eigenvalues --    1.95696   1.95798   1.95936   1.96131   1.96234
 Alpha virt. eigenvalues --    1.96303   1.96523   1.96597   1.96822   1.97131
 Alpha virt. eigenvalues --    1.97390   1.97660   1.97789   1.97914   1.98030
 Alpha virt. eigenvalues --    1.98309   1.98453   1.98463   1.98986   1.99316
 Alpha virt. eigenvalues --    1.99589   2.00104   2.00601   2.00840   2.01023
 Alpha virt. eigenvalues --    2.01227   2.01258   2.01514   2.01631   2.01717
 Alpha virt. eigenvalues --    2.01792   2.01964   2.02644   2.02864   2.03159
 Alpha virt. eigenvalues --    2.03200   2.03248   2.03273   2.03528   2.03666
 Alpha virt. eigenvalues --    2.03913   2.04181   2.04779   2.05162   2.05352
 Alpha virt. eigenvalues --    2.05861   2.05934   2.06542   2.06732   2.07021
 Alpha virt. eigenvalues --    2.07153   2.07474   2.08419   2.08770   2.09067
 Alpha virt. eigenvalues --    2.09225   2.09507   2.09835   2.10886   2.11024
 Alpha virt. eigenvalues --    2.11165   2.11355   2.11528   2.11589   2.11638
 Alpha virt. eigenvalues --    2.12118   2.12282   2.12565   2.12676   2.12827
 Alpha virt. eigenvalues --    2.12998   2.13067   2.13510   2.13775   2.14071
 Alpha virt. eigenvalues --    2.14358   2.15237   2.15615   2.15756   2.16220
 Alpha virt. eigenvalues --    2.16441   2.16591   2.16774   2.17325   2.17343
 Alpha virt. eigenvalues --    2.17624   2.17834   2.17996   2.18086   2.18122
 Alpha virt. eigenvalues --    2.18176   2.18663   2.18901   2.19382   2.19474
 Alpha virt. eigenvalues --    2.19839   2.19983   2.20057   2.20388   2.20605
 Alpha virt. eigenvalues --    2.21170   2.21301   2.21515   2.21527   2.21934
 Alpha virt. eigenvalues --    2.22218   2.22567   2.22874   2.23217   2.23452
 Alpha virt. eigenvalues --    2.24253   2.24591   2.25047   2.25345   2.26047
 Alpha virt. eigenvalues --    2.26572   2.26645   2.26872   2.27159   2.27348
 Alpha virt. eigenvalues --    2.27965   2.28506   2.29144   2.29533   2.29654
 Alpha virt. eigenvalues --    2.30033   2.30222   2.30774   2.30838   2.30951
 Alpha virt. eigenvalues --    2.31029   2.31321   2.32116   2.32420   2.32925
 Alpha virt. eigenvalues --    2.33308   2.33412   2.33583   2.34068   2.34243
 Alpha virt. eigenvalues --    2.35141   2.35400   2.35573   2.36070   2.36351
 Alpha virt. eigenvalues --    2.36446   2.36531   2.36654   2.37672   2.37781
 Alpha virt. eigenvalues --    2.38119   2.38606   2.38728   2.38947   2.39418
 Alpha virt. eigenvalues --    2.39944   2.40080   2.40291   2.40400   2.40948
 Alpha virt. eigenvalues --    2.41029   2.41320   2.41664   2.41788   2.41916
 Alpha virt. eigenvalues --    2.42358   2.42916   2.42992   2.43161   2.43266
 Alpha virt. eigenvalues --    2.43993   2.44209   2.44539   2.44715   2.44992
 Alpha virt. eigenvalues --    2.45162   2.45406   2.45825   2.46126   2.46288
 Alpha virt. eigenvalues --    2.46584   2.46627   2.46809   2.47126   2.47191
 Alpha virt. eigenvalues --    2.47485   2.47605   2.48059   2.49203   2.49590
 Alpha virt. eigenvalues --    2.49999   2.50031   2.50532   2.50744   2.50889
 Alpha virt. eigenvalues --    2.51378   2.51654   2.51985   2.52218   2.52539
 Alpha virt. eigenvalues --    2.52617   2.53328   2.53763   2.54012   2.54201
 Alpha virt. eigenvalues --    2.54544   2.54689   2.54907   2.55369   2.55821
 Alpha virt. eigenvalues --    2.57701   2.58252   2.58545   2.59046   2.59949
 Alpha virt. eigenvalues --    2.60390   2.60410   2.61104   2.61583   2.62024
 Alpha virt. eigenvalues --    2.62316   2.62596   2.62789   2.63263   2.63750
 Alpha virt. eigenvalues --    2.64230   2.64381   2.64514   2.64966   2.65204
 Alpha virt. eigenvalues --    2.65548   2.65975   2.66673   2.66779   2.66937
 Alpha virt. eigenvalues --    2.67259   2.67796   2.68146   2.68648   2.68848
 Alpha virt. eigenvalues --    2.68940   2.69134   2.69354   2.69702   2.69857
 Alpha virt. eigenvalues --    2.70246   2.70838   2.71178   2.71841   2.71985
 Alpha virt. eigenvalues --    2.72428   2.72556   2.72574   2.72834   2.73213
 Alpha virt. eigenvalues --    2.73262   2.73386   2.73531   2.74364   2.74606
 Alpha virt. eigenvalues --    2.74771   2.75178   2.76489   2.76625   2.77021
 Alpha virt. eigenvalues --    2.77163   2.77269   2.77747   2.78043   2.78462
 Alpha virt. eigenvalues --    2.78495   2.78805   2.78945   2.79281   2.80157
 Alpha virt. eigenvalues --    2.80316   2.80491   2.80795   2.80913   2.81276
 Alpha virt. eigenvalues --    2.81705   2.82114   2.82205   2.82436   2.83512
 Alpha virt. eigenvalues --    2.83593   2.83982   2.84066   2.84391   2.84659
 Alpha virt. eigenvalues --    2.84773   2.84971   2.85526   2.85948   2.86760
 Alpha virt. eigenvalues --    2.86833   2.87233   2.87378   2.88013   2.88363
 Alpha virt. eigenvalues --    2.88459   2.88704   2.88816   2.89010   2.90333
 Alpha virt. eigenvalues --    2.90750   2.91127   2.91177   2.92981   2.93448
 Alpha virt. eigenvalues --    2.93879   2.94088   2.94606   2.94813   2.95137
 Alpha virt. eigenvalues --    2.95577   2.95888   2.95947   2.96414   2.96556
 Alpha virt. eigenvalues --    2.96929   2.96960   2.97554   2.98070   2.98211
 Alpha virt. eigenvalues --    2.98351   2.98440   2.98451   2.98730   2.98822
 Alpha virt. eigenvalues --    2.98941   2.99194   2.99559   2.99782   3.00040
 Alpha virt. eigenvalues --    3.00089   3.00135   3.00337   3.00750   3.01144
 Alpha virt. eigenvalues --    3.01843   3.01985   3.01997   3.02379   3.02476
 Alpha virt. eigenvalues --    3.02778   3.03029   3.03233   3.03603   3.03830
 Alpha virt. eigenvalues --    3.04114   3.04201   3.04288   3.04515   3.04601
 Alpha virt. eigenvalues --    3.04804   3.05269   3.05590   3.05990   3.06255
 Alpha virt. eigenvalues --    3.06605   3.07061   3.08053   3.08163   3.09133
 Alpha virt. eigenvalues --    3.09502   3.09548   3.10282   3.10510   3.10864
 Alpha virt. eigenvalues --    3.11311   3.11559   3.11683   3.11952   3.12322
 Alpha virt. eigenvalues --    3.12404   3.13100   3.13588   3.13751   3.13789
 Alpha virt. eigenvalues --    3.13814   3.14530   3.15992   3.16052   3.17087
 Alpha virt. eigenvalues --    3.17610   3.17936   3.18052   3.18985   3.19163
 Alpha virt. eigenvalues --    3.21986   3.22658   3.23744   3.24426   3.24543
 Alpha virt. eigenvalues --    3.25271   3.26298   3.26754   3.27399   3.27488
 Alpha virt. eigenvalues --    3.28771   3.29270   3.31298   3.31477   3.33217
 Alpha virt. eigenvalues --    3.33288   3.40285   3.40295   3.42652   3.42943
 Alpha virt. eigenvalues --    3.48441   3.48783   3.49823   3.50389   3.50945
 Alpha virt. eigenvalues --    3.51265   3.56398   3.57115   3.58978   3.59432
 Alpha virt. eigenvalues --    3.62610   3.62690   3.66077   3.66347   3.66865
 Alpha virt. eigenvalues --    3.67586   3.72958   3.74073   3.75768   3.76737
          Condensed to atoms (all electrons):
 Mulliken charges:
               1
     1  Mg   0.821812
     2  C   -0.003466
     3  C   -0.094418
     4  C   -0.045531
     5  C   -0.061932
     6  N   -0.256348
     7  C   -0.054027
     8  C   -0.013191
     9  C   -0.086713
    10  C    0.045329
    11  C    0.104655
    12  C    0.053351
    13  C   -0.071569
    14  H    0.034528
    15  N   -0.433299
    16  C    0.166886
    17  C   -0.178591
    18  C   -0.004529
    19  C    0.146460
    20  C    0.110386
    21  C    0.011895
    22  O   -0.247405
    23  C    0.062772
    24  N   -0.339460
    25  C    0.042581
    26  C   -0.028090
    27  C   -0.024392
    28  C    0.075326
    29  C    0.075918
    30  C    0.034264
    31  C   -0.002335
    32  N   -0.310730
    33  C    0.080216
    34  C   -0.169108
    35  C    0.008610
    36  C    0.081841
    37  C    0.127272
    38  C    0.046029
    39  O   -0.188014
    40  C   -0.005727
    41  C    0.213499
    42  O   -0.259819
    43  O   -0.304073
    44  C    0.157722
    45  H   -0.017360
    46  H   -0.015420
    47  H   -0.040248
    48  H    0.001481
    49  H   -0.004265
    50  H    0.025779
    51  H    0.017157
    52  H    0.017173
    53  H    0.009561
    54  H    0.041520
    55  H    0.019331
    56  H    0.018426
    57  H    0.005851
    58  H    0.027773
    59  H    0.038774
    60  H    0.037660
    61  H    0.037376
    62  H    0.030069
    63  H    0.019778
    64  H    0.009307
    65  H    0.024261
    66  H    0.012034
    67  H    0.004913
    68  H    0.006824
    69  H    0.003444
    70  H    0.015918
    71  H    0.019814
    72  H    0.025525
    73  H    0.047726
    74  H    0.010227
    75  H    0.046444
    76  H    0.035822
    77  H    0.044039
    78  H    0.046299
    79  H    0.052330
    80  Mg   0.837695
    81  C   -0.016904
    82  C   -0.088136
    83  C   -0.045480
    84  C   -0.065020
    85  N   -0.254519
    86  C   -0.049891
    87  C   -0.015137
    88  C   -0.090161
    89  C    0.044898
    90  C    0.114004
    91  C    0.062694
    92  C   -0.077347
    93  H    0.033662
    94  N   -0.423722
    95  C    0.162414
    96  C   -0.174328
    97  C   -0.008175
    98  C    0.152787
    99  C    0.098645
   100  C    0.015698
   101  O   -0.252668
   102  C    0.051140
   103  N   -0.350011
   104  C    0.037774
   105  C   -0.019880
   106  C   -0.034678
   107  C    0.088769
   108  C    0.073678
   109  C    0.034860
   110  C   -0.007600
   111  N   -0.323971
   112  C    0.078162
   113  C   -0.163535
   114  C    0.002133
   115  C    0.095949
   116  C    0.131560
   117  C    0.042075
   118  O   -0.188578
   119  C    0.001023
   120  C    0.211175
   121  O   -0.251386
   122  O   -0.305493
   123  C    0.152225
   124  H   -0.014627
   125  H   -0.015991
   126  H   -0.040980
   127  H   -0.000805
   128  H   -0.004551
   129  H    0.021664
   130  H    0.016883
   131  H    0.017928
   132  H    0.013381
   133  H    0.037241
   134  H    0.021003
   135  H    0.019098
   136  H    0.012696
   137  H    0.030293
   138  H    0.038344
   139  H    0.039398
   140  H    0.047484
   141  H    0.033465
   142  H    0.014134
   143  H    0.012187
   144  H    0.024181
   145  H    0.012126
   146  H    0.005522
   147  H    0.005801
   148  H    0.003416
   149  H    0.010851
   150  H    0.017518
   151  H    0.030261
   152  H    0.045514
   153  H    0.008139
   154  H    0.046776
   155  H    0.035123
   156  H    0.043642
   157  H    0.049328
   158  H    0.053227
 Sum of Mulliken charges =  -0.00000
 Mulliken charges with hydrogens summed into heavy atoms:
               1
     1  Mg   0.821812
     2  C   -0.003466
     3  C   -0.111778
     4  C   -0.060952
     5  C   -0.102181
     6  N   -0.256348
     7  C   -0.054027
     8  C   -0.011710
     9  C   -0.090979
    10  C    0.045329
    11  C    0.164763
    12  C    0.104433
    13  C    0.000716
    15  N   -0.433299
    16  C    0.166886
    17  C   -0.178591
    18  C   -0.004529
    19  C    0.146460
    20  C    0.182784
    21  C    0.011895
    22  O   -0.247405
    23  C    0.167878
    24  N   -0.339460
    25  C    0.042581
    26  C   -0.008312
    27  C   -0.015084
    28  C    0.075326
    29  C    0.117126
    30  C    0.044531
    31  C    0.058923
    32  N   -0.310730
    33  C    0.080216
    34  C   -0.169108
    35  C    0.008610
    36  C    0.081841
    37  C    0.231670
    38  C    0.046029
    39  O   -0.188014
    40  C    0.030096
    41  C    0.213499
    42  O   -0.259819
    43  O   -0.304073
    44  C    0.300390
    80  Mg   0.837695
    81  C   -0.016904
    82  C   -0.102762
    83  C   -0.061471
    84  C   -0.106000
    85  N   -0.254519
    86  C   -0.049891
    87  C   -0.015941
    88  C   -0.094712
    89  C    0.044898
    90  C    0.170478
    91  C    0.113316
    92  C   -0.003583
    94  N   -0.423722
    95  C    0.162414
    96  C   -0.174328
    97  C   -0.008175
    98  C    0.152787
    99  C    0.179977
   100  C    0.015698
   101  O   -0.252668
   102  C    0.171487
   103  N   -0.350011
   104  C    0.037774
   105  C   -0.005746
   106  C   -0.022490
   107  C    0.088769
   108  C    0.115506
   109  C    0.044077
   110  C    0.051030
   111  N   -0.323971
   112  C    0.078162
   113  C   -0.163535
   114  C    0.002133
   115  C    0.095949
   116  C    0.231989
   117  C    0.042075
   118  O   -0.188578
   119  C    0.036146
   120  C    0.211175
   121  O   -0.251386
   122  O   -0.305493
   123  C    0.298423
 Electronic spatial extent (au):  <R**2>=         120720.7676
 Charge=              0.0000 electrons
 Dipole moment (field-independent basis, Debye):
    X=              6.1156    Y=              2.3604    Z=              3.2071  Tot=              7.2978
 Quadrupole moment (field-independent basis, Debye-Ang):
   XX=           -554.8968   YY=           -478.3675   ZZ=           -506.2875
   XY=             16.7827   XZ=             30.8563   YZ=             47.6929
 Traceless Quadrupole moment (field-independent basis, Debye-Ang):
   XX=            -41.7129   YY=             34.8164   ZZ=              6.8965
   XY=             16.7827   XZ=             30.8563   YZ=             47.6929
 Octapole moment (field-independent basis, Debye-Ang**2):
  XXX=            977.4870  YYY=            283.6205  ZZZ=            187.7735  XYY=           -238.8624
  XXY=            -90.5170  XXZ=             24.2630  XZZ=             34.6251  YZZ=            -68.0084
  YYZ=            -60.8899  XYZ=            113.7287
 Hexadecapole moment (field-independent basis, Debye-Ang**3):
 XXXX=        -121583.6726 YYYY=         -34354.5724 ZZZZ=         -16275.4342 XXXY=           1467.0722
 XXXZ=            667.1496 YYYX=            317.1181 YYYZ=            656.2233 ZZZX=            993.5328
 ZZZY=            406.1110 XXYY=         -22364.5618 XXZZ=         -21074.1170 YYZZ=          -9130.3947
 XXYZ=           2039.3704 YYXZ=           -461.4030 ZZXY=           -510.6584
 N-N= 1.514025023684D+04 E-N=-3.976110827829D+04  KE= 4.028788069947D+03
 Leave Link  601 at Sat Sep 11 01:55:04 2021, MaxMem= 23488102400 cpu:              13.3 elap:               0.7
 (Enter /sw/apps/gaussian-16.0/g16/l9999.exe)
 1\1\GINC-BP1-COMPUTE00149\SP\RCAM-B3LYP TD-FC\def2SVP\C68H72Mg2N8O8\OF
 15641\11-Sep-2021\0\\#p cam-b3lyp/Def2SVP td=(nstates=5)\\TDDFT excite
 d states in gaussian\\0,1\Mg,0,0.,0.,0.\C,0,-0.217,-2.218,2.801\C,0,-1
 .255,2.442,2.026\C,0,-0.245,1.85,-2.564\C,0,0.146,-2.824,-2.037\N,0,-0
 .617,-0.009,2.126\C,0,-0.594,-0.908,3.105\C,0,-0.936,-0.309,4.502\C,0,
 -1.773,0.964,4.032\C,0,-1.155,1.168,2.66\C,0,-3.263,0.685,3.863\C,0,0.
 345,0.11,5.299\C,0,0.124,0.397,6.787\H,0,1.168,0.033,7.733\N,0,-0.185,
 1.961,-0.152\C,0,-0.703,2.8,0.777\C,0,-0.62,4.156,0.193\C,0,-0.187,4.0
 15,-1.225\C,0,-0.214,2.583,-1.38\C,0,-0.887,5.406,0.974\C,0,0.181,5.01
 3,-2.277\O,0,0.303,4.69,-3.508\C,0,0.31,6.414,-1.837\N,0,-0.265,-0.413
 ,-2.029\C,0,-0.279,0.569,-2.937\C,0,-0.196,0.024,-4.332\C,0,0.124,-1.5
 33,-4.18\C,0,0.086,-1.632,-2.635\C,0,-1.451,0.205,-5.197\C,0,1.373,-2.
 07,-4.923\C,0,2.626,-1.49,-4.306\N,0,0.15,-2.144,0.303\C,0,0.173,-3.13
 6,-0.688\C,0,0.173,-4.438,0.004\C,0,0.133,-4.111,1.358\C,0,0.083,-2.69
 5,1.502\C,0,0.149,-5.715,-0.623\C,0,0.096,-4.629,2.716\O,0,0.208,-5.74
 7,3.221\C,0,-0.255,-3.428,3.701\C,0,0.717,-3.482,4.848\O,0,1.931,-3.25
 5,4.669\O,0,0.038,-3.556,6.003\C,0,0.943,-3.583,7.183\H,0,-1.859,3.22,
 2.497\H,0,-0.218,2.453,-3.474\H,0,0.276,-3.747,-2.605\H,0,-1.554,-0.94
 9,5.132\H,0,-1.585,1.831,4.665\H,0,-3.484,-0.377,3.969\H,0,-3.511,1.02
 7,2.858\H,0,-3.852,1.301,4.543\H,0,0.669,1.096,4.966\H,0,1.13,-0.639,5
 .189\H,0,-0.844,0.026,7.125\H,0,0.062,1.477,6.921\H,0,-1.344,5.186,1.9
 38\H,0,-1.651,5.963,0.432\H,0,0.007,6.02,1.084\H,0,-0.635,6.744,-1.405
 \H,0,0.665,6.97,-2.704\H,0,1.048,6.466,-1.036\H,0,0.608,0.501,-4.891\H
 ,0,-0.692,-2.156,-4.547\H,0,-1.267,0.74,-6.129\H,0,-2.204,0.714,-4.596
 \H,0,-1.967,-0.72,-5.453\H,0,1.356,-1.759,-5.967\H,0,1.452,-3.157,-4.9
 02\H,0,2.714,-0.522,-4.798\H,0,3.487,-2.121,-4.529\H,0,2.495,-1.303,-3
 .24\H,0,0.867,-6.333,-0.084\H,0,0.404,-5.642,-1.68\H,0,-0.891,-5.999,-
 0.463\H,0,-1.283,-3.581,4.028\H,0,0.698,-4.478,7.755\H,0,0.833,-2.619,
 7.68\H,0,2.,-3.754,6.976\Mg,0,10.50734,0.95442,0.80423\C,0,12.72689,0.
 79157,3.61957\C,0,7.93354,0.50548,2.99708\C,0,8.56909,0.64273,-1.68845
 \C,0,13.252,0.2483,-1.22406\N,0,10.46275,0.6952,3.00038\C,0,11.36333,0
 .71215,3.97147\C,0,10.76479,0.72083,5.40368\C,0,9.34006,0.05782,5.0729
 1\C,0,9.21245,0.47081,3.60804\C,0,9.35214,-1.46022,5.14186\C,0,10.6036
 6,2.17314,5.97537\C,0,10.31702,2.24509,7.47684\H,0,10.88629,3.35102,8.
 24191\N,0,8.53254,1.11131,0.68545\C,0,7.63964,0.91733,1.67862\C,0,6.31
 486,1.13266,1.07633\C,0,6.4896,1.30772,-0.39116\C,0,7.89914,0.99994,-0
 .52736\C,0,5.05791,1.23591,1.89049\C,0,5.54176,1.67695,-1.49183\O,0,5.
 85675,1.53823,-2.72648\C,0,4.20043,2.11751,-1.08164\N,0,10.81248,0.302
 75,-1.1463\C,0,9.81167,0.31593,-2.04414\C,0,10.32878,0.06802,-3.4411\C
 ,0,11.92281,0.126,-3.32575\C,0,12.05927,0.31714,-1.79924\C,0,9.91282,-
 1.25731,-4.07898\C,0,12.66062,1.11997,-4.26401\C,0,12.32717,2.54201,-3
 .87416\N,0,12.64122,0.76536,1.08509\C,0,13.60488,0.4393,0.10575\C,0,14
 .90421,0.31548,0.79773\C,0,14.59992,0.55738,2.14583\C,0,13.2058,0.7939
 3,2.28713\C,0,16.14235,-0.0309,0.18687\C,0,15.13935,0.65591,3.483\O,0,
 16.27027,0.63623,3.96711\C,0,13.93051,0.68703,4.51456\C,0,14.17919,1.8
 0653,5.4879\O,0,14.17939,2.98944,5.10406\O,0,14.15924,1.31437,6.74\C,0
 ,14.39026,2.38886,7.74195\H,0,7.07675,0.14347,3.56608\H,0,7.96325,0.62
 997,-2.59744\H,0,14.17179,0.12693,-1.80018\H,0,11.29978,0.11277,6.1232
 8\H,0,8.54796,0.50726,5.66616\H,0,10.34913,-1.84902,5.28677\H,0,8.9467
 ,-1.8008,4.1981\H,0,8.65724,-1.80816,5.91152\H,0,9.67537,2.61038,5.585
 71\H,0,11.46271,2.77179,5.74239\H,0,10.511,1.28989,7.97975\H,0,9.24607
 ,2.40976,7.61817\H,0,5.21877,0.90171,2.92288\H,0,4.34889,0.51028,1.477
 45\H,0,4.60974,2.23094,1.849\H,0,3.72433,1.33164,-0.5001\H,0,3.69884,2
 .42256,-2.00208\H,0,4.30433,2.98214,-0.41663\H,0,9.99708,0.84429,-4.11
 969\H,0,12.38408,-0.84381,-3.5635\H,0,9.38551,-1.13104,-5.04338\H,0,9.
 29298,-1.7956,-3.3743\H,0,10.72542,-1.95994,-4.25563\H,0,12.31946,0.99
 248,-5.29431\H,0,13.73831,0.99514,-4.26385\H,0,11.37202,2.71846,-4.377
 8\H,0,13.09388,3.22683,-4.23086\H,0,12.1509,2.6233,-2.79528\H,0,16.889
 84,0.63337,0.5998\H,0,16.08872,0.05412,-0.89648\H,0,16.23667,-1.07017,
 0.51289\H,0,13.8962,-0.28481,5.00844\H,0,15.24333,2.07793,8.35292\H,0,
 13.4229,2.52676,8.26055\H,0,14.73132,3.3503,7.37621\\Version=ES64L-G16
 RevA.03\State=1-A\HF=-4069.8125266\RMSD=4.759e-09\PG=C01 [X(C68H72Mg2N
 8O8)]\\@


 SCIENCE IS LONG AND LIFE IS SHORT.

                     DON MOSER IN THE FEBRUARY 1979 SMITHSONIAN
 Job cpu time:       0 days 13 hours 20 minutes  3.1 seconds.
 Elapsed time:       0 days  0 hours 33 minutes 57.7 seconds.
 File lengths (MBytes):  RWF=  13225 Int=      0 D2E=      0 Chk=    574 Scr=      1
 Normal termination of Gaussian 16 at Sat Sep 11 01:55:05 2021.
