 Entering Gaussian System, Link 0=g16
 Initial command:
 /sw/apps/gaussian-16.0/g16/l1.exe "/tmp/Gau-41356.inp" -scrdir="/tmp/"
 Entering Link 1 = /sw/apps/gaussian-16.0/g16/l1.exe PID=     41357.
  
 Copyright (c) 1988,1990,1992,1993,1995,1998,2003,2009,2016,
            Gaussian, Inc.  All Rights Reserved.
  
 This is part of the Gaussian(R) 16 program.  It is based on
 the Gaussian(R) 09 system (copyright 2009, Gaussian, Inc.),
 the Gaussian(R) 03 system (copyright 2003, Gaussian, Inc.),
 the Gaussian(R) 98 system (copyright 1998, Gaussian, Inc.),
 the Gaussian(R) 94 system (copyright 1995, Gaussian, Inc.),
 the Gaussian 92(TM) system (copyright 1992, Gaussian, Inc.),
 the Gaussian 90(TM) system (copyright 1990, Gaussian, Inc.),
 the Gaussian 88(TM) system (copyright 1988, Gaussian, Inc.),
 the Gaussian 86(TM) system (copyright 1986, Carnegie Mellon
 University), and the Gaussian 82(TM) system (copyright 1983,
 Carnegie Mellon University). Gaussian is a federally registered
 trademark of Gaussian, Inc.
  
 This software contains proprietary and confidential information,
 including trade secrets, belonging to Gaussian, Inc.
  
 This software is provided under written license and may be
 used, copied, transmitted, or stored only in accord with that
 written license.
  
 The following legend is applicable only to US Government
 contracts under FAR:
  
                    RESTRICTED RIGHTS LEGEND
  
 Use, reproduction and disclosure by the US Government is
 subject to restrictions as set forth in subparagraphs (a)
 and (c) of the Commercial Computer Software - Restricted
 Rights clause in FAR 52.227-19.
  
 Gaussian, Inc.
 340 Quinnipiac St., Bldg. 40, Wallingford CT 06492
  
  
 ---------------------------------------------------------------
 Warning -- This program may not be used in any manner that
 competes with the business of Gaussian, Inc. or will provide
 assistance to any competitor of Gaussian, Inc.  The licensee
 of this program is prohibited from giving any competitor of
 Gaussian, Inc. access to this program.  By using this program,
 the user acknowledges that Gaussian, Inc. is engaged in the
 business of creating and licensing software in the field of
 computational chemistry and represents and warrants to the
 licensee that it is not a competitor of Gaussian, Inc. and that
 it will not use this program in any manner prohibited above.
 ---------------------------------------------------------------
  

 Cite this work as:
 Gaussian 16, Revision A.03,
 M. J. Frisch, G. W. Trucks, H. B. Schlegel, G. E. Scuseria, 
 M. A. Robb, J. R. Cheeseman, G. Scalmani, V. Barone, 
 G. A. Petersson, H. Nakatsuji, X. Li, M. Caricato, A. V. Marenich, 
 J. Bloino, B. G. Janesko, R. Gomperts, B. Mennucci, H. P. Hratchian, 
 J. V. Ortiz, A. F. Izmaylov, J. L. Sonnenberg, D. Williams-Young, 
 F. Ding, F. Lipparini, F. Egidi, J. Goings, B. Peng, A. Petrone, 
 T. Henderson, D. Ranasinghe, V. G. Zakrzewski, J. Gao, N. Rega, 
 G. Zheng, W. Liang, M. Hada, M. Ehara, K. Toyota, R. Fukuda, 
 J. Hasegawa, M. Ishida, T. Nakajima, Y. Honda, O. Kitao, H. Nakai, 
 T. Vreven, K. Throssell, J. A. Montgomery, Jr., J. E. Peralta, 
 F. Ogliaro, M. J. Bearpark, J. J. Heyd, E. N. Brothers, K. N. Kudin, 
 V. N. Staroverov, T. A. Keith, R. Kobayashi, J. Normand, 
 K. Raghavachari, A. P. Rendell, J. C. Burant, S. S. Iyengar, 
 J. Tomasi, M. Cossi, J. M. Millam, M. Klene, C. Adamo, R. Cammi, 
 J. W. Ochterski, R. L. Martin, K. Morokuma, O. Farkas, 
 J. B. Foresman, and D. J. Fox, Gaussian, Inc., Wallingford CT, 2016.
 
 ******************************************
 Gaussian 16:  ES64L-G16RevA.03 25-Dec-2016
                12-Sep-2021 
 ******************************************
 %nproc=24
 Will use up to   24 processors via shared memory.
 %mem=175gb
 -----------------------------------
 #p cam-b3lyp/Def2SVP td=(nstates=5)
 -----------------------------------
 1/38=1,172=1/1;
 2/12=2,17=6,18=5,40=1/2;
 3/5=43,7=101,11=9,25=1,30=1,74=-40/1,2,3,8;
 4//1;
 5/5=2,38=5/2;
 8/6=1,10=1,108=5/1;
 9/41=5,42=1,70=2/14;
 6/7=2,8=2,9=2,10=2/1;
 99/5=1,9=1/99;
 Leave Link    1 at Sun Sep 12 18:25:40 2021, MaxMem= 23488102400 cpu:               0.8 elap:               0.0
 (Enter /sw/apps/gaussian-16.0/g16/l101.exe)
 --------------------------------
 TDDFT excited states in gaussian
 --------------------------------
 Symbolic Z-matrix:
 Charge =  0 Multiplicity = 1
 Mg                    0.        0.        0. 
 C                    -0.217    -2.218     2.801 
 C                    -1.255     2.442     2.026 
 C                    -0.245     1.85     -2.564 
 C                     0.146    -2.824    -2.037 
 N                    -0.617    -0.009     2.126 
 C                    -0.594    -0.908     3.105 
 C                    -0.936    -0.309     4.502 
 C                    -1.773     0.964     4.032 
 C                    -1.155     1.168     2.66 
 C                    -3.263     0.685     3.863 
 C                     0.345     0.11      5.299 
 C                     0.124     0.397     6.787 
 H                     1.168     0.033     7.733 
 N                    -0.185     1.961    -0.152 
 C                    -0.703     2.8       0.777 
 C                    -0.62      4.156     0.193 
 C                    -0.187     4.015    -1.225 
 C                    -0.214     2.583    -1.38 
 C                    -0.887     5.406     0.974 
 C                     0.181     5.013    -2.277 
 O                     0.303     4.69     -3.508 
 C                     0.31      6.414    -1.837 
 N                    -0.265    -0.413    -2.029 
 C                    -0.279     0.569    -2.937 
 C                    -0.196     0.024    -4.332 
 C                     0.124    -1.533    -4.18 
 C                     0.086    -1.632    -2.635 
 C                    -1.451     0.205    -5.197 
 C                     1.373    -2.07     -4.923 
 C                     2.626    -1.49     -4.306 
 N                     0.15     -2.144     0.303 
 C                     0.173    -3.136    -0.688 
 C                     0.173    -4.438     0.004 
 C                     0.133    -4.111     1.358 
 C                     0.083    -2.695     1.502 
 C                     0.149    -5.715    -0.623 
 C                     0.096    -4.629     2.716 
 O                     0.208    -5.747     3.221 
 C                    -0.255    -3.428     3.701 
 C                     0.717    -3.482     4.848 
 O                     1.931    -3.255     4.669 
 O                     0.038    -3.556     6.003 
 C                     0.943    -3.583     7.183 
 H                    -1.859     3.22      2.497 
 H                    -0.218     2.453    -3.474 
 H                     0.276    -3.747    -2.605 
 H                    -1.554    -0.949     5.132 
 H                    -1.585     1.831     4.665 
 H                    -3.484    -0.377     3.969 
 H                    -3.511     1.027     2.858 
 H                    -3.852     1.301     4.543 
 H                     0.669     1.096     4.966 
 H                     1.13     -0.639     5.189 
 H                    -0.844     0.026     7.125 
 H                     0.062     1.477     6.921 
 H                    -1.344     5.186     1.938 
 H                    -1.651     5.963     0.432 
 H                     0.007     6.02      1.084 
 H                    -0.635     6.744    -1.405 
 H                     0.665     6.97     -2.704 
 H                     1.048     6.466    -1.036 
 H                     0.608     0.501    -4.891 
 H                    -0.692    -2.156    -4.547 
 H                    -1.267     0.74     -6.129 
 H                    -2.204     0.714    -4.596 
 H                    -1.967    -0.72     -5.453 
 H                     1.356    -1.759    -5.967 
 H                     1.452    -3.157    -4.902 
 H                     2.714    -0.522    -4.798 
 H                     3.487    -2.121    -4.529 
 H                     2.495    -1.303    -3.24 
 H                     0.867    -6.333    -0.084 
 H                     0.404    -5.642    -1.68 
 H                    -0.891    -5.999    -0.463 
 H                    -1.283    -3.581     4.028 
 H                     0.698    -4.478     7.755 
 H                     0.833    -2.619     7.68 
 H                     2.       -3.754     6.976 
 Mg                    31.54184   2.84342   2.3975 
 C                     32.76051   0.71745   5.01936 
 C                     31.6838   5.42187   4.62597 
 C                     30.05013   4.64652   0.25483 
 C                     30.43086  -0.03202   0.7717 
 N                     32.15997   2.93293   4.51933 
 C                     32.66315   2.07402   5.39307 
 C                     33.16047   2.7182    6.71492 
 C                     32.25603   4.04496   6.69101 
 C                     32.04401   4.16911   5.1836 
 C                     30.89945   3.86051   7.35056 
 C                     34.69016   3.06495   6.67234 
 C                     35.30954   3.40914   8.02868 
 H                     36.68607   2.9975    8.28982 
 N                     31.40284   4.81793   2.2541 
 C                     31.50822   5.71599   3.25593 
 C                     31.31077   7.03538   2.63595 
 C                     30.91671   6.83189   1.21537 
 C                     30.75075   5.39245   1.19145 
 C                     31.57381   8.32295   3.36148 
 C                     30.7095   7.77775   0.07143 
 O                     30.13706   7.40685  -1.01373 
 C                     31.11203   9.17412   0.29419 
 N                     30.21991   2.39876   0.85571 
 C                     29.76095   3.36315   0.03887 
 C                     29.04943   2.77346  -1.15545 
 C                     29.33771   1.2016   -1.09432 
 C                     30.12612   1.14033   0.23235 
 C                     27.54083   3.01198  -1.21559 
 C                     29.96521   0.55151  -2.35776 
 C                     31.37552   1.05964  -2.55326 
 N                     31.73394   0.71283   2.70036 
 C                     31.16795  -0.31488   1.91453 
 C                     31.48097  -1.5954    2.5814 
 C                     32.19325  -1.21937   3.7302 
 C                     32.29806   0.19673   3.78658 
 C                     31.07348  -2.88535   2.13857 
 C                     32.87111  -1.69783   4.91354 
 O                     33.17767  -2.80628   5.3507 
 C                     33.1592  -0.45889   5.86664 
 C                     34.59142  -0.54357   6.31843 
 O                     35.5204  -0.42067   5.50081 
 O                     34.63029  -0.53763   7.66335 
 C                     36.03054  -0.60899   8.15937 
 H                     31.47409   6.25022   5.30328 
 H                     29.61025   5.21543  -0.56757 
 H                     30.20427  -0.97883   0.27684 
 H                     32.9513   2.14166   7.60802 
 H                     32.80389   4.90335   7.07098 
 H                     30.72043   2.83092   7.62268 
 H                     30.17079   4.19152   6.62219 
 H                     30.80047   4.53663   8.20461 
 H                     34.82575   4.02355   6.15519 
 H                     35.24763   2.2731    6.21101 
 H                     34.65811   3.12376   8.86363 
 H                     35.38734   4.49612   8.10883 
 H                     31.69234   8.16007   4.43982 
 H                     30.66542   8.92916   3.27658 
 H                     32.41192   8.88104   2.93869 
 H                     30.56593   9.57616   1.14424 
 H                     30.97007   9.67574  -0.66503 
 H                     32.1737   9.19328   0.56458 
 H                     29.45239   3.16895  -2.07975 
 H                     28.41481   0.62386  -0.93838 
 H                     27.21549   3.51705  -2.14464 
 H                     27.25169   3.58944  -0.34757 
 H                     26.92755   2.11832  -1.11331 
 H                     29.40475   0.84029  -3.25031 
 H                     29.97997  -0.53274  -2.32355 
 H                     31.22532   2.01097  -3.0724 
 H                     31.95214   0.36514  -3.16091 
 H                     31.85112   1.28088  -1.59071 
 H                     31.93042  -3.53682   2.24693 
 H                     30.72043  -2.85936   1.10976 
 H                     30.26419  -3.08752   2.84528 
 H                     32.46182  -0.51985   6.70301 
 H                     36.08789  -1.4708    8.83144 
 H                     36.244    0.38498   8.5955 
 H                     36.80521  -0.84936   7.44065 
 
 ITRead=  0  0  0  0  0  0  0  0  0  0  0  0  0  0  0  0  0  0  0  0
 ITRead=  0  0  0  0  0  0  0  0  0  0  0  0  0  0  0  0  0  0  0  0
 ITRead=  0  0  0  0  0  0  0  0  0  0  0  0  0  0  0  0  0  0  0  0
 ITRead=  0  0  0  0  0  0  0  0  0  0  0  0  0  0  0  0  0  0  0  0
 ITRead=  0  0  0  0  0  0  0  0  0  0  0  0  0  0  0  0  0  0  0  0
 ITRead=  0  0  0  0  0  0  0  0  0  0  0  0  0  0  0  0  0  0  0  0
 ITRead=  0  0  0  0  0  0  0  0  0  0  0  0  0  0  0  0  0  0  0  0
 ITRead=  0  0  0  0  0  0  0  0  0  0  0  0  0  0  0  0  0  0
 MicOpt= -1 -1 -1 -1 -1 -1 -1 -1 -1 -1 -1 -1 -1 -1 -1 -1 -1 -1 -1 -1
 MicOpt= -1 -1 -1 -1 -1 -1 -1 -1 -1 -1 -1 -1 -1 -1 -1 -1 -1 -1 -1 -1
 MicOpt= -1 -1 -1 -1 -1 -1 -1 -1 -1 -1 -1 -1 -1 -1 -1 -1 -1 -1 -1 -1
 MicOpt= -1 -1 -1 -1 -1 -1 -1 -1 -1 -1 -1 -1 -1 -1 -1 -1 -1 -1 -1 -1
 MicOpt= -1 -1 -1 -1 -1 -1 -1 -1 -1 -1 -1 -1 -1 -1 -1 -1 -1 -1 -1 -1
 MicOpt= -1 -1 -1 -1 -1 -1 -1 -1 -1 -1 -1 -1 -1 -1 -1 -1 -1 -1 -1 -1
 MicOpt= -1 -1 -1 -1 -1 -1 -1 -1 -1 -1 -1 -1 -1 -1 -1 -1 -1 -1 -1 -1
 MicOpt= -1 -1 -1 -1 -1 -1 -1 -1 -1 -1 -1 -1 -1 -1 -1 -1 -1 -1
 NAtoms=    158 NQM=      158 NQMF=       0 NMMI=      0 NMMIF=      0
                NMic=       0 NMicF=      0.
                    Isotopes and Nuclear Properties:
 (Nuclear quadrupole moments (NQMom) in fm**2, nuclear magnetic moments (NMagM)
  in nuclear magnetons)

  Atom         1           2           3           4           5           6           7           8           9          10
 IAtWgt=          24          12          12          12          12          14          12          12          12          12
 AtmWgt=  23.9850450  12.0000000  12.0000000  12.0000000  12.0000000  14.0030740  12.0000000  12.0000000  12.0000000  12.0000000
 NucSpn=           0           0           0           0           0           2           0           0           0           0
 AtZEff=  -0.0000000  -0.0000000  -0.0000000  -0.0000000  -0.0000000  -0.0000000  -0.0000000  -0.0000000  -0.0000000  -0.0000000
 NQMom=    0.0000000   0.0000000   0.0000000   0.0000000   0.0000000   2.0440000   0.0000000   0.0000000   0.0000000   0.0000000
 NMagM=    0.0000000   0.0000000   0.0000000   0.0000000   0.0000000   0.4037610   0.0000000   0.0000000   0.0000000   0.0000000
 AtZNuc=  12.0000000   6.0000000   6.0000000   6.0000000   6.0000000   7.0000000   6.0000000   6.0000000   6.0000000   6.0000000

  Atom        11          12          13          14          15          16          17          18          19          20
 IAtWgt=          12          12          12           1          14          12          12          12          12          12
 AtmWgt=  12.0000000  12.0000000  12.0000000   1.0078250  14.0030740  12.0000000  12.0000000  12.0000000  12.0000000  12.0000000
 NucSpn=           0           0           0           1           2           0           0           0           0           0
 AtZEff=  -0.0000000  -0.0000000  -0.0000000  -0.0000000  -0.0000000  -0.0000000  -0.0000000  -0.0000000  -0.0000000  -0.0000000
 NQMom=    0.0000000   0.0000000   0.0000000   0.0000000   2.0440000   0.0000000   0.0000000   0.0000000   0.0000000   0.0000000
 NMagM=    0.0000000   0.0000000   0.0000000   2.7928460   0.4037610   0.0000000   0.0000000   0.0000000   0.0000000   0.0000000
 AtZNuc=   6.0000000   6.0000000   6.0000000   1.0000000   7.0000000   6.0000000   6.0000000   6.0000000   6.0000000   6.0000000

  Atom        21          22          23          24          25          26          27          28          29          30
 IAtWgt=          12          16          12          14          12          12          12          12          12          12
 AtmWgt=  12.0000000  15.9949146  12.0000000  14.0030740  12.0000000  12.0000000  12.0000000  12.0000000  12.0000000  12.0000000
 NucSpn=           0           0           0           2           0           0           0           0           0           0
 AtZEff=  -0.0000000  -0.0000000  -0.0000000  -0.0000000  -0.0000000  -0.0000000  -0.0000000  -0.0000000  -0.0000000  -0.0000000
 NQMom=    0.0000000   0.0000000   0.0000000   2.0440000   0.0000000   0.0000000   0.0000000   0.0000000   0.0000000   0.0000000
 NMagM=    0.0000000   0.0000000   0.0000000   0.4037610   0.0000000   0.0000000   0.0000000   0.0000000   0.0000000   0.0000000
 AtZNuc=   6.0000000   8.0000000   6.0000000   7.0000000   6.0000000   6.0000000   6.0000000   6.0000000   6.0000000   6.0000000

  Atom        31          32          33          34          35          36          37          38          39          40
 IAtWgt=          12          14          12          12          12          12          12          12          16          12
 AtmWgt=  12.0000000  14.0030740  12.0000000  12.0000000  12.0000000  12.0000000  12.0000000  12.0000000  15.9949146  12.0000000
 NucSpn=           0           2           0           0           0           0           0           0           0           0
 AtZEff=  -0.0000000  -0.0000000  -0.0000000  -0.0000000  -0.0000000  -0.0000000  -0.0000000  -0.0000000  -0.0000000  -0.0000000
 NQMom=    0.0000000   2.0440000   0.0000000   0.0000000   0.0000000   0.0000000   0.0000000   0.0000000   0.0000000   0.0000000
 NMagM=    0.0000000   0.4037610   0.0000000   0.0000000   0.0000000   0.0000000   0.0000000   0.0000000   0.0000000   0.0000000
 AtZNuc=   6.0000000   7.0000000   6.0000000   6.0000000   6.0000000   6.0000000   6.0000000   6.0000000   8.0000000   6.0000000

  Atom        41          42          43          44          45          46          47          48          49          50
 IAtWgt=          12          16          16          12           1           1           1           1           1           1
 AtmWgt=  12.0000000  15.9949146  15.9949146  12.0000000   1.0078250   1.0078250   1.0078250   1.0078250   1.0078250   1.0078250
 NucSpn=           0           0           0           0           1           1           1           1           1           1
 AtZEff=  -0.0000000  -0.0000000  -0.0000000  -0.0000000  -0.0000000  -0.0000000  -0.0000000  -0.0000000  -0.0000000  -0.0000000
 NQMom=    0.0000000   0.0000000   0.0000000   0.0000000   0.0000000   0.0000000   0.0000000   0.0000000   0.0000000   0.0000000
 NMagM=    0.0000000   0.0000000   0.0000000   0.0000000   2.7928460   2.7928460   2.7928460   2.7928460   2.7928460   2.7928460
 AtZNuc=   6.0000000   8.0000000   8.0000000   6.0000000   1.0000000   1.0000000   1.0000000   1.0000000   1.0000000   1.0000000

  Atom        51          52          53          54          55          56          57          58          59          60
 IAtWgt=           1           1           1           1           1           1           1           1           1           1
 AtmWgt=   1.0078250   1.0078250   1.0078250   1.0078250   1.0078250   1.0078250   1.0078250   1.0078250   1.0078250   1.0078250
 NucSpn=           1           1           1           1           1           1           1           1           1           1
 AtZEff=  -0.0000000  -0.0000000  -0.0000000  -0.0000000  -0.0000000  -0.0000000  -0.0000000  -0.0000000  -0.0000000  -0.0000000
 NQMom=    0.0000000   0.0000000   0.0000000   0.0000000   0.0000000   0.0000000   0.0000000   0.0000000   0.0000000   0.0000000
 NMagM=    2.7928460   2.7928460   2.7928460   2.7928460   2.7928460   2.7928460   2.7928460   2.7928460   2.7928460   2.7928460
 AtZNuc=   1.0000000   1.0000000   1.0000000   1.0000000   1.0000000   1.0000000   1.0000000   1.0000000   1.0000000   1.0000000

  Atom        61          62          63          64          65          66          67          68          69          70
 IAtWgt=           1           1           1           1           1           1           1           1           1           1
 AtmWgt=   1.0078250   1.0078250   1.0078250   1.0078250   1.0078250   1.0078250   1.0078250   1.0078250   1.0078250   1.0078250
 NucSpn=           1           1           1           1           1           1           1           1           1           1
 AtZEff=  -0.0000000  -0.0000000  -0.0000000  -0.0000000  -0.0000000  -0.0000000  -0.0000000  -0.0000000  -0.0000000  -0.0000000
 NQMom=    0.0000000   0.0000000   0.0000000   0.0000000   0.0000000   0.0000000   0.0000000   0.0000000   0.0000000   0.0000000
 NMagM=    2.7928460   2.7928460   2.7928460   2.7928460   2.7928460   2.7928460   2.7928460   2.7928460   2.7928460   2.7928460
 AtZNuc=   1.0000000   1.0000000   1.0000000   1.0000000   1.0000000   1.0000000   1.0000000   1.0000000   1.0000000   1.0000000

  Atom        71          72          73          74          75          76          77          78          79          80
 IAtWgt=           1           1           1           1           1           1           1           1           1          24
 AtmWgt=   1.0078250   1.0078250   1.0078250   1.0078250   1.0078250   1.0078250   1.0078250   1.0078250   1.0078250  23.9850450
 NucSpn=           1           1           1           1           1           1           1           1           1           0
 AtZEff=  -0.0000000  -0.0000000  -0.0000000  -0.0000000  -0.0000000  -0.0000000  -0.0000000  -0.0000000  -0.0000000  -0.0000000
 NQMom=    0.0000000   0.0000000   0.0000000   0.0000000   0.0000000   0.0000000   0.0000000   0.0000000   0.0000000   0.0000000
 NMagM=    2.7928460   2.7928460   2.7928460   2.7928460   2.7928460   2.7928460   2.7928460   2.7928460   2.7928460   0.0000000
 AtZNuc=   1.0000000   1.0000000   1.0000000   1.0000000   1.0000000   1.0000000   1.0000000   1.0000000   1.0000000  12.0000000

  Atom        81          82          83          84          85          86          87          88          89          90
 IAtWgt=          12          12          12          12          14          12          12          12          12          12
 AtmWgt=  12.0000000  12.0000000  12.0000000  12.0000000  14.0030740  12.0000000  12.0000000  12.0000000  12.0000000  12.0000000
 NucSpn=           0           0           0           0           2           0           0           0           0           0
 AtZEff=  -0.0000000  -0.0000000  -0.0000000  -0.0000000  -0.0000000  -0.0000000  -0.0000000  -0.0000000  -0.0000000  -0.0000000
 NQMom=    0.0000000   0.0000000   0.0000000   0.0000000   2.0440000   0.0000000   0.0000000   0.0000000   0.0000000   0.0000000
 NMagM=    0.0000000   0.0000000   0.0000000   0.0000000   0.4037610   0.0000000   0.0000000   0.0000000   0.0000000   0.0000000
 AtZNuc=   6.0000000   6.0000000   6.0000000   6.0000000   7.0000000   6.0000000   6.0000000   6.0000000   6.0000000   6.0000000

  Atom        91          92          93          94          95          96          97          98          99         100
 IAtWgt=          12          12           1          14          12          12          12          12          12          12
 AtmWgt=  12.0000000  12.0000000   1.0078250  14.0030740  12.0000000  12.0000000  12.0000000  12.0000000  12.0000000  12.0000000
 NucSpn=           0           0           1           2           0           0           0           0           0           0
 AtZEff=  -0.0000000  -0.0000000  -0.0000000  -0.0000000  -0.0000000  -0.0000000  -0.0000000  -0.0000000  -0.0000000  -0.0000000
 NQMom=    0.0000000   0.0000000   0.0000000   2.0440000   0.0000000   0.0000000   0.0000000   0.0000000   0.0000000   0.0000000
 NMagM=    0.0000000   0.0000000   2.7928460   0.4037610   0.0000000   0.0000000   0.0000000   0.0000000   0.0000000   0.0000000
 AtZNuc=   6.0000000   6.0000000   1.0000000   7.0000000   6.0000000   6.0000000   6.0000000   6.0000000   6.0000000   6.0000000

  Atom       101         102         103         104         105         106         107         108         109         110
 IAtWgt=          16          12          14          12          12          12          12          12          12          12
 AtmWgt=  15.9949146  12.0000000  14.0030740  12.0000000  12.0000000  12.0000000  12.0000000  12.0000000  12.0000000  12.0000000
 NucSpn=           0           0           2           0           0           0           0           0           0           0
 AtZEff=  -0.0000000  -0.0000000  -0.0000000  -0.0000000  -0.0000000  -0.0000000  -0.0000000  -0.0000000  -0.0000000  -0.0000000
 NQMom=    0.0000000   0.0000000   2.0440000   0.0000000   0.0000000   0.0000000   0.0000000   0.0000000   0.0000000   0.0000000
 NMagM=    0.0000000   0.0000000   0.4037610   0.0000000   0.0000000   0.0000000   0.0000000   0.0000000   0.0000000   0.0000000
 AtZNuc=   8.0000000   6.0000000   7.0000000   6.0000000   6.0000000   6.0000000   6.0000000   6.0000000   6.0000000   6.0000000

  Atom       111         112         113         114         115         116         117         118         119         120
 IAtWgt=          14          12          12          12          12          12          12          16          12          12
 AtmWgt=  14.0030740  12.0000000  12.0000000  12.0000000  12.0000000  12.0000000  12.0000000  15.9949146  12.0000000  12.0000000
 NucSpn=           2           0           0           0           0           0           0           0           0           0
 AtZEff=  -0.0000000  -0.0000000  -0.0000000  -0.0000000  -0.0000000  -0.0000000  -0.0000000  -0.0000000  -0.0000000  -0.0000000
 NQMom=    2.0440000   0.0000000   0.0000000   0.0000000   0.0000000   0.0000000   0.0000000   0.0000000   0.0000000   0.0000000
 NMagM=    0.4037610   0.0000000   0.0000000   0.0000000   0.0000000   0.0000000   0.0000000   0.0000000   0.0000000   0.0000000
 AtZNuc=   7.0000000   6.0000000   6.0000000   6.0000000   6.0000000   6.0000000   6.0000000   8.0000000   6.0000000   6.0000000

  Atom       121         122         123         124         125         126         127         128         129         130
 IAtWgt=          16          16          12           1           1           1           1           1           1           1
 AtmWgt=  15.9949146  15.9949146  12.0000000   1.0078250   1.0078250   1.0078250   1.0078250   1.0078250   1.0078250   1.0078250
 NucSpn=           0           0           0           1           1           1           1           1           1           1
 AtZEff=  -0.0000000  -0.0000000  -0.0000000  -0.0000000  -0.0000000  -0.0000000  -0.0000000  -0.0000000  -0.0000000  -0.0000000
 NQMom=    0.0000000   0.0000000   0.0000000   0.0000000   0.0000000   0.0000000   0.0000000   0.0000000   0.0000000   0.0000000
 NMagM=    0.0000000   0.0000000   0.0000000   2.7928460   2.7928460   2.7928460   2.7928460   2.7928460   2.7928460   2.7928460
 AtZNuc=   8.0000000   8.0000000   6.0000000   1.0000000   1.0000000   1.0000000   1.0000000   1.0000000   1.0000000   1.0000000

  Atom       131         132         133         134         135         136         137         138         139         140
 IAtWgt=           1           1           1           1           1           1           1           1           1           1
 AtmWgt=   1.0078250   1.0078250   1.0078250   1.0078250   1.0078250   1.0078250   1.0078250   1.0078250   1.0078250   1.0078250
 NucSpn=           1           1           1           1           1           1           1           1           1           1
 AtZEff=  -0.0000000  -0.0000000  -0.0000000  -0.0000000  -0.0000000  -0.0000000  -0.0000000  -0.0000000  -0.0000000  -0.0000000
 NQMom=    0.0000000   0.0000000   0.0000000   0.0000000   0.0000000   0.0000000   0.0000000   0.0000000   0.0000000   0.0000000
 NMagM=    2.7928460   2.7928460   2.7928460   2.7928460   2.7928460   2.7928460   2.7928460   2.7928460   2.7928460   2.7928460
 AtZNuc=   1.0000000   1.0000000   1.0000000   1.0000000   1.0000000   1.0000000   1.0000000   1.0000000   1.0000000   1.0000000

  Atom       141         142         143         144         145         146         147         148         149         150
 IAtWgt=           1           1           1           1           1           1           1           1           1           1
 AtmWgt=   1.0078250   1.0078250   1.0078250   1.0078250   1.0078250   1.0078250   1.0078250   1.0078250   1.0078250   1.0078250
 NucSpn=           1           1           1           1           1           1           1           1           1           1
 AtZEff=  -0.0000000  -0.0000000  -0.0000000  -0.0000000  -0.0000000  -0.0000000  -0.0000000  -0.0000000  -0.0000000  -0.0000000
 NQMom=    0.0000000   0.0000000   0.0000000   0.0000000   0.0000000   0.0000000   0.0000000   0.0000000   0.0000000   0.0000000
 NMagM=    2.7928460   2.7928460   2.7928460   2.7928460   2.7928460   2.7928460   2.7928460   2.7928460   2.7928460   2.7928460
 AtZNuc=   1.0000000   1.0000000   1.0000000   1.0000000   1.0000000   1.0000000   1.0000000   1.0000000   1.0000000   1.0000000

  Atom       151         152         153         154         155         156         157         158
 IAtWgt=           1           1           1           1           1           1           1           1
 AtmWgt=   1.0078250   1.0078250   1.0078250   1.0078250   1.0078250   1.0078250   1.0078250   1.0078250
 NucSpn=           1           1           1           1           1           1           1           1
 AtZEff=  -0.0000000  -0.0000000  -0.0000000  -0.0000000  -0.0000000  -0.0000000  -0.0000000  -0.0000000
 NQMom=    0.0000000   0.0000000   0.0000000   0.0000000   0.0000000   0.0000000   0.0000000   0.0000000
 NMagM=    2.7928460   2.7928460   2.7928460   2.7928460   2.7928460   2.7928460   2.7928460   2.7928460
 AtZNuc=   1.0000000   1.0000000   1.0000000   1.0000000   1.0000000   1.0000000   1.0000000   1.0000000
 Leave Link  101 at Sun Sep 12 18:25:40 2021, MaxMem= 23488102400 cpu:               3.5 elap:               0.2
 (Enter /sw/apps/gaussian-16.0/g16/l202.exe)
 Stoichiometry    C68H72Mg2N8O8
 Framework group  C1[X(C68H72Mg2N8O8)]
 Deg. of freedom   468
 Full point group                 C1      NOp   1
 Largest Abelian subgroup         C1      NOp   1
 Largest concise Abelian subgroup C1      NOp   1
                         Standard orientation:                         
 ---------------------------------------------------------------------
 Center     Atomic      Atomic             Coordinates (Angstroms)
 Number     Number       Type             X           Y           Z
 ---------------------------------------------------------------------
      1         12           0       15.980790    0.601991    0.115724
      2          6           0       16.151340   -2.961728   -0.172433
      3          6           0       16.847460    0.761067   -3.180735
      4          6           0       16.280563    3.740391    0.458073
      5          6           0       16.248778    0.188167    3.565737
      6          7           0       16.415750   -0.970355   -1.380667
      7          6           0       16.387836   -2.299411   -1.379102
      8          6           0       16.558828   -2.922625   -2.796755
      9          6           0       17.320109   -1.717679   -3.511287
     10          6           0       16.804187   -0.567918   -2.664056
     11          6           0       18.837445   -1.787832   -3.372461
     12          6           0       15.184299   -3.220396   -3.485039
     13          6           0       15.254272   -4.121444   -4.721392
     14          1           0       14.169642   -5.060072   -4.966145
     15          7           0       16.009130    2.041430   -1.237074
     16          6           0       16.373544    1.924414   -2.536611
     17          6           0       16.223915    3.272836   -3.124872
     18          6           0       15.925087    4.222065   -2.016829
     19          6           0       16.087631    3.366010   -0.869603
     20          6           0       16.316331    3.544015   -4.595134
     21          6           0       15.562462    5.673323   -1.994787
     22          8           0       15.572300    6.360560   -0.916742
     23          6           0       15.277401    6.299097   -3.298700
     24          7           0       16.449495    1.813882    1.749514
     25          6           0       16.455403    3.146962    1.640662
     26          6           0       16.536745    3.804327    2.986468
     27          6           0       16.339753    2.639039    4.060270
     28          6           0       16.256348    1.435273    3.089569
     29          6           0       17.839741    4.558633    3.285190
     30          6           0       15.208127    2.826483    5.101763
     31          6           0       13.862698    2.770080    4.413478
     32          7           0       15.990213   -1.072616    1.496538
     33          6           0       16.135542   -1.015451    2.890197
     34          6           0       16.189081   -2.406439    3.376361
     35          6           0       16.087173   -3.181149    2.222548
     36          6           0       16.003367   -2.328124    1.085176
     37          6           0       16.374959   -2.810269    4.727954
     38          6           0       16.054376   -4.531160    1.683798
     39          8           0       15.996641   -5.659535    2.174643
     40          6           0       16.217270   -4.443552    0.102148
     41          6           0       15.160688   -5.320328   -0.512838
     42          8           0       13.951012   -5.030412   -0.412847
     43          8           0       15.744232   -6.222622   -1.316507
     44          6           0       14.749084   -7.105633   -1.981433
     45          1           0       17.340905    0.939340   -4.138165
     46          1           0       16.278418    4.818373    0.632394
     47          1           0       16.246478   -0.018713    4.637487
     48          1           0       17.174368   -3.821868   -2.826687
     49          1           0       17.006051   -1.595376   -4.547690
     50          1           0       19.138980   -2.585981   -2.694261
     51          1           0       19.138655   -0.817768   -2.976554
     52          1           0       19.312349   -1.872985   -4.350210
     53          1           0       14.806065   -2.306355   -3.942783
     54          1           0       14.478390   -3.643924   -2.769747
     55          1           0       16.218727   -4.624960   -4.793554
     56          1           0       15.212017   -3.488699   -5.607986
     57          1           0       16.708014    2.684152   -5.137135
     58          1           0       17.072546    4.317207   -4.729380
     59          1           0       15.366930    3.882290   -5.010515
     60          1           0       16.151054    6.201345   -3.943467
     61          1           0       14.950045    7.314820   -3.079621
     62          1           0       14.473072    5.747791   -3.786620
     63          1           0       15.744562    4.541616    3.110068
     64          1           0       17.234049    2.484016    4.664321
     65          1           0       17.689404    5.607318    3.542802
     66          1           0       18.493260    4.458513    2.419060
     67          1           0       18.452775    4.118497    4.071248
     68          1           0       15.285934    3.805090    5.574225
     69          1           0       15.221101    2.075035    5.891325
     70          1           0       13.733642    3.788025    4.047466
     71          1           0       13.080703    2.509887    5.127618
     72          1           0       13.887294    2.112068    3.544627
     73          1           0       15.669892   -3.622742    4.903271
     74          1           0       16.204219   -1.982308    5.415654
     75          1           0       17.418371   -3.124176    4.703239
     76          1           0       17.223530   -4.791533   -0.129093
     77          1           0       15.021039   -8.133561   -1.741352
     78          1           0       14.733972   -6.818677   -3.033019
     79          1           0       13.731736   -7.065287   -1.590647
     80         12           0      -15.778219    0.880581    0.207871
     81          6           0      -17.025834   -2.483725    0.144988
     82          6           0      -16.327105    0.988288   -3.156911
     83          6           0      -14.272062    3.672669    0.151835
     84          6           0      -14.292412    0.124784    3.268395
     85          7           0      -16.577567   -0.617417   -1.209627
     86          6           0      -17.076799   -1.840114   -1.109041
     87          6           0      -17.736637   -2.374347   -2.408576
     88          6           0      -16.950435   -1.461398   -3.470313
     89          6           0      -16.624124   -0.269171   -2.573225
     90          6           0      -15.643170   -2.076530   -3.941489
     91          6           0      -19.281433   -2.102510   -2.449930
     92          6           0      -20.039631   -2.864867   -3.538831
     93          1           0      -21.392851   -3.330727   -3.248581
     94          7           0      -15.797425    2.323015   -1.155064
     95          6           0      -16.063064    2.194725   -2.471976
     96          6           0      -15.928111    3.543783   -3.042924
     97          6           0      -15.400276    4.449533   -1.986635
     98          6           0      -15.110134    3.491498   -0.938737
     99          6           0      -16.360476    3.883171   -4.439812
    100          6           0      -15.179662    5.930987   -1.933654
    101          8           0      -14.488526    6.475934   -1.001886
    102          6           0      -15.717656    6.714445   -3.055375
    103          7           0      -14.298373    1.708719    1.410610
    104          6           0      -13.856855    2.961169    1.200011
    105          6           0      -12.999733    3.437705    2.348336
    106          6           0      -13.156338    2.329083    3.490272
    107          6           0      -14.045104    1.314533    2.737823
    108          6           0      -11.517420    3.637950    2.033639
    109          6           0      -13.617595    2.820490    4.889705
    110          6           0      -15.044875    3.313694    4.818915
    111          7           0      -15.811729   -0.784684    1.584028
    112          6           0      -15.095814   -0.904811    2.795266
    113          6           0      -15.352768   -2.261608    3.320151
    114          6           0      -16.188513   -2.849380    2.358622
    115          6           0      -16.418669   -1.931260    1.298629
    116          6           0      -14.800508   -2.811107    4.511443
    117          6           0      -16.919746   -4.041486    1.994077
    118          8           0      -17.165764   -5.112770    2.546867
    119          6           0      -17.391905   -3.902356    0.482761
    120          6           0      -18.844431   -4.286791    0.412650
    121          8           0      -19.708646   -3.598643    0.983785
    122          8           0      -18.996360   -5.272004   -0.491025
    123          6           0      -20.421999   -5.680072   -0.604430
    124          1           0      -16.246728    1.050348   -4.242535
    125          1           0      -13.815124    4.661397    0.236215
    126          1           0      -13.944791   -0.153343    4.265633
    127          1           0      -17.554487   -3.422646   -2.612709
    128          1           0      -17.599789   -1.157461   -4.287211
    129          1           0      -15.400026   -2.974777   -3.393596
    130          1           0      -14.887034   -1.319184   -3.781112
    131          1           0      -15.674503   -2.247194   -5.021410
    132          1           0      -19.454819   -1.072255   -2.786464
    133          1           0      -19.728307   -2.297449   -1.494458
    134          1           0      -19.438490   -3.674798   -3.969628
    135          1           0      -20.216757   -2.187265   -4.377570
    136          1           0      -16.554656    2.980007   -5.031408
    137          1           0      -15.503478    4.352901   -4.934564
    138          1           0      -17.204900    4.575310   -4.462925
    139          1           0      -15.281270    6.359425   -3.985953
    140          1           0      -15.539242    7.759342   -2.794153
    141          1           0      -16.795989    6.532427   -3.123848
    142          1           0      -13.356139    4.387034    2.728953
    143          1           0      -12.203664    1.819626    3.696941
    144          1           0      -11.159776    4.662313    2.250079
    145          1           0      -11.352682    3.389480    0.993618
    146          1           0      -10.840553    2.955118    2.544318
    147          1           0      -13.011052    3.670630    5.211456
    148          1           0      -13.542188    2.060951    5.660678
    149          1           0      -14.933745    4.339435    4.454771
    150          1           0      -15.506830    3.292406    5.803904
    151          1           0      -15.616756    2.757214    4.067299
    152          1           0      -15.604516   -3.328942    5.017327
    153          1           0      -14.365923   -2.037968    5.141651
    154          1           0      -14.039020   -3.470918    4.087123
    155          1           0      -16.764500   -4.561488   -0.118470
    156          1           0      -20.461453   -6.758020   -0.419617
    157          1           0      -20.755700   -5.326845   -1.598224
    158          1           0      -21.110180   -5.311313    0.147151
 ---------------------------------------------------------------------
 Rotational constants (GHZ):           0.0218120           0.0016065           0.0015745
 Leave Link  202 at Sun Sep 12 18:25:40 2021, MaxMem= 23488102400 cpu:               0.1 elap:               0.0
 (Enter /sw/apps/gaussian-16.0/g16/l301.exe)
 Standard basis: def2SVP (5D, 7F)
 Ernie: Thresh=  0.10000D-02 Tol=  0.10000D-05 Strict=F.
 There are  1658 symmetry adapted cartesian basis functions of A   symmetry.
 There are  1572 symmetry adapted basis functions of A   symmetry.
  1572 basis functions,  2678 primitive gaussians,  1658 cartesian basis functions
   312 alpha electrons      312 beta electrons
       nuclear repulsion energy     12295.8400143358 Hartrees.
 IExCor=20419 DFT=T Ex+Corr=CAM-B3LYP ExCW=0 ScaHFX=  1.000000
 ScaDFX=  1.000000  1.000000  1.000000  0.810000 ScalE2=  1.000000  1.000000
 IRadAn=      5 IRanWt=     -1 IRanGd=            0 ICorTp=0 IEmpDi=  4
 HFx  wShort=  0.000000 wLong=  0.330000 cFull=  0.190000 cShort=  0.000000 cLong=  0.460000
 DFx  wShort=  0.000000 wLong=  0.330000 cFull=  0.190000 cShort=  0.000000 cLong=  0.460000
 NAtoms=  158 NActive=  158 NUniq=  158 SFac= 1.00D+00 NAtFMM=   60 NAOKFM=T Big=T
 Integral buffers will be    131072 words long.
 Raffenetti 1 integral format.
 Two-electron integral symmetry is turned on.
 Leave Link  301 at Sun Sep 12 18:25:40 2021, MaxMem= 23488102400 cpu:               1.3 elap:               0.1
 (Enter /sw/apps/gaussian-16.0/g16/l302.exe)
 NPDir=0 NMtPBC=     1 NCelOv=     1 NCel=       1 NClECP=     1 NCelD=      1
         NCelK=      1 NCelE2=     1 NClLst=     1 CellRange=     0.0.
 One-electron integrals computed using PRISM.
 One-electron integral symmetry used in STVInt
   1 Symmetry operations used in ECPInt.
 ECPInt:  NShTT=  271216 NPrTT=  987664 LenC2=  103957 LenP2D=  239866.
 LDataN:  DoStor=T MaxTD1= 4 Len=   56
 NBasis=  1572 RedAO= T EigKep=  3.36D-04  NBF=  1572
 NBsUse=  1572 1.00D-06 EigRej= -1.00D+00 NBFU=  1572
 Precomputing XC quadrature grid using
 IXCGrd= 4 IRadAn=           5 IRanWt=          -1 IRanGd=           0 AccXCQ= 0.00D+00.
 Generated NRdTot=       0 NPtTot=           0 NUsed=           0 NTot=          32
 NSgBfM=   812   812   812   812   812 MxSgAt=   158 MxSgA2=    79.
 Leave Link  302 at Sun Sep 12 18:25:44 2021, MaxMem= 23488102400 cpu:             101.2 elap:               4.2
 (Enter /sw/apps/gaussian-16.0/g16/l303.exe)
 DipDrv:  MaxL=1.
 Leave Link  303 at Sun Sep 12 18:25:45 2021, MaxMem= 23488102400 cpu:               7.7 elap:               0.4
 (Enter /sw/apps/gaussian-16.0/g16/l308.exe)
 Leave Link  308 at Sun Sep 12 18:25:45 2021, MaxMem= 23488102400 cpu:              16.1 elap:               0.7
 (Enter /sw/apps/gaussian-16.0/g16/l401.exe)
 ExpMin= 3.36D-02 ExpMax= 4.95D+03 ExpMxC= 7.45D+02 IAcc=3 IRadAn=         5 AccDes= 0.00D+00
 Harris functional with IExCor=20419 and IRadAn=       5 diagonalized for initial guess.
 HarFok:  IExCor=20419 AccDes= 0.00D+00 IRadAn=         5 IDoV= 1 UseB2=F ITyADJ=14
 ICtDFT=  3500011 ScaDFX=  1.000000  1.000000  1.000000  1.000000
 FoFCou: FMM=F IPFlag=           0 FMFlag=      100000 FMFlg1=        2001
         NFxFlg=           0 DoJE=T BraDBF=F KetDBF=T FulRan=T
         wScrn=  0.000000 ICntrl=       500 IOpCl=  0 I1Cent=   200000004 NGrid=           0
         NMat0=    1 NMatS0=      1 NMatT0=    0 NMatD0=    1 NMtDS0=    0 NMtDT0=    0
 Petite list used in FoFCou.
 Harris En= -3918.65801167277    
 JPrj=0 DoOrth=F DoCkMO=F.
 Leave Link  401 at Sun Sep 12 18:25:52 2021, MaxMem= 23488102400 cpu:             160.5 elap:               6.7
 (Enter /sw/apps/gaussian-16.0/g16/l502.exe)
 Integral symmetry usage will be decided dynamically.
 Closed shell SCF:
 Using DIIS extrapolation, IDIIS=  1040.
 NGot= 23488102400 LenX= 23482547354 LenY= 23479796732
 Requested convergence on RMS density matrix=1.00D-08 within 128 cycles.
 Requested convergence on MAX density matrix=1.00D-06.
 Requested convergence on             energy=1.00D-06.
 No special actions if energy rises.
 Fock matrices will be formed incrementally for  20 cycles.

 Cycle   1  Pass 1  IDiag  1:
 FoFJK:  IHMeth= 1 ICntrl=       0 DoSepK=T KAlg= 0 I1Cent=           0 FoldK=F
 IRaf=         1 NMat=       1 IRICut=       1 DoRegI=T DoRafI=F ISym2E= 0 IDoP0=0 IntGTp=1.
 FoFCou: FMM=T IPFlag=           0 FMFlag=      100000 FMFlg1=        2001
         NFxFlg=           0 DoJE=T BraDBF=F KetDBF=F FulRan=T
         wScrn=  0.000000 ICntrl=       500 IOpCl=  0 I1Cent=           0 NGrid=           0
         NMat0=    1 NMatS0=      1 NMatT0=    0 NMatD0=    1 NMtDS0=    0 NMtDT0=    0
 Symmetry not used in FoFCou.
 FMM levels:  10  Number of levels for PrismC:   9
 E= -4068.94925465039    
 DIIS: error= 2.04D-02 at cycle   1 NSaved=   1.
 NSaved= 1 IEnMin= 1 EnMin= -4068.94925465039     IErMin= 1 ErrMin= 2.04D-02
 ErrMax= 2.04D-02  0.00D+00 EMaxC= 1.00D-01 BMatC= 1.69D+00 BMatP= 1.69D+00
 IDIUse=3 WtCom= 7.96D-01 WtEn= 2.04D-01
 Coeff-Com:  0.100D+01
 Coeff-En:   0.100D+01
 Coeff:      0.100D+01
 Gap=     0.120 Goal=   None    Shift=    0.000
 GapD=    0.120 DampG=1.000 DampE=0.500 DampFc=0.5000 IDamp=-1.
 Damping current iteration by 5.00D-01
 RMSDP=1.57D-03 MaxDP=1.35D-01              OVMax= 2.03D-01

 Cycle   2  Pass 1  IDiag  1:
 RMSU=  7.69D-04    CP:  9.82D-01
 E= -4069.33815960690     Delta-E=       -0.388904956513 Rises=F Damp=T
 DIIS: error= 1.27D-02 at cycle   2 NSaved=   2.
 NSaved= 2 IEnMin= 2 EnMin= -4069.33815960690     IErMin= 2 ErrMin= 1.27D-02
 ErrMax= 1.27D-02  0.00D+00 EMaxC= 1.00D-01 BMatC= 3.07D-01 BMatP= 1.69D+00
 IDIUse=3 WtCom= 8.73D-01 WtEn= 1.27D-01
 Coeff-Com: -0.213D+00 0.121D+01
 Coeff-En:   0.000D+00 0.100D+01
 Coeff:     -0.186D+00 0.119D+01
 Gap=     0.138 Goal=   None    Shift=    0.000
 RMSDP=7.65D-04 MaxDP=9.43D-02 DE=-3.89D-01 OVMax= 1.88D-01

 Cycle   3  Pass 1  IDiag  1:
 RMSU=  7.32D-04    CP:  9.68D-01  1.24D+00
 E= -4069.62787068087     Delta-E=       -0.289711073972 Rises=F Damp=F
 DIIS: error= 1.58D-02 at cycle   3 NSaved=   3.
 NSaved= 3 IEnMin= 3 EnMin= -4069.62787068087     IErMin= 2 ErrMin= 1.27D-02
 ErrMax= 1.58D-02  0.00D+00 EMaxC= 1.00D-01 BMatC= 2.02D-01 BMatP= 3.07D-01
 IDIUse=3 WtCom= 8.42D-01 WtEn= 1.58D-01
 Coeff-Com: -0.267D+00 0.652D+00 0.616D+00
 Coeff-En:   0.000D+00 0.000D+00 0.100D+01
 Coeff:     -0.225D+00 0.549D+00 0.676D+00
 Gap=     0.125 Goal=   None    Shift=    0.000
 RMSDP=5.08D-04 MaxDP=4.77D-02 DE=-2.90D-01 OVMax= 1.43D-01

 Cycle   4  Pass 1  IDiag  1:
 RMSU=  2.65D-04    CP:  9.65D-01  1.55D+00  5.06D-01
 E= -4069.76501383177     Delta-E=       -0.137143150901 Rises=F Damp=F
 DIIS: error= 7.32D-03 at cycle   4 NSaved=   4.
 NSaved= 4 IEnMin= 4 EnMin= -4069.76501383177     IErMin= 4 ErrMin= 7.32D-03
 ErrMax= 7.32D-03  0.00D+00 EMaxC= 1.00D-01 BMatC= 5.04D-02 BMatP= 2.02D-01
 IDIUse=3 WtCom= 9.27D-01 WtEn= 7.32D-02
 Coeff-Com: -0.109D+00 0.226D+00 0.409D+00 0.474D+00
 Coeff-En:   0.000D+00 0.000D+00 0.221D+00 0.779D+00
 Coeff:     -0.101D+00 0.209D+00 0.395D+00 0.497D+00
 Gap=     0.123 Goal=   None    Shift=    0.000
 RMSDP=2.00D-04 MaxDP=1.95D-02 DE=-1.37D-01 OVMax= 6.18D-02

 Cycle   5  Pass 1  IDiag  1:
 RMSU=  7.59D-05    CP:  9.64D-01  1.49D+00  6.89D-01  5.49D-01
 E= -4069.81052887412     Delta-E=       -0.045515042344 Rises=F Damp=F
 DIIS: error= 7.86D-04 at cycle   5 NSaved=   5.
 NSaved= 5 IEnMin= 5 EnMin= -4069.81052887412     IErMin= 5 ErrMin= 7.86D-04
 ErrMax= 7.86D-04  0.00D+00 EMaxC= 1.00D-01 BMatC= 1.17D-03 BMatP= 5.04D-02
 IDIUse=3 WtCom= 9.92D-01 WtEn= 7.86D-03
 Coeff-Com: -0.358D-01 0.702D-01 0.165D+00 0.249D+00 0.551D+00
 Coeff-En:   0.000D+00 0.000D+00 0.000D+00 0.000D+00 0.100D+01
 Coeff:     -0.355D-01 0.697D-01 0.164D+00 0.247D+00 0.555D+00
 Gap=     0.123 Goal=   None    Shift=    0.000
 RMSDP=4.08D-05 MaxDP=4.16D-03 DE=-4.55D-02 OVMax= 1.64D-02

 Cycle   6  Pass 1  IDiag  1:
 RMSU=  3.02D-05    CP:  9.64D-01  1.49D+00  6.81D-01  6.21D-01  7.58D-01
 E= -4069.81153922897     Delta-E=       -0.001010354854 Rises=F Damp=F
 DIIS: error= 2.18D-04 at cycle   6 NSaved=   6.
 NSaved= 6 IEnMin= 6 EnMin= -4069.81153922897     IErMin= 6 ErrMin= 2.18D-04
 ErrMax= 2.18D-04  0.00D+00 EMaxC= 1.00D-01 BMatC= 1.76D-04 BMatP= 1.17D-03
 IDIUse=3 WtCom= 9.98D-01 WtEn= 2.18D-03
 Coeff-Com:  0.231D-02-0.677D-02 0.109D-01 0.398D-01 0.306D+00 0.648D+00
 Coeff-En:   0.000D+00 0.000D+00 0.000D+00 0.000D+00 0.103D+00 0.897D+00
 Coeff:      0.230D-02-0.675D-02 0.109D-01 0.397D-01 0.306D+00 0.648D+00
 Gap=     0.123 Goal=   None    Shift=    0.000
 RMSDP=1.58D-05 MaxDP=1.23D-03 DE=-1.01D-03 OVMax= 7.25D-03

 Cycle   7  Pass 1  IDiag  1:
 RMSU=  1.07D-05    CP:  9.64D-01  1.50D+00  6.87D-01  6.21D-01  8.59D-01
                    CP:  7.49D-01
 E= -4069.81172837492     Delta-E=       -0.000189145943 Rises=F Damp=F
 DIIS: error= 8.34D-05 at cycle   7 NSaved=   7.
 NSaved= 7 IEnMin= 7 EnMin= -4069.81172837492     IErMin= 7 ErrMin= 8.34D-05
 ErrMax= 8.34D-05  0.00D+00 EMaxC= 1.00D-01 BMatC= 2.08D-05 BMatP= 1.76D-04
 IDIUse=1 WtCom= 1.00D+00 WtEn= 0.00D+00
 Coeff-Com:  0.446D-02-0.975D-02-0.898D-02-0.381D-02 0.102D+00 0.329D+00
 Coeff-Com:  0.587D+00
 Coeff:      0.446D-02-0.975D-02-0.898D-02-0.381D-02 0.102D+00 0.329D+00
 Coeff:      0.587D+00
 Gap=     0.123 Goal=   None    Shift=    0.000
 RMSDP=6.50D-06 MaxDP=1.11D-03 DE=-1.89D-04 OVMax= 3.40D-03

 Cycle   8  Pass 1  IDiag  1:
 RMSU=  4.67D-06    CP:  9.64D-01  1.50D+00  6.88D-01  6.26D-01  8.63D-01
                    CP:  8.75D-01  8.23D-01
 E= -4069.81175416624     Delta-E=       -0.000025791323 Rises=F Damp=F
 DIIS: error= 5.01D-05 at cycle   8 NSaved=   8.
 NSaved= 8 IEnMin= 8 EnMin= -4069.81175416624     IErMin= 8 ErrMin= 5.01D-05
 ErrMax= 5.01D-05  0.00D+00 EMaxC= 1.00D-01 BMatC= 4.82D-06 BMatP= 2.08D-05
 IDIUse=1 WtCom= 1.00D+00 WtEn= 0.00D+00
 Coeff-Com:  0.215D-02-0.426D-02-0.775D-02-0.121D-01-0.116D-01 0.335D-01
 Coeff-Com:  0.344D+00 0.656D+00
 Coeff:      0.215D-02-0.426D-02-0.775D-02-0.121D-01-0.116D-01 0.335D-01
 Coeff:      0.344D+00 0.656D+00
 Gap=     0.123 Goal=   None    Shift=    0.000
 RMSDP=3.27D-06 MaxDP=3.54D-04 DE=-2.58D-05 OVMax= 1.11D-03

 Cycle   9  Pass 1  IDiag  1:
 RMSU=  1.91D-06    CP:  9.64D-01  1.50D+00  6.88D-01  6.27D-01  8.80D-01
                    CP:  9.01D-01  1.02D+00  9.40D-01
 E= -4069.81176186471     Delta-E=       -0.000007698474 Rises=F Damp=F
 DIIS: error= 1.94D-05 at cycle   9 NSaved=   9.
 NSaved= 9 IEnMin= 9 EnMin= -4069.81176186471     IErMin= 9 ErrMin= 1.94D-05
 ErrMax= 1.94D-05  0.00D+00 EMaxC= 1.00D-01 BMatC= 6.88D-07 BMatP= 4.82D-06
 IDIUse=1 WtCom= 1.00D+00 WtEn= 0.00D+00
 Coeff-Com:  0.462D-03-0.767D-03-0.266D-02-0.598D-02-0.212D-01-0.386D-01
 Coeff-Com:  0.104D+00 0.326D+00 0.639D+00
 Coeff:      0.462D-03-0.767D-03-0.266D-02-0.598D-02-0.212D-01-0.386D-01
 Coeff:      0.104D+00 0.326D+00 0.639D+00
 Gap=     0.123 Goal=   None    Shift=    0.000
 RMSDP=1.41D-06 MaxDP=1.50D-04 DE=-7.70D-06 OVMax= 7.43D-04

 Cycle  10  Pass 1  IDiag  1:
 RMSU=  9.37D-07    CP:  9.64D-01  1.50D+00  6.88D-01  6.28D-01  8.84D-01
                    CP:  9.15D-01  1.07D+00  1.11D+00  1.05D+00
 E= -4069.81176344917     Delta-E=       -0.000001584456 Rises=F Damp=F
 DIIS: error= 1.02D-05 at cycle  10 NSaved=  10.
 NSaved=10 IEnMin=10 EnMin= -4069.81176344917     IErMin=10 ErrMin= 1.02D-05
 ErrMax= 1.02D-05  0.00D+00 EMaxC= 1.00D-01 BMatC= 1.71D-07 BMatP= 6.88D-07
 IDIUse=1 WtCom= 1.00D+00 WtEn= 0.00D+00
 Coeff-Com: -0.426D-03 0.893D-03 0.123D-02 0.112D-02-0.376D-02-0.310D-01
 Coeff-Com: -0.464D-01-0.763D-01 0.255D+00 0.900D+00
 Coeff:     -0.426D-03 0.893D-03 0.123D-02 0.112D-02-0.376D-02-0.310D-01
 Coeff:     -0.464D-01-0.763D-01 0.255D+00 0.900D+00
 Gap=     0.123 Goal=   None    Shift=    0.000
 RMSDP=1.22D-06 MaxDP=1.24D-04 DE=-1.58D-06 OVMax= 6.09D-04

 Cycle  11  Pass 1  IDiag  1:
 RMSU=  5.15D-07    CP:  9.64D-01  1.50D+00  6.88D-01  6.28D-01  8.86D-01
                    CP:  9.25D-01  1.11D+00  1.22D+00  1.39D+00  1.37D+00
 E= -4069.81176423589     Delta-E=       -0.000000786717 Rises=F Damp=F
 DIIS: error= 3.96D-06 at cycle  11 NSaved=  11.
 NSaved=11 IEnMin=11 EnMin= -4069.81176423589     IErMin=11 ErrMin= 3.96D-06
 ErrMax= 3.96D-06  0.00D+00 EMaxC= 1.00D-01 BMatC= 6.12D-08 BMatP= 1.71D-07
 IDIUse=1 WtCom= 1.00D+00 WtEn= 0.00D+00
 Coeff-Com: -0.327D-03 0.635D-03 0.133D-02 0.212D-02 0.441D-02-0.836D-02
 Coeff-Com: -0.435D-01-0.132D+00-0.235D-01 0.465D+00 0.734D+00
 Coeff:     -0.327D-03 0.635D-03 0.133D-02 0.212D-02 0.441D-02-0.836D-02
 Coeff:     -0.435D-01-0.132D+00-0.235D-01 0.465D+00 0.734D+00
 Gap=     0.123 Goal=   None    Shift=    0.000
 RMSDP=6.86D-07 MaxDP=5.85D-05 DE=-7.87D-07 OVMax= 3.73D-04

 Cycle  12  Pass 1  IDiag  1:
 RMSU=  2.63D-07    CP:  9.64D-01  1.50D+00  6.88D-01  6.28D-01  8.87D-01
                    CP:  9.27D-01  1.14D+00  1.28D+00  1.56D+00  1.76D+00
                    CP:  1.20D+00
 E= -4069.81176449842     Delta-E=       -0.000000262537 Rises=F Damp=F
 DIIS: error= 2.34D-06 at cycle  12 NSaved=  12.
 NSaved=12 IEnMin=12 EnMin= -4069.81176449842     IErMin=12 ErrMin= 2.34D-06
 ErrMax= 2.34D-06  0.00D+00 EMaxC= 1.00D-01 BMatC= 1.48D-08 BMatP= 6.12D-08
 IDIUse=1 WtCom= 1.00D+00 WtEn= 0.00D+00
 Coeff-Com: -0.145D-06-0.163D-04 0.180D-03 0.511D-03 0.330D-02 0.405D-02
 Coeff-Com:  0.278D-02-0.349D-01-0.680D-01-0.749D-01 0.251D+00 0.916D+00
 Coeff:     -0.145D-06-0.163D-04 0.180D-03 0.511D-03 0.330D-02 0.405D-02
 Coeff:      0.278D-02-0.349D-01-0.680D-01-0.749D-01 0.251D+00 0.916D+00
 Gap=     0.123 Goal=   None    Shift=    0.000
 RMSDP=4.37D-07 MaxDP=3.01D-05 DE=-2.63D-07 OVMax= 2.49D-04

 Cycle  13  Pass 1  IDiag  1:
 RMSU=  1.65D-07    CP:  9.64D-01  1.50D+00  6.88D-01  6.28D-01  8.87D-01
                    CP:  9.28D-01  1.14D+00  1.31D+00  1.67D+00  1.99D+00
                    CP:  1.61D+00  1.27D+00
 E= -4069.81176459013     Delta-E=       -0.000000091703 Rises=F Damp=F
 DIIS: error= 1.24D-06 at cycle  13 NSaved=  13.
 NSaved=13 IEnMin=13 EnMin= -4069.81176459013     IErMin=13 ErrMin= 1.24D-06
 ErrMax= 1.24D-06  0.00D+00 EMaxC= 1.00D-01 BMatC= 8.13D-09 BMatP= 1.48D-08
 IDIUse=1 WtCom= 1.00D+00 WtEn= 0.00D+00
 Coeff-Com:  0.120D-03-0.245D-03-0.369D-03-0.456D-03 0.574D-03 0.508D-02
 Coeff-Com:  0.197D-01 0.228D-01-0.339D-01-0.241D+00-0.156D+00 0.598D+00
 Coeff-Com:  0.786D+00
 Coeff:      0.120D-03-0.245D-03-0.369D-03-0.456D-03 0.574D-03 0.508D-02
 Coeff:      0.197D-01 0.228D-01-0.339D-01-0.241D+00-0.156D+00 0.598D+00
 Coeff:      0.786D+00
 Gap=     0.123 Goal=   None    Shift=    0.000
 RMSDP=3.40D-07 MaxDP=2.21D-05 DE=-9.17D-08 OVMax= 1.97D-04

 Cycle  14  Pass 1  IDiag  1:
 RMSU=  7.61D-08    CP:  9.64D-01  1.50D+00  6.88D-01  6.28D-01  8.87D-01
                    CP:  9.28D-01  1.15D+00  1.33D+00  1.74D+00  2.18D+00
                    CP:  1.87D+00  1.79D+00  1.09D+00
 E= -4069.81176462621     Delta-E=       -0.000000036087 Rises=F Damp=F
 DIIS: error= 6.38D-07 at cycle  14 NSaved=  14.
 NSaved=14 IEnMin=14 EnMin= -4069.81176462621     IErMin=14 ErrMin= 6.38D-07
 ErrMax= 6.38D-07  0.00D+00 EMaxC= 1.00D-01 BMatC= 1.25D-09 BMatP= 8.13D-09
 IDIUse=1 WtCom= 1.00D+00 WtEn= 0.00D+00
 Coeff-Com:  0.663D-04-0.131D-03-0.246D-03-0.386D-03-0.482D-03 0.129D-02
 Coeff-Com:  0.107D-01 0.192D-01 0.369D-02-0.997D-01-0.142D+00 0.932D-01
 Coeff-Com:  0.405D+00 0.710D+00
 Coeff:      0.663D-04-0.131D-03-0.246D-03-0.386D-03-0.482D-03 0.129D-02
 Coeff:      0.107D-01 0.192D-01 0.369D-02-0.997D-01-0.142D+00 0.932D-01
 Coeff:      0.405D+00 0.710D+00
 Gap=     0.123 Goal=   None    Shift=    0.000
 RMSDP=1.01D-07 MaxDP=7.01D-06 DE=-3.61D-08 OVMax= 5.44D-05

 Cycle  15  Pass 1  IDiag  1:
 RMSU=  3.82D-08    CP:  9.64D-01  1.50D+00  6.88D-01  6.28D-01  8.87D-01
                    CP:  9.28D-01  1.15D+00  1.34D+00  1.76D+00  2.22D+00
                    CP:  1.98D+00  1.92D+00  1.33D+00  1.03D+00
 E= -4069.81176463021     Delta-E=       -0.000000003998 Rises=F Damp=F
 DIIS: error= 3.38D-07 at cycle  15 NSaved=  15.
 NSaved=15 IEnMin=15 EnMin= -4069.81176463021     IErMin=15 ErrMin= 3.38D-07
 ErrMax= 3.38D-07  0.00D+00 EMaxC= 1.00D-01 BMatC= 2.25D-10 BMatP= 1.25D-09
 IDIUse=1 WtCom= 1.00D+00 WtEn= 0.00D+00
 Coeff-Com:  0.519D-05-0.859D-05-0.320D-04-0.809D-04-0.299D-03-0.515D-03
 Coeff-Com:  0.112D-02 0.250D-02 0.875D-02 0.185D-02-0.305D-01-0.731D-01
 Coeff-Com:  0.288D-01 0.297D+00 0.765D+00
 Coeff:      0.519D-05-0.859D-05-0.320D-04-0.809D-04-0.299D-03-0.515D-03
 Coeff:      0.112D-02 0.250D-02 0.875D-02 0.185D-02-0.305D-01-0.731D-01
 Coeff:      0.288D-01 0.297D+00 0.765D+00
 Gap=     0.123 Goal=   None    Shift=    0.000
 RMSDP=4.05D-08 MaxDP=2.72D-06 DE=-4.00D-09 OVMax= 2.69D-05

 Cycle  16  Pass 1  IDiag  1:
 RMSU=  1.87D-08    CP:  9.64D-01  1.50D+00  6.88D-01  6.28D-01  8.87D-01
                    CP:  9.28D-01  1.15D+00  1.34D+00  1.76D+00  2.24D+00
                    CP:  2.00D+00  1.98D+00  1.40D+00  1.24D+00  1.15D+00
 E= -4069.81176463096     Delta-E=       -0.000000000748 Rises=F Damp=F
 DIIS: error= 1.64D-07 at cycle  16 NSaved=  16.
 NSaved=16 IEnMin=16 EnMin= -4069.81176463096     IErMin=16 ErrMin= 1.64D-07
 ErrMax= 1.64D-07  0.00D+00 EMaxC= 1.00D-01 BMatC= 8.16D-11 BMatP= 2.25D-10
 IDIUse=1 WtCom= 1.00D+00 WtEn= 0.00D+00
 Coeff-Com: -0.142D-04 0.287D-04 0.470D-04 0.537D-04-0.269D-04-0.633D-03
 Coeff-Com: -0.198D-02-0.426D-02 0.453D-02 0.255D-01 0.207D-01-0.646D-01
 Coeff-Com: -0.831D-01-0.377D-01 0.398D+00 0.743D+00
 Coeff:     -0.142D-04 0.287D-04 0.470D-04 0.537D-04-0.269D-04-0.633D-03
 Coeff:     -0.198D-02-0.426D-02 0.453D-02 0.255D-01 0.207D-01-0.646D-01
 Coeff:     -0.831D-01-0.377D-01 0.398D+00 0.743D+00
 Gap=     0.123 Goal=   None    Shift=    0.000
 RMSDP=2.29D-08 MaxDP=1.40D-06 DE=-7.48D-10 OVMax= 1.30D-05

 Cycle  17  Pass 1  IDiag  1:
 RMSU=  1.04D-08    CP:  9.64D-01  1.50D+00  6.88D-01  6.28D-01  8.87D-01
                    CP:  9.28D-01  1.15D+00  1.34D+00  1.77D+00  2.24D+00
                    CP:  2.02D+00  2.01D+00  1.45D+00  1.34D+00  1.44D+00
                    CP:  1.25D+00
 E= -4069.81176463125     Delta-E=       -0.000000000287 Rises=F Damp=F
 DIIS: error= 9.35D-08 at cycle  17 NSaved=  17.
 NSaved=17 IEnMin=17 EnMin= -4069.81176463125     IErMin=17 ErrMin= 9.35D-08
 ErrMax= 9.35D-08  0.00D+00 EMaxC= 1.00D-01 BMatC= 1.77D-11 BMatP= 8.16D-11
 IDIUse=1 WtCom= 1.00D+00 WtEn= 0.00D+00
 Coeff-Com: -0.717D-05 0.139D-04 0.285D-04 0.424D-04 0.838D-04-0.122D-03
 Coeff-Com: -0.957D-03-0.279D-02 0.133D-03 0.918D-02 0.174D-01-0.717D-02
 Coeff-Com: -0.366D-01-0.102D+00-0.315D-01 0.293D+00 0.861D+00
 Coeff:     -0.717D-05 0.139D-04 0.285D-04 0.424D-04 0.838D-04-0.122D-03
 Coeff:     -0.957D-03-0.279D-02 0.133D-03 0.918D-02 0.174D-01-0.717D-02
 Coeff:     -0.366D-01-0.102D+00-0.315D-01 0.293D+00 0.861D+00
 Gap=     0.123 Goal=   None    Shift=    0.000
 RMSDP=1.37D-08 MaxDP=8.93D-07 DE=-2.87D-10 OVMax= 8.93D-06

 Cycle  18  Pass 1  IDiag  1:
 RMSU=  4.86D-09    CP:  9.64D-01  1.50D+00  6.88D-01  6.28D-01  8.87D-01
                    CP:  9.28D-01  1.15D+00  1.34D+00  1.77D+00  2.24D+00
                    CP:  2.02D+00  2.02D+00  1.47D+00  1.41D+00  1.61D+00
                    CP:  1.66D+00  1.39D+00
 E= -4069.81176463115     Delta-E=        0.000000000095 Rises=F Damp=F
 DIIS: error= 5.14D-08 at cycle  18 NSaved=  18.
 NSaved=18 IEnMin=17 EnMin= -4069.81176463125     IErMin=18 ErrMin= 5.14D-08
 ErrMax= 5.14D-08  0.00D+00 EMaxC= 1.00D-01 BMatC= 6.91D-12 BMatP= 1.77D-11
 IDIUse=1 WtCom= 1.00D+00 WtEn= 0.00D+00
 Coeff-Com:  0.207D-05-0.445D-05-0.464D-05-0.181D-05 0.591D-04 0.184D-03
 Coeff-Com:  0.406D-03 0.233D-03-0.129D-02-0.622D-02-0.166D-03 0.202D-01
 Coeff-Com:  0.186D-01-0.324D-01-0.163D+00-0.193D+00 0.349D+00 0.101D+01
 Coeff:      0.207D-05-0.445D-05-0.464D-05-0.181D-05 0.591D-04 0.184D-03
 Coeff:      0.406D-03 0.233D-03-0.129D-02-0.622D-02-0.166D-03 0.202D-01
 Coeff:      0.186D-01-0.324D-01-0.163D+00-0.193D+00 0.349D+00 0.101D+01
 Gap=     0.123 Goal=   None    Shift=    0.000
 RMSDP=1.18D-08 MaxDP=7.24D-07 DE= 9.46D-11 OVMax= 6.81D-06

 Cycle  19  Pass 1  IDiag  1:
 RMSU=  2.79D-09    CP:  9.64D-01  1.50D+00  6.88D-01  6.28D-01  8.87D-01
                    CP:  9.28D-01  1.15D+00  1.34D+00  1.77D+00  2.24D+00
                    CP:  2.03D+00  2.02D+00  1.48D+00  1.46D+00  1.77D+00
                    CP:  1.99D+00  1.94D+00  1.38D+00
 E= -4069.81176463142     Delta-E=       -0.000000000273 Rises=F Damp=F
 DIIS: error= 3.33D-08 at cycle  19 NSaved=  19.
 NSaved=19 IEnMin=19 EnMin= -4069.81176463142     IErMin=19 ErrMin= 3.33D-08
 ErrMax= 3.33D-08  0.00D+00 EMaxC= 1.00D-01 BMatC= 1.40D-12 BMatP= 6.91D-12
 IDIUse=1 WtCom= 1.00D+00 WtEn= 0.00D+00
 Coeff-Com:  0.286D-05-0.576D-05-0.979D-05-0.123D-04 0.107D-04 0.118D-03
 Coeff-Com:  0.471D-03 0.788D-03-0.586D-03-0.589D-02-0.478D-02 0.119D-01
 Coeff-Com:  0.199D-01 0.115D-01-0.677D-01-0.176D+00-0.335D-01 0.487D+00
 Coeff-Com:  0.757D+00
 Coeff:      0.286D-05-0.576D-05-0.979D-05-0.123D-04 0.107D-04 0.118D-03
 Coeff:      0.471D-03 0.788D-03-0.586D-03-0.589D-02-0.478D-02 0.119D-01
 Coeff:      0.199D-01 0.115D-01-0.677D-01-0.176D+00-0.335D-01 0.487D+00
 Coeff:      0.757D+00
 Gap=     0.123 Goal=   None    Shift=    0.000
 RMSDP=4.49D-09 MaxDP=2.93D-07 DE=-2.73D-10 OVMax= 2.94D-06

 SCF Done:  E(RCAM-B3LYP) =  -4069.81176463     A.U. after   19 cycles
            NFock= 19  Conv=0.45D-08     -V/T= 2.0102
 KE= 4.028802072269D+03 PE=-3.407253703055D+04 EE= 1.367808317932D+04
 Leave Link  502 at Sun Sep 12 18:34:15 2021, MaxMem= 23488102400 cpu:           11477.3 elap:             503.1
 (Enter /sw/apps/gaussian-16.0/g16/l801.exe)
 DoSCS=F DFT=T ScalE2(SS,OS)=  1.000000  1.000000
 ExpMin= 3.36D-02 ExpMax= 4.95D+03 ExpMxC= 7.45D+02 IAcc=3 IRadAn=         5 AccDes= 0.00D+00
 HarFok:  IExCor=  205 AccDes= 0.00D+00 IRadAn=         5 IDoV=-2 UseB2=F ITyADJ=14
 ICtDFT= 12500011 ScaDFX=  1.000000  1.000000  1.000000  1.000000
 GSVD:  LWork=       -9588 too small for GESVD, short by       45590 words or       45590 for optimal perf.
 Largest valence mixing into a core orbital is  2.03D-04
 Largest core mixing into a valence orbital is  5.24D-05
 Range of M.O.s used for correlation:    95  1572
 NBasis=  1572 NAE=   312 NBE=   312 NFC=    94 NFV=     0
 NROrb=   1478 NOA=   218 NOB=   218 NVA=  1260 NVB=  1260
 Leave Link  801 at Sun Sep 12 18:34:16 2021, MaxMem= 23488102400 cpu:               8.8 elap:               0.4
 (Enter /sw/apps/gaussian-16.0/g16/l914.exe)
 RHF ground state
 Two-electron integrals replicated using symmetry.
 MDV= 23488102400 DFT=T DoStab=F Mixed=T DoRPA=T DoScal=F NonHer=T
 Making orbital integer symmetry assigments:
 Orbital symmetries:
       Occupied  (A) (A) (A) (A) (A) (A) (A) (A) (A) (A) (A) (A)
                 (A) (A) (A) (A) (A) (A) (A) (A) (A) (A) (A) (A)
                 (A) (A) (A) (A) (A) (A) (A) (A) (A) (A) (A) (A)
                 (A) (A) (A) (A) (A) (A) (A) (A) (A) (A) (A) (A)
                 (A) (A) (A) (A) (A) (A) (A) (A) (A) (A) (A) (A)
                 (A) (A) (A) (A) (A) (A) (A) (A) (A) (A) (A) (A)
                 (A) (A) (A) (A) (A) (A) (A) (A) (A) (A) (A) (A)
                 (A) (A) (A) (A) (A) (A) (A) (A) (A) (A) (A) (A)
                 (A) (A) (A) (A) (A) (A) (A) (A) (A) (A) (A) (A)
                 (A) (A) (A) (A) (A) (A) (A) (A) (A) (A) (A) (A)
                 (A) (A) (A) (A) (A) (A) (A) (A) (A) (A) (A) (A)
                 (A) (A) (A) (A) (A) (A) (A) (A) (A) (A) (A) (A)
                 (A) (A) (A) (A) (A) (A) (A) (A) (A) (A) (A) (A)
                 (A) (A) (A) (A) (A) (A) (A) (A) (A) (A) (A) (A)
                 (A) (A) (A) (A) (A) (A) (A) (A) (A) (A) (A) (A)
                 (A) (A) (A) (A) (A) (A) (A) (A) (A) (A) (A) (A)
                 (A) (A) (A) (A) (A) (A) (A) (A) (A) (A) (A) (A)
                 (A) (A) (A) (A) (A) (A) (A) (A) (A) (A) (A) (A)
                 (A) (A) (A) (A) (A) (A) (A) (A) (A) (A) (A) (A)
                 (A) (A) (A) (A) (A) (A) (A) (A) (A) (A) (A) (A)
                 (A) (A) (A) (A) (A) (A) (A) (A) (A) (A) (A) (A)
                 (A) (A) (A) (A) (A) (A) (A) (A) (A) (A) (A) (A)
                 (A) (A) (A) (A) (A) (A) (A) (A) (A) (A) (A) (A)
                 (A) (A) (A) (A) (A) (A) (A) (A) (A) (A) (A) (A)
                 (A) (A) (A) (A) (A) (A) (A) (A) (A) (A) (A) (A)
                 (A) (A) (A) (A) (A) (A) (A) (A) (A) (A) (A) (A)
       Virtual   (A) (A) (A) (A) (A) (A) (A) (A) (A) (A) (A) (A)
                 (A) (A) (A) (A) (A) (A) (A) (A) (A) (A) (A) (A)
                 (A) (A) (A) (A) (A) (A) (A) (A) (A) (A) (A) (A)
                 (A) (A) (A) (A) (A) (A) (A) (A) (A) (A) (A) (A)
                 (A) (A) (A) (A) (A) (A) (A) (A) (A) (A) (A) (A)
                 (A) (A) (A) (A) (A) (A) (A) (A) (A) (A) (A) (A)
                 (A) (A) (A) (A) (A) (A) (A) (A) (A) (A) (A) (A)
                 (A) (A) (A) (A) (A) (A) (A) (A) (A) (A) (A) (A)
                 (A) (A) (A) (A) (A) (A) (A) (A) (A) (A) (A) (A)
                 (A) (A) (A) (A) (A) (A) (A) (A) (A) (A) (A) (A)
                 (A) (A) (A) (A) (A) (A) (A) (A) (A) (A) (A) (A)
                 (A) (A) (A) (A) (A) (A) (A) (A) (A) (A) (A) (A)
                 (A) (A) (A) (A) (A) (A) (A) (A) (A) (A) (A) (A)
                 (A) (A) (A) (A) (A) (A) (A) (A) (A) (A) (A) (A)
                 (A) (A) (A) (A) (A) (A) (A) (A) (A) (A) (A) (A)
                 (A) (A) (A) (A) (A) (A) (A) (A) (A) (A) (A) (A)
                 (A) (A) (A) (A) (A) (A) (A) (A) (A) (A) (A) (A)
                 (A) (A) (A) (A) (A) (A) (A) (A) (A) (A) (A) (A)
                 (A) (A) (A) (A) (A) (A) (A) (A) (A) (A) (A) (A)
                 (A) (A) (A) (A) (A) (A) (A) (A) (A) (A) (A) (A)
                 (A) (A) (A) (A) (A) (A) (A) (A) (A) (A) (A) (A)
                 (A) (A) (A) (A) (A) (A) (A) (A) (A) (A) (A) (A)
                 (A) (A) (A) (A) (A) (A) (A) (A) (A) (A) (A) (A)
                 (A) (A) (A) (A) (A) (A) (A) (A) (A) (A) (A) (A)
                 (A) (A) (A) (A) (A) (A) (A) (A) (A) (A) (A) (A)
                 (A) (A) (A) (A) (A) (A) (A) (A) (A) (A) (A) (A)
                 (A) (A) (A) (A) (A) (A) (A) (A) (A) (A) (A) (A)
                 (A) (A) (A) (A) (A) (A) (A) (A) (A) (A) (A) (A)
                 (A) (A) (A) (A) (A) (A) (A) (A) (A) (A) (A) (A)
                 (A) (A) (A) (A) (A) (A) (A) (A) (A) (A) (A) (A)
                 (A) (A) (A) (A) (A) (A) (A) (A) (A) (A) (A) (A)
                 (A) (A) (A) (A) (A) (A) (A) (A) (A) (A) (A) (A)
                 (A) (A) (A) (A) (A) (A) (A) (A) (A) (A) (A) (A)
                 (A) (A) (A) (A) (A) (A) (A) (A) (A) (A) (A) (A)
                 (A) (A) (A) (A) (A) (A) (A) (A) (A) (A) (A) (A)
                 (A) (A) (A) (A) (A) (A) (A) (A) (A) (A) (A) (A)
                 (A) (A) (A) (A) (A) (A) (A) (A) (A) (A) (A) (A)
                 (A) (A) (A) (A) (A) (A) (A) (A) (A) (A) (A) (A)
                 (A) (A) (A) (A) (A) (A) (A) (A) (A) (A) (A) (A)
                 (A) (A) (A) (A) (A) (A) (A) (A) (A) (A) (A) (A)
                 (A) (A) (A) (A) (A) (A) (A) (A) (A) (A) (A) (A)
                 (A) (A) (A) (A) (A) (A) (A) (A) (A) (A) (A) (A)
                 (A) (A) (A) (A) (A) (A) (A) (A) (A) (A) (A) (A)
                 (A) (A) (A) (A) (A) (A) (A) (A) (A) (A) (A) (A)
                 (A) (A) (A) (A) (A) (A) (A) (A) (A) (A) (A) (A)
                 (A) (A) (A) (A) (A) (A) (A) (A) (A) (A) (A) (A)
                 (A) (A) (A) (A) (A) (A) (A) (A) (A) (A) (A) (A)
                 (A) (A) (A) (A) (A) (A) (A) (A) (A) (A) (A) (A)
                 (A) (A) (A) (A) (A) (A) (A) (A) (A) (A) (A) (A)
                 (A) (A) (A) (A) (A) (A) (A) (A) (A) (A) (A) (A)
                 (A) (A) (A) (A) (A) (A) (A) (A) (A) (A) (A) (A)
                 (A) (A) (A) (A) (A) (A) (A) (A) (A) (A) (A) (A)
                 (A) (A) (A) (A) (A) (A) (A) (A) (A) (A) (A) (A)
                 (A) (A) (A) (A) (A) (A) (A) (A) (A) (A) (A) (A)
                 (A) (A) (A) (A) (A) (A) (A) (A) (A) (A) (A) (A)
                 (A) (A) (A) (A) (A) (A) (A) (A) (A) (A) (A) (A)
                 (A) (A) (A) (A) (A) (A) (A) (A) (A) (A) (A) (A)
                 (A) (A) (A) (A) (A) (A) (A) (A) (A) (A) (A) (A)
                 (A) (A) (A) (A) (A) (A) (A) (A) (A) (A) (A) (A)
                 (A) (A) (A) (A) (A) (A) (A) (A) (A) (A) (A) (A)
                 (A) (A) (A) (A) (A) (A) (A) (A) (A) (A) (A) (A)
                 (A) (A) (A) (A) (A) (A) (A) (A) (A) (A) (A) (A)
                 (A) (A) (A) (A) (A) (A) (A) (A) (A) (A) (A) (A)
                 (A) (A) (A) (A) (A) (A) (A) (A) (A) (A) (A) (A)
                 (A) (A) (A) (A) (A) (A) (A) (A) (A) (A) (A) (A)
                 (A) (A) (A) (A) (A) (A) (A) (A) (A) (A) (A) (A)
                 (A) (A) (A) (A) (A) (A) (A) (A) (A) (A) (A) (A)
                 (A) (A) (A) (A) (A) (A) (A) (A) (A) (A) (A) (A)
                 (A) (A) (A) (A) (A) (A) (A) (A) (A) (A) (A) (A)
                 (A) (A) (A) (A) (A) (A) (A) (A) (A) (A) (A) (A)
                 (A) (A) (A) (A) (A) (A) (A) (A) (A) (A) (A) (A)
                 (A) (A) (A) (A) (A) (A) (A) (A) (A) (A) (A) (A)
                 (A) (A) (A) (A) (A) (A) (A) (A) (A) (A) (A) (A)
                 (A) (A) (A) (A) (A) (A) (A) (A) (A) (A) (A) (A)
                 (A) (A) (A) (A) (A) (A) (A) (A) (A) (A) (A) (A)
                 (A) (A) (A) (A) (A) (A) (A) (A) (A) (A) (A) (A)
                 (A) (A) (A) (A) (A) (A) (A) (A) (A) (A) (A) (A)
                 (A) (A) (A) (A) (A) (A) (A) (A) (A) (A) (A) (A)
                 (A) (A) (A) (A) (A) (A) (A) (A) (A) (A) (A) (A)
                 (A) (A) (A) (A) (A) (A) (A) (A) (A) (A) (A) (A)
                 (A) (A) (A) (A) (A) (A) (A) (A) (A) (A) (A) (A)
                 (A) (A) (A) (A) (A) (A) (A) (A) (A) (A) (A) (A)
                 (A) (A) (A) (A) (A) (A) (A) (A) (A) (A) (A) (A)
                 (A) (A) (A) (A) (A) (A) (A) (A) (A) (A) (A) (A)
                 (A) (A) (A) (A) (A) (A) (A) (A) (A) (A) (A) (A)
                 (A) (A) (A) (A) (A) (A) (A) (A) (A) (A) (A) (A)
                 (A) (A) (A) (A) (A) (A) (A) (A) (A) (A) (A) (A)
                 (A) (A) (A) (A) (A) (A) (A) (A) (A) (A) (A) (A)
                 (A) (A) (A) (A) (A) (A) (A) (A) (A) (A) (A) (A)
                 (A) (A) (A) (A) (A) (A) (A) (A) (A) (A) (A) (A)
                 (A) (A) (A) (A) (A) (A) (A) (A) (A) (A) (A) (A)
                 (A) (A) (A) (A) (A) (A) (A) (A) (A) (A) (A) (A)
                 (A) (A) (A) (A) (A) (A) (A) (A) (A) (A) (A) (A)
                 (A) (A) (A) (A) (A) (A) (A) (A) (A) (A) (A) (A)
                 (A) (A) (A) (A) (A) (A) (A) (A) (A) (A) (A) (A)
                 (A) (A) (A) (A) (A) (A) (A) (A) (A) (A) (A) (A)
                 (A) (A) (A) (A) (A) (A) (A) (A) (A) (A) (A) (A)
                 (A) (A) (A) (A) (A) (A) (A) (A) (A) (A) (A) (A)
                 (A) (A) (A) (A) (A) (A) (A) (A) (A) (A) (A) (A)
                 (A) (A) (A) (A) (A) (A) (A) (A) (A) (A) (A) (A)
                 (A) (A) (A) (A) (A) (A) (A) (A) (A) (A) (A) (A)
                 (A) (A) (A) (A) (A) (A) (A) (A) (A) (A) (A) (A)
                 (A) (A) (A) (A) (A) (A) (A) (A) (A) (A) (A) (A)
                 (A) (A) (A) (A) (A) (A) (A) (A) (A) (A) (A) (A)
                 (A) (A) (A) (A) (A) (A) (A) (A) (A) (A) (A) (A)
    20 initial guesses have been made.
 Convergence on wavefunction:    0.001000000000000
 Davidson Disk Diagonalization:  ConvIn= 1.00D-03 SkipCon=T Conv= 1.00D-03.
 Max sub-space:  2000 roots to seek:    20 dimension of matrix:       549360
 Iteration     1 Dimension    20 NMult     0 NNew     20
 CISAX will form    20 AO SS matrices at one time.
 NMat=    20 NSing=    20 JSym2X= 0.
 FoFJK:  IHMeth= 1 ICntrl=       0 DoSepK=T KAlg= 0 I1Cent=           0 FoldK=F
 IRaf=         1 NMat=      40 IRICut=       1 DoRegI=T DoRafI=F ISym2E= 0 IDoP0=3 IntGTp=3.
 FoFCou: FMM=T IPFlag=           0 FMFlag=      100000 FMFlg1=        2001
         NFxFlg=           0 DoJE=F BraDBF=F KetDBF=F FulRan=T
         wScrn=  0.000000 ICntrl=       500 IOpCl=  0 I1Cent=           0 NGrid=           0
         NMat0=   20 NMatS0=     20 NMatT0=    0 NMatD0=   20 NMtDS0=    0 NMtDT0=    0
 Symmetry not used in FoFCou.
 FMM levels:  10  Number of levels for PrismC:   9
 New state      1 was old state      8
 New state      2 was old state      5
 New state      3 was old state      1
 New state      5 was old state      2
 Excitation Energies [eV] at current iteration:
 Root      1 :     2.614368863611350
 Root      2 :     2.619255710033456
 Root      3 :     2.680310361037813
 Root      4 :     2.690289546161623
 Root      5 :     3.064131357241033
 Root      6 :     3.070268596113502
 Root      7 :     3.628616580553642
 Root      8 :     3.669179426497680
 Root      9 :     3.735944415828150
 Root     10 :     3.759240595838925
 Root     11 :     3.864721504713619
 Root     12 :     3.867439506422813
 Root     13 :     4.303358143679967
 Root     14 :     4.306663641341900
 Root     15 :     4.981154134417123
 Root     16 :     4.995215260854036
 Root     17 :     5.275980885756365
 Root     18 :     5.292663941285643
 Root     19 :     5.306287831961325
 Root     20 :     5.326774585382174
 Iteration     2 Dimension    30 NMult    20 NNew     10
 CISAX will form    10 AO SS matrices at one time.
 NMat=    10 NSing=    10 JSym2X= 0.
 New state      1 was old state      3
 Root      1 not converged, maximum delta is    0.187197329048832
 New state      2 was old state      4
 Root      2 not converged, maximum delta is    0.188570921946878
 New state      3 was old state      2
 Root      3 not converged, maximum delta is    0.066454235256140
 New state      4 was old state      1
 Root      4 not converged, maximum delta is    0.089597899769401
 Root      5 has converged.
 Excitation Energies [eV] at current iteration:
 Root      1 :     1.801306622567940   Change is   -0.879003738469873
 Root      2 :     1.807435220720574   Change is   -0.882854325441049
 Root      3 :     2.235830092503198   Change is   -0.383425617530258
 Root      4 :     2.239087218715546   Change is   -0.375281644895804
 Root      5 :     3.064119215896489   Change is   -0.000012141344544
 Iteration     3 Dimension    38 NMult    30 NNew      8
 CISAX will form     8 AO SS matrices at one time.
 NMat=     8 NSing=     8 JSym2X= 0.
 Root      1 not converged, maximum delta is    0.069376022248713
 Root      2 not converged, maximum delta is    0.070540514813045
 Root      3 not converged, maximum delta is    0.044009315648872
 Root      4 not converged, maximum delta is    0.042545083992084
 Root      5 has converged.
 Excitation Energies [eV] at current iteration:
 Root      1 :     1.694063110911129   Change is   -0.107243511656811
 Root      2 :     1.699047083471995   Change is   -0.108388137248579
 Root      3 :     2.194371060915000   Change is   -0.041459031588198
 Root      4 :     2.200219680988645   Change is   -0.038867537726901
 Root      5 :     3.064119215896624   Change is    0.000000000000134
 Iteration     4 Dimension    46 NMult    38 NNew      8
 CISAX will form     8 AO SS matrices at one time.
 NMat=     8 NSing=     8 JSym2X= 0.
 Root      1 not converged, maximum delta is    0.013031422929503
 Root      2 not converged, maximum delta is    0.013288811490397
 Root      3 not converged, maximum delta is    0.009738483650548
 Root      4 not converged, maximum delta is    0.008893881594459
 Root      5 has converged.
 Excitation Energies [eV] at current iteration:
 Root      1 :     1.677349802616973   Change is   -0.016713308294156
 Root      2 :     1.682167674815372   Change is   -0.016879408656623
 Root      3 :     2.187067762310726   Change is   -0.007303298604274
 Root      4 :     2.193446289788989   Change is   -0.006773391199656
 Root      5 :     3.064119215896462   Change is   -0.000000000000161
 Iteration     5 Dimension    54 NMult    46 NNew      8
 CISAX will form     8 AO SS matrices at one time.
 NMat=     8 NSing=     8 JSym2X= 0.
 Root      1 not converged, maximum delta is    0.002167937152567
 Root      2 not converged, maximum delta is    0.002168082796315
 Root      3 not converged, maximum delta is    0.002500337607490
 Root      4 not converged, maximum delta is    0.002385500661208
 Root      5 has converged.
 Excitation Energies [eV] at current iteration:
 Root      1 :     1.675571726398848   Change is   -0.001778076218125
 Root      2 :     1.680394745438815   Change is   -0.001772929376557
 Root      3 :     2.186221905588477   Change is   -0.000845856722249
 Root      4 :     2.192670491138518   Change is   -0.000775798650470
 Root      5 :     3.064119215896570   Change is    0.000000000000108
 Iteration     6 Dimension    62 NMult    54 NNew      8
 CISAX will form     8 AO SS matrices at one time.
 NMat=     8 NSing=     8 JSym2X= 0.
 Root      1 not converged, maximum delta is    0.001356673088083
 Root      2 not converged, maximum delta is    0.001377779297313
 Root      3 not converged, maximum delta is    0.001070053357255
 Root      4 not converged, maximum delta is    0.001013916666537
 Root      5 has converged.
 Excitation Energies [eV] at current iteration:
 Root      1 :     1.675318020315891   Change is   -0.000253706082957
 Root      2 :     1.680139650655790   Change is   -0.000255094783025
 Root      3 :     2.186093649445426   Change is   -0.000128256143051
 Root      4 :     2.192552763750789   Change is   -0.000117727387729
 Root      5 :     3.064119215896382   Change is   -0.000000000000188
 Iteration     7 Dimension    70 NMult    62 NNew      8
 CISAX will form     8 AO SS matrices at one time.
 NMat=     8 NSing=     8 JSym2X= 0.
 Root      1 has converged.
 Root      2 has converged.
 Root      3 has converged.
 Root      4 has converged.
 Root      5 has converged.
 Excitation Energies [eV] at current iteration:
 Root      1 :     1.675293788702335   Change is   -0.000024231613556
 Root      2 :     1.680115831236953   Change is   -0.000023819418837
[...]
 Alpha virt. eigenvalues --    1.84482   1.84497   1.84742   1.84857   1.85080
 Alpha virt. eigenvalues --    1.85149   1.85301   1.85321   1.85443   1.85530
 Alpha virt. eigenvalues --    1.85855   1.85914   1.86338   1.86407   1.86603
 Alpha virt. eigenvalues --    1.86606   1.86781   1.86830   1.86998   1.87085
 Alpha virt. eigenvalues --    1.87437   1.87492   1.87725   1.87727   1.87915
 Alpha virt. eigenvalues --    1.87969   1.88086   1.88132   1.88527   1.88582
 Alpha virt. eigenvalues --    1.88869   1.88892   1.89028   1.89172   1.89613
 Alpha virt. eigenvalues --    1.89673   1.89793   1.89831   1.90143   1.90165
 Alpha virt. eigenvalues --    1.90798   1.90848   1.91382   1.91395   1.91486
 Alpha virt. eigenvalues --    1.91543   1.92136   1.92200   1.92614   1.92672
 Alpha virt. eigenvalues --    1.93028   1.93104   1.93384   1.93457   1.94263
 Alpha virt. eigenvalues --    1.94329   1.94735   1.94769   1.95521   1.95548
 Alpha virt. eigenvalues --    1.95766   1.95773   1.96001   1.96041   1.96126
 Alpha virt. eigenvalues --    1.96199   1.96436   1.96641   1.96888   1.96945
 Alpha virt. eigenvalues --    1.97495   1.97496   1.97755   1.97882   1.98119
 Alpha virt. eigenvalues --    1.98216   1.98301   1.98721   1.99024   1.99182
 Alpha virt. eigenvalues --    1.99867   1.99883   2.00678   2.00706   2.01042
 Alpha virt. eigenvalues --    2.01048   2.01461   2.01526   2.01558   2.01719
 Alpha virt. eigenvalues --    2.01765   2.01775   2.02662   2.02832   2.03094
 Alpha virt. eigenvalues --    2.03281   2.03330   2.03450   2.03472   2.03530
 Alpha virt. eigenvalues --    2.03977   2.04082   2.04929   2.05005   2.05560
 Alpha virt. eigenvalues --    2.05582   2.06125   2.06237   2.06949   2.06983
 Alpha virt. eigenvalues --    2.07230   2.07299   2.08505   2.08632   2.08955
 Alpha virt. eigenvalues --    2.09027   2.09562   2.09635   2.10825   2.10986
 Alpha virt. eigenvalues --    2.11229   2.11357   2.11482   2.11584   2.11773
 Alpha virt. eigenvalues --    2.11815   2.12415   2.12511   2.12752   2.12819
 Alpha virt. eigenvalues --    2.12850   2.12880   2.13579   2.13811   2.14183
 Alpha virt. eigenvalues --    2.14204   2.15357   2.15381   2.15971   2.16031
 Alpha virt. eigenvalues --    2.16542   2.16568   2.16800   2.17122   2.17462
 Alpha virt. eigenvalues --    2.17600   2.17750   2.17882   2.17954   2.18115
 Alpha virt. eigenvalues --    2.18369   2.18621   2.18913   2.19183   2.19686
 Alpha virt. eigenvalues --    2.19767   2.20083   2.20192   2.20256   2.20386
 Alpha virt. eigenvalues --    2.21124   2.21196   2.21712   2.21715   2.21789
 Alpha virt. eigenvalues --    2.21823   2.22650   2.22725   2.23291   2.23359
 Alpha virt. eigenvalues --    2.24368   2.24439   2.24954   2.25004   2.26343
 Alpha virt. eigenvalues --    2.26387   2.26824   2.26956   2.27146   2.27150
 Alpha virt. eigenvalues --    2.28181   2.28261   2.29312   2.29384   2.29779
 Alpha virt. eigenvalues --    2.29825   2.30499   2.30568   2.30771   2.31127
 Alpha virt. eigenvalues --    2.31149   2.31225   2.32165   2.32187   2.33179
 Alpha virt. eigenvalues --    2.33180   2.33430   2.33506   2.34088   2.34184
 Alpha virt. eigenvalues --    2.35245   2.35414   2.35840   2.35854   2.36279
 Alpha virt. eigenvalues --    2.36396   2.36397   2.36667   2.37624   2.37703
 Alpha virt. eigenvalues --    2.38302   2.38328   2.38726   2.38900   2.39613
 Alpha virt. eigenvalues --    2.39654   2.40213   2.40225   2.40528   2.40772
 Alpha virt. eigenvalues --    2.41156   2.41311   2.41639   2.41730   2.42072
 Alpha virt. eigenvalues --    2.42082   2.42768   2.42987   2.43012   2.43576
 Alpha virt. eigenvalues --    2.43920   2.44212   2.44748   2.44774   2.44931
 Alpha virt. eigenvalues --    2.44947   2.45514   2.45590   2.46227   2.46344
 Alpha virt. eigenvalues --    2.46438   2.46520   2.46741   2.46842   2.47296
 Alpha virt. eigenvalues --    2.47320   2.47756   2.47828   2.49336   2.49353
 Alpha virt. eigenvalues --    2.49835   2.50111   2.50397   2.50592   2.51162
 Alpha virt. eigenvalues --    2.51206   2.51550   2.51928   2.52335   2.52481
 Alpha virt. eigenvalues --    2.52851   2.53101   2.53909   2.53961   2.54192
 Alpha virt. eigenvalues --    2.54223   2.54746   2.54830   2.55561   2.55604
 Alpha virt. eigenvalues --    2.57906   2.58015   2.58685   2.58840   2.60235
 Alpha virt. eigenvalues --    2.60247   2.60653   2.60858   2.61752   2.61757
 Alpha virt. eigenvalues --    2.62365   2.62574   2.62997   2.63060   2.63977
 Alpha virt. eigenvalues --    2.64152   2.64286   2.64362   2.65032   2.65120
 Alpha virt. eigenvalues --    2.65793   2.65827   2.66754   2.66819   2.66950
 Alpha virt. eigenvalues --    2.66989   2.67913   2.67949   2.68751   2.68898
 Alpha virt. eigenvalues --    2.68962   2.69064   2.69431   2.69525   2.70039
 Alpha virt. eigenvalues --    2.70069   2.70997   2.71021   2.71823   2.72094
 Alpha virt. eigenvalues --    2.72422   2.72664   2.72694   2.72868   2.73217
 Alpha virt. eigenvalues --    2.73316   2.73397   2.73572   2.74436   2.74551
 Alpha virt. eigenvalues --    2.74982   2.75015   2.76449   2.76631   2.76993
 Alpha virt. eigenvalues --    2.77272   2.77497   2.77531   2.78223   2.78231
 Alpha virt. eigenvalues --    2.78617   2.78770   2.79081   2.79174   2.80190
 Alpha virt. eigenvalues --    2.80385   2.80614   2.80629   2.81076   2.81155
 Alpha virt. eigenvalues --    2.81913   2.81974   2.82259   2.82381   2.83771
 Alpha virt. eigenvalues --    2.83792   2.83807   2.83828   2.84452   2.84585
 Alpha virt. eigenvalues --    2.84810   2.84923   2.85616   2.85708   2.86582
 Alpha virt. eigenvalues --    2.87036   2.87097   2.87647   2.88161   2.88195
 Alpha virt. eigenvalues --    2.88540   2.88548   2.88794   2.88974   2.90537
 Alpha virt. eigenvalues --    2.90581   2.90991   2.91228   2.93194   2.93242
 Alpha virt. eigenvalues --    2.93692   2.94239   2.94495   2.94598   2.95393
 Alpha virt. eigenvalues --    2.95407   2.95760   2.96242   2.96296   2.96480
 Alpha virt. eigenvalues --    2.96792   2.97216   2.97856   2.97953   2.98248
 Alpha virt. eigenvalues --    2.98277   2.98405   2.98493   2.98641   2.98700
 Alpha virt. eigenvalues --    2.98843   2.98923   2.99626   2.99722   2.99936
 Alpha virt. eigenvalues --    3.00071   3.00257   3.00260   3.00501   3.00912
 Alpha virt. eigenvalues --    3.01823   3.02029   3.02035   3.02073   3.02741
 Alpha virt. eigenvalues --    3.02773   3.03018   3.03236   3.03368   3.03627
 Alpha virt. eigenvalues --    3.03972   3.04210   3.04351   3.04490   3.04587
 Alpha virt. eigenvalues --    3.04648   3.05272   3.05336   3.06084   3.06153
 Alpha virt. eigenvalues --    3.06843   3.06856   3.07842   3.08186   3.09278
 Alpha virt. eigenvalues --    3.09442   3.09733   3.10350   3.10482   3.10657
 Alpha virt. eigenvalues --    3.11371   3.11401   3.11821   3.11983   3.12216
 Alpha virt. eigenvalues --    3.12221   3.13323   3.13566   3.13608   3.13681
 Alpha virt. eigenvalues --    3.14132   3.14392   3.15910   3.15962   3.17305
 Alpha virt. eigenvalues --    3.17437   3.17798   3.18120   3.18950   3.19169
 Alpha virt. eigenvalues --    3.22346   3.22515   3.23989   3.24355   3.24716
 Alpha virt. eigenvalues --    3.25110   3.26546   3.26574   3.27312   3.27663
 Alpha virt. eigenvalues --    3.29139   3.29142   3.31295   3.31567   3.33102
 Alpha virt. eigenvalues --    3.33461   3.40178   3.40672   3.42735   3.42860
 Alpha virt. eigenvalues --    3.48614   3.48702   3.50065   3.50198   3.50753
 Alpha virt. eigenvalues --    3.51518   3.56594   3.56922   3.59143   3.59258
 Alpha virt. eigenvalues --    3.62432   3.62880   3.66034   3.66229   3.67228
 Alpha virt. eigenvalues --    3.67460   3.73314   3.73938   3.76099   3.76596
          Condensed to atoms (all electrons):
 Mulliken charges:
               1
     1  Mg   0.838727
     2  C   -0.002960
     3  C   -0.094131
     4  C   -0.045878
     5  C   -0.063932
     6  N   -0.256780
     7  C   -0.052451
     8  C   -0.014012
     9  C   -0.086995
    10  C    0.046326
    11  C    0.104810
    12  C    0.053466
    13  C   -0.071810
    14  H    0.036134
    15  N   -0.433146
    16  C    0.168441
    17  C   -0.177164
    18  C   -0.003997
    19  C    0.148711
    20  C    0.110187
    21  C    0.012287
    22  O   -0.249620
    23  C    0.062468
    24  N   -0.341151
    25  C    0.041260
    26  C   -0.028186
    27  C   -0.023964
    28  C    0.074806
    29  C    0.076181
    30  C    0.035143
    31  C   -0.004510
    32  N   -0.310479
    33  C    0.080417
    34  C   -0.169713
    35  C    0.008375
    36  C    0.083000
    37  C    0.127310
    38  C    0.046108
    39  O   -0.188430
    40  C   -0.005351
    41  C    0.212888
    42  O   -0.257098
    43  O   -0.304800
    44  C    0.157683
    45  H   -0.017612
    46  H   -0.016836
    47  H   -0.041489
    48  H    0.000933
    49  H   -0.004039
    50  H    0.025474
    51  H    0.016449
    52  H    0.016649
    53  H    0.011206
    54  H    0.044131
    55  H    0.017868
    56  H    0.017943
    57  H    0.005866
    58  H    0.026815
    59  H    0.039550
    60  H    0.037339
    61  H    0.035654
    62  H    0.031508
    63  H    0.016559
    64  H    0.009458
    65  H    0.023211
    66  H    0.012538
    67  H    0.004749
    68  H    0.006362
    69  H    0.004731
    70  H    0.008782
    71  H    0.018151
    72  H    0.028986
    73  H    0.047580
    74  H    0.009115
    75  H    0.046006
    76  H    0.035147
    77  H    0.042951
    78  H    0.046396
    79  H    0.053699
    80  Mg   0.837869
    81  C   -0.016858
    82  C   -0.087796
    83  C   -0.045522
    84  C   -0.064827
    85  N   -0.254575
    86  C   -0.049833
    87  C   -0.015080
    88  C   -0.090506
    89  C    0.045758
    90  C    0.114372
    91  C    0.062527
    92  C   -0.077897
    93  H    0.034900
    94  N   -0.423496
    95  C    0.162908
    96  C   -0.174637
    97  C   -0.007806
    98  C    0.152127
    99  C    0.099374
   100  C    0.015567
   101  O   -0.253168
   102  C    0.061199
   103  N   -0.350077
   104  C    0.037550
   105  C   -0.019885
   106  C   -0.034782
   107  C    0.088875
   108  C    0.073642
   109  C    0.034714
   110  C   -0.007679
   111  N   -0.324115
   112  C    0.078434
   113  C   -0.163096
   114  C    0.002252
   115  C    0.096214
   116  C    0.131486
   117  C    0.042402
   118  O   -0.187848
   119  C    0.000915
   120  C    0.211278
   121  O   -0.251024
   122  O   -0.305625
   123  C    0.152018
   124  H   -0.019677
   125  H   -0.015548
   126  H   -0.040397
   127  H   -0.000642
   128  H   -0.004337
   129  H    0.022480
   130  H    0.014437
   131  H    0.016266
   132  H    0.013915
   133  H    0.037680
   134  H    0.020788
   135  H    0.019582
   136  H    0.008747
   137  H    0.026131
   138  H    0.039784
   139  H    0.038238
   140  H    0.036397
   141  H    0.033892
   142  H    0.014408
   143  H    0.012492
   144  H    0.025165
   145  H    0.011636
   146  H    0.005756
   147  H    0.006307
   148  H    0.003690
   149  H    0.010928
   150  H    0.017947
   151  H    0.030073
   152  H    0.046019
   153  H    0.008551
   154  H    0.047004
   155  H    0.035041
   156  H    0.043927
   157  H    0.049485
   158  H    0.053585
 Sum of Mulliken charges =  -0.00000
 Mulliken charges with hydrogens summed into heavy atoms:
               1
     1  Mg   0.838727
     2  C   -0.002960
     3  C   -0.111744
     4  C   -0.062715
     5  C   -0.105421
     6  N   -0.256780
     7  C   -0.052451
     8  C   -0.013079
     9  C   -0.091034
    10  C    0.046326
    11  C    0.163382
    12  C    0.108802
    13  C    0.000135
    15  N   -0.433146
    16  C    0.168441
    17  C   -0.177164
    18  C   -0.003997
    19  C    0.148711
    20  C    0.182418
    21  C    0.012287
    22  O   -0.249620
    23  C    0.166969
    24  N   -0.341151
    25  C    0.041260
    26  C   -0.011627
    27  C   -0.014506
    28  C    0.074806
    29  C    0.116679
    30  C    0.046237
    31  C    0.051409
    32  N   -0.310479
    33  C    0.080417
    34  C   -0.169713
    35  C    0.008375
    36  C    0.083000
    37  C    0.230012
    38  C    0.046108
    39  O   -0.188430
    40  C    0.029797
    41  C    0.212888
    42  O   -0.257098
    43  O   -0.304800
    44  C    0.300729
    80  Mg   0.837869
    81  C   -0.016858
    82  C   -0.107473
    83  C   -0.061070
    84  C   -0.105224
    85  N   -0.254575
    86  C   -0.049833
    87  C   -0.015722
    88  C   -0.094844
    89  C    0.045758
    90  C    0.167554
    91  C    0.114122
    92  C   -0.002626
    94  N   -0.423496
    95  C    0.162908
    96  C   -0.174637
    97  C   -0.007806
    98  C    0.152127
    99  C    0.174036
   100  C    0.015567
   101  O   -0.253168
   102  C    0.169725
   103  N   -0.350077
   104  C    0.037550
   105  C   -0.005477
   106  C   -0.022290
   107  C    0.088875
   108  C    0.116200
   109  C    0.044711
   110  C    0.051270
   111  N   -0.324115
   112  C    0.078434
   113  C   -0.163096
   114  C    0.002252
   115  C    0.096214
   116  C    0.233060
   117  C    0.042402
   118  O   -0.187848
   119  C    0.035957
   120  C    0.211278
   121  O   -0.251024
   122  O   -0.305625
   123  C    0.299014
 Electronic spatial extent (au):  <R**2>=         626894.8011
 Charge=             -0.0000 electrons
 Dipole moment (field-independent basis, Debye):
    X=              2.8125    Y=              2.9628    Z=             -7.9573  Tot=              8.9447
 Quadrupole moment (field-independent basis, Debye-Ang):
   XX=           -471.1491   YY=           -560.4590   ZZ=           -445.3899
   XY=              2.2727   XZ=             29.4035   YZ=             29.3387
 Traceless Quadrupole moment (field-independent basis, Debye-Ang):
   XX=             21.1836   YY=            -68.1264   ZZ=             46.9428
   XY=              2.2727   XZ=             29.4035   YZ=             29.3387
 Octapole moment (field-independent basis, Debye-Ang**2):
  XXX=           1819.6040  YYY=           -231.5384  ZZZ=            -31.4365  XYY=           -162.7500
  XXY=            760.8683  XXZ=          -2747.0147  XZZ=            215.5408  YZZ=            157.7635
  YYZ=           -282.9257  XYZ=             39.4951
 Hexadecapole moment (field-independent basis, Debye-Ang**3):
 XXXX=        -776464.2807 YYYY=         -40544.4774 ZZZZ=         -22671.1902 XXXY=           -799.1399
 XXXZ=          18140.7470 YYYX=           -388.8448 YYYZ=            906.7254 ZZZX=            234.0065
 ZZZY=           -175.0228 XXYY=        -148968.7641 XXZZ=        -121222.5923 YYZZ=          -9866.0108
 XXYZ=           7897.6079 YYXZ=           -261.6434 ZZXY=           -229.3333
 N-N= 1.229584001434D+04 E-N=-3.407253702214D+04  KE= 4.028802072269D+03
 Leave Link  601 at Sun Sep 12 18:52:40 2021, MaxMem= 23488102400 cpu:              13.8 elap:               0.7
 (Enter /sw/apps/gaussian-16.0/g16/l9999.exe)
 1\1\GINC-BP1-COMPUTE00099\SP\RCAM-B3LYP TD-FC\def2SVP\C68H72Mg2N8O8\OF
 15641\12-Sep-2021\0\\#p cam-b3lyp/Def2SVP td=(nstates=5)\\TDDFT excite
 d states in gaussian\\0,1\Mg,0,0.,0.,0.\C,0,-0.217,-2.218,2.801\C,0,-1
 .255,2.442,2.026\C,0,-0.245,1.85,-2.564\C,0,0.146,-2.824,-2.037\N,0,-0
 .617,-0.009,2.126\C,0,-0.594,-0.908,3.105\C,0,-0.936,-0.309,4.502\C,0,
 -1.773,0.964,4.032\C,0,-1.155,1.168,2.66\C,0,-3.263,0.685,3.863\C,0,0.
 345,0.11,5.299\C,0,0.124,0.397,6.787\H,0,1.168,0.033,7.733\N,0,-0.185,
 1.961,-0.152\C,0,-0.703,2.8,0.777\C,0,-0.62,4.156,0.193\C,0,-0.187,4.0
 15,-1.225\C,0,-0.214,2.583,-1.38\C,0,-0.887,5.406,0.974\C,0,0.181,5.01
 3,-2.277\O,0,0.303,4.69,-3.508\C,0,0.31,6.414,-1.837\N,0,-0.265,-0.413
 ,-2.029\C,0,-0.279,0.569,-2.937\C,0,-0.196,0.024,-4.332\C,0,0.124,-1.5
 33,-4.18\C,0,0.086,-1.632,-2.635\C,0,-1.451,0.205,-5.197\C,0,1.373,-2.
 07,-4.923\C,0,2.626,-1.49,-4.306\N,0,0.15,-2.144,0.303\C,0,0.173,-3.13
 6,-0.688\C,0,0.173,-4.438,0.004\C,0,0.133,-4.111,1.358\C,0,0.083,-2.69
 5,1.502\C,0,0.149,-5.715,-0.623\C,0,0.096,-4.629,2.716\O,0,0.208,-5.74
 7,3.221\C,0,-0.255,-3.428,3.701\C,0,0.717,-3.482,4.848\O,0,1.931,-3.25
 5,4.669\O,0,0.038,-3.556,6.003\C,0,0.943,-3.583,7.183\H,0,-1.859,3.22,
 2.497\H,0,-0.218,2.453,-3.474\H,0,0.276,-3.747,-2.605\H,0,-1.554,-0.94
 9,5.132\H,0,-1.585,1.831,4.665\H,0,-3.484,-0.377,3.969\H,0,-3.511,1.02
 7,2.858\H,0,-3.852,1.301,4.543\H,0,0.669,1.096,4.966\H,0,1.13,-0.639,5
 .189\H,0,-0.844,0.026,7.125\H,0,0.062,1.477,6.921\H,0,-1.344,5.186,1.9
 38\H,0,-1.651,5.963,0.432\H,0,0.007,6.02,1.084\H,0,-0.635,6.744,-1.405
 \H,0,0.665,6.97,-2.704\H,0,1.048,6.466,-1.036\H,0,0.608,0.501,-4.891\H
 ,0,-0.692,-2.156,-4.547\H,0,-1.267,0.74,-6.129\H,0,-2.204,0.714,-4.596
 \H,0,-1.967,-0.72,-5.453\H,0,1.356,-1.759,-5.967\H,0,1.452,-3.157,-4.9
 02\H,0,2.714,-0.522,-4.798\H,0,3.487,-2.121,-4.529\H,0,2.495,-1.303,-3
 .24\H,0,0.867,-6.333,-0.084\H,0,0.404,-5.642,-1.68\H,0,-0.891,-5.999,-
 0.463\H,0,-1.283,-3.581,4.028\H,0,0.698,-4.478,7.755\H,0,0.833,-2.619,
 7.68\H,0,2.,-3.754,6.976\Mg,0,31.54184,2.84342,2.3975\C,0,32.76051,0.7
 1745,5.01936\C,0,31.6838,5.42187,4.62597\C,0,30.05013,4.64652,0.25483\
 C,0,30.43086,-0.03202,0.7717\N,0,32.15997,2.93293,4.51933\C,0,32.66315
 ,2.07402,5.39307\C,0,33.16047,2.7182,6.71492\C,0,32.25603,4.04496,6.69
 101\C,0,32.04401,4.16911,5.1836\C,0,30.89945,3.86051,7.35056\C,0,34.69
 016,3.06495,6.67234\C,0,35.30954,3.40914,8.02868\H,0,36.68607,2.9975,8
 .28982\N,0,31.40284,4.81793,2.2541\C,0,31.50822,5.71599,3.25593\C,0,31
 .31077,7.03538,2.63595\C,0,30.91671,6.83189,1.21537\C,0,30.75075,5.392
 45,1.19145\C,0,31.57381,8.32295,3.36148\C,0,30.7095,7.77775,0.07143\O,
 0,30.13706,7.40685,-1.01373\C,0,31.11203,9.17412,0.29419\N,0,30.21991,
 2.39876,0.85571\C,0,29.76095,3.36315,0.03887\C,0,29.04943,2.77346,-1.1
 5545\C,0,29.33771,1.2016,-1.09432\C,0,30.12612,1.14033,0.23235\C,0,27.
 54083,3.01198,-1.21559\C,0,29.96521,0.55151,-2.35776\C,0,31.37552,1.05
 964,-2.55326\N,0,31.73394,0.71283,2.70036\C,0,31.16795,-0.31488,1.9145
 3\C,0,31.48097,-1.5954,2.5814\C,0,32.19325,-1.21937,3.7302\C,0,32.2980
 6,0.19673,3.78658\C,0,31.07348,-2.88535,2.13857\C,0,32.87111,-1.69783,
 4.91354\O,0,33.17767,-2.80628,5.3507\C,0,33.1592,-0.45889,5.86664\C,0,
 34.59142,-0.54357,6.31843\O,0,35.5204,-0.42067,5.50081\O,0,34.63029,-0
 .53763,7.66335\C,0,36.03054,-0.60899,8.15937\H,0,31.47409,6.25022,5.30
 328\H,0,29.61025,5.21543,-0.56757\H,0,30.20427,-0.97883,0.27684\H,0,32
 .9513,2.14166,7.60802\H,0,32.80389,4.90335,7.07098\H,0,30.72043,2.8309
 2,7.62268\H,0,30.17079,4.19152,6.62219\H,0,30.80047,4.53663,8.20461\H,
 0,34.82575,4.02355,6.15519\H,0,35.24763,2.2731,6.21101\H,0,34.65811,3.
 12376,8.86363\H,0,35.38734,4.49612,8.10883\H,0,31.69234,8.16007,4.4398
 2\H,0,30.66542,8.92916,3.27658\H,0,32.41192,8.88104,2.93869\H,0,30.565
 93,9.57616,1.14424\H,0,30.97007,9.67574,-0.66503\H,0,32.1737,9.19328,0
 .56458\H,0,29.45239,3.16895,-2.07975\H,0,28.41481,0.62386,-0.93838\H,0
 ,27.21549,3.51705,-2.14464\H,0,27.25169,3.58944,-0.34757\H,0,26.92755,
 2.11832,-1.11331\H,0,29.40475,0.84029,-3.25031\H,0,29.97997,-0.53274,-
 2.32355\H,0,31.22532,2.01097,-3.0724\H,0,31.95214,0.36514,-3.16091\H,0
 ,31.85112,1.28088,-1.59071\H,0,31.93042,-3.53682,2.24693\H,0,30.72043,
 -2.85936,1.10976\H,0,30.26419,-3.08752,2.84528\H,0,32.46182,-0.51985,6
 .70301\H,0,36.08789,-1.4708,8.83144\H,0,36.244,0.38498,8.5955\H,0,36.8
 0521,-0.84936,7.44065\\Version=ES64L-G16RevA.03\State=1-A\HF=-4069.811
 7646\RMSD=4.487e-09\PG=C01 [X(C68H72Mg2N8O8)]\\@


 WE STILL HAVE JUDGEMENT HERE,
 THAT WE TEACH BUT BLOODY INSTRUCTIONS,
 WHICH, BEING TAUGHT,
 RETURN TO PLAGUE THE INVENTOR.
           MACBETH ACT I, SCENE VII
 Job cpu time:       0 days 10 hours 32 minutes 45.1 seconds.
 Elapsed time:       0 days  0 hours 26 minutes 58.0 seconds.
 File lengths (MBytes):  RWF=  13225 Int=      0 D2E=      0 Chk=    574 Scr=      1
 Normal termination of Gaussian 16 at Sun Sep 12 18:52:41 2021.
