 Entering Gaussian System, Link 0=g16
 Initial command:
 /sw/apps/gaussian-16.0/g16/l1.exe "/tmp/Gau-101288.inp" -scrdir="/tmp/"
 Entering Link 1 = /sw/apps/gaussian-16.0/g16/l1.exe PID=    101289.
  
 Copyright (c) 1988,1990,1992,1993,1995,1998,2003,2009,2016,
            Gaussian, Inc.  All Rights Reserved.
  
 This is part of the Gaussian(R) 16 program.  It is based on
 the Gaussian(R) 09 system (copyright 2009, Gaussian, Inc.),
 the Gaussian(R) 03 system (copyright 2003, Gaussian, Inc.),
 the Gaussian(R) 98 system (copyright 1998, Gaussian, Inc.),
 the Gaussian(R) 94 system (copyright 1995, Gaussian, Inc.),
 the Gaussian 92(TM) system (copyright 1992, Gaussian, Inc.),
 the Gaussian 90(TM) system (copyright 1990, Gaussian, Inc.),
 the Gaussian 88(TM) system (copyright 1988, Gaussian, Inc.),
 the Gaussian 86(TM) system (copyright 1986, Carnegie Mellon
 University), and the Gaussian 82(TM) system (copyright 1983,
 Carnegie Mellon University). Gaussian is a federally registered
 trademark of Gaussian, Inc.
  
 This software contains proprietary and confidential information,
 including trade secrets, belonging to Gaussian, Inc.
  
 This software is provided under written license and may be
 used, copied, transmitted, or stored only in accord with that
 written license.
  
 The following legend is applicable only to US Government
 contracts under FAR:
  
                    RESTRICTED RIGHTS LEGEND
  
 Use, reproduction and disclosure by the US Government is
 subject to restrictions as set forth in subparagraphs (a)
 and (c) of the Commercial Computer Software - Restricted
 Rights clause in FAR 52.227-19.
  
 Gaussian, Inc.
 340 Quinnipiac St., Bldg. 40, Wallingford CT 06492
  
  
 ---------------------------------------------------------------
 Warning -- This program may not be used in any manner that
 competes with the business of Gaussian, Inc. or will provide
 assistance to any competitor of Gaussian, Inc.  The licensee
 of this program is prohibited from giving any competitor of
 Gaussian, Inc. access to this program.  By using this program,
 the user acknowledges that Gaussian, Inc. is engaged in the
 business of creating and licensing software in the field of
 computational chemistry and represents and warrants to the
 licensee that it is not a competitor of Gaussian, Inc. and that
 it will not use this program in any manner prohibited above.
 ---------------------------------------------------------------
  

 Cite this work as:
 Gaussian 16, Revision A.03,
 M. J. Frisch, G. W. Trucks, H. B. Schlegel, G. E. Scuseria, 
 M. A. Robb, J. R. Cheeseman, G. Scalmani, V. Barone, 
 G. A. Petersson, H. Nakatsuji, X. Li, M. Caricato, A. V. Marenich, 
 J. Bloino, B. G. Janesko, R. Gomperts, B. Mennucci, H. P. Hratchian, 
 J. V. Ortiz, A. F. Izmaylov, J. L. Sonnenberg, D. Williams-Young, 
 F. Ding, F. Lipparini, F. Egidi, J. Goings, B. Peng, A. Petrone, 
 T. Henderson, D. Ranasinghe, V. G. Zakrzewski, J. Gao, N. Rega, 
 G. Zheng, W. Liang, M. Hada, M. Ehara, K. Toyota, R. Fukuda, 
 J. Hasegawa, M. Ishida, T. Nakajima, Y. Honda, O. Kitao, H. Nakai, 
 T. Vreven, K. Throssell, J. A. Montgomery, Jr., J. E. Peralta, 
 F. Ogliaro, M. J. Bearpark, J. J. Heyd, E. N. Brothers, K. N. Kudin, 
 V. N. Staroverov, T. A. Keith, R. Kobayashi, J. Normand, 
 K. Raghavachari, A. P. Rendell, J. C. Burant, S. S. Iyengar, 
 J. Tomasi, M. Cossi, J. M. Millam, M. Klene, C. Adamo, R. Cammi, 
 J. W. Ochterski, R. L. Martin, K. Morokuma, O. Farkas, 
 J. B. Foresman, and D. J. Fox, Gaussian, Inc., Wallingford CT, 2016.
 
 ******************************************
 Gaussian 16:  ES64L-G16RevA.03 25-Dec-2016
                10-Sep-2021 
 ******************************************
 %nproc=24
 Will use up to   24 processors via shared memory.
 %mem=175gb
 -----------------------------------
 #p cam-b3lyp/Def2SVP td=(nstates=5)
 -----------------------------------
 1/38=1,172=1/1;
 2/12=2,17=6,18=5,40=1/2;
 3/5=43,7=101,11=9,25=1,30=1,74=-40/1,2,3,8;
 4//1;
 5/5=2,38=5/2;
 8/6=1,10=1,108=5/1;
 9/41=5,42=1,70=2/14;
 6/7=2,8=2,9=2,10=2/1;
 99/5=1,9=1/99;
 Leave Link    1 at Fri Sep 10 09:12:49 2021, MaxMem= 23488102400 cpu:               0.6 elap:               0.0
 (Enter /sw/apps/gaussian-16.0/g16/l101.exe)
 --------------------------------
 TDDFT excited states in gaussian
 --------------------------------
 Symbolic Z-matrix:
 Charge =  0 Multiplicity = 1
 Mg                    0.        0.        0. 
 C                    -0.217    -2.218     2.801 
 C                    -1.255     2.442     2.026 
 C                    -0.245     1.85     -2.564 
 C                     0.146    -2.824    -2.037 
 N                    -0.617    -0.009     2.126 
 C                    -0.594    -0.908     3.105 
 C                    -0.936    -0.309     4.502 
 C                    -1.773     0.964     4.032 
 C                    -1.155     1.168     2.66 
 C                    -3.263     0.685     3.863 
 C                     0.345     0.11      5.299 
 C                     0.124     0.397     6.787 
 H                     1.168     0.033     7.733 
 N                    -0.185     1.961    -0.152 
 C                    -0.703     2.8       0.777 
 C                    -0.62      4.156     0.193 
 C                    -0.187     4.015    -1.225 
 C                    -0.214     2.583    -1.38 
 C                    -0.887     5.406     0.974 
 C                     0.181     5.013    -2.277 
 O                     0.303     4.69     -3.508 
 C                     0.31      6.414    -1.837 
 N                    -0.265    -0.413    -2.029 
 C                    -0.279     0.569    -2.937 
 C                    -0.196     0.024    -4.332 
 C                     0.124    -1.533    -4.18 
 C                     0.086    -1.632    -2.635 
 C                    -1.451     0.205    -5.197 
 C                     1.373    -2.07     -4.923 
 C                     2.626    -1.49     -4.306 
 N                     0.15     -2.144     0.303 
 C                     0.173    -3.136    -0.688 
 C                     0.173    -4.438     0.004 
 C                     0.133    -4.111     1.358 
 C                     0.083    -2.695     1.502 
 C                     0.149    -5.715    -0.623 
 C                     0.096    -4.629     2.716 
 O                     0.208    -5.747     3.221 
 C                    -0.255    -3.428     3.701 
 C                     0.717    -3.482     4.848 
 O                     1.931    -3.255     4.669 
 O                     0.038    -3.556     6.003 
 C                     0.943    -3.583     7.183 
 H                    -1.859     3.22      2.497 
 H                    -0.218     2.453    -3.474 
 H                     0.276    -3.747    -2.605 
 H                    -1.554    -0.949     5.132 
 H                    -1.585     1.831     4.665 
 H                    -3.484    -0.377     3.969 
 H                    -3.511     1.027     2.858 
 H                    -3.852     1.301     4.543 
 H                     0.669     1.096     4.966 
 H                     1.13     -0.639     5.189 
 H                    -0.844     0.026     7.125 
 H                     0.062     1.477     6.921 
 H                    -1.344     5.186     1.938 
 H                    -1.651     5.963     0.432 
 H                     0.007     6.02      1.084 
 H                    -0.635     6.744    -1.405 
 H                     0.665     6.97     -2.704 
 H                     1.048     6.466    -1.036 
 H                     0.608     0.501    -4.891 
 H                    -0.692    -2.156    -4.547 
 H                    -1.267     0.74     -6.129 
 H                    -2.204     0.714    -4.596 
 H                    -1.967    -0.72     -5.453 
 H                     1.356    -1.759    -5.967 
 H                     1.452    -3.157    -4.902 
 H                     2.714    -0.522    -4.798 
 H                     3.487    -2.121    -4.529 
 H                     2.495    -1.303    -3.24 
 H                     0.867    -6.333    -0.084 
 H                     0.404    -5.642    -1.68 
 H                    -0.891    -5.999    -0.463 
 H                    -1.283    -3.581     4.028 
 H                     0.698    -4.478     7.755 
 H                     0.833    -2.619     7.68 
 H                     2.       -3.754     6.976 
 Mg                    10.50374   0.95161   0.8042 
 C                     12.5705   2.17227   3.47207 
 C                     8.66225  -0.67059   3.17317 
 C                     8.94155  -0.49893  -1.54589 
 C                     13.11638   1.70177  -1.37687 
 N                     10.69095   0.84241   3.0054 
 C                     11.47825   1.39728   3.91458 
 C                     11.02511   1.17123   5.38194 
 C                     10.16844  -0.16967   5.1652 
 C                     9.78198   0.02134   3.69999 
 C                     10.99723  -1.43832   5.2791 
 C                     10.13102   2.3436    5.91876 
 C                     9.90931   2.34191   7.43289 
 H                     9.8242    3.62479   8.12531 
 N                     8.75127   0.02027   0.81007 
 C                     8.14201  -0.56063   1.86489 
 C                     6.88689  -1.12431   1.34424 
 C                     6.88289  -0.97225  -0.13615 
 C                     8.23038  -0.4859   -0.35482 
 C                     5.80425  -1.66031   2.23532 
 C                     5.84317  -1.23481  -1.18317 
 O                     6.13504  -1.25805  -2.43101 
 C                     4.49244  -1.55617  -0.6997 
 N                     11.03515   0.44744  -1.1415 
 C                     10.15007  -0.13122  -1.97199 
 C                     10.66458  -0.1482   -3.39163 
 C                     11.98066   0.76032  -3.38253 
 C                     12.05228   1.08691  -1.87468 
 C                     11.00171  -1.52626  -3.96058 
 C                     12.03143   1.93577  -4.39664 
 C                     11.00138   2.97943  -4.02901 
 N                     12.4138   1.95075   0.95057 
 C                     13.36272   2.13209  -0.07936 
 C                     14.55071   2.76471   0.52964 
 C                     14.21682   2.8875    1.88682 
 C                     12.92081   2.34968   2.11172 
 C                     15.7561   3.09808  -0.15009 
 C                     14.67029   3.34013   3.18227 
 O                     15.65236   3.95784   3.5918 
 C                     13.6754   2.78225   4.28922 
 C                     13.32104   3.9177    5.20993 
 O                     12.67048   4.89141   4.7913 
 O                     13.61748   3.56816   6.47496 
 C                     13.27355   4.65797   7.42672 
 H                     8.15723  -1.39948   3.80764 
 H                     8.4027   -0.88886  -2.41253 
 H                     13.93401   2.05658  -2.00795 
 H                     11.8306   0.98859   6.08309 
 H                     9.28272  -0.17865   5.7951 
 H                     12.05168  -1.22388   5.37022 
 H                     10.80203  -1.99941   4.37459 
 H                     10.62882  -2.0566    6.10271 
 H                     9.09888   2.1919    5.57756 
 H                     10.52383   3.2935    5.61213 
 H                     10.60569   1.67118   7.9507 
 H                     8.92417   1.91638   7.63887 
 H                     6.15954  -1.79333   3.26463 
 H                     5.58093  -2.67612   1.89165 
 H                     4.89028  -1.06402   2.19314 
 H                     4.5364   -2.43788  -0.06478 
 H                     3.87014  -1.6232   -1.59419 
 H                     4.1411   -0.73164  -0.06935 
 H                     9.94153   0.28742  -4.07025 
 H                     12.88124   0.17536  -3.62048 
 H                     10.45212  -1.76036  -4.89182 
 H                     10.79631  -2.26874  -3.20093 
 H                     12.057   -1.69442  -4.16864 
 H                     11.77249   1.58339  -5.3981 
 H                     13.00635   2.40705  -4.46314 
 H                     10.08236   2.58667  -4.47424 
 H                     11.26528   3.94504  -4.4556 
 H                     10.85118   3.01903  -2.94387 
 H                     16.04479   4.08275   0.19282 
 H                     15.62307   3.07538  -1.2297 
 H                     16.40683   2.29247   0.20035 
 H                     14.18807   1.97483   4.81346 
 H                     14.18304   4.88929   7.98974 
 H                     12.40472   4.28815   8.00303 
 H                     13.02985   5.62847   7.01055 
 
 ITRead=  0  0  0  0  0  0  0  0  0  0  0  0  0  0  0  0  0  0  0  0
 ITRead=  0  0  0  0  0  0  0  0  0  0  0  0  0  0  0  0  0  0  0  0
 ITRead=  0  0  0  0  0  0  0  0  0  0  0  0  0  0  0  0  0  0  0  0
 ITRead=  0  0  0  0  0  0  0  0  0  0  0  0  0  0  0  0  0  0  0  0
 ITRead=  0  0  0  0  0  0  0  0  0  0  0  0  0  0  0  0  0  0  0  0
 ITRead=  0  0  0  0  0  0  0  0  0  0  0  0  0  0  0  0  0  0  0  0
 ITRead=  0  0  0  0  0  0  0  0  0  0  0  0  0  0  0  0  0  0  0  0
 ITRead=  0  0  0  0  0  0  0  0  0  0  0  0  0  0  0  0  0  0
 MicOpt= -1 -1 -1 -1 -1 -1 -1 -1 -1 -1 -1 -1 -1 -1 -1 -1 -1 -1 -1 -1
 MicOpt= -1 -1 -1 -1 -1 -1 -1 -1 -1 -1 -1 -1 -1 -1 -1 -1 -1 -1 -1 -1
 MicOpt= -1 -1 -1 -1 -1 -1 -1 -1 -1 -1 -1 -1 -1 -1 -1 -1 -1 -1 -1 -1
 MicOpt= -1 -1 -1 -1 -1 -1 -1 -1 -1 -1 -1 -1 -1 -1 -1 -1 -1 -1 -1 -1
 MicOpt= -1 -1 -1 -1 -1 -1 -1 -1 -1 -1 -1 -1 -1 -1 -1 -1 -1 -1 -1 -1
 MicOpt= -1 -1 -1 -1 -1 -1 -1 -1 -1 -1 -1 -1 -1 -1 -1 -1 -1 -1 -1 -1
 MicOpt= -1 -1 -1 -1 -1 -1 -1 -1 -1 -1 -1 -1 -1 -1 -1 -1 -1 -1 -1 -1
 MicOpt= -1 -1 -1 -1 -1 -1 -1 -1 -1 -1 -1 -1 -1 -1 -1 -1 -1 -1
 NAtoms=    158 NQM=      158 NQMF=       0 NMMI=      0 NMMIF=      0
                NMic=       0 NMicF=      0.
                    Isotopes and Nuclear Properties:
 (Nuclear quadrupole moments (NQMom) in fm**2, nuclear magnetic moments (NMagM)
  in nuclear magnetons)

  Atom         1           2           3           4           5           6           7           8           9          10
 IAtWgt=          24          12          12          12          12          14          12          12          12          12
 AtmWgt=  23.9850450  12.0000000  12.0000000  12.0000000  12.0000000  14.0030740  12.0000000  12.0000000  12.0000000  12.0000000
 NucSpn=           0           0           0           0           0           2           0           0           0           0
 AtZEff=  -0.0000000  -0.0000000  -0.0000000  -0.0000000  -0.0000000  -0.0000000  -0.0000000  -0.0000000  -0.0000000  -0.0000000
 NQMom=    0.0000000   0.0000000   0.0000000   0.0000000   0.0000000   2.0440000   0.0000000   0.0000000   0.0000000   0.0000000
 NMagM=    0.0000000   0.0000000   0.0000000   0.0000000   0.0000000   0.4037610   0.0000000   0.0000000   0.0000000   0.0000000
 AtZNuc=  12.0000000   6.0000000   6.0000000   6.0000000   6.0000000   7.0000000   6.0000000   6.0000000   6.0000000   6.0000000

  Atom        11          12          13          14          15          16          17          18          19          20
 IAtWgt=          12          12          12           1          14          12          12          12          12          12
 AtmWgt=  12.0000000  12.0000000  12.0000000   1.0078250  14.0030740  12.0000000  12.0000000  12.0000000  12.0000000  12.0000000
 NucSpn=           0           0           0           1           2           0           0           0           0           0
 AtZEff=  -0.0000000  -0.0000000  -0.0000000  -0.0000000  -0.0000000  -0.0000000  -0.0000000  -0.0000000  -0.0000000  -0.0000000
 NQMom=    0.0000000   0.0000000   0.0000000   0.0000000   2.0440000   0.0000000   0.0000000   0.0000000   0.0000000   0.0000000
 NMagM=    0.0000000   0.0000000   0.0000000   2.7928460   0.4037610   0.0000000   0.0000000   0.0000000   0.0000000   0.0000000
 AtZNuc=   6.0000000   6.0000000   6.0000000   1.0000000   7.0000000   6.0000000   6.0000000   6.0000000   6.0000000   6.0000000

  Atom        21          22          23          24          25          26          27          28          29          30
 IAtWgt=          12          16          12          14          12          12          12          12          12          12
 AtmWgt=  12.0000000  15.9949146  12.0000000  14.0030740  12.0000000  12.0000000  12.0000000  12.0000000  12.0000000  12.0000000
 NucSpn=           0           0           0           2           0           0           0           0           0           0
 AtZEff=  -0.0000000  -0.0000000  -0.0000000  -0.0000000  -0.0000000  -0.0000000  -0.0000000  -0.0000000  -0.0000000  -0.0000000
 NQMom=    0.0000000   0.0000000   0.0000000   2.0440000   0.0000000   0.0000000   0.0000000   0.0000000   0.0000000   0.0000000
 NMagM=    0.0000000   0.0000000   0.0000000   0.4037610   0.0000000   0.0000000   0.0000000   0.0000000   0.0000000   0.0000000
 AtZNuc=   6.0000000   8.0000000   6.0000000   7.0000000   6.0000000   6.0000000   6.0000000   6.0000000   6.0000000   6.0000000

  Atom        31          32          33          34          35          36          37          38          39          40
 IAtWgt=          12          14          12          12          12          12          12          12          16          12
 AtmWgt=  12.0000000  14.0030740  12.0000000  12.0000000  12.0000000  12.0000000  12.0000000  12.0000000  15.9949146  12.0000000
 NucSpn=           0           2           0           0           0           0           0           0           0           0
 AtZEff=  -0.0000000  -0.0000000  -0.0000000  -0.0000000  -0.0000000  -0.0000000  -0.0000000  -0.0000000  -0.0000000  -0.0000000
 NQMom=    0.0000000   2.0440000   0.0000000   0.0000000   0.0000000   0.0000000   0.0000000   0.0000000   0.0000000   0.0000000
 NMagM=    0.0000000   0.4037610   0.0000000   0.0000000   0.0000000   0.0000000   0.0000000   0.0000000   0.0000000   0.0000000
 AtZNuc=   6.0000000   7.0000000   6.0000000   6.0000000   6.0000000   6.0000000   6.0000000   6.0000000   8.0000000   6.0000000

  Atom        41          42          43          44          45          46          47          48          49          50
 IAtWgt=          12          16          16          12           1           1           1           1           1           1
 AtmWgt=  12.0000000  15.9949146  15.9949146  12.0000000   1.0078250   1.0078250   1.0078250   1.0078250   1.0078250   1.0078250
 NucSpn=           0           0           0           0           1           1           1           1           1           1
 AtZEff=  -0.0000000  -0.0000000  -0.0000000  -0.0000000  -0.0000000  -0.0000000  -0.0000000  -0.0000000  -0.0000000  -0.0000000
 NQMom=    0.0000000   0.0000000   0.0000000   0.0000000   0.0000000   0.0000000   0.0000000   0.0000000   0.0000000   0.0000000
 NMagM=    0.0000000   0.0000000   0.0000000   0.0000000   2.7928460   2.7928460   2.7928460   2.7928460   2.7928460   2.7928460
 AtZNuc=   6.0000000   8.0000000   8.0000000   6.0000000   1.0000000   1.0000000   1.0000000   1.0000000   1.0000000   1.0000000

  Atom        51          52          53          54          55          56          57          58          59          60
 IAtWgt=           1           1           1           1           1           1           1           1           1           1
 AtmWgt=   1.0078250   1.0078250   1.0078250   1.0078250   1.0078250   1.0078250   1.0078250   1.0078250   1.0078250   1.0078250
 NucSpn=           1           1           1           1           1           1           1           1           1           1
 AtZEff=  -0.0000000  -0.0000000  -0.0000000  -0.0000000  -0.0000000  -0.0000000  -0.0000000  -0.0000000  -0.0000000  -0.0000000
 NQMom=    0.0000000   0.0000000   0.0000000   0.0000000   0.0000000   0.0000000   0.0000000   0.0000000   0.0000000   0.0000000
 NMagM=    2.7928460   2.7928460   2.7928460   2.7928460   2.7928460   2.7928460   2.7928460   2.7928460   2.7928460   2.7928460
 AtZNuc=   1.0000000   1.0000000   1.0000000   1.0000000   1.0000000   1.0000000   1.0000000   1.0000000   1.0000000   1.0000000

  Atom        61          62          63          64          65          66          67          68          69          70
 IAtWgt=           1           1           1           1           1           1           1           1           1           1
 AtmWgt=   1.0078250   1.0078250   1.0078250   1.0078250   1.0078250   1.0078250   1.0078250   1.0078250   1.0078250   1.0078250
 NucSpn=           1           1           1           1           1           1           1           1           1           1
 AtZEff=  -0.0000000  -0.0000000  -0.0000000  -0.0000000  -0.0000000  -0.0000000  -0.0000000  -0.0000000  -0.0000000  -0.0000000
 NQMom=    0.0000000   0.0000000   0.0000000   0.0000000   0.0000000   0.0000000   0.0000000   0.0000000   0.0000000   0.0000000
 NMagM=    2.7928460   2.7928460   2.7928460   2.7928460   2.7928460   2.7928460   2.7928460   2.7928460   2.7928460   2.7928460
 AtZNuc=   1.0000000   1.0000000   1.0000000   1.0000000   1.0000000   1.0000000   1.0000000   1.0000000   1.0000000   1.0000000

  Atom        71          72          73          74          75          76          77          78          79          80
 IAtWgt=           1           1           1           1           1           1           1           1           1          24
 AtmWgt=   1.0078250   1.0078250   1.0078250   1.0078250   1.0078250   1.0078250   1.0078250   1.0078250   1.0078250  23.9850450
 NucSpn=           1           1           1           1           1           1           1           1           1           0
 AtZEff=  -0.0000000  -0.0000000  -0.0000000  -0.0000000  -0.0000000  -0.0000000  -0.0000000  -0.0000000  -0.0000000  -0.0000000
 NQMom=    0.0000000   0.0000000   0.0000000   0.0000000   0.0000000   0.0000000   0.0000000   0.0000000   0.0000000   0.0000000
 NMagM=    2.7928460   2.7928460   2.7928460   2.7928460   2.7928460   2.7928460   2.7928460   2.7928460   2.7928460   0.0000000
 AtZNuc=   1.0000000   1.0000000   1.0000000   1.0000000   1.0000000   1.0000000   1.0000000   1.0000000   1.0000000  12.0000000

  Atom        81          82          83          84          85          86          87          88          89          90
 IAtWgt=          12          12          12          12          14          12          12          12          12          12
 AtmWgt=  12.0000000  12.0000000  12.0000000  12.0000000  14.0030740  12.0000000  12.0000000  12.0000000  12.0000000  12.0000000
 NucSpn=           0           0           0           0           2           0           0           0           0           0
 AtZEff=  -0.0000000  -0.0000000  -0.0000000  -0.0000000  -0.0000000  -0.0000000  -0.0000000  -0.0000000  -0.0000000  -0.0000000
 NQMom=    0.0000000   0.0000000   0.0000000   0.0000000   2.0440000   0.0000000   0.0000000   0.0000000   0.0000000   0.0000000
 NMagM=    0.0000000   0.0000000   0.0000000   0.0000000   0.4037610   0.0000000   0.0000000   0.0000000   0.0000000   0.0000000
 AtZNuc=   6.0000000   6.0000000   6.0000000   6.0000000   7.0000000   6.0000000   6.0000000   6.0000000   6.0000000   6.0000000

  Atom        91          92          93          94          95          96          97          98          99         100
 IAtWgt=          12          12           1          14          12          12          12          12          12          12
 AtmWgt=  12.0000000  12.0000000   1.0078250  14.0030740  12.0000000  12.0000000  12.0000000  12.0000000  12.0000000  12.0000000
 NucSpn=           0           0           1           2           0           0           0           0           0           0
 AtZEff=  -0.0000000  -0.0000000  -0.0000000  -0.0000000  -0.0000000  -0.0000000  -0.0000000  -0.0000000  -0.0000000  -0.0000000
 NQMom=    0.0000000   0.0000000   0.0000000   2.0440000   0.0000000   0.0000000   0.0000000   0.0000000   0.0000000   0.0000000
 NMagM=    0.0000000   0.0000000   2.7928460   0.4037610   0.0000000   0.0000000   0.0000000   0.0000000   0.0000000   0.0000000
 AtZNuc=   6.0000000   6.0000000   1.0000000   7.0000000   6.0000000   6.0000000   6.0000000   6.0000000   6.0000000   6.0000000

  Atom       101         102         103         104         105         106         107         108         109         110
 IAtWgt=          16          12          14          12          12          12          12          12          12          12
 AtmWgt=  15.9949146  12.0000000  14.0030740  12.0000000  12.0000000  12.0000000  12.0000000  12.0000000  12.0000000  12.0000000
 NucSpn=           0           0           2           0           0           0           0           0           0           0
 AtZEff=  -0.0000000  -0.0000000  -0.0000000  -0.0000000  -0.0000000  -0.0000000  -0.0000000  -0.0000000  -0.0000000  -0.0000000
 NQMom=    0.0000000   0.0000000   2.0440000   0.0000000   0.0000000   0.0000000   0.0000000   0.0000000   0.0000000   0.0000000
 NMagM=    0.0000000   0.0000000   0.4037610   0.0000000   0.0000000   0.0000000   0.0000000   0.0000000   0.0000000   0.0000000
 AtZNuc=   8.0000000   6.0000000   7.0000000   6.0000000   6.0000000   6.0000000   6.0000000   6.0000000   6.0000000   6.0000000

  Atom       111         112         113         114         115         116         117         118         119         120
 IAtWgt=          14          12          12          12          12          12          12          16          12          12
 AtmWgt=  14.0030740  12.0000000  12.0000000  12.0000000  12.0000000  12.0000000  12.0000000  15.9949146  12.0000000  12.0000000
 NucSpn=           2           0           0           0           0           0           0           0           0           0
 AtZEff=  -0.0000000  -0.0000000  -0.0000000  -0.0000000  -0.0000000  -0.0000000  -0.0000000  -0.0000000  -0.0000000  -0.0000000
 NQMom=    2.0440000   0.0000000   0.0000000   0.0000000   0.0000000   0.0000000   0.0000000   0.0000000   0.0000000   0.0000000
 NMagM=    0.4037610   0.0000000   0.0000000   0.0000000   0.0000000   0.0000000   0.0000000   0.0000000   0.0000000   0.0000000
 AtZNuc=   7.0000000   6.0000000   6.0000000   6.0000000   6.0000000   6.0000000   6.0000000   8.0000000   6.0000000   6.0000000

  Atom       121         122         123         124         125         126         127         128         129         130
 IAtWgt=          16          16          12           1           1           1           1           1           1           1
 AtmWgt=  15.9949146  15.9949146  12.0000000   1.0078250   1.0078250   1.0078250   1.0078250   1.0078250   1.0078250   1.0078250
 NucSpn=           0           0           0           1           1           1           1           1           1           1
 AtZEff=  -0.0000000  -0.0000000  -0.0000000  -0.0000000  -0.0000000  -0.0000000  -0.0000000  -0.0000000  -0.0000000  -0.0000000
 NQMom=    0.0000000   0.0000000   0.0000000   0.0000000   0.0000000   0.0000000   0.0000000   0.0000000   0.0000000   0.0000000
 NMagM=    0.0000000   0.0000000   0.0000000   2.7928460   2.7928460   2.7928460   2.7928460   2.7928460   2.7928460   2.7928460
 AtZNuc=   8.0000000   8.0000000   6.0000000   1.0000000   1.0000000   1.0000000   1.0000000   1.0000000   1.0000000   1.0000000

  Atom       131         132         133         134         135         136         137         138         139         140
 IAtWgt=           1           1           1           1           1           1           1           1           1           1
 AtmWgt=   1.0078250   1.0078250   1.0078250   1.0078250   1.0078250   1.0078250   1.0078250   1.0078250   1.0078250   1.0078250
 NucSpn=           1           1           1           1           1           1           1           1           1           1
 AtZEff=  -0.0000000  -0.0000000  -0.0000000  -0.0000000  -0.0000000  -0.0000000  -0.0000000  -0.0000000  -0.0000000  -0.0000000
 NQMom=    0.0000000   0.0000000   0.0000000   0.0000000   0.0000000   0.0000000   0.0000000   0.0000000   0.0000000   0.0000000
 NMagM=    2.7928460   2.7928460   2.7928460   2.7928460   2.7928460   2.7928460   2.7928460   2.7928460   2.7928460   2.7928460
 AtZNuc=   1.0000000   1.0000000   1.0000000   1.0000000   1.0000000   1.0000000   1.0000000   1.0000000   1.0000000   1.0000000

  Atom       141         142         143         144         145         146         147         148         149         150
 IAtWgt=           1           1           1           1           1           1           1           1           1           1
 AtmWgt=   1.0078250   1.0078250   1.0078250   1.0078250   1.0078250   1.0078250   1.0078250   1.0078250   1.0078250   1.0078250
 NucSpn=           1           1           1           1           1           1           1           1           1           1
 AtZEff=  -0.0000000  -0.0000000  -0.0000000  -0.0000000  -0.0000000  -0.0000000  -0.0000000  -0.0000000  -0.0000000  -0.0000000
 NQMom=    0.0000000   0.0000000   0.0000000   0.0000000   0.0000000   0.0000000   0.0000000   0.0000000   0.0000000   0.0000000
 NMagM=    2.7928460   2.7928460   2.7928460   2.7928460   2.7928460   2.7928460   2.7928460   2.7928460   2.7928460   2.7928460
 AtZNuc=   1.0000000   1.0000000   1.0000000   1.0000000   1.0000000   1.0000000   1.0000000   1.0000000   1.0000000   1.0000000

  Atom       151         152         153         154         155         156         157         158
 IAtWgt=           1           1           1           1           1           1           1           1
 AtmWgt=   1.0078250   1.0078250   1.0078250   1.0078250   1.0078250   1.0078250   1.0078250   1.0078250
 NucSpn=           1           1           1           1           1           1           1           1
 AtZEff=  -0.0000000  -0.0000000  -0.0000000  -0.0000000  -0.0000000  -0.0000000  -0.0000000  -0.0000000
 NQMom=    0.0000000   0.0000000   0.0000000   0.0000000   0.0000000   0.0000000   0.0000000   0.0000000
 NMagM=    2.7928460   2.7928460   2.7928460   2.7928460   2.7928460   2.7928460   2.7928460   2.7928460
 AtZNuc=   1.0000000   1.0000000   1.0000000   1.0000000   1.0000000   1.0000000   1.0000000   1.0000000
 Leave Link  101 at Fri Sep 10 09:12:49 2021, MaxMem= 23488102400 cpu:               3.6 elap:               0.2
 (Enter /sw/apps/gaussian-16.0/g16/l202.exe)
 Stoichiometry    C68H72Mg2N8O8
 Framework group  C1[X(C68H72Mg2N8O8)]
 Deg. of freedom   468
 Full point group                 C1      NOp   1
 Largest Abelian subgroup         C1      NOp   1
 Largest concise Abelian subgroup C1      NOp   1
                         Standard orientation:                         
 ---------------------------------------------------------------------
 Center     Atomic      Atomic             Coordinates (Angstroms)
 Number     Number       Type             X           Y           Z
 ---------------------------------------------------------------------
      1         12           0        5.444724   -0.497105    0.667443
      2          6           0        5.771044    2.518099   -1.233683
      3          6           0        5.948034    1.389031    3.466057
      4          6           0        5.613541   -3.195993    2.323982
      5          6           0        6.097773   -2.248002   -2.274248
      6          7           0        5.800959    1.669275    0.951245
      7          6           0        5.843320    2.725794    0.145550
      8          6           0        5.895844    4.083053    0.908742
      9          6           0        6.512773    3.572836    2.287537
     10          6           0        6.029662    2.133647    2.252007
     11          6           0        8.037857    3.578549    2.311789
     12          6           0        4.473762    4.705707    1.112988
     13          6           0        4.459779    6.172267    1.553850
     14          1           0        3.406222    7.043365    1.055299
     15          7           0        5.253958   -0.824362    2.606350
     16          6           0        5.484422    0.062785    3.603918
     17          6           0        5.202645   -0.658315    4.863798
     18          6           0        4.973261   -2.090740    4.526700
     19          6           0        5.301127   -2.099357    3.123915
     20          6           0        5.124526    0.016964    6.198581
     21          6           0        4.539169   -3.267525    5.342098
     22          8           0        4.626893   -4.466355    4.906568
     23          6           0        4.085174   -2.983555    6.715521
     24          7           0        6.019325   -2.439470    0.162777
     25          6           0        5.943545   -3.434803    1.053032
     26          6           0        6.132186   -4.770179    0.396433
     27          6           0        6.111530   -4.496220   -1.176550
     28          6           0        5.989287   -2.952726   -1.145681
     29          6           0        7.417987   -5.522305    0.766613
     30          6           0        5.088214   -5.300488   -2.017024
     31          6           0        3.682331   -4.869342   -1.663892
     32          7           0        5.688326    0.001274   -1.430966
     33          6           0        5.977142   -0.883783   -2.479743
     34          6           0        6.154935   -0.069196   -3.695845
     35          6           0        5.972368    1.243039   -3.263926
     36          6           0        5.723891    1.249864   -1.861605
     37          6           0        6.503815   -0.560904   -4.984620
     38          6           0        5.953791    2.642876   -3.656315
     39          8           0        6.007772    3.243082   -4.730713
     40          6           0        5.943524    3.533230   -2.336091
     41          6           0        4.875376    4.579601   -2.501850
     42          8           0        3.669513    4.261367   -2.546420
     43          8           0        5.417229    5.796942   -2.343672
     44          6           0        4.405126    6.879846   -2.466637
     45          1           0        6.327302    1.837087    4.386569
     46          1           0        5.573157   -4.159660    2.835991
     47          1           0        6.219812   -2.731471   -3.245236
     48          1           0        6.551204    4.830777    0.461712
     49          1           0        6.084784    4.095213    3.142914
     50          1           0        8.451049    3.810564    1.330279
     51          1           0        8.327832    2.573559    2.619039
     52          1           0        8.410421    4.248198    3.087382
     53          1           0        4.001647    4.246404    1.981440
     54          1           0        3.870791    4.594597    0.211097
     55          1           0        5.436322    6.638258    1.419220
     56          1           0        4.290693    6.203734    2.630242
     57          1           0        5.501327    1.038010    6.153516
     58          1           0        5.820558   -0.500554    6.858447
     59          1           0        4.120019   -0.022308    6.620193
     60          1           0        4.889599   -2.496354    7.266960
     61          1           0        3.729871   -3.931970    7.116917
     62          1           0        3.263840   -2.267516    6.674950
     63          1           0        5.319854   -5.449548    0.651386
     64          1           0        7.071648   -4.718161   -1.643015
     65          1           0        7.240806   -6.516319    1.178009
     66          1           0        7.980515   -4.904259    1.465807
     67          1           0        8.133077   -5.633594   -0.048052
     68          1           0        5.164006   -6.363554   -1.790987
     69          1           0        5.224199   -5.179428   -3.091782
     70          1           0        3.461892   -5.461286   -0.776288
     71          1           0        2.995094   -5.111486   -2.475238
     72          1           0        3.649404   -3.819519   -1.371876
     73          1           0        5.864985   -0.035811   -5.694650
     74          1           0        6.363508   -1.639737   -5.048150
     75          1           0        7.553809   -0.272798   -5.033232
     76          1           0        6.936559    3.972527   -2.246533
     77          1           0        4.754658    7.559076   -3.244267
     78          1           0        4.263718    7.286983   -1.465314
     79          1           0        3.434150    6.588734   -2.868879
     80         12           0       -5.060439   -0.819931   -0.523434
     81          6           0       -7.622671    1.499090    0.444110
     82          6           0       -3.220962    1.866743   -1.539675
     83          6           0       -2.980568   -2.850656   -1.795332
     84          6           0       -7.499517   -3.309144   -0.503144
     85          7           0       -5.475821    1.352415   -0.498513
     86          6           0       -6.457269    2.120822   -0.050584
     87          6           0       -6.141292    3.640551   -0.063411
     88          6           0       -5.016783    3.642683   -1.209861
     89          6           0       -4.508862    2.210470   -1.056698
     90          6           0       -5.585363    3.800637   -2.610256
     91          6           0       -5.565406    4.142913    1.306994
     92          6           0       -5.524540    5.664093    1.468512
     93          1           0       -5.775957    6.230645    2.790737
     94          7           0       -3.170914   -0.550650   -1.067277
     95          6           0       -2.584941    0.611033   -1.425629
     96          6           0       -1.191380    0.273884   -1.754954
     97          6           0       -1.046246   -1.206802   -1.720363
     98          6           0       -2.428818   -1.603103   -1.542817
     99          6           0       -0.134593    1.315142   -1.983894
    100          6           0        0.138945   -2.116118   -1.841498
    101          8           0        0.003905   -3.377969   -2.021295
    102          6           0        1.461339   -1.473668   -1.836998
    103          7           0       -5.252590   -2.748444   -1.275929
    104          6           0       -4.180367   -3.427026   -1.720667
    105          6           0       -4.513462   -4.881345   -1.953880
    106          6           0       -5.975449   -5.090964   -1.340517
    107          6           0       -6.284387   -3.637226   -0.920274
    108          6           0       -4.502783   -5.340760   -3.411698
    109          6           0       -6.140306   -6.216908   -0.283279
    110          6           0       -5.387008   -5.856040    0.976760
    111          7           0       -7.134401   -0.960563    0.065578
    112          6           0       -7.974713   -2.091045   -0.034300
    113          6           0       -9.326817   -1.666706    0.383024
    114          6           0       -9.183252   -0.302368    0.677080
    115          6           0       -7.841313    0.100193    0.439137
    116          6           0      -10.487409   -2.490519    0.405233
    117          6           0       -9.864235    0.891269    1.124510
    118          8           0      -10.989869    1.139650    1.554624
    119          6           0       -8.913511    2.139907    0.872713
    120          6           0       -8.900083    2.973435    2.124741
    121          8           0       -8.411285    2.525628    3.176946
    122          8           0       -9.265812    4.231946    1.820195
    123          6           0       -9.257089    5.099738    3.027954
    124          1           0       -2.658479    2.616700   -2.096500
    125          1           0       -2.278539   -3.617558   -2.130720
    126          1           0       -8.292569   -4.049083   -0.375749
    127          1           0       -6.970282    4.274436   -0.354527
    128          1           0       -4.225821    4.353745   -0.985976
    129          1           0       -6.664712    3.766705   -2.613049
    130          1           0       -5.179531    2.979711   -3.186836
    131          1           0       -5.199649    4.713579   -3.072956
    132          1           0       -4.491252    3.920792    1.346989
    133          1           0       -6.100397    3.706596    2.127996
    134          1           0       -6.129429    6.175550    0.709913
    135          1           0       -4.505231    6.006438    1.274053
    136          1           0       -0.573204    2.312980   -2.107756
    137          1           0        0.323759    1.097504   -2.954666
    138          1           0        0.641772    1.303304   -1.215910
    139          1           0        1.519703   -0.761640   -2.656802
    140          1           0        2.183858   -2.292081   -1.842340
    141          1           0        1.567024   -0.897083   -0.911250
    142          1           0       -3.817431   -5.526090   -1.431448
    143          1           0       -6.708599   -5.356348   -2.116343
    144          1           0       -3.813688   -6.186064   -3.597897
    145          1           0       -4.243726   -4.494721   -4.034306
    146          1           0       -5.472534   -5.633038   -3.810897
    147          1           0       -5.702553   -7.148353   -0.650602
    148          1           0       -7.174875   -6.424679   -0.031295
    149          1           0       -4.363167   -6.168268    0.750151
    150          1           0       -5.785754   -6.400133    1.830568
    151          1           0       -5.374266   -4.770749    1.130507
    152          1           0      -11.003131   -2.276918    1.332006
    153          1           0      -10.228462   -3.544383    0.327204
    154          1           0      -11.001775   -2.126952   -0.488362
    155          1           0       -9.313259    2.689229    0.019465
    156          1           0      -10.253311    5.545575    3.108227
    157          1           0       -8.404890    5.791927    2.892317
    158          1           0       -9.163949    4.614996    3.992738
 ---------------------------------------------------------------------
 Rotational constants (GHZ):           0.0253353           0.0102226           0.0091121
 Leave Link  202 at Fri Sep 10 09:12:49 2021, MaxMem= 23488102400 cpu:               0.2 elap:               0.0
 (Enter /sw/apps/gaussian-16.0/g16/l301.exe)
 Standard basis: def2SVP (5D, 7F)
 Ernie: Thresh=  0.10000D-02 Tol=  0.10000D-05 Strict=F.
 There are  1658 symmetry adapted cartesian basis functions of A   symmetry.
 There are  1572 symmetry adapted basis functions of A   symmetry.
  1572 basis functions,  2678 primitive gaussians,  1658 cartesian basis functions
   312 alpha electrons      312 beta electrons
       nuclear repulsion energy     15093.9918238816 Hartrees.
 IExCor=20419 DFT=T Ex+Corr=CAM-B3LYP ExCW=0 ScaHFX=  1.000000
 ScaDFX=  1.000000  1.000000  1.000000  0.810000 ScalE2=  1.000000  1.000000
 IRadAn=      5 IRanWt=     -1 IRanGd=            0 ICorTp=0 IEmpDi=  4
 HFx  wShort=  0.000000 wLong=  0.330000 cFull=  0.190000 cShort=  0.000000 cLong=  0.460000
 DFx  wShort=  0.000000 wLong=  0.330000 cFull=  0.190000 cShort=  0.000000 cLong=  0.460000
 NAtoms=  158 NActive=  158 NUniq=  158 SFac= 1.00D+00 NAtFMM=   60 NAOKFM=T Big=T
 Integral buffers will be    131072 words long.
 Raffenetti 1 integral format.
 Two-electron integral symmetry is turned on.
 Leave Link  301 at Fri Sep 10 09:12:49 2021, MaxMem= 23488102400 cpu:               1.3 elap:               0.1
 (Enter /sw/apps/gaussian-16.0/g16/l302.exe)
 NPDir=0 NMtPBC=     1 NCelOv=     1 NCel=       1 NClECP=     1 NCelD=      1
         NCelK=      1 NCelE2=     1 NClLst=     1 CellRange=     0.0.
 One-electron integrals computed using PRISM.
 One-electron integral symmetry used in STVInt
   1 Symmetry operations used in ECPInt.
 ECPInt:  NShTT=  271216 NPrTT=  987664 LenC2=  139451 LenP2D=  297997.
 LDataN:  DoStor=T MaxTD1= 4 Len=   56
 NBasis=  1572 RedAO= T EigKep=  3.34D-04  NBF=  1572
 NBsUse=  1572 1.00D-06 EigRej= -1.00D+00 NBFU=  1572
 Precomputing XC quadrature grid using
 IXCGrd= 4 IRadAn=           5 IRanWt=          -1 IRanGd=           0 AccXCQ= 0.00D+00.
 Generated NRdTot=       0 NPtTot=           0 NUsed=           0 NTot=          32
 NSgBfM=  1444  1444  1444  1444  1444 MxSgAt=   158 MxSgA2=   158.
 Leave Link  302 at Fri Sep 10 09:12:54 2021, MaxMem= 23488102400 cpu:             122.6 elap:               5.1
 (Enter /sw/apps/gaussian-16.0/g16/l303.exe)
 DipDrv:  MaxL=1.
 Leave Link  303 at Fri Sep 10 09:12:55 2021, MaxMem= 23488102400 cpu:               8.5 elap:               0.4
 (Enter /sw/apps/gaussian-16.0/g16/l308.exe)
 Leave Link  308 at Fri Sep 10 09:12:55 2021, MaxMem= 23488102400 cpu:              16.3 elap:               0.8
 (Enter /sw/apps/gaussian-16.0/g16/l401.exe)
 ExpMin= 3.36D-02 ExpMax= 4.95D+03 ExpMxC= 7.45D+02 IAcc=3 IRadAn=         5 AccDes= 0.00D+00
 Harris functional with IExCor=20419 and IRadAn=       5 diagonalized for initial guess.
 HarFok:  IExCor=20419 AccDes= 0.00D+00 IRadAn=         5 IDoV= 1 UseB2=F ITyADJ=14
 ICtDFT=  3500011 ScaDFX=  1.000000  1.000000  1.000000  1.000000
 FoFCou: FMM=F IPFlag=           0 FMFlag=      100000 FMFlg1=        2001
         NFxFlg=           0 DoJE=T BraDBF=F KetDBF=T FulRan=T
         wScrn=  0.000000 ICntrl=       500 IOpCl=  0 I1Cent=   200000004 NGrid=           0
         NMat0=    1 NMatS0=      1 NMatT0=    0 NMatD0=    1 NMtDS0=    0 NMtDT0=    0
 Petite list used in FoFCou.
 Harris En= -3918.65961582303    
 JPrj=0 DoOrth=F DoCkMO=F.
 Leave Link  401 at Fri Sep 10 09:13:03 2021, MaxMem= 23488102400 cpu:             187.3 elap:               7.8
 (Enter /sw/apps/gaussian-16.0/g16/l502.exe)
 Integral symmetry usage will be decided dynamically.
 Closed shell SCF:
 Using DIIS extrapolation, IDIIS=  1040.
 NGot= 23488102400 LenX= 23482547354 LenY= 23479796732
 Requested convergence on RMS density matrix=1.00D-08 within 128 cycles.
 Requested convergence on MAX density matrix=1.00D-06.
 Requested convergence on             energy=1.00D-06.
 No special actions if energy rises.
 Fock matrices will be formed incrementally for  20 cycles.

 Cycle   1  Pass 1  IDiag  1:
 FoFJK:  IHMeth= 1 ICntrl=       0 DoSepK=T KAlg= 0 I1Cent=           0 FoldK=F
 IRaf=         1 NMat=       1 IRICut=       1 DoRegI=T DoRafI=F ISym2E= 0 IDoP0=0 IntGTp=1.
 FoFCou: FMM=T IPFlag=           0 FMFlag=      100000 FMFlg1=        2001
         NFxFlg=           0 DoJE=T BraDBF=F KetDBF=F FulRan=T
         wScrn=  0.000000 ICntrl=       500 IOpCl=  0 I1Cent=           0 NGrid=           0
         NMat0=    1 NMatS0=      1 NMatT0=    0 NMatD0=    1 NMtDS0=    0 NMtDT0=    0
 Symmetry not used in FoFCou.
 FMM levels:  10  Number of levels for PrismC:   9
 E= -4068.95037710313    
 DIIS: error= 2.30D-02 at cycle   1 NSaved=   1.
 NSaved= 1 IEnMin= 1 EnMin= -4068.95037710313     IErMin= 1 ErrMin= 2.30D-02
 ErrMax= 2.30D-02  0.00D+00 EMaxC= 1.00D-01 BMatC= 1.69D+00 BMatP= 1.69D+00
 IDIUse=3 WtCom= 7.70D-01 WtEn= 2.30D-01
 Coeff-Com:  0.100D+01
 Coeff-En:   0.100D+01
 Coeff:      0.100D+01
 Gap=     0.121 Goal=   None    Shift=    0.000
 GapD=    0.121 DampG=1.000 DampE=0.500 DampFc=0.5000 IDamp=-1.
 Damping current iteration by 5.00D-01
 RMSDP=1.58D-03 MaxDP=1.36D-01              OVMax= 2.02D-01

 Cycle   2  Pass 1  IDiag  1:
 RMSU=  7.75D-04    CP:  9.82D-01
 E= -4069.33953873124     Delta-E=       -0.389161628107 Rises=F Damp=T
 DIIS: error= 1.39D-02 at cycle   2 NSaved=   2.
 NSaved= 2 IEnMin= 2 EnMin= -4069.33953873124     IErMin= 2 ErrMin= 1.39D-02
 ErrMax= 1.39D-02  0.00D+00 EMaxC= 1.00D-01 BMatC= 3.07D-01 BMatP= 1.69D+00
 IDIUse=3 WtCom= 8.61D-01 WtEn= 1.39D-01
 Coeff-Com: -0.213D+00 0.121D+01
 Coeff-En:   0.000D+00 0.100D+01
 Coeff:     -0.183D+00 0.118D+01
 Gap=     0.132 Goal=   None    Shift=    0.000
 RMSDP=7.68D-04 MaxDP=9.42D-02 DE=-3.89D-01 OVMax= 1.92D-01

 Cycle   3  Pass 1  IDiag  1:
 RMSU=  7.35D-04    CP:  9.68D-01  1.24D+00
 E= -4069.63140399465     Delta-E=       -0.291865263411 Rises=F Damp=F
 DIIS: error= 1.55D-02 at cycle   3 NSaved=   3.
 NSaved= 3 IEnMin= 3 EnMin= -4069.63140399465     IErMin= 2 ErrMin= 1.39D-02
 ErrMax= 1.55D-02  0.00D+00 EMaxC= 1.00D-01 BMatC= 1.99D-01 BMatP= 3.07D-01
 IDIUse=3 WtCom= 8.45D-01 WtEn= 1.55D-01
 Coeff-Com: -0.266D+00 0.649D+00 0.617D+00
 Coeff-En:   0.000D+00 0.000D+00 0.100D+01
 Coeff:     -0.225D+00 0.548D+00 0.676D+00
 Gap=     0.120 Goal=   None    Shift=    0.000
 RMSDP=5.08D-04 MaxDP=4.94D-02 DE=-2.92D-01 OVMax= 1.47D-01

 Cycle   4  Pass 1  IDiag  1:
 RMSU=  2.67D-04    CP:  9.64D-01  1.54D+00  5.07D-01
 E= -4069.76773599487     Delta-E=       -0.136332000224 Rises=F Damp=F
 DIIS: error= 7.06D-03 at cycle   4 NSaved=   4.
 NSaved= 4 IEnMin= 4 EnMin= -4069.76773599487     IErMin= 4 ErrMin= 7.06D-03
 ErrMax= 7.06D-03  0.00D+00 EMaxC= 1.00D-01 BMatC= 4.94D-02 BMatP= 1.99D-01
 IDIUse=3 WtCom= 9.29D-01 WtEn= 7.06D-02
 Coeff-Com: -0.108D+00 0.225D+00 0.408D+00 0.475D+00
 Coeff-En:   0.000D+00 0.000D+00 0.220D+00 0.780D+00
 Coeff:     -0.101D+00 0.209D+00 0.395D+00 0.497D+00
 Gap=     0.119 Goal=   None    Shift=    0.000
 RMSDP=2.00D-04 MaxDP=2.01D-02 DE=-1.36D-01 OVMax= 6.60D-02

 Cycle   5  Pass 1  IDiag  1:
 RMSU=  7.55D-05    CP:  9.64D-01  1.49D+00  6.90D-01  5.51D-01
 E= -4069.81269585612     Delta-E=       -0.044959861250 Rises=F Damp=F
 DIIS: error= 7.49D-04 at cycle   5 NSaved=   5.
 NSaved= 5 IEnMin= 5 EnMin= -4069.81269585612     IErMin= 5 ErrMin= 7.49D-04
 ErrMax= 7.49D-04  0.00D+00 EMaxC= 1.00D-01 BMatC= 1.15D-03 BMatP= 4.94D-02
 IDIUse=3 WtCom= 9.93D-01 WtEn= 7.49D-03
 Coeff-Com: -0.358D-01 0.702D-01 0.165D+00 0.249D+00 0.551D+00
 Coeff-En:   0.000D+00 0.000D+00 0.000D+00 0.000D+00 0.100D+01
 Coeff:     -0.355D-01 0.696D-01 0.164D+00 0.247D+00 0.555D+00
 Gap=     0.118 Goal=   None    Shift=    0.000
 RMSDP=4.07D-05 MaxDP=4.27D-03 DE=-4.50D-02 OVMax= 1.77D-02

 Cycle   6  Pass 1  IDiag  1:
 RMSU=  3.01D-05    CP:  9.64D-01  1.49D+00  6.82D-01  6.22D-01  7.59D-01
 E= -4069.81370076616     Delta-E=       -0.001004910031 Rises=F Damp=F
 DIIS: error= 2.01D-04 at cycle   6 NSaved=   6.
 NSaved= 6 IEnMin= 6 EnMin= -4069.81370076616     IErMin= 6 ErrMin= 2.01D-04
 ErrMax= 2.01D-04  0.00D+00 EMaxC= 1.00D-01 BMatC= 1.73D-04 BMatP= 1.15D-03
 IDIUse=3 WtCom= 9.98D-01 WtEn= 2.01D-03
 Coeff-Com:  0.225D-02-0.666D-02 0.107D-01 0.391D-01 0.305D+00 0.650D+00
 Coeff-En:   0.000D+00 0.000D+00 0.000D+00 0.000D+00 0.104D+00 0.896D+00
 Coeff:      0.225D-02-0.665D-02 0.107D-01 0.391D-01 0.304D+00 0.650D+00
 Gap=     0.119 Goal=   None    Shift=    0.000
 RMSDP=1.59D-05 MaxDP=1.24D-03 DE=-1.00D-03 OVMax= 8.20D-03

 Cycle   7  Pass 1  IDiag  1:
 RMSU=  1.06D-05    CP:  9.64D-01  1.50D+00  6.88D-01  6.21D-01  8.61D-01
                    CP:  7.47D-01
 E= -4069.81388849268     Delta-E=       -0.000187726520 Rises=F Damp=F
 DIIS: error= 7.62D-05 at cycle   7 NSaved=   7.
 NSaved= 7 IEnMin= 7 EnMin= -4069.81388849268     IErMin= 7 ErrMin= 7.62D-05
 ErrMax= 7.62D-05  0.00D+00 EMaxC= 1.00D-01 BMatC= 2.07D-05 BMatP= 1.73D-04
 IDIUse=1 WtCom= 1.00D+00 WtEn= 0.00D+00
 Coeff-Com:  0.439D-02-0.962D-02-0.892D-02-0.386D-02 0.101D+00 0.332D+00
 Coeff-Com:  0.585D+00
 Coeff:      0.439D-02-0.962D-02-0.892D-02-0.386D-02 0.101D+00 0.332D+00
 Coeff:      0.585D+00
 Gap=     0.119 Goal=   None    Shift=    0.000
 RMSDP=6.30D-06 MaxDP=1.12D-03 DE=-1.88D-04 OVMax= 3.46D-03

 Cycle   8  Pass 1  IDiag  1:
 RMSU=  4.53D-06    CP:  9.64D-01  1.50D+00  6.88D-01  6.26D-01  8.65D-01
                    CP:  8.69D-01  8.21D-01
 E= -4069.81391364311     Delta-E=       -0.000025150435 Rises=F Damp=F
 DIIS: error= 5.36D-05 at cycle   8 NSaved=   8.
 NSaved= 8 IEnMin= 8 EnMin= -4069.81391364311     IErMin= 8 ErrMin= 5.36D-05
 ErrMax= 5.36D-05  0.00D+00 EMaxC= 1.00D-01 BMatC= 4.45D-06 BMatP= 2.07D-05
 IDIUse=1 WtCom= 1.00D+00 WtEn= 0.00D+00
 Coeff-Com:  0.212D-02-0.419D-02-0.768D-02-0.120D-01-0.125D-01 0.354D-01
 Coeff-Com:  0.336D+00 0.663D+00
 Coeff:      0.212D-02-0.419D-02-0.768D-02-0.120D-01-0.125D-01 0.354D-01
 Coeff:      0.336D+00 0.663D+00
 Gap=     0.119 Goal=   None    Shift=    0.000
 RMSDP=3.22D-06 MaxDP=4.20D-04 DE=-2.52D-05 OVMax= 1.36D-03

 Cycle   9  Pass 1  IDiag  1:
 RMSU=  1.86D-06    CP:  9.64D-01  1.50D+00  6.89D-01  6.27D-01  8.82D-01
                    CP:  8.95D-01  1.02D+00  9.31D-01
 E= -4069.81392061100     Delta-E=       -0.000006967886 Rises=F Damp=F
 DIIS: error= 2.06D-05 at cycle   9 NSaved=   9.
 NSaved= 9 IEnMin= 9 EnMin= -4069.81392061100     IErMin= 9 ErrMin= 2.06D-05
 ErrMax= 2.06D-05  0.00D+00 EMaxC= 1.00D-01 BMatC= 6.57D-07 BMatP= 4.45D-06
 IDIUse=1 WtCom= 1.00D+00 WtEn= 0.00D+00
 Coeff-Com:  0.487D-03-0.821D-03-0.272D-02-0.594D-02-0.213D-01-0.348D-01
 Coeff-Com:  0.101D+00 0.339D+00 0.625D+00
 Coeff:      0.487D-03-0.821D-03-0.272D-02-0.594D-02-0.213D-01-0.348D-01
 Coeff:      0.101D+00 0.339D+00 0.625D+00
 Gap=     0.119 Goal=   None    Shift=    0.000
 RMSDP=1.28D-06 MaxDP=1.37D-04 DE=-6.97D-06 OVMax= 6.87D-04

 Cycle  10  Pass 1  IDiag  1:
 RMSU=  8.82D-07    CP:  9.64D-01  1.50D+00  6.89D-01  6.28D-01  8.85D-01
                    CP:  9.06D-01  1.06D+00  1.08D+00  1.02D+00
 E= -4069.81392198174     Delta-E=       -0.000001370747 Rises=F Damp=F
 DIIS: error= 1.06D-05 at cycle  10 NSaved=  10.
 NSaved=10 IEnMin=10 EnMin= -4069.81392198174     IErMin=10 ErrMin= 1.06D-05
 ErrMax= 1.06D-05  0.00D+00 EMaxC= 1.00D-01 BMatC= 1.34D-07 BMatP= 6.57D-07
 IDIUse=1 WtCom= 1.00D+00 WtEn= 0.00D+00
 Coeff-Com: -0.389D-03 0.818D-03 0.110D-02 0.981D-03-0.410D-02-0.287D-01
 Coeff-Com: -0.458D-01-0.589D-01 0.239D+00 0.896D+00
 Coeff:     -0.389D-03 0.818D-03 0.110D-02 0.981D-03-0.410D-02-0.287D-01
 Coeff:     -0.458D-01-0.589D-01 0.239D+00 0.896D+00
 Gap=     0.119 Goal=   None    Shift=    0.000
 RMSDP=1.09D-06 MaxDP=1.32D-04 DE=-1.37D-06 OVMax= 5.70D-04

 Cycle  11  Pass 1  IDiag  1:
 RMSU=  4.74D-07    CP:  9.64D-01  1.50D+00  6.89D-01  6.28D-01  8.87D-01
                    CP:  9.16D-01  1.10D+00  1.18D+00  1.33D+00  1.34D+00
 E= -4069.81392259049     Delta-E=       -0.000000608747 Rises=F Damp=F
 DIIS: error= 3.47D-06 at cycle  11 NSaved=  11.
 NSaved=11 IEnMin=11 EnMin= -4069.81392259049     IErMin=11 ErrMin= 3.47D-06
 ErrMax= 3.47D-06  0.00D+00 EMaxC= 1.00D-01 BMatC= 4.88D-08 BMatP= 1.34D-07
 IDIUse=1 WtCom= 1.00D+00 WtEn= 0.00D+00
 Coeff-Com: -0.304D-03 0.594D-03 0.121D-02 0.193D-02 0.365D-02-0.828D-02
 Coeff-Com: -0.424D-01-0.116D+00-0.229D-01 0.469D+00 0.713D+00
 Coeff:     -0.304D-03 0.594D-03 0.121D-02 0.193D-02 0.365D-02-0.828D-02
 Coeff:     -0.424D-01-0.116D+00-0.229D-01 0.469D+00 0.713D+00
 Gap=     0.119 Goal=   None    Shift=    0.000
 RMSDP=5.75D-07 MaxDP=4.87D-05 DE=-6.09D-07 OVMax= 3.13D-04

 Cycle  12  Pass 1  IDiag  1:
 RMSU=  2.42D-07    CP:  9.64D-01  1.50D+00  6.89D-01  6.28D-01  8.88D-01
                    CP:  9.17D-01  1.12D+00  1.24D+00  1.46D+00  1.69D+00
                    CP:  1.17D+00
 E= -4069.81392278307     Delta-E=       -0.000000192576 Rises=F Damp=F
 DIIS: error= 2.16D-06 at cycle  12 NSaved=  12.
 NSaved=12 IEnMin=12 EnMin= -4069.81392278307     IErMin=12 ErrMin= 2.16D-06
 ErrMax= 2.16D-06  0.00D+00 EMaxC= 1.00D-01 BMatC= 1.07D-08 BMatP= 4.88D-08
 IDIUse=1 WtCom= 1.00D+00 WtEn= 0.00D+00
 Coeff-Com: -0.120D-04 0.962D-05 0.199D-03 0.512D-03 0.290D-02 0.314D-02
 Coeff-Com:  0.355D-03-0.323D-01-0.651D-01-0.469D-01 0.246D+00 0.891D+00
 Coeff:     -0.120D-04 0.962D-05 0.199D-03 0.512D-03 0.290D-02 0.314D-02
 Coeff:      0.355D-03-0.323D-01-0.651D-01-0.469D-01 0.246D+00 0.891D+00
 Gap=     0.119 Goal=   None    Shift=    0.000
 RMSDP=3.64D-07 MaxDP=2.97D-05 DE=-1.93D-07 OVMax= 2.22D-04

 Cycle  13  Pass 1  IDiag  1:
 RMSU=  1.53D-07    CP:  9.64D-01  1.50D+00  6.89D-01  6.28D-01  8.88D-01
                    CP:  9.17D-01  1.12D+00  1.26D+00  1.55D+00  1.89D+00
                    CP:  1.56D+00  1.23D+00
 E= -4069.81392284922     Delta-E=       -0.000000066153 Rises=F Damp=F
 DIIS: error= 1.31D-06 at cycle  13 NSaved=  13.
 NSaved=13 IEnMin=13 EnMin= -4069.81392284922     IErMin=13 ErrMin= 1.31D-06
 ErrMax= 1.31D-06  0.00D+00 EMaxC= 1.00D-01 BMatC= 6.98D-09 BMatP= 1.07D-08
 IDIUse=1 WtCom= 1.00D+00 WtEn= 0.00D+00
 Coeff-Com:  0.107D-03-0.220D-03-0.323D-03-0.386D-03 0.627D-03 0.472D-02
 Coeff-Com:  0.178D-01 0.201D-01-0.364D-01-0.225D+00-0.150D+00 0.619D+00
 Coeff-Com:  0.751D+00
 Coeff:      0.107D-03-0.220D-03-0.323D-03-0.386D-03 0.627D-03 0.472D-02
 Coeff:      0.178D-01 0.201D-01-0.364D-01-0.225D+00-0.150D+00 0.619D+00
 Coeff:      0.751D+00
 Gap=     0.119 Goal=   None    Shift=    0.000
 RMSDP=2.83D-07 MaxDP=1.64D-05 DE=-6.62D-08 OVMax= 1.59D-04

 Cycle  14  Pass 1  IDiag  1:
 RMSU=  7.30D-08    CP:  9.64D-01  1.50D+00  6.89D-01  6.28D-01  8.88D-01
                    CP:  9.18D-01  1.13D+00  1.28D+00  1.61D+00  2.06D+00
                    CP:  1.79D+00  1.74D+00  1.06D+00
 E= -4069.81392287744     Delta-E=       -0.000000028220 Rises=F Damp=F
 DIIS: error= 8.85D-07 at cycle  14 NSaved=  14.
 NSaved=14 IEnMin=14 EnMin= -4069.81392287744     IErMin=14 ErrMin= 8.85D-07
 ErrMax= 8.85D-07  0.00D+00 EMaxC= 1.00D-01 BMatC= 1.01D-09 BMatP= 6.98D-09
 IDIUse=1 WtCom= 1.00D+00 WtEn= 0.00D+00
 Coeff-Com:  0.649D-04-0.128D-03-0.236D-03-0.363D-03-0.409D-03 0.141D-02
 Coeff-Com:  0.105D-01 0.188D-01 0.224D-03-0.101D+00-0.150D+00 0.117D+00
 Coeff-Com:  0.385D+00 0.720D+00
 Coeff:      0.649D-04-0.128D-03-0.236D-03-0.363D-03-0.409D-03 0.141D-02
 Coeff:      0.105D-01 0.188D-01 0.224D-03-0.101D+00-0.150D+00 0.117D+00
 Coeff:      0.385D+00 0.720D+00
 Gap=     0.119 Goal=   None    Shift=    0.000
 RMSDP=9.84D-08 MaxDP=6.53D-06 DE=-2.82D-08 OVMax= 6.10D-05

 Cycle  15  Pass 1  IDiag  1:
 RMSU=  3.60D-08    CP:  9.64D-01  1.50D+00  6.89D-01  6.28D-01  8.88D-01
                    CP:  9.18D-01  1.13D+00  1.28D+00  1.63D+00  2.10D+00
                    CP:  1.90D+00  1.89D+00  1.30D+00  9.87D-01
 E= -4069.81392288133     Delta-E=       -0.000000003885 Rises=F Damp=F
 DIIS: error= 4.43D-07 at cycle  15 NSaved=  15.
 NSaved=15 IEnMin=15 EnMin= -4069.81392288133     IErMin=15 ErrMin= 4.43D-07
 ErrMax= 4.43D-07  0.00D+00 EMaxC= 1.00D-01 BMatC= 2.47D-10 BMatP= 1.01D-09
 IDIUse=1 WtCom= 1.00D+00 WtEn= 0.00D+00
 Coeff-Com:  0.116D-04-0.214D-04-0.534D-04-0.109D-03-0.317D-03-0.324D-03
 Coeff-Com:  0.202D-02 0.461D-02 0.745D-02-0.642D-02-0.461D-01-0.559D-01
 Coeff-Com:  0.370D-01 0.368D+00 0.691D+00
 Coeff:      0.116D-04-0.214D-04-0.534D-04-0.109D-03-0.317D-03-0.324D-03
 Coeff:      0.202D-02 0.461D-02 0.745D-02-0.642D-02-0.461D-01-0.559D-01
 Coeff:      0.370D-01 0.368D+00 0.691D+00
 Gap=     0.119 Goal=   None    Shift=    0.000
 RMSDP=3.63D-08 MaxDP=2.42D-06 DE=-3.89D-09 OVMax= 2.08D-05

 Cycle  16  Pass 1  IDiag  1:
 RMSU=  1.74D-08    CP:  9.64D-01  1.50D+00  6.89D-01  6.28D-01  8.88D-01
                    CP:  9.18D-01  1.13D+00  1.28D+00  1.63D+00  2.12D+00
                    CP:  1.93D+00  1.95D+00  1.37D+00  1.20D+00  1.08D+00
 E= -4069.81392288202     Delta-E=       -0.000000000698 Rises=F Damp=F
 DIIS: error= 1.93D-07 at cycle  16 NSaved=  16.
 NSaved=16 IEnMin=16 EnMin= -4069.81392288202     IErMin=16 ErrMin= 1.93D-07
 ErrMax= 1.93D-07  0.00D+00 EMaxC= 1.00D-01 BMatC= 6.39D-11 BMatP= 2.47D-10
 IDIUse=1 WtCom= 1.00D+00 WtEn= 0.00D+00
 Coeff-Com: -0.109D-04 0.222D-04 0.349D-04 0.355D-04-0.534D-04-0.572D-03
 Coeff-Com: -0.153D-02-0.308D-02 0.423D-02 0.225D-01 0.138D-01-0.589D-01
 Coeff-Com: -0.845D-01 0.144D-01 0.349D+00 0.745D+00
 Coeff:     -0.109D-04 0.222D-04 0.349D-04 0.355D-04-0.534D-04-0.572D-03
 Coeff:     -0.153D-02-0.308D-02 0.423D-02 0.225D-01 0.138D-01-0.589D-01
 Coeff:     -0.845D-01 0.144D-01 0.349D+00 0.745D+00
 Gap=     0.119 Goal=   None    Shift=    0.000
 RMSDP=2.14D-08 MaxDP=1.69D-06 DE=-6.98D-10 OVMax= 1.59D-05

 Cycle  17  Pass 1  IDiag  1:
 RMSU=  1.06D-08    CP:  9.64D-01  1.50D+00  6.89D-01  6.28D-01  8.88D-01
                    CP:  9.18D-01  1.13D+00  1.28D+00  1.63D+00  2.12D+00
                    CP:  1.94D+00  1.98D+00  1.41D+00  1.28D+00  1.36D+00
                    CP:  1.15D+00
 E= -4069.81392288214     Delta-E=       -0.000000000116 Rises=F Damp=F
 DIIS: error= 9.73D-08 at cycle  17 NSaved=  17.
 NSaved=17 IEnMin=17 EnMin= -4069.81392288214     IErMin=17 ErrMin= 9.73D-08
 ErrMax= 9.73D-08  0.00D+00 EMaxC= 1.00D-01 BMatC= 1.96D-11 BMatP= 6.39D-11
 IDIUse=1 WtCom= 1.00D+00 WtEn= 0.00D+00
 Coeff-Com: -0.824D-05 0.163D-04 0.312D-04 0.433D-04 0.589D-04-0.223D-03
 Coeff-Com: -0.115D-02-0.292D-02 0.802D-03 0.129D-01 0.184D-01-0.152D-01
 Coeff-Com: -0.524D-01-0.807D-01-0.117D-01 0.387D+00 0.745D+00
 Coeff:     -0.824D-05 0.163D-04 0.312D-04 0.433D-04 0.589D-04-0.223D-03
 Coeff:     -0.115D-02-0.292D-02 0.802D-03 0.129D-01 0.184D-01-0.152D-01
 Coeff:     -0.524D-01-0.807D-01-0.117D-01 0.387D+00 0.745D+00
 Gap=     0.119 Goal=   None    Shift=    0.000
 RMSDP=1.17D-08 MaxDP=7.18D-07 DE=-1.16D-10 OVMax= 6.18D-06

 Cycle  18  Pass 1  IDiag  1:
 RMSU=  5.08D-09    CP:  9.64D-01  1.50D+00  6.89D-01  6.28D-01  8.88D-01
                    CP:  9.18D-01  1.13D+00  1.28D+00  1.63D+00  2.12D+00
                    CP:  1.95D+00  1.99D+00  1.43D+00  1.33D+00  1.50D+00
                    CP:  1.52D+00  1.29D+00
 E= -4069.81392288221     Delta-E=       -0.000000000069 Rises=F Damp=F
 DIIS: error= 6.01D-08 at cycle  18 NSaved=  18.
 NSaved=18 IEnMin=18 EnMin= -4069.81392288221     IErMin=18 ErrMin= 6.01D-08
 ErrMax= 6.01D-08  0.00D+00 EMaxC= 1.00D-01 BMatC= 5.67D-12 BMatP= 1.96D-11
 IDIUse=1 WtCom= 1.00D+00 WtEn= 0.00D+00
 Coeff-Com: -0.306D-06 0.298D-06 0.382D-05 0.876D-05 0.613D-04 0.928D-04
 Coeff-Com:  0.558D-04-0.535D-03-0.904D-03-0.207D-02 0.401D-02 0.146D-01
 Coeff-Com:  0.454D-02-0.410D-01-0.135D+00-0.548D-01 0.325D+00 0.887D+00
 Coeff:     -0.306D-06 0.298D-06 0.382D-05 0.876D-05 0.613D-04 0.928D-04
 Coeff:      0.558D-04-0.535D-03-0.904D-03-0.207D-02 0.401D-02 0.146D-01
 Coeff:      0.454D-02-0.410D-01-0.135D+00-0.548D-01 0.325D+00 0.887D+00
 Gap=     0.119 Goal=   None    Shift=    0.000
 RMSDP=9.15D-09 MaxDP=7.27D-07 DE=-6.91D-11 OVMax= 6.66D-06

 SCF Done:  E(RCAM-B3LYP) =  -4069.81392288     A.U. after   18 cycles
            NFock= 18  Conv=0.92D-08     -V/T= 2.0102
 KE= 4.028791983539D+03 PE=-3.966892981149D+04 EE= 1.647633208118D+04
 Leave Link  502 at Fri Sep 10 09:23:42 2021, MaxMem= 23488102400 cpu:           14762.8 elap:             639.1
 (Enter /sw/apps/gaussian-16.0/g16/l801.exe)
 DoSCS=F DFT=T ScalE2(SS,OS)=  1.000000  1.000000
 ExpMin= 3.36D-02 ExpMax= 4.95D+03 ExpMxC= 7.45D+02 IAcc=3 IRadAn=         5 AccDes= 0.00D+00
 HarFok:  IExCor=  205 AccDes= 0.00D+00 IRadAn=         5 IDoV=-2 UseB2=F ITyADJ=14
 ICtDFT= 12500011 ScaDFX=  1.000000  1.000000  1.000000  1.000000
 GSVD:  LWork=       -9588 too small for GESVD, short by       45590 words or       45590 for optimal perf.
 Largest valence mixing into a core orbital is  2.03D-04
 Largest core mixing into a valence orbital is  5.22D-05
 Range of M.O.s used for correlation:    95  1572
 NBasis=  1572 NAE=   312 NBE=   312 NFC=    94 NFV=     0
 NROrb=   1478 NOA=   218 NOB=   218 NVA=  1260 NVB=  1260
 Leave Link  801 at Fri Sep 10 09:23:43 2021, MaxMem= 23488102400 cpu:               8.3 elap:               0.4
 (Enter /sw/apps/gaussian-16.0/g16/l914.exe)
 RHF ground state
 Two-electron integrals replicated using symmetry.
 MDV= 23488102400 DFT=T DoStab=F Mixed=T DoRPA=T DoScal=F NonHer=T
 Making orbital integer symmetry assigments:
 Orbital symmetries:
       Occupied  (A) (A) (A) (A) (A) (A) (A) (A) (A) (A) (A) (A)
                 (A) (A) (A) (A) (A) (A) (A) (A) (A) (A) (A) (A)
                 (A) (A) (A) (A) (A) (A) (A) (A) (A) (A) (A) (A)
                 (A) (A) (A) (A) (A) (A) (A) (A) (A) (A) (A) (A)
                 (A) (A) (A) (A) (A) (A) (A) (A) (A) (A) (A) (A)
                 (A) (A) (A) (A) (A) (A) (A) (A) (A) (A) (A) (A)
                 (A) (A) (A) (A) (A) (A) (A) (A) (A) (A) (A) (A)
                 (A) (A) (A) (A) (A) (A) (A) (A) (A) (A) (A) (A)
                 (A) (A) (A) (A) (A) (A) (A) (A) (A) (A) (A) (A)
                 (A) (A) (A) (A) (A) (A) (A) (A) (A) (A) (A) (A)
                 (A) (A) (A) (A) (A) (A) (A) (A) (A) (A) (A) (A)
                 (A) (A) (A) (A) (A) (A) (A) (A) (A) (A) (A) (A)
                 (A) (A) (A) (A) (A) (A) (A) (A) (A) (A) (A) (A)
                 (A) (A) (A) (A) (A) (A) (A) (A) (A) (A) (A) (A)
                 (A) (A) (A) (A) (A) (A) (A) (A) (A) (A) (A) (A)
                 (A) (A) (A) (A) (A) (A) (A) (A) (A) (A) (A) (A)
                 (A) (A) (A) (A) (A) (A) (A) (A) (A) (A) (A) (A)
                 (A) (A) (A) (A) (A) (A) (A) (A) (A) (A) (A) (A)
                 (A) (A) (A) (A) (A) (A) (A) (A) (A) (A) (A) (A)
                 (A) (A) (A) (A) (A) (A) (A) (A) (A) (A) (A) (A)
                 (A) (A) (A) (A) (A) (A) (A) (A) (A) (A) (A) (A)
                 (A) (A) (A) (A) (A) (A) (A) (A) (A) (A) (A) (A)
                 (A) (A) (A) (A) (A) (A) (A) (A) (A) (A) (A) (A)
                 (A) (A) (A) (A) (A) (A) (A) (A) (A) (A) (A) (A)
                 (A) (A) (A) (A) (A) (A) (A) (A) (A) (A) (A) (A)
                 (A) (A) (A) (A) (A) (A) (A) (A) (A) (A) (A) (A)
       Virtual   (A) (A) (A) (A) (A) (A) (A) (A) (A) (A) (A) (A)
                 (A) (A) (A) (A) (A) (A) (A) (A) (A) (A) (A) (A)
                 (A) (A) (A) (A) (A) (A) (A) (A) (A) (A) (A) (A)
                 (A) (A) (A) (A) (A) (A) (A) (A) (A) (A) (A) (A)
                 (A) (A) (A) (A) (A) (A) (A) (A) (A) (A) (A) (A)
                 (A) (A) (A) (A) (A) (A) (A) (A) (A) (A) (A) (A)
                 (A) (A) (A) (A) (A) (A) (A) (A) (A) (A) (A) (A)
                 (A) (A) (A) (A) (A) (A) (A) (A) (A) (A) (A) (A)
                 (A) (A) (A) (A) (A) (A) (A) (A) (A) (A) (A) (A)
                 (A) (A) (A) (A) (A) (A) (A) (A) (A) (A) (A) (A)
                 (A) (A) (A) (A) (A) (A) (A) (A) (A) (A) (A) (A)
                 (A) (A) (A) (A) (A) (A) (A) (A) (A) (A) (A) (A)
                 (A) (A) (A) (A) (A) (A) (A) (A) (A) (A) (A) (A)
                 (A) (A) (A) (A) (A) (A) (A) (A) (A) (A) (A) (A)
                 (A) (A) (A) (A) (A) (A) (A) (A) (A) (A) (A) (A)
                 (A) (A) (A) (A) (A) (A) (A) (A) (A) (A) (A) (A)
                 (A) (A) (A) (A) (A) (A) (A) (A) (A) (A) (A) (A)
                 (A) (A) (A) (A) (A) (A) (A) (A) (A) (A) (A) (A)
                 (A) (A) (A) (A) (A) (A) (A) (A) (A) (A) (A) (A)
                 (A) (A) (A) (A) (A) (A) (A) (A) (A) (A) (A) (A)
                 (A) (A) (A) (A) (A) (A) (A) (A) (A) (A) (A) (A)
                 (A) (A) (A) (A) (A) (A) (A) (A) (A) (A) (A) (A)
                 (A) (A) (A) (A) (A) (A) (A) (A) (A) (A) (A) (A)
                 (A) (A) (A) (A) (A) (A) (A) (A) (A) (A) (A) (A)
                 (A) (A) (A) (A) (A) (A) (A) (A) (A) (A) (A) (A)
                 (A) (A) (A) (A) (A) (A) (A) (A) (A) (A) (A) (A)
                 (A) (A) (A) (A) (A) (A) (A) (A) (A) (A) (A) (A)
                 (A) (A) (A) (A) (A) (A) (A) (A) (A) (A) (A) (A)
                 (A) (A) (A) (A) (A) (A) (A) (A) (A) (A) (A) (A)
                 (A) (A) (A) (A) (A) (A) (A) (A) (A) (A) (A) (A)
                 (A) (A) (A) (A) (A) (A) (A) (A) (A) (A) (A) (A)
                 (A) (A) (A) (A) (A) (A) (A) (A) (A) (A) (A) (A)
                 (A) (A) (A) (A) (A) (A) (A) (A) (A) (A) (A) (A)
                 (A) (A) (A) (A) (A) (A) (A) (A) (A) (A) (A) (A)
                 (A) (A) (A) (A) (A) (A) (A) (A) (A) (A) (A) (A)
                 (A) (A) (A) (A) (A) (A) (A) (A) (A) (A) (A) (A)
                 (A) (A) (A) (A) (A) (A) (A) (A) (A) (A) (A) (A)
                 (A) (A) (A) (A) (A) (A) (A) (A) (A) (A) (A) (A)
                 (A) (A) (A) (A) (A) (A) (A) (A) (A) (A) (A) (A)
                 (A) (A) (A) (A) (A) (A) (A) (A) (A) (A) (A) (A)
                 (A) (A) (A) (A) (A) (A) (A) (A) (A) (A) (A) (A)
                 (A) (A) (A) (A) (A) (A) (A) (A) (A) (A) (A) (A)
                 (A) (A) (A) (A) (A) (A) (A) (A) (A) (A) (A) (A)
                 (A) (A) (A) (A) (A) (A) (A) (A) (A) (A) (A) (A)
                 (A) (A) (A) (A) (A) (A) (A) (A) (A) (A) (A) (A)
                 (A) (A) (A) (A) (A) (A) (A) (A) (A) (A) (A) (A)
                 (A) (A) (A) (A) (A) (A) (A) (A) (A) (A) (A) (A)
                 (A) (A) (A) (A) (A) (A) (A) (A) (A) (A) (A) (A)
                 (A) (A) (A) (A) (A) (A) (A) (A) (A) (A) (A) (A)
                 (A) (A) (A) (A) (A) (A) (A) (A) (A) (A) (A) (A)
                 (A) (A) (A) (A) (A) (A) (A) (A) (A) (A) (A) (A)
                 (A) (A) (A) (A) (A) (A) (A) (A) (A) (A) (A) (A)
                 (A) (A) (A) (A) (A) (A) (A) (A) (A) (A) (A) (A)
                 (A) (A) (A) (A) (A) (A) (A) (A) (A) (A) (A) (A)
                 (A) (A) (A) (A) (A) (A) (A) (A) (A) (A) (A) (A)
                 (A) (A) (A) (A) (A) (A) (A) (A) (A) (A) (A) (A)
                 (A) (A) (A) (A) (A) (A) (A) (A) (A) (A) (A) (A)
                 (A) (A) (A) (A) (A) (A) (A) (A) (A) (A) (A) (A)
                 (A) (A) (A) (A) (A) (A) (A) (A) (A) (A) (A) (A)
                 (A) (A) (A) (A) (A) (A) (A) (A) (A) (A) (A) (A)
                 (A) (A) (A) (A) (A) (A) (A) (A) (A) (A) (A) (A)
                 (A) (A) (A) (A) (A) (A) (A) (A) (A) (A) (A) (A)
                 (A) (A) (A) (A) (A) (A) (A) (A) (A) (A) (A) (A)
                 (A) (A) (A) (A) (A) (A) (A) (A) (A) (A) (A) (A)
                 (A) (A) (A) (A) (A) (A) (A) (A) (A) (A) (A) (A)
                 (A) (A) (A) (A) (A) (A) (A) (A) (A) (A) (A) (A)
                 (A) (A) (A) (A) (A) (A) (A) (A) (A) (A) (A) (A)
                 (A) (A) (A) (A) (A) (A) (A) (A) (A) (A) (A) (A)
                 (A) (A) (A) (A) (A) (A) (A) (A) (A) (A) (A) (A)
                 (A) (A) (A) (A) (A) (A) (A) (A) (A) (A) (A) (A)
                 (A) (A) (A) (A) (A) (A) (A) (A) (A) (A) (A) (A)
                 (A) (A) (A) (A) (A) (A) (A) (A) (A) (A) (A) (A)
                 (A) (A) (A) (A) (A) (A) (A) (A) (A) (A) (A) (A)
                 (A) (A) (A) (A) (A) (A) (A) (A) (A) (A) (A) (A)
                 (A) (A) (A) (A) (A) (A) (A) (A) (A) (A) (A) (A)
                 (A) (A) (A) (A) (A) (A) (A) (A) (A) (A) (A) (A)
                 (A) (A) (A) (A) (A) (A) (A) (A) (A) (A) (A) (A)
                 (A) (A) (A) (A) (A) (A) (A) (A) (A) (A) (A) (A)
                 (A) (A) (A) (A) (A) (A) (A) (A) (A) (A) (A) (A)
                 (A) (A) (A) (A) (A) (A) (A) (A) (A) (A) (A) (A)
                 (A) (A) (A) (A) (A) (A) (A) (A) (A) (A) (A) (A)
                 (A) (A) (A) (A) (A) (A) (A) (A) (A) (A) (A) (A)
                 (A) (A) (A) (A) (A) (A) (A) (A) (A) (A) (A) (A)
                 (A) (A) (A) (A) (A) (A) (A) (A) (A) (A) (A) (A)
                 (A) (A) (A) (A) (A) (A) (A) (A) (A) (A) (A) (A)
                 (A) (A) (A) (A) (A) (A) (A) (A) (A) (A) (A) (A)
                 (A) (A) (A) (A) (A) (A) (A) (A) (A) (A) (A) (A)
                 (A) (A) (A) (A) (A) (A) (A) (A) (A) (A) (A) (A)
                 (A) (A) (A) (A) (A) (A) (A) (A) (A) (A) (A) (A)
                 (A) (A) (A) (A) (A) (A) (A) (A) (A) (A) (A) (A)
                 (A) (A) (A) (A) (A) (A) (A) (A) (A) (A) (A) (A)
                 (A) (A) (A) (A) (A) (A) (A) (A) (A) (A) (A) (A)
                 (A) (A) (A) (A) (A) (A) (A) (A) (A) (A) (A) (A)
                 (A) (A) (A) (A) (A) (A) (A) (A) (A) (A) (A) (A)
                 (A) (A) (A) (A) (A) (A) (A) (A) (A) (A) (A) (A)
                 (A) (A) (A) (A) (A) (A) (A) (A) (A) (A) (A) (A)
                 (A) (A) (A) (A) (A) (A) (A) (A) (A) (A) (A) (A)
                 (A) (A) (A) (A) (A) (A) (A) (A) (A) (A) (A) (A)
                 (A) (A) (A) (A) (A) (A) (A) (A) (A) (A) (A) (A)
                 (A) (A) (A) (A) (A) (A) (A) (A) (A) (A) (A) (A)
                 (A) (A) (A) (A) (A) (A) (A) (A) (A) (A) (A) (A)
                 (A) (A) (A) (A) (A) (A) (A) (A) (A) (A) (A) (A)
                 (A) (A) (A) (A) (A) (A) (A) (A) (A) (A) (A) (A)
                 (A) (A) (A) (A) (A) (A) (A) (A) (A) (A) (A) (A)
                 (A) (A) (A) (A) (A) (A) (A) (A) (A) (A) (A) (A)
    20 initial guesses have been made.
 Convergence on wavefunction:    0.001000000000000
 Davidson Disk Diagonalization:  ConvIn= 1.00D-03 SkipCon=T Conv= 1.00D-03.
 Max sub-space:  2000 roots to seek:    20 dimension of matrix:       549360
 Iteration     1 Dimension    20 NMult     0 NNew     20
 CISAX will form    20 AO SS matrices at one time.
 NMat=    20 NSing=    20 JSym2X= 0.
 FoFJK:  IHMeth= 1 ICntrl=       0 DoSepK=T KAlg= 0 I1Cent=           0 FoldK=F
 IRaf=         1 NMat=      40 IRICut=       1 DoRegI=T DoRafI=F ISym2E= 0 IDoP0=3 IntGTp=3.
 FoFCou: FMM=T IPFlag=           0 FMFlag=      100000 FMFlg1=        2001
         NFxFlg=           0 DoJE=F BraDBF=F KetDBF=F FulRan=T
         wScrn=  0.000000 ICntrl=       500 IOpCl=  0 I1Cent=           0 NGrid=           0
         NMat0=   20 NMatS0=     20 NMatT0=    0 NMatD0=   20 NMtDS0=    0 NMtDT0=    0
 Symmetry not used in FoFCou.
 FMM levels:  10  Number of levels for PrismC:   9
 New state      2 was old state      7
 New state      3 was old state      6
 New state      5 was old state      2
 Excitation Energies [eV] at current iteration:
 Root      1 :     2.421515138562717
 Root      2 :     2.611539871842003
 Root      3 :     2.622650152209890
 Root      4 :     2.633756054864321
 Root      5 :     2.656231348162250
 Root      6 :     2.716567555795069
 Root      7 :     3.244227211821120
 Root      8 :     3.434568104703664
 Root      9 :     3.639606259335569
 Root     10 :     3.681841290652061
 Root     11 :     3.722710740799283
 Root     12 :     3.759080904540504
 Root     13 :     4.267946261659049
 Root     14 :     4.329593524713456
 Root     15 :     4.344664452553655
 Root     16 :     4.355661946917995
 Root     17 :     4.540593393912713
 Root     18 :     4.818493417588353
 Root     19 :     4.819534853131618
 Root     20 :     5.081008423054389
 Iteration     2 Dimension    30 NMult    20 NNew     10
 CISAX will form    10 AO SS matrices at one time.
 NMat=    10 NSing=    10 JSym2X= 0.
 New state      1 was old state      5
 Root      1 not converged, maximum delta is    0.140396275075834
 Root      2 not converged, maximum delta is    0.259637360756177
 Root      3 not converged, maximum delta is    0.306835360450305
 New state      4 was old state      1
 Root      4 not converged, maximum delta is    0.016563986435414
 New state      5 was old state      6
 Root      5 not converged, maximum delta is    0.115392815501596
 Excitation Energies [eV] at current iteration:
 Root      1 :     1.780474824939354   Change is   -0.875756523222896
 Root      2 :     2.228463910379520   Change is   -0.383075961462483
 Root      3 :     2.244231691339893   Change is   -0.378418460869998
 Root      4 :     2.417929668432911   Change is   -0.003585470129806
 Root      5 :     2.460392192625402   Change is   -0.256175363169666
 Iteration     3 Dimension    40 NMult    30 NNew     10
 CISAX will form    10 AO SS matrices at one time.
 NMat=    10 NSing=    10 JSym2X= 0.
 Root      1 not converged, maximum delta is    0.051549333694740
 New state      2 was old state      5
 Root      2 not converged, maximum delta is    0.131897493271236
 New state      3 was old state      2
 Root      3 not converged, maximum delta is    0.198174878829205
 New state      4 was old state      3
 Root      4 not converged, maximum delta is    0.195680151461709
 New state      5 was old state      4
 Root      5 not converged, maximum delta is    0.003164891941767
 Excitation Energies [eV] at current iteration:
 Root      1 :     1.675963268173349   Change is   -0.104511556766005
 Root      2 :     1.768162014953188   Change is   -0.692230177672214
 Root      3 :     2.195312084019281   Change is   -0.033151826360239
 Root      4 :     2.205845945191970   Change is   -0.038385746147922
 Root      5 :     2.417921621244426   Change is   -0.000008047188485
 Iteration     4 Dimension    50 NMult    40 NNew     10
 CISAX will form    10 AO SS matrices at one time.
 NMat=    10 NSing=    10 JSym2X= 0.
 Root      1 not converged, maximum delta is    0.011173442639268
 Root      2 not converged, maximum delta is    0.035798956890080
 Root      3 not converged, maximum delta is    0.009048198619165
 Root      4 not converged, maximum delta is    0.007596020250909
 Root      5 has converged.
 Excitation Energies [eV] at current iteration:
 Root      1 :     1.659366382242853   Change is   -0.016596885930496
 Root      2 :     1.704390007376893   Change is   -0.063772007576296
 Root      3 :     2.187622105721820   Change is   -0.007689978297461
 Root      4 :     2.198898755701251   Change is   -0.006947189490719
 Root      5 :     2.417921265050467   Change is   -0.000000356193960
 Iteration     5 Dimension    58 NMult    50 NNew      8
 CISAX will form     8 AO SS matrices at one time.
 NMat=     8 NSing=     8 JSym2X= 0.
 Root      1 not converged, maximum delta is    0.004548737051643
 Root      2 not converged, maximum delta is    0.015499703611721
 Root      3 not converged, maximum delta is    0.001958300633096
 Root      4 not converged, maximum delta is    0.002095600512126
 Root      5 has converged.
 Excitation Energies [eV] at current iteration:
 Root      1 :     1.657670117359122   Change is   -0.001696264883731
 Root      2 :     1.692891517052417   Change is   -0.011498490324476
 Root      3 :     2.186689273092089   Change is   -0.000932832629731
 Root      4 :     2.198119019211760   Change is   -0.000779736489491
 Root      5 :     2.417921254839437   Change is   -0.000000010211029
 Iteration     6 Dimension    66 NMult    58 NNew      8
 CISAX will form     8 AO SS matrices at one time.
 NMat=     8 NSing=     8 JSym2X= 0.
 Root      1 not converged, maximum delta is    0.001077556596780
 Root      2 not converged, maximum delta is    0.001508592226430
 Root      3 has converged.
 Root      4 has converged.
 Root      5 has converged.
 Excitation Energies [eV] at current iteration:
 Root      1 :     1.657441022673869   Change is   -0.000229094685254
 Root      2 :     1.691653843064930   Change is   -0.001237673987487
 Root      3 :     2.186558801245023   Change is   -0.000130471847067
 Root      4 :     2.198010192369801   Change is   -0.000108826841960
 Root      5 :     2.417921247219116   Change is   -0.000000007620321
 Iteration     7 Dimension    70 NMult    66 NNew      4
 CISAX will form     4 AO SS matrices at one time.
 NMat=     4 NSing=     4 JSym2X= 0.
 Root      1 has converged.
 Root      2 has converged.
 Root      3 has converged.
 Root      4 has converged.
 Root      5 has converged.
 Excitation Energies [eV] at current iteration:
 Root      1 :     1.657417699625780   Change is   -0.000023323048089
 Root      2 :     1.691515715125161   Change is   -0.000138127939768
 Root      3 :     2.186558380145835   Change is   -0.000000421099188
 Root      4 :     2.198008584833791   Change is   -0.000001607536009
 Root      5 :     2.417921246474431   Change is   -0.000000000744686
 Convergence achieved on expansion vectors.
 ***********************************************************************
 Excited states from <AA,BB:AA,BB> singles matrix:
 ***********************************************************************
 
 1PDM for each excited state written to RWF  633
 Ground to excited state transition densities written to RWF  633
 Ground to excited state transition electric dipole moments (Au):
       state          X           Y           Z        Dip. S.      Osc.
         1        -2.2156      0.3481     -1.3015      6.7242      0.2730
         2        -2.1114     -0.5991      2.7363     12.3043      0.5099
         3        -0.1692      0.4819      0.1657      0.2883      0.0154
         4        -0.0979      1.7242      0.2035      3.0240      0.1628
         5        -0.0009      0.0023     -0.0007      0.0000      0.0000
 Ground to excited state transition velocity dipole moments (Au):
[...]
 Alpha virt. eigenvalues --    1.85318   1.85425   1.85524   1.85632   1.86108
 Alpha virt. eigenvalues --    1.86212   1.86412   1.86526   1.86585   1.86704
 Alpha virt. eigenvalues --    1.86769   1.86987   1.87071   1.87191   1.87313
 Alpha virt. eigenvalues --    1.87465   1.87690   1.87859   1.87950   1.88007
 Alpha virt. eigenvalues --    1.88272   1.88407   1.88487   1.88669   1.88799
 Alpha virt. eigenvalues --    1.89053   1.89205   1.89251   1.89568   1.89661
 Alpha virt. eigenvalues --    1.89907   1.90029   1.90350   1.90477   1.90995
 Alpha virt. eigenvalues --    1.91083   1.91159   1.91411   1.91537   1.91700
 Alpha virt. eigenvalues --    1.91939   1.92095   1.92536   1.92622   1.92874
 Alpha virt. eigenvalues --    1.93134   1.93375   1.93535   1.93899   1.94270
 Alpha virt. eigenvalues --    1.94629   1.94681   1.95204   1.95543   1.95689
 Alpha virt. eigenvalues --    1.95734   1.95922   1.95995   1.96189   1.96339
 Alpha virt. eigenvalues --    1.96413   1.96700   1.96809   1.97026   1.97230
 Alpha virt. eigenvalues --    1.97680   1.97806   1.97951   1.98161   1.98334
 Alpha virt. eigenvalues --    1.98470   1.98555   1.98875   1.99332   1.99665
 Alpha virt. eigenvalues --    1.99753   2.00241   2.00643   2.00897   2.00923
 Alpha virt. eigenvalues --    2.01246   2.01332   2.01598   2.01715   2.01869
 Alpha virt. eigenvalues --    2.01956   2.02073   2.02693   2.02915   2.03201
 Alpha virt. eigenvalues --    2.03238   2.03270   2.03399   2.03585   2.03722
 Alpha virt. eigenvalues --    2.03954   2.04253   2.04846   2.05285   2.05500
 Alpha virt. eigenvalues --    2.05931   2.06115   2.06657   2.06885   2.07143
 Alpha virt. eigenvalues --    2.07191   2.07533   2.08632   2.08920   2.09150
 Alpha virt. eigenvalues --    2.09431   2.09605   2.10104   2.10897   2.11060
 Alpha virt. eigenvalues --    2.11222   2.11464   2.11602   2.11673   2.11777
 Alpha virt. eigenvalues --    2.12191   2.12437   2.12717   2.12750   2.12973
 Alpha virt. eigenvalues --    2.13043   2.13417   2.13574   2.13798   2.14163
 Alpha virt. eigenvalues --    2.14394   2.15285   2.15755   2.16139   2.16245
 Alpha virt. eigenvalues --    2.16535   2.16672   2.16875   2.17395   2.17400
 Alpha virt. eigenvalues --    2.17613   2.17891   2.18073   2.18105   2.18214
 Alpha virt. eigenvalues --    2.18544   2.18752   2.18993   2.19404   2.19651
 Alpha virt. eigenvalues --    2.19919   2.20042   2.20193   2.20445   2.20733
 Alpha virt. eigenvalues --    2.21399   2.21459   2.21551   2.21732   2.21990
 Alpha virt. eigenvalues --    2.22325   2.22743   2.22930   2.23456   2.23509
 Alpha virt. eigenvalues --    2.24482   2.24646   2.25404   2.25524   2.26101
 Alpha virt. eigenvalues --    2.26615   2.26875   2.26933   2.27338   2.27437
 Alpha virt. eigenvalues --    2.28055   2.28569   2.29236   2.29548   2.29749
 Alpha virt. eigenvalues --    2.30118   2.30294   2.30823   2.30869   2.31016
 Alpha virt. eigenvalues --    2.31239   2.31360   2.32190   2.32552   2.32986
 Alpha virt. eigenvalues --    2.33357   2.33611   2.33646   2.34192   2.34276
 Alpha virt. eigenvalues --    2.35192   2.35450   2.35631   2.36178   2.36477
 Alpha virt. eigenvalues --    2.36608   2.36779   2.37186   2.37716   2.37845
 Alpha virt. eigenvalues --    2.38452   2.38657   2.38941   2.39317   2.39513
 Alpha virt. eigenvalues --    2.39951   2.40210   2.40406   2.40461   2.40997
 Alpha virt. eigenvalues --    2.41122   2.41383   2.41777   2.41858   2.41927
 Alpha virt. eigenvalues --    2.42300   2.43015   2.43072   2.43200   2.43314
 Alpha virt. eigenvalues --    2.44058   2.44609   2.44734   2.44830   2.45171
 Alpha virt. eigenvalues --    2.45257   2.45519   2.45825   2.46187   2.46371
 Alpha virt. eigenvalues --    2.46616   2.46740   2.46837   2.47158   2.47394
 Alpha virt. eigenvalues --    2.47615   2.47683   2.48104   2.49411   2.49889
 Alpha virt. eigenvalues --    2.50112   2.50154   2.50653   2.50983   2.51285
 Alpha virt. eigenvalues --    2.51458   2.51747   2.52022   2.52318   2.52550
 Alpha virt. eigenvalues --    2.52730   2.53416   2.53889   2.54113   2.54259
 Alpha virt. eigenvalues --    2.54694   2.54892   2.55206   2.55510   2.56363
 Alpha virt. eigenvalues --    2.57750   2.58510   2.58635   2.59109   2.59980
 Alpha virt. eigenvalues --    2.60439   2.60465   2.61103   2.61617   2.62231
 Alpha virt. eigenvalues --    2.62379   2.62649   2.62873   2.63298   2.63781
 Alpha virt. eigenvalues --    2.64380   2.64482   2.64554   2.65010   2.65243
 Alpha virt. eigenvalues --    2.65621   2.66033   2.66787   2.66898   2.67019
 Alpha virt. eigenvalues --    2.67276   2.67895   2.68148   2.68701   2.68916
 Alpha virt. eigenvalues --    2.69019   2.69188   2.69506   2.69745   2.70027
 Alpha virt. eigenvalues --    2.70305   2.71024   2.71209   2.71894   2.72066
 Alpha virt. eigenvalues --    2.72445   2.72587   2.72651   2.72857   2.73198
 Alpha virt. eigenvalues --    2.73444   2.73499   2.73554   2.74490   2.74655
 Alpha virt. eigenvalues --    2.74898   2.75222   2.76558   2.76662   2.77066
 Alpha virt. eigenvalues --    2.77209   2.77335   2.77830   2.78113   2.78489
 Alpha virt. eigenvalues --    2.78546   2.78862   2.79013   2.79313   2.80174
 Alpha virt. eigenvalues --    2.80372   2.80577   2.80871   2.80936   2.81344
 Alpha virt. eigenvalues --    2.81759   2.82171   2.82246   2.82476   2.83522
 Alpha virt. eigenvalues --    2.83665   2.84021   2.84199   2.84443   2.84741
 Alpha virt. eigenvalues --    2.84924   2.85019   2.85610   2.86104   2.86804
 Alpha virt. eigenvalues --    2.86907   2.87260   2.87467   2.88040   2.88485
 Alpha virt. eigenvalues --    2.88629   2.88743   2.88882   2.89131   2.90464
 Alpha virt. eigenvalues --    2.90777   2.91187   2.91289   2.92979   2.93550
 Alpha virt. eigenvalues --    2.93933   2.94198   2.94553   2.94987   2.95259
 Alpha virt. eigenvalues --    2.95584   2.95897   2.95926   2.96512   2.96756
 Alpha virt. eigenvalues --    2.96951   2.97406   2.97636   2.98118   2.98242
 Alpha virt. eigenvalues --    2.98440   2.98485   2.98600   2.98763   2.98912
 Alpha virt. eigenvalues --    2.99046   2.99451   2.99752   2.99884   3.00042
 Alpha virt. eigenvalues --    3.00131   3.00263   3.00578   3.01027   3.01400
 Alpha virt. eigenvalues --    3.01899   3.02029   3.02139   3.02418   3.02504
 Alpha virt. eigenvalues --    3.02935   3.03159   3.03394   3.03822   3.04097
 Alpha virt. eigenvalues --    3.04257   3.04318   3.04506   3.04559   3.04844
 Alpha virt. eigenvalues --    3.05285   3.05385   3.05814   3.06000   3.06328
 Alpha virt. eigenvalues --    3.06662   3.07131   3.08142   3.08831   3.09228
 Alpha virt. eigenvalues --    3.09619   3.10315   3.10522   3.10675   3.10893
 Alpha virt. eigenvalues --    3.11341   3.11693   3.11757   3.11993   3.12412
 Alpha virt. eigenvalues --    3.12674   3.13143   3.13710   3.13779   3.13810
 Alpha virt. eigenvalues --    3.13860   3.14549   3.16111   3.16421   3.17125
 Alpha virt. eigenvalues --    3.17668   3.18122   3.18238   3.19123   3.19316
 Alpha virt. eigenvalues --    3.21961   3.22682   3.23788   3.24435   3.24604
 Alpha virt. eigenvalues --    3.25321   3.26347   3.26816   3.27467   3.27534
 Alpha virt. eigenvalues --    3.28730   3.29294   3.31344   3.31564   3.33258
 Alpha virt. eigenvalues --    3.33367   3.40247   3.40308   3.42707   3.43287
 Alpha virt. eigenvalues --    3.48472   3.48843   3.49882   3.50456   3.51029
 Alpha virt. eigenvalues --    3.51333   3.56466   3.57212   3.59084   3.59485
 Alpha virt. eigenvalues --    3.62665   3.62686   3.66104   3.66536   3.66834
 Alpha virt. eigenvalues --    3.67605   3.72934   3.74101   3.75750   3.76770
          Condensed to atoms (all electrons):
 Mulliken charges:
               1
     1  Mg   0.827735
     2  C   -0.004586
     3  C   -0.094164
     4  C   -0.044442
     5  C   -0.063834
     6  N   -0.256444
     7  C   -0.054259
     8  C   -0.013465
     9  C   -0.086958
    10  C    0.046329
    11  C    0.104645
    12  C    0.053228
    13  C   -0.071636
    14  H    0.034559
    15  N   -0.433516
    16  C    0.168606
    17  C   -0.176811
    18  C   -0.003218
    19  C    0.148818
    20  C    0.110010
    21  C    0.013168
    22  O   -0.248068
    23  C    0.062154
    24  N   -0.341057
    25  C    0.041726
    26  C   -0.028717
    27  C   -0.025551
    28  C    0.074302
    29  C    0.076615
    30  C    0.036665
    31  C   -0.013575
    32  N   -0.310172
    33  C    0.079153
    34  C   -0.171227
    35  C    0.007498
    36  C    0.079209
    37  C    0.127659
    38  C    0.044284
    39  O   -0.188935
    40  C   -0.004985
    41  C    0.213880
    42  O   -0.261950
    43  O   -0.303654
    44  C    0.157938
    45  H   -0.017090
    46  H   -0.015415
    47  H   -0.040695
    48  H    0.001098
    49  H   -0.003778
    50  H    0.025651
    51  H    0.017034
    52  H    0.017212
    53  H    0.011170
    54  H    0.041016
    55  H    0.018840
    56  H    0.018904
    57  H    0.005942
    58  H    0.027566
    59  H    0.040503
    60  H    0.037328
    61  H    0.036763
    62  H    0.032054
    63  H    0.018599
    64  H    0.008973
    65  H    0.023803
    66  H    0.011891
    67  H    0.004912
    68  H    0.005617
    69  H    0.003857
    70  H    0.006935
    71  H    0.031113
    72  H    0.043756
    73  H    0.046380
    74  H    0.010553
    75  H    0.046434
    76  H    0.035960
    77  H    0.043934
    78  H    0.046933
    79  H    0.051522
    80  Mg   0.836773
    81  C   -0.016869
    82  C   -0.087056
    83  C   -0.045871
    84  C   -0.065119
    85  N   -0.254374
    86  C   -0.050671
    87  C   -0.015030
    88  C   -0.090309
    89  C    0.045064
    90  C    0.114287
    91  C    0.062596
    92  C   -0.077336
    93  H    0.033239
    94  N   -0.423594
    95  C    0.161947
    96  C   -0.177013
    97  C   -0.001364
    98  C    0.152256
    99  C    0.102116
   100  C    0.009802
   101  O   -0.255116
   102  C    0.057594
   103  N   -0.350075
   104  C    0.037871
   105  C   -0.019851
   106  C   -0.034521
   107  C    0.088463
   108  C    0.073831
   109  C    0.034928
   110  C   -0.007524
   111  N   -0.323829
   112  C    0.077632
   113  C   -0.163914
   114  C    0.001921
   115  C    0.095547
   116  C    0.131654
   117  C    0.041800
   118  O   -0.189136
   119  C    0.001036
   120  C    0.211164
   121  O   -0.251523
   122  O   -0.305537
   123  C    0.152277
   124  H   -0.016788
   125  H   -0.016455
   126  H   -0.041256
   127  H   -0.001123
   128  H   -0.003842
   129  H    0.021929
   130  H    0.015088
   131  H    0.016652
   132  H    0.013828
   133  H    0.037117
   134  H    0.020810
   135  H    0.019458
   136  H    0.012747
   137  H    0.033200
   138  H    0.043789
   139  H    0.046721
   140  H    0.028620
   141  H    0.034032
   142  H    0.013945
   143  H    0.011943
   144  H    0.024204
   145  H    0.011918
   146  H    0.005440
   147  H    0.005604
   148  H    0.003297
   149  H    0.010844
   150  H    0.017422
   151  H    0.030322
   152  H    0.045229
   153  H    0.007965
   154  H    0.046364
   155  H    0.034703
   156  H    0.043526
   157  H    0.049270
   158  H    0.053075
 Sum of Mulliken charges =  -0.00000
 Mulliken charges with hydrogens summed into heavy atoms:
               1
     1  Mg   0.827735
     2  C   -0.004586
     3  C   -0.111254
     4  C   -0.059857
     5  C   -0.104530
     6  N   -0.256444
     7  C   -0.054259
     8  C   -0.012366
     9  C   -0.090736
    10  C    0.046329
    11  C    0.164542
    12  C    0.105414
    13  C    0.000667
    15  N   -0.433516
    16  C    0.168606
    17  C   -0.176811
    18  C   -0.003218
    19  C    0.148818
    20  C    0.184021
    21  C    0.013168
    22  O   -0.248068
    23  C    0.168298
    24  N   -0.341057
    25  C    0.041726
    26  C   -0.010117
    27  C   -0.016577
    28  C    0.074302
    29  C    0.117221
    30  C    0.046138
    31  C    0.068229
    32  N   -0.310172
    33  C    0.079153
    34  C   -0.171227
    35  C    0.007498
    36  C    0.079209
    37  C    0.231027
    38  C    0.044284
    39  O   -0.188935
    40  C    0.030975
    41  C    0.213880
    42  O   -0.261950
    43  O   -0.303654
    44  C    0.300327
    80  Mg   0.836773
    81  C   -0.016869
    82  C   -0.103844
    83  C   -0.062326
    84  C   -0.106375
    85  N   -0.254374
    86  C   -0.050671
    87  C   -0.016154
    88  C   -0.094150
    89  C    0.045064
    90  C    0.167957
    91  C    0.113541
    92  C   -0.003828
    94  N   -0.423594
    95  C    0.161947
    96  C   -0.177013
    97  C   -0.001364
    98  C    0.152256
    99  C    0.191852
   100  C    0.009802
   101  O   -0.255116
   102  C    0.166967
   103  N   -0.350075
   104  C    0.037871
   105  C   -0.005906
   106  C   -0.022578
   107  C    0.088463
   108  C    0.115394
   109  C    0.043828
   110  C    0.051064
   111  N   -0.323829
   112  C    0.077632
   113  C   -0.163914
   114  C    0.001921
   115  C    0.095547
   116  C    0.231213
   117  C    0.041800
   118  O   -0.189136
   119  C    0.035739
   120  C    0.211164
   121  O   -0.251523
   122  O   -0.305537
   123  C    0.298148
 Electronic spatial extent (au):  <R**2>=         121026.1498
 Charge=             -0.0000 electrons
 Dipole moment (field-independent basis, Debye):
    X=              4.9473    Y=              2.8535    Z=              1.7235  Tot=              5.9657
 Quadrupole moment (field-independent basis, Debye-Ang):
   XX=           -547.8552   YY=           -467.2274   ZZ=           -514.6686
   XY=             12.4431   XZ=             46.2883   YZ=             32.0519
 Traceless Quadrupole moment (field-independent basis, Debye-Ang):
   XX=            -37.9382   YY=             42.6897   ZZ=             -4.7515
   XY=             12.4431   XZ=             46.2883   YZ=             32.0519
 Octapole moment (field-independent basis, Debye-Ang**2):
  XXX=            805.8798  YYY=            240.5540  ZZZ=            212.3659  XYY=           -208.8252
  XXY=           -107.7686  XXZ=            -94.9904  XZZ=             34.8543  YZZ=             26.5565
  YYZ=            -49.9375  XYZ=            172.4248
 Hexadecapole moment (field-independent basis, Debye-Ang**3):
 XXXX=        -119160.3252 YYYY=         -33421.6793 ZZZZ=         -18413.6752 XXXY=           1094.5466
 XXXZ=           2506.0942 YYYX=            329.5123 YYYZ=            435.0154 ZZZX=            940.5100
 ZZZY=            533.4399 XXYY=         -21849.9907 XXZZ=         -21926.2332 YYZZ=          -9322.1280
 XXYZ=           1566.4527 YYXZ=           -658.9097 ZZXY=           -354.9570
 N-N= 1.509399182388D+04 E-N=-3.966892982564D+04  KE= 4.028791983539D+03
 Leave Link  601 at Fri Sep 10 09:48:31 2021, MaxMem= 23488102400 cpu:              16.3 elap:               0.8
 (Enter /sw/apps/gaussian-16.0/g16/l9999.exe)
 1\1\GINC-BP1-COMPUTE00114\SP\RCAM-B3LYP TD-FC\def2SVP\C68H72Mg2N8O8\OF
 15641\10-Sep-2021\0\\#p cam-b3lyp/Def2SVP td=(nstates=5)\\TDDFT excite
 d states in gaussian\\0,1\Mg,0,0.,0.,0.\C,0,-0.217,-2.218,2.801\C,0,-1
 .255,2.442,2.026\C,0,-0.245,1.85,-2.564\C,0,0.146,-2.824,-2.037\N,0,-0
 .617,-0.009,2.126\C,0,-0.594,-0.908,3.105\C,0,-0.936,-0.309,4.502\C,0,
 -1.773,0.964,4.032\C,0,-1.155,1.168,2.66\C,0,-3.263,0.685,3.863\C,0,0.
 345,0.11,5.299\C,0,0.124,0.397,6.787\H,0,1.168,0.033,7.733\N,0,-0.185,
 1.961,-0.152\C,0,-0.703,2.8,0.777\C,0,-0.62,4.156,0.193\C,0,-0.187,4.0
 15,-1.225\C,0,-0.214,2.583,-1.38\C,0,-0.887,5.406,0.974\C,0,0.181,5.01
 3,-2.277\O,0,0.303,4.69,-3.508\C,0,0.31,6.414,-1.837\N,0,-0.265,-0.413
 ,-2.029\C,0,-0.279,0.569,-2.937\C,0,-0.196,0.024,-4.332\C,0,0.124,-1.5
 33,-4.18\C,0,0.086,-1.632,-2.635\C,0,-1.451,0.205,-5.197\C,0,1.373,-2.
 07,-4.923\C,0,2.626,-1.49,-4.306\N,0,0.15,-2.144,0.303\C,0,0.173,-3.13
 6,-0.688\C,0,0.173,-4.438,0.004\C,0,0.133,-4.111,1.358\C,0,0.083,-2.69
 5,1.502\C,0,0.149,-5.715,-0.623\C,0,0.096,-4.629,2.716\O,0,0.208,-5.74
 7,3.221\C,0,-0.255,-3.428,3.701\C,0,0.717,-3.482,4.848\O,0,1.931,-3.25
 5,4.669\O,0,0.038,-3.556,6.003\C,0,0.943,-3.583,7.183\H,0,-1.859,3.22,
 2.497\H,0,-0.218,2.453,-3.474\H,0,0.276,-3.747,-2.605\H,0,-1.554,-0.94
 9,5.132\H,0,-1.585,1.831,4.665\H,0,-3.484,-0.377,3.969\H,0,-3.511,1.02
 7,2.858\H,0,-3.852,1.301,4.543\H,0,0.669,1.096,4.966\H,0,1.13,-0.639,5
 .189\H,0,-0.844,0.026,7.125\H,0,0.062,1.477,6.921\H,0,-1.344,5.186,1.9
 38\H,0,-1.651,5.963,0.432\H,0,0.007,6.02,1.084\H,0,-0.635,6.744,-1.405
 \H,0,0.665,6.97,-2.704\H,0,1.048,6.466,-1.036\H,0,0.608,0.501,-4.891\H
 ,0,-0.692,-2.156,-4.547\H,0,-1.267,0.74,-6.129\H,0,-2.204,0.714,-4.596
 \H,0,-1.967,-0.72,-5.453\H,0,1.356,-1.759,-5.967\H,0,1.452,-3.157,-4.9
 02\H,0,2.714,-0.522,-4.798\H,0,3.487,-2.121,-4.529\H,0,2.495,-1.303,-3
 .24\H,0,0.867,-6.333,-0.084\H,0,0.404,-5.642,-1.68\H,0,-0.891,-5.999,-
 0.463\H,0,-1.283,-3.581,4.028\H,0,0.698,-4.478,7.755\H,0,0.833,-2.619,
 7.68\H,0,2.,-3.754,6.976\Mg,0,10.50374,0.95161,0.8042\C,0,12.5705,2.17
 227,3.47207\C,0,8.66225,-0.67059,3.17317\C,0,8.94155,-0.49893,-1.54589
 \C,0,13.11638,1.70177,-1.37687\N,0,10.69095,0.84241,3.0054\C,0,11.4782
 5,1.39728,3.91458\C,0,11.02511,1.17123,5.38194\C,0,10.16844,-0.16967,5
 .1652\C,0,9.78198,0.02134,3.69999\C,0,10.99723,-1.43832,5.2791\C,0,10.
 13102,2.3436,5.91876\C,0,9.90931,2.34191,7.43289\H,0,9.8242,3.62479,8.
 12531\N,0,8.75127,0.02027,0.81007\C,0,8.14201,-0.56063,1.86489\C,0,6.8
 8689,-1.12431,1.34424\C,0,6.88289,-0.97225,-0.13615\C,0,8.23038,-0.485
 9,-0.35482\C,0,5.80425,-1.66031,2.23532\C,0,5.84317,-1.23481,-1.18317\
 O,0,6.13504,-1.25805,-2.43101\C,0,4.49244,-1.55617,-0.6997\N,0,11.0351
 5,0.44744,-1.1415\C,0,10.15007,-0.13122,-1.97199\C,0,10.66458,-0.1482,
 -3.39163\C,0,11.98066,0.76032,-3.38253\C,0,12.05228,1.08691,-1.87468\C
 ,0,11.00171,-1.52626,-3.96058\C,0,12.03143,1.93577,-4.39664\C,0,11.001
 38,2.97943,-4.02901\N,0,12.4138,1.95075,0.95057\C,0,13.36272,2.13209,-
 0.07936\C,0,14.55071,2.76471,0.52964\C,0,14.21682,2.8875,1.88682\C,0,1
 2.92081,2.34968,2.11172\C,0,15.7561,3.09808,-0.15009\C,0,14.67029,3.34
 013,3.18227\O,0,15.65236,3.95784,3.5918\C,0,13.6754,2.78225,4.28922\C,
 0,13.32104,3.9177,5.20993\O,0,12.67048,4.89141,4.7913\O,0,13.61748,3.5
 6816,6.47496\C,0,13.27355,4.65797,7.42672\H,0,8.15723,-1.39948,3.80764
 \H,0,8.4027,-0.88886,-2.41253\H,0,13.93401,2.05658,-2.00795\H,0,11.830
 6,0.98859,6.08309\H,0,9.28272,-0.17865,5.7951\H,0,12.05168,-1.22388,5.
 37022\H,0,10.80203,-1.99941,4.37459\H,0,10.62882,-2.0566,6.10271\H,0,9
 .09888,2.1919,5.57756\H,0,10.52383,3.2935,5.61213\H,0,10.60569,1.67118
 ,7.9507\H,0,8.92417,1.91638,7.63887\H,0,6.15954,-1.79333,3.26463\H,0,5
 .58093,-2.67612,1.89165\H,0,4.89028,-1.06402,2.19314\H,0,4.5364,-2.437
 88,-0.06478\H,0,3.87014,-1.6232,-1.59419\H,0,4.1411,-0.73164,-0.06935\
 H,0,9.94153,0.28742,-4.07025\H,0,12.88124,0.17536,-3.62048\H,0,10.4521
 2,-1.76036,-4.89182\H,0,10.79631,-2.26874,-3.20093\H,0,12.057,-1.69442
 ,-4.16864\H,0,11.77249,1.58339,-5.3981\H,0,13.00635,2.40705,-4.46314\H
 ,0,10.08236,2.58667,-4.47424\H,0,11.26528,3.94504,-4.4556\H,0,10.85118
 ,3.01903,-2.94387\H,0,16.04479,4.08275,0.19282\H,0,15.62307,3.07538,-1
 .2297\H,0,16.40683,2.29247,0.20035\H,0,14.18807,1.97483,4.81346\H,0,14
 .18304,4.88929,7.98974\H,0,12.40472,4.28815,8.00303\H,0,13.02985,5.628
 47,7.01055\\Version=ES64L-G16RevA.03\State=1-A\HF=-4069.8139229\RMSD=9
 .153e-09\PG=C01 [X(C68H72Mg2N8O8)]\\@


       THE DEATH-KNELL OF THE ATOM

 SO THE ATOMS IN TURN, WE NOW CLEARLY DISCERN,
 FLY TO BITS WITH THE UTMOST FACILITY;
 THEY WEND ON THEIR WAY, AND, IN SPLITTING, DISPLAY
 AN ABSOLUTE LACK OF STABILITY.

          SIR WM. RAMSAY, 1905
 Job cpu time:       0 days 14 hours  1 minutes 56.1 seconds.
 Elapsed time:       0 days  0 hours 35 minutes 41.4 seconds.
 File lengths (MBytes):  RWF=  13225 Int=      0 D2E=      0 Chk=    574 Scr=      1
 Normal termination of Gaussian 16 at Fri Sep 10 09:48:31 2021.
