 Entering Gaussian System, Link 0=g16
 Initial command:
 /sw/apps/gaussian-16.0/g16/l1.exe "/tmp/Gau-79844.inp" -scrdir="/tmp/"
 Entering Link 1 = /sw/apps/gaussian-16.0/g16/l1.exe PID=     79845.
  
 Copyright (c) 1988,1990,1992,1993,1995,1998,2003,2009,2016,
            Gaussian, Inc.  All Rights Reserved.
  
 This is part of the Gaussian(R) 16 program.  It is based on
 the Gaussian(R) 09 system (copyright 2009, Gaussian, Inc.),
 the Gaussian(R) 03 system (copyright 2003, Gaussian, Inc.),
 the Gaussian(R) 98 system (copyright 1998, Gaussian, Inc.),
 the Gaussian(R) 94 system (copyright 1995, Gaussian, Inc.),
 the Gaussian 92(TM) system (copyright 1992, Gaussian, Inc.),
 the Gaussian 90(TM) system (copyright 1990, Gaussian, Inc.),
 the Gaussian 88(TM) system (copyright 1988, Gaussian, Inc.),
 the Gaussian 86(TM) system (copyright 1986, Carnegie Mellon
 University), and the Gaussian 82(TM) system (copyright 1983,
 Carnegie Mellon University). Gaussian is a federally registered
 trademark of Gaussian, Inc.
  
 This software contains proprietary and confidential information,
 including trade secrets, belonging to Gaussian, Inc.
  
 This software is provided under written license and may be
 used, copied, transmitted, or stored only in accord with that
 written license.
  
 The following legend is applicable only to US Government
 contracts under FAR:
  
                    RESTRICTED RIGHTS LEGEND
  
 Use, reproduction and disclosure by the US Government is
 subject to restrictions as set forth in subparagraphs (a)
 and (c) of the Commercial Computer Software - Restricted
 Rights clause in FAR 52.227-19.
  
 Gaussian, Inc.
 340 Quinnipiac St., Bldg. 40, Wallingford CT 06492
  
  
 ---------------------------------------------------------------
 Warning -- This program may not be used in any manner that
 competes with the business of Gaussian, Inc. or will provide
 assistance to any competitor of Gaussian, Inc.  The licensee
 of this program is prohibited from giving any competitor of
 Gaussian, Inc. access to this program.  By using this program,
 the user acknowledges that Gaussian, Inc. is engaged in the
 business of creating and licensing software in the field of
 computational chemistry and represents and warrants to the
 licensee that it is not a competitor of Gaussian, Inc. and that
 it will not use this program in any manner prohibited above.
 ---------------------------------------------------------------
  

 Cite this work as:
 Gaussian 16, Revision A.03,
 M. J. Frisch, G. W. Trucks, H. B. Schlegel, G. E. Scuseria, 
 M. A. Robb, J. R. Cheeseman, G. Scalmani, V. Barone, 
 G. A. Petersson, H. Nakatsuji, X. Li, M. Caricato, A. V. Marenich, 
 J. Bloino, B. G. Janesko, R. Gomperts, B. Mennucci, H. P. Hratchian, 
 J. V. Ortiz, A. F. Izmaylov, J. L. Sonnenberg, D. Williams-Young, 
 F. Ding, F. Lipparini, F. Egidi, J. Goings, B. Peng, A. Petrone, 
 T. Henderson, D. Ranasinghe, V. G. Zakrzewski, J. Gao, N. Rega, 
 G. Zheng, W. Liang, M. Hada, M. Ehara, K. Toyota, R. Fukuda, 
 J. Hasegawa, M. Ishida, T. Nakajima, Y. Honda, O. Kitao, H. Nakai, 
 T. Vreven, K. Throssell, J. A. Montgomery, Jr., J. E. Peralta, 
 F. Ogliaro, M. J. Bearpark, J. J. Heyd, E. N. Brothers, K. N. Kudin, 
 V. N. Staroverov, T. A. Keith, R. Kobayashi, J. Normand, 
 K. Raghavachari, A. P. Rendell, J. C. Burant, S. S. Iyengar, 
 J. Tomasi, M. Cossi, J. M. Millam, M. Klene, C. Adamo, R. Cammi, 
 J. W. Ochterski, R. L. Martin, K. Morokuma, O. Farkas, 
 J. B. Foresman, and D. J. Fox, Gaussian, Inc., Wallingford CT, 2016.
 
 ******************************************
 Gaussian 16:  ES64L-G16RevA.03 25-Dec-2016
                 9-Sep-2021 
 ******************************************
 %nproc=24
 Will use up to   24 processors via shared memory.
 %mem=175gb
 -----------------------------------
 #p cam-b3lyp/Def2SVP td=(nstates=5)
 -----------------------------------
 1/38=1,172=1/1;
 2/12=2,17=6,18=5,40=1/2;
 3/5=43,7=101,11=9,25=1,30=1,74=-40/1,2,3,8;
 4//1;
 5/5=2,38=5/2;
 8/6=1,10=1,108=5/1;
 9/41=5,42=1,70=2/14;
 6/7=2,8=2,9=2,10=2/1;
 99/5=1,9=1/99;
 Leave Link    1 at Thu Sep  9 06:45:34 2021, MaxMem= 23488102400 cpu:               0.8 elap:               0.0
 (Enter /sw/apps/gaussian-16.0/g16/l101.exe)
 --------------------------------
 TDDFT excited states in gaussian
 --------------------------------
 Symbolic Z-matrix:
 Charge =  0 Multiplicity = 1
 Mg                    0.        0.        0. 
 C                    -0.217    -2.218     2.801 
 C                    -1.255     2.442     2.026 
 C                    -0.245     1.85     -2.564 
 C                     0.146    -2.824    -2.037 
 N                    -0.617    -0.009     2.126 
 C                    -0.594    -0.908     3.105 
 C                    -0.936    -0.309     4.502 
 C                    -1.773     0.964     4.032 
 C                    -1.155     1.168     2.66 
 C                    -3.263     0.685     3.863 
 C                     0.345     0.11      5.299 
 C                     0.124     0.397     6.787 
 H                     1.168     0.033     7.733 
 N                    -0.185     1.961    -0.152 
 C                    -0.703     2.8       0.777 
 C                    -0.62      4.156     0.193 
 C                    -0.187     4.015    -1.225 
 C                    -0.214     2.583    -1.38 
 C                    -0.887     5.406     0.974 
 C                     0.181     5.013    -2.277 
 O                     0.303     4.69     -3.508 
 C                     0.31      6.414    -1.837 
 N                    -0.265    -0.413    -2.029 
 C                    -0.279     0.569    -2.937 
 C                    -0.196     0.024    -4.332 
 C                     0.124    -1.533    -4.18 
 C                     0.086    -1.632    -2.635 
 C                    -1.451     0.205    -5.197 
 C                     1.373    -2.07     -4.923 
 C                     2.626    -1.49     -4.306 
 N                     0.15     -2.144     0.303 
 C                     0.173    -3.136    -0.688 
 C                     0.173    -4.438     0.004 
 C                     0.133    -4.111     1.358 
 C                     0.083    -2.695     1.502 
 C                     0.149    -5.715    -0.623 
 C                     0.096    -4.629     2.716 
 O                     0.208    -5.747     3.221 
 C                    -0.255    -3.428     3.701 
 C                     0.717    -3.482     4.848 
 O                     1.931    -3.255     4.669 
 O                     0.038    -3.556     6.003 
 C                     0.943    -3.583     7.183 
 H                    -1.859     3.22      2.497 
 H                    -0.218     2.453    -3.474 
 H                     0.276    -3.747    -2.605 
 H                    -1.554    -0.949     5.132 
 H                    -1.585     1.831     4.665 
 H                    -3.484    -0.377     3.969 
 H                    -3.511     1.027     2.858 
 H                    -3.852     1.301     4.543 
 H                     0.669     1.096     4.966 
 H                     1.13     -0.639     5.189 
 H                    -0.844     0.026     7.125 
 H                     0.062     1.477     6.921 
 H                    -1.344     5.186     1.938 
 H                    -1.651     5.963     0.432 
 H                     0.007     6.02      1.084 
 H                    -0.635     6.744    -1.405 
 H                     0.665     6.97     -2.704 
 H                     1.048     6.466    -1.036 
 H                     0.608     0.501    -4.891 
 H                    -0.692    -2.156    -4.547 
 H                    -1.267     0.74     -6.129 
 H                    -2.204     0.714    -4.596 
 H                    -1.967    -0.72     -5.453 
 H                     1.356    -1.759    -5.967 
 H                     1.452    -3.157    -4.902 
 H                     2.714    -0.522    -4.798 
 H                     3.487    -2.121    -4.529 
 H                     2.495    -1.303    -3.24 
 H                     0.867    -6.333    -0.084 
 H                     0.404    -5.642    -1.68 
 H                    -0.891    -5.999    -0.463 
 H                    -1.283    -3.581     4.028 
 H                     0.698    -4.478     7.755 
 H                     0.833    -2.619     7.68 
 H                     2.       -3.754     6.976 
 Mg                    7.88972   0.71417   0.60584 
 C                     7.51189  -1.50465   3.40104 
 C                     6.77637   3.21954   2.63516 
 C                     7.78134   2.59767  -1.94526 
 C                     7.86492  -2.09817  -1.45228 
 N                     7.25766   0.73095   2.72538 
 C                     7.21469  -0.15972   3.70478 
 C                     6.9097    0.4378    5.10461 
 C                     6.15032   1.77291   4.63592 
 C                     6.78841   1.94654   3.25919 
 C                     4.65466   1.58021   4.44827 
 C                     8.21473   0.77164   5.90926 
 C                     7.99641   1.06712   7.39478 
 H                     9.01519   0.6348    8.3475 
 N                     7.83213   2.69341   0.47229 
 C                     7.36899   3.55838   1.3989 
 C                     7.52688   4.89845   0.81286 
 C                     7.96802   4.74355  -0.59998 
 C                     7.85508   3.30717  -0.75543 
 C                     7.34235   6.15999   1.60524 
 C                     8.40533   5.72693  -1.64302 
 O                     8.5163    5.39576  -2.87624 
 C                     8.60961   7.1118   -1.19371 
 N                     7.61928   0.33058  -1.41952 
 C                     7.66754   1.32446  -2.32384 
 C                     7.72292   0.77935  -3.73103 
 C                     7.94674  -0.79624  -3.57292 
 C                     7.89033  -0.90662  -2.03343 
 C                     6.48581   1.03351  -4.59205 
 C                     9.16516  -1.41186  -4.31396 
 C                     10.45129  -0.9108   -3.69736 
 N                     7.90692  -1.4266    0.89715 
 C                     7.86716  -2.42375  -0.10196 
 C                     7.78059  -3.72751   0.58735 
 C                     7.75255  -3.3945    1.94999 
 C                     7.79672  -1.98192   2.09879 
 C                     7.69047  -4.99903  -0.04608 
 C                     7.6849   -3.9163    3.29604 
 O                     7.71583  -5.04077   3.79439 
 C                     7.39848  -2.71077   4.29156 
 C                     8.3576   -2.82285   5.44484 
 O                     9.58029  -2.68274   5.26596 
 O                     7.66092  -2.85973   6.59534 
 C                     8.56907  -2.95959   7.76884 
 H                     6.22512   4.02799   3.11623 
 H                     7.85236   3.19627  -2.85636 
 H                     7.95179  -3.02676  -2.02049 
 H                     6.25511  -0.1647    5.72289 
 H                     6.3965    2.61381   5.27907 
 H                     4.36637   0.54424   4.54722 
 H                     4.43431   1.94075   3.45203 
 H                     4.10204   2.22991   5.13299 
 H                     8.60006   1.7448    5.57878 
 H                     8.94069  -0.01035   5.79925 
 H                     6.99903   0.76152   7.7336 
 H                     8.00809   2.15027   7.53852 
 H                     6.85874   5.96207   2.56979 
 H                     6.61949   6.77691   1.06049 
 H                     8.27052   6.72343   1.72231 
 H                     7.68607   7.49181  -0.76344 
 H                     9.00576   7.64475  -2.06026 
 H                     9.35479   7.11266  -0.39038 
 H                     8.55894   1.20011  -4.27612 
 H                     7.09223  -1.37011  -3.96064 
 H                     6.71149   1.57063  -5.5326 
 H                     5.76677   1.58591  -4.00182 
 H                     5.92349   0.14274  -4.86688 
 H                     9.17554  -1.08989  -5.35818 
 H                     9.1692   -2.49674  -4.31141 
 H                     10.59765   0.05779  -4.1847 
 H                     11.27176  -1.59104  -3.91677 
 H                     10.32684  -0.72445  -2.6243 
 H                     8.35781  -5.66144   0.48905 
 H                     7.95148  -4.93732  -1.10052 
 H                     6.62922  -5.21596   0.10208 
 H                     6.35962  -2.7917    4.61372 
 H                     8.26092  -3.84268   8.33707 
 H                     8.50258  -1.9819    8.2821 
 H                     9.61191  -3.18427   7.57787 
 
 ITRead=  0  0  0  0  0  0  0  0  0  0  0  0  0  0  0  0  0  0  0  0
 ITRead=  0  0  0  0  0  0  0  0  0  0  0  0  0  0  0  0  0  0  0  0
 ITRead=  0  0  0  0  0  0  0  0  0  0  0  0  0  0  0  0  0  0  0  0
 ITRead=  0  0  0  0  0  0  0  0  0  0  0  0  0  0  0  0  0  0  0  0
 ITRead=  0  0  0  0  0  0  0  0  0  0  0  0  0  0  0  0  0  0  0  0
 ITRead=  0  0  0  0  0  0  0  0  0  0  0  0  0  0  0  0  0  0  0  0
 ITRead=  0  0  0  0  0  0  0  0  0  0  0  0  0  0  0  0  0  0  0  0
 ITRead=  0  0  0  0  0  0  0  0  0  0  0  0  0  0  0  0  0  0
 MicOpt= -1 -1 -1 -1 -1 -1 -1 -1 -1 -1 -1 -1 -1 -1 -1 -1 -1 -1 -1 -1
 MicOpt= -1 -1 -1 -1 -1 -1 -1 -1 -1 -1 -1 -1 -1 -1 -1 -1 -1 -1 -1 -1
 MicOpt= -1 -1 -1 -1 -1 -1 -1 -1 -1 -1 -1 -1 -1 -1 -1 -1 -1 -1 -1 -1
 MicOpt= -1 -1 -1 -1 -1 -1 -1 -1 -1 -1 -1 -1 -1 -1 -1 -1 -1 -1 -1 -1
 MicOpt= -1 -1 -1 -1 -1 -1 -1 -1 -1 -1 -1 -1 -1 -1 -1 -1 -1 -1 -1 -1
 MicOpt= -1 -1 -1 -1 -1 -1 -1 -1 -1 -1 -1 -1 -1 -1 -1 -1 -1 -1 -1 -1
 MicOpt= -1 -1 -1 -1 -1 -1 -1 -1 -1 -1 -1 -1 -1 -1 -1 -1 -1 -1 -1 -1
 MicOpt= -1 -1 -1 -1 -1 -1 -1 -1 -1 -1 -1 -1 -1 -1 -1 -1 -1 -1
 NAtoms=    158 NQM=      158 NQMF=       0 NMMI=      0 NMMIF=      0
                NMic=       0 NMicF=      0.
                    Isotopes and Nuclear Properties:
 (Nuclear quadrupole moments (NQMom) in fm**2, nuclear magnetic moments (NMagM)
  in nuclear magnetons)

  Atom         1           2           3           4           5           6           7           8           9          10
 IAtWgt=          24          12          12          12          12          14          12          12          12          12
 AtmWgt=  23.9850450  12.0000000  12.0000000  12.0000000  12.0000000  14.0030740  12.0000000  12.0000000  12.0000000  12.0000000
 NucSpn=           0           0           0           0           0           2           0           0           0           0
 AtZEff=  -0.0000000  -0.0000000  -0.0000000  -0.0000000  -0.0000000  -0.0000000  -0.0000000  -0.0000000  -0.0000000  -0.0000000
 NQMom=    0.0000000   0.0000000   0.0000000   0.0000000   0.0000000   2.0440000   0.0000000   0.0000000   0.0000000   0.0000000
 NMagM=    0.0000000   0.0000000   0.0000000   0.0000000   0.0000000   0.4037610   0.0000000   0.0000000   0.0000000   0.0000000
 AtZNuc=  12.0000000   6.0000000   6.0000000   6.0000000   6.0000000   7.0000000   6.0000000   6.0000000   6.0000000   6.0000000

  Atom        11          12          13          14          15          16          17          18          19          20
 IAtWgt=          12          12          12           1          14          12          12          12          12          12
 AtmWgt=  12.0000000  12.0000000  12.0000000   1.0078250  14.0030740  12.0000000  12.0000000  12.0000000  12.0000000  12.0000000
 NucSpn=           0           0           0           1           2           0           0           0           0           0
 AtZEff=  -0.0000000  -0.0000000  -0.0000000  -0.0000000  -0.0000000  -0.0000000  -0.0000000  -0.0000000  -0.0000000  -0.0000000
 NQMom=    0.0000000   0.0000000   0.0000000   0.0000000   2.0440000   0.0000000   0.0000000   0.0000000   0.0000000   0.0000000
 NMagM=    0.0000000   0.0000000   0.0000000   2.7928460   0.4037610   0.0000000   0.0000000   0.0000000   0.0000000   0.0000000
 AtZNuc=   6.0000000   6.0000000   6.0000000   1.0000000   7.0000000   6.0000000   6.0000000   6.0000000   6.0000000   6.0000000

  Atom        21          22          23          24          25          26          27          28          29          30
 IAtWgt=          12          16          12          14          12          12          12          12          12          12
 AtmWgt=  12.0000000  15.9949146  12.0000000  14.0030740  12.0000000  12.0000000  12.0000000  12.0000000  12.0000000  12.0000000
 NucSpn=           0           0           0           2           0           0           0           0           0           0
 AtZEff=  -0.0000000  -0.0000000  -0.0000000  -0.0000000  -0.0000000  -0.0000000  -0.0000000  -0.0000000  -0.0000000  -0.0000000
 NQMom=    0.0000000   0.0000000   0.0000000   2.0440000   0.0000000   0.0000000   0.0000000   0.0000000   0.0000000   0.0000000
 NMagM=    0.0000000   0.0000000   0.0000000   0.4037610   0.0000000   0.0000000   0.0000000   0.0000000   0.0000000   0.0000000
 AtZNuc=   6.0000000   8.0000000   6.0000000   7.0000000   6.0000000   6.0000000   6.0000000   6.0000000   6.0000000   6.0000000

  Atom        31          32          33          34          35          36          37          38          39          40
 IAtWgt=          12          14          12          12          12          12          12          12          16          12
 AtmWgt=  12.0000000  14.0030740  12.0000000  12.0000000  12.0000000  12.0000000  12.0000000  12.0000000  15.9949146  12.0000000
 NucSpn=           0           2           0           0           0           0           0           0           0           0
 AtZEff=  -0.0000000  -0.0000000  -0.0000000  -0.0000000  -0.0000000  -0.0000000  -0.0000000  -0.0000000  -0.0000000  -0.0000000
 NQMom=    0.0000000   2.0440000   0.0000000   0.0000000   0.0000000   0.0000000   0.0000000   0.0000000   0.0000000   0.0000000
 NMagM=    0.0000000   0.4037610   0.0000000   0.0000000   0.0000000   0.0000000   0.0000000   0.0000000   0.0000000   0.0000000
 AtZNuc=   6.0000000   7.0000000   6.0000000   6.0000000   6.0000000   6.0000000   6.0000000   6.0000000   8.0000000   6.0000000

  Atom        41          42          43          44          45          46          47          48          49          50
 IAtWgt=          12          16          16          12           1           1           1           1           1           1
 AtmWgt=  12.0000000  15.9949146  15.9949146  12.0000000   1.0078250   1.0078250   1.0078250   1.0078250   1.0078250   1.0078250
 NucSpn=           0           0           0           0           1           1           1           1           1           1
 AtZEff=  -0.0000000  -0.0000000  -0.0000000  -0.0000000  -0.0000000  -0.0000000  -0.0000000  -0.0000000  -0.0000000  -0.0000000
 NQMom=    0.0000000   0.0000000   0.0000000   0.0000000   0.0000000   0.0000000   0.0000000   0.0000000   0.0000000   0.0000000
 NMagM=    0.0000000   0.0000000   0.0000000   0.0000000   2.7928460   2.7928460   2.7928460   2.7928460   2.7928460   2.7928460
 AtZNuc=   6.0000000   8.0000000   8.0000000   6.0000000   1.0000000   1.0000000   1.0000000   1.0000000   1.0000000   1.0000000

  Atom        51          52          53          54          55          56          57          58          59          60
 IAtWgt=           1           1           1           1           1           1           1           1           1           1
 AtmWgt=   1.0078250   1.0078250   1.0078250   1.0078250   1.0078250   1.0078250   1.0078250   1.0078250   1.0078250   1.0078250
 NucSpn=           1           1           1           1           1           1           1           1           1           1
 AtZEff=  -0.0000000  -0.0000000  -0.0000000  -0.0000000  -0.0000000  -0.0000000  -0.0000000  -0.0000000  -0.0000000  -0.0000000
 NQMom=    0.0000000   0.0000000   0.0000000   0.0000000   0.0000000   0.0000000   0.0000000   0.0000000   0.0000000   0.0000000
 NMagM=    2.7928460   2.7928460   2.7928460   2.7928460   2.7928460   2.7928460   2.7928460   2.7928460   2.7928460   2.7928460
 AtZNuc=   1.0000000   1.0000000   1.0000000   1.0000000   1.0000000   1.0000000   1.0000000   1.0000000   1.0000000   1.0000000

  Atom        61          62          63          64          65          66          67          68          69          70
 IAtWgt=           1           1           1           1           1           1           1           1           1           1
 AtmWgt=   1.0078250   1.0078250   1.0078250   1.0078250   1.0078250   1.0078250   1.0078250   1.0078250   1.0078250   1.0078250
 NucSpn=           1           1           1           1           1           1           1           1           1           1
 AtZEff=  -0.0000000  -0.0000000  -0.0000000  -0.0000000  -0.0000000  -0.0000000  -0.0000000  -0.0000000  -0.0000000  -0.0000000
 NQMom=    0.0000000   0.0000000   0.0000000   0.0000000   0.0000000   0.0000000   0.0000000   0.0000000   0.0000000   0.0000000
 NMagM=    2.7928460   2.7928460   2.7928460   2.7928460   2.7928460   2.7928460   2.7928460   2.7928460   2.7928460   2.7928460
 AtZNuc=   1.0000000   1.0000000   1.0000000   1.0000000   1.0000000   1.0000000   1.0000000   1.0000000   1.0000000   1.0000000

  Atom        71          72          73          74          75          76          77          78          79          80
 IAtWgt=           1           1           1           1           1           1           1           1           1          24
 AtmWgt=   1.0078250   1.0078250   1.0078250   1.0078250   1.0078250   1.0078250   1.0078250   1.0078250   1.0078250  23.9850450
 NucSpn=           1           1           1           1           1           1           1           1           1           0
 AtZEff=  -0.0000000  -0.0000000  -0.0000000  -0.0000000  -0.0000000  -0.0000000  -0.0000000  -0.0000000  -0.0000000  -0.0000000
 NQMom=    0.0000000   0.0000000   0.0000000   0.0000000   0.0000000   0.0000000   0.0000000   0.0000000   0.0000000   0.0000000
 NMagM=    2.7928460   2.7928460   2.7928460   2.7928460   2.7928460   2.7928460   2.7928460   2.7928460   2.7928460   0.0000000
 AtZNuc=   1.0000000   1.0000000   1.0000000   1.0000000   1.0000000   1.0000000   1.0000000   1.0000000   1.0000000  12.0000000

  Atom        81          82          83          84          85          86          87          88          89          90
 IAtWgt=          12          12          12          12          14          12          12          12          12          12
 AtmWgt=  12.0000000  12.0000000  12.0000000  12.0000000  14.0030740  12.0000000  12.0000000  12.0000000  12.0000000  12.0000000
 NucSpn=           0           0           0           0           2           0           0           0           0           0
 AtZEff=  -0.0000000  -0.0000000  -0.0000000  -0.0000000  -0.0000000  -0.0000000  -0.0000000  -0.0000000  -0.0000000  -0.0000000
 NQMom=    0.0000000   0.0000000   0.0000000   0.0000000   2.0440000   0.0000000   0.0000000   0.0000000   0.0000000   0.0000000
 NMagM=    0.0000000   0.0000000   0.0000000   0.0000000   0.4037610   0.0000000   0.0000000   0.0000000   0.0000000   0.0000000
 AtZNuc=   6.0000000   6.0000000   6.0000000   6.0000000   7.0000000   6.0000000   6.0000000   6.0000000   6.0000000   6.0000000

  Atom        91          92          93          94          95          96          97          98          99         100
 IAtWgt=          12          12           1          14          12          12          12          12          12          12
 AtmWgt=  12.0000000  12.0000000   1.0078250  14.0030740  12.0000000  12.0000000  12.0000000  12.0000000  12.0000000  12.0000000
 NucSpn=           0           0           1           2           0           0           0           0           0           0
 AtZEff=  -0.0000000  -0.0000000  -0.0000000  -0.0000000  -0.0000000  -0.0000000  -0.0000000  -0.0000000  -0.0000000  -0.0000000
 NQMom=    0.0000000   0.0000000   0.0000000   2.0440000   0.0000000   0.0000000   0.0000000   0.0000000   0.0000000   0.0000000
 NMagM=    0.0000000   0.0000000   2.7928460   0.4037610   0.0000000   0.0000000   0.0000000   0.0000000   0.0000000   0.0000000
 AtZNuc=   6.0000000   6.0000000   1.0000000   7.0000000   6.0000000   6.0000000   6.0000000   6.0000000   6.0000000   6.0000000

  Atom       101         102         103         104         105         106         107         108         109         110
 IAtWgt=          16          12          14          12          12          12          12          12          12          12
 AtmWgt=  15.9949146  12.0000000  14.0030740  12.0000000  12.0000000  12.0000000  12.0000000  12.0000000  12.0000000  12.0000000
 NucSpn=           0           0           2           0           0           0           0           0           0           0
 AtZEff=  -0.0000000  -0.0000000  -0.0000000  -0.0000000  -0.0000000  -0.0000000  -0.0000000  -0.0000000  -0.0000000  -0.0000000
 NQMom=    0.0000000   0.0000000   2.0440000   0.0000000   0.0000000   0.0000000   0.0000000   0.0000000   0.0000000   0.0000000
 NMagM=    0.0000000   0.0000000   0.4037610   0.0000000   0.0000000   0.0000000   0.0000000   0.0000000   0.0000000   0.0000000
 AtZNuc=   8.0000000   6.0000000   7.0000000   6.0000000   6.0000000   6.0000000   6.0000000   6.0000000   6.0000000   6.0000000

  Atom       111         112         113         114         115         116         117         118         119         120
 IAtWgt=          14          12          12          12          12          12          12          16          12          12
 AtmWgt=  14.0030740  12.0000000  12.0000000  12.0000000  12.0000000  12.0000000  12.0000000  15.9949146  12.0000000  12.0000000
 NucSpn=           2           0           0           0           0           0           0           0           0           0
 AtZEff=  -0.0000000  -0.0000000  -0.0000000  -0.0000000  -0.0000000  -0.0000000  -0.0000000  -0.0000000  -0.0000000  -0.0000000
 NQMom=    2.0440000   0.0000000   0.0000000   0.0000000   0.0000000   0.0000000   0.0000000   0.0000000   0.0000000   0.0000000
 NMagM=    0.4037610   0.0000000   0.0000000   0.0000000   0.0000000   0.0000000   0.0000000   0.0000000   0.0000000   0.0000000
 AtZNuc=   7.0000000   6.0000000   6.0000000   6.0000000   6.0000000   6.0000000   6.0000000   8.0000000   6.0000000   6.0000000

  Atom       121         122         123         124         125         126         127         128         129         130
 IAtWgt=          16          16          12           1           1           1           1           1           1           1
 AtmWgt=  15.9949146  15.9949146  12.0000000   1.0078250   1.0078250   1.0078250   1.0078250   1.0078250   1.0078250   1.0078250
 NucSpn=           0           0           0           1           1           1           1           1           1           1
 AtZEff=  -0.0000000  -0.0000000  -0.0000000  -0.0000000  -0.0000000  -0.0000000  -0.0000000  -0.0000000  -0.0000000  -0.0000000
 NQMom=    0.0000000   0.0000000   0.0000000   0.0000000   0.0000000   0.0000000   0.0000000   0.0000000   0.0000000   0.0000000
 NMagM=    0.0000000   0.0000000   0.0000000   2.7928460   2.7928460   2.7928460   2.7928460   2.7928460   2.7928460   2.7928460
 AtZNuc=   8.0000000   8.0000000   6.0000000   1.0000000   1.0000000   1.0000000   1.0000000   1.0000000   1.0000000   1.0000000

  Atom       131         132         133         134         135         136         137         138         139         140
 IAtWgt=           1           1           1           1           1           1           1           1           1           1
 AtmWgt=   1.0078250   1.0078250   1.0078250   1.0078250   1.0078250   1.0078250   1.0078250   1.0078250   1.0078250   1.0078250
 NucSpn=           1           1           1           1           1           1           1           1           1           1
 AtZEff=  -0.0000000  -0.0000000  -0.0000000  -0.0000000  -0.0000000  -0.0000000  -0.0000000  -0.0000000  -0.0000000  -0.0000000
 NQMom=    0.0000000   0.0000000   0.0000000   0.0000000   0.0000000   0.0000000   0.0000000   0.0000000   0.0000000   0.0000000
 NMagM=    2.7928460   2.7928460   2.7928460   2.7928460   2.7928460   2.7928460   2.7928460   2.7928460   2.7928460   2.7928460
 AtZNuc=   1.0000000   1.0000000   1.0000000   1.0000000   1.0000000   1.0000000   1.0000000   1.0000000   1.0000000   1.0000000

  Atom       141         142         143         144         145         146         147         148         149         150
 IAtWgt=           1           1           1           1           1           1           1           1           1           1
 AtmWgt=   1.0078250   1.0078250   1.0078250   1.0078250   1.0078250   1.0078250   1.0078250   1.0078250   1.0078250   1.0078250
 NucSpn=           1           1           1           1           1           1           1           1           1           1
 AtZEff=  -0.0000000  -0.0000000  -0.0000000  -0.0000000  -0.0000000  -0.0000000  -0.0000000  -0.0000000  -0.0000000  -0.0000000
 NQMom=    0.0000000   0.0000000   0.0000000   0.0000000   0.0000000   0.0000000   0.0000000   0.0000000   0.0000000   0.0000000
 NMagM=    2.7928460   2.7928460   2.7928460   2.7928460   2.7928460   2.7928460   2.7928460   2.7928460   2.7928460   2.7928460
 AtZNuc=   1.0000000   1.0000000   1.0000000   1.0000000   1.0000000   1.0000000   1.0000000   1.0000000   1.0000000   1.0000000

  Atom       151         152         153         154         155         156         157         158
 IAtWgt=           1           1           1           1           1           1           1           1
 AtmWgt=   1.0078250   1.0078250   1.0078250   1.0078250   1.0078250   1.0078250   1.0078250   1.0078250
 NucSpn=           1           1           1           1           1           1           1           1
 AtZEff=  -0.0000000  -0.0000000  -0.0000000  -0.0000000  -0.0000000  -0.0000000  -0.0000000  -0.0000000
 NQMom=    0.0000000   0.0000000   0.0000000   0.0000000   0.0000000   0.0000000   0.0000000   0.0000000
 NMagM=    2.7928460   2.7928460   2.7928460   2.7928460   2.7928460   2.7928460   2.7928460   2.7928460
 AtZNuc=   1.0000000   1.0000000   1.0000000   1.0000000   1.0000000   1.0000000   1.0000000   1.0000000
 Leave Link  101 at Thu Sep  9 06:45:34 2021, MaxMem= 23488102400 cpu:               3.1 elap:               0.2
 (Enter /sw/apps/gaussian-16.0/g16/l202.exe)
 Stoichiometry    C68H72Mg2N8O8
 Framework group  C1[X(C68H72Mg2N8O8)]
 Deg. of freedom   468
 Full point group                 C1      NOp   1
 Largest Abelian subgroup         C1      NOp   1
 Largest concise Abelian subgroup C1      NOp   1
                         Standard orientation:                         
 ---------------------------------------------------------------------
 Center     Atomic      Atomic             Coordinates (Angstroms)
 Number     Number       Type             X           Y           Z
 ---------------------------------------------------------------------
      1         12           0       -3.880912   -0.733245    0.118665
      2          6           0       -4.039892    2.836162    0.333782
      3          6           0       -4.784710   -0.427352   -3.157406
      4          6           0       -4.189862   -3.887900    0.022126
      5          6           0       -4.108938   -0.805488    3.595510
      6          7           0       -4.325915    1.034095   -1.137969
      7          6           0       -4.292485    2.349785   -0.950850
      8          6           0       -4.476594    3.165642   -2.265329
      9          6           0       -5.250727    2.074458   -3.132528
     10          6           0       -4.730213    0.816162   -2.460458
     11          6           0       -6.766128    2.128365   -2.967737
     12          6           0       -3.108556    3.553275   -2.921029
     13          6           0       -3.188494    4.618610   -4.018310
     14          1           0       -2.102767    5.579482   -4.141885
     15          7           0       -3.930200   -1.969185   -1.421748
     16          6           0       -4.308505   -1.670578   -2.687846
     17          6           0       -4.170987   -2.923813   -3.460616
     18          6           0       -3.863830   -4.019487   -2.499758
     19          6           0       -4.010107   -3.331944   -1.242274
     20          6           0       -4.280811   -2.986390   -4.953188
     21          6           0       -3.506993   -5.460474   -2.685108
     22          8           0       -3.507729   -6.291751   -1.713742
     23          6           0       -3.238992   -5.898393   -4.066935
     24          7           0       -4.336497   -2.160596    1.572194
     25          6           0       -4.349129   -3.465315    1.278033
     26          6           0       -4.418273   -4.304293    2.519514
     27          6           0       -4.204571   -3.301203    3.743400
     28          6           0       -4.126946   -1.973686    2.949711
     29          6           0       -5.720990   -5.089650    2.724827
     30          6           0       -3.062260   -3.635399    4.735295
     31          6           0       -1.724318   -3.486684    4.046169
     32          7           0       -3.868102    0.731726    1.720146
     33          6           0       -3.998213    0.480513    3.093695
     34          6           0       -4.040603    1.789934    3.770221
     35          6           0       -3.948281    2.718188    2.735008
     36          6           0       -3.880616    2.032467    1.488613
     37          6           0       -4.209819    2.001168    5.167068
     38          6           0       -3.915868    4.130208    2.390036
     39          8           0       -3.848027    5.178662    3.033180
     40          6           0       -4.096640    4.265160    0.813667
     41          6           0       -3.043318    5.216657    0.315196
     42          8           0       -1.833818    4.912521    0.359674
     43          8           0       -3.631992    6.224000   -0.347575
     44          6           0       -2.640627    7.188814   -0.893911
     45          1           0       -5.289467   -0.468662   -4.124595
     46          1           0       -4.190248   -4.979671    0.043921
     47          1           0       -4.093905   -0.750594    4.685562
     48          1           0       -5.088701    4.061794   -2.162078
     49          1           0       -4.948683    2.097558   -4.179408
     50          1           0       -7.056823    2.824546   -2.181130
     51          1           0       -7.066946    1.113224   -2.707950
     52          1           0       -7.251481    2.350685   -3.918412
     53          1           0       -2.739205    2.711305   -3.506458
     54          1           0       -2.393017    3.870764   -2.161733
     55          1           0       -4.151597    5.129726   -4.008191
     56          1           0       -3.158686    4.116023   -4.985118
     57          1           0       -4.674914   -2.058159   -5.365032
     58          1           0       -5.041662   -3.731265   -5.185515
     59          1           0       -3.337480   -3.265641   -5.422738
     60          1           0       -4.119324   -5.709169   -4.681556
     61          1           0       -2.913436   -6.935607   -3.995873
     62          1           0       -2.437844   -5.286298   -4.482206
     63          1           0       -3.627828   -5.053639    2.529617
     64          1           0       -5.091469   -3.229937    4.373485
     65          1           0       -5.572150   -6.164442    2.831476
     66          1           0       -6.383646   -4.867672    1.888823
     67          1           0       -6.323448   -4.762257    3.571748
     68          1           0       -3.138876   -4.670280    5.067104
     69          1           0       -3.063373   -3.001776    5.622296
     70          1           0       -1.603541   -4.443735    3.539911
     71          1           0       -0.933388   -3.330957    4.780601
     72          1           0       -1.755817   -2.713526    3.278236
     73          1           0       -3.499495    2.779322    5.446144
     74          1           0       -4.034898    1.084704    5.730183
     75          1           0       -5.252132    2.318103    5.198555
     76          1           0       -5.103952    4.644633    0.645011
     77          1           0       -2.905646    8.173733   -0.509290
     78          1           0       -2.638356    7.051766   -1.975400
     79          1           0       -1.619186    7.091599   -0.524387
     80         12           0        4.063248   -0.822332    0.034113
     81          6           0        3.743877    2.746463    0.236008
     82          6           0        3.305258   -0.552999   -3.280624
     83          6           0        3.893633   -3.988568   -0.082560
     84          6           0        3.664636   -0.914652    3.495083
     85          7           0        3.604690    0.925380   -1.241606
     86          6           0        3.573199    2.238176   -1.068575
     87          6           0        3.425993    3.056352   -2.379487
     88          6           0        2.733766    1.929143   -3.290019
     89          6           0        3.271603    0.683767   -2.588262
     90          6           0        1.217712    1.918767   -3.186013
     91          6           0        4.812155    3.498154   -2.967177
     92          6           0        4.735318    4.556565   -4.069720
     93          1           0        5.791399    5.562394   -4.143810
     94          7           0        4.143439   -2.056400   -1.518044
     95          6           0        3.821420   -1.775786   -2.798215
     96          6           0        4.032026   -3.023358   -3.548794
     97          6           0        4.346645   -4.107071   -2.578590
     98          6           0        4.114578   -3.415435   -1.326435
     99          6           0        4.005948   -3.085033   -5.048433
    100          6           0        4.771996   -5.533968   -2.749618
    101          8           0        4.759509   -6.362171   -1.771485
    102          6           0        5.114361   -5.956786   -4.115446
    103          7           0        3.604745   -2.263291    1.460919
    104          6           0        3.655182   -3.573170    1.161595
    105          6           0        3.557605   -4.421474    2.407089
    106          6           0        3.674797   -3.400581    3.632496
    107          6           0        3.732833   -2.070700    2.849270
    108          6           0        2.278461   -5.245575    2.552140
    109          6           0        4.780986   -3.687752    4.684425
    110          6           0        6.145923   -3.495234    4.063723
    111          7           0        3.943364    0.634238    1.625365
    112          6           0        3.749838    0.380725    3.001006
    113          6           0        3.621050    1.690922    3.671252
    114          6           0        3.726396    2.622588    2.627523
    115          6           0        3.887795    1.940597    1.391273
    116          6           0        3.386007    1.895270    5.060178
    117          6           0        3.727109    4.027647    2.289127
    118          8           0        3.713352    5.076173    2.932668
    119          6           0        3.611706    4.167190    0.710011
    120          6           0        4.648379    5.157176    0.254202
    121          8           0        5.860027    4.902353    0.370715
    122          8           0        4.044550    6.140115   -0.438327
    123          6           0        5.033080    7.140947   -0.920980
    124          1           0        2.856013   -0.604557   -4.272802
    125          1           0        3.936587   -5.079751   -0.051843
    126          1           0        3.636362   -0.855762    4.585230
    127          1           0        2.779389    3.922382   -2.304254
    128          1           0        3.092497    1.974095   -4.315031
    129          1           0        0.861516    2.595892   -2.423936
    130          1           0        0.946462    0.899649   -2.943400
    131          1           0        0.771418    2.124967   -4.163071
    132          1           0        5.241710    2.664150   -3.536963
    133          1           0        5.466539    3.835750   -2.187152
    134          1           0        3.747968    5.031838   -4.116770
    135          1           0        4.839376    4.058505   -5.036736
    136          1           0        3.587089   -2.168296   -5.481513
    137          1           0        3.290254   -3.867190   -5.323903
    138          1           0        4.980024   -3.330503   -5.476906
    139          1           0        4.258964   -5.797918   -4.767767
    140          1           0        5.479133   -6.981467   -4.021366
    141          1           0        5.919006   -5.313857   -4.489374
    142          1           0        4.376778   -5.128135    2.458838
    143          1           0        2.751647   -3.373407    4.229905
    144          1           0        2.468211   -6.329559    2.666318
    145          1           0        1.651952   -5.057913    1.690278
    146          1           0        1.631023   -4.952067    3.376691
    147          1           0        4.732389   -4.729681    5.010293
    148          1           0        4.704053   -3.068785    5.572089
    149          1           0        6.325126   -4.450129    3.560583
    150          1           0        6.893168   -3.307623    4.832141
    151          1           0        6.121448   -2.716052    3.293042
    152          1           0        4.042345    2.696661    5.372408
    153          1           0        3.566262    0.987194    5.631740
    154          1           0        2.326647    2.164816    5.041131
    155          1           0        2.598605    4.501948    0.483887
    156          1           0        4.705879    8.117442   -0.550729
    157          1           0        5.080917    7.008485   -2.018204
    158          1           0        6.037703    7.087765   -0.518030
 ---------------------------------------------------------------------
 Rotational constants (GHZ):           0.0202543           0.0178629           0.0142648
 Leave Link  202 at Thu Sep  9 06:45:34 2021, MaxMem= 23488102400 cpu:               0.2 elap:               0.0
 (Enter /sw/apps/gaussian-16.0/g16/l301.exe)
 Standard basis: def2SVP (5D, 7F)
 Ernie: Thresh=  0.10000D-02 Tol=  0.10000D-05 Strict=F.
 There are  1658 symmetry adapted cartesian basis functions of A   symmetry.
 There are  1572 symmetry adapted basis functions of A   symmetry.
  1572 basis functions,  2678 primitive gaussians,  1658 cartesian basis functions
   312 alpha electrons      312 beta electrons
       nuclear repulsion energy     15970.5145719048 Hartrees.
 IExCor=20419 DFT=T Ex+Corr=CAM-B3LYP ExCW=0 ScaHFX=  1.000000
 ScaDFX=  1.000000  1.000000  1.000000  0.810000 ScalE2=  1.000000  1.000000
 IRadAn=      5 IRanWt=     -1 IRanGd=            0 ICorTp=0 IEmpDi=  4
 HFx  wShort=  0.000000 wLong=  0.330000 cFull=  0.190000 cShort=  0.000000 cLong=  0.460000
 DFx  wShort=  0.000000 wLong=  0.330000 cFull=  0.190000 cShort=  0.000000 cLong=  0.460000
 NAtoms=  158 NActive=  158 NUniq=  158 SFac= 1.00D+00 NAtFMM=   60 NAOKFM=T Big=T
 Integral buffers will be    131072 words long.
 Raffenetti 1 integral format.
 Two-electron integral symmetry is turned on.
 Leave Link  301 at Thu Sep  9 06:45:34 2021, MaxMem= 23488102400 cpu:               1.3 elap:               0.1
 (Enter /sw/apps/gaussian-16.0/g16/l302.exe)
 NPDir=0 NMtPBC=     1 NCelOv=     1 NCel=       1 NClECP=     1 NCelD=      1
         NCelK=      1 NCelE2=     1 NClLst=     1 CellRange=     0.0.
 One-electron integrals computed using PRISM.
 One-electron integral symmetry used in STVInt
   1 Symmetry operations used in ECPInt.
 ECPInt:  NShTT=  271216 NPrTT=  987664 LenC2=  164461 LenP2D=  344940.
 LDataN:  DoStor=T MaxTD1= 4 Len=   56
 NBasis=  1572 RedAO= T EigKep=  3.35D-04  NBF=  1572
 NBsUse=  1572 1.00D-06 EigRej= -1.00D+00 NBFU=  1572
 Precomputing XC quadrature grid using
 IXCGrd= 4 IRadAn=           5 IRanWt=          -1 IRanGd=           0 AccXCQ= 0.00D+00.
 Generated NRdTot=       0 NPtTot=           0 NUsed=           0 NTot=          32
 NSgBfM=  1235  1228  1232  1233  1235 MxSgAt=   158 MxSgA2=   158.
 Leave Link  302 at Thu Sep  9 06:45:40 2021, MaxMem= 23488102400 cpu:             132.0 elap:               5.5
 (Enter /sw/apps/gaussian-16.0/g16/l303.exe)
 DipDrv:  MaxL=1.
 Leave Link  303 at Thu Sep  9 06:45:40 2021, MaxMem= 23488102400 cpu:              10.0 elap:               0.5
 (Enter /sw/apps/gaussian-16.0/g16/l308.exe)
 Leave Link  308 at Thu Sep  9 06:45:41 2021, MaxMem= 23488102400 cpu:              15.1 elap:               0.7
 (Enter /sw/apps/gaussian-16.0/g16/l401.exe)
 ExpMin= 3.36D-02 ExpMax= 4.95D+03 ExpMxC= 7.45D+02 IAcc=3 IRadAn=         5 AccDes= 0.00D+00
 Harris functional with IExCor=20419 and IRadAn=       5 diagonalized for initial guess.
 HarFok:  IExCor=20419 AccDes= 0.00D+00 IRadAn=         5 IDoV= 1 UseB2=F ITyADJ=14
 ICtDFT=  3500011 ScaDFX=  1.000000  1.000000  1.000000  1.000000
 FoFCou: FMM=F IPFlag=           0 FMFlag=      100000 FMFlg1=        2001
         NFxFlg=           0 DoJE=T BraDBF=F KetDBF=T FulRan=T
         wScrn=  0.000000 ICntrl=       500 IOpCl=  0 I1Cent=   200000004 NGrid=           0
         NMat0=    1 NMatS0=      1 NMatT0=    0 NMatD0=    1 NMtDS0=    0 NMtDT0=    0
 Petite list used in FoFCou.
 Harris En= -3918.65812719852    
 JPrj=0 DoOrth=F DoCkMO=F.
 Leave Link  401 at Thu Sep  9 06:45:49 2021, MaxMem= 23488102400 cpu:             203.3 elap:               8.5
 (Enter /sw/apps/gaussian-16.0/g16/l502.exe)
 Integral symmetry usage will be decided dynamically.
 Closed shell SCF:
 Using DIIS extrapolation, IDIIS=  1040.
 NGot= 23488102400 LenX= 23482547354 LenY= 23479796732
 Requested convergence on RMS density matrix=1.00D-08 within 128 cycles.
 Requested convergence on MAX density matrix=1.00D-06.
 Requested convergence on             energy=1.00D-06.
 No special actions if energy rises.
 Fock matrices will be formed incrementally for  20 cycles.

 Cycle   1  Pass 1  IDiag  1:
 FoFJK:  IHMeth= 1 ICntrl=       0 DoSepK=T KAlg= 0 I1Cent=           0 FoldK=F
 IRaf=         1 NMat=       1 IRICut=       1 DoRegI=T DoRafI=F ISym2E= 0 IDoP0=0 IntGTp=1.
 FoFCou: FMM=T IPFlag=           0 FMFlag=      100000 FMFlg1=        2001
         NFxFlg=           0 DoJE=T BraDBF=F KetDBF=F FulRan=T
         wScrn=  0.000000 ICntrl=       500 IOpCl=  0 I1Cent=           0 NGrid=           0
         NMat0=    1 NMatS0=      1 NMatT0=    0 NMatD0=    1 NMtDS0=    0 NMtDT0=    0
 Symmetry not used in FoFCou.
 FMM levels:  10  Number of levels for PrismC:   9
 E= -4068.94766192932    
 DIIS: error= 2.03D-02 at cycle   1 NSaved=   1.
 NSaved= 1 IEnMin= 1 EnMin= -4068.94766192932     IErMin= 1 ErrMin= 2.03D-02
 ErrMax= 2.03D-02  0.00D+00 EMaxC= 1.00D-01 BMatC= 1.69D+00 BMatP= 1.69D+00
 IDIUse=3 WtCom= 7.97D-01 WtEn= 2.03D-01
 Coeff-Com:  0.100D+01
 Coeff-En:   0.100D+01
 Coeff:      0.100D+01
 Gap=     0.120 Goal=   None    Shift=    0.000
 GapD=    0.120 DampG=1.000 DampE=0.500 DampFc=0.5000 IDamp=-1.
 Damping current iteration by 5.00D-01
 RMSDP=1.58D-03 MaxDP=1.39D-01              OVMax= 2.12D-01

 Cycle   2  Pass 1  IDiag  1:
 RMSU=  7.72D-04    CP:  9.82D-01
 E= -4069.33559894024     Delta-E=       -0.387937010921 Rises=F Damp=T
 DIIS: error= 1.26D-02 at cycle   2 NSaved=   2.
 NSaved= 2 IEnMin= 2 EnMin= -4069.33559894024     IErMin= 2 ErrMin= 1.26D-02
 ErrMax= 1.26D-02  0.00D+00 EMaxC= 1.00D-01 BMatC= 3.07D-01 BMatP= 1.69D+00
 IDIUse=3 WtCom= 8.74D-01 WtEn= 1.26D-01
 Coeff-Com: -0.211D+00 0.121D+01
 Coeff-En:   0.000D+00 0.100D+01
 Coeff:     -0.185D+00 0.118D+01
 Gap=     0.134 Goal=   None    Shift=    0.000
 RMSDP=7.74D-04 MaxDP=9.62D-02 DE=-3.88D-01 OVMax= 1.97D-01

 Cycle   3  Pass 1  IDiag  1:
 RMSU=  7.45D-04    CP:  9.68D-01  1.22D+00
 E= -4069.61834576601     Delta-E=       -0.282746825771 Rises=F Damp=F
 DIIS: error= 1.55D-02 at cycle   3 NSaved=   3.
 NSaved= 3 IEnMin= 3 EnMin= -4069.61834576601     IErMin= 2 ErrMin= 1.26D-02
 ErrMax= 1.55D-02  0.00D+00 EMaxC= 1.00D-01 BMatC= 2.07D-01 BMatP= 3.07D-01
 IDIUse=3 WtCom= 8.45D-01 WtEn= 1.55D-01
 Coeff-Com: -0.268D+00 0.656D+00 0.612D+00
 Coeff-En:   0.000D+00 0.000D+00 0.100D+01
 Coeff:     -0.227D+00 0.554D+00 0.672D+00
 Gap=     0.120 Goal=   None    Shift=    0.000
 RMSDP=5.33D-04 MaxDP=4.91D-02 DE=-2.83D-01 OVMax= 1.66D-01

 Cycle   4  Pass 1  IDiag  1:
 RMSU=  2.76D-04    CP:  9.65D-01  1.55D+00  4.89D-01
 E= -4069.75932356334     Delta-E=       -0.140977797331 Rises=F Damp=F
 DIIS: error= 6.89D-03 at cycle   4 NSaved=   4.
 NSaved= 4 IEnMin= 4 EnMin= -4069.75932356334     IErMin= 4 ErrMin= 6.89D-03
 ErrMax= 6.89D-03  0.00D+00 EMaxC= 1.00D-01 BMatC= 5.31D-02 BMatP= 2.07D-01
 IDIUse=3 WtCom= 9.31D-01 WtEn= 6.89D-02
 Coeff-Com: -0.111D+00 0.232D+00 0.411D+00 0.469D+00
 Coeff-En:   0.000D+00 0.000D+00 0.233D+00 0.767D+00
 Coeff:     -0.104D+00 0.216D+00 0.398D+00 0.489D+00
 Gap=     0.119 Goal=   None    Shift=    0.000
 RMSDP=2.19D-04 MaxDP=1.84D-02 DE=-1.41D-01 OVMax= 7.97D-02

 Cycle   5  Pass 1  IDiag  1:
 RMSU=  8.49D-05    CP:  9.64D-01  1.48D+00  6.84D-01  5.28D-01
 E= -4069.80949467397     Delta-E=       -0.050171110626 Rises=F Damp=F
 DIIS: error= 6.48D-04 at cycle   5 NSaved=   5.
 NSaved= 5 IEnMin= 5 EnMin= -4069.80949467397     IErMin= 5 ErrMin= 6.48D-04
 ErrMax= 6.48D-04  0.00D+00 EMaxC= 1.00D-01 BMatC= 1.60D-03 BMatP= 5.31D-02
 IDIUse=3 WtCom= 9.94D-01 WtEn= 6.48D-03
 Coeff-Com: -0.414D-01 0.820D-01 0.184D+00 0.265D+00 0.510D+00
 Coeff-En:   0.000D+00 0.000D+00 0.000D+00 0.000D+00 0.100D+01
 Coeff:     -0.412D-01 0.815D-01 0.183D+00 0.264D+00 0.514D+00
 Gap=     0.119 Goal=   None    Shift=    0.000
 RMSDP=5.18D-05 MaxDP=4.99D-03 DE=-5.02D-02 OVMax= 2.49D-02

 Cycle   6  Pass 1  IDiag  1:
 RMSU=  3.56D-05    CP:  9.64D-01  1.49D+00  6.73D-01  6.13D-01  6.77D-01
 E= -4069.81107207412     Delta-E=       -0.001577400151 Rises=F Damp=F
 DIIS: error= 2.26D-04 at cycle   6 NSaved=   6.
 NSaved= 6 IEnMin= 6 EnMin= -4069.81107207412     IErMin= 6 ErrMin= 2.26D-04
 ErrMax= 2.26D-04  0.00D+00 EMaxC= 1.00D-01 BMatC= 2.44D-04 BMatP= 1.60D-03
 IDIUse=3 WtCom= 9.98D-01 WtEn= 2.26D-03
 Coeff-Com:  0.121D-02-0.474D-02 0.164D-01 0.464D-01 0.301D+00 0.640D+00
 Coeff-En:   0.000D+00 0.000D+00 0.000D+00 0.000D+00 0.130D+00 0.870D+00
 Coeff:      0.120D-02-0.472D-02 0.164D-01 0.463D-01 0.301D+00 0.640D+00
 Gap=     0.119 Goal=   None    Shift=    0.000
 RMSDP=1.96D-05 MaxDP=1.48D-03 DE=-1.58D-03 OVMax= 9.18D-03

 Cycle   7  Pass 1  IDiag  1:
 RMSU=  1.22D-05    CP:  9.64D-01  1.49D+00  6.79D-01  6.10D-01  8.04D-01
                    CP:  7.33D-01
 E= -4069.81135786050     Delta-E=       -0.000285786376 Rises=F Damp=F
 DIIS: error= 1.37D-04 at cycle   7 NSaved=   7.
 NSaved= 7 IEnMin= 7 EnMin= -4069.81135786050     IErMin= 7 ErrMin= 1.37D-04
 ErrMax= 1.37D-04  0.00D+00 EMaxC= 1.00D-01 BMatC= 3.29D-05 BMatP= 2.44D-04
 IDIUse=3 WtCom= 9.99D-01 WtEn= 1.37D-03
 Coeff-Com:  0.478D-02-0.106D-01-0.880D-02-0.269D-02 0.111D+00 0.348D+00
 Coeff-Com:  0.558D+00
 Coeff-En:   0.000D+00 0.000D+00 0.000D+00 0.000D+00 0.000D+00 0.000D+00
 Coeff-En:   0.100D+01
 Coeff:      0.478D-02-0.105D-01-0.879D-02-0.269D-02 0.111D+00 0.348D+00
 Coeff:      0.559D+00
 Gap=     0.119 Goal=   None    Shift=    0.000
 RMSDP=7.11D-06 MaxDP=1.11D-03 DE=-2.86D-04 OVMax= 3.51D-03

 Cycle   8  Pass 1  IDiag  1:
 RMSU=  5.14D-06    CP:  9.64D-01  1.49D+00  6.80D-01  6.15D-01  8.02D-01
                    CP:  8.44D-01  8.09D-01
 E= -4069.81139700368     Delta-E=       -0.000039143186 Rises=F Damp=F
 DIIS: error= 6.11D-05 at cycle   8 NSaved=   8.
 NSaved= 8 IEnMin= 8 EnMin= -4069.81139700368     IErMin= 8 ErrMin= 6.11D-05
 ErrMax= 6.11D-05  0.00D+00 EMaxC= 1.00D-01 BMatC= 5.06D-06 BMatP= 3.29D-05
 IDIUse=1 WtCom= 1.00D+00 WtEn= 0.00D+00
 Coeff-Com:  0.232D-02-0.463D-02-0.798D-02-0.120D-01-0.509D-02 0.333D-01
 Coeff-Com:  0.291D+00 0.703D+00
 Coeff:      0.232D-02-0.463D-02-0.798D-02-0.120D-01-0.509D-02 0.333D-01
 Coeff:      0.291D+00 0.703D+00
 Gap=     0.119 Goal=   None    Shift=    0.000
 RMSDP=3.58D-06 MaxDP=4.53D-04 DE=-3.91D-05 OVMax= 1.27D-03

 Cycle   9  Pass 1  IDiag  1:
 RMSU=  2.12D-06    CP:  9.64D-01  1.49D+00  6.81D-01  6.16D-01  8.18D-01
                    CP:  8.74D-01  9.89D-01  9.92D-01
 E= -4069.81140530594     Delta-E=       -0.000008302253 Rises=F Damp=F
 DIIS: error= 2.12D-05 at cycle   9 NSaved=   9.
 NSaved= 9 IEnMin= 9 EnMin= -4069.81140530594     IErMin= 9 ErrMin= 2.12D-05
 ErrMax= 2.12D-05  0.00D+00 EMaxC= 1.00D-01 BMatC= 9.55D-07 BMatP= 5.06D-06
 IDIUse=1 WtCom= 1.00D+00 WtEn= 0.00D+00
 Coeff-Com:  0.542D-03-0.915D-03-0.293D-02-0.630D-02-0.183D-01-0.417D-01
 Coeff-Com:  0.806D-01 0.367D+00 0.622D+00
 Coeff:      0.542D-03-0.915D-03-0.293D-02-0.630D-02-0.183D-01-0.417D-01
 Coeff:      0.806D-01 0.367D+00 0.622D+00
 Gap=     0.119 Goal=   None    Shift=    0.000
 RMSDP=1.57D-06 MaxDP=1.45D-04 DE=-8.30D-06 OVMax= 8.09D-04

 Cycle  10  Pass 1  IDiag  1:
 RMSU=  1.05D-06    CP:  9.64D-01  1.49D+00  6.81D-01  6.17D-01  8.22D-01
                    CP:  8.84D-01  1.04D+00  1.16D+00  1.03D+00
 E= -4069.81140733514     Delta-E=       -0.000002029206 Rises=F Damp=F
 DIIS: error= 9.29D-06 at cycle  10 NSaved=  10.
 NSaved=10 IEnMin=10 EnMin= -4069.81140733514     IErMin=10 ErrMin= 9.29D-06
 ErrMax= 9.29D-06  0.00D+00 EMaxC= 1.00D-01 BMatC= 1.99D-07 BMatP= 9.55D-07
 IDIUse=1 WtCom= 1.00D+00 WtEn= 0.00D+00
 Coeff-Com: -0.417D-03 0.887D-03 0.111D-02 0.772D-03-0.391D-02-0.325D-01
 Coeff-Com: -0.410D-01-0.505D-01 0.223D+00 0.902D+00
 Coeff:     -0.417D-03 0.887D-03 0.111D-02 0.772D-03-0.391D-02-0.325D-01
 Coeff:     -0.410D-01-0.505D-01 0.223D+00 0.902D+00
 Gap=     0.119 Goal=   None    Shift=    0.000
 RMSDP=1.32D-06 MaxDP=1.26D-04 DE=-2.03D-06 OVMax= 6.98D-04

 Cycle  11  Pass 1  IDiag  1:
 RMSU=  6.16D-07    CP:  9.64D-01  1.49D+00  6.81D-01  6.17D-01  8.24D-01
                    CP:  8.93D-01  1.08D+00  1.27D+00  1.37D+00  1.32D+00
 E= -4069.81140825615     Delta-E=       -0.000000921009 Rises=F Damp=F
 DIIS: error= 4.68D-06 at cycle  11 NSaved=  11.
 NSaved=11 IEnMin=11 EnMin= -4069.81140825615     IErMin=11 ErrMin= 4.68D-06
 ErrMax= 4.68D-06  0.00D+00 EMaxC= 1.00D-01 BMatC= 9.85D-08 BMatP= 1.99D-07
 IDIUse=1 WtCom= 1.00D+00 WtEn= 0.00D+00
 Coeff-Com: -0.380D-03 0.745D-03 0.145D-02 0.214D-02 0.392D-02-0.104D-01
 Coeff-Com: -0.412D-01-0.131D+00-0.468D-01 0.542D+00 0.679D+00
 Coeff:     -0.380D-03 0.745D-03 0.145D-02 0.214D-02 0.392D-02-0.104D-01
 Coeff:     -0.412D-01-0.131D+00-0.468D-01 0.542D+00 0.679D+00
 Gap=     0.119 Goal=   None    Shift=    0.000
 RMSDP=7.78D-07 MaxDP=7.51D-05 DE=-9.21D-07 OVMax= 4.44D-04

 Cycle  12  Pass 1  IDiag  1:
 RMSU=  3.04D-07    CP:  9.64D-01  1.49D+00  6.81D-01  6.17D-01  8.25D-01
                    CP:  8.95D-01  1.10D+00  1.34D+00  1.52D+00  1.72D+00
                    CP:  1.13D+00
 E= -4069.81140860367     Delta-E=       -0.000000347518 Rises=F Damp=F
 DIIS: error= 2.93D-06 at cycle  12 NSaved=  12.
 NSaved=12 IEnMin=12 EnMin= -4069.81140860367     IErMin=12 ErrMin= 2.93D-06
 ErrMax= 2.93D-06  0.00D+00 EMaxC= 1.00D-01 BMatC= 2.32D-08 BMatP= 9.85D-08
 IDIUse=1 WtCom= 1.00D+00 WtEn= 0.00D+00
 Coeff-Com: -0.529D-04 0.855D-04 0.387D-03 0.788D-03 0.397D-02 0.286D-02
 Coeff-Com: -0.270D-02-0.476D-01-0.871D-01 0.174D-01 0.271D+00 0.841D+00
 Coeff:     -0.529D-04 0.855D-04 0.387D-03 0.788D-03 0.397D-02 0.286D-02
 Coeff:     -0.270D-02-0.476D-01-0.871D-01 0.174D-01 0.271D+00 0.841D+00
 Gap=     0.119 Goal=   None    Shift=    0.000
 RMSDP=4.72D-07 MaxDP=3.60D-05 DE=-3.48D-07 OVMax= 2.76D-04

 Cycle  13  Pass 1  IDiag  1:
 RMSU=  1.80D-07    CP:  9.64D-01  1.49D+00  6.81D-01  6.17D-01  8.25D-01
                    CP:  8.95D-01  1.10D+00  1.37D+00  1.63D+00  1.93D+00
                    CP:  1.52D+00  1.21D+00
 E= -4069.81140872300     Delta-E=       -0.000000119326 Rises=F Damp=F
 DIIS: error= 1.71D-06 at cycle  13 NSaved=  13.
 NSaved=13 IEnMin=13 EnMin= -4069.81140872300     IErMin=13 ErrMin= 1.71D-06
 ErrMax= 1.71D-06  0.00D+00 EMaxC= 1.00D-01 BMatC= 1.12D-08 BMatP= 2.32D-08
 IDIUse=1 WtCom= 1.00D+00 WtEn= 0.00D+00
 Coeff-Com:  0.120D-03-0.247D-03-0.347D-03-0.406D-03 0.106D-02 0.487D-02
 Coeff-Com:  0.170D-01 0.229D-01-0.352D-01-0.224D+00-0.178D+00 0.525D+00
 Coeff-Com:  0.868D+00
 Coeff:      0.120D-03-0.247D-03-0.347D-03-0.406D-03 0.106D-02 0.487D-02
 Coeff:      0.170D-01 0.229D-01-0.352D-01-0.224D+00-0.178D+00 0.525D+00
 Coeff:      0.868D+00
 Gap=     0.119 Goal=   None    Shift=    0.000
 RMSDP=4.15D-07 MaxDP=3.14D-05 DE=-1.19D-07 OVMax= 2.68D-04

 Cycle  14  Pass 1  IDiag  1:
 RMSU=  8.77D-08    CP:  9.64D-01  1.49D+00  6.81D-01  6.17D-01  8.25D-01
                    CP:  8.96D-01  1.11D+00  1.40D+00  1.71D+00  2.15D+00
                    CP:  1.79D+00  1.75D+00  1.21D+00
 E= -4069.81140877715     Delta-E=       -0.000000054151 Rises=F Damp=F
 DIIS: error= 9.31D-07 at cycle  14 NSaved=  14.
 NSaved=14 IEnMin=14 EnMin= -4069.81140877715     IErMin=14 ErrMin= 9.31D-07
 ErrMax= 9.31D-07  0.00D+00 EMaxC= 1.00D-01 BMatC= 1.75D-09 BMatP= 1.12D-08
 IDIUse=1 WtCom= 1.00D+00 WtEn= 0.00D+00
 Coeff-Com:  0.753D-04-0.149D-03-0.271D-03-0.413D-03-0.332D-03 0.124D-02
 Coeff-Com:  0.981D-02 0.219D-01 0.597D-02-0.105D+00-0.155D+00 0.480D-01
 Coeff-Com:  0.427D+00 0.747D+00
 Coeff:      0.753D-04-0.149D-03-0.271D-03-0.413D-03-0.332D-03 0.124D-02
 Coeff:      0.981D-02 0.219D-01 0.597D-02-0.105D+00-0.155D+00 0.480D-01
 Coeff:      0.427D+00 0.747D+00
 Gap=     0.119 Goal=   None    Shift=    0.000
 RMSDP=1.37D-07 MaxDP=1.03D-05 DE=-5.42D-08 OVMax= 7.93D-05

 Cycle  15  Pass 1  IDiag  1:
 RMSU=  4.29D-08    CP:  9.64D-01  1.49D+00  6.81D-01  6.17D-01  8.25D-01
                    CP:  8.96D-01  1.11D+00  1.41D+00  1.74D+00  2.20D+00
                    CP:  1.90D+00  1.92D+00  1.47D+00  1.06D+00
 E= -4069.81140878354     Delta-E=       -0.000000006392 Rises=F Damp=F
 DIIS: error= 4.50D-07 at cycle  15 NSaved=  15.
 NSaved=15 IEnMin=15 EnMin= -4069.81140878354     IErMin=15 ErrMin= 4.50D-07
 ErrMax= 4.50D-07  0.00D+00 EMaxC= 1.00D-01 BMatC= 2.84D-10 BMatP= 1.75D-09
 IDIUse=1 WtCom= 1.00D+00 WtEn= 0.00D+00
 Coeff-Com:  0.111D-04-0.201D-04-0.534D-04-0.112D-03-0.295D-03-0.490D-03
 Coeff-Com:  0.146D-02 0.443D-02 0.921D-02-0.563D-02-0.337D-01-0.717D-01
 Coeff-Com:  0.476D-01 0.319D+00 0.730D+00
 Coeff:      0.111D-04-0.201D-04-0.534D-04-0.112D-03-0.295D-03-0.490D-03
 Coeff:      0.146D-02 0.443D-02 0.921D-02-0.563D-02-0.337D-01-0.717D-01
 Coeff:      0.476D-01 0.319D+00 0.730D+00
 Gap=     0.119 Goal=   None    Shift=    0.000
 RMSDP=3.92D-08 MaxDP=2.92D-06 DE=-6.39D-09 OVMax= 3.03D-05

 Cycle  16  Pass 1  IDiag  1:
 RMSU=  2.05D-08    CP:  9.64D-01  1.49D+00  6.81D-01  6.17D-01  8.25D-01
                    CP:  8.96D-01  1.11D+00  1.41D+00  1.74D+00  2.22D+00
                    CP:  1.92D+00  1.96D+00  1.55D+00  1.24D+00  1.12D+00
 E= -4069.81140878449     Delta-E=       -0.000000000950 Rises=F Damp=F
 DIIS: error= 1.93D-07 at cycle  16 NSaved=  16.
 NSaved=16 IEnMin=16 EnMin= -4069.81140878449     IErMin=16 ErrMin= 1.93D-07
 ErrMax= 1.93D-07  0.00D+00 EMaxC= 1.00D-01 BMatC= 1.06D-10 BMatP= 2.84D-10
 IDIUse=1 WtCom= 1.00D+00 WtEn= 0.00D+00
 Coeff-Com: -0.133D-04 0.273D-04 0.417D-04 0.426D-04-0.600D-04-0.624D-03
 Coeff-Com: -0.159D-02-0.383D-02 0.392D-02 0.228D-01 0.225D-01-0.554D-01
 Coeff-Com: -0.788D-01-0.369D-01 0.379D+00 0.749D+00
 Coeff:     -0.133D-04 0.273D-04 0.417D-04 0.426D-04-0.600D-04-0.624D-03
 Coeff:     -0.159D-02-0.383D-02 0.392D-02 0.228D-01 0.225D-01-0.554D-01
 Coeff:     -0.788D-01-0.369D-01 0.379D+00 0.749D+00
 Gap=     0.119 Goal=   None    Shift=    0.000
 RMSDP=2.59D-08 MaxDP=2.04D-06 DE=-9.50D-10 OVMax= 1.53D-05

 Cycle  17  Pass 1  IDiag  1:
 RMSU=  1.15D-08    CP:  9.64D-01  1.49D+00  6.81D-01  6.17D-01  8.25D-01
                    CP:  8.96D-01  1.11D+00  1.41D+00  1.74D+00  2.22D+00
                    CP:  1.94D+00  1.99D+00  1.60D+00  1.34D+00  1.41D+00
                    CP:  1.22D+00
 E= -4069.81140878475     Delta-E=       -0.000000000258 Rises=F Damp=F
 DIIS: error= 8.72D-08 at cycle  17 NSaved=  17.
 NSaved=17 IEnMin=17 EnMin= -4069.81140878475     IErMin=17 ErrMin= 8.72D-08
 ErrMax= 8.72D-08  0.00D+00 EMaxC= 1.00D-01 BMatC= 2.17D-11 BMatP= 1.06D-10
 IDIUse=1 WtCom= 1.00D+00 WtEn= 0.00D+00
 Coeff-Com: -0.838D-05 0.164D-04 0.314D-04 0.441D-04 0.669D-04-0.155D-03
 Coeff-Com: -0.890D-03-0.298D-02-0.189D-03 0.103D-01 0.188D-01-0.702D-02
 Coeff-Com: -0.380D-01-0.982D-01-0.141D-01 0.297D+00 0.836D+00
 Coeff:     -0.838D-05 0.164D-04 0.314D-04 0.441D-04 0.669D-04-0.155D-03
 Coeff:     -0.890D-03-0.298D-02-0.189D-03 0.103D-01 0.188D-01-0.702D-02
 Coeff:     -0.380D-01-0.982D-01-0.141D-01 0.297D+00 0.836D+00
 Gap=     0.119 Goal=   None    Shift=    0.000
 RMSDP=1.41D-08 MaxDP=1.20D-06 DE=-2.58D-10 OVMax= 1.03D-05

 Cycle  18  Pass 1  IDiag  1:
 RMSU=  5.66D-09    CP:  9.64D-01  1.49D+00  6.81D-01  6.17D-01  8.25D-01
                    CP:  8.96D-01  1.11D+00  1.41D+00  1.74D+00  2.22D+00
                    CP:  1.94D+00  1.99D+00  1.62D+00  1.39D+00  1.56D+00
                    CP:  1.59D+00  1.36D+00
 E= -4069.81140878499     Delta-E=       -0.000000000244 Rises=F Damp=F
 DIIS: error= 6.53D-08 at cycle  18 NSaved=  18.
 NSaved=18 IEnMin=18 EnMin= -4069.81140878499     IErMin=18 ErrMin= 6.53D-08
 ErrMax= 6.53D-08  0.00D+00 EMaxC= 1.00D-01 BMatC= 9.19D-12 BMatP= 2.17D-11
 IDIUse=1 WtCom= 1.00D+00 WtEn= 0.00D+00
 Coeff-Com:  0.509D-06-0.137D-05 0.113D-05 0.598D-05 0.670D-04 0.141D-03
 Coeff-Com:  0.197D-03-0.196D-03-0.118D-02-0.353D-02 0.163D-02 0.141D-01
 Coeff-Com:  0.127D-01-0.370D-01-0.140D+00-0.148D+00 0.403D+00 0.898D+00
 Coeff:      0.509D-06-0.137D-05 0.113D-05 0.598D-05 0.670D-04 0.141D-03
 Coeff:      0.197D-03-0.196D-03-0.118D-02-0.353D-02 0.163D-02 0.141D-01
 Coeff:      0.127D-01-0.370D-01-0.140D+00-0.148D+00 0.403D+00 0.898D+00
 Gap=     0.119 Goal=   None    Shift=    0.000
 RMSDP=1.12D-08 MaxDP=8.29D-07 DE=-2.44D-10 OVMax= 6.66D-06

 Cycle  19  Pass 1  IDiag  1:
 RMSU=  3.18D-09    CP:  9.64D-01  1.49D+00  6.81D-01  6.17D-01  8.25D-01
                    CP:  8.96D-01  1.11D+00  1.41D+00  1.74D+00  2.22D+00
                    CP:  1.94D+00  2.00D+00  1.63D+00  1.43D+00  1.69D+00
                    CP:  1.86D+00  1.88D+00  1.24D+00
 E= -4069.81140878520     Delta-E=       -0.000000000215 Rises=F Damp=F
 DIIS: error= 2.81D-08 at cycle  19 NSaved=  19.
 NSaved=19 IEnMin=19 EnMin= -4069.81140878520     IErMin=19 ErrMin= 2.81D-08
 ErrMax= 2.81D-08  0.00D+00 EMaxC= 1.00D-01 BMatC= 2.35D-12 BMatP= 9.19D-12
 IDIUse=1 WtCom= 1.00D+00 WtEn= 0.00D+00
 Coeff-Com:  0.307D-05-0.623D-05-0.988D-05-0.115D-04 0.228D-04 0.133D-03
 Coeff-Com:  0.437D-03 0.851D-03-0.590D-03-0.600D-02-0.548D-02 0.104D-01
 Coeff-Com:  0.222D-01 0.116D-01-0.767D-01-0.198D+00-0.276D-01 0.503D+00
 Coeff-Com:  0.765D+00
 Coeff:      0.307D-05-0.623D-05-0.988D-05-0.115D-04 0.228D-04 0.133D-03
 Coeff:      0.437D-03 0.851D-03-0.590D-03-0.600D-02-0.548D-02 0.104D-01
 Coeff:      0.222D-01 0.116D-01-0.767D-01-0.198D+00-0.276D-01 0.503D+00
 Coeff:      0.765D+00
 Gap=     0.119 Goal=   None    Shift=    0.000
 RMSDP=6.14D-09 MaxDP=5.32D-07 DE=-2.15D-10 OVMax= 4.36D-06

 SCF Done:  E(RCAM-B3LYP) =  -4069.81140879     A.U. after   19 cycles
            NFock= 19  Conv=0.61D-08     -V/T= 2.0102
 KE= 4.028795641604D+03 PE=-4.142236060576D+04 EE= 1.735323898347D+04
 Leave Link  502 at Thu Sep  9 06:58:17 2021, MaxMem= 23488102400 cpu:           17314.8 elap:             748.0
 (Enter /sw/apps/gaussian-16.0/g16/l801.exe)
 DoSCS=F DFT=T ScalE2(SS,OS)=  1.000000  1.000000
 ExpMin= 3.36D-02 ExpMax= 4.95D+03 ExpMxC= 7.45D+02 IAcc=3 IRadAn=         5 AccDes= 0.00D+00
 HarFok:  IExCor=  205 AccDes= 0.00D+00 IRadAn=         5 IDoV=-2 UseB2=F ITyADJ=14
 ICtDFT= 12500011 ScaDFX=  1.000000  1.000000  1.000000  1.000000
 GSVD:  LWork=       -9588 too small for GESVD, short by       45590 words or       45590 for optimal perf.
 Largest valence mixing into a core orbital is  2.03D-04
 Largest core mixing into a valence orbital is  5.24D-05
 Range of M.O.s used for correlation:    95  1572
 NBasis=  1572 NAE=   312 NBE=   312 NFC=    94 NFV=     0
 NROrb=   1478 NOA=   218 NOB=   218 NVA=  1260 NVB=  1260
 Leave Link  801 at Thu Sep  9 06:58:18 2021, MaxMem= 23488102400 cpu:               9.8 elap:               0.4
 (Enter /sw/apps/gaussian-16.0/g16/l914.exe)
 RHF ground state
 Two-electron integrals replicated using symmetry.
 MDV= 23488102400 DFT=T DoStab=F Mixed=T DoRPA=T DoScal=F NonHer=T
 Making orbital integer symmetry assigments:
 Orbital symmetries:
       Occupied  (A) (A) (A) (A) (A) (A) (A) (A) (A) (A) (A) (A)
                 (A) (A) (A) (A) (A) (A) (A) (A) (A) (A) (A) (A)
                 (A) (A) (A) (A) (A) (A) (A) (A) (A) (A) (A) (A)
                 (A) (A) (A) (A) (A) (A) (A) (A) (A) (A) (A) (A)
                 (A) (A) (A) (A) (A) (A) (A) (A) (A) (A) (A) (A)
                 (A) (A) (A) (A) (A) (A) (A) (A) (A) (A) (A) (A)
                 (A) (A) (A) (A) (A) (A) (A) (A) (A) (A) (A) (A)
                 (A) (A) (A) (A) (A) (A) (A) (A) (A) (A) (A) (A)
                 (A) (A) (A) (A) (A) (A) (A) (A) (A) (A) (A) (A)
                 (A) (A) (A) (A) (A) (A) (A) (A) (A) (A) (A) (A)
                 (A) (A) (A) (A) (A) (A) (A) (A) (A) (A) (A) (A)
                 (A) (A) (A) (A) (A) (A) (A) (A) (A) (A) (A) (A)
                 (A) (A) (A) (A) (A) (A) (A) (A) (A) (A) (A) (A)
                 (A) (A) (A) (A) (A) (A) (A) (A) (A) (A) (A) (A)
                 (A) (A) (A) (A) (A) (A) (A) (A) (A) (A) (A) (A)
                 (A) (A) (A) (A) (A) (A) (A) (A) (A) (A) (A) (A)
                 (A) (A) (A) (A) (A) (A) (A) (A) (A) (A) (A) (A)
                 (A) (A) (A) (A) (A) (A) (A) (A) (A) (A) (A) (A)
                 (A) (A) (A) (A) (A) (A) (A) (A) (A) (A) (A) (A)
                 (A) (A) (A) (A) (A) (A) (A) (A) (A) (A) (A) (A)
                 (A) (A) (A) (A) (A) (A) (A) (A) (A) (A) (A) (A)
                 (A) (A) (A) (A) (A) (A) (A) (A) (A) (A) (A) (A)
                 (A) (A) (A) (A) (A) (A) (A) (A) (A) (A) (A) (A)
                 (A) (A) (A) (A) (A) (A) (A) (A) (A) (A) (A) (A)
                 (A) (A) (A) (A) (A) (A) (A) (A) (A) (A) (A) (A)
                 (A) (A) (A) (A) (A) (A) (A) (A) (A) (A) (A) (A)
       Virtual   (A) (A) (A) (A) (A) (A) (A) (A) (A) (A) (A) (A)
                 (A) (A) (A) (A) (A) (A) (A) (A) (A) (A) (A) (A)
                 (A) (A) (A) (A) (A) (A) (A) (A) (A) (A) (A) (A)
                 (A) (A) (A) (A) (A) (A) (A) (A) (A) (A) (A) (A)
                 (A) (A) (A) (A) (A) (A) (A) (A) (A) (A) (A) (A)
                 (A) (A) (A) (A) (A) (A) (A) (A) (A) (A) (A) (A)
                 (A) (A) (A) (A) (A) (A) (A) (A) (A) (A) (A) (A)
                 (A) (A) (A) (A) (A) (A) (A) (A) (A) (A) (A) (A)
                 (A) (A) (A) (A) (A) (A) (A) (A) (A) (A) (A) (A)
                 (A) (A) (A) (A) (A) (A) (A) (A) (A) (A) (A) (A)
                 (A) (A) (A) (A) (A) (A) (A) (A) (A) (A) (A) (A)
                 (A) (A) (A) (A) (A) (A) (A) (A) (A) (A) (A) (A)
                 (A) (A) (A) (A) (A) (A) (A) (A) (A) (A) (A) (A)
                 (A) (A) (A) (A) (A) (A) (A) (A) (A) (A) (A) (A)
                 (A) (A) (A) (A) (A) (A) (A) (A) (A) (A) (A) (A)
                 (A) (A) (A) (A) (A) (A) (A) (A) (A) (A) (A) (A)
                 (A) (A) (A) (A) (A) (A) (A) (A) (A) (A) (A) (A)
                 (A) (A) (A) (A) (A) (A) (A) (A) (A) (A) (A) (A)
                 (A) (A) (A) (A) (A) (A) (A) (A) (A) (A) (A) (A)
                 (A) (A) (A) (A) (A) (A) (A) (A) (A) (A) (A) (A)
                 (A) (A) (A) (A) (A) (A) (A) (A) (A) (A) (A) (A)
                 (A) (A) (A) (A) (A) (A) (A) (A) (A) (A) (A) (A)
                 (A) (A) (A) (A) (A) (A) (A) (A) (A) (A) (A) (A)
                 (A) (A) (A) (A) (A) (A) (A) (A) (A) (A) (A) (A)
                 (A) (A) (A) (A) (A) (A) (A) (A) (A) (A) (A) (A)
                 (A) (A) (A) (A) (A) (A) (A) (A) (A) (A) (A) (A)
                 (A) (A) (A) (A) (A) (A) (A) (A) (A) (A) (A) (A)
                 (A) (A) (A) (A) (A) (A) (A) (A) (A) (A) (A) (A)
                 (A) (A) (A) (A) (A) (A) (A) (A) (A) (A) (A) (A)
                 (A) (A) (A) (A) (A) (A) (A) (A) (A) (A) (A) (A)
                 (A) (A) (A) (A) (A) (A) (A) (A) (A) (A) (A) (A)
                 (A) (A) (A) (A) (A) (A) (A) (A) (A) (A) (A) (A)
                 (A) (A) (A) (A) (A) (A) (A) (A) (A) (A) (A) (A)
                 (A) (A) (A) (A) (A) (A) (A) (A) (A) (A) (A) (A)
                 (A) (A) (A) (A) (A) (A) (A) (A) (A) (A) (A) (A)
                 (A) (A) (A) (A) (A) (A) (A) (A) (A) (A) (A) (A)
                 (A) (A) (A) (A) (A) (A) (A) (A) (A) (A) (A) (A)
                 (A) (A) (A) (A) (A) (A) (A) (A) (A) (A) (A) (A)
                 (A) (A) (A) (A) (A) (A) (A) (A) (A) (A) (A) (A)
                 (A) (A) (A) (A) (A) (A) (A) (A) (A) (A) (A) (A)
                 (A) (A) (A) (A) (A) (A) (A) (A) (A) (A) (A) (A)
                 (A) (A) (A) (A) (A) (A) (A) (A) (A) (A) (A) (A)
                 (A) (A) (A) (A) (A) (A) (A) (A) (A) (A) (A) (A)
                 (A) (A) (A) (A) (A) (A) (A) (A) (A) (A) (A) (A)
                 (A) (A) (A) (A) (A) (A) (A) (A) (A) (A) (A) (A)
                 (A) (A) (A) (A) (A) (A) (A) (A) (A) (A) (A) (A)
                 (A) (A) (A) (A) (A) (A) (A) (A) (A) (A) (A) (A)
                 (A) (A) (A) (A) (A) (A) (A) (A) (A) (A) (A) (A)
                 (A) (A) (A) (A) (A) (A) (A) (A) (A) (A) (A) (A)
                 (A) (A) (A) (A) (A) (A) (A) (A) (A) (A) (A) (A)
                 (A) (A) (A) (A) (A) (A) (A) (A) (A) (A) (A) (A)
                 (A) (A) (A) (A) (A) (A) (A) (A) (A) (A) (A) (A)
                 (A) (A) (A) (A) (A) (A) (A) (A) (A) (A) (A) (A)
                 (A) (A) (A) (A) (A) (A) (A) (A) (A) (A) (A) (A)
                 (A) (A) (A) (A) (A) (A) (A) (A) (A) (A) (A) (A)
                 (A) (A) (A) (A) (A) (A) (A) (A) (A) (A) (A) (A)
                 (A) (A) (A) (A) (A) (A) (A) (A) (A) (A) (A) (A)
                 (A) (A) (A) (A) (A) (A) (A) (A) (A) (A) (A) (A)
                 (A) (A) (A) (A) (A) (A) (A) (A) (A) (A) (A) (A)
                 (A) (A) (A) (A) (A) (A) (A) (A) (A) (A) (A) (A)
                 (A) (A) (A) (A) (A) (A) (A) (A) (A) (A) (A) (A)
                 (A) (A) (A) (A) (A) (A) (A) (A) (A) (A) (A) (A)
                 (A) (A) (A) (A) (A) (A) (A) (A) (A) (A) (A) (A)
                 (A) (A) (A) (A) (A) (A) (A) (A) (A) (A) (A) (A)
                 (A) (A) (A) (A) (A) (A) (A) (A) (A) (A) (A) (A)
                 (A) (A) (A) (A) (A) (A) (A) (A) (A) (A) (A) (A)
                 (A) (A) (A) (A) (A) (A) (A) (A) (A) (A) (A) (A)
                 (A) (A) (A) (A) (A) (A) (A) (A) (A) (A) (A) (A)
                 (A) (A) (A) (A) (A) (A) (A) (A) (A) (A) (A) (A)
                 (A) (A) (A) (A) (A) (A) (A) (A) (A) (A) (A) (A)
                 (A) (A) (A) (A) (A) (A) (A) (A) (A) (A) (A) (A)
                 (A) (A) (A) (A) (A) (A) (A) (A) (A) (A) (A) (A)
                 (A) (A) (A) (A) (A) (A) (A) (A) (A) (A) (A) (A)
                 (A) (A) (A) (A) (A) (A) (A) (A) (A) (A) (A) (A)
                 (A) (A) (A) (A) (A) (A) (A) (A) (A) (A) (A) (A)
                 (A) (A) (A) (A) (A) (A) (A) (A) (A) (A) (A) (A)
                 (A) (A) (A) (A) (A) (A) (A) (A) (A) (A) (A) (A)
                 (A) (A) (A) (A) (A) (A) (A) (A) (A) (A) (A) (A)
                 (A) (A) (A) (A) (A) (A) (A) (A) (A) (A) (A) (A)
                 (A) (A) (A) (A) (A) (A) (A) (A) (A) (A) (A) (A)
                 (A) (A) (A) (A) (A) (A) (A) (A) (A) (A) (A) (A)
                 (A) (A) (A) (A) (A) (A) (A) (A) (A) (A) (A) (A)
                 (A) (A) (A) (A) (A) (A) (A) (A) (A) (A) (A) (A)
                 (A) (A) (A) (A) (A) (A) (A) (A) (A) (A) (A) (A)
                 (A) (A) (A) (A) (A) (A) (A) (A) (A) (A) (A) (A)
                 (A) (A) (A) (A) (A) (A) (A) (A) (A) (A) (A) (A)
                 (A) (A) (A) (A) (A) (A) (A) (A) (A) (A) (A) (A)
                 (A) (A) (A) (A) (A) (A) (A) (A) (A) (A) (A) (A)
                 (A) (A) (A) (A) (A) (A) (A) (A) (A) (A) (A) (A)
                 (A) (A) (A) (A) (A) (A) (A) (A) (A) (A) (A) (A)
                 (A) (A) (A) (A) (A) (A) (A) (A) (A) (A) (A) (A)
                 (A) (A) (A) (A) (A) (A) (A) (A) (A) (A) (A) (A)
                 (A) (A) (A) (A) (A) (A) (A) (A) (A) (A) (A) (A)
                 (A) (A) (A) (A) (A) (A) (A) (A) (A) (A) (A) (A)
                 (A) (A) (A) (A) (A) (A) (A) (A) (A) (A) (A) (A)
                 (A) (A) (A) (A) (A) (A) (A) (A) (A) (A) (A) (A)
                 (A) (A) (A) (A) (A) (A) (A) (A) (A) (A) (A) (A)
                 (A) (A) (A) (A) (A) (A) (A) (A) (A) (A) (A) (A)
                 (A) (A) (A) (A) (A) (A) (A) (A) (A) (A) (A) (A)
                 (A) (A) (A) (A) (A) (A) (A) (A) (A) (A) (A) (A)
                 (A) (A) (A) (A) (A) (A) (A) (A) (A) (A) (A) (A)
                 (A) (A) (A) (A) (A) (A) (A) (A) (A) (A) (A) (A)
                 (A) (A) (A) (A) (A) (A) (A) (A) (A) (A) (A) (A)
                 (A) (A) (A) (A) (A) (A) (A) (A) (A) (A) (A) (A)
                 (A) (A) (A) (A) (A) (A) (A) (A) (A) (A) (A) (A)
    20 initial guesses have been made.
 Convergence on wavefunction:    0.001000000000000
 Davidson Disk Diagonalization:  ConvIn= 1.00D-03 SkipCon=T Conv= 1.00D-03.
 Max sub-space:  2000 roots to seek:    20 dimension of matrix:       549360
 Iteration     1 Dimension    20 NMult     0 NNew     20
 CISAX will form    20 AO SS matrices at one time.
 NMat=    20 NSing=    20 JSym2X= 0.
 FoFJK:  IHMeth= 1 ICntrl=       0 DoSepK=T KAlg= 0 I1Cent=           0 FoldK=F
 IRaf=         1 NMat=      40 IRICut=       1 DoRegI=T DoRafI=F ISym2E= 0 IDoP0=3 IntGTp=3.
 FoFCou: FMM=T IPFlag=           0 FMFlag=      100000 FMFlg1=        2001
         NFxFlg=           0 DoJE=F BraDBF=F KetDBF=F FulRan=T
         wScrn=  0.000000 ICntrl=       500 IOpCl=  0 I1Cent=           0 NGrid=           0
         NMat0=   20 NMatS0=     20 NMatT0=    0 NMatD0=   20 NMtDS0=    0 NMtDT0=    0
 Symmetry not used in FoFCou.
 FMM levels:  10  Number of levels for PrismC:   9
 New state      2 was old state      4
 New state      3 was old state      2
 New state      4 was old state      7
 New state      5 was old state      6
 Excitation Energies [eV] at current iteration:
 Root      1 :     2.233579878740361
 Root      2 :     2.459315659163260
 Root      3 :     2.580920000492199
 Root      4 :     2.614953940299443
 Root      5 :     2.625922548727884
 Root      6 :     2.780267025689421
 Root      7 :     3.009293930409313
 Root      8 :     3.252810179372936
 Root      9 :     3.610536570033358
 Root     10 :     3.664208766605151
 Root     11 :     3.746014247821361
 Root     12 :     3.758639415240586
 Root     13 :     4.131802528016062
 Root     14 :     4.226470225799444
 Root     15 :     4.381475963603943
 Root     16 :     4.388117543485632
 Root     17 :     4.435604645390207
 Root     18 :     4.521683450398236
 Root     19 :     4.627158942749898
 Root     20 :     4.683617876031508
 Iteration     2 Dimension    30 NMult    20 NNew     10
 CISAX will form    10 AO SS matrices at one time.
 NMat=    10 NSing=    10 JSym2X= 0.
 New state      1 was old state      3
 Root      1 not converged, maximum delta is    0.222118884924221
 New state      2 was old state      4
 Root      2 not converged, maximum delta is    0.168740827799798
 New state      3 was old state      1
 Root      3 not converged, maximum delta is    0.008503620155655
 New state      4 was old state      5
 Root      4 not converged, maximum delta is    0.129062561586931
 New state      5 was old state      2
 Root      5 not converged, maximum delta is    0.007178782606211
 Excitation Energies [eV] at current iteration:
 Root      1 :     1.758593907302185   Change is   -0.822326093190013
 Root      2 :     2.224833428317999   Change is   -0.390120511981444
 Root      3 :     2.232357514760390   Change is   -0.001222363979971
 Root      4 :     2.245747342515449   Change is   -0.380175206212435
 Root      5 :     2.457631018545952   Change is   -0.001684640617308
 Iteration     3 Dimension    40 NMult    30 NNew     10
 CISAX will form    10 AO SS matrices at one time.
 NMat=    10 NSing=    10 JSym2X= 0.
 Root      1 not converged, maximum delta is    0.051938189851669
 No map to state      2
 New state      3 was old state      2
 Root      3 not converged, maximum delta is    0.045799110641593
 Root      4 not converged, maximum delta is    0.052803558092936
 New state      5 was old state      3
 Root      5 not converged, maximum delta is    0.010001417829548
 Excitation Energies [eV] at current iteration:
 Root      1 :     1.656039483405382   Change is   -0.102554423896804
 Root      2 :     1.889694282543257
 Root      3 :     2.185348245963861   Change is   -0.039485182354138
 Root      4 :     2.207344810097453   Change is   -0.038402532417996
 Root      5 :     2.232354037221481   Change is   -0.000003477538909
 Iteration     4 Dimension    50 NMult    40 NNew     10
 CISAX will form    10 AO SS matrices at one time.
 NMat=    10 NSing=    10 JSym2X= 0.
 Root      1 not converged, maximum delta is    0.010889019916873
 Root      2 not converged, maximum delta is    0.035548311621846
 Root      3 not converged, maximum delta is    0.016841371510325
 Root      4 not converged, maximum delta is    0.016387816119043
 Root      5 has converged.
 Excitation Energies [eV] at current iteration:
 Root      1 :     1.639798459513625   Change is   -0.016241023891757
 Root      2 :     1.734929270433368   Change is   -0.154765012109889
 Root      3 :     2.178298080169461   Change is   -0.007050165794400
 Root      4 :     2.199089007408390   Change is   -0.008255802689063
 Root      5 :     2.232352621587007   Change is   -0.000001415634475
 Iteration     5 Dimension    58 NMult    50 NNew      8
 CISAX will form     8 AO SS matrices at one time.
 NMat=     8 NSing=     8 JSym2X= 0.
 Root      1 not converged, maximum delta is    0.001312813965355
 Root      2 not converged, maximum delta is    0.009198102135620
 Root      3 not converged, maximum delta is    0.003170319751260
 Root      4 not converged, maximum delta is    0.003104752309216
 Root      5 has converged.
 Excitation Energies [eV] at current iteration:
 Root      1 :     1.638141234381417   Change is   -0.001657225132208
 Root      2 :     1.714400220392456   Change is   -0.020529050040912
 Root      3 :     2.177488650758256   Change is   -0.000809429411206
 Root      4 :     2.198202508733907   Change is   -0.000886498674482
 Root      5 :     2.232352579795544   Change is   -0.000000041791463
 Iteration     6 Dimension    66 NMult    58 NNew      8
 CISAX will form     8 AO SS matrices at one time.
 NMat=     8 NSing=     8 JSym2X= 0.
 Root      1 has converged.
 Root      2 not converged, maximum delta is    0.003662485301962
 Root      3 has converged.
 Root      4 has converged.
 Root      5 has converged.
 Excitation Energies [eV] at current iteration:
 Root      1 :     1.637911883158633   Change is   -0.000229351222784
 Root      2 :     1.712382670616525   Change is   -0.002017549775931
 Root      3 :     2.177363482524726   Change is   -0.000125168233530
 Root      4 :     2.198080629241146   Change is   -0.000121879492761
 Root      5 :     2.232352569676815   Change is   -0.000000010118729
 Iteration     7 Dimension    68 NMult    66 NNew      2
 CISAX will form     2 AO SS matrices at one time.
 NMat=     2 NSing=     2 JSym2X= 0.
 Root      1 has converged.
 Root      2 has converged.
 Root      3 has converged.
 Root      4 has converged.
 Root      5 has converged.
 Excitation Energies [eV] at current iteration:
 Root      1 :     1.637911809466620   Change is   -0.000000073692013
[...]
 Alpha virt. eigenvalues --    1.82803   1.82955   1.83160   1.83221   1.83447
 Alpha virt. eigenvalues --    1.83723   1.83841   1.83941   1.84210   1.84423
 Alpha virt. eigenvalues --    1.84558   1.84663   1.84788   1.85122   1.85199
 Alpha virt. eigenvalues --    1.85269   1.85342   1.85429   1.85549   1.85743
 Alpha virt. eigenvalues --    1.85888   1.86143   1.86298   1.86527   1.86614
 Alpha virt. eigenvalues --    1.86730   1.86861   1.86981   1.87110   1.87276
 Alpha virt. eigenvalues --    1.87329   1.87627   1.87703   1.87831   1.87935
 Alpha virt. eigenvalues --    1.88028   1.88269   1.88405   1.88479   1.88697
 Alpha virt. eigenvalues --    1.88823   1.89131   1.89275   1.89478   1.89687
 Alpha virt. eigenvalues --    1.89837   1.90033   1.90088   1.90164   1.90485
 Alpha virt. eigenvalues --    1.90853   1.91145   1.91271   1.91610   1.91724
 Alpha virt. eigenvalues --    1.91896   1.92095   1.92466   1.92571   1.92879
 Alpha virt. eigenvalues --    1.92946   1.93261   1.93423   1.93770   1.94258
 Alpha virt. eigenvalues --    1.94528   1.94622   1.95053   1.95529   1.95717
 Alpha virt. eigenvalues --    1.95855   1.95905   1.95996   1.96126   1.96374
 Alpha virt. eigenvalues --    1.96441   1.96534   1.96739   1.96847   1.97210
 Alpha virt. eigenvalues --    1.97364   1.97725   1.97835   1.98064   1.98111
 Alpha virt. eigenvalues --    1.98493   1.98609   1.98654   1.99079   1.99419
 Alpha virt. eigenvalues --    1.99726   2.00271   2.00581   2.00901   2.01098
 Alpha virt. eigenvalues --    2.01336   2.01391   2.01695   2.01717   2.01779
 Alpha virt. eigenvalues --    2.01965   2.02214   2.02720   2.02962   2.03175
 Alpha virt. eigenvalues --    2.03348   2.03406   2.03610   2.03707   2.03803
 Alpha virt. eigenvalues --    2.04059   2.04358   2.04887   2.05202   2.05447
 Alpha virt. eigenvalues --    2.05926   2.06029   2.06568   2.06902   2.07127
 Alpha virt. eigenvalues --    2.07347   2.07652   2.08522   2.08831   2.08934
 Alpha virt. eigenvalues --    2.09249   2.09563   2.09857   2.10774   2.11110
 Alpha virt. eigenvalues --    2.11270   2.11421   2.11622   2.11659   2.11790
 Alpha virt. eigenvalues --    2.12113   2.12415   2.12698   2.12726   2.12833
 Alpha virt. eigenvalues --    2.13032   2.13302   2.13934   2.14024   2.14134
 Alpha virt. eigenvalues --    2.14835   2.15258   2.15630   2.15865   2.16407
 Alpha virt. eigenvalues --    2.16502   2.16670   2.16916   2.17403   2.17486
 Alpha virt. eigenvalues --    2.17656   2.17891   2.18046   2.18217   2.18280
 Alpha virt. eigenvalues --    2.18355   2.18776   2.19119   2.19502   2.19697
 Alpha virt. eigenvalues --    2.19973   2.20143   2.20154   2.20550   2.20730
 Alpha virt. eigenvalues --    2.21057   2.21598   2.21682   2.21772   2.22066
 Alpha virt. eigenvalues --    2.22162   2.22644   2.22978   2.23267   2.23850
 Alpha virt. eigenvalues --    2.24356   2.24632   2.24942   2.25290   2.26221
 Alpha virt. eigenvalues --    2.26699   2.26722   2.27023   2.27269   2.27480
 Alpha virt. eigenvalues --    2.28062   2.28645   2.29211   2.29631   2.29725
 Alpha virt. eigenvalues --    2.30171   2.30360   2.30869   2.31044   2.31115
 Alpha virt. eigenvalues --    2.31256   2.31441   2.32074   2.32478   2.33077
 Alpha virt. eigenvalues --    2.33410   2.33496   2.33759   2.34103   2.34434
 Alpha virt. eigenvalues --    2.35312   2.35609   2.35741   2.36266   2.36293
 Alpha virt. eigenvalues --    2.36551   2.36593   2.36671   2.37753   2.37898
 Alpha virt. eigenvalues --    2.38197   2.38589   2.38757   2.38989   2.39541
 Alpha virt. eigenvalues --    2.39905   2.40146   2.40379   2.40478   2.41065
 Alpha virt. eigenvalues --    2.41138   2.41442   2.41604   2.41942   2.41981
 Alpha virt. eigenvalues --    2.42420   2.42877   2.43059   2.43285   2.43490
 Alpha virt. eigenvalues --    2.44092   2.44214   2.44661   2.44809   2.45076
 Alpha virt. eigenvalues --    2.45326   2.45497   2.45813   2.46249   2.46407
 Alpha virt. eigenvalues --    2.46504   2.46728   2.46744   2.47064   2.47200
 Alpha virt. eigenvalues --    2.47623   2.47661   2.48138   2.49281   2.49581
 Alpha virt. eigenvalues --    2.49992   2.50088   2.50501   2.50635   2.51078
 Alpha virt. eigenvalues --    2.51551   2.51794   2.51847   2.52329   2.52615
 Alpha virt. eigenvalues --    2.52722   2.53457   2.53866   2.54087   2.54183
 Alpha virt. eigenvalues --    2.54472   2.54759   2.55126   2.55465   2.55935
 Alpha virt. eigenvalues --    2.57788   2.58334   2.58568   2.59238   2.60153
 Alpha virt. eigenvalues --    2.60481   2.60597   2.61174   2.61628   2.62065
 Alpha virt. eigenvalues --    2.62411   2.62679   2.62876   2.63416   2.63833
 Alpha virt. eigenvalues --    2.64151   2.64433   2.64697   2.64994   2.65376
 Alpha virt. eigenvalues --    2.65715   2.66073   2.66685   2.66804   2.67020
 Alpha virt. eigenvalues --    2.67315   2.67819   2.68228   2.68763   2.68930
 Alpha virt. eigenvalues --    2.69032   2.69272   2.69290   2.69820   2.69930
 Alpha virt. eigenvalues --    2.70381   2.70899   2.71297   2.71987   2.72114
 Alpha virt. eigenvalues --    2.72595   2.72717   2.72765   2.72985   2.73200
 Alpha virt. eigenvalues --    2.73470   2.73498   2.73739   2.74452   2.74767
 Alpha virt. eigenvalues --    2.74894   2.75298   2.76516   2.76733   2.77182
 Alpha virt. eigenvalues --    2.77336   2.77378   2.77816   2.78139   2.78488
 Alpha virt. eigenvalues --    2.78640   2.78911   2.79051   2.79371   2.80273
 Alpha virt. eigenvalues --    2.80424   2.80506   2.80933   2.81073   2.81403
 Alpha virt. eigenvalues --    2.81851   2.82259   2.82268   2.82589   2.83685
 Alpha virt. eigenvalues --    2.83713   2.84026   2.84213   2.84480   2.84740
 Alpha virt. eigenvalues --    2.84816   2.85144   2.85598   2.85878   2.86878
 Alpha virt. eigenvalues --    2.86933   2.87402   2.87552   2.88111   2.88417
 Alpha virt. eigenvalues --    2.88436   2.88832   2.88877   2.89105   2.90381
 Alpha virt. eigenvalues --    2.90865   2.91123   2.91337   2.93072   2.93550
 Alpha virt. eigenvalues --    2.93991   2.94150   2.94495   2.94756   2.95212
 Alpha virt. eigenvalues --    2.95648   2.96075   2.96116   2.96324   2.96619
 Alpha virt. eigenvalues --    2.97071   2.97162   2.97735   2.98115   2.98190
 Alpha virt. eigenvalues --    2.98315   2.98535   2.98621   2.98821   2.98853
 Alpha virt. eigenvalues --    2.99058   2.99144   2.99493   2.99941   2.99982
 Alpha virt. eigenvalues --    3.00147   3.00281   3.00406   3.00505   3.01256
 Alpha virt. eigenvalues --    3.01893   3.01970   3.02121   3.02328   3.02670
 Alpha virt. eigenvalues --    3.02892   3.03048   3.03226   3.03523   3.03871
 Alpha virt. eigenvalues --    3.04219   3.04377   3.04458   3.04551   3.04749
 Alpha virt. eigenvalues --    3.05004   3.05239   3.05536   3.06076   3.06478
 Alpha virt. eigenvalues --    3.06833   3.07228   3.08012   3.08204   3.09443
 Alpha virt. eigenvalues --    3.09650   3.09817   3.10340   3.10595   3.11041
 Alpha virt. eigenvalues --    3.11271   3.11741   3.11841   3.12045   3.12434
 Alpha virt. eigenvalues --    3.12539   3.13314   3.13566   3.13864   3.13892
 Alpha virt. eigenvalues --    3.14104   3.14756   3.15830   3.16202   3.17226
 Alpha virt. eigenvalues --    3.17785   3.18024   3.18078   3.19070   3.19241
 Alpha virt. eigenvalues --    3.22246   3.22871   3.23883   3.24645   3.24705
 Alpha virt. eigenvalues --    3.25497   3.26440   3.26890   3.27552   3.27635
 Alpha virt. eigenvalues --    3.29080   3.29506   3.31457   3.31620   3.33349
 Alpha virt. eigenvalues --    3.33404   3.40517   3.40590   3.42766   3.43002
 Alpha virt. eigenvalues --    3.48618   3.48979   3.49950   3.50498   3.51056
 Alpha virt. eigenvalues --    3.51403   3.56491   3.57228   3.59028   3.59547
 Alpha virt. eigenvalues --    3.62761   3.62809   3.66156   3.66287   3.67140
 Alpha virt. eigenvalues --    3.67818   3.73249   3.74330   3.76053   3.77000
          Condensed to atoms (all electrons):
 Mulliken charges:
               1
     1  Mg   0.838635
     2  C   -0.003498
     3  C   -0.095326
     4  C   -0.045191
     5  C   -0.063900
     6  N   -0.256580
     7  C   -0.053364
     8  C   -0.013484
     9  C   -0.086853
    10  C    0.045975
    11  C    0.104795
    12  C    0.050581
    13  C   -0.071184
    14  H    0.034257
    15  N   -0.433311
    16  C    0.168329
    17  C   -0.177929
    18  C   -0.003623
    19  C    0.149145
    20  C    0.110383
    21  C    0.013386
    22  O   -0.248539
    23  C    0.062487
    24  N   -0.340952
    25  C    0.041019
    26  C   -0.028649
    27  C   -0.024159
    28  C    0.074739
    29  C    0.076020
    30  C    0.036232
    31  C   -0.010741
    32  N   -0.310734
    33  C    0.080796
    34  C   -0.169534
    35  C    0.009079
    36  C    0.083341
    37  C    0.127043
    38  C    0.047059
    39  O   -0.186368
    40  C   -0.005995
    41  C    0.214160
    42  O   -0.258215
    43  O   -0.304831
    44  C    0.156568
    45  H   -0.017906
    46  H   -0.016350
    47  H   -0.041485
    48  H    0.001543
    49  H   -0.005018
    50  H    0.025871
    51  H    0.016869
    52  H    0.016636
    53  H    0.010477
    54  H    0.044662
    55  H    0.019371
    56  H    0.016938
    57  H    0.005239
    58  H    0.027258
    59  H    0.037863
    60  H    0.036970
    61  H    0.036738
    62  H    0.030296
    63  H    0.017042
    64  H    0.009916
    65  H    0.023605
    66  H    0.012750
    67  H    0.004897
    68  H    0.006460
    69  H    0.004477
    70  H    0.012230
    71  H    0.017394
    72  H    0.031317
    73  H    0.048796
    74  H    0.008745
    75  H    0.046351
    76  H    0.035370
    77  H    0.044254
    78  H    0.044965
    79  H    0.055545
    80  Mg   0.836665
    81  C   -0.014781
    82  C   -0.088237
    83  C   -0.045328
    84  C   -0.065641
    85  N   -0.254537
    86  C   -0.047859
    87  C   -0.014962
    88  C   -0.091906
    89  C    0.045572
    90  C    0.110348
    91  C    0.062755
    92  C   -0.076907
    93  H    0.033948
    94  N   -0.423384
    95  C    0.162556
    96  C   -0.176193
    97  C   -0.008145
    98  C    0.151517
    99  C    0.100195
   100  C    0.015105
   101  O   -0.253353
   102  C    0.061559
   103  N   -0.350329
   104  C    0.037239
   105  C   -0.020409
   106  C   -0.034812
   107  C    0.089642
   108  C    0.073073
   109  C    0.034678
   110  C   -0.007365
   111  N   -0.324898
   112  C    0.079576
   113  C   -0.162394
   114  C    0.005185
   115  C    0.095495
   116  C    0.130613
   117  C    0.046498
   118  O   -0.185882
   119  C   -0.001924
   120  C    0.210105
   121  O   -0.252461
   122  O   -0.304382
   123  C    0.152411
   124  H   -0.022178
   125  H   -0.015784
   126  H   -0.041416
   127  H    0.001842
   128  H   -0.006397
   129  H    0.033597
   130  H    0.013420
   131  H    0.011748
   132  H    0.013243
   133  H    0.037749
   134  H    0.019864
   135  H    0.018454
   136  H    0.007188
   137  H    0.023483
   138  H    0.038984
   139  H    0.036998
   140  H    0.035827
   141  H    0.033425
   142  H    0.013791
   143  H    0.011303
   144  H    0.024355
   145  H    0.013948
   146  H    0.004714
   147  H    0.005492
   148  H    0.002980
   149  H    0.010805
   150  H    0.017405
   151  H    0.030583
   152  H    0.045735
   153  H    0.006719
   154  H    0.050454
   155  H    0.047544
   156  H    0.043255
   157  H    0.048112
   158  H    0.052954
 Sum of Mulliken charges =  -0.00000
 Mulliken charges with hydrogens summed into heavy atoms:
               1
     1  Mg   0.838635
     2  C   -0.003498
     3  C   -0.113232
     4  C   -0.061541
     5  C   -0.105385
     6  N   -0.256580
     7  C   -0.053364
     8  C   -0.011941
     9  C   -0.091871
    10  C    0.045975
    11  C    0.164171
    12  C    0.105720
    13  C   -0.000618
    15  N   -0.433311
    16  C    0.168329
    17  C   -0.177929
    18  C   -0.003623
    19  C    0.149145
    20  C    0.180744
    21  C    0.013386
    22  O   -0.248539
    23  C    0.166492
    24  N   -0.340952
    25  C    0.041019
    26  C   -0.011608
    27  C   -0.014243
    28  C    0.074739
    29  C    0.117272
    30  C    0.047169
    31  C    0.050200
    32  N   -0.310734
    33  C    0.080796
    34  C   -0.169534
    35  C    0.009079
    36  C    0.083341
    37  C    0.230935
    38  C    0.047059
    39  O   -0.186368
    40  C    0.029375
    41  C    0.214160
    42  O   -0.258215
    43  O   -0.304831
    44  C    0.301332
    80  Mg   0.836665
    81  C   -0.014781
    82  C   -0.110415
    83  C   -0.061112
    84  C   -0.107057
    85  N   -0.254537
    86  C   -0.047859
    87  C   -0.013120
    88  C   -0.098303
    89  C    0.045572
    90  C    0.169113
    91  C    0.113747
    92  C   -0.004640
    94  N   -0.423384
    95  C    0.162556
    96  C   -0.176193
    97  C   -0.008145
    98  C    0.151517
    99  C    0.169849
   100  C    0.015105
   101  O   -0.253353
   102  C    0.167809
   103  N   -0.350329
   104  C    0.037239
   105  C   -0.006618
   106  C   -0.023508
   107  C    0.089642
   108  C    0.116090
   109  C    0.043150
   110  C    0.051427
   111  N   -0.324898
   112  C    0.079576
   113  C   -0.162394
   114  C    0.005185
   115  C    0.095495
   116  C    0.233520
   117  C    0.046498
   118  O   -0.185882
   119  C    0.045620
   120  C    0.210105
   121  O   -0.252461
   122  O   -0.304382
   123  C    0.296732
 Electronic spatial extent (au):  <R**2>=          87058.6941
 Charge=             -0.0000 electrons
 Dipole moment (field-independent basis, Debye):
    X=             -4.1534    Y=             -1.9184    Z=             -7.2071  Tot=              8.5366
 Quadrupole moment (field-independent basis, Debye-Ang):
   XX=           -516.6101   YY=           -551.1816   ZZ=           -449.2372
   XY=             -3.3299   XZ=             -0.4208   YZ=            -47.6064
 Traceless Quadrupole moment (field-independent basis, Debye-Ang):
   XX=            -10.9338   YY=            -45.5053   ZZ=             56.4391
   XY=             -3.3299   XZ=             -0.4208   YZ=            -47.6064
 Octapole moment (field-independent basis, Debye-Ang**2):
  XXX=           -196.9605  YYY=            426.5459  ZZZ=            -72.6269  XYY=              3.3293
  XXY=            -14.7588  XXZ=           -135.7763  XZZ=            -13.6624  YZZ=           -219.2212
  YYZ=           -206.6495  XYZ=             -5.3826
 Hexadecapole moment (field-independent basis, Debye-Ang**3):
 XXXX=         -52021.4350 YYYY=         -42803.1224 ZZZZ=         -23862.9572 XXXY=           -282.2804
 XXXZ=            -76.4944 YYYX=            921.0142 YYYZ=          -1611.5960 ZZZX=             97.6794
 ZZZY=            256.8000 XXYY=         -16268.7139 XXZZ=         -11677.0253 YYZZ=         -10922.1619
 XXYZ=           -652.2410 YYXZ=           -159.0699 ZZXY=            -67.0473
 N-N= 1.597051457190D+04 E-N=-4.142236059582D+04  KE= 4.028795641604D+03
 Leave Link  601 at Thu Sep  9 07:24:29 2021, MaxMem= 23488102400 cpu:              15.4 elap:               0.8
 (Enter /sw/apps/gaussian-16.0/g16/l9999.exe)
 1\1\GINC-BP1-COMPUTE00116\SP\RCAM-B3LYP TD-FC\def2SVP\C68H72Mg2N8O8\OF
 15641\09-Sep-2021\0\\#p cam-b3lyp/Def2SVP td=(nstates=5)\\TDDFT excite
 d states in gaussian\\0,1\Mg,0,0.,0.,0.\C,0,-0.217,-2.218,2.801\C,0,-1
 .255,2.442,2.026\C,0,-0.245,1.85,-2.564\C,0,0.146,-2.824,-2.037\N,0,-0
 .617,-0.009,2.126\C,0,-0.594,-0.908,3.105\C,0,-0.936,-0.309,4.502\C,0,
 -1.773,0.964,4.032\C,0,-1.155,1.168,2.66\C,0,-3.263,0.685,3.863\C,0,0.
 345,0.11,5.299\C,0,0.124,0.397,6.787\H,0,1.168,0.033,7.733\N,0,-0.185,
 1.961,-0.152\C,0,-0.703,2.8,0.777\C,0,-0.62,4.156,0.193\C,0,-0.187,4.0
 15,-1.225\C,0,-0.214,2.583,-1.38\C,0,-0.887,5.406,0.974\C,0,0.181,5.01
 3,-2.277\O,0,0.303,4.69,-3.508\C,0,0.31,6.414,-1.837\N,0,-0.265,-0.413
 ,-2.029\C,0,-0.279,0.569,-2.937\C,0,-0.196,0.024,-4.332\C,0,0.124,-1.5
 33,-4.18\C,0,0.086,-1.632,-2.635\C,0,-1.451,0.205,-5.197\C,0,1.373,-2.
 07,-4.923\C,0,2.626,-1.49,-4.306\N,0,0.15,-2.144,0.303\C,0,0.173,-3.13
 6,-0.688\C,0,0.173,-4.438,0.004\C,0,0.133,-4.111,1.358\C,0,0.083,-2.69
 5,1.502\C,0,0.149,-5.715,-0.623\C,0,0.096,-4.629,2.716\O,0,0.208,-5.74
 7,3.221\C,0,-0.255,-3.428,3.701\C,0,0.717,-3.482,4.848\O,0,1.931,-3.25
 5,4.669\O,0,0.038,-3.556,6.003\C,0,0.943,-3.583,7.183\H,0,-1.859,3.22,
 2.497\H,0,-0.218,2.453,-3.474\H,0,0.276,-3.747,-2.605\H,0,-1.554,-0.94
 9,5.132\H,0,-1.585,1.831,4.665\H,0,-3.484,-0.377,3.969\H,0,-3.511,1.02
 7,2.858\H,0,-3.852,1.301,4.543\H,0,0.669,1.096,4.966\H,0,1.13,-0.639,5
 .189\H,0,-0.844,0.026,7.125\H,0,0.062,1.477,6.921\H,0,-1.344,5.186,1.9
 38\H,0,-1.651,5.963,0.432\H,0,0.007,6.02,1.084\H,0,-0.635,6.744,-1.405
 \H,0,0.665,6.97,-2.704\H,0,1.048,6.466,-1.036\H,0,0.608,0.501,-4.891\H
 ,0,-0.692,-2.156,-4.547\H,0,-1.267,0.74,-6.129\H,0,-2.204,0.714,-4.596
 \H,0,-1.967,-0.72,-5.453\H,0,1.356,-1.759,-5.967\H,0,1.452,-3.157,-4.9
 02\H,0,2.714,-0.522,-4.798\H,0,3.487,-2.121,-4.529\H,0,2.495,-1.303,-3
 .24\H,0,0.867,-6.333,-0.084\H,0,0.404,-5.642,-1.68\H,0,-0.891,-5.999,-
 0.463\H,0,-1.283,-3.581,4.028\H,0,0.698,-4.478,7.755\H,0,0.833,-2.619,
 7.68\H,0,2.,-3.754,6.976\Mg,0,7.88972,0.71417,0.60584\C,0,7.51189,-1.5
 0465,3.40104\C,0,6.77637,3.21954,2.63516\C,0,7.78134,2.59767,-1.94526\
 C,0,7.86492,-2.09817,-1.45228\N,0,7.25766,0.73095,2.72538\C,0,7.21469,
 -0.15972,3.70478\C,0,6.9097,0.4378,5.10461\C,0,6.15032,1.77291,4.63592
 \C,0,6.78841,1.94654,3.25919\C,0,4.65466,1.58021,4.44827\C,0,8.21473,0
 .77164,5.90926\C,0,7.99641,1.06712,7.39478\H,0,9.01519,0.6348,8.3475\N
 ,0,7.83213,2.69341,0.47229\C,0,7.36899,3.55838,1.3989\C,0,7.52688,4.89
 845,0.81286\C,0,7.96802,4.74355,-0.59998\C,0,7.85508,3.30717,-0.75543\
 C,0,7.34235,6.15999,1.60524\C,0,8.40533,5.72693,-1.64302\O,0,8.5163,5.
 39576,-2.87624\C,0,8.60961,7.1118,-1.19371\N,0,7.61928,0.33058,-1.4195
 2\C,0,7.66754,1.32446,-2.32384\C,0,7.72292,0.77935,-3.73103\C,0,7.9467
 4,-0.79624,-3.57292\C,0,7.89033,-0.90662,-2.03343\C,0,6.48581,1.03351,
 -4.59205\C,0,9.16516,-1.41186,-4.31396\C,0,10.45129,-0.9108,-3.69736\N
 ,0,7.90692,-1.4266,0.89715\C,0,7.86716,-2.42375,-0.10196\C,0,7.78059,-
 3.72751,0.58735\C,0,7.75255,-3.3945,1.94999\C,0,7.79672,-1.98192,2.098
 79\C,0,7.69047,-4.99903,-0.04608\C,0,7.6849,-3.9163,3.29604\O,0,7.7158
 3,-5.04077,3.79439\C,0,7.39848,-2.71077,4.29156\C,0,8.3576,-2.82285,5.
 44484\O,0,9.58029,-2.68274,5.26596\O,0,7.66092,-2.85973,6.59534\C,0,8.
 56907,-2.95959,7.76884\H,0,6.22512,4.02799,3.11623\H,0,7.85236,3.19627
 ,-2.85636\H,0,7.95179,-3.02676,-2.02049\H,0,6.25511,-0.1647,5.72289\H,
 0,6.3965,2.61381,5.27907\H,0,4.36637,0.54424,4.54722\H,0,4.43431,1.940
 75,3.45203\H,0,4.10204,2.22991,5.13299\H,0,8.60006,1.7448,5.57878\H,0,
 8.94069,-0.01035,5.79925\H,0,6.99903,0.76152,7.7336\H,0,8.00809,2.1502
 7,7.53852\H,0,6.85874,5.96207,2.56979\H,0,6.61949,6.77691,1.06049\H,0,
 8.27052,6.72343,1.72231\H,0,7.68607,7.49181,-0.76344\H,0,9.00576,7.644
 75,-2.06026\H,0,9.35479,7.11266,-0.39038\H,0,8.55894,1.20011,-4.27612\
 H,0,7.09223,-1.37011,-3.96064\H,0,6.71149,1.57063,-5.5326\H,0,5.76677,
 1.58591,-4.00182\H,0,5.92349,0.14274,-4.86688\H,0,9.17554,-1.08989,-5.
 35818\H,0,9.1692,-2.49674,-4.31141\H,0,10.59765,0.05779,-4.1847\H,0,11
 .27176,-1.59104,-3.91677\H,0,10.32684,-0.72445,-2.6243\H,0,8.35781,-5.
 66144,0.48905\H,0,7.95148,-4.93732,-1.10052\H,0,6.62922,-5.21596,0.102
 08\H,0,6.35962,-2.7917,4.61372\H,0,8.26092,-3.84268,8.33707\H,0,8.5025
 8,-1.9819,8.2821\H,0,9.61191,-3.18427,7.57787\\Version=ES64L-G16RevA.0
 3\State=1-A\HF=-4069.8114088\RMSD=6.136e-09\PG=C01 [X(C68H72Mg2N8O8)]\
 \@


 BULLDOZER: SOMEONE WHO SLEEPS THROUGH SPEECHES.
 Job cpu time:       0 days 15 hours 18 minutes  1.7 seconds.
 Elapsed time:       0 days  0 hours 38 minutes 55.1 seconds.
 File lengths (MBytes):  RWF=  13225 Int=      0 D2E=      0 Chk=    574 Scr=      1
 Normal termination of Gaussian 16 at Thu Sep  9 07:24:30 2021.
