 Entering Gaussian System, Link 0=g16
 Initial command:
 /sw/apps/gaussian-16.0/g16/l1.exe "/tmp/Gau-85188.inp" -scrdir="/tmp/"
 Entering Link 1 = /sw/apps/gaussian-16.0/g16/l1.exe PID=     85189.
  
 Copyright (c) 1988,1990,1992,1993,1995,1998,2003,2009,2016,
            Gaussian, Inc.  All Rights Reserved.
  
 This is part of the Gaussian(R) 16 program.  It is based on
 the Gaussian(R) 09 system (copyright 2009, Gaussian, Inc.),
 the Gaussian(R) 03 system (copyright 2003, Gaussian, Inc.),
 the Gaussian(R) 98 system (copyright 1998, Gaussian, Inc.),
 the Gaussian(R) 94 system (copyright 1995, Gaussian, Inc.),
 the Gaussian 92(TM) system (copyright 1992, Gaussian, Inc.),
 the Gaussian 90(TM) system (copyright 1990, Gaussian, Inc.),
 the Gaussian 88(TM) system (copyright 1988, Gaussian, Inc.),
 the Gaussian 86(TM) system (copyright 1986, Carnegie Mellon
 University), and the Gaussian 82(TM) system (copyright 1983,
 Carnegie Mellon University). Gaussian is a federally registered
 trademark of Gaussian, Inc.
  
 This software contains proprietary and confidential information,
 including trade secrets, belonging to Gaussian, Inc.
  
 This software is provided under written license and may be
 used, copied, transmitted, or stored only in accord with that
 written license.
  
 The following legend is applicable only to US Government
 contracts under FAR:
  
                    RESTRICTED RIGHTS LEGEND
  
 Use, reproduction and disclosure by the US Government is
 subject to restrictions as set forth in subparagraphs (a)
 and (c) of the Commercial Computer Software - Restricted
 Rights clause in FAR 52.227-19.
  
 Gaussian, Inc.
 340 Quinnipiac St., Bldg. 40, Wallingford CT 06492
  
  
 ---------------------------------------------------------------
 Warning -- This program may not be used in any manner that
 competes with the business of Gaussian, Inc. or will provide
 assistance to any competitor of Gaussian, Inc.  The licensee
 of this program is prohibited from giving any competitor of
 Gaussian, Inc. access to this program.  By using this program,
 the user acknowledges that Gaussian, Inc. is engaged in the
 business of creating and licensing software in the field of
 computational chemistry and represents and warrants to the
 licensee that it is not a competitor of Gaussian, Inc. and that
 it will not use this program in any manner prohibited above.
 ---------------------------------------------------------------
  

 Cite this work as:
 Gaussian 16, Revision A.03,
 M. J. Frisch, G. W. Trucks, H. B. Schlegel, G. E. Scuseria, 
 M. A. Robb, J. R. Cheeseman, G. Scalmani, V. Barone, 
 G. A. Petersson, H. Nakatsuji, X. Li, M. Caricato, A. V. Marenich, 
 J. Bloino, B. G. Janesko, R. Gomperts, B. Mennucci, H. P. Hratchian, 
 J. V. Ortiz, A. F. Izmaylov, J. L. Sonnenberg, D. Williams-Young, 
 F. Ding, F. Lipparini, F. Egidi, J. Goings, B. Peng, A. Petrone, 
 T. Henderson, D. Ranasinghe, V. G. Zakrzewski, J. Gao, N. Rega, 
 G. Zheng, W. Liang, M. Hada, M. Ehara, K. Toyota, R. Fukuda, 
 J. Hasegawa, M. Ishida, T. Nakajima, Y. Honda, O. Kitao, H. Nakai, 
 T. Vreven, K. Throssell, J. A. Montgomery, Jr., J. E. Peralta, 
 F. Ogliaro, M. J. Bearpark, J. J. Heyd, E. N. Brothers, K. N. Kudin, 
 V. N. Staroverov, T. A. Keith, R. Kobayashi, J. Normand, 
 K. Raghavachari, A. P. Rendell, J. C. Burant, S. S. Iyengar, 
 J. Tomasi, M. Cossi, J. M. Millam, M. Klene, C. Adamo, R. Cammi, 
 J. W. Ochterski, R. L. Martin, K. Morokuma, O. Farkas, 
 J. B. Foresman, and D. J. Fox, Gaussian, Inc., Wallingford CT, 2016.
 
 ******************************************
 Gaussian 16:  ES64L-G16RevA.03 25-Dec-2016
                 4-Sep-2021 
 ******************************************
 %nproc=24
 Will use up to   24 processors via shared memory.
 %mem=175gb
 -----------------------------------
 #p cam-b3lyp/Def2SVP td=(nstates=5)
 -----------------------------------
 1/38=1,172=1/1;
 2/12=2,17=6,18=5,40=1/2;
 3/5=43,7=101,11=9,25=1,30=1,74=-40/1,2,3,8;
 4//1;
 5/5=2,38=5/2;
 8/6=1,10=1,108=5/1;
 9/41=5,42=1,70=2/14;
 6/7=2,8=2,9=2,10=2/1;
 99/5=1,9=1/99;
 Leave Link    1 at Sat Sep  4 19:45:54 2021, MaxMem= 23488102400 cpu:               0.5 elap:               0.0
 (Enter /sw/apps/gaussian-16.0/g16/l101.exe)
 --------------------------------
 TDDFT excited states in gaussian
 --------------------------------
 Symbolic Z-matrix:
 Charge =  0 Multiplicity = 1
 Mg                    0.        0.        0. 
 C                    -0.217    -2.218     2.801 
 C                    -1.255     2.442     2.026 
 C                    -0.245     1.85     -2.564 
 C                     0.146    -2.824    -2.037 
 N                    -0.617    -0.009     2.126 
 C                    -0.594    -0.908     3.105 
 C                    -0.936    -0.309     4.502 
 C                    -1.773     0.964     4.032 
 C                    -1.155     1.168     2.66 
 C                    -3.263     0.685     3.863 
 C                     0.345     0.11      5.299 
 C                     0.124     0.397     6.787 
 H                     1.168     0.033     7.733 
 N                    -0.185     1.961    -0.152 
 C                    -0.703     2.8       0.777 
 C                    -0.62      4.156     0.193 
 C                    -0.187     4.015    -1.225 
 C                    -0.214     2.583    -1.38 
 C                    -0.887     5.406     0.974 
 C                     0.181     5.013    -2.277 
 O                     0.303     4.69     -3.508 
 C                     0.31      6.414    -1.837 
 N                    -0.265    -0.413    -2.029 
 C                    -0.279     0.569    -2.937 
 C                    -0.196     0.024    -4.332 
 C                     0.124    -1.533    -4.18 
 C                     0.086    -1.632    -2.635 
 C                    -1.451     0.205    -5.197 
 C                     1.373    -2.07     -4.923 
 C                     2.626    -1.49     -4.306 
 N                     0.15     -2.144     0.303 
 C                     0.173    -3.136    -0.688 
 C                     0.173    -4.438     0.004 
 C                     0.133    -4.111     1.358 
 C                     0.083    -2.695     1.502 
 C                     0.149    -5.715    -0.623 
 C                     0.096    -4.629     2.716 
 O                     0.208    -5.747     3.221 
 C                    -0.255    -3.428     3.701 
 C                     0.717    -3.482     4.848 
 O                     1.931    -3.255     4.669 
 O                     0.038    -3.556     6.003 
 C                     0.943    -3.583     7.183 
 H                    -1.859     3.22      2.497 
 H                    -0.218     2.453    -3.474 
 H                     0.276    -3.747    -2.605 
 H                    -1.554    -0.949     5.132 
 H                    -1.585     1.831     4.665 
 H                    -3.484    -0.377     3.969 
 H                    -3.511     1.027     2.858 
 H                    -3.852     1.301     4.543 
 H                     0.669     1.096     4.966 
 H                     1.13     -0.639     5.189 
 H                    -0.844     0.026     7.125 
 H                     0.062     1.477     6.921 
 H                    -1.344     5.186     1.938 
 H                    -1.651     5.963     0.432 
 H                     0.007     6.02      1.084 
 H                    -0.635     6.744    -1.405 
 H                     0.665     6.97     -2.704 
 H                     1.048     6.466    -1.036 
 H                     0.608     0.501    -4.891 
 H                    -0.692    -2.156    -4.547 
 H                    -1.267     0.74     -6.129 
 H                    -2.204     0.714    -4.596 
 H                    -1.967    -0.72     -5.453 
 H                     1.356    -1.759    -5.967 
 H                     1.452    -3.157    -4.902 
 H                     2.714    -0.522    -4.798 
 H                     3.487    -2.121    -4.529 
 H                     2.495    -1.303    -3.24 
 H                     0.867    -6.333    -0.084 
 H                     0.404    -5.642    -1.68 
 H                    -0.891    -5.999    -0.463 
 H                    -1.283    -3.581     4.028 
 H                     0.698    -4.478     7.755 
 H                     0.833    -2.619     7.68 
 H                     2.       -3.754     6.976 
 Mg                    31.5389   2.8433    2.40253 
 C                     31.34466   0.44703   5.06697 
 C                     30.28278   5.14633   4.58262 
 C                     31.2736   4.85844  -0.03391 
 C                     31.67995   0.15866   0.18475 
 N                     30.93208   2.69523   4.52434 
 C                     30.96089   1.74893   5.45065 
 C                     30.63269   2.2429    6.88517 
 C                     29.77941   3.5479    6.50079 
 C                     30.3881   3.84337   5.13153 
 C                     28.29808   3.26487   6.31396 
 C                     31.92155   2.61809   7.69763 
 C                     31.70123   2.8122    9.19947 
 H                     32.758    2.39627   10.11746 
 N                     31.3462   4.81842   2.38465 
 C                     30.8366   5.59518   3.36354 
 C                     30.89672   6.97433   2.85512 
 C                     31.33069   6.93124   1.43227 
 C                     31.31321   5.50181   1.19452 
 C                     30.63672   8.17279   3.72088 
 C                     31.6883   8.0004    0.44474 
 O                     31.8069   7.74893  -0.80647 
 C                     31.80384   9.36788   0.97214 
 N                     31.27123   2.55914   0.36048 
 C                     31.24162   3.60429  -0.48492 
 C                     31.31716   3.14594  -1.92179 
 C                     31.64873   1.58278  -1.85724 
 C                     31.61799   1.38058  -0.32637 
 C                     30.05568   3.36428  -2.75689 
 C                     32.89716   1.09516  -2.6423 
 C                     34.15366   1.6464   -2.0077 
 N                     31.70408   0.69548   2.56883 
 C                     31.72003  -0.24302   1.51382 
 C                     31.72982  -1.58709   2.12687 
 C                     31.69536  -1.33558   3.50674 
 C                     31.64576   0.06586   3.73701 
 C                     31.71836  -2.82331   1.42137 
 C                     31.67892  -1.93722   4.82069 
 O                     31.79158  -3.08373   5.25261 
 C                     31.32344  -0.81316   5.88677 
 C                     32.30141  -0.9257    7.02406 
 O                     33.50967  -0.6926    6.84406 
 O                     31.62238  -1.07597   8.17588 
 C                     32.54892  -1.18098   9.33447 
 H                     29.68388   5.88638   5.11414 
 H                     31.29332   5.51183  -0.90922 
 H                     31.82266  -0.72769  -0.4371 
 H                     30.02759   1.5627    7.4725 
 H                     29.97577   4.36528   7.18977 
 H                     28.08161   2.2077    6.35481 
 H                     28.0422   3.66618   5.3421 
 H                     27.71092   3.83502   7.03957 
 H                     32.23636   3.63261   7.42124 
 H                     32.69733   1.89497   7.5367 
 H                     30.73082   2.42043   9.52775 
 H                     31.64141   3.88359   9.4058 
 H                     30.17895   7.88731   4.67605 
 H                     29.8675   8.7693    3.21856 
 H                     31.52603   8.79048   3.86323 
 H                     30.86186   9.65876   1.43097 
 H                     32.15288   9.97545   0.13494 
 H                     32.55664   9.37334   1.7683 
 H                     32.1164   3.65327  -2.44804 
 H                     30.83044   0.97526  -2.27095 
 H                     30.2335   3.96865  -3.66638 
 H                     29.30795   3.83161  -2.12996 
 H                     29.55162   2.45454  -3.07861 
 H                     32.87351   1.47652  -3.66609 
 H                     32.9745   0.01472  -2.70281 
 H                     34.22854   2.6491   -2.43907 
 H                     35.01558   1.03736  -2.27267 
 H                     34.02953   1.76191  -0.92469 
 H                     32.43516  -3.46837   1.91187 
 H                     31.9622  -2.68351   0.37029 
 H                     30.676   -3.12017   1.56497 
 H                     30.29627  -0.98303   6.21179 
 H                     32.30782  -2.11418   9.85282 
 H                     32.42258  -0.24117   9.90417 
 H                     33.60223  -1.32276   9.12262 
 
 ITRead=  0  0  0  0  0  0  0  0  0  0  0  0  0  0  0  0  0  0  0  0
 ITRead=  0  0  0  0  0  0  0  0  0  0  0  0  0  0  0  0  0  0  0  0
 ITRead=  0  0  0  0  0  0  0  0  0  0  0  0  0  0  0  0  0  0  0  0
 ITRead=  0  0  0  0  0  0  0  0  0  0  0  0  0  0  0  0  0  0  0  0
 ITRead=  0  0  0  0  0  0  0  0  0  0  0  0  0  0  0  0  0  0  0  0
 ITRead=  0  0  0  0  0  0  0  0  0  0  0  0  0  0  0  0  0  0  0  0
 ITRead=  0  0  0  0  0  0  0  0  0  0  0  0  0  0  0  0  0  0  0  0
 ITRead=  0  0  0  0  0  0  0  0  0  0  0  0  0  0  0  0  0  0
 MicOpt= -1 -1 -1 -1 -1 -1 -1 -1 -1 -1 -1 -1 -1 -1 -1 -1 -1 -1 -1 -1
 MicOpt= -1 -1 -1 -1 -1 -1 -1 -1 -1 -1 -1 -1 -1 -1 -1 -1 -1 -1 -1 -1
 MicOpt= -1 -1 -1 -1 -1 -1 -1 -1 -1 -1 -1 -1 -1 -1 -1 -1 -1 -1 -1 -1
 MicOpt= -1 -1 -1 -1 -1 -1 -1 -1 -1 -1 -1 -1 -1 -1 -1 -1 -1 -1 -1 -1
 MicOpt= -1 -1 -1 -1 -1 -1 -1 -1 -1 -1 -1 -1 -1 -1 -1 -1 -1 -1 -1 -1
 MicOpt= -1 -1 -1 -1 -1 -1 -1 -1 -1 -1 -1 -1 -1 -1 -1 -1 -1 -1 -1 -1
 MicOpt= -1 -1 -1 -1 -1 -1 -1 -1 -1 -1 -1 -1 -1 -1 -1 -1 -1 -1 -1 -1
 MicOpt= -1 -1 -1 -1 -1 -1 -1 -1 -1 -1 -1 -1 -1 -1 -1 -1 -1 -1
 NAtoms=    158 NQM=      158 NQMF=       0 NMMI=      0 NMMIF=      0
                NMic=       0 NMicF=      0.
                    Isotopes and Nuclear Properties:
 (Nuclear quadrupole moments (NQMom) in fm**2, nuclear magnetic moments (NMagM)
  in nuclear magnetons)

  Atom         1           2           3           4           5           6           7           8           9          10
 IAtWgt=          24          12          12          12          12          14          12          12          12          12
 AtmWgt=  23.9850450  12.0000000  12.0000000  12.0000000  12.0000000  14.0030740  12.0000000  12.0000000  12.0000000  12.0000000
 NucSpn=           0           0           0           0           0           2           0           0           0           0
 AtZEff=  -0.0000000  -0.0000000  -0.0000000  -0.0000000  -0.0000000  -0.0000000  -0.0000000  -0.0000000  -0.0000000  -0.0000000
 NQMom=    0.0000000   0.0000000   0.0000000   0.0000000   0.0000000   2.0440000   0.0000000   0.0000000   0.0000000   0.0000000
 NMagM=    0.0000000   0.0000000   0.0000000   0.0000000   0.0000000   0.4037610   0.0000000   0.0000000   0.0000000   0.0000000
 AtZNuc=  12.0000000   6.0000000   6.0000000   6.0000000   6.0000000   7.0000000   6.0000000   6.0000000   6.0000000   6.0000000

  Atom        11          12          13          14          15          16          17          18          19          20
 IAtWgt=          12          12          12           1          14          12          12          12          12          12
 AtmWgt=  12.0000000  12.0000000  12.0000000   1.0078250  14.0030740  12.0000000  12.0000000  12.0000000  12.0000000  12.0000000
 NucSpn=           0           0           0           1           2           0           0           0           0           0
 AtZEff=  -0.0000000  -0.0000000  -0.0000000  -0.0000000  -0.0000000  -0.0000000  -0.0000000  -0.0000000  -0.0000000  -0.0000000
 NQMom=    0.0000000   0.0000000   0.0000000   0.0000000   2.0440000   0.0000000   0.0000000   0.0000000   0.0000000   0.0000000
 NMagM=    0.0000000   0.0000000   0.0000000   2.7928460   0.4037610   0.0000000   0.0000000   0.0000000   0.0000000   0.0000000
 AtZNuc=   6.0000000   6.0000000   6.0000000   1.0000000   7.0000000   6.0000000   6.0000000   6.0000000   6.0000000   6.0000000

  Atom        21          22          23          24          25          26          27          28          29          30
 IAtWgt=          12          16          12          14          12          12          12          12          12          12
 AtmWgt=  12.0000000  15.9949146  12.0000000  14.0030740  12.0000000  12.0000000  12.0000000  12.0000000  12.0000000  12.0000000
 NucSpn=           0           0           0           2           0           0           0           0           0           0
 AtZEff=  -0.0000000  -0.0000000  -0.0000000  -0.0000000  -0.0000000  -0.0000000  -0.0000000  -0.0000000  -0.0000000  -0.0000000
 NQMom=    0.0000000   0.0000000   0.0000000   2.0440000   0.0000000   0.0000000   0.0000000   0.0000000   0.0000000   0.0000000
 NMagM=    0.0000000   0.0000000   0.0000000   0.4037610   0.0000000   0.0000000   0.0000000   0.0000000   0.0000000   0.0000000
 AtZNuc=   6.0000000   8.0000000   6.0000000   7.0000000   6.0000000   6.0000000   6.0000000   6.0000000   6.0000000   6.0000000

  Atom        31          32          33          34          35          36          37          38          39          40
 IAtWgt=          12          14          12          12          12          12          12          12          16          12
 AtmWgt=  12.0000000  14.0030740  12.0000000  12.0000000  12.0000000  12.0000000  12.0000000  12.0000000  15.9949146  12.0000000
 NucSpn=           0           2           0           0           0           0           0           0           0           0
 AtZEff=  -0.0000000  -0.0000000  -0.0000000  -0.0000000  -0.0000000  -0.0000000  -0.0000000  -0.0000000  -0.0000000  -0.0000000
 NQMom=    0.0000000   2.0440000   0.0000000   0.0000000   0.0000000   0.0000000   0.0000000   0.0000000   0.0000000   0.0000000
 NMagM=    0.0000000   0.4037610   0.0000000   0.0000000   0.0000000   0.0000000   0.0000000   0.0000000   0.0000000   0.0000000
 AtZNuc=   6.0000000   7.0000000   6.0000000   6.0000000   6.0000000   6.0000000   6.0000000   6.0000000   8.0000000   6.0000000

  Atom        41          42          43          44          45          46          47          48          49          50
 IAtWgt=          12          16          16          12           1           1           1           1           1           1
 AtmWgt=  12.0000000  15.9949146  15.9949146  12.0000000   1.0078250   1.0078250   1.0078250   1.0078250   1.0078250   1.0078250
 NucSpn=           0           0           0           0           1           1           1           1           1           1
 AtZEff=  -0.0000000  -0.0000000  -0.0000000  -0.0000000  -0.0000000  -0.0000000  -0.0000000  -0.0000000  -0.0000000  -0.0000000
 NQMom=    0.0000000   0.0000000   0.0000000   0.0000000   0.0000000   0.0000000   0.0000000   0.0000000   0.0000000   0.0000000
 NMagM=    0.0000000   0.0000000   0.0000000   0.0000000   2.7928460   2.7928460   2.7928460   2.7928460   2.7928460   2.7928460
 AtZNuc=   6.0000000   8.0000000   8.0000000   6.0000000   1.0000000   1.0000000   1.0000000   1.0000000   1.0000000   1.0000000

  Atom        51          52          53          54          55          56          57          58          59          60
 IAtWgt=           1           1           1           1           1           1           1           1           1           1
 AtmWgt=   1.0078250   1.0078250   1.0078250   1.0078250   1.0078250   1.0078250   1.0078250   1.0078250   1.0078250   1.0078250
 NucSpn=           1           1           1           1           1           1           1           1           1           1
 AtZEff=  -0.0000000  -0.0000000  -0.0000000  -0.0000000  -0.0000000  -0.0000000  -0.0000000  -0.0000000  -0.0000000  -0.0000000
 NQMom=    0.0000000   0.0000000   0.0000000   0.0000000   0.0000000   0.0000000   0.0000000   0.0000000   0.0000000   0.0000000
 NMagM=    2.7928460   2.7928460   2.7928460   2.7928460   2.7928460   2.7928460   2.7928460   2.7928460   2.7928460   2.7928460
 AtZNuc=   1.0000000   1.0000000   1.0000000   1.0000000   1.0000000   1.0000000   1.0000000   1.0000000   1.0000000   1.0000000

  Atom        61          62          63          64          65          66          67          68          69          70
 IAtWgt=           1           1           1           1           1           1           1           1           1           1
 AtmWgt=   1.0078250   1.0078250   1.0078250   1.0078250   1.0078250   1.0078250   1.0078250   1.0078250   1.0078250   1.0078250
 NucSpn=           1           1           1           1           1           1           1           1           1           1
 AtZEff=  -0.0000000  -0.0000000  -0.0000000  -0.0000000  -0.0000000  -0.0000000  -0.0000000  -0.0000000  -0.0000000  -0.0000000
 NQMom=    0.0000000   0.0000000   0.0000000   0.0000000   0.0000000   0.0000000   0.0000000   0.0000000   0.0000000   0.0000000
 NMagM=    2.7928460   2.7928460   2.7928460   2.7928460   2.7928460   2.7928460   2.7928460   2.7928460   2.7928460   2.7928460
 AtZNuc=   1.0000000   1.0000000   1.0000000   1.0000000   1.0000000   1.0000000   1.0000000   1.0000000   1.0000000   1.0000000

  Atom        71          72          73          74          75          76          77          78          79          80
 IAtWgt=           1           1           1           1           1           1           1           1           1          24
 AtmWgt=   1.0078250   1.0078250   1.0078250   1.0078250   1.0078250   1.0078250   1.0078250   1.0078250   1.0078250  23.9850450
 NucSpn=           1           1           1           1           1           1           1           1           1           0
 AtZEff=  -0.0000000  -0.0000000  -0.0000000  -0.0000000  -0.0000000  -0.0000000  -0.0000000  -0.0000000  -0.0000000  -0.0000000
 NQMom=    0.0000000   0.0000000   0.0000000   0.0000000   0.0000000   0.0000000   0.0000000   0.0000000   0.0000000   0.0000000
 NMagM=    2.7928460   2.7928460   2.7928460   2.7928460   2.7928460   2.7928460   2.7928460   2.7928460   2.7928460   0.0000000
 AtZNuc=   1.0000000   1.0000000   1.0000000   1.0000000   1.0000000   1.0000000   1.0000000   1.0000000   1.0000000  12.0000000

  Atom        81          82          83          84          85          86          87          88          89          90
 IAtWgt=          12          12          12          12          14          12          12          12          12          12
 AtmWgt=  12.0000000  12.0000000  12.0000000  12.0000000  14.0030740  12.0000000  12.0000000  12.0000000  12.0000000  12.0000000
 NucSpn=           0           0           0           0           2           0           0           0           0           0
 AtZEff=  -0.0000000  -0.0000000  -0.0000000  -0.0000000  -0.0000000  -0.0000000  -0.0000000  -0.0000000  -0.0000000  -0.0000000
 NQMom=    0.0000000   0.0000000   0.0000000   0.0000000   2.0440000   0.0000000   0.0000000   0.0000000   0.0000000   0.0000000
 NMagM=    0.0000000   0.0000000   0.0000000   0.0000000   0.4037610   0.0000000   0.0000000   0.0000000   0.0000000   0.0000000
 AtZNuc=   6.0000000   6.0000000   6.0000000   6.0000000   7.0000000   6.0000000   6.0000000   6.0000000   6.0000000   6.0000000

  Atom        91          92          93          94          95          96          97          98          99         100
 IAtWgt=          12          12           1          14          12          12          12          12          12          12
 AtmWgt=  12.0000000  12.0000000   1.0078250  14.0030740  12.0000000  12.0000000  12.0000000  12.0000000  12.0000000  12.0000000
 NucSpn=           0           0           1           2           0           0           0           0           0           0
 AtZEff=  -0.0000000  -0.0000000  -0.0000000  -0.0000000  -0.0000000  -0.0000000  -0.0000000  -0.0000000  -0.0000000  -0.0000000
 NQMom=    0.0000000   0.0000000   0.0000000   2.0440000   0.0000000   0.0000000   0.0000000   0.0000000   0.0000000   0.0000000
 NMagM=    0.0000000   0.0000000   2.7928460   0.4037610   0.0000000   0.0000000   0.0000000   0.0000000   0.0000000   0.0000000
 AtZNuc=   6.0000000   6.0000000   1.0000000   7.0000000   6.0000000   6.0000000   6.0000000   6.0000000   6.0000000   6.0000000

  Atom       101         102         103         104         105         106         107         108         109         110
 IAtWgt=          16          12          14          12          12          12          12          12          12          12
 AtmWgt=  15.9949146  12.0000000  14.0030740  12.0000000  12.0000000  12.0000000  12.0000000  12.0000000  12.0000000  12.0000000
 NucSpn=           0           0           2           0           0           0           0           0           0           0
 AtZEff=  -0.0000000  -0.0000000  -0.0000000  -0.0000000  -0.0000000  -0.0000000  -0.0000000  -0.0000000  -0.0000000  -0.0000000
 NQMom=    0.0000000   0.0000000   2.0440000   0.0000000   0.0000000   0.0000000   0.0000000   0.0000000   0.0000000   0.0000000
 NMagM=    0.0000000   0.0000000   0.4037610   0.0000000   0.0000000   0.0000000   0.0000000   0.0000000   0.0000000   0.0000000
 AtZNuc=   8.0000000   6.0000000   7.0000000   6.0000000   6.0000000   6.0000000   6.0000000   6.0000000   6.0000000   6.0000000

  Atom       111         112         113         114         115         116         117         118         119         120
 IAtWgt=          14          12          12          12          12          12          12          16          12          12
 AtmWgt=  14.0030740  12.0000000  12.0000000  12.0000000  12.0000000  12.0000000  12.0000000  15.9949146  12.0000000  12.0000000
 NucSpn=           2           0           0           0           0           0           0           0           0           0
 AtZEff=  -0.0000000  -0.0000000  -0.0000000  -0.0000000  -0.0000000  -0.0000000  -0.0000000  -0.0000000  -0.0000000  -0.0000000
 NQMom=    2.0440000   0.0000000   0.0000000   0.0000000   0.0000000   0.0000000   0.0000000   0.0000000   0.0000000   0.0000000
 NMagM=    0.4037610   0.0000000   0.0000000   0.0000000   0.0000000   0.0000000   0.0000000   0.0000000   0.0000000   0.0000000
 AtZNuc=   7.0000000   6.0000000   6.0000000   6.0000000   6.0000000   6.0000000   6.0000000   8.0000000   6.0000000   6.0000000

  Atom       121         122         123         124         125         126         127         128         129         130
 IAtWgt=          16          16          12           1           1           1           1           1           1           1
 AtmWgt=  15.9949146  15.9949146  12.0000000   1.0078250   1.0078250   1.0078250   1.0078250   1.0078250   1.0078250   1.0078250
 NucSpn=           0           0           0           1           1           1           1           1           1           1
 AtZEff=  -0.0000000  -0.0000000  -0.0000000  -0.0000000  -0.0000000  -0.0000000  -0.0000000  -0.0000000  -0.0000000  -0.0000000
 NQMom=    0.0000000   0.0000000   0.0000000   0.0000000   0.0000000   0.0000000   0.0000000   0.0000000   0.0000000   0.0000000
 NMagM=    0.0000000   0.0000000   0.0000000   2.7928460   2.7928460   2.7928460   2.7928460   2.7928460   2.7928460   2.7928460
 AtZNuc=   8.0000000   8.0000000   6.0000000   1.0000000   1.0000000   1.0000000   1.0000000   1.0000000   1.0000000   1.0000000

  Atom       131         132         133         134         135         136         137         138         139         140
 IAtWgt=           1           1           1           1           1           1           1           1           1           1
 AtmWgt=   1.0078250   1.0078250   1.0078250   1.0078250   1.0078250   1.0078250   1.0078250   1.0078250   1.0078250   1.0078250
 NucSpn=           1           1           1           1           1           1           1           1           1           1
 AtZEff=  -0.0000000  -0.0000000  -0.0000000  -0.0000000  -0.0000000  -0.0000000  -0.0000000  -0.0000000  -0.0000000  -0.0000000
 NQMom=    0.0000000   0.0000000   0.0000000   0.0000000   0.0000000   0.0000000   0.0000000   0.0000000   0.0000000   0.0000000
 NMagM=    2.7928460   2.7928460   2.7928460   2.7928460   2.7928460   2.7928460   2.7928460   2.7928460   2.7928460   2.7928460
 AtZNuc=   1.0000000   1.0000000   1.0000000   1.0000000   1.0000000   1.0000000   1.0000000   1.0000000   1.0000000   1.0000000

  Atom       141         142         143         144         145         146         147         148         149         150
 IAtWgt=           1           1           1           1           1           1           1           1           1           1
 AtmWgt=   1.0078250   1.0078250   1.0078250   1.0078250   1.0078250   1.0078250   1.0078250   1.0078250   1.0078250   1.0078250
 NucSpn=           1           1           1           1           1           1           1           1           1           1
 AtZEff=  -0.0000000  -0.0000000  -0.0000000  -0.0000000  -0.0000000  -0.0000000  -0.0000000  -0.0000000  -0.0000000  -0.0000000
 NQMom=    0.0000000   0.0000000   0.0000000   0.0000000   0.0000000   0.0000000   0.0000000   0.0000000   0.0000000   0.0000000
 NMagM=    2.7928460   2.7928460   2.7928460   2.7928460   2.7928460   2.7928460   2.7928460   2.7928460   2.7928460   2.7928460
 AtZNuc=   1.0000000   1.0000000   1.0000000   1.0000000   1.0000000   1.0000000   1.0000000   1.0000000   1.0000000   1.0000000

  Atom       151         152         153         154         155         156         157         158
 IAtWgt=           1           1           1           1           1           1           1           1
 AtmWgt=   1.0078250   1.0078250   1.0078250   1.0078250   1.0078250   1.0078250   1.0078250   1.0078250
 NucSpn=           1           1           1           1           1           1           1           1
 AtZEff=  -0.0000000  -0.0000000  -0.0000000  -0.0000000  -0.0000000  -0.0000000  -0.0000000  -0.0000000
 NQMom=    0.0000000   0.0000000   0.0000000   0.0000000   0.0000000   0.0000000   0.0000000   0.0000000
 NMagM=    2.7928460   2.7928460   2.7928460   2.7928460   2.7928460   2.7928460   2.7928460   2.7928460
 AtZNuc=   1.0000000   1.0000000   1.0000000   1.0000000   1.0000000   1.0000000   1.0000000   1.0000000
 Leave Link  101 at Sat Sep  4 19:45:54 2021, MaxMem= 23488102400 cpu:               3.8 elap:               0.2
 (Enter /sw/apps/gaussian-16.0/g16/l202.exe)
 Stoichiometry    C68H72Mg2N8O8
 Framework group  C1[X(C68H72Mg2N8O8)]
 Deg. of freedom   468
 Full point group                 C1      NOp   1
 Largest Abelian subgroup         C1      NOp   1
 Largest concise Abelian subgroup C1      NOp   1
                         Standard orientation:                         
 ---------------------------------------------------------------------
 Center     Atomic      Atomic             Coordinates (Angstroms)
 Number     Number       Type             X           Y           Z
 ---------------------------------------------------------------------
      1         12           0      -15.794411   -0.756334    0.116520
      2          6           0      -15.991328    2.816191    0.218995
      3          6           0      -16.677340   -0.562044   -3.173731
      4          6           0      -16.070479   -3.915513    0.116350
      5          6           0      -16.047063   -0.722636    3.592249
      6          7           0      -16.248218    0.966283   -1.197746
      7          6           0      -16.229566    2.287439   -1.051560
      8          6           0      -16.412381    3.060002   -2.392119
      9          6           0      -17.169002    1.934338   -3.230214
     10          6           0      -16.640609    0.703071   -2.515577
     11          6           0      -18.686036    1.977565   -3.077766
     12          6           0      -15.043615    3.441254   -3.050037
     13          6           0      -15.126395    4.471010   -4.180570
     14          1           0      -14.049644    5.438823   -4.326500
     15          7           0      -15.819853   -2.040093   -1.384868
     16          6           0      -16.191929   -1.785017   -2.662280
     17          6           0      -16.036008   -3.060209   -3.394573
     18          6           0      -15.724722   -4.122170   -2.397861
     19          6           0      -15.887174   -3.397361   -1.163504
     20          6           0      -16.134290   -3.170379   -4.885195
     21          6           0      -15.351874   -5.564436   -2.535644
     22          8           0      -15.351228   -6.365022   -1.538831
     23          6           0      -15.069343   -6.042361   -3.901223
     24          7           0      -16.246022   -2.142394    1.610682
     25          6           0      -16.243208   -3.455703    1.357311
     26          6           0      -16.312859   -4.256285    2.623864
     27          6           0      -16.118332   -3.213396    3.817302
     28          6           0      -16.048449   -1.910504    2.983121
     29          6           0      -17.608968   -5.048393    2.844496
     30          6           0      -14.979944   -3.504624    4.827094
     31          6           0      -13.638593   -3.363516    4.143015
     32          7           0      -15.808223    0.757854    1.671540
     33          6           0      -15.945790    0.548196    3.051320
     34          6           0      -16.006461    1.877538    3.686329
     35          6           0      -15.916051    2.774014    2.623314
     36          6           0      -15.832303    2.050552    1.399435
     37          6           0      -16.188015    2.130397    5.074686
     38          6           0      -15.895513    4.174867    2.234667
     39          8           0      -15.843059    5.243491    2.845227
     40          6           0      -16.066140    4.258771    0.653631
     41          6           0      -15.018959    5.205202    0.133063
     42          8           0      -13.806780    4.915212    0.195453
     43          8           0      -15.613016    6.185230   -0.564922
     44          6           0      -14.627574    7.142835   -1.134177
     45          1           0      -17.174577   -0.638709   -4.142658
     46          1           0      -16.059896   -5.006020    0.172212
     47          1           0      -16.040548   -0.633669    4.680135
     48          1           0      -17.034327    3.952512   -2.321167
     49          1           0      -16.859574    1.927968   -4.275172
     50          1           0      -18.989546    2.694840   -2.315322
     51          1           0      -18.978380    0.967928   -2.788523
     52          1           0      -19.166677    2.165104   -4.038281
     53          1           0      -14.661437    2.585353   -3.606306
     54          1           0      -14.336910    3.789670   -2.296047
     55          1           0      -16.094705    4.972135   -4.193132
     56          1           0      -15.084409    3.938896   -5.130986
     57          1           0      -16.534816   -2.259579   -5.328554
     58          1           0      -16.885793   -3.930012   -5.099460
     59          1           0      -15.184759   -3.454278   -5.339205
     60          1           0      -15.947047   -5.881548   -4.527580
     61          1           0      -14.733759   -7.073412   -3.795549
     62          1           0      -14.271465   -5.435185   -4.329799
     63          1           0      -15.514912   -4.996680    2.662869
     64          1           0      -17.010486   -3.131783    4.438651
     65          1           0      -17.449963   -6.117733    2.985680
     66          1           0      -18.267732   -4.859471    1.997366
     67          1           0      -18.220897   -4.701075    3.676560
     68          1           0      -15.048430   -4.529412    5.190503
     69          1           0      -14.993991   -2.843731    5.693854
     70          1           0      -13.504376   -4.334560    3.667735
     71          1           0      -12.854673   -3.176764    4.877729
     72          1           0      -13.672364   -2.615019    3.351121
     73          1           0      -15.487714    2.924221    5.334286
     74          1           0      -16.007876    1.233786    5.667343
     75          1           0      -17.233706    2.437287    5.088991
     76          1           0      -17.076009    4.622297    0.466185
     77          1           0      -14.905419    8.136440   -0.782348
     78          1           0      -14.616012    6.972205   -2.210819
     79          1           0      -13.607920    7.067818   -0.754680
     80         12           0       15.963259   -0.800727    0.032043
     81          6           0       15.763247    2.767383    0.360167
     82          6           0       15.078776   -0.399948   -3.237765
     83          6           0       15.690916   -3.954971   -0.177691
     84          6           0       15.704158   -0.995179    3.502027
     85          7           0       15.507210    1.000907   -1.167276
     86          6           0       15.523576    2.307645   -0.951562
     87          6           0       15.348199    3.172582   -2.228549
     88          6           0       14.584616    2.097018   -3.144499
     89          6           0       15.111885    0.813791   -2.505754
     90          6           0       13.074505    2.128201   -2.977342
     91          6           0       16.722144    3.592192   -2.859598
     92          6           0       16.633038    4.688178   -3.923842
     93          1           0       17.715872    5.664123   -4.010264
     94          7           0       15.941478   -1.984814   -1.560444
     95          6           0       15.576110   -1.652736   -2.816431
     96          6           0       15.716991   -2.880600   -3.614342
     97          6           0       16.037352   -4.004547   -2.693037
     98          6           0       15.878356   -3.347968   -1.410958
     99          6           0       15.627576   -2.892028   -5.112781
    100          6           0       16.410889   -5.437020   -2.926902
    101          8           0       16.412830   -6.296270   -1.975842
    102          6           0       16.683720   -5.824577   -4.318615
    103          7           0       15.519168   -2.273685    1.430449
    104          6           0       15.516650   -3.573908    1.087911
    105          6           0       15.443941   -4.459523    2.308889
    106          6           0       15.642852   -3.483490    3.560036
    107          6           0       15.709949   -2.130831    2.817605
    108          6           0       14.146877   -5.249646    2.481299
    109          6           0       16.781784   -3.837862    4.554985
    110          6           0       18.125446   -3.665559    3.883971
    111          7           0       15.953915    0.605534    1.672291
    112          6           0       15.809161    0.312678    3.046105
    113          6           0       15.748635    1.603322    3.762362
    114          6           0       15.839960    2.565348    2.745184
    115          6           0       15.929333    1.919971    1.482243
    116          6           0       15.577166    1.768680    5.165699
    117          6           0       15.870368    3.980156    2.451755
    118          8           0       15.915513    5.006850    3.128211
    119          6           0       15.694728    4.175011    0.884086
    120          6           0       16.742041    5.148290    0.416772
    121          8           0       17.948971    4.853930    0.474212
    122          8           0       16.141112    6.170996   -0.218295
    123          6           0       17.139588    7.157433   -0.710048
    124          1           0       14.587872   -0.405430   -4.211342
    125          1           0       15.701238   -5.047370   -0.183407
    126          1           0       15.722422   -0.971420    4.593715
    127          1           0       14.732379    4.054463   -2.098837
    128          1           0       14.902263    2.165069   -4.181721
    129          1           0       12.771013    2.790119   -2.179912
    130          1           0       12.781960    1.110139   -2.755974
    131          1           0       12.595153    2.379636   -3.927784
    132          1           0       17.101918    2.765035   -3.473055
    133          1           0       17.418099    3.884341   -2.097410
    134          1           0       15.659805    5.193819   -3.914335
    135          1           0       16.681885    4.219381   -4.909677
    136          1           0       15.219952   -1.949492   -5.498619
    137          1           0       14.877292   -3.643102   -5.382617
    138          1           0       16.575201   -3.152028   -5.589315
    139          1           0       15.807647   -5.618989   -4.929100
    140          1           0       17.020088   -6.862169   -4.272435
    141          1           0       17.491907   -5.193830   -4.705398
    142          1           0       16.242249   -5.191497    2.303802
    143          1           0       14.746250   -3.448641    4.196216
    144          1           0       14.307441   -6.341952    2.553004
    145          1           0       13.491691   -5.015182    1.652868
    146          1           0       13.543186   -4.964398    3.341182
    147          1           0       16.714304   -4.888049    4.849423
    148          1           0       16.760526   -3.246465    5.464265
    149          1           0       18.254195   -4.608251    3.343740
    150          1           0       18.909024   -3.525629    4.625908
    151          1           0       18.093591   -2.861029    3.140077
    152          1           0       16.270284    2.539519    5.475360
    153          1           0       15.752446    0.837318    5.700127
    154          1           0       14.526783    2.070016    5.199678
    155          1           0       14.684074    4.546940    0.711404
    156          1           0       16.858276    8.130468   -0.295627
    157          1           0       17.138292    7.059830   -1.811971
    158          1           0       18.157741    7.061215   -0.351507
 ---------------------------------------------------------------------
 Rotational constants (GHZ):           0.0202607           0.0016486           0.0016112
 Leave Link  202 at Sat Sep  4 19:45:54 2021, MaxMem= 23488102400 cpu:               0.3 elap:               0.0
 (Enter /sw/apps/gaussian-16.0/g16/l301.exe)
 Standard basis: def2SVP (5D, 7F)
 Ernie: Thresh=  0.10000D-02 Tol=  0.10000D-05 Strict=F.
 There are  1658 symmetry adapted cartesian basis functions of A   symmetry.
 There are  1572 symmetry adapted basis functions of A   symmetry.
  1572 basis functions,  2678 primitive gaussians,  1658 cartesian basis functions
   312 alpha electrons      312 beta electrons
       nuclear repulsion energy     12306.8805497874 Hartrees.
 IExCor=20419 DFT=T Ex+Corr=CAM-B3LYP ExCW=0 ScaHFX=  1.000000
 ScaDFX=  1.000000  1.000000  1.000000  0.810000 ScalE2=  1.000000  1.000000
 IRadAn=      5 IRanWt=     -1 IRanGd=            0 ICorTp=0 IEmpDi=  4
 HFx  wShort=  0.000000 wLong=  0.330000 cFull=  0.190000 cShort=  0.000000 cLong=  0.460000
 DFx  wShort=  0.000000 wLong=  0.330000 cFull=  0.190000 cShort=  0.000000 cLong=  0.460000
 NAtoms=  158 NActive=  158 NUniq=  158 SFac= 1.00D+00 NAtFMM=   60 NAOKFM=T Big=T
 Integral buffers will be    131072 words long.
 Raffenetti 1 integral format.
 Two-electron integral symmetry is turned on.
 Leave Link  301 at Sat Sep  4 19:45:54 2021, MaxMem= 23488102400 cpu:               1.3 elap:               0.1
 (Enter /sw/apps/gaussian-16.0/g16/l302.exe)
 NPDir=0 NMtPBC=     1 NCelOv=     1 NCel=       1 NClECP=     1 NCelD=      1
         NCelK=      1 NCelE2=     1 NClLst=     1 CellRange=     0.0.
 One-electron integrals computed using PRISM.
 One-electron integral symmetry used in STVInt
   1 Symmetry operations used in ECPInt.
 ECPInt:  NShTT=  271216 NPrTT=  987664 LenC2=  103957 LenP2D=  239866.
 LDataN:  DoStor=T MaxTD1= 4 Len=   56
 NBasis=  1572 RedAO= T EigKep=  3.36D-04  NBF=  1572
 NBsUse=  1572 1.00D-06 EigRej= -1.00D+00 NBFU=  1572
 Precomputing XC quadrature grid using
 IXCGrd= 4 IRadAn=           5 IRanWt=          -1 IRanGd=           0 AccXCQ= 0.00D+00.
 Generated NRdTot=       0 NPtTot=           0 NUsed=           0 NTot=          32
 NSgBfM=   812   812   812   812   812 MxSgAt=   158 MxSgA2=    79.
 Leave Link  302 at Sat Sep  4 19:45:58 2021, MaxMem= 23488102400 cpu:              95.5 elap:               4.0
 (Enter /sw/apps/gaussian-16.0/g16/l303.exe)
 DipDrv:  MaxL=1.
 Leave Link  303 at Sat Sep  4 19:45:59 2021, MaxMem= 23488102400 cpu:               8.3 elap:               0.4
 (Enter /sw/apps/gaussian-16.0/g16/l308.exe)
 Leave Link  308 at Sat Sep  4 19:45:59 2021, MaxMem= 23488102400 cpu:              12.2 elap:               0.6
 (Enter /sw/apps/gaussian-16.0/g16/l401.exe)
 ExpMin= 3.36D-02 ExpMax= 4.95D+03 ExpMxC= 7.45D+02 IAcc=3 IRadAn=         5 AccDes= 0.00D+00
 Harris functional with IExCor=20419 and IRadAn=       5 diagonalized for initial guess.
 HarFok:  IExCor=20419 AccDes= 0.00D+00 IRadAn=         5 IDoV= 1 UseB2=F ITyADJ=14
 ICtDFT=  3500011 ScaDFX=  1.000000  1.000000  1.000000  1.000000
 FoFCou: FMM=F IPFlag=           0 FMFlag=      100000 FMFlg1=        2001
         NFxFlg=           0 DoJE=T BraDBF=F KetDBF=T FulRan=T
         wScrn=  0.000000 ICntrl=       500 IOpCl=  0 I1Cent=   200000004 NGrid=           0
         NMat0=    1 NMatS0=      1 NMatT0=    0 NMatD0=    1 NMtDS0=    0 NMtDT0=    0
 Petite list used in FoFCou.
 Harris En= -3918.65801591898    
 JPrj=0 DoOrth=F DoCkMO=F.
 Leave Link  401 at Sat Sep  4 19:46:06 2021, MaxMem= 23488102400 cpu:             152.6 elap:               6.4
 (Enter /sw/apps/gaussian-16.0/g16/l502.exe)
 Integral symmetry usage will be decided dynamically.
 Closed shell SCF:
 Using DIIS extrapolation, IDIIS=  1040.
 NGot= 23488102400 LenX= 23482547354 LenY= 23479796732
 Requested convergence on RMS density matrix=1.00D-08 within 128 cycles.
 Requested convergence on MAX density matrix=1.00D-06.
 Requested convergence on             energy=1.00D-06.
 No special actions if energy rises.
 Fock matrices will be formed incrementally for  20 cycles.

 Cycle   1  Pass 1  IDiag  1:
 FoFJK:  IHMeth= 1 ICntrl=       0 DoSepK=T KAlg= 0 I1Cent=           0 FoldK=F
 IRaf=         1 NMat=       1 IRICut=       1 DoRegI=T DoRafI=F ISym2E= 0 IDoP0=0 IntGTp=1.
 FoFCou: FMM=T IPFlag=           0 FMFlag=      100000 FMFlg1=        2001
         NFxFlg=           0 DoJE=T BraDBF=F KetDBF=F FulRan=T
         wScrn=  0.000000 ICntrl=       500 IOpCl=  0 I1Cent=           0 NGrid=           0
         NMat0=    1 NMatS0=      1 NMatT0=    0 NMatD0=    1 NMtDS0=    0 NMtDT0=    0
 Symmetry not used in FoFCou.
 FMM levels:  10  Number of levels for PrismC:   9
 E= -4068.94926359456    
 DIIS: error= 2.04D-02 at cycle   1 NSaved=   1.
 NSaved= 1 IEnMin= 1 EnMin= -4068.94926359456     IErMin= 1 ErrMin= 2.04D-02
 ErrMax= 2.04D-02  0.00D+00 EMaxC= 1.00D-01 BMatC= 1.69D+00 BMatP= 1.69D+00
 IDIUse=3 WtCom= 7.96D-01 WtEn= 2.04D-01
 Coeff-Com:  0.100D+01
 Coeff-En:   0.100D+01
 Coeff:      0.100D+01
 Gap=     0.120 Goal=   None    Shift=    0.000
 GapD=    0.120 DampG=1.000 DampE=0.500 DampFc=0.5000 IDamp=-1.
 Damping current iteration by 5.00D-01
 RMSDP=1.57D-03 MaxDP=1.35D-01              OVMax= 2.03D-01

 Cycle   2  Pass 1  IDiag  1:
 RMSU=  7.69D-04    CP:  9.82D-01
 E= -4069.33817312803     Delta-E=       -0.388909533469 Rises=F Damp=T
 DIIS: error= 1.27D-02 at cycle   2 NSaved=   2.
 NSaved= 2 IEnMin= 2 EnMin= -4069.33817312803     IErMin= 2 ErrMin= 1.27D-02
 ErrMax= 1.27D-02  0.00D+00 EMaxC= 1.00D-01 BMatC= 3.07D-01 BMatP= 1.69D+00
 IDIUse=3 WtCom= 8.73D-01 WtEn= 1.27D-01
 Coeff-Com: -0.213D+00 0.121D+01
 Coeff-En:   0.000D+00 0.100D+01
 Coeff:     -0.186D+00 0.119D+01
 Gap=     0.138 Goal=   None    Shift=    0.000
 RMSDP=7.65D-04 MaxDP=9.43D-02 DE=-3.89D-01 OVMax= 1.88D-01

 Cycle   3  Pass 1  IDiag  1:
 RMSU=  7.32D-04    CP:  9.68D-01  1.24D+00
 E= -4069.62790875169     Delta-E=       -0.289735623659 Rises=F Damp=F
 DIIS: error= 1.58D-02 at cycle   3 NSaved=   3.
 NSaved= 3 IEnMin= 3 EnMin= -4069.62790875169     IErMin= 2 ErrMin= 1.27D-02
 ErrMax= 1.58D-02  0.00D+00 EMaxC= 1.00D-01 BMatC= 2.02D-01 BMatP= 3.07D-01
 IDIUse=3 WtCom= 8.42D-01 WtEn= 1.58D-01
 Coeff-Com: -0.267D+00 0.652D+00 0.616D+00
 Coeff-En:   0.000D+00 0.000D+00 0.100D+01
 Coeff:     -0.225D+00 0.549D+00 0.676D+00
 Gap=     0.125 Goal=   None    Shift=    0.000
 RMSDP=5.08D-04 MaxDP=4.85D-02 DE=-2.90D-01 OVMax= 1.43D-01

 Cycle   4  Pass 1  IDiag  1:
 RMSU=  2.65D-04    CP:  9.65D-01  1.55D+00  5.06D-01
 E= -4069.76504670998     Delta-E=       -0.137137958292 Rises=F Damp=F
 DIIS: error= 7.31D-03 at cycle   4 NSaved=   4.
 NSaved= 4 IEnMin= 4 EnMin= -4069.76504670998     IErMin= 4 ErrMin= 7.31D-03
 ErrMax= 7.31D-03  0.00D+00 EMaxC= 1.00D-01 BMatC= 5.04D-02 BMatP= 2.02D-01
 IDIUse=3 WtCom= 9.27D-01 WtEn= 7.31D-02
 Coeff-Com: -0.109D+00 0.226D+00 0.409D+00 0.474D+00
 Coeff-En:   0.000D+00 0.000D+00 0.221D+00 0.779D+00
 Coeff:     -0.101D+00 0.209D+00 0.395D+00 0.497D+00
 Gap=     0.123 Goal=   None    Shift=    0.000
 RMSDP=2.00D-04 MaxDP=1.98D-02 DE=-1.37D-01 OVMax= 6.18D-02

 Cycle   5  Pass 1  IDiag  1:
 RMSU=  7.58D-05    CP:  9.64D-01  1.49D+00  6.89D-01  5.49D-01
 E= -4069.81053059455     Delta-E=       -0.045483884569 Rises=F Damp=F
 DIIS: error= 7.86D-04 at cycle   5 NSaved=   5.
 NSaved= 5 IEnMin= 5 EnMin= -4069.81053059455     IErMin= 5 ErrMin= 7.86D-04
 ErrMax= 7.86D-04  0.00D+00 EMaxC= 1.00D-01 BMatC= 1.17D-03 BMatP= 5.04D-02
 IDIUse=3 WtCom= 9.92D-01 WtEn= 7.86D-03
 Coeff-Com: -0.358D-01 0.702D-01 0.165D+00 0.249D+00 0.551D+00
 Coeff-En:   0.000D+00 0.000D+00 0.000D+00 0.000D+00 0.100D+01
 Coeff:     -0.355D-01 0.697D-01 0.164D+00 0.247D+00 0.555D+00
 Gap=     0.123 Goal=   None    Shift=    0.000
 RMSDP=4.08D-05 MaxDP=4.16D-03 DE=-4.55D-02 OVMax= 1.64D-02

 Cycle   6  Pass 1  IDiag  1:
 RMSU=  3.02D-05    CP:  9.64D-01  1.49D+00  6.81D-01  6.21D-01  7.59D-01
 E= -4069.81153946022     Delta-E=       -0.001008865671 Rises=F Damp=F
 DIIS: error= 2.18D-04 at cycle   6 NSaved=   6.
 NSaved= 6 IEnMin= 6 EnMin= -4069.81153946022     IErMin= 6 ErrMin= 2.18D-04
 ErrMax= 2.18D-04  0.00D+00 EMaxC= 1.00D-01 BMatC= 1.76D-04 BMatP= 1.17D-03
 IDIUse=3 WtCom= 9.98D-01 WtEn= 2.18D-03
 Coeff-Com:  0.231D-02-0.677D-02 0.109D-01 0.398D-01 0.306D+00 0.648D+00
 Coeff-En:   0.000D+00 0.000D+00 0.000D+00 0.000D+00 0.103D+00 0.897D+00
 Coeff:      0.230D-02-0.675D-02 0.109D-01 0.397D-01 0.306D+00 0.648D+00
 Gap=     0.123 Goal=   None    Shift=    0.000
 RMSDP=1.58D-05 MaxDP=1.23D-03 DE=-1.01D-03 OVMax= 7.24D-03

 Cycle   7  Pass 1  IDiag  1:
 RMSU=  1.07D-05    CP:  9.64D-01  1.50D+00  6.87D-01  6.21D-01  8.59D-01
                    CP:  7.49D-01
 E= -4069.81172855029     Delta-E=       -0.000189090069 Rises=F Damp=F
 DIIS: error= 8.34D-05 at cycle   7 NSaved=   7.
 NSaved= 7 IEnMin= 7 EnMin= -4069.81172855029     IErMin= 7 ErrMin= 8.34D-05
 ErrMax= 8.34D-05  0.00D+00 EMaxC= 1.00D-01 BMatC= 2.08D-05 BMatP= 1.76D-04
 IDIUse=1 WtCom= 1.00D+00 WtEn= 0.00D+00
 Coeff-Com:  0.446D-02-0.974D-02-0.898D-02-0.381D-02 0.102D+00 0.329D+00
 Coeff-Com:  0.587D+00
 Coeff:      0.446D-02-0.974D-02-0.898D-02-0.381D-02 0.102D+00 0.329D+00
 Coeff:      0.587D+00
 Gap=     0.123 Goal=   None    Shift=    0.000
 RMSDP=6.50D-06 MaxDP=1.11D-03 DE=-1.89D-04 OVMax= 3.40D-03

 Cycle   8  Pass 1  IDiag  1:
 RMSU=  4.67D-06    CP:  9.64D-01  1.50D+00  6.88D-01  6.26D-01  8.64D-01
                    CP:  8.75D-01  8.23D-01
 E= -4069.81175432946     Delta-E=       -0.000025779171 Rises=F Damp=F
 DIIS: error= 5.01D-05 at cycle   8 NSaved=   8.
 NSaved= 8 IEnMin= 8 EnMin= -4069.81175432946     IErMin= 8 ErrMin= 5.01D-05
 ErrMax= 5.01D-05  0.00D+00 EMaxC= 1.00D-01 BMatC= 4.82D-06 BMatP= 2.08D-05
 IDIUse=1 WtCom= 1.00D+00 WtEn= 0.00D+00
 Coeff-Com:  0.215D-02-0.426D-02-0.775D-02-0.121D-01-0.116D-01 0.335D-01
 Coeff-Com:  0.344D+00 0.656D+00
 Coeff:      0.215D-02-0.426D-02-0.775D-02-0.121D-01-0.116D-01 0.335D-01
 Coeff:      0.344D+00 0.656D+00
 Gap=     0.123 Goal=   None    Shift=    0.000
 RMSDP=3.27D-06 MaxDP=3.54D-04 DE=-2.58D-05 OVMax= 1.11D-03

 Cycle   9  Pass 1  IDiag  1:
 RMSU=  1.91D-06    CP:  9.64D-01  1.50D+00  6.88D-01  6.27D-01  8.81D-01
                    CP:  9.01D-01  1.02D+00  9.40D-01
 E= -4069.81176203072     Delta-E=       -0.000007701261 Rises=F Damp=F
 DIIS: error= 1.94D-05 at cycle   9 NSaved=   9.
 NSaved= 9 IEnMin= 9 EnMin= -4069.81176203072     IErMin= 9 ErrMin= 1.94D-05
 ErrMax= 1.94D-05  0.00D+00 EMaxC= 1.00D-01 BMatC= 6.87D-07 BMatP= 4.82D-06
 IDIUse=1 WtCom= 1.00D+00 WtEn= 0.00D+00
 Coeff-Com:  0.463D-03-0.767D-03-0.266D-02-0.598D-02-0.212D-01-0.386D-01
 Coeff-Com:  0.104D+00 0.326D+00 0.639D+00
 Coeff:      0.463D-03-0.767D-03-0.266D-02-0.598D-02-0.212D-01-0.386D-01
 Coeff:      0.104D+00 0.326D+00 0.639D+00
 Gap=     0.123 Goal=   None    Shift=    0.000
 RMSDP=1.41D-06 MaxDP=1.49D-04 DE=-7.70D-06 OVMax= 7.44D-04

 Cycle  10  Pass 1  IDiag  1:
 RMSU=  9.37D-07    CP:  9.64D-01  1.50D+00  6.88D-01  6.28D-01  8.84D-01
                    CP:  9.15D-01  1.07D+00  1.11D+00  1.05D+00
 E= -4069.81176361636     Delta-E=       -0.000001585642 Rises=F Damp=F
 DIIS: error= 1.02D-05 at cycle  10 NSaved=  10.
 NSaved=10 IEnMin=10 EnMin= -4069.81176361636     IErMin=10 ErrMin= 1.02D-05
 ErrMax= 1.02D-05  0.00D+00 EMaxC= 1.00D-01 BMatC= 1.71D-07 BMatP= 6.87D-07
 IDIUse=1 WtCom= 1.00D+00 WtEn= 0.00D+00
 Coeff-Com: -0.427D-03 0.894D-03 0.123D-02 0.112D-02-0.376D-02-0.310D-01
 Coeff-Com: -0.464D-01-0.765D-01 0.255D+00 0.900D+00
 Coeff:     -0.427D-03 0.894D-03 0.123D-02 0.112D-02-0.376D-02-0.310D-01
 Coeff:     -0.464D-01-0.765D-01 0.255D+00 0.900D+00
 Gap=     0.123 Goal=   None    Shift=    0.000
 RMSDP=1.22D-06 MaxDP=1.24D-04 DE=-1.59D-06 OVMax= 6.09D-04

 Cycle  11  Pass 1  IDiag  1:
 RMSU=  5.15D-07    CP:  9.64D-01  1.50D+00  6.88D-01  6.28D-01  8.86D-01
                    CP:  9.25D-01  1.11D+00  1.22D+00  1.39D+00  1.37D+00
 E= -4069.81176440337     Delta-E=       -0.000000787008 Rises=F Damp=F
 DIIS: error= 3.96D-06 at cycle  11 NSaved=  11.
 NSaved=11 IEnMin=11 EnMin= -4069.81176440337     IErMin=11 ErrMin= 3.96D-06
 ErrMax= 3.96D-06  0.00D+00 EMaxC= 1.00D-01 BMatC= 6.12D-08 BMatP= 1.71D-07
 IDIUse=1 WtCom= 1.00D+00 WtEn= 0.00D+00
 Coeff-Com: -0.327D-03 0.636D-03 0.133D-02 0.212D-02 0.441D-02-0.836D-02
 Coeff-Com: -0.435D-01-0.132D+00-0.235D-01 0.465D+00 0.734D+00
 Coeff:     -0.327D-03 0.636D-03 0.133D-02 0.212D-02 0.441D-02-0.836D-02
 Coeff:     -0.435D-01-0.132D+00-0.235D-01 0.465D+00 0.734D+00
 Gap=     0.123 Goal=   None    Shift=    0.000
 RMSDP=6.86D-07 MaxDP=5.84D-05 DE=-7.87D-07 OVMax= 3.72D-04

 Cycle  12  Pass 1  IDiag  1:
 RMSU=  2.63D-07    CP:  9.64D-01  1.50D+00  6.88D-01  6.28D-01  8.87D-01
                    CP:  9.27D-01  1.14D+00  1.28D+00  1.56D+00  1.76D+00
                    CP:  1.20D+00
 E= -4069.81176466610     Delta-E=       -0.000000262733 Rises=F Damp=F
 DIIS: error= 2.35D-06 at cycle  12 NSaved=  12.
 NSaved=12 IEnMin=12 EnMin= -4069.81176466610     IErMin=12 ErrMin= 2.35D-06
 ErrMax= 2.35D-06  0.00D+00 EMaxC= 1.00D-01 BMatC= 1.48D-08 BMatP= 6.12D-08
 IDIUse=1 WtCom= 1.00D+00 WtEn= 0.00D+00
 Coeff-Com: -0.708D-09-0.166D-04 0.179D-03 0.511D-03 0.330D-02 0.405D-02
 Coeff-Com:  0.281D-02-0.349D-01-0.680D-01-0.752D-01 0.251D+00 0.917D+00
 Coeff:     -0.708D-09-0.166D-04 0.179D-03 0.511D-03 0.330D-02 0.405D-02
 Coeff:      0.281D-02-0.349D-01-0.680D-01-0.752D-01 0.251D+00 0.917D+00
 Gap=     0.123 Goal=   None    Shift=    0.000
 RMSDP=4.38D-07 MaxDP=3.10D-05 DE=-2.63D-07 OVMax= 2.49D-04

 Cycle  13  Pass 1  IDiag  1:
 RMSU=  1.65D-07    CP:  9.64D-01  1.50D+00  6.88D-01  6.28D-01  8.87D-01
                    CP:  9.28D-01  1.14D+00  1.31D+00  1.67D+00  1.99D+00
                    CP:  1.61D+00  1.27D+00
 E= -4069.81176475817     Delta-E=       -0.000000092072 Rises=F Damp=F
 DIIS: error= 1.24D-06 at cycle  13 NSaved=  13.
 NSaved=13 IEnMin=13 EnMin= -4069.81176475817     IErMin=13 ErrMin= 1.24D-06
 ErrMax= 1.24D-06  0.00D+00 EMaxC= 1.00D-01 BMatC= 8.14D-09 BMatP= 1.48D-08
 IDIUse=1 WtCom= 1.00D+00 WtEn= 0.00D+00
 Coeff-Com:  0.120D-03-0.245D-03-0.370D-03-0.457D-03 0.574D-03 0.508D-02
 Coeff-Com:  0.197D-01 0.228D-01-0.340D-01-0.241D+00-0.156D+00 0.598D+00
 Coeff-Com:  0.786D+00
 Coeff:      0.120D-03-0.245D-03-0.370D-03-0.457D-03 0.574D-03 0.508D-02
 Coeff:      0.197D-01 0.228D-01-0.340D-01-0.241D+00-0.156D+00 0.598D+00
 Coeff:      0.786D+00
 Gap=     0.123 Goal=   None    Shift=    0.000
 RMSDP=3.40D-07 MaxDP=2.28D-05 DE=-9.21D-08 OVMax= 1.97D-04

 Cycle  14  Pass 1  IDiag  1:
 RMSU=  7.61D-08    CP:  9.64D-01  1.50D+00  6.88D-01  6.28D-01  8.88D-01
                    CP:  9.28D-01  1.15D+00  1.33D+00  1.74D+00  2.18D+00
                    CP:  1.88D+00  1.79D+00  1.09D+00
 E= -4069.81176479393     Delta-E=       -0.000000035752 Rises=F Damp=F
 DIIS: error= 6.37D-07 at cycle  14 NSaved=  14.
 NSaved=14 IEnMin=14 EnMin= -4069.81176479393     IErMin=14 ErrMin= 6.37D-07
 ErrMax= 6.37D-07  0.00D+00 EMaxC= 1.00D-01 BMatC= 1.25D-09 BMatP= 8.14D-09
 IDIUse=1 WtCom= 1.00D+00 WtEn= 0.00D+00
 Coeff-Com:  0.663D-04-0.131D-03-0.246D-03-0.387D-03-0.483D-03 0.129D-02
 Coeff-Com:  0.107D-01 0.192D-01 0.369D-02-0.996D-01-0.142D+00 0.933D-01
 Coeff-Com:  0.405D+00 0.710D+00
 Coeff:      0.663D-04-0.131D-03-0.246D-03-0.387D-03-0.483D-03 0.129D-02
 Coeff:      0.107D-01 0.192D-01 0.369D-02-0.996D-01-0.142D+00 0.933D-01
 Coeff:      0.405D+00 0.710D+00
 Gap=     0.123 Goal=   None    Shift=    0.000
 RMSDP=1.01D-07 MaxDP=6.66D-06 DE=-3.58D-08 OVMax= 5.43D-05

 Cycle  15  Pass 1  IDiag  1:
 RMSU=  3.83D-08    CP:  9.64D-01  1.50D+00  6.88D-01  6.28D-01  8.87D-01
                    CP:  9.28D-01  1.15D+00  1.34D+00  1.76D+00  2.22D+00
                    CP:  1.98D+00  1.92D+00  1.33D+00  1.03D+00
 E= -4069.81176479821     Delta-E=       -0.000000004286 Rises=F Damp=F
 DIIS: error= 3.38D-07 at cycle  15 NSaved=  15.
 NSaved=15 IEnMin=15 EnMin= -4069.81176479821     IErMin=15 ErrMin= 3.38D-07
 ErrMax= 3.38D-07  0.00D+00 EMaxC= 1.00D-01 BMatC= 2.25D-10 BMatP= 1.25D-09
 IDIUse=1 WtCom= 1.00D+00 WtEn= 0.00D+00
 Coeff-Com:  0.518D-05-0.858D-05-0.320D-04-0.809D-04-0.299D-03-0.516D-03
 Coeff-Com:  0.112D-02 0.250D-02 0.875D-02 0.186D-02-0.306D-01-0.731D-01
 Coeff-Com:  0.289D-01 0.296D+00 0.765D+00
 Coeff:      0.518D-05-0.858D-05-0.320D-04-0.809D-04-0.299D-03-0.516D-03
 Coeff:      0.112D-02 0.250D-02 0.875D-02 0.186D-02-0.306D-01-0.731D-01
 Coeff:      0.289D-01 0.296D+00 0.765D+00
 Gap=     0.123 Goal=   None    Shift=    0.000
 RMSDP=4.06D-08 MaxDP=2.70D-06 DE=-4.29D-09 OVMax= 2.69D-05

 Cycle  16  Pass 1  IDiag  1:
 RMSU=  1.87D-08    CP:  9.64D-01  1.50D+00  6.88D-01  6.28D-01  8.88D-01
                    CP:  9.28D-01  1.15D+00  1.34D+00  1.76D+00  2.24D+00
                    CP:  2.01D+00  1.98D+00  1.40D+00  1.24D+00  1.15D+00
 E= -4069.81176479872     Delta-E=       -0.000000000511 Rises=F Damp=F
 DIIS: error= 1.64D-07 at cycle  16 NSaved=  16.
 NSaved=16 IEnMin=16 EnMin= -4069.81176479872     IErMin=16 ErrMin= 1.64D-07
 ErrMax= 1.64D-07  0.00D+00 EMaxC= 1.00D-01 BMatC= 8.17D-11 BMatP= 2.25D-10
 IDIUse=1 WtCom= 1.00D+00 WtEn= 0.00D+00
 Coeff-Com: -0.142D-04 0.288D-04 0.470D-04 0.538D-04-0.268D-04-0.633D-03
 Coeff-Com: -0.198D-02-0.426D-02 0.453D-02 0.256D-01 0.207D-01-0.646D-01
 Coeff-Com: -0.831D-01-0.378D-01 0.398D+00 0.743D+00
 Coeff:     -0.142D-04 0.288D-04 0.470D-04 0.538D-04-0.268D-04-0.633D-03
 Coeff:     -0.198D-02-0.426D-02 0.453D-02 0.256D-01 0.207D-01-0.646D-01
 Coeff:     -0.831D-01-0.378D-01 0.398D+00 0.743D+00
 Gap=     0.123 Goal=   None    Shift=    0.000
 RMSDP=2.29D-08 MaxDP=1.59D-06 DE=-5.11D-10 OVMax= 1.30D-05

 Cycle  17  Pass 1  IDiag  1:
 RMSU=  1.04D-08    CP:  9.64D-01  1.50D+00  6.88D-01  6.28D-01  8.88D-01
                    CP:  9.28D-01  1.15D+00  1.34D+00  1.77D+00  2.24D+00
                    CP:  2.02D+00  2.01D+00  1.45D+00  1.34D+00  1.44D+00
                    CP:  1.25D+00
 E= -4069.81176479887     Delta-E=       -0.000000000149 Rises=F Damp=F
 DIIS: error= 9.35D-08 at cycle  17 NSaved=  17.
 NSaved=17 IEnMin=17 EnMin= -4069.81176479887     IErMin=17 ErrMin= 9.35D-08
 ErrMax= 9.35D-08  0.00D+00 EMaxC= 1.00D-01 BMatC= 1.77D-11 BMatP= 8.17D-11
 IDIUse=1 WtCom= 1.00D+00 WtEn= 0.00D+00
 Coeff-Com: -0.717D-05 0.140D-04 0.285D-04 0.424D-04 0.840D-04-0.122D-03
 Coeff-Com: -0.958D-03-0.279D-02 0.134D-03 0.918D-02 0.174D-01-0.718D-02
 Coeff-Com: -0.366D-01-0.102D+00-0.314D-01 0.293D+00 0.861D+00
 Coeff:     -0.717D-05 0.140D-04 0.285D-04 0.424D-04 0.840D-04-0.122D-03
 Coeff:     -0.958D-03-0.279D-02 0.134D-03 0.918D-02 0.174D-01-0.718D-02
 Coeff:     -0.366D-01-0.102D+00-0.314D-01 0.293D+00 0.861D+00
 Gap=     0.123 Goal=   None    Shift=    0.000
 RMSDP=1.37D-08 MaxDP=1.07D-06 DE=-1.49D-10 OVMax= 8.93D-06

 Cycle  18  Pass 1  IDiag  1:
 RMSU=  4.87D-09    CP:  9.64D-01  1.50D+00  6.88D-01  6.28D-01  8.87D-01
                    CP:  9.28D-01  1.15D+00  1.34D+00  1.77D+00  2.24D+00
                    CP:  2.02D+00  2.02D+00  1.47D+00  1.41D+00  1.61D+00
                    CP:  1.66D+00  1.39D+00
 E= -4069.81176479919     Delta-E=       -0.000000000320 Rises=F Damp=F
 DIIS: error= 5.14D-08 at cycle  18 NSaved=  18.
 NSaved=18 IEnMin=18 EnMin= -4069.81176479919     IErMin=18 ErrMin= 5.14D-08
 ErrMax= 5.14D-08  0.00D+00 EMaxC= 1.00D-01 BMatC= 6.92D-12 BMatP= 1.77D-11
 IDIUse=1 WtCom= 1.00D+00 WtEn= 0.00D+00
 Coeff-Com:  0.207D-05-0.445D-05-0.465D-05-0.181D-05 0.591D-04 0.184D-03
 Coeff-Com:  0.407D-03 0.233D-03-0.129D-02-0.622D-02-0.162D-03 0.202D-01
 Coeff-Com:  0.186D-01-0.324D-01-0.163D+00-0.193D+00 0.349D+00 0.101D+01
 Coeff:      0.207D-05-0.445D-05-0.465D-05-0.181D-05 0.591D-04 0.184D-03
 Coeff:      0.407D-03 0.233D-03-0.129D-02-0.622D-02-0.162D-03 0.202D-01
 Coeff:      0.186D-01-0.324D-01-0.163D+00-0.193D+00 0.349D+00 0.101D+01
 Gap=     0.123 Goal=   None    Shift=    0.000
 RMSDP=1.18D-08 MaxDP=8.04D-07 DE=-3.20D-10 OVMax= 6.80D-06

 Cycle  19  Pass 1  IDiag  1:
 RMSU=  2.79D-09    CP:  9.64D-01  1.50D+00  6.88D-01  6.28D-01  8.87D-01
                    CP:  9.28D-01  1.15D+00  1.34D+00  1.77D+00  2.24D+00
                    CP:  2.03D+00  2.02D+00  1.48D+00  1.46D+00  1.77D+00
                    CP:  1.99D+00  1.94D+00  1.38D+00
 E= -4069.81176479939     Delta-E=       -0.000000000195 Rises=F Damp=F
 DIIS: error= 3.32D-08 at cycle  19 NSaved=  19.
 NSaved=19 IEnMin=19 EnMin= -4069.81176479939     IErMin=19 ErrMin= 3.32D-08
 ErrMax= 3.32D-08  0.00D+00 EMaxC= 1.00D-01 BMatC= 1.40D-12 BMatP= 6.92D-12
 IDIUse=1 WtCom= 1.00D+00 WtEn= 0.00D+00
 Coeff-Com:  0.286D-05-0.577D-05-0.980D-05-0.123D-04 0.107D-04 0.118D-03
 Coeff-Com:  0.471D-03 0.788D-03-0.587D-03-0.589D-02-0.478D-02 0.119D-01
 Coeff-Com:  0.199D-01 0.114D-01-0.677D-01-0.176D+00-0.333D-01 0.486D+00
 Coeff-Com:  0.757D+00
 Coeff:      0.286D-05-0.577D-05-0.980D-05-0.123D-04 0.107D-04 0.118D-03
 Coeff:      0.471D-03 0.788D-03-0.587D-03-0.589D-02-0.478D-02 0.119D-01
 Coeff:      0.199D-01 0.114D-01-0.677D-01-0.176D+00-0.333D-01 0.486D+00
 Coeff:      0.757D+00
 Gap=     0.123 Goal=   None    Shift=    0.000
 RMSDP=4.48D-09 MaxDP=3.24D-07 DE=-1.95D-10 OVMax= 2.93D-06

 SCF Done:  E(RCAM-B3LYP) =  -4069.81176480     A.U. after   19 cycles
            NFock= 19  Conv=0.45D-08     -V/T= 2.0102
 KE= 4.028802041545D+03 PE=-3.409458989778D+04 EE= 1.368909554165D+04
 Leave Link  502 at Sat Sep  4 19:54:17 2021, MaxMem= 23488102400 cpu:           11215.9 elap:             490.9
 (Enter /sw/apps/gaussian-16.0/g16/l801.exe)
 DoSCS=F DFT=T ScalE2(SS,OS)=  1.000000  1.000000
 ExpMin= 3.36D-02 ExpMax= 4.95D+03 ExpMxC= 7.45D+02 IAcc=3 IRadAn=         5 AccDes= 0.00D+00
 HarFok:  IExCor=  205 AccDes= 0.00D+00 IRadAn=         5 IDoV=-2 UseB2=F ITyADJ=14
 ICtDFT= 12500011 ScaDFX=  1.000000  1.000000  1.000000  1.000000
 GSVD:  LWork=       -9588 too small for GESVD, short by       45590 words or       45590 for optimal perf.
 Largest valence mixing into a core orbital is  2.03D-04
 Largest core mixing into a valence orbital is  5.24D-05
 Range of M.O.s used for correlation:    95  1572
 NBasis=  1572 NAE=   312 NBE=   312 NFC=    94 NFV=     0
 NROrb=   1478 NOA=   218 NOB=   218 NVA=  1260 NVB=  1260
 Leave Link  801 at Sat Sep  4 19:54:17 2021, MaxMem= 23488102400 cpu:               7.6 elap:               0.3
 (Enter /sw/apps/gaussian-16.0/g16/l914.exe)
 RHF ground state
 Two-electron integrals replicated using symmetry.
 MDV= 23488102400 DFT=T DoStab=F Mixed=T DoRPA=T DoScal=F NonHer=T
 Making orbital integer symmetry assigments:
 Orbital symmetries:
       Occupied  (A) (A) (A) (A) (A) (A) (A) (A) (A) (A) (A) (A)
                 (A) (A) (A) (A) (A) (A) (A) (A) (A) (A) (A) (A)
                 (A) (A) (A) (A) (A) (A) (A) (A) (A) (A) (A) (A)
                 (A) (A) (A) (A) (A) (A) (A) (A) (A) (A) (A) (A)
                 (A) (A) (A) (A) (A) (A) (A) (A) (A) (A) (A) (A)
                 (A) (A) (A) (A) (A) (A) (A) (A) (A) (A) (A) (A)
                 (A) (A) (A) (A) (A) (A) (A) (A) (A) (A) (A) (A)
                 (A) (A) (A) (A) (A) (A) (A) (A) (A) (A) (A) (A)
                 (A) (A) (A) (A) (A) (A) (A) (A) (A) (A) (A) (A)
                 (A) (A) (A) (A) (A) (A) (A) (A) (A) (A) (A) (A)
                 (A) (A) (A) (A) (A) (A) (A) (A) (A) (A) (A) (A)
                 (A) (A) (A) (A) (A) (A) (A) (A) (A) (A) (A) (A)
                 (A) (A) (A) (A) (A) (A) (A) (A) (A) (A) (A) (A)
                 (A) (A) (A) (A) (A) (A) (A) (A) (A) (A) (A) (A)
                 (A) (A) (A) (A) (A) (A) (A) (A) (A) (A) (A) (A)
                 (A) (A) (A) (A) (A) (A) (A) (A) (A) (A) (A) (A)
                 (A) (A) (A) (A) (A) (A) (A) (A) (A) (A) (A) (A)
                 (A) (A) (A) (A) (A) (A) (A) (A) (A) (A) (A) (A)
                 (A) (A) (A) (A) (A) (A) (A) (A) (A) (A) (A) (A)
                 (A) (A) (A) (A) (A) (A) (A) (A) (A) (A) (A) (A)
                 (A) (A) (A) (A) (A) (A) (A) (A) (A) (A) (A) (A)
                 (A) (A) (A) (A) (A) (A) (A) (A) (A) (A) (A) (A)
                 (A) (A) (A) (A) (A) (A) (A) (A) (A) (A) (A) (A)
                 (A) (A) (A) (A) (A) (A) (A) (A) (A) (A) (A) (A)
                 (A) (A) (A) (A) (A) (A) (A) (A) (A) (A) (A) (A)
                 (A) (A) (A) (A) (A) (A) (A) (A) (A) (A) (A) (A)
       Virtual   (A) (A) (A) (A) (A) (A) (A) (A) (A) (A) (A) (A)
                 (A) (A) (A) (A) (A) (A) (A) (A) (A) (A) (A) (A)
                 (A) (A) (A) (A) (A) (A) (A) (A) (A) (A) (A) (A)
                 (A) (A) (A) (A) (A) (A) (A) (A) (A) (A) (A) (A)
                 (A) (A) (A) (A) (A) (A) (A) (A) (A) (A) (A) (A)
                 (A) (A) (A) (A) (A) (A) (A) (A) (A) (A) (A) (A)
                 (A) (A) (A) (A) (A) (A) (A) (A) (A) (A) (A) (A)
                 (A) (A) (A) (A) (A) (A) (A) (A) (A) (A) (A) (A)
                 (A) (A) (A) (A) (A) (A) (A) (A) (A) (A) (A) (A)
                 (A) (A) (A) (A) (A) (A) (A) (A) (A) (A) (A) (A)
                 (A) (A) (A) (A) (A) (A) (A) (A) (A) (A) (A) (A)
                 (A) (A) (A) (A) (A) (A) (A) (A) (A) (A) (A) (A)
                 (A) (A) (A) (A) (A) (A) (A) (A) (A) (A) (A) (A)
                 (A) (A) (A) (A) (A) (A) (A) (A) (A) (A) (A) (A)
                 (A) (A) (A) (A) (A) (A) (A) (A) (A) (A) (A) (A)
                 (A) (A) (A) (A) (A) (A) (A) (A) (A) (A) (A) (A)
                 (A) (A) (A) (A) (A) (A) (A) (A) (A) (A) (A) (A)
                 (A) (A) (A) (A) (A) (A) (A) (A) (A) (A) (A) (A)
                 (A) (A) (A) (A) (A) (A) (A) (A) (A) (A) (A) (A)
                 (A) (A) (A) (A) (A) (A) (A) (A) (A) (A) (A) (A)
                 (A) (A) (A) (A) (A) (A) (A) (A) (A) (A) (A) (A)
                 (A) (A) (A) (A) (A) (A) (A) (A) (A) (A) (A) (A)
                 (A) (A) (A) (A) (A) (A) (A) (A) (A) (A) (A) (A)
                 (A) (A) (A) (A) (A) (A) (A) (A) (A) (A) (A) (A)
                 (A) (A) (A) (A) (A) (A) (A) (A) (A) (A) (A) (A)
                 (A) (A) (A) (A) (A) (A) (A) (A) (A) (A) (A) (A)
                 (A) (A) (A) (A) (A) (A) (A) (A) (A) (A) (A) (A)
                 (A) (A) (A) (A) (A) (A) (A) (A) (A) (A) (A) (A)
                 (A) (A) (A) (A) (A) (A) (A) (A) (A) (A) (A) (A)
                 (A) (A) (A) (A) (A) (A) (A) (A) (A) (A) (A) (A)
                 (A) (A) (A) (A) (A) (A) (A) (A) (A) (A) (A) (A)
                 (A) (A) (A) (A) (A) (A) (A) (A) (A) (A) (A) (A)
                 (A) (A) (A) (A) (A) (A) (A) (A) (A) (A) (A) (A)
                 (A) (A) (A) (A) (A) (A) (A) (A) (A) (A) (A) (A)
                 (A) (A) (A) (A) (A) (A) (A) (A) (A) (A) (A) (A)
                 (A) (A) (A) (A) (A) (A) (A) (A) (A) (A) (A) (A)
                 (A) (A) (A) (A) (A) (A) (A) (A) (A) (A) (A) (A)
                 (A) (A) (A) (A) (A) (A) (A) (A) (A) (A) (A) (A)
                 (A) (A) (A) (A) (A) (A) (A) (A) (A) (A) (A) (A)
                 (A) (A) (A) (A) (A) (A) (A) (A) (A) (A) (A) (A)
                 (A) (A) (A) (A) (A) (A) (A) (A) (A) (A) (A) (A)
                 (A) (A) (A) (A) (A) (A) (A) (A) (A) (A) (A) (A)
                 (A) (A) (A) (A) (A) (A) (A) (A) (A) (A) (A) (A)
                 (A) (A) (A) (A) (A) (A) (A) (A) (A) (A) (A) (A)
                 (A) (A) (A) (A) (A) (A) (A) (A) (A) (A) (A) (A)
                 (A) (A) (A) (A) (A) (A) (A) (A) (A) (A) (A) (A)
                 (A) (A) (A) (A) (A) (A) (A) (A) (A) (A) (A) (A)
                 (A) (A) (A) (A) (A) (A) (A) (A) (A) (A) (A) (A)
                 (A) (A) (A) (A) (A) (A) (A) (A) (A) (A) (A) (A)
                 (A) (A) (A) (A) (A) (A) (A) (A) (A) (A) (A) (A)
                 (A) (A) (A) (A) (A) (A) (A) (A) (A) (A) (A) (A)
                 (A) (A) (A) (A) (A) (A) (A) (A) (A) (A) (A) (A)
                 (A) (A) (A) (A) (A) (A) (A) (A) (A) (A) (A) (A)
                 (A) (A) (A) (A) (A) (A) (A) (A) (A) (A) (A) (A)
                 (A) (A) (A) (A) (A) (A) (A) (A) (A) (A) (A) (A)
                 (A) (A) (A) (A) (A) (A) (A) (A) (A) (A) (A) (A)
                 (A) (A) (A) (A) (A) (A) (A) (A) (A) (A) (A) (A)
                 (A) (A) (A) (A) (A) (A) (A) (A) (A) (A) (A) (A)
                 (A) (A) (A) (A) (A) (A) (A) (A) (A) (A) (A) (A)
                 (A) (A) (A) (A) (A) (A) (A) (A) (A) (A) (A) (A)
                 (A) (A) (A) (A) (A) (A) (A) (A) (A) (A) (A) (A)
                 (A) (A) (A) (A) (A) (A) (A) (A) (A) (A) (A) (A)
                 (A) (A) (A) (A) (A) (A) (A) (A) (A) (A) (A) (A)
                 (A) (A) (A) (A) (A) (A) (A) (A) (A) (A) (A) (A)
                 (A) (A) (A) (A) (A) (A) (A) (A) (A) (A) (A) (A)
                 (A) (A) (A) (A) (A) (A) (A) (A) (A) (A) (A) (A)
                 (A) (A) (A) (A) (A) (A) (A) (A) (A) (A) (A) (A)
                 (A) (A) (A) (A) (A) (A) (A) (A) (A) (A) (A) (A)
                 (A) (A) (A) (A) (A) (A) (A) (A) (A) (A) (A) (A)
                 (A) (A) (A) (A) (A) (A) (A) (A) (A) (A) (A) (A)
                 (A) (A) (A) (A) (A) (A) (A) (A) (A) (A) (A) (A)
                 (A) (A) (A) (A) (A) (A) (A) (A) (A) (A) (A) (A)
                 (A) (A) (A) (A) (A) (A) (A) (A) (A) (A) (A) (A)
                 (A) (A) (A) (A) (A) (A) (A) (A) (A) (A) (A) (A)
                 (A) (A) (A) (A) (A) (A) (A) (A) (A) (A) (A) (A)
                 (A) (A) (A) (A) (A) (A) (A) (A) (A) (A) (A) (A)
                 (A) (A) (A) (A) (A) (A) (A) (A) (A) (A) (A) (A)
                 (A) (A) (A) (A) (A) (A) (A) (A) (A) (A) (A) (A)
                 (A) (A) (A) (A) (A) (A) (A) (A) (A) (A) (A) (A)
                 (A) (A) (A) (A) (A) (A) (A) (A) (A) (A) (A) (A)
                 (A) (A) (A) (A) (A) (A) (A) (A) (A) (A) (A) (A)
                 (A) (A) (A) (A) (A) (A) (A) (A) (A) (A) (A) (A)
                 (A) (A) (A) (A) (A) (A) (A) (A) (A) (A) (A) (A)
                 (A) (A) (A) (A) (A) (A) (A) (A) (A) (A) (A) (A)
                 (A) (A) (A) (A) (A) (A) (A) (A) (A) (A) (A) (A)
                 (A) (A) (A) (A) (A) (A) (A) (A) (A) (A) (A) (A)
                 (A) (A) (A) (A) (A) (A) (A) (A) (A) (A) (A) (A)
                 (A) (A) (A) (A) (A) (A) (A) (A) (A) (A) (A) (A)
                 (A) (A) (A) (A) (A) (A) (A) (A) (A) (A) (A) (A)
                 (A) (A) (A) (A) (A) (A) (A) (A) (A) (A) (A) (A)
                 (A) (A) (A) (A) (A) (A) (A) (A) (A) (A) (A) (A)
                 (A) (A) (A) (A) (A) (A) (A) (A) (A) (A) (A) (A)
                 (A) (A) (A) (A) (A) (A) (A) (A) (A) (A) (A) (A)
                 (A) (A) (A) (A) (A) (A) (A) (A) (A) (A) (A) (A)
                 (A) (A) (A) (A) (A) (A) (A) (A) (A) (A) (A) (A)
                 (A) (A) (A) (A) (A) (A) (A) (A) (A) (A) (A) (A)
                 (A) (A) (A) (A) (A) (A) (A) (A) (A) (A) (A) (A)
                 (A) (A) (A) (A) (A) (A) (A) (A) (A) (A) (A) (A)
                 (A) (A) (A) (A) (A) (A) (A) (A) (A) (A) (A) (A)
                 (A) (A) (A) (A) (A) (A) (A) (A) (A) (A) (A) (A)
                 (A) (A) (A) (A) (A) (A) (A) (A) (A) (A) (A) (A)
                 (A) (A) (A) (A) (A) (A) (A) (A) (A) (A) (A) (A)
                 (A) (A) (A) (A) (A) (A) (A) (A) (A) (A) (A) (A)
                 (A) (A) (A) (A) (A) (A) (A) (A) (A) (A) (A) (A)
                 (A) (A) (A) (A) (A) (A) (A) (A) (A) (A) (A) (A)
    20 initial guesses have been made.
 Convergence on wavefunction:    0.001000000000000
 Davidson Disk Diagonalization:  ConvIn= 1.00D-03 SkipCon=T Conv= 1.00D-03.
 Max sub-space:  2000 roots to seek:    20 dimension of matrix:       549360
 Iteration     1 Dimension    20 NMult     0 NNew     20
 CISAX will form    20 AO SS matrices at one time.
 NMat=    20 NSing=    20 JSym2X= 0.
 FoFJK:  IHMeth= 1 ICntrl=       0 DoSepK=T KAlg= 0 I1Cent=           0 FoldK=F
 IRaf=         1 NMat=      40 IRICut=       1 DoRegI=T DoRafI=F ISym2E= 0 IDoP0=3 IntGTp=3.
 FoFCou: FMM=T IPFlag=           0 FMFlag=      100000 FMFlg1=        2001
         NFxFlg=           0 DoJE=F BraDBF=F KetDBF=F FulRan=T
         wScrn=  0.000000 ICntrl=       500 IOpCl=  0 I1Cent=           0 NGrid=           0
         NMat0=   20 NMatS0=     20 NMatT0=    0 NMatD0=   20 NMtDS0=    0 NMtDT0=    0
 Symmetry not used in FoFCou.
 FMM levels:  10  Number of levels for PrismC:   9
 New state      1 was old state      8
 New state      2 was old state      5
 New state      3 was old state      1
 New state      5 was old state      2
 Excitation Energies [eV] at current iteration:
 Root      1 :     2.614359228331951
 Root      2 :     2.619323586632059
 Root      3 :     2.680332920695141
 Root      4 :     2.690287145018680
 Root      5 :     3.065893374161858
 Root      6 :     3.067213359254509
 Root      7 :     3.628595172360371
 Root      8 :     3.669099623400198
 Root      9 :     3.735994455470172
 Root     10 :     3.759314938610635
 Root     11 :     3.861066376259829
 Root     12 :     3.869196090641136
 Root     13 :     4.303132574289695
 Root     14 :     4.306762259877010
 Root     15 :     4.978103884346503
 Root     16 :     5.000110379923115
 Root     17 :     5.272032985090837
 Root     18 :     5.294371890123135
 Root     19 :     5.304312721967017
 Root     20 :     5.328613029548145
 Iteration     2 Dimension    30 NMult    20 NNew     10
 CISAX will form    10 AO SS matrices at one time.
 NMat=    10 NSing=    10 JSym2X= 0.
 New state      1 was old state      3
 Root      1 not converged, maximum delta is    0.187118028628764
 New state      2 was old state      4
 Root      2 not converged, maximum delta is    0.188499166260405
 New state      3 was old state      2
 Root      3 not converged, maximum delta is    0.075714281909579
 New state      4 was old state      1
 Root      4 not converged, maximum delta is    0.089671793889360
 Root      5 has converged.
 Excitation Energies [eV] at current iteration:
 Root      1 :     1.801324525307780   Change is   -0.879008395387362
 Root      2 :     1.807427454648665   Change is   -0.882859690370015
 Root      3 :     2.235856535203303   Change is   -0.383467051428757
 Root      4 :     2.239084984508578   Change is   -0.375274243823373
 Root      5 :     3.065887191443514   Change is   -0.000006182718345
 Iteration     3 Dimension    38 NMult    30 NNew      8
 CISAX will form     8 AO SS matrices at one time.
 NMat=     8 NSing=     8 JSym2X= 0.
 Root      1 not converged, maximum delta is    0.069322041774668
 Root      2 not converged, maximum delta is    0.070486304722083
 Root      3 not converged, maximum delta is    0.044053273067673
 Root      4 not converged, maximum delta is    0.042575030212487
 Root      5 has converged.
 Excitation Energies [eV] at current iteration:
 Root      1 :     1.694078037463414   Change is   -0.107246487844366
 Root      2 :     1.699038393729276   Change is   -0.108389060919388
 Root      3 :     2.194382372862852   Change is   -0.041474162340450
 Root      4 :     2.200210652793722   Change is   -0.038874331714856
 Root      5 :     3.065887191443460   Change is   -0.000000000000054
 Iteration     4 Dimension    46 NMult    38 NNew      8
 CISAX will form     8 AO SS matrices at one time.
 NMat=     8 NSing=     8 JSym2X= 0.
 Root      1 not converged, maximum delta is    0.013023618992689
 Root      2 not converged, maximum delta is    0.013280315917508
 Root      3 not converged, maximum delta is    0.009745305526637
 Root      4 not converged, maximum delta is    0.008898907697098
 Root      5 has converged.
 Excitation Energies [eV] at current iteration:
 Root      1 :     1.677364465260633   Change is   -0.016713572202781
 Root      2 :     1.682159324720781   Change is   -0.016879069008495
 Root      3 :     2.187077391102576   Change is   -0.007304981760276
 Root      4 :     2.193436188979256   Change is   -0.006774463814466
 Root      5 :     3.065887191443379   Change is   -0.000000000000080
 Iteration     5 Dimension    54 NMult    46 NNew      8
 CISAX will form     8 AO SS matrices at one time.
 NMat=     8 NSing=     8 JSym2X= 0.
 Root      1 not converged, maximum delta is    0.002164281026163
 Root      2 not converged, maximum delta is    0.002166931227144
 Root      3 not converged, maximum delta is    0.002500406038944
 Root      4 not converged, maximum delta is    0.002385179933132
 Root      5 has converged.
 Excitation Energies [eV] at current iteration:
 Root      1 :     1.675586324259263   Change is   -0.001778141001370
 Root      2 :     1.680386316878342   Change is   -0.001773007842440
 Root      3 :     2.186231164455511   Change is   -0.000846226647066
 Root      4 :     2.192660214248656   Change is   -0.000775974730599
 Root      5 :     3.065887191443406   Change is    0.000000000000027
 Iteration     6 Dimension    62 NMult    54 NNew      8
 CISAX will form     8 AO SS matrices at one time.
 NMat=     8 NSing=     8 JSym2X= 0.
 Root      1 not converged, maximum delta is    0.001355632745948
 Root      2 not converged, maximum delta is    0.001376320467719
 Root      3 not converged, maximum delta is    0.001070404565677
 Root      4 not converged, maximum delta is    0.001013847969874
 Root      5 has converged.
 Excitation Energies [eV] at current iteration:
 Root      1 :     1.675332577736002   Change is   -0.000253746523261
 Root      2 :     1.680131235961892   Change is   -0.000255080916449
 Root      3 :     2.186102860102136   Change is   -0.000128304353375
 Root      4 :     2.192542461137343   Change is   -0.000117753111314
 Root      5 :     3.065887191443379   Change is   -0.000000000000027
 Iteration     7 Dimension    70 NMult    62 NNew      8
 CISAX will form     8 AO SS matrices at one time.
 NMat=     8 NSing=     8 JSym2X= 0.
 Root      1 has converged.
 Root      2 has converged.
 Root      3 has converged.
 Root      4 has converged.
 Root      5 has converged.
 Excitation Energies [eV] at current iteration:
 Root      1 :     1.675308347932688   Change is   -0.000024229803314
 Root      2 :     1.680107397256636   Change is   -0.000023838705256
[...]
 Alpha virt. eigenvalues --    1.84481   1.84488   1.84742   1.84848   1.85079
 Alpha virt. eigenvalues --    1.85140   1.85301   1.85312   1.85442   1.85520
 Alpha virt. eigenvalues --    1.85855   1.85905   1.86337   1.86398   1.86593
 Alpha virt. eigenvalues --    1.86606   1.86779   1.86821   1.86998   1.87076
 Alpha virt. eigenvalues --    1.87437   1.87482   1.87718   1.87726   1.87905
 Alpha virt. eigenvalues --    1.87968   1.88077   1.88132   1.88527   1.88573
 Alpha virt. eigenvalues --    1.88859   1.88892   1.89027   1.89164   1.89614
 Alpha virt. eigenvalues --    1.89663   1.89783   1.89831   1.90143   1.90156
 Alpha virt. eigenvalues --    1.90789   1.90848   1.91380   1.91386   1.91477
 Alpha virt. eigenvalues --    1.91545   1.92136   1.92191   1.92614   1.92662
 Alpha virt. eigenvalues --    1.93019   1.93103   1.93375   1.93456   1.94262
 Alpha virt. eigenvalues --    1.94320   1.94726   1.94768   1.95513   1.95546
 Alpha virt. eigenvalues --    1.95764   1.95766   1.96001   1.96032   1.96126
 Alpha virt. eigenvalues --    1.96190   1.96435   1.96632   1.96889   1.96936
 Alpha virt. eigenvalues --    1.97487   1.97495   1.97755   1.97873   1.98120
 Alpha virt. eigenvalues --    1.98207   1.98302   1.98712   1.99024   1.99173
 Alpha virt. eigenvalues --    1.99858   1.99884   2.00678   2.00697   2.01033
 Alpha virt. eigenvalues --    2.01048   2.01459   2.01516   2.01559   2.01710
 Alpha virt. eigenvalues --    2.01756   2.01776   2.02662   2.02822   2.03093
 Alpha virt. eigenvalues --    2.03272   2.03331   2.03441   2.03473   2.03521
 Alpha virt. eigenvalues --    2.03978   2.04072   2.04928   2.04995   2.05551
 Alpha virt. eigenvalues --    2.05581   2.06116   2.06238   2.06939   2.06985
 Alpha virt. eigenvalues --    2.07221   2.07299   2.08504   2.08622   2.08955
 Alpha virt. eigenvalues --    2.09018   2.09563   2.09626   2.10816   2.10985
 Alpha virt. eigenvalues --    2.11220   2.11358   2.11483   2.11574   2.11764
 Alpha virt. eigenvalues --    2.11815   2.12416   2.12501   2.12751   2.12820
 Alpha virt. eigenvalues --    2.12841   2.12871   2.13580   2.13802   2.14174
 Alpha virt. eigenvalues --    2.14203   2.15356   2.15372   2.15962   2.16031
 Alpha virt. eigenvalues --    2.16542   2.16559   2.16791   2.17123   2.17452
 Alpha virt. eigenvalues --    2.17599   2.17741   2.17883   2.17953   2.18106
 Alpha virt. eigenvalues --    2.18360   2.18622   2.18903   2.19184   2.19676
 Alpha virt. eigenvalues --    2.19768   2.20074   2.20192   2.20248   2.20387
 Alpha virt. eigenvalues --    2.21122   2.21187   2.21706   2.21712   2.21780
 Alpha virt. eigenvalues --    2.21824   2.22650   2.22716   2.23290   2.23350
 Alpha virt. eigenvalues --    2.24367   2.24430   2.24953   2.24995   2.26334
 Alpha virt. eigenvalues --    2.26388   2.26815   2.26956   2.27137   2.27150
 Alpha virt. eigenvalues --    2.28172   2.28262   2.29303   2.29384   2.29770
 Alpha virt. eigenvalues --    2.29826   2.30489   2.30569   2.30773   2.31118
 Alpha virt. eigenvalues --    2.31148   2.31216   2.32156   2.32187   2.33169
 Alpha virt. eigenvalues --    2.33181   2.33430   2.33496   2.34088   2.34175
 Alpha virt. eigenvalues --    2.35246   2.35405   2.35831   2.35855   2.36279
 Alpha virt. eigenvalues --    2.36388   2.36395   2.36658   2.37623   2.37694
 Alpha virt. eigenvalues --    2.38292   2.38327   2.38727   2.38890   2.39613
 Alpha virt. eigenvalues --    2.39645   2.40212   2.40216   2.40519   2.40773
 Alpha virt. eigenvalues --    2.41157   2.41302   2.41639   2.41721   2.42073
 Alpha virt. eigenvalues --    2.42073   2.42767   2.42978   2.43015   2.43567
 Alpha virt. eigenvalues --    2.43920   2.44202   2.44748   2.44764   2.44932
 Alpha virt. eigenvalues --    2.44937   2.45514   2.45581   2.46227   2.46335
 Alpha virt. eigenvalues --    2.46438   2.46511   2.46741   2.46832   2.47287
 Alpha virt. eigenvalues --    2.47319   2.47747   2.47827   2.49335   2.49343
 Alpha virt. eigenvalues --    2.49834   2.50102   2.50396   2.50582   2.51153
 Alpha virt. eigenvalues --    2.51207   2.51551   2.51918   2.52336   2.52471
 Alpha virt. eigenvalues --    2.52841   2.53102   2.53908   2.53951   2.54182
 Alpha virt. eigenvalues --    2.54222   2.54745   2.54821   2.55552   2.55604
 Alpha virt. eigenvalues --    2.57896   2.58015   2.58676   2.58840   2.60236
 Alpha virt. eigenvalues --    2.60238   2.60644   2.60858   2.61743   2.61756
 Alpha virt. eigenvalues --    2.62365   2.62565   2.62988   2.63060   2.63967
 Alpha virt. eigenvalues --    2.64153   2.64277   2.64360   2.65032   2.65111
 Alpha virt. eigenvalues --    2.65794   2.65818   2.66753   2.66810   2.66941
 Alpha virt. eigenvalues --    2.66989   2.67913   2.67940   2.68751   2.68889
 Alpha virt. eigenvalues --    2.68963   2.69055   2.69422   2.69525   2.70029
 Alpha virt. eigenvalues --    2.70068   2.70998   2.71011   2.71824   2.72085
 Alpha virt. eigenvalues --    2.72423   2.72665   2.72684   2.72859   2.73216
 Alpha virt. eigenvalues --    2.73307   2.73398   2.73563   2.74436   2.74542
 Alpha virt. eigenvalues --    2.74983   2.75006   2.76448   2.76622   2.76993
 Alpha virt. eigenvalues --    2.77263   2.77487   2.77532   2.78221   2.78222
 Alpha virt. eigenvalues --    2.78616   2.78761   2.79082   2.79165   2.80190
 Alpha virt. eigenvalues --    2.80376   2.80615   2.80619   2.81076   2.81146
 Alpha virt. eigenvalues --    2.81914   2.81965   2.82259   2.82372   2.83771
 Alpha virt. eigenvalues --    2.83782   2.83798   2.83829   2.84451   2.84576
 Alpha virt. eigenvalues --    2.84809   2.84914   2.85616   2.85698   2.86583
 Alpha virt. eigenvalues --    2.87027   2.87098   2.87637   2.88161   2.88185
 Alpha virt. eigenvalues --    2.88539   2.88539   2.88794   2.88965   2.90528
 Alpha virt. eigenvalues --    2.90581   2.90991   2.91219   2.93185   2.93243
 Alpha virt. eigenvalues --    2.93692   2.94230   2.94494   2.94588   2.95394
 Alpha virt. eigenvalues --    2.95397   2.95762   2.96232   2.96295   2.96471
 Alpha virt. eigenvalues --    2.96794   2.97207   2.97846   2.97952   2.98238
 Alpha virt. eigenvalues --    2.98278   2.98396   2.98493   2.98632   2.98701
 Alpha virt. eigenvalues --    2.98843   2.98914   2.99616   2.99721   2.99938
 Alpha virt. eigenvalues --    3.00062   3.00250   3.00257   3.00492   3.00912
 Alpha virt. eigenvalues --    3.01822   3.02020   3.02036   3.02063   3.02743
 Alpha virt. eigenvalues --    3.02763   3.03009   3.03236   3.03358   3.03629
 Alpha virt. eigenvalues --    3.03972   3.04201   3.04351   3.04481   3.04578
 Alpha virt. eigenvalues --    3.04648   3.05271   3.05327   3.06083   3.06144
 Alpha virt. eigenvalues --    3.06834   3.06856   3.07841   3.08176   3.09276
 Alpha virt. eigenvalues --    3.09432   3.09723   3.10351   3.10473   3.10657
 Alpha virt. eigenvalues --    3.11362   3.11399   3.11818   3.11974   3.12208
 Alpha virt. eigenvalues --    3.12222   3.13314   3.13567   3.13607   3.13672
 Alpha virt. eigenvalues --    3.14123   3.14394   3.15907   3.15953   3.17296
 Alpha virt. eigenvalues --    3.17437   3.17797   3.18110   3.18950   3.19159
 Alpha virt. eigenvalues --    3.22337   3.22516   3.23980   3.24357   3.24707
 Alpha virt. eigenvalues --    3.25111   3.26537   3.26574   3.27312   3.27654
 Alpha virt. eigenvalues --    3.29133   3.29141   3.31296   3.31558   3.33102
 Alpha virt. eigenvalues --    3.33451   3.40180   3.40663   3.42735   3.42850
 Alpha virt. eigenvalues --    3.48614   3.48693   3.50056   3.50199   3.50753
 Alpha virt. eigenvalues --    3.51508   3.56585   3.56922   3.59134   3.59257
 Alpha virt. eigenvalues --    3.62433   3.62871   3.66033   3.66220   3.67219
 Alpha virt. eigenvalues --    3.67462   3.73305   3.73940   3.76090   3.76598
          Condensed to atoms (all electrons):
 Mulliken charges:
               1
     1  Mg   0.838751
     2  C   -0.002983
     3  C   -0.094128
     4  C   -0.045869
     5  C   -0.063967
     6  N   -0.256769
     7  C   -0.052457
     8  C   -0.014023
     9  C   -0.086997
    10  C    0.046318
    11  C    0.104812
    12  C    0.053477
    13  C   -0.071795
    14  H    0.036113
    15  N   -0.433137
    16  C    0.168426
    17  C   -0.177172
    18  C   -0.004007
    19  C    0.148702
    20  C    0.110183
    21  C    0.012275
    22  O   -0.249623
    23  C    0.062481
    24  N   -0.341173
    25  C    0.041257
    26  C   -0.028170
    27  C   -0.024007
    28  C    0.074890
    29  C    0.076166
    30  C    0.035121
    31  C   -0.004506
    32  N   -0.310473
    33  C    0.080413
    34  C   -0.169698
    35  C    0.008361
    36  C    0.082980
    37  C    0.127307
    38  C    0.046133
    39  O   -0.188412
    40  C   -0.005313
    41  C    0.212858
    42  O   -0.257099
    43  O   -0.304794
    44  C    0.157691
    45  H   -0.017616
    46  H   -0.016838
    47  H   -0.041472
    48  H    0.000945
    49  H   -0.004049
    50  H    0.025481
    51  H    0.016451
    52  H    0.016650
    53  H    0.011190
    54  H    0.044126
    55  H    0.017879
    56  H    0.017931
    57  H    0.005864
    58  H    0.026819
    59  H    0.039523
    60  H    0.037343
    61  H    0.035640
    62  H    0.031482
    63  H    0.016554
    64  H    0.009472
    65  H    0.023213
    66  H    0.012543
    67  H    0.004762
    68  H    0.006375
    69  H    0.004749
    70  H    0.008773
    71  H    0.018164
    72  H    0.028973
    73  H    0.047596
    74  H    0.009126
    75  H    0.046018
    76  H    0.035153
    77  H    0.042962
    78  H    0.046383
    79  H    0.053695
    80  Mg   0.837907
    81  C   -0.016820
    82  C   -0.087782
    83  C   -0.045515
    84  C   -0.064865
    85  N   -0.254587
    86  C   -0.049826
    87  C   -0.015099
    88  C   -0.090509
    89  C    0.045766
    90  C    0.114371
    91  C    0.062524
    92  C   -0.077894
    93  H    0.034898
    94  N   -0.423506
    95  C    0.162917
    96  C   -0.174632
    97  C   -0.007811
    98  C    0.152129
    99  C    0.099369
   100  C    0.015565
   101  O   -0.253183
   102  C    0.061202
   103  N   -0.350075
   104  C    0.037526
   105  C   -0.019851
   106  C   -0.034809
   107  C    0.088921
   108  C    0.073640
   109  C    0.034736
   110  C   -0.007683
   111  N   -0.324114
   112  C    0.078449
   113  C   -0.163101
   114  C    0.002256
   115  C    0.096180
   116  C    0.131487
   117  C    0.042411
   118  O   -0.187821
   119  C    0.000917
   120  C    0.211261
   121  O   -0.251046
   122  O   -0.305611
   123  C    0.152033
   124  H   -0.019667
   125  H   -0.015570
   126  H   -0.040426
   127  H   -0.000613
   128  H   -0.004340
   129  H    0.022508
   130  H    0.014438
   131  H    0.016288
   132  H    0.013905
   133  H    0.037679
   134  H    0.020809
   135  H    0.019576
   136  H    0.008757
   137  H    0.026135
   138  H    0.039781
   139  H    0.038247
   140  H    0.036388
   141  H    0.033890
   142  H    0.014395
   143  H    0.012460
   144  H    0.025139
   145  H    0.011656
   146  H    0.005718
   147  H    0.006271
   148  H    0.003669
   149  H    0.010927
   150  H    0.017936
   151  H    0.030092
   152  H    0.046018
   153  H    0.008519
   154  H    0.047012
   155  H    0.035078
   156  H    0.043944
   157  H    0.049485
   158  H    0.053572
 Sum of Mulliken charges =  -0.00000
 Mulliken charges with hydrogens summed into heavy atoms:
               1
     1  Mg   0.838751
     2  C   -0.002983
     3  C   -0.111744
     4  C   -0.062707
     5  C   -0.105439
     6  N   -0.256769
     7  C   -0.052457
     8  C   -0.013078
     9  C   -0.091046
    10  C    0.046318
    11  C    0.163395
    12  C    0.108792
    13  C    0.000127
    15  N   -0.433137
    16  C    0.168426
    17  C   -0.177172
    18  C   -0.004007
    19  C    0.148702
    20  C    0.182389
    21  C    0.012275
    22  O   -0.249623
    23  C    0.166946
    24  N   -0.341173
    25  C    0.041257
    26  C   -0.011617
    27  C   -0.014535
    28  C    0.074890
    29  C    0.116683
    30  C    0.046245
    31  C    0.051404
    32  N   -0.310473
    33  C    0.080413
    34  C   -0.169698
    35  C    0.008361
    36  C    0.082980
    37  C    0.230046
    38  C    0.046133
    39  O   -0.188412
    40  C    0.029840
    41  C    0.212858
    42  O   -0.257099
    43  O   -0.304794
    44  C    0.300731
    80  Mg   0.837907
    81  C   -0.016820
    82  C   -0.107449
    83  C   -0.061085
    84  C   -0.105291
    85  N   -0.254587
    86  C   -0.049826
    87  C   -0.015712
    88  C   -0.094848
    89  C    0.045766
    90  C    0.167604
    91  C    0.114108
    92  C   -0.002610
    94  N   -0.423506
    95  C    0.162917
    96  C   -0.174632
    97  C   -0.007811
    98  C    0.152129
    99  C    0.174042
   100  C    0.015565
   101  O   -0.253183
   102  C    0.169727
   103  N   -0.350075
   104  C    0.037526
   105  C   -0.005456
   106  C   -0.022349
   107  C    0.088921
   108  C    0.116152
   109  C    0.044676
   110  C    0.051272
   111  N   -0.324114
   112  C    0.078449
   113  C   -0.163101
   114  C    0.002256
   115  C    0.096180
   116  C    0.233035
   117  C    0.042411
   118  O   -0.187821
   119  C    0.035995
   120  C    0.211261
   121  O   -0.251046
   122  O   -0.305611
   123  C    0.299034
 Electronic spatial extent (au):  <R**2>=         614039.3587
 Charge=             -0.0000 electrons
 Dipole moment (field-independent basis, Debye):
    X=             -4.0232    Y=             -2.4422    Z=             -7.7441  Tot=              9.0621
 Quadrupole moment (field-independent basis, Debye-Ang):
   XX=           -516.1990   YY=           -551.6781   ZZ=           -447.2303
   XY=              0.1719   XZ=              0.1519   YZ=            -48.5490
 Traceless Quadrupole moment (field-independent basis, Debye-Ang):
   XX=            -11.1632   YY=            -46.6423   ZZ=             57.8055
   XY=              0.1719   XZ=              0.1519   YZ=            -48.5490
 Octapole moment (field-independent basis, Debye-Ang**2):
  XXX=          -3047.3895  YYY=            415.9140  ZZZ=            -83.7054  XYY=             59.5643
  XXY=           -604.8412  XXZ=          -1974.1319  XZZ=            -56.9351  YZZ=           -223.9990
  YYZ=           -213.2960  XYZ=            -62.1476
 Hexadecapole moment (field-independent basis, Debye-Ang**3):
 XXXX=        -786330.0164 YYYY=         -42835.2536 ZZZZ=         -23802.7778 XXXY=          -3054.0365
 XXXZ=           -128.8099 YYYX=           1221.1967 YYYZ=          -1642.7994 ZZZX=           -186.7227
 ZZZY=            244.3809 XXYY=        -146617.2630 XXZZ=        -117471.4407 YYZZ=         -10889.2958
 XXYZ=         -12177.6013 YYXZ=            278.4135 ZZXY=           -217.4439
 N-N= 1.230688054979D+04 E-N=-3.409458988914D+04  KE= 4.028802041545D+03
 Leave Link  601 at Sat Sep  4 20:12:02 2021, MaxMem= 23488102400 cpu:              15.1 elap:               0.8
 (Enter /sw/apps/gaussian-16.0/g16/l9999.exe)
 1\1\GINC-BP1-COMPUTE00098\SP\RCAM-B3LYP TD-FC\def2SVP\C68H72Mg2N8O8\OF
 15641\04-Sep-2021\0\\#p cam-b3lyp/Def2SVP td=(nstates=5)\\TDDFT excite
 d states in gaussian\\0,1\Mg,0,0.,0.,0.\C,0,-0.217,-2.218,2.801\C,0,-1
 .255,2.442,2.026\C,0,-0.245,1.85,-2.564\C,0,0.146,-2.824,-2.037\N,0,-0
 .617,-0.009,2.126\C,0,-0.594,-0.908,3.105\C,0,-0.936,-0.309,4.502\C,0,
 -1.773,0.964,4.032\C,0,-1.155,1.168,2.66\C,0,-3.263,0.685,3.863\C,0,0.
 345,0.11,5.299\C,0,0.124,0.397,6.787\H,0,1.168,0.033,7.733\N,0,-0.185,
 1.961,-0.152\C,0,-0.703,2.8,0.777\C,0,-0.62,4.156,0.193\C,0,-0.187,4.0
 15,-1.225\C,0,-0.214,2.583,-1.38\C,0,-0.887,5.406,0.974\C,0,0.181,5.01
 3,-2.277\O,0,0.303,4.69,-3.508\C,0,0.31,6.414,-1.837\N,0,-0.265,-0.413
 ,-2.029\C,0,-0.279,0.569,-2.937\C,0,-0.196,0.024,-4.332\C,0,0.124,-1.5
 33,-4.18\C,0,0.086,-1.632,-2.635\C,0,-1.451,0.205,-5.197\C,0,1.373,-2.
 07,-4.923\C,0,2.626,-1.49,-4.306\N,0,0.15,-2.144,0.303\C,0,0.173,-3.13
 6,-0.688\C,0,0.173,-4.438,0.004\C,0,0.133,-4.111,1.358\C,0,0.083,-2.69
 5,1.502\C,0,0.149,-5.715,-0.623\C,0,0.096,-4.629,2.716\O,0,0.208,-5.74
 7,3.221\C,0,-0.255,-3.428,3.701\C,0,0.717,-3.482,4.848\O,0,1.931,-3.25
 5,4.669\O,0,0.038,-3.556,6.003\C,0,0.943,-3.583,7.183\H,0,-1.859,3.22,
 2.497\H,0,-0.218,2.453,-3.474\H,0,0.276,-3.747,-2.605\H,0,-1.554,-0.94
 9,5.132\H,0,-1.585,1.831,4.665\H,0,-3.484,-0.377,3.969\H,0,-3.511,1.02
 7,2.858\H,0,-3.852,1.301,4.543\H,0,0.669,1.096,4.966\H,0,1.13,-0.639,5
 .189\H,0,-0.844,0.026,7.125\H,0,0.062,1.477,6.921\H,0,-1.344,5.186,1.9
 38\H,0,-1.651,5.963,0.432\H,0,0.007,6.02,1.084\H,0,-0.635,6.744,-1.405
 \H,0,0.665,6.97,-2.704\H,0,1.048,6.466,-1.036\H,0,0.608,0.501,-4.891\H
 ,0,-0.692,-2.156,-4.547\H,0,-1.267,0.74,-6.129\H,0,-2.204,0.714,-4.596
 \H,0,-1.967,-0.72,-5.453\H,0,1.356,-1.759,-5.967\H,0,1.452,-3.157,-4.9
 02\H,0,2.714,-0.522,-4.798\H,0,3.487,-2.121,-4.529\H,0,2.495,-1.303,-3
 .24\H,0,0.867,-6.333,-0.084\H,0,0.404,-5.642,-1.68\H,0,-0.891,-5.999,-
 0.463\H,0,-1.283,-3.581,4.028\H,0,0.698,-4.478,7.755\H,0,0.833,-2.619,
 7.68\H,0,2.,-3.754,6.976\Mg,0,31.5389,2.8433,2.40253\C,0,31.34466,0.44
 703,5.06697\C,0,30.28278,5.14633,4.58262\C,0,31.2736,4.85844,-0.03391\
 C,0,31.67995,0.15866,0.18475\N,0,30.93208,2.69523,4.52434\C,0,30.96089
 ,1.74893,5.45065\C,0,30.63269,2.2429,6.88517\C,0,29.77941,3.5479,6.500
 79\C,0,30.3881,3.84337,5.13153\C,0,28.29808,3.26487,6.31396\C,0,31.921
 55,2.61809,7.69763\C,0,31.70123,2.8122,9.19947\H,0,32.758,2.39627,10.1
 1746\N,0,31.3462,4.81842,2.38465\C,0,30.8366,5.59518,3.36354\C,0,30.89
 672,6.97433,2.85512\C,0,31.33069,6.93124,1.43227\C,0,31.31321,5.50181,
 1.19452\C,0,30.63672,8.17279,3.72088\C,0,31.6883,8.0004,0.44474\O,0,31
 .8069,7.74893,-0.80647\C,0,31.80384,9.36788,0.97214\N,0,31.27123,2.559
 14,0.36048\C,0,31.24162,3.60429,-0.48492\C,0,31.31716,3.14594,-1.92179
 \C,0,31.64873,1.58278,-1.85724\C,0,31.61799,1.38058,-0.32637\C,0,30.05
 568,3.36428,-2.75689\C,0,32.89716,1.09516,-2.6423\C,0,34.15366,1.6464,
 -2.0077\N,0,31.70408,0.69548,2.56883\C,0,31.72003,-0.24302,1.51382\C,0
 ,31.72982,-1.58709,2.12687\C,0,31.69536,-1.33558,3.50674\C,0,31.64576,
 0.06586,3.73701\C,0,31.71836,-2.82331,1.42137\C,0,31.67892,-1.93722,4.
 82069\O,0,31.79158,-3.08373,5.25261\C,0,31.32344,-0.81316,5.88677\C,0,
 32.30141,-0.9257,7.02406\O,0,33.50967,-0.6926,6.84406\O,0,31.62238,-1.
 07597,8.17588\C,0,32.54892,-1.18098,9.33447\H,0,29.68388,5.88638,5.114
 14\H,0,31.29332,5.51183,-0.90922\H,0,31.82266,-0.72769,-0.4371\H,0,30.
 02759,1.5627,7.4725\H,0,29.97577,4.36528,7.18977\H,0,28.08161,2.2077,6
 .35481\H,0,28.0422,3.66618,5.3421\H,0,27.71092,3.83502,7.03957\H,0,32.
 23636,3.63261,7.42124\H,0,32.69733,1.89497,7.5367\H,0,30.73082,2.42043
 ,9.52775\H,0,31.64141,3.88359,9.4058\H,0,30.17895,7.88731,4.67605\H,0,
 29.8675,8.7693,3.21856\H,0,31.52603,8.79048,3.86323\H,0,30.86186,9.658
 76,1.43097\H,0,32.15288,9.97545,0.13494\H,0,32.55664,9.37334,1.7683\H,
 0,32.1164,3.65327,-2.44804\H,0,30.83044,0.97526,-2.27095\H,0,30.2335,3
 .96865,-3.66638\H,0,29.30795,3.83161,-2.12996\H,0,29.55162,2.45454,-3.
 07861\H,0,32.87351,1.47652,-3.66609\H,0,32.9745,0.01472,-2.70281\H,0,3
 4.22854,2.6491,-2.43907\H,0,35.01558,1.03736,-2.27267\H,0,34.02953,1.7
 6191,-0.92469\H,0,32.43516,-3.46837,1.91187\H,0,31.9622,-2.68351,0.370
 29\H,0,30.676,-3.12017,1.56497\H,0,30.29627,-0.98303,6.21179\H,0,32.30
 782,-2.11418,9.85282\H,0,32.42258,-0.24117,9.90417\H,0,33.60223,-1.322
 76,9.12262\\Version=ES64L-G16RevA.03\State=1-A\HF=-4069.8117648\RMSD=4
 .484e-09\PG=C01 [X(C68H72Mg2N8O8)]\\@


 IF OTHER PEOPLE ARE GOING TO TALK, CONVERSATION IS SIMPLY IMPOSSIBLE.

                                               -- WHISTLER'S PRINCIPLE
 Job cpu time:       0 days 10 hours 13 minutes  3.9 seconds.
 Elapsed time:       0 days  0 hours 26 minutes  7.6 seconds.
 File lengths (MBytes):  RWF=  13225 Int=      0 D2E=      0 Chk=    574 Scr=      1
 Normal termination of Gaussian 16 at Sat Sep  4 20:12:03 2021.
