 Entering Gaussian System, Link 0=g16
 Initial command:
 /sw/apps/gaussian-16.0/g16/l1.exe "/tmp/Gau-223328.inp" -scrdir="/tmp/"
 Entering Link 1 = /sw/apps/gaussian-16.0/g16/l1.exe PID=    223329.
  
 Copyright (c) 1988,1990,1992,1993,1995,1998,2003,2009,2016,
            Gaussian, Inc.  All Rights Reserved.
  
 This is part of the Gaussian(R) 16 program.  It is based on
 the Gaussian(R) 09 system (copyright 2009, Gaussian, Inc.),
 the Gaussian(R) 03 system (copyright 2003, Gaussian, Inc.),
 the Gaussian(R) 98 system (copyright 1998, Gaussian, Inc.),
 the Gaussian(R) 94 system (copyright 1995, Gaussian, Inc.),
 the Gaussian 92(TM) system (copyright 1992, Gaussian, Inc.),
 the Gaussian 90(TM) system (copyright 1990, Gaussian, Inc.),
 the Gaussian 88(TM) system (copyright 1988, Gaussian, Inc.),
 the Gaussian 86(TM) system (copyright 1986, Carnegie Mellon
 University), and the Gaussian 82(TM) system (copyright 1983,
 Carnegie Mellon University). Gaussian is a federally registered
 trademark of Gaussian, Inc.
  
 This software contains proprietary and confidential information,
 including trade secrets, belonging to Gaussian, Inc.
  
 This software is provided under written license and may be
 used, copied, transmitted, or stored only in accord with that
 written license.
  
 The following legend is applicable only to US Government
 contracts under FAR:
  
                    RESTRICTED RIGHTS LEGEND
  
 Use, reproduction and disclosure by the US Government is
 subject to restrictions as set forth in subparagraphs (a)
 and (c) of the Commercial Computer Software - Restricted
 Rights clause in FAR 52.227-19.
  
 Gaussian, Inc.
 340 Quinnipiac St., Bldg. 40, Wallingford CT 06492
  
  
 ---------------------------------------------------------------
 Warning -- This program may not be used in any manner that
 competes with the business of Gaussian, Inc. or will provide
 assistance to any competitor of Gaussian, Inc.  The licensee
 of this program is prohibited from giving any competitor of
 Gaussian, Inc. access to this program.  By using this program,
 the user acknowledges that Gaussian, Inc. is engaged in the
 business of creating and licensing software in the field of
 computational chemistry and represents and warrants to the
 licensee that it is not a competitor of Gaussian, Inc. and that
 it will not use this program in any manner prohibited above.
 ---------------------------------------------------------------
  

 Cite this work as:
 Gaussian 16, Revision A.03,
 M. J. Frisch, G. W. Trucks, H. B. Schlegel, G. E. Scuseria, 
 M. A. Robb, J. R. Cheeseman, G. Scalmani, V. Barone, 
 G. A. Petersson, H. Nakatsuji, X. Li, M. Caricato, A. V. Marenich, 
 J. Bloino, B. G. Janesko, R. Gomperts, B. Mennucci, H. P. Hratchian, 
 J. V. Ortiz, A. F. Izmaylov, J. L. Sonnenberg, D. Williams-Young, 
 F. Ding, F. Lipparini, F. Egidi, J. Goings, B. Peng, A. Petrone, 
 T. Henderson, D. Ranasinghe, V. G. Zakrzewski, J. Gao, N. Rega, 
 G. Zheng, W. Liang, M. Hada, M. Ehara, K. Toyota, R. Fukuda, 
 J. Hasegawa, M. Ishida, T. Nakajima, Y. Honda, O. Kitao, H. Nakai, 
 T. Vreven, K. Throssell, J. A. Montgomery, Jr., J. E. Peralta, 
 F. Ogliaro, M. J. Bearpark, J. J. Heyd, E. N. Brothers, K. N. Kudin, 
 V. N. Staroverov, T. A. Keith, R. Kobayashi, J. Normand, 
 K. Raghavachari, A. P. Rendell, J. C. Burant, S. S. Iyengar, 
 J. Tomasi, M. Cossi, J. M. Millam, M. Klene, C. Adamo, R. Cammi, 
 J. W. Ochterski, R. L. Martin, K. Morokuma, O. Farkas, 
 J. B. Foresman, and D. J. Fox, Gaussian, Inc., Wallingford CT, 2016.
 
 ******************************************
 Gaussian 16:  ES64L-G16RevA.03 25-Dec-2016
                11-Sep-2021 
 ******************************************
 %nproc=24
 Will use up to   24 processors via shared memory.
 %mem=175gb
 -----------------------------------
 #p cam-b3lyp/Def2SVP td=(nstates=5)
 -----------------------------------
 1/38=1,172=1/1;
 2/12=2,17=6,18=5,40=1/2;
 3/5=43,7=101,11=9,25=1,30=1,74=-40/1,2,3,8;
 4//1;
 5/5=2,38=5/2;
 8/6=1,10=1,108=5/1;
 9/41=5,42=1,70=2/14;
 6/7=2,8=2,9=2,10=2/1;
 99/5=1,9=1/99;
 Leave Link    1 at Sat Sep 11 13:00:51 2021, MaxMem= 23488102400 cpu:               0.7 elap:               0.0
 (Enter /sw/apps/gaussian-16.0/g16/l101.exe)
 --------------------------------
 TDDFT excited states in gaussian
 --------------------------------
 Symbolic Z-matrix:
 Charge =  0 Multiplicity = 1
 Mg                    0.        0.        0. 
 C                    -0.217    -2.218     2.801 
 C                    -1.255     2.442     2.026 
 C                    -0.245     1.85     -2.564 
 C                     0.146    -2.824    -2.037 
 N                    -0.617    -0.009     2.126 
 C                    -0.594    -0.908     3.105 
 C                    -0.936    -0.309     4.502 
 C                    -1.773     0.964     4.032 
 C                    -1.155     1.168     2.66 
 C                    -3.263     0.685     3.863 
 C                     0.345     0.11      5.299 
 C                     0.124     0.397     6.787 
 H                     1.168     0.033     7.733 
 N                    -0.185     1.961    -0.152 
 C                    -0.703     2.8       0.777 
 C                    -0.62      4.156     0.193 
 C                    -0.187     4.015    -1.225 
 C                    -0.214     2.583    -1.38 
 C                    -0.887     5.406     0.974 
 C                     0.181     5.013    -2.277 
 O                     0.303     4.69     -3.508 
 C                     0.31      6.414    -1.837 
 N                    -0.265    -0.413    -2.029 
 C                    -0.279     0.569    -2.937 
 C                    -0.196     0.024    -4.332 
 C                     0.124    -1.533    -4.18 
 C                     0.086    -1.632    -2.635 
 C                    -1.451     0.205    -5.197 
 C                     1.373    -2.07     -4.923 
 C                     2.626    -1.49     -4.306 
 N                     0.15     -2.144     0.303 
 C                     0.173    -3.136    -0.688 
 C                     0.173    -4.438     0.004 
 C                     0.133    -4.111     1.358 
 C                     0.083    -2.695     1.502 
 C                     0.149    -5.715    -0.623 
 C                     0.096    -4.629     2.716 
 O                     0.208    -5.747     3.221 
 C                    -0.255    -3.428     3.701 
 C                     0.717    -3.482     4.848 
 O                     1.931    -3.255     4.669 
 O                     0.038    -3.556     6.003 
 C                     0.943    -3.583     7.183 
 H                    -1.859     3.22      2.497 
 H                    -0.218     2.453    -3.474 
 H                     0.276    -3.747    -2.605 
 H                    -1.554    -0.949     5.132 
 H                    -1.585     1.831     4.665 
 H                    -3.484    -0.377     3.969 
 H                    -3.511     1.027     2.858 
 H                    -3.852     1.301     4.543 
 H                     0.669     1.096     4.966 
 H                     1.13     -0.639     5.189 
 H                    -0.844     0.026     7.125 
 H                     0.062     1.477     6.921 
 H                    -1.344     5.186     1.938 
 H                    -1.651     5.963     0.432 
 H                     0.007     6.02      1.084 
 H                    -0.635     6.744    -1.405 
 H                     0.665     6.97     -2.704 
 H                     1.048     6.466    -1.036 
 H                     0.608     0.501    -4.891 
 H                    -0.692    -2.156    -4.547 
 H                    -1.267     0.74     -6.129 
 H                    -2.204     0.714    -4.596 
 H                    -1.967    -0.72     -5.453 
 H                     1.356    -1.759    -5.967 
 H                     1.452    -3.157    -4.902 
 H                     2.714    -0.522    -4.798 
 H                     3.487    -2.121    -4.529 
 H                     2.495    -1.303    -3.24 
 H                     0.867    -6.333    -0.084 
 H                     0.404    -5.642    -1.68 
 H                    -0.891    -5.999    -0.463 
 H                    -1.283    -3.581     4.028 
 H                     0.698    -4.478     7.755 
 H                     0.833    -2.619     7.68 
 H                     2.       -3.754     6.976 
 Mg                    13.14494   1.19087   1.00073 
 C                     12.65865   1.28768   4.55505 
 C                     11.98057   4.39549   0.90439 
 C                     13.13487   0.98672  -2.1656 
 C                     13.17076  -2.28597   1.23867 
 N                     12.44208   2.55821   2.59089 
 C                     12.36031   2.50702   3.91189 
 C                     12.01238   3.86045   4.5877 
 C                     11.27803   4.56715   3.34666 
 C                     11.96319   3.82393   2.20174 
 C                     9.78829   4.27408   3.28254 
 C                     13.29179   4.65566   5.02675 
 C                     13.02559   5.83472   5.96522 
 H                     14.00887   6.13453   7.0024 
 N                     13.10497   2.61771  -0.37807 
 C                     12.61666   3.86833  -0.24097 
 C                     12.80303   4.51847  -1.54739 
 C                     13.2904   3.49745  -2.51418 
 C                     13.17325   2.29687  -1.71108 
 C                     12.60031   5.99059  -1.75999 
 C                     13.76904   3.58512  -3.93172 
 O                     13.91922   2.53946  -4.65759 
 C                     13.96725   4.93707  -4.47432 
 N                     12.94023  -0.41134  -0.30822 
 C                     13.02545  -0.23277  -1.63818 
 C                     13.12451  -1.55501  -2.36085 
 C                     13.33246  -2.65455  -1.21833 
 C                     13.22358  -1.74847   0.02769 
 C                     11.91876  -1.93567  -3.21973 
 C                     14.57101  -3.5824   -1.35158 
 C                     15.83896  -2.78071  -1.16454 
 N                     13.13816  -0.25858   2.60294 
 C                     13.12543  -1.66533   2.4805 
 C                     13.0071  -2.22002   3.84459 
 C                     12.93546  -1.08824   4.67068 
 C                     12.98394   0.08873   3.87576 
 C                     12.92993  -3.60196   4.17687 
 C                     12.81913  -0.62159   6.03354 
 O                     12.82584  -1.16018   7.13972 
 C                     12.50738   0.93681   6.00922 
 C                     13.4264   1.60974   6.99161 
 O                     14.65532   1.622     6.8013 
 O                     12.6912   2.31088   7.87379 
 C                     13.55869   3.00533   8.86223 
 H                     11.41882   5.31448   0.73475 
 H                     13.24046   0.85899  -3.24543 
 H                     13.27054  -3.36067   1.40519 
 H                     11.33339   3.78694   5.42874 
 H                     11.50801   5.62859   3.3039 
 H                     9.48999   3.54067   4.01688 
 H                     9.60396   3.90459   2.28227 
 H                     9.21727   5.20278   3.37076 
 H                     13.69444   5.19354   4.15883 
 H                     14.01585   3.99878   5.46818 
 H                     12.01538   5.80262   6.39113 
 H                     13.0396   6.75592   5.37768 
 H                     12.08324   6.45235  -0.9098 
 H                     11.90028   6.0996   -2.59541 
 H                     13.52773   6.51234  -2.00564 
 H                     13.0323   5.48948  -4.41795 
 H                     14.39584   4.79321  -5.46804 
 H                     14.68498   5.46745  -3.83856 
 H                     13.98116  -1.57036  -3.02343 
 H                     12.48769  -3.35735  -1.1706 
 H                     12.1795  -2.12683  -4.27781 
 H                     11.18395  -1.145    -3.14603 
 H                     11.36013  -2.80329  -2.87282 
 H                     14.61863  -4.00845  -2.35675 
 H                     14.56778  -4.41045  -0.65065 
 H                     16.00804  -2.35132  -2.15656 
 H                     16.66183  -3.42866  -0.86943 
 H                     15.67973  -1.9492   -0.4682 
 H                     13.5745  -3.75289   5.03258 
 H                     13.22665  -4.22949   3.33905 
 H                     11.86288  -3.69008   4.39803 
 H                     11.45775   1.06513   6.27643 
 H                     13.22577   2.69073   9.85615 
 H                     13.48145   4.08255   8.62269 
 H                     14.60585   2.72783   8.89227 
 
 ITRead=  0  0  0  0  0  0  0  0  0  0  0  0  0  0  0  0  0  0  0  0
 ITRead=  0  0  0  0  0  0  0  0  0  0  0  0  0  0  0  0  0  0  0  0
 ITRead=  0  0  0  0  0  0  0  0  0  0  0  0  0  0  0  0  0  0  0  0
 ITRead=  0  0  0  0  0  0  0  0  0  0  0  0  0  0  0  0  0  0  0  0
 ITRead=  0  0  0  0  0  0  0  0  0  0  0  0  0  0  0  0  0  0  0  0
 ITRead=  0  0  0  0  0  0  0  0  0  0  0  0  0  0  0  0  0  0  0  0
 ITRead=  0  0  0  0  0  0  0  0  0  0  0  0  0  0  0  0  0  0  0  0
 ITRead=  0  0  0  0  0  0  0  0  0  0  0  0  0  0  0  0  0  0
 MicOpt= -1 -1 -1 -1 -1 -1 -1 -1 -1 -1 -1 -1 -1 -1 -1 -1 -1 -1 -1 -1
 MicOpt= -1 -1 -1 -1 -1 -1 -1 -1 -1 -1 -1 -1 -1 -1 -1 -1 -1 -1 -1 -1
 MicOpt= -1 -1 -1 -1 -1 -1 -1 -1 -1 -1 -1 -1 -1 -1 -1 -1 -1 -1 -1 -1
 MicOpt= -1 -1 -1 -1 -1 -1 -1 -1 -1 -1 -1 -1 -1 -1 -1 -1 -1 -1 -1 -1
 MicOpt= -1 -1 -1 -1 -1 -1 -1 -1 -1 -1 -1 -1 -1 -1 -1 -1 -1 -1 -1 -1
 MicOpt= -1 -1 -1 -1 -1 -1 -1 -1 -1 -1 -1 -1 -1 -1 -1 -1 -1 -1 -1 -1
 MicOpt= -1 -1 -1 -1 -1 -1 -1 -1 -1 -1 -1 -1 -1 -1 -1 -1 -1 -1 -1 -1
 MicOpt= -1 -1 -1 -1 -1 -1 -1 -1 -1 -1 -1 -1 -1 -1 -1 -1 -1 -1
 NAtoms=    158 NQM=      158 NQMF=       0 NMMI=      0 NMMIF=      0
                NMic=       0 NMicF=      0.
                    Isotopes and Nuclear Properties:
 (Nuclear quadrupole moments (NQMom) in fm**2, nuclear magnetic moments (NMagM)
  in nuclear magnetons)

  Atom         1           2           3           4           5           6           7           8           9          10
 IAtWgt=          24          12          12          12          12          14          12          12          12          12
 AtmWgt=  23.9850450  12.0000000  12.0000000  12.0000000  12.0000000  14.0030740  12.0000000  12.0000000  12.0000000  12.0000000
 NucSpn=           0           0           0           0           0           2           0           0           0           0
 AtZEff=  -0.0000000  -0.0000000  -0.0000000  -0.0000000  -0.0000000  -0.0000000  -0.0000000  -0.0000000  -0.0000000  -0.0000000
 NQMom=    0.0000000   0.0000000   0.0000000   0.0000000   0.0000000   2.0440000   0.0000000   0.0000000   0.0000000   0.0000000
 NMagM=    0.0000000   0.0000000   0.0000000   0.0000000   0.0000000   0.4037610   0.0000000   0.0000000   0.0000000   0.0000000
 AtZNuc=  12.0000000   6.0000000   6.0000000   6.0000000   6.0000000   7.0000000   6.0000000   6.0000000   6.0000000   6.0000000

  Atom        11          12          13          14          15          16          17          18          19          20
 IAtWgt=          12          12          12           1          14          12          12          12          12          12
 AtmWgt=  12.0000000  12.0000000  12.0000000   1.0078250  14.0030740  12.0000000  12.0000000  12.0000000  12.0000000  12.0000000
 NucSpn=           0           0           0           1           2           0           0           0           0           0
 AtZEff=  -0.0000000  -0.0000000  -0.0000000  -0.0000000  -0.0000000  -0.0000000  -0.0000000  -0.0000000  -0.0000000  -0.0000000
 NQMom=    0.0000000   0.0000000   0.0000000   0.0000000   2.0440000   0.0000000   0.0000000   0.0000000   0.0000000   0.0000000
 NMagM=    0.0000000   0.0000000   0.0000000   2.7928460   0.4037610   0.0000000   0.0000000   0.0000000   0.0000000   0.0000000
 AtZNuc=   6.0000000   6.0000000   6.0000000   1.0000000   7.0000000   6.0000000   6.0000000   6.0000000   6.0000000   6.0000000

  Atom        21          22          23          24          25          26          27          28          29          30
 IAtWgt=          12          16          12          14          12          12          12          12          12          12
 AtmWgt=  12.0000000  15.9949146  12.0000000  14.0030740  12.0000000  12.0000000  12.0000000  12.0000000  12.0000000  12.0000000
 NucSpn=           0           0           0           2           0           0           0           0           0           0
 AtZEff=  -0.0000000  -0.0000000  -0.0000000  -0.0000000  -0.0000000  -0.0000000  -0.0000000  -0.0000000  -0.0000000  -0.0000000
 NQMom=    0.0000000   0.0000000   0.0000000   2.0440000   0.0000000   0.0000000   0.0000000   0.0000000   0.0000000   0.0000000
 NMagM=    0.0000000   0.0000000   0.0000000   0.4037610   0.0000000   0.0000000   0.0000000   0.0000000   0.0000000   0.0000000
 AtZNuc=   6.0000000   8.0000000   6.0000000   7.0000000   6.0000000   6.0000000   6.0000000   6.0000000   6.0000000   6.0000000

  Atom        31          32          33          34          35          36          37          38          39          40
 IAtWgt=          12          14          12          12          12          12          12          12          16          12
 AtmWgt=  12.0000000  14.0030740  12.0000000  12.0000000  12.0000000  12.0000000  12.0000000  12.0000000  15.9949146  12.0000000
 NucSpn=           0           2           0           0           0           0           0           0           0           0
 AtZEff=  -0.0000000  -0.0000000  -0.0000000  -0.0000000  -0.0000000  -0.0000000  -0.0000000  -0.0000000  -0.0000000  -0.0000000
 NQMom=    0.0000000   2.0440000   0.0000000   0.0000000   0.0000000   0.0000000   0.0000000   0.0000000   0.0000000   0.0000000
 NMagM=    0.0000000   0.4037610   0.0000000   0.0000000   0.0000000   0.0000000   0.0000000   0.0000000   0.0000000   0.0000000
 AtZNuc=   6.0000000   7.0000000   6.0000000   6.0000000   6.0000000   6.0000000   6.0000000   6.0000000   8.0000000   6.0000000

  Atom        41          42          43          44          45          46          47          48          49          50
 IAtWgt=          12          16          16          12           1           1           1           1           1           1
 AtmWgt=  12.0000000  15.9949146  15.9949146  12.0000000   1.0078250   1.0078250   1.0078250   1.0078250   1.0078250   1.0078250
 NucSpn=           0           0           0           0           1           1           1           1           1           1
 AtZEff=  -0.0000000  -0.0000000  -0.0000000  -0.0000000  -0.0000000  -0.0000000  -0.0000000  -0.0000000  -0.0000000  -0.0000000
 NQMom=    0.0000000   0.0000000   0.0000000   0.0000000   0.0000000   0.0000000   0.0000000   0.0000000   0.0000000   0.0000000
 NMagM=    0.0000000   0.0000000   0.0000000   0.0000000   2.7928460   2.7928460   2.7928460   2.7928460   2.7928460   2.7928460
 AtZNuc=   6.0000000   8.0000000   8.0000000   6.0000000   1.0000000   1.0000000   1.0000000   1.0000000   1.0000000   1.0000000

  Atom        51          52          53          54          55          56          57          58          59          60
 IAtWgt=           1           1           1           1           1           1           1           1           1           1
 AtmWgt=   1.0078250   1.0078250   1.0078250   1.0078250   1.0078250   1.0078250   1.0078250   1.0078250   1.0078250   1.0078250
 NucSpn=           1           1           1           1           1           1           1           1           1           1
 AtZEff=  -0.0000000  -0.0000000  -0.0000000  -0.0000000  -0.0000000  -0.0000000  -0.0000000  -0.0000000  -0.0000000  -0.0000000
 NQMom=    0.0000000   0.0000000   0.0000000   0.0000000   0.0000000   0.0000000   0.0000000   0.0000000   0.0000000   0.0000000
 NMagM=    2.7928460   2.7928460   2.7928460   2.7928460   2.7928460   2.7928460   2.7928460   2.7928460   2.7928460   2.7928460
 AtZNuc=   1.0000000   1.0000000   1.0000000   1.0000000   1.0000000   1.0000000   1.0000000   1.0000000   1.0000000   1.0000000

  Atom        61          62          63          64          65          66          67          68          69          70
 IAtWgt=           1           1           1           1           1           1           1           1           1           1
 AtmWgt=   1.0078250   1.0078250   1.0078250   1.0078250   1.0078250   1.0078250   1.0078250   1.0078250   1.0078250   1.0078250
 NucSpn=           1           1           1           1           1           1           1           1           1           1
 AtZEff=  -0.0000000  -0.0000000  -0.0000000  -0.0000000  -0.0000000  -0.0000000  -0.0000000  -0.0000000  -0.0000000  -0.0000000
 NQMom=    0.0000000   0.0000000   0.0000000   0.0000000   0.0000000   0.0000000   0.0000000   0.0000000   0.0000000   0.0000000
 NMagM=    2.7928460   2.7928460   2.7928460   2.7928460   2.7928460   2.7928460   2.7928460   2.7928460   2.7928460   2.7928460
 AtZNuc=   1.0000000   1.0000000   1.0000000   1.0000000   1.0000000   1.0000000   1.0000000   1.0000000   1.0000000   1.0000000

  Atom        71          72          73          74          75          76          77          78          79          80
 IAtWgt=           1           1           1           1           1           1           1           1           1          24
 AtmWgt=   1.0078250   1.0078250   1.0078250   1.0078250   1.0078250   1.0078250   1.0078250   1.0078250   1.0078250  23.9850450
 NucSpn=           1           1           1           1           1           1           1           1           1           0
 AtZEff=  -0.0000000  -0.0000000  -0.0000000  -0.0000000  -0.0000000  -0.0000000  -0.0000000  -0.0000000  -0.0000000  -0.0000000
 NQMom=    0.0000000   0.0000000   0.0000000   0.0000000   0.0000000   0.0000000   0.0000000   0.0000000   0.0000000   0.0000000
 NMagM=    2.7928460   2.7928460   2.7928460   2.7928460   2.7928460   2.7928460   2.7928460   2.7928460   2.7928460   0.0000000
 AtZNuc=   1.0000000   1.0000000   1.0000000   1.0000000   1.0000000   1.0000000   1.0000000   1.0000000   1.0000000  12.0000000

  Atom        81          82          83          84          85          86          87          88          89          90
 IAtWgt=          12          12          12          12          14          12          12          12          12          12
 AtmWgt=  12.0000000  12.0000000  12.0000000  12.0000000  14.0030740  12.0000000  12.0000000  12.0000000  12.0000000  12.0000000
 NucSpn=           0           0           0           0           2           0           0           0           0           0
 AtZEff=  -0.0000000  -0.0000000  -0.0000000  -0.0000000  -0.0000000  -0.0000000  -0.0000000  -0.0000000  -0.0000000  -0.0000000
 NQMom=    0.0000000   0.0000000   0.0000000   0.0000000   2.0440000   0.0000000   0.0000000   0.0000000   0.0000000   0.0000000
 NMagM=    0.0000000   0.0000000   0.0000000   0.0000000   0.4037610   0.0000000   0.0000000   0.0000000   0.0000000   0.0000000
 AtZNuc=   6.0000000   6.0000000   6.0000000   6.0000000   7.0000000   6.0000000   6.0000000   6.0000000   6.0000000   6.0000000

  Atom        91          92          93          94          95          96          97          98          99         100
 IAtWgt=          12          12           1          14          12          12          12          12          12          12
 AtmWgt=  12.0000000  12.0000000   1.0078250  14.0030740  12.0000000  12.0000000  12.0000000  12.0000000  12.0000000  12.0000000
 NucSpn=           0           0           1           2           0           0           0           0           0           0
 AtZEff=  -0.0000000  -0.0000000  -0.0000000  -0.0000000  -0.0000000  -0.0000000  -0.0000000  -0.0000000  -0.0000000  -0.0000000
 NQMom=    0.0000000   0.0000000   0.0000000   2.0440000   0.0000000   0.0000000   0.0000000   0.0000000   0.0000000   0.0000000
 NMagM=    0.0000000   0.0000000   2.7928460   0.4037610   0.0000000   0.0000000   0.0000000   0.0000000   0.0000000   0.0000000
 AtZNuc=   6.0000000   6.0000000   1.0000000   7.0000000   6.0000000   6.0000000   6.0000000   6.0000000   6.0000000   6.0000000

  Atom       101         102         103         104         105         106         107         108         109         110
 IAtWgt=          16          12          14          12          12          12          12          12          12          12
 AtmWgt=  15.9949146  12.0000000  14.0030740  12.0000000  12.0000000  12.0000000  12.0000000  12.0000000  12.0000000  12.0000000
 NucSpn=           0           0           2           0           0           0           0           0           0           0
 AtZEff=  -0.0000000  -0.0000000  -0.0000000  -0.0000000  -0.0000000  -0.0000000  -0.0000000  -0.0000000  -0.0000000  -0.0000000
 NQMom=    0.0000000   0.0000000   2.0440000   0.0000000   0.0000000   0.0000000   0.0000000   0.0000000   0.0000000   0.0000000
 NMagM=    0.0000000   0.0000000   0.4037610   0.0000000   0.0000000   0.0000000   0.0000000   0.0000000   0.0000000   0.0000000
 AtZNuc=   8.0000000   6.0000000   7.0000000   6.0000000   6.0000000   6.0000000   6.0000000   6.0000000   6.0000000   6.0000000

  Atom       111         112         113         114         115         116         117         118         119         120
 IAtWgt=          14          12          12          12          12          12          12          16          12          12
 AtmWgt=  14.0030740  12.0000000  12.0000000  12.0000000  12.0000000  12.0000000  12.0000000  15.9949146  12.0000000  12.0000000
 NucSpn=           2           0           0           0           0           0           0           0           0           0
 AtZEff=  -0.0000000  -0.0000000  -0.0000000  -0.0000000  -0.0000000  -0.0000000  -0.0000000  -0.0000000  -0.0000000  -0.0000000
 NQMom=    2.0440000   0.0000000   0.0000000   0.0000000   0.0000000   0.0000000   0.0000000   0.0000000   0.0000000   0.0000000
 NMagM=    0.4037610   0.0000000   0.0000000   0.0000000   0.0000000   0.0000000   0.0000000   0.0000000   0.0000000   0.0000000
 AtZNuc=   7.0000000   6.0000000   6.0000000   6.0000000   6.0000000   6.0000000   6.0000000   8.0000000   6.0000000   6.0000000

  Atom       121         122         123         124         125         126         127         128         129         130
 IAtWgt=          16          16          12           1           1           1           1           1           1           1
 AtmWgt=  15.9949146  15.9949146  12.0000000   1.0078250   1.0078250   1.0078250   1.0078250   1.0078250   1.0078250   1.0078250
 NucSpn=           0           0           0           1           1           1           1           1           1           1
 AtZEff=  -0.0000000  -0.0000000  -0.0000000  -0.0000000  -0.0000000  -0.0000000  -0.0000000  -0.0000000  -0.0000000  -0.0000000
 NQMom=    0.0000000   0.0000000   0.0000000   0.0000000   0.0000000   0.0000000   0.0000000   0.0000000   0.0000000   0.0000000
 NMagM=    0.0000000   0.0000000   0.0000000   2.7928460   2.7928460   2.7928460   2.7928460   2.7928460   2.7928460   2.7928460
 AtZNuc=   8.0000000   8.0000000   6.0000000   1.0000000   1.0000000   1.0000000   1.0000000   1.0000000   1.0000000   1.0000000

  Atom       131         132         133         134         135         136         137         138         139         140
 IAtWgt=           1           1           1           1           1           1           1           1           1           1
 AtmWgt=   1.0078250   1.0078250   1.0078250   1.0078250   1.0078250   1.0078250   1.0078250   1.0078250   1.0078250   1.0078250
 NucSpn=           1           1           1           1           1           1           1           1           1           1
 AtZEff=  -0.0000000  -0.0000000  -0.0000000  -0.0000000  -0.0000000  -0.0000000  -0.0000000  -0.0000000  -0.0000000  -0.0000000
 NQMom=    0.0000000   0.0000000   0.0000000   0.0000000   0.0000000   0.0000000   0.0000000   0.0000000   0.0000000   0.0000000
 NMagM=    2.7928460   2.7928460   2.7928460   2.7928460   2.7928460   2.7928460   2.7928460   2.7928460   2.7928460   2.7928460
 AtZNuc=   1.0000000   1.0000000   1.0000000   1.0000000   1.0000000   1.0000000   1.0000000   1.0000000   1.0000000   1.0000000

  Atom       141         142         143         144         145         146         147         148         149         150
 IAtWgt=           1           1           1           1           1           1           1           1           1           1
 AtmWgt=   1.0078250   1.0078250   1.0078250   1.0078250   1.0078250   1.0078250   1.0078250   1.0078250   1.0078250   1.0078250
 NucSpn=           1           1           1           1           1           1           1           1           1           1
 AtZEff=  -0.0000000  -0.0000000  -0.0000000  -0.0000000  -0.0000000  -0.0000000  -0.0000000  -0.0000000  -0.0000000  -0.0000000
 NQMom=    0.0000000   0.0000000   0.0000000   0.0000000   0.0000000   0.0000000   0.0000000   0.0000000   0.0000000   0.0000000
 NMagM=    2.7928460   2.7928460   2.7928460   2.7928460   2.7928460   2.7928460   2.7928460   2.7928460   2.7928460   2.7928460
 AtZNuc=   1.0000000   1.0000000   1.0000000   1.0000000   1.0000000   1.0000000   1.0000000   1.0000000   1.0000000   1.0000000

  Atom       151         152         153         154         155         156         157         158
 IAtWgt=           1           1           1           1           1           1           1           1
 AtmWgt=   1.0078250   1.0078250   1.0078250   1.0078250   1.0078250   1.0078250   1.0078250   1.0078250
 NucSpn=           1           1           1           1           1           1           1           1
 AtZEff=  -0.0000000  -0.0000000  -0.0000000  -0.0000000  -0.0000000  -0.0000000  -0.0000000  -0.0000000
 NQMom=    0.0000000   0.0000000   0.0000000   0.0000000   0.0000000   0.0000000   0.0000000   0.0000000
 NMagM=    2.7928460   2.7928460   2.7928460   2.7928460   2.7928460   2.7928460   2.7928460   2.7928460
 AtZNuc=   1.0000000   1.0000000   1.0000000   1.0000000   1.0000000   1.0000000   1.0000000   1.0000000
 Leave Link  101 at Sat Sep 11 13:00:52 2021, MaxMem= 23488102400 cpu:               3.1 elap:               0.2
 (Enter /sw/apps/gaussian-16.0/g16/l202.exe)
 Stoichiometry    C68H72Mg2N8O8
 Framework group  C1[X(C68H72Mg2N8O8)]
 Deg. of freedom   468
 Full point group                 C1      NOp   1
 Largest Abelian subgroup         C1      NOp   1
 Largest concise Abelian subgroup C1      NOp   1
                         Standard orientation:                         
 ---------------------------------------------------------------------
 Center     Atomic      Atomic             Coordinates (Angstroms)
 Number     Number       Type             X           Y           Z
 ---------------------------------------------------------------------
      1         12           0        6.532740   -0.708505    0.201728
      2          6           0        6.783680    2.574423   -1.202419
      3          6           0        7.275467    0.689312    3.224563
      4          6           0        6.764475   -3.643640    1.379820
      5          6           0        6.935609   -1.959524   -3.026012
      6          7           0        6.953373    1.378953    0.806900
      7          6           0        6.959467    2.552764    0.182960
      8          6           0        7.095007    3.766177    1.150758
      9          6           0        7.798986    3.031671    2.378321
     10          6           0        7.284815    1.621990    2.145186
     11          6           0        9.321641    3.020087    2.289502
     12          6           0        5.704569    4.359295    1.558954
     13          6           0        5.752827    5.733902    2.232364
     14          1           0        4.684379    6.684014    1.962079
     15          7           0        6.475462   -1.347258    2.070301
     16          6           0        6.795580   -0.637525    3.178944
     17          6           0        6.590437   -1.552775    4.322149
     18          6           0        6.307684   -2.908591    3.774513
     19          6           0        6.533346   -2.690169    2.368545
     20          6           0        6.622749   -1.104595    5.751079
     21          6           0        5.909167   -4.199226    4.417612
     22          8           0        5.940382   -5.311243    3.787518
     23          6           0        5.561328   -4.140120    5.848890
     24          7           0        7.029050   -2.546891   -0.653635
     25          6           0        6.996995   -3.673905    0.065946
     26          6           0        7.110076   -4.885286   -0.811385
     27          6           0        6.981795   -4.357210   -2.312862
     28          6           0        6.894145   -2.838615   -2.022245
     29          6           0        8.403331   -5.699027   -0.665343
     30          6           0        5.884100   -5.004030   -3.194400
     31          6           0        4.516572   -4.624354   -2.672086
     32          7           0        6.634759    0.124719   -1.799865
     33          6           0        6.828811   -0.579075   -2.997234
     34          6           0        6.935357    0.422128   -4.074410
     35          6           0        6.811659    1.647430   -3.422351
     36          6           0        6.665092    1.426626   -2.023046
     37          6           0        7.180168    0.145145   -5.448375
     38          6           0        6.793898    3.092740   -3.579257
     39          8           0        6.782745    3.860330   -4.542674
     40          6           0        6.897283    3.754876   -2.134710
     41          6           0        5.841907    4.823505   -2.047969
     42          8           0        4.629625    4.527355   -2.053769
     43          8           0        6.418891    5.993742   -1.734638
     44          6           0        5.423244    7.090912   -1.604025
     45          1           0        7.729306    0.977229    4.174866
     46          1           0        6.741113   -4.677770    1.729775
     47          1           0        6.977292   -2.278461   -4.069082
     48          1           0        7.731817    4.571303    0.783783
     49          1           0        7.444689    3.410583    3.336769
     50          1           0        9.667743    3.406138    1.330805
     51          1           0        9.612093    1.975864    2.406670
     52          1           0        9.762947    3.550392    3.133778
     53          1           0        5.286846    3.768065    2.373825
     54          1           0        5.035990    4.402654    0.698461
     55          1           0        6.726585    6.207152    2.102980
     56          1           0        5.662448    5.590104    3.309097
     57          1           0        7.016426   -0.093270    5.844805
     58          1           0        7.353642   -1.729233    6.264238
     59          1           0        5.650644   -1.203669    6.234325
     60          1           0        6.413339   -3.756828    6.410775
     61          1           0        5.216277   -5.138351    6.115960
     62          1           0        4.754239   -3.419999    5.986665
     63          1           0        6.304312   -5.590158   -0.610572
     64          1           0        7.900985   -4.508079   -2.879432
     65          1           0        8.235676   -6.745424   -0.409122
     66          1           0        9.027490   -5.208763    0.081222
     67          1           0        9.055383   -5.681582   -1.538235
     68          1           0        5.953913   -6.090380   -3.150627
     69          1           0        5.944753   -4.709750   -4.242241
     70          1           0        4.348444   -5.351752   -1.878703
     71          1           0        3.767772   -4.724354   -3.458539
     72          1           0        4.526565   -3.636294   -2.211516
     73          1           0        6.502858    0.784975   -6.013918
     74          1           0        7.013294   -0.907452   -5.675964
     75          1           0        8.229679    0.428192   -5.527545
     76          1           0        7.903091    4.164929   -2.049096
     77          1           0        5.729839    7.885279   -2.284623
     78          1           0        5.362849    7.329750   -0.542086
     79          1           0        4.419973    6.878062   -1.974808
     80         12           0       -6.692236   -0.754218   -0.352343
     81          6           0       -6.541928    2.677717    0.686054
     82          6           0       -5.948080   -1.604944    2.865905
     83          6           0       -6.373122   -3.757506   -1.324891
     84          6           0       -6.289436    0.364078   -3.628448
     85          7           0       -6.316915    0.468346    1.452292
     86          6           0       -6.347515    1.760854    1.740102
     87          6           0       -6.239258    2.085380    3.254206
     88          6           0       -5.494574    0.746126    3.734536
     89          6           0       -5.972876   -0.205516    2.639881
     90          6           0       -3.979723    0.839358    3.657984
     91          6           0       -7.644802    2.236791    3.935040
     92          6           0       -7.618171    2.855075    5.334607
     93          1           0       -8.720626    3.726529    5.731630
     94          7           0       -6.714115   -2.448118    0.681477
     95          6           0       -6.405819   -2.609680    1.985373
     96          6           0       -6.557264   -4.047063    2.259493
     97          6           0       -6.820222   -4.745029    0.971708
     98          6           0       -6.621017   -3.656257    0.036304
     99          6           0       -6.528418   -4.618207    3.647439
    100          6           0       -7.177656   -6.161392    0.636510
    101          8           0       -7.125944   -6.602388   -0.565860
    102          6           0       -7.499751   -7.041840    1.769001
    103          7           0       -6.166009   -1.596442   -2.178836
    104          6           0       -6.154486   -2.930392   -2.347329
    105          6           0       -6.016813   -3.294750   -3.806326
    106          6           0       -6.182045   -1.921720   -4.609489
    107          6           0       -6.302950   -0.945173   -3.419052
    108          6           0       -4.700121   -3.961454   -4.204118
    109          6           0       -7.273338   -1.879404   -5.714006
    110          6           0       -8.645896   -1.972272   -5.087229
    111          7           0       -6.641217    1.163615   -1.345994
    112          6           0       -6.435820    1.406233   -2.721875
    113          6           0       -6.369062    2.871187   -2.900423
    114          6           0       -6.518424    3.382645   -1.602508
    115          6           0       -6.647490    2.311505   -0.677572
    116          6           0       -6.143843    3.549807   -4.131226
    117          6           0       -6.585588    4.584853   -0.803216
    118          8           0       -6.621365    5.790032   -1.048213
    119          6           0       -6.477037    4.179210    0.729774
    120          6           0       -7.559382    4.905723    1.480263
    121          8           0       -8.757623    4.652826    1.263759
    122          8           0       -7.002756    5.617234    2.477397
    123          6           0       -8.037534    6.346848    3.257598
    124          1           0       -5.496983   -1.973724    3.787532
    125          1           0       -6.364450   -4.772720   -1.728329
    126          1           0       -6.263891    0.794546   -4.631798
    127          1           0       -5.634309    2.952463    3.490816
    128          1           0       -5.855120    0.420773    4.706918
    129          1           0       -3.655881    1.751913    3.179970
    130          1           0       -3.660578   -0.021591    3.085311
    131          1           0       -3.543755    0.717472    4.653678
    132          1           0       -8.034486    1.239749    4.177488
    133          1           0       -8.314355    2.792076    3.307368
    134          1           0       -6.654397    3.328688    5.557733
    135          1           0       -7.698645    2.051422    6.070592
    136          1           0       -6.153405   -3.888021    4.375176
    137          1           0       -5.776572   -5.414808    3.649843
    138          1           0       -7.489839   -5.038729    3.949937
    139          1           0       -6.652876   -7.078575    2.450118
    140          1           0       -7.815670   -7.987180    1.323588
    141          1           0       -8.333918   -6.602576    2.327429
    142          1           0       -6.801663   -3.976390   -4.110421
    143          1           0       -5.261162   -1.650323   -5.146296
    144          1           0       -4.838412   -4.947779   -4.685883
    145          1           0       -4.083254   -4.053214   -3.320041
    146          1           0       -4.067231   -3.374486   -4.867517
    147          1           0       -7.175511   -2.743075   -6.376317
    148          1           0       -7.225680   -0.990734   -6.334468
    149          1           0       -8.779801   -3.048763   -4.944736
    150          1           0       -9.401119   -1.565812   -5.756910
    151          1           0       -8.658344   -1.504471   -4.095937
    152          1           0       -6.837310    4.379704   -4.160610
    153          1           0       -6.280915    2.885843   -4.982191
    154          1           0       -5.098407    3.843196   -4.003712
    155          1           0       -5.480903    4.460703    1.073385
    156          1           0       -7.756836    7.404597    3.249732
    157          1           0       -8.079143    5.844046    4.242081
    158          1           0       -9.038486    6.390577    2.844519
 ---------------------------------------------------------------------
 Rotational constants (GHZ):           0.0202522           0.0081081           0.0074548
 Leave Link  202 at Sat Sep 11 13:00:52 2021, MaxMem= 23488102400 cpu:               0.2 elap:               0.0
 (Enter /sw/apps/gaussian-16.0/g16/l301.exe)
 Standard basis: def2SVP (5D, 7F)
 Ernie: Thresh=  0.10000D-02 Tol=  0.10000D-05 Strict=F.
 There are  1658 symmetry adapted cartesian basis functions of A   symmetry.
 There are  1572 symmetry adapted basis functions of A   symmetry.
  1572 basis functions,  2678 primitive gaussians,  1658 cartesian basis functions
   312 alpha electrons      312 beta electrons
       nuclear repulsion energy     14247.9862869335 Hartrees.
 IExCor=20419 DFT=T Ex+Corr=CAM-B3LYP ExCW=0 ScaHFX=  1.000000
 ScaDFX=  1.000000  1.000000  1.000000  0.810000 ScalE2=  1.000000  1.000000
 IRadAn=      5 IRanWt=     -1 IRanGd=            0 ICorTp=0 IEmpDi=  4
 HFx  wShort=  0.000000 wLong=  0.330000 cFull=  0.190000 cShort=  0.000000 cLong=  0.460000
 DFx  wShort=  0.000000 wLong=  0.330000 cFull=  0.190000 cShort=  0.000000 cLong=  0.460000
 NAtoms=  158 NActive=  158 NUniq=  158 SFac= 1.00D+00 NAtFMM=   60 NAOKFM=T Big=T
 Integral buffers will be    131072 words long.
 Raffenetti 1 integral format.
 Two-electron integral symmetry is turned on.
 Leave Link  301 at Sat Sep 11 13:00:52 2021, MaxMem= 23488102400 cpu:               1.3 elap:               0.1
 (Enter /sw/apps/gaussian-16.0/g16/l302.exe)
 NPDir=0 NMtPBC=     1 NCelOv=     1 NCel=       1 NClECP=     1 NCelD=      1
         NCelK=      1 NCelE2=     1 NClLst=     1 CellRange=     0.0.
 One-electron integrals computed using PRISM.
 One-electron integral symmetry used in STVInt
   1 Symmetry operations used in ECPInt.
 ECPInt:  NShTT=  271216 NPrTT=  987664 LenC2=  116462 LenP2D=  254869.
 LDataN:  DoStor=T MaxTD1= 4 Len=   56
 NBasis=  1572 RedAO= T EigKep=  3.36D-04  NBF=  1572
 NBsUse=  1572 1.00D-06 EigRej= -1.00D+00 NBFU=  1572
 Precomputing XC quadrature grid using
 IXCGrd= 4 IRadAn=           5 IRanWt=          -1 IRanGd=           0 AccXCQ= 0.00D+00.
 Generated NRdTot=       0 NPtTot=           0 NUsed=           0 NTot=          32
 NSgBfM=   956   934   943   945   956 MxSgAt=   158 MxSgA2=   156.
 Leave Link  302 at Sat Sep 11 13:00:56 2021, MaxMem= 23488102400 cpu:             110.9 elap:               4.6
 (Enter /sw/apps/gaussian-16.0/g16/l303.exe)
 DipDrv:  MaxL=1.
 Leave Link  303 at Sat Sep 11 13:00:57 2021, MaxMem= 23488102400 cpu:               8.1 elap:               0.4
 (Enter /sw/apps/gaussian-16.0/g16/l308.exe)
 Leave Link  308 at Sat Sep 11 13:00:57 2021, MaxMem= 23488102400 cpu:              16.5 elap:               0.8
 (Enter /sw/apps/gaussian-16.0/g16/l401.exe)
 ExpMin= 3.36D-02 ExpMax= 4.95D+03 ExpMxC= 7.45D+02 IAcc=3 IRadAn=         5 AccDes= 0.00D+00
 Harris functional with IExCor=20419 and IRadAn=       5 diagonalized for initial guess.
 HarFok:  IExCor=20419 AccDes= 0.00D+00 IRadAn=         5 IDoV= 1 UseB2=F ITyADJ=14
 ICtDFT=  3500011 ScaDFX=  1.000000  1.000000  1.000000  1.000000
 FoFCou: FMM=F IPFlag=           0 FMFlag=      100000 FMFlg1=        2001
         NFxFlg=           0 DoJE=T BraDBF=F KetDBF=T FulRan=T
         wScrn=  0.000000 ICntrl=       500 IOpCl=  0 I1Cent=   200000004 NGrid=           0
         NMat0=    1 NMatS0=      1 NMatT0=    0 NMatD0=    1 NMtDS0=    0 NMtDT0=    0
 Petite list used in FoFCou.
 Harris En= -3918.65801690987    
 JPrj=0 DoOrth=F DoCkMO=F.
 Leave Link  401 at Sat Sep 11 13:01:05 2021, MaxMem= 23488102400 cpu:             168.2 elap:               7.0
 (Enter /sw/apps/gaussian-16.0/g16/l502.exe)
 Integral symmetry usage will be decided dynamically.
 Closed shell SCF:
 Using DIIS extrapolation, IDIIS=  1040.
 NGot= 23488102400 LenX= 23482547354 LenY= 23479796732
 Requested convergence on RMS density matrix=1.00D-08 within 128 cycles.
 Requested convergence on MAX density matrix=1.00D-06.
 Requested convergence on             energy=1.00D-06.
 No special actions if energy rises.
 Fock matrices will be formed incrementally for  20 cycles.

 Cycle   1  Pass 1  IDiag  1:
 FoFJK:  IHMeth= 1 ICntrl=       0 DoSepK=T KAlg= 0 I1Cent=           0 FoldK=F
 IRaf=         1 NMat=       1 IRICut=       1 DoRegI=T DoRafI=F ISym2E= 0 IDoP0=0 IntGTp=1.
 FoFCou: FMM=T IPFlag=           0 FMFlag=      100000 FMFlg1=        2001
         NFxFlg=           0 DoJE=T BraDBF=F KetDBF=F FulRan=T
         wScrn=  0.000000 ICntrl=       500 IOpCl=  0 I1Cent=           0 NGrid=           0
         NMat0=    1 NMatS0=      1 NMatT0=    0 NMatD0=    1 NMtDS0=    0 NMtDT0=    0
 Symmetry not used in FoFCou.
 FMM levels:  10  Number of levels for PrismC:   9
 E= -4068.94878957371    
 DIIS: error= 2.04D-02 at cycle   1 NSaved=   1.
 NSaved= 1 IEnMin= 1 EnMin= -4068.94878957371     IErMin= 1 ErrMin= 2.04D-02
 ErrMax= 2.04D-02  0.00D+00 EMaxC= 1.00D-01 BMatC= 1.69D+00 BMatP= 1.69D+00
 IDIUse=3 WtCom= 7.96D-01 WtEn= 2.04D-01
 Coeff-Com:  0.100D+01
 Coeff-En:   0.100D+01
 Coeff:      0.100D+01
 Gap=     0.120 Goal=   None    Shift=    0.000
 GapD=    0.120 DampG=1.000 DampE=0.500 DampFc=0.5000 IDamp=-1.
 Damping current iteration by 5.00D-01
 RMSDP=1.57D-03 MaxDP=1.35D-01              OVMax= 2.06D-01

 Cycle   2  Pass 1  IDiag  1:
 RMSU=  7.70D-04    CP:  9.82D-01
 E= -4069.33749890285     Delta-E=       -0.388709329138 Rises=F Damp=T
 DIIS: error= 1.27D-02 at cycle   2 NSaved=   2.
 NSaved= 2 IEnMin= 2 EnMin= -4069.33749890285     IErMin= 2 ErrMin= 1.27D-02
 ErrMax= 1.27D-02  0.00D+00 EMaxC= 1.00D-01 BMatC= 3.07D-01 BMatP= 1.69D+00
 IDIUse=3 WtCom= 8.73D-01 WtEn= 1.27D-01
 Coeff-Com: -0.213D+00 0.121D+01
 Coeff-En:   0.000D+00 0.100D+01
 Coeff:     -0.186D+00 0.119D+01
 Gap=     0.136 Goal=   None    Shift=    0.000
 RMSDP=7.66D-04 MaxDP=9.42D-02 DE=-3.89D-01 OVMax= 1.92D-01

 Cycle   3  Pass 1  IDiag  1:
 RMSU=  7.34D-04    CP:  9.68D-01  1.24D+00
 E= -4069.62596576217     Delta-E=       -0.288466859321 Rises=F Damp=F
 DIIS: error= 1.57D-02 at cycle   3 NSaved=   3.
 NSaved= 3 IEnMin= 3 EnMin= -4069.62596576217     IErMin= 2 ErrMin= 1.27D-02
 ErrMax= 1.57D-02  0.00D+00 EMaxC= 1.00D-01 BMatC= 2.03D-01 BMatP= 3.07D-01
 IDIUse=3 WtCom= 8.43D-01 WtEn= 1.57D-01
 Coeff-Com: -0.267D+00 0.652D+00 0.615D+00
 Coeff-En:   0.000D+00 0.000D+00 0.100D+01
 Coeff:     -0.225D+00 0.550D+00 0.675D+00
 Gap=     0.123 Goal=   None    Shift=    0.000
 RMSDP=5.12D-04 MaxDP=4.93D-02 DE=-2.88D-01 OVMax= 1.49D-01

 Cycle   4  Pass 1  IDiag  1:
 RMSU=  2.67D-04    CP:  9.65D-01  1.55D+00  5.03D-01
 E= -4069.76389926032     Delta-E=       -0.137933498147 Rises=F Damp=F
 DIIS: error= 7.27D-03 at cycle   4 NSaved=   4.
 NSaved= 4 IEnMin= 4 EnMin= -4069.76389926032     IErMin= 4 ErrMin= 7.27D-03
 ErrMax= 7.27D-03  0.00D+00 EMaxC= 1.00D-01 BMatC= 5.10D-02 BMatP= 2.03D-01
 IDIUse=3 WtCom= 9.27D-01 WtEn= 7.27D-02
 Coeff-Com: -0.109D+00 0.227D+00 0.409D+00 0.473D+00
 Coeff-En:   0.000D+00 0.000D+00 0.223D+00 0.777D+00
 Coeff:     -0.101D+00 0.210D+00 0.396D+00 0.495D+00
 Gap=     0.122 Goal=   None    Shift=    0.000
 RMSDP=2.03D-04 MaxDP=2.06D-02 DE=-1.38D-01 OVMax= 6.62D-02

 Cycle   5  Pass 1  IDiag  1:
 RMSU=  7.74D-05    CP:  9.64D-01  1.49D+00  6.88D-01  5.46D-01
 E= -4069.81034470657     Delta-E=       -0.046445446249 Rises=F Damp=F
 DIIS: error= 7.66D-04 at cycle   5 NSaved=   5.
 NSaved= 5 IEnMin= 5 EnMin= -4069.81034470657     IErMin= 5 ErrMin= 7.66D-04
 ErrMax= 7.66D-04  0.00D+00 EMaxC= 1.00D-01 BMatC= 1.24D-03 BMatP= 5.10D-02
 IDIUse=3 WtCom= 9.92D-01 WtEn= 7.66D-03
 Coeff-Com: -0.367D-01 0.722D-01 0.169D+00 0.252D+00 0.544D+00
 Coeff-En:   0.000D+00 0.000D+00 0.000D+00 0.000D+00 0.100D+01
 Coeff:     -0.365D-01 0.717D-01 0.167D+00 0.250D+00 0.547D+00
 Gap=     0.121 Goal=   None    Shift=    0.000
 RMSDP=4.27D-05 MaxDP=4.20D-03 DE=-4.64D-02 OVMax= 1.85D-02

 Cycle   6  Pass 1  IDiag  1:
 RMSU=  3.13D-05    CP:  9.64D-01  1.49D+00  6.80D-01  6.20D-01  7.43D-01
 E= -4069.81144119385     Delta-E=       -0.001096487282 Rises=F Damp=F
 DIIS: error= 1.97D-04 at cycle   6 NSaved=   6.
 NSaved= 6 IEnMin= 6 EnMin= -4069.81144119385     IErMin= 6 ErrMin= 1.97D-04
 ErrMax= 1.97D-04  0.00D+00 EMaxC= 1.00D-01 BMatC= 1.89D-04 BMatP= 1.24D-03
 IDIUse=3 WtCom= 9.98D-01 WtEn= 1.97D-03
 Coeff-Com:  0.211D-02-0.641D-02 0.119D-01 0.412D-01 0.306D+00 0.645D+00
 Coeff-En:   0.000D+00 0.000D+00 0.000D+00 0.000D+00 0.112D+00 0.888D+00
 Coeff:      0.210D-02-0.640D-02 0.119D-01 0.411D-01 0.306D+00 0.645D+00
 Gap=     0.122 Goal=   None    Shift=    0.000
 RMSDP=1.67D-05 MaxDP=1.18D-03 DE=-1.10D-03 OVMax= 7.87D-03

 Cycle   7  Pass 1  IDiag  1:
 RMSU=  1.10D-05    CP:  9.64D-01  1.49D+00  6.86D-01  6.19D-01  8.50D-01
                    CP:  7.42D-01
 E= -4069.81164846122     Delta-E=       -0.000207267371 Rises=F Damp=F
 DIIS: error= 9.12D-05 at cycle   7 NSaved=   7.
 NSaved= 7 IEnMin= 7 EnMin= -4069.81164846122     IErMin= 7 ErrMin= 9.12D-05
 ErrMax= 9.12D-05  0.00D+00 EMaxC= 1.00D-01 BMatC= 2.33D-05 BMatP= 1.89D-04
 IDIUse=1 WtCom= 1.00D+00 WtEn= 0.00D+00
 Coeff-Com:  0.453D-02-0.993D-02-0.890D-02-0.336D-02 0.106D+00 0.335D+00
 Coeff-Com:  0.577D+00
 Coeff:      0.453D-02-0.993D-02-0.890D-02-0.336D-02 0.106D+00 0.335D+00
 Coeff:      0.577D+00
 Gap=     0.122 Goal=   None    Shift=    0.000
 RMSDP=6.65D-06 MaxDP=1.10D-03 DE=-2.07D-04 OVMax= 3.55D-03

 Cycle   8  Pass 1  IDiag  1:
 RMSU=  4.76D-06    CP:  9.64D-01  1.50D+00  6.86D-01  6.24D-01  8.52D-01
                    CP:  8.66D-01  8.16D-01
 E= -4069.81167726299     Delta-E=       -0.000028801776 Rises=F Damp=F
 DIIS: error= 5.18D-05 at cycle   8 NSaved=   8.
 NSaved= 8 IEnMin= 8 EnMin= -4069.81167726299     IErMin= 8 ErrMin= 5.18D-05
 ErrMax= 5.18D-05  0.00D+00 EMaxC= 1.00D-01 BMatC= 4.94D-06 BMatP= 2.33D-05
 IDIUse=1 WtCom= 1.00D+00 WtEn= 0.00D+00
 Coeff-Com:  0.219D-02-0.434D-02-0.781D-02-0.121D-01-0.101D-01 0.331D-01
 Coeff-Com:  0.331D+00 0.668D+00
 Coeff:      0.219D-02-0.434D-02-0.781D-02-0.121D-01-0.101D-01 0.331D-01
 Coeff:      0.331D+00 0.668D+00
 Gap=     0.122 Goal=   None    Shift=    0.000
 RMSDP=3.34D-06 MaxDP=3.91D-04 DE=-2.88D-05 OVMax= 1.09D-03

 Cycle   9  Pass 1  IDiag  1:
 RMSU=  1.94D-06    CP:  9.64D-01  1.50D+00  6.87D-01  6.25D-01  8.69D-01
                    CP:  8.92D-01  1.01D+00  9.58D-01
 E= -4069.81168520046     Delta-E=       -0.000007937466 Rises=F Damp=F
 DIIS: error= 1.98D-05 at cycle   9 NSaved=   9.
 NSaved= 9 IEnMin= 9 EnMin= -4069.81168520046     IErMin= 9 ErrMin= 1.98D-05
 ErrMax= 1.98D-05  0.00D+00 EMaxC= 1.00D-01 BMatC= 7.30D-07 BMatP= 4.94D-06
 IDIUse=1 WtCom= 1.00D+00 WtEn= 0.00D+00
 Coeff-Com:  0.472D-03-0.783D-03-0.270D-02-0.604D-02-0.207D-01-0.399D-01
 Coeff-Com:  0.988D-01 0.332D+00 0.639D+00
 Coeff:      0.472D-03-0.783D-03-0.270D-02-0.604D-02-0.207D-01-0.399D-01
 Coeff:      0.988D-01 0.332D+00 0.639D+00
 Gap=     0.122 Goal=   None    Shift=    0.000
 RMSDP=1.45D-06 MaxDP=1.52D-04 DE=-7.94D-06 OVMax= 7.48D-04

 Cycle  10  Pass 1  IDiag  1:
 RMSU=  9.56D-07    CP:  9.64D-01  1.50D+00  6.87D-01  6.25D-01  8.72D-01
                    CP:  9.05D-01  1.06D+00  1.12D+00  1.06D+00
 E= -4069.81168687119     Delta-E=       -0.000001670731 Rises=F Damp=F
 DIIS: error= 1.03D-05 at cycle  10 NSaved=  10.
 NSaved=10 IEnMin=10 EnMin= -4069.81168687119     IErMin=10 ErrMin= 1.03D-05
 ErrMax= 1.03D-05  0.00D+00 EMaxC= 1.00D-01 BMatC= 1.77D-07 BMatP= 7.30D-07
 IDIUse=1 WtCom= 1.00D+00 WtEn= 0.00D+00
 Coeff-Com: -0.429D-03 0.900D-03 0.123D-02 0.109D-02-0.368D-02-0.313D-01
 Coeff-Com: -0.448D-01-0.751D-01 0.245D+00 0.907D+00
 Coeff:     -0.429D-03 0.900D-03 0.123D-02 0.109D-02-0.368D-02-0.313D-01
 Coeff:     -0.448D-01-0.751D-01 0.245D+00 0.907D+00
 Gap=     0.122 Goal=   None    Shift=    0.000
 RMSDP=1.25D-06 MaxDP=1.26D-04 DE=-1.67D-06 OVMax= 6.33D-04

 Cycle  11  Pass 1  IDiag  1:
 RMSU=  5.34D-07    CP:  9.64D-01  1.50D+00  6.87D-01  6.26D-01  8.75D-01
                    CP:  9.15D-01  1.10D+00  1.24D+00  1.40D+00  1.37D+00
 E= -4069.81168769354     Delta-E=       -0.000000822347 Rises=F Damp=F
 DIIS: error= 4.16D-06 at cycle  11 NSaved=  11.
 NSaved=11 IEnMin=11 EnMin= -4069.81168769354     IErMin=11 ErrMin= 4.16D-06
 ErrMax= 4.16D-06  0.00D+00 EMaxC= 1.00D-01 BMatC= 6.75D-08 BMatP= 1.77D-07
 IDIUse=1 WtCom= 1.00D+00 WtEn= 0.00D+00
 Coeff-Com: -0.336D-03 0.654D-03 0.135D-02 0.213D-02 0.439D-02-0.865D-02
 Coeff-Com: -0.421D-01-0.133D+00-0.310D-01 0.481D+00 0.725D+00
 Coeff:     -0.336D-03 0.654D-03 0.135D-02 0.213D-02 0.439D-02-0.865D-02
 Coeff:     -0.421D-01-0.133D+00-0.310D-01 0.481D+00 0.725D+00
 Gap=     0.122 Goal=   None    Shift=    0.000
 RMSDP=7.08D-07 MaxDP=6.22D-05 DE=-8.22D-07 OVMax= 3.91D-04

 Cycle  12  Pass 1  IDiag  1:
 RMSU=  2.71D-07    CP:  9.64D-01  1.50D+00  6.87D-01  6.26D-01  8.76D-01
                    CP:  9.17D-01  1.13D+00  1.30D+00  1.57D+00  1.76D+00
                    CP:  1.19D+00
 E= -4069.81168797304     Delta-E=       -0.000000279499 Rises=F Damp=F
 DIIS: error= 2.51D-06 at cycle  12 NSaved=  12.
 NSaved=12 IEnMin=12 EnMin= -4069.81168797304     IErMin=12 ErrMin= 2.51D-06
 ErrMax= 2.51D-06  0.00D+00 EMaxC= 1.00D-01 BMatC= 1.64D-08 BMatP= 6.75D-08
 IDIUse=1 WtCom= 1.00D+00 WtEn= 0.00D+00
 Coeff-Com: -0.956D-05 0.173D-05 0.220D-03 0.570D-03 0.347D-02 0.380D-02
 Coeff-Com:  0.177D-02-0.375D-01-0.722D-01-0.564D-01 0.261D+00 0.896D+00
 Coeff:     -0.956D-05 0.173D-05 0.220D-03 0.570D-03 0.347D-02 0.380D-02
 Coeff:      0.177D-02-0.375D-01-0.722D-01-0.564D-01 0.261D+00 0.896D+00
 Gap=     0.122 Goal=   None    Shift=    0.000
 RMSDP=4.44D-07 MaxDP=3.20D-05 DE=-2.79D-07 OVMax= 2.53D-04

 Cycle  13  Pass 1  IDiag  1:
 RMSU=  1.70D-07    CP:  9.64D-01  1.50D+00  6.87D-01  6.26D-01  8.76D-01
                    CP:  9.18D-01  1.13D+00  1.33D+00  1.68D+00  1.99D+00
                    CP:  1.60D+00  1.24D+00
 E= -4069.81168806977     Delta-E=       -0.000000096730 Rises=F Damp=F
 DIIS: error= 1.30D-06 at cycle  13 NSaved=  13.
 NSaved=13 IEnMin=13 EnMin= -4069.81168806977     IErMin=13 ErrMin= 1.30D-06
 ErrMax= 1.30D-06  0.00D+00 EMaxC= 1.00D-01 BMatC= 8.81D-09 BMatP= 1.64D-08
 IDIUse=1 WtCom= 1.00D+00 WtEn= 0.00D+00
 Coeff-Com:  0.121D-03-0.247D-03-0.367D-03-0.448D-03 0.677D-03 0.504D-02
 Coeff-Com:  0.191D-01 0.231D-01-0.341D-01-0.240D+00-0.157D+00 0.587D+00
 Coeff-Com:  0.797D+00
 Coeff:      0.121D-03-0.247D-03-0.367D-03-0.448D-03 0.677D-03 0.504D-02
 Coeff:      0.191D-01 0.231D-01-0.341D-01-0.240D+00-0.157D+00 0.587D+00
 Coeff:      0.797D+00
 Gap=     0.122 Goal=   None    Shift=    0.000
 RMSDP=3.56D-07 MaxDP=2.45D-05 DE=-9.67D-08 OVMax= 2.14D-04

 Cycle  14  Pass 1  IDiag  1:
 RMSU=  7.85D-08    CP:  9.64D-01  1.50D+00  6.87D-01  6.26D-01  8.76D-01
                    CP:  9.18D-01  1.14D+00  1.35D+00  1.76D+00  2.19D+00
                    CP:  1.86D+00  1.77D+00  1.10D+00
 E= -4069.81168810923     Delta-E=       -0.000000039461 Rises=F Damp=F
 DIIS: error= 7.12D-07 at cycle  14 NSaved=  14.
 NSaved=14 IEnMin=14 EnMin= -4069.81168810923     IErMin=14 ErrMin= 7.12D-07
 ErrMax= 7.12D-07  0.00D+00 EMaxC= 1.00D-01 BMatC= 1.37D-09 BMatP= 8.81D-09
 IDIUse=1 WtCom= 1.00D+00 WtEn= 0.00D+00
 Coeff-Com:  0.684D-04-0.135D-03-0.253D-03-0.394D-03-0.455D-03 0.130D-02
 Coeff-Com:  0.105D-01 0.199D-01 0.405D-02-0.103D+00-0.145D+00 0.872D-01
 Coeff-Com:  0.411D+00 0.714D+00
 Coeff:      0.684D-04-0.135D-03-0.253D-03-0.394D-03-0.455D-03 0.130D-02
 Coeff:      0.105D-01 0.199D-01 0.405D-02-0.103D+00-0.145D+00 0.872D-01
 Coeff:      0.411D+00 0.714D+00
 Gap=     0.122 Goal=   None    Shift=    0.000
 RMSDP=1.08D-07 MaxDP=7.26D-06 DE=-3.95D-08 OVMax= 5.87D-05

 Cycle  15  Pass 1  IDiag  1:
 RMSU=  3.92D-08    CP:  9.64D-01  1.50D+00  6.87D-01  6.26D-01  8.76D-01
                    CP:  9.18D-01  1.14D+00  1.36D+00  1.77D+00  2.23D+00
                    CP:  1.97D+00  1.91D+00  1.34D+00  1.03D+00
 E= -4069.81168811367     Delta-E=       -0.000000004446 Rises=F Damp=F
 DIIS: error= 3.34D-07 at cycle  15 NSaved=  15.
 NSaved=15 IEnMin=15 EnMin= -4069.81168811367     IErMin=15 ErrMin= 3.34D-07
 ErrMax= 3.34D-07  0.00D+00 EMaxC= 1.00D-01 BMatC= 2.27D-10 BMatP= 1.37D-09
 IDIUse=1 WtCom= 1.00D+00 WtEn= 0.00D+00
 Coeff-Com:  0.611D-05-0.104D-04-0.354D-04-0.859D-04-0.298D-03-0.514D-03
 Coeff-Com:  0.117D-02 0.281D-02 0.878D-02 0.651D-03-0.306D-01-0.725D-01
 Coeff-Com:  0.350D-01 0.292D+00 0.764D+00
 Coeff:      0.611D-05-0.104D-04-0.354D-04-0.859D-04-0.298D-03-0.514D-03
 Coeff:      0.117D-02 0.281D-02 0.878D-02 0.651D-03-0.306D-01-0.725D-01
 Coeff:      0.350D-01 0.292D+00 0.764D+00
 Gap=     0.122 Goal=   None    Shift=    0.000
 RMSDP=3.96D-08 MaxDP=2.78D-06 DE=-4.45D-09 OVMax= 2.88D-05

 Cycle  16  Pass 1  IDiag  1:
 RMSU=  1.93D-08    CP:  9.64D-01  1.50D+00  6.87D-01  6.26D-01  8.76D-01
                    CP:  9.18D-01  1.14D+00  1.36D+00  1.78D+00  2.24D+00
                    CP:  1.99D+00  1.96D+00  1.42D+00  1.24D+00  1.14D+00
 E= -4069.81168811452     Delta-E=       -0.000000000844 Rises=F Damp=F
 DIIS: error= 1.92D-07 at cycle  16 NSaved=  16.
 NSaved=16 IEnMin=16 EnMin= -4069.81168811452     IErMin=16 ErrMin= 1.92D-07
 ErrMax= 1.92D-07  0.00D+00 EMaxC= 1.00D-01 BMatC= 9.11D-11 BMatP= 2.27D-10
 IDIUse=1 WtCom= 1.00D+00 WtEn= 0.00D+00
 Coeff-Com: -0.141D-04 0.286D-04 0.460D-04 0.512D-04-0.375D-04-0.637D-03
 Coeff-Com: -0.188D-02-0.418D-02 0.439D-02 0.252D-01 0.205D-01-0.647D-01
 Coeff-Com: -0.794D-01-0.401D-01 0.410D+00 0.731D+00
 Coeff:     -0.141D-04 0.286D-04 0.460D-04 0.512D-04-0.375D-04-0.637D-03
 Coeff:     -0.188D-02-0.418D-02 0.439D-02 0.252D-01 0.205D-01-0.647D-01
 Coeff:     -0.794D-01-0.401D-01 0.410D+00 0.731D+00
 Gap=     0.122 Goal=   None    Shift=    0.000
 RMSDP=2.38D-08 MaxDP=1.66D-06 DE=-8.44D-10 OVMax= 1.28D-05

 Cycle  17  Pass 1  IDiag  1:
 RMSU=  1.08D-08    CP:  9.64D-01  1.50D+00  6.87D-01  6.26D-01  8.76D-01
                    CP:  9.18D-01  1.14D+00  1.36D+00  1.78D+00  2.25D+00
                    CP:  2.01D+00  1.99D+00  1.46D+00  1.34D+00  1.43D+00
                    CP:  1.22D+00
 E= -4069.81168811478     Delta-E=       -0.000000000262 Rises=F Damp=F
 DIIS: error= 9.48D-08 at cycle  17 NSaved=  17.
 NSaved=17 IEnMin=17 EnMin= -4069.81168811478     IErMin=17 ErrMin= 9.48D-08
 ErrMax= 9.48D-08  0.00D+00 EMaxC= 1.00D-01 BMatC= 1.87D-11 BMatP= 9.11D-11
 IDIUse=1 WtCom= 1.00D+00 WtEn= 0.00D+00
 Coeff-Com: -0.758D-05 0.148D-04 0.296D-04 0.434D-04 0.797D-04-0.140D-03
 Coeff-Com: -0.954D-03-0.289D-02 0.124D-03 0.994D-02 0.179D-01-0.879D-02
 Coeff-Com: -0.365D-01-0.102D+00-0.141D-01 0.289D+00 0.848D+00
 Coeff:     -0.758D-05 0.148D-04 0.296D-04 0.434D-04 0.797D-04-0.140D-03
 Coeff:     -0.954D-03-0.289D-02 0.124D-03 0.994D-02 0.179D-01-0.879D-02
 Coeff:     -0.365D-01-0.102D+00-0.141D-01 0.289D+00 0.848D+00
 Gap=     0.122 Goal=   None    Shift=    0.000
 RMSDP=1.37D-08 MaxDP=1.10D-06 DE=-2.62D-10 OVMax= 9.97D-06

 Cycle  18  Pass 1  IDiag  1:
 RMSU=  5.45D-09    CP:  9.64D-01  1.50D+00  6.87D-01  6.26D-01  8.76D-01
                    CP:  9.18D-01  1.14D+00  1.36D+00  1.78D+00  2.25D+00
                    CP:  2.01D+00  1.99D+00  1.48D+00  1.40D+00  1.60D+00
                    CP:  1.62D+00  1.34D+00
 E= -4069.81168811501     Delta-E=       -0.000000000226 Rises=F Damp=F
 DIIS: error= 7.12D-08 at cycle  18 NSaved=  18.
 NSaved=18 IEnMin=18 EnMin= -4069.81168811501     IErMin=18 ErrMin= 7.12D-08
 ErrMax= 7.12D-08  0.00D+00 EMaxC= 1.00D-01 BMatC= 8.67D-12 BMatP= 1.87D-11
 IDIUse=1 WtCom= 1.00D+00 WtEn= 0.00D+00
 Coeff-Com:  0.880D-06-0.210D-05-0.191D-06 0.446D-05 0.660D-04 0.152D-03
 Coeff-Com:  0.232D-03-0.155D-03-0.121D-02-0.435D-02 0.210D-02 0.170D-01
 Coeff-Com:  0.122D-01-0.427D-01-0.150D+00-0.149D+00 0.436D+00 0.879D+00
 Coeff:      0.880D-06-0.210D-05-0.191D-06 0.446D-05 0.660D-04 0.152D-03
 Coeff:      0.232D-03-0.155D-03-0.121D-02-0.435D-02 0.210D-02 0.170D-01
 Coeff:      0.122D-01-0.427D-01-0.150D+00-0.149D+00 0.436D+00 0.879D+00
 Gap=     0.122 Goal=   None    Shift=    0.000
 RMSDP=1.11D-08 MaxDP=7.66D-07 DE=-2.26D-10 OVMax= 5.99D-06

 Cycle  19  Pass 1  IDiag  1:
 RMSU=  3.21D-09    CP:  9.64D-01  1.50D+00  6.87D-01  6.26D-01  8.76D-01
                    CP:  9.18D-01  1.14D+00  1.36D+00  1.78D+00  2.25D+00
                    CP:  2.01D+00  2.00D+00  1.49D+00  1.44D+00  1.74D+00
                    CP:  1.90D+00  1.86D+00  1.19D+00
 E= -4069.81168811503     Delta-E=       -0.000000000022 Rises=F Damp=F
 DIIS: error= 2.73D-08 at cycle  19 NSaved=  19.
 NSaved=19 IEnMin=19 EnMin= -4069.81168811503     IErMin=19 ErrMin= 2.73D-08
 ErrMax= 2.73D-08  0.00D+00 EMaxC= 1.00D-01 BMatC= 2.34D-12 BMatP= 8.67D-12
 IDIUse=1 WtCom= 1.00D+00 WtEn= 0.00D+00
 Coeff-Com:  0.313D-05-0.634D-05-0.103D-04-0.122D-04 0.196D-04 0.141D-03
 Coeff-Com:  0.501D-03 0.837D-03-0.722D-03-0.653D-02-0.484D-02 0.138D-01
 Coeff-Com:  0.220D-01 0.822D-02-0.870D-01-0.204D+00 0.735D-02 0.531D+00
 Coeff-Com:  0.719D+00
 Coeff:      0.313D-05-0.634D-05-0.103D-04-0.122D-04 0.196D-04 0.141D-03
 Coeff:      0.501D-03 0.837D-03-0.722D-03-0.653D-02-0.484D-02 0.138D-01
 Coeff:      0.220D-01 0.822D-02-0.870D-01-0.204D+00 0.735D-02 0.531D+00
 Coeff:      0.719D+00
 Gap=     0.122 Goal=   None    Shift=    0.000
 RMSDP=5.66D-09 MaxDP=4.42D-07 DE=-2.18D-11 OVMax= 4.07D-06

 SCF Done:  E(RCAM-B3LYP) =  -4069.81168812     A.U. after   19 cycles
            NFock= 19  Conv=0.57D-08     -V/T= 2.0102
 KE= 4.028801918680D+03 PE=-3.797695020582D+04 EE= 1.563035031209D+04
 Leave Link  502 at Sat Sep 11 13:09:53 2021, MaxMem= 23488102400 cpu:           12121.0 elap:             529.0
 (Enter /sw/apps/gaussian-16.0/g16/l801.exe)
 DoSCS=F DFT=T ScalE2(SS,OS)=  1.000000  1.000000
 ExpMin= 3.36D-02 ExpMax= 4.95D+03 ExpMxC= 7.45D+02 IAcc=3 IRadAn=         5 AccDes= 0.00D+00
 HarFok:  IExCor=  205 AccDes= 0.00D+00 IRadAn=         5 IDoV=-2 UseB2=F ITyADJ=14
 ICtDFT= 12500011 ScaDFX=  1.000000  1.000000  1.000000  1.000000
 GSVD:  LWork=       -9588 too small for GESVD, short by       45590 words or       45590 for optimal perf.
 Largest valence mixing into a core orbital is  2.03D-04
 Largest core mixing into a valence orbital is  5.24D-05
 Range of M.O.s used for correlation:    95  1572
 NBasis=  1572 NAE=   312 NBE=   312 NFC=    94 NFV=     0
 NROrb=   1478 NOA=   218 NOB=   218 NVA=  1260 NVB=  1260
 Leave Link  801 at Sat Sep 11 13:09:54 2021, MaxMem= 23488102400 cpu:               8.8 elap:               0.4
 (Enter /sw/apps/gaussian-16.0/g16/l914.exe)
 RHF ground state
 Two-electron integrals replicated using symmetry.
 MDV= 23488102400 DFT=T DoStab=F Mixed=T DoRPA=T DoScal=F NonHer=T
 Making orbital integer symmetry assigments:
 Orbital symmetries:
       Occupied  (A) (A) (A) (A) (A) (A) (A) (A) (A) (A) (A) (A)
                 (A) (A) (A) (A) (A) (A) (A) (A) (A) (A) (A) (A)
                 (A) (A) (A) (A) (A) (A) (A) (A) (A) (A) (A) (A)
                 (A) (A) (A) (A) (A) (A) (A) (A) (A) (A) (A) (A)
                 (A) (A) (A) (A) (A) (A) (A) (A) (A) (A) (A) (A)
                 (A) (A) (A) (A) (A) (A) (A) (A) (A) (A) (A) (A)
                 (A) (A) (A) (A) (A) (A) (A) (A) (A) (A) (A) (A)
                 (A) (A) (A) (A) (A) (A) (A) (A) (A) (A) (A) (A)
                 (A) (A) (A) (A) (A) (A) (A) (A) (A) (A) (A) (A)
                 (A) (A) (A) (A) (A) (A) (A) (A) (A) (A) (A) (A)
                 (A) (A) (A) (A) (A) (A) (A) (A) (A) (A) (A) (A)
                 (A) (A) (A) (A) (A) (A) (A) (A) (A) (A) (A) (A)
                 (A) (A) (A) (A) (A) (A) (A) (A) (A) (A) (A) (A)
                 (A) (A) (A) (A) (A) (A) (A) (A) (A) (A) (A) (A)
                 (A) (A) (A) (A) (A) (A) (A) (A) (A) (A) (A) (A)
                 (A) (A) (A) (A) (A) (A) (A) (A) (A) (A) (A) (A)
                 (A) (A) (A) (A) (A) (A) (A) (A) (A) (A) (A) (A)
                 (A) (A) (A) (A) (A) (A) (A) (A) (A) (A) (A) (A)
                 (A) (A) (A) (A) (A) (A) (A) (A) (A) (A) (A) (A)
                 (A) (A) (A) (A) (A) (A) (A) (A) (A) (A) (A) (A)
                 (A) (A) (A) (A) (A) (A) (A) (A) (A) (A) (A) (A)
                 (A) (A) (A) (A) (A) (A) (A) (A) (A) (A) (A) (A)
                 (A) (A) (A) (A) (A) (A) (A) (A) (A) (A) (A) (A)
                 (A) (A) (A) (A) (A) (A) (A) (A) (A) (A) (A) (A)
                 (A) (A) (A) (A) (A) (A) (A) (A) (A) (A) (A) (A)
                 (A) (A) (A) (A) (A) (A) (A) (A) (A) (A) (A) (A)
       Virtual   (A) (A) (A) (A) (A) (A) (A) (A) (A) (A) (A) (A)
                 (A) (A) (A) (A) (A) (A) (A) (A) (A) (A) (A) (A)
                 (A) (A) (A) (A) (A) (A) (A) (A) (A) (A) (A) (A)
                 (A) (A) (A) (A) (A) (A) (A) (A) (A) (A) (A) (A)
                 (A) (A) (A) (A) (A) (A) (A) (A) (A) (A) (A) (A)
                 (A) (A) (A) (A) (A) (A) (A) (A) (A) (A) (A) (A)
                 (A) (A) (A) (A) (A) (A) (A) (A) (A) (A) (A) (A)
                 (A) (A) (A) (A) (A) (A) (A) (A) (A) (A) (A) (A)
                 (A) (A) (A) (A) (A) (A) (A) (A) (A) (A) (A) (A)
                 (A) (A) (A) (A) (A) (A) (A) (A) (A) (A) (A) (A)
                 (A) (A) (A) (A) (A) (A) (A) (A) (A) (A) (A) (A)
                 (A) (A) (A) (A) (A) (A) (A) (A) (A) (A) (A) (A)
                 (A) (A) (A) (A) (A) (A) (A) (A) (A) (A) (A) (A)
                 (A) (A) (A) (A) (A) (A) (A) (A) (A) (A) (A) (A)
                 (A) (A) (A) (A) (A) (A) (A) (A) (A) (A) (A) (A)
                 (A) (A) (A) (A) (A) (A) (A) (A) (A) (A) (A) (A)
                 (A) (A) (A) (A) (A) (A) (A) (A) (A) (A) (A) (A)
                 (A) (A) (A) (A) (A) (A) (A) (A) (A) (A) (A) (A)
                 (A) (A) (A) (A) (A) (A) (A) (A) (A) (A) (A) (A)
                 (A) (A) (A) (A) (A) (A) (A) (A) (A) (A) (A) (A)
                 (A) (A) (A) (A) (A) (A) (A) (A) (A) (A) (A) (A)
                 (A) (A) (A) (A) (A) (A) (A) (A) (A) (A) (A) (A)
                 (A) (A) (A) (A) (A) (A) (A) (A) (A) (A) (A) (A)
                 (A) (A) (A) (A) (A) (A) (A) (A) (A) (A) (A) (A)
                 (A) (A) (A) (A) (A) (A) (A) (A) (A) (A) (A) (A)
                 (A) (A) (A) (A) (A) (A) (A) (A) (A) (A) (A) (A)
                 (A) (A) (A) (A) (A) (A) (A) (A) (A) (A) (A) (A)
                 (A) (A) (A) (A) (A) (A) (A) (A) (A) (A) (A) (A)
                 (A) (A) (A) (A) (A) (A) (A) (A) (A) (A) (A) (A)
                 (A) (A) (A) (A) (A) (A) (A) (A) (A) (A) (A) (A)
                 (A) (A) (A) (A) (A) (A) (A) (A) (A) (A) (A) (A)
                 (A) (A) (A) (A) (A) (A) (A) (A) (A) (A) (A) (A)
                 (A) (A) (A) (A) (A) (A) (A) (A) (A) (A) (A) (A)
                 (A) (A) (A) (A) (A) (A) (A) (A) (A) (A) (A) (A)
                 (A) (A) (A) (A) (A) (A) (A) (A) (A) (A) (A) (A)
                 (A) (A) (A) (A) (A) (A) (A) (A) (A) (A) (A) (A)
                 (A) (A) (A) (A) (A) (A) (A) (A) (A) (A) (A) (A)
                 (A) (A) (A) (A) (A) (A) (A) (A) (A) (A) (A) (A)
                 (A) (A) (A) (A) (A) (A) (A) (A) (A) (A) (A) (A)
                 (A) (A) (A) (A) (A) (A) (A) (A) (A) (A) (A) (A)
                 (A) (A) (A) (A) (A) (A) (A) (A) (A) (A) (A) (A)
                 (A) (A) (A) (A) (A) (A) (A) (A) (A) (A) (A) (A)
                 (A) (A) (A) (A) (A) (A) (A) (A) (A) (A) (A) (A)
                 (A) (A) (A) (A) (A) (A) (A) (A) (A) (A) (A) (A)
                 (A) (A) (A) (A) (A) (A) (A) (A) (A) (A) (A) (A)
                 (A) (A) (A) (A) (A) (A) (A) (A) (A) (A) (A) (A)
                 (A) (A) (A) (A) (A) (A) (A) (A) (A) (A) (A) (A)
                 (A) (A) (A) (A) (A) (A) (A) (A) (A) (A) (A) (A)
                 (A) (A) (A) (A) (A) (A) (A) (A) (A) (A) (A) (A)
                 (A) (A) (A) (A) (A) (A) (A) (A) (A) (A) (A) (A)
                 (A) (A) (A) (A) (A) (A) (A) (A) (A) (A) (A) (A)
                 (A) (A) (A) (A) (A) (A) (A) (A) (A) (A) (A) (A)
                 (A) (A) (A) (A) (A) (A) (A) (A) (A) (A) (A) (A)
                 (A) (A) (A) (A) (A) (A) (A) (A) (A) (A) (A) (A)
                 (A) (A) (A) (A) (A) (A) (A) (A) (A) (A) (A) (A)
                 (A) (A) (A) (A) (A) (A) (A) (A) (A) (A) (A) (A)
                 (A) (A) (A) (A) (A) (A) (A) (A) (A) (A) (A) (A)
                 (A) (A) (A) (A) (A) (A) (A) (A) (A) (A) (A) (A)
                 (A) (A) (A) (A) (A) (A) (A) (A) (A) (A) (A) (A)
                 (A) (A) (A) (A) (A) (A) (A) (A) (A) (A) (A) (A)
                 (A) (A) (A) (A) (A) (A) (A) (A) (A) (A) (A) (A)
                 (A) (A) (A) (A) (A) (A) (A) (A) (A) (A) (A) (A)
                 (A) (A) (A) (A) (A) (A) (A) (A) (A) (A) (A) (A)
                 (A) (A) (A) (A) (A) (A) (A) (A) (A) (A) (A) (A)
                 (A) (A) (A) (A) (A) (A) (A) (A) (A) (A) (A) (A)
                 (A) (A) (A) (A) (A) (A) (A) (A) (A) (A) (A) (A)
                 (A) (A) (A) (A) (A) (A) (A) (A) (A) (A) (A) (A)
                 (A) (A) (A) (A) (A) (A) (A) (A) (A) (A) (A) (A)
                 (A) (A) (A) (A) (A) (A) (A) (A) (A) (A) (A) (A)
                 (A) (A) (A) (A) (A) (A) (A) (A) (A) (A) (A) (A)
                 (A) (A) (A) (A) (A) (A) (A) (A) (A) (A) (A) (A)
                 (A) (A) (A) (A) (A) (A) (A) (A) (A) (A) (A) (A)
                 (A) (A) (A) (A) (A) (A) (A) (A) (A) (A) (A) (A)
                 (A) (A) (A) (A) (A) (A) (A) (A) (A) (A) (A) (A)
                 (A) (A) (A) (A) (A) (A) (A) (A) (A) (A) (A) (A)
                 (A) (A) (A) (A) (A) (A) (A) (A) (A) (A) (A) (A)
                 (A) (A) (A) (A) (A) (A) (A) (A) (A) (A) (A) (A)
                 (A) (A) (A) (A) (A) (A) (A) (A) (A) (A) (A) (A)
                 (A) (A) (A) (A) (A) (A) (A) (A) (A) (A) (A) (A)
                 (A) (A) (A) (A) (A) (A) (A) (A) (A) (A) (A) (A)
                 (A) (A) (A) (A) (A) (A) (A) (A) (A) (A) (A) (A)
                 (A) (A) (A) (A) (A) (A) (A) (A) (A) (A) (A) (A)
                 (A) (A) (A) (A) (A) (A) (A) (A) (A) (A) (A) (A)
                 (A) (A) (A) (A) (A) (A) (A) (A) (A) (A) (A) (A)
                 (A) (A) (A) (A) (A) (A) (A) (A) (A) (A) (A) (A)
                 (A) (A) (A) (A) (A) (A) (A) (A) (A) (A) (A) (A)
                 (A) (A) (A) (A) (A) (A) (A) (A) (A) (A) (A) (A)
                 (A) (A) (A) (A) (A) (A) (A) (A) (A) (A) (A) (A)
                 (A) (A) (A) (A) (A) (A) (A) (A) (A) (A) (A) (A)
                 (A) (A) (A) (A) (A) (A) (A) (A) (A) (A) (A) (A)
                 (A) (A) (A) (A) (A) (A) (A) (A) (A) (A) (A) (A)
                 (A) (A) (A) (A) (A) (A) (A) (A) (A) (A) (A) (A)
                 (A) (A) (A) (A) (A) (A) (A) (A) (A) (A) (A) (A)
                 (A) (A) (A) (A) (A) (A) (A) (A) (A) (A) (A) (A)
                 (A) (A) (A) (A) (A) (A) (A) (A) (A) (A) (A) (A)
                 (A) (A) (A) (A) (A) (A) (A) (A) (A) (A) (A) (A)
                 (A) (A) (A) (A) (A) (A) (A) (A) (A) (A) (A) (A)
                 (A) (A) (A) (A) (A) (A) (A) (A) (A) (A) (A) (A)
                 (A) (A) (A) (A) (A) (A) (A) (A) (A) (A) (A) (A)
                 (A) (A) (A) (A) (A) (A) (A) (A) (A) (A) (A) (A)
                 (A) (A) (A) (A) (A) (A) (A) (A) (A) (A) (A) (A)
                 (A) (A) (A) (A) (A) (A) (A) (A) (A) (A) (A) (A)
                 (A) (A) (A) (A) (A) (A) (A) (A) (A) (A) (A) (A)
                 (A) (A) (A) (A) (A) (A) (A) (A) (A) (A) (A) (A)
                 (A) (A) (A) (A) (A) (A) (A) (A) (A) (A) (A) (A)
    20 initial guesses have been made.
 Convergence on wavefunction:    0.001000000000000
 Davidson Disk Diagonalization:  ConvIn= 1.00D-03 SkipCon=T Conv= 1.00D-03.
 Max sub-space:  2000 roots to seek:    20 dimension of matrix:       549360
 Iteration     1 Dimension    20 NMult     0 NNew     20
 CISAX will form    20 AO SS matrices at one time.
 NMat=    20 NSing=    20 JSym2X= 0.
 FoFJK:  IHMeth= 1 ICntrl=       0 DoSepK=T KAlg= 0 I1Cent=           0 FoldK=F
 IRaf=         1 NMat=      40 IRICut=       1 DoRegI=T DoRafI=F ISym2E= 0 IDoP0=3 IntGTp=3.
 FoFCou: FMM=T IPFlag=           0 FMFlag=      100000 FMFlg1=        2001
         NFxFlg=           0 DoJE=F BraDBF=F KetDBF=F FulRan=T
         wScrn=  0.000000 ICntrl=       500 IOpCl=  0 I1Cent=           0 NGrid=           0
         NMat0=   20 NMatS0=     20 NMatT0=    0 NMatD0=   20 NMtDS0=    0 NMtDT0=    0
 Symmetry not used in FoFCou.
 FMM levels:  10  Number of levels for PrismC:   9
 New state      1 was old state      7
 New state      2 was old state      6
 New state      3 was old state      1
 New state      4 was old state      2
 New state      5 was old state      3
 Excitation Energies [eV] at current iteration:
 Root      1 :     2.612743748638630
 Root      2 :     2.618712009310605
 Root      3 :     2.650287470251014
 Root      4 :     2.665065185561485
 Root      5 :     2.706354869270253
 Root      6 :     2.738723379515005
 Root      7 :     3.439977419896671
 Root      8 :     3.538232260753408
 Root      9 :     3.625919765404861
 Root     10 :     3.667225565706117
 Root     11 :     3.737826612149038
 Root     12 :     3.761296966877035
 Root     13 :     4.289287318006428
 Root     14 :     4.319211829434708
 Root     15 :     4.557330224061164
 Root     16 :     4.671125317330207
 Root     17 :     4.864383518496465
 Root     18 :     4.901688821085274
 Root     19 :     4.965223401304116
 Root     20 :     4.998831848914659
 Iteration     2 Dimension    30 NMult    20 NNew     10
 CISAX will form    10 AO SS matrices at one time.
 NMat=    10 NSing=    10 JSym2X= 0.
 New state      1 was old state      4
 Root      1 not converged, maximum delta is    0.149417455164992
 New state      2 was old state      5
 Root      2 not converged, maximum delta is    0.153940308985700
 New state      3 was old state      2
 Root      3 not converged, maximum delta is    0.389396196220530
 New state      4 was old state      1
 Root      4 not converged, maximum delta is    0.385958495569333
 New state      5 was old state      3
 Root      5 not converged, maximum delta is    0.001226421322049
 Excitation Energies [eV] at current iteration:
 Root      1 :     1.793134433562296   Change is   -0.871930751999189
 Root      2 :     1.814206713796209   Change is   -0.892148155474044
 Root      3 :     2.234524999296740   Change is   -0.384187010013865
 Root      4 :     2.239665837055230   Change is   -0.373077911583400
 Root      5 :     2.650112495852031   Change is   -0.000174974398983
 Iteration     3 Dimension    40 NMult    30 NNew     10
 CISAX will form    10 AO SS matrices at one time.
 NMat=    10 NSing=    10 JSym2X= 0.
 Root      1 not converged, maximum delta is    0.054355342104992
 Root      2 not converged, maximum delta is    0.055151912539948
 Root      3 not converged, maximum delta is    0.082685160526495
 Root      4 not converged, maximum delta is    0.082246284762133
 Root      5 has converged.
 Excitation Energies [eV] at current iteration:
 Root      1 :     1.686517932648113   Change is   -0.106616500914184
 Root      2 :     1.705387904793815   Change is   -0.108818809002395
 Root      3 :     2.193583621480472   Change is   -0.040941377816268
 Root      4 :     2.200070269841260   Change is   -0.039595567213970
 Root      5 :     2.650111673209163   Change is   -0.000000822642868
 Iteration     4 Dimension    48 NMult    40 NNew      8
 CISAX will form     8 AO SS matrices at one time.
 NMat=     8 NSing=     8 JSym2X= 0.
 Root      1 not converged, maximum delta is    0.010478126600721
 Root      2 not converged, maximum delta is    0.010412866411796
 Root      3 not converged, maximum delta is    0.013348019097696
 Root      4 not converged, maximum delta is    0.013211227767110
 Root      5 has converged.
 Excitation Energies [eV] at current iteration:
 Root      1 :     1.669801241713150   Change is   -0.016716690934962
 Root      2 :     1.688513764503117   Change is   -0.016874140290698
 Root      3 :     2.186341724226571   Change is   -0.007241897253900
 Root      4 :     2.193202337274086   Change is   -0.006867932567173
 Root      5 :     2.650111673208202   Change is   -0.000000000000961
 Iteration     5 Dimension    56 NMult    48 NNew      8
 CISAX will form     8 AO SS matrices at one time.
 NMat=     8 NSing=     8 JSym2X= 0.
 Root      1 not converged, maximum delta is    0.001722305119310
 Root      2 not converged, maximum delta is    0.001745641462136
 Root      3 not converged, maximum delta is    0.002403414264329
 Root      4 not converged, maximum delta is    0.002319888748882
 Root      5 has converged.
 Excitation Energies [eV] at current iteration:
 Root      1 :     1.668051366891849   Change is   -0.001749874821302
 Root      2 :     1.686713603103074   Change is   -0.001800161400043
 Root      3 :     2.185504917768656   Change is   -0.000836806457916
 Root      4 :     2.192414645693213   Change is   -0.000787691580874
 Root      5 :     2.650111673207240   Change is   -0.000000000000962
 Iteration     6 Dimension    64 NMult    56 NNew      8
 CISAX will form     8 AO SS matrices at one time.
 NMat=     8 NSing=     8 JSym2X= 0.
 Root      1 not converged, maximum delta is    0.001064375004007
 Root      2 not converged, maximum delta is    0.001086787467623
 Root      3 not converged, maximum delta is    0.001018034617972
 Root      4 has converged.
 Root      5 has converged.
 Excitation Energies [eV] at current iteration:
 Root      1 :     1.667802178260584   Change is   -0.000249188631265
 Root      2 :     1.686455292364805   Change is   -0.000258310738268
 Root      3 :     2.185377857380322   Change is   -0.000127060388334
 Root      4 :     2.192294631790499   Change is   -0.000120013902713
 Root      5 :     2.650111673206961   Change is   -0.000000000000279
 Iteration     7 Dimension    70 NMult    64 NNew      6
 CISAX will form     6 AO SS matrices at one time.
 NMat=     6 NSing=     6 JSym2X= 0.
 Root      1 has converged.
 Root      2 has converged.
 Root      3 has converged.
 Root      4 has converged.
 Root      5 has converged.
 Excitation Energies [eV] at current iteration:
 Root      1 :     1.667777868074956   Change is   -0.000024310185628
[...]
 Alpha virt. eigenvalues --    1.83551   1.83749   1.83943   1.84009   1.84235
 Alpha virt. eigenvalues --    1.84441   1.84579   1.84790   1.84833   1.85101
 Alpha virt. eigenvalues --    1.85168   1.85259   1.85384   1.85434   1.85537
 Alpha virt. eigenvalues --    1.85854   1.85951   1.86344   1.86433   1.86535
 Alpha virt. eigenvalues --    1.86695   1.86775   1.86877   1.87046   1.87087
 Alpha virt. eigenvalues --    1.87437   1.87528   1.87679   1.87809   1.87856
 Alpha virt. eigenvalues --    1.88027   1.88066   1.88222   1.88519   1.88614
 Alpha virt. eigenvalues --    1.88814   1.88978   1.89119   1.89122   1.89599
 Alpha virt. eigenvalues --    1.89703   1.89719   1.89927   1.90105   1.90234
 Alpha virt. eigenvalues --    1.90749   1.90939   1.91344   1.91437   1.91477
 Alpha virt. eigenvalues --    1.91624   1.92145   1.92225   1.92625   1.92693
 Alpha virt. eigenvalues --    1.92969   1.93202   1.93324   1.93559   1.94276
 Alpha virt. eigenvalues --    1.94357   1.94670   1.94865   1.95466   1.95649
 Alpha virt. eigenvalues --    1.95724   1.95850   1.95993   1.96092   1.96142
 Alpha virt. eigenvalues --    1.96213   1.96529   1.96589   1.96883   1.96977
 Alpha virt. eigenvalues --    1.97444   1.97583   1.97830   1.97845   1.98163
 Alpha virt. eigenvalues --    1.98208   1.98383   1.98693   1.99120   1.99134
 Alpha virt. eigenvalues --    1.99817   1.99963   2.00647   2.00777   2.00990
 Alpha virt. eigenvalues --    2.01138   2.01481   2.01563   2.01638   2.01664
 Alpha virt. eigenvalues --    2.01718   2.01856   2.02752   2.02776   2.03191
 Alpha virt. eigenvalues --    2.03230   2.03399   2.03418   2.03483   2.03565
 Alpha virt. eigenvalues --    2.04031   2.04069   2.04938   2.05028   2.05494
 Alpha virt. eigenvalues --    2.05677   2.06060   2.06328   2.06909   2.07066
 Alpha virt. eigenvalues --    2.07179   2.07406   2.08553   2.08600   2.08965
 Alpha virt. eigenvalues --    2.09046   2.09580   2.09654   2.10764   2.11091
 Alpha virt. eigenvalues --    2.11170   2.11456   2.11536   2.11558   2.11709
 Alpha virt. eigenvalues --    2.11905   2.12458   2.12496   2.12785   2.12825
 Alpha virt. eigenvalues --    2.12849   2.12915   2.13653   2.13764   2.14126
 Alpha virt. eigenvalues --    2.14311   2.15320   2.15452   2.15921   2.16125
 Alpha virt. eigenvalues --    2.16505   2.16638   2.16744   2.17234   2.17407
 Alpha virt. eigenvalues --    2.17692   2.17702   2.17973   2.18057   2.18060
 Alpha virt. eigenvalues --    2.18322   2.18704   2.18867   2.19267   2.19632
 Alpha virt. eigenvalues --    2.19856   2.20025   2.20207   2.20289   2.20471
 Alpha virt. eigenvalues --    2.21134   2.21226   2.21652   2.21743   2.21812
 Alpha virt. eigenvalues --    2.21917   2.22665   2.22743   2.23304   2.23398
 Alpha virt. eigenvalues --    2.24373   2.24471   2.24941   2.25053   2.26294
 Alpha virt. eigenvalues --    2.26479   2.26765   2.27049   2.27097   2.27245
 Alpha virt. eigenvalues --    2.28125   2.28346   2.29250   2.29481   2.29723
 Alpha virt. eigenvalues --    2.29921   2.30447   2.30647   2.30838   2.31075
 Alpha virt. eigenvalues --    2.31197   2.31252   2.32100   2.32289   2.33123
 Alpha virt. eigenvalues --    2.33267   2.33452   2.33525   2.34131   2.34180
 Alpha virt. eigenvalues --    2.35328   2.35379   2.35782   2.35942   2.36335
 Alpha virt. eigenvalues --    2.36376   2.36500   2.36603   2.37645   2.37733
 Alpha virt. eigenvalues --    2.38226   2.38424   2.38799   2.38848   2.39593
 Alpha virt. eigenvalues --    2.39708   2.40171   2.40311   2.40475   2.40850
 Alpha virt. eigenvalues --    2.41232   2.41265   2.41670   2.41734   2.42041
 Alpha virt. eigenvalues --    2.42163   2.42868   2.42922   2.43066   2.43567
 Alpha virt. eigenvalues --    2.44006   2.44164   2.44713   2.44843   2.44891
 Alpha virt. eigenvalues --    2.45028   2.45531   2.45617   2.46267   2.46320
 Alpha virt. eigenvalues --    2.46464   2.46543   2.46785   2.46838   2.47246
 Alpha virt. eigenvalues --    2.47427   2.47697   2.47927   2.49285   2.49436
 Alpha virt. eigenvalues --    2.49935   2.50047   2.50489   2.50523   2.51113
 Alpha virt. eigenvalues --    2.51296   2.51643   2.51869   2.52404   2.52434
 Alpha virt. eigenvalues --    2.52796   2.53189   2.53899   2.54005   2.54110
 Alpha virt. eigenvalues --    2.54320   2.54774   2.54851   2.55493   2.55706
 Alpha virt. eigenvalues --    2.57837   2.58112   2.58627   2.58937   2.60200
 Alpha virt. eigenvalues --    2.60321   2.60600   2.60939   2.61685   2.61854
 Alpha virt. eigenvalues --    2.62454   2.62519   2.62942   2.63159   2.63917
 Alpha virt. eigenvalues --    2.64230   2.64240   2.64464   2.65065   2.65128
 Alpha virt. eigenvalues --    2.65772   2.65872   2.66759   2.66853   2.66890
 Alpha virt. eigenvalues --    2.67080   2.67891   2.68008   2.68838   2.68843
 Alpha virt. eigenvalues --    2.69017   2.69044   2.69374   2.69616   2.69984
 Alpha virt. eigenvalues --    2.70168   2.70970   2.71082   2.71909   2.72046
 Alpha virt. eigenvalues --    2.72508   2.72644   2.72747   2.72851   2.73255
 Alpha virt. eigenvalues --    2.73320   2.73471   2.73551   2.74498   2.74536
 Alpha virt. eigenvalues --    2.74962   2.75079   2.76550   2.76573   2.77096
 Alpha virt. eigenvalues --    2.77220   2.77429   2.77622   2.78150   2.78315
 Alpha virt. eigenvalues --    2.78714   2.78721   2.79117   2.79168   2.80279
 Alpha virt. eigenvalues --    2.80316   2.80585   2.80696   2.81103   2.81179
 Alpha virt. eigenvalues --    2.81917   2.82005   2.82324   2.82362   2.83722
 Alpha virt. eigenvalues --    2.83754   2.83868   2.83922   2.84524   2.84560
 Alpha virt. eigenvalues --    2.84863   2.84917   2.85636   2.85708   2.86672
 Alpha virt. eigenvalues --    2.86988   2.87171   2.87624   2.88115   2.88254
 Alpha virt. eigenvalues --    2.88496   2.88648   2.88900   2.88915   2.90486
 Alpha virt. eigenvalues --    2.90666   2.91092   2.91171   2.93139   2.93334
 Alpha virt. eigenvalues --    2.93787   2.94179   2.94527   2.94594   2.95359
 Alpha virt. eigenvalues --    2.95462   2.95823   2.96219   2.96385   2.96432
 Alpha virt. eigenvalues --    2.96864   2.97188   2.97815   2.98045   2.98176
 Alpha virt. eigenvalues --    2.98350   2.98353   2.98586   2.98589   2.98822
 Alpha virt. eigenvalues --    2.98858   2.98956   2.99555   2.99815   3.00013
 Alpha virt. eigenvalues --    3.00021   3.00214   3.00348   3.00452   3.00995
 Alpha virt. eigenvalues --    3.01918   3.01976   3.02005   3.02111   3.02741
 Alpha virt. eigenvalues --    3.02814   3.02977   3.03295   3.03319   3.03711
 Alpha virt. eigenvalues --    3.04060   3.04155   3.04436   3.04440   3.04534
 Alpha virt. eigenvalues --    3.04774   3.05272   3.05370   3.06095   3.06178
 Alpha virt. eigenvalues --    3.06794   3.06944   3.07934   3.08111   3.09378
 Alpha virt. eigenvalues --    3.09385   3.09679   3.10408   3.10427   3.10741
 Alpha virt. eigenvalues --    3.11311   3.11503   3.11923   3.11939   3.12160
 Alpha virt. eigenvalues --    3.12297   3.13268   3.13615   3.13648   3.13711
 Alpha virt. eigenvalues --    3.14111   3.14464   3.15901   3.16011   3.17248
 Alpha virt. eigenvalues --    3.17544   3.17894   3.18040   3.19053   3.19098
 Alpha virt. eigenvalues --    3.22323   3.22594   3.23930   3.24459   3.24672
 Alpha virt. eigenvalues --    3.25209   3.26487   3.26679   3.27413   3.27606
 Alpha virt. eigenvalues --    3.29122   3.29215   3.31397   3.31509   3.33205
 Alpha virt. eigenvalues --    3.33398   3.40242   3.40664   3.42782   3.42832
 Alpha virt. eigenvalues --    3.48649   3.48719   3.50004   3.50301   3.50854
 Alpha virt. eigenvalues --    3.51454   3.56529   3.57026   3.59081   3.59365
 Alpha virt. eigenvalues --    3.62536   3.62824   3.66127   3.66145   3.67211
 Alpha virt. eigenvalues --    3.67531   3.73289   3.74022   3.76067   3.76686
          Condensed to atoms (all electrons):
 Mulliken charges:
               1
     1  Mg   0.838575
     2  C   -0.002894
     3  C   -0.094303
     4  C   -0.045932
     5  C   -0.063994
     6  N   -0.256789
     7  C   -0.052389
     8  C   -0.013967
     9  C   -0.086959
    10  C    0.046266
    11  C    0.104806
    12  C    0.053529
    13  C   -0.072027
    14  H    0.036862
    15  N   -0.433093
    16  C    0.168236
    17  C   -0.177408
    18  C   -0.004247
    19  C    0.148629
    20  C    0.110223
    21  C    0.011997
    22  O   -0.249613
    23  C    0.062668
    24  N   -0.341160
    25  C    0.041226
    26  C   -0.028199
    27  C   -0.024024
    28  C    0.074952
    29  C    0.076149
    30  C    0.035101
    31  C   -0.004475
    32  N   -0.310541
    33  C    0.080559
    34  C   -0.169683
    35  C    0.008504
    36  C    0.083033
    37  C    0.127290
    38  C    0.046231
    39  O   -0.187996
    40  C   -0.005327
    41  C    0.212927
    42  O   -0.256953
    43  O   -0.304888
    44  C    0.157445
    45  H   -0.017649
    46  H   -0.016880
    47  H   -0.041389
    48  H    0.001167
    49  H   -0.004153
    50  H    0.025593
    51  H    0.016405
    52  H    0.016700
    53  H    0.010732
    54  H    0.044342
    55  H    0.018006
    56  H    0.017637
    57  H    0.005905
    58  H    0.026848
    59  H    0.038745
    60  H    0.037515
    61  H    0.035337
    62  H    0.030694
    63  H    0.016544
    64  H    0.009576
    65  H    0.023251
    66  H    0.012538
    67  H    0.004849
    68  H    0.006546
    69  H    0.004752
    70  H    0.008872
    71  H    0.018169
    72  H    0.028820
    73  H    0.047687
    74  H    0.009113
    75  H    0.046187
    76  H    0.035271
    77  H    0.043242
    78  H    0.046408
    79  H    0.054273
    80  Mg   0.838154
    81  C   -0.016793
    82  C   -0.087896
    83  C   -0.045425
    84  C   -0.064174
    85  N   -0.254517
    86  C   -0.049694
    87  C   -0.015099
    88  C   -0.090582
    89  C    0.045808
    90  C    0.114448
    91  C    0.062628
    92  C   -0.077643
    93  H    0.034591
    94  N   -0.423486
    95  C    0.162828
    96  C   -0.174733
    97  C   -0.007871
    98  C    0.152053
    99  C    0.099421
   100  C    0.015512
   101  O   -0.253335
   102  C    0.061238
   103  N   -0.349943
   104  C    0.037583
   105  C   -0.019889
   106  C   -0.034969
   107  C    0.088950
   108  C    0.073601
   109  C    0.034732
   110  C   -0.007630
   111  N   -0.324240
   112  C    0.078560
   113  C   -0.162505
   114  C    0.002488
   115  C    0.096303
   116  C    0.131333
   117  C    0.042794
   118  O   -0.187840
   119  C    0.000746
   120  C    0.211147
   121  O   -0.251130
   122  O   -0.305640
   123  C    0.152128
   124  H   -0.020145
   125  H   -0.015681
   126  H   -0.040004
   127  H   -0.000877
   128  H   -0.004836
   129  H    0.022904
   130  H    0.014898
   131  H    0.015143
   132  H    0.013886
   133  H    0.037697
   134  H    0.020428
   135  H    0.019332
   136  H    0.008359
   137  H    0.026124
   138  H    0.039458
   139  H    0.038280
   140  H    0.036186
   141  H    0.033691
   142  H    0.014150
   143  H    0.013131
   144  H    0.024708
   145  H    0.011867
   146  H    0.006073
   147  H    0.006124
   148  H    0.003874
   149  H    0.010759
   150  H    0.017786
   151  H    0.030048
   152  H    0.045711
   153  H    0.008545
   154  H    0.048602
   155  H    0.035354
   156  H    0.043681
   157  H    0.049203
   158  H    0.053528
 Sum of Mulliken charges =  -0.00000
 Mulliken charges with hydrogens summed into heavy atoms:
               1
     1  Mg   0.838575
     2  C   -0.002894
     3  C   -0.111952
     4  C   -0.062811
     5  C   -0.105382
     6  N   -0.256789
     7  C   -0.052389
     8  C   -0.012800
     9  C   -0.091111
    10  C    0.046266
    11  C    0.163504
    12  C    0.108603
    13  C    0.000478
    15  N   -0.433093
    16  C    0.168236
    17  C   -0.177408
    18  C   -0.004247
    19  C    0.148629
    20  C    0.181721
    21  C    0.011997
    22  O   -0.249613
    23  C    0.166215
    24  N   -0.341160
    25  C    0.041226
    26  C   -0.011655
    27  C   -0.014448
    28  C    0.074952
    29  C    0.116787
    30  C    0.046400
    31  C    0.051386
    32  N   -0.310541
    33  C    0.080559
    34  C   -0.169683
    35  C    0.008504
    36  C    0.083033
    37  C    0.230278
    38  C    0.046231
    39  O   -0.187996
    40  C    0.029944
    41  C    0.212927
    42  O   -0.256953
    43  O   -0.304888
    44  C    0.301368
    80  Mg   0.838154
    81  C   -0.016793
    82  C   -0.108041
    83  C   -0.061107
    84  C   -0.104178
    85  N   -0.254517
    86  C   -0.049694
    87  C   -0.015976
    88  C   -0.095418
    89  C    0.045808
    90  C    0.167393
    91  C    0.114211
    92  C   -0.003292
    94  N   -0.423486
    95  C    0.162828
    96  C   -0.174733
    97  C   -0.007871
    98  C    0.152053
    99  C    0.173362
   100  C    0.015512
   101  O   -0.253335
   102  C    0.169396
   103  N   -0.349943
   104  C    0.037583
   105  C   -0.005739
   106  C   -0.021838
   107  C    0.088950
   108  C    0.116249
   109  C    0.044729
   110  C    0.050963
   111  N   -0.324240
   112  C    0.078560
   113  C   -0.162505
   114  C    0.002488
   115  C    0.096303
   116  C    0.234190
   117  C    0.042794
   118  O   -0.187840
   119  C    0.036100
   120  C    0.211147
   121  O   -0.251130
   122  O   -0.305640
   123  C    0.298539
 Electronic spatial extent (au):  <R**2>=         149923.3196
 Charge=             -0.0000 electrons
 Dipole moment (field-independent basis, Debye):
    X=              3.7519    Y=             -2.1380    Z=              7.2766  Tot=              8.4615
 Quadrupole moment (field-independent basis, Debye-Ang):
   XX=           -518.2395   YY=           -539.4297   ZZ=           -459.6300
   XY=             20.8036   XZ=              3.3828   YZ=             37.0867
 Traceless Quadrupole moment (field-independent basis, Debye-Ang):
   XX=            -12.4731   YY=            -33.6633   ZZ=             46.1364
   XY=             20.8036   XZ=              3.3828   YZ=             37.0867
 Octapole moment (field-independent basis, Debye-Ang**2):
  XXX=            500.6958  YYY=            279.7327  ZZZ=            135.8826  XYY=            191.7551
  XXY=           -109.8133  XXZ=            326.4780  XZZ=           -199.6920  YZZ=            -90.2954
  YYZ=            140.6492  XYZ=            221.5338
 Hexadecapole moment (field-independent basis, Debye-Ang**3):
 XXXX=        -139758.4987 YYYY=         -40447.0319 ZZZZ=         -25911.0876 XXXY=           1402.1871
 XXXZ=           -201.0621 YYYX=            576.2865 YYYZ=            621.2440 ZZZX=           1270.6985
 ZZZY=            362.3985 XXYY=         -30855.3347 XXZZ=         -25196.2959 YYZZ=         -11063.3175
 XXYZ=           1798.0341 YYXZ=          -1766.2998 ZZXY=           -678.9132
 N-N= 1.424798628693D+04 E-N=-3.797695019770D+04  KE= 4.028801918680D+03
 Leave Link  601 at Sat Sep 11 13:30:24 2021, MaxMem= 23488102400 cpu:              17.7 elap:               0.9
 (Enter /sw/apps/gaussian-16.0/g16/l9999.exe)
 1\1\GINC-BP1-COMPUTE00084\SP\RCAM-B3LYP TD-FC\def2SVP\C68H72Mg2N8O8\OF
 15641\11-Sep-2021\0\\#p cam-b3lyp/Def2SVP td=(nstates=5)\\TDDFT excite
 d states in gaussian\\0,1\Mg,0,0.,0.,0.\C,0,-0.217,-2.218,2.801\C,0,-1
 .255,2.442,2.026\C,0,-0.245,1.85,-2.564\C,0,0.146,-2.824,-2.037\N,0,-0
 .617,-0.009,2.126\C,0,-0.594,-0.908,3.105\C,0,-0.936,-0.309,4.502\C,0,
 -1.773,0.964,4.032\C,0,-1.155,1.168,2.66\C,0,-3.263,0.685,3.863\C,0,0.
 345,0.11,5.299\C,0,0.124,0.397,6.787\H,0,1.168,0.033,7.733\N,0,-0.185,
 1.961,-0.152\C,0,-0.703,2.8,0.777\C,0,-0.62,4.156,0.193\C,0,-0.187,4.0
 15,-1.225\C,0,-0.214,2.583,-1.38\C,0,-0.887,5.406,0.974\C,0,0.181,5.01
 3,-2.277\O,0,0.303,4.69,-3.508\C,0,0.31,6.414,-1.837\N,0,-0.265,-0.413
 ,-2.029\C,0,-0.279,0.569,-2.937\C,0,-0.196,0.024,-4.332\C,0,0.124,-1.5
 33,-4.18\C,0,0.086,-1.632,-2.635\C,0,-1.451,0.205,-5.197\C,0,1.373,-2.
 07,-4.923\C,0,2.626,-1.49,-4.306\N,0,0.15,-2.144,0.303\C,0,0.173,-3.13
 6,-0.688\C,0,0.173,-4.438,0.004\C,0,0.133,-4.111,1.358\C,0,0.083,-2.69
 5,1.502\C,0,0.149,-5.715,-0.623\C,0,0.096,-4.629,2.716\O,0,0.208,-5.74
 7,3.221\C,0,-0.255,-3.428,3.701\C,0,0.717,-3.482,4.848\O,0,1.931,-3.25
 5,4.669\O,0,0.038,-3.556,6.003\C,0,0.943,-3.583,7.183\H,0,-1.859,3.22,
 2.497\H,0,-0.218,2.453,-3.474\H,0,0.276,-3.747,-2.605\H,0,-1.554,-0.94
 9,5.132\H,0,-1.585,1.831,4.665\H,0,-3.484,-0.377,3.969\H,0,-3.511,1.02
 7,2.858\H,0,-3.852,1.301,4.543\H,0,0.669,1.096,4.966\H,0,1.13,-0.639,5
 .189\H,0,-0.844,0.026,7.125\H,0,0.062,1.477,6.921\H,0,-1.344,5.186,1.9
 38\H,0,-1.651,5.963,0.432\H,0,0.007,6.02,1.084\H,0,-0.635,6.744,-1.405
 \H,0,0.665,6.97,-2.704\H,0,1.048,6.466,-1.036\H,0,0.608,0.501,-4.891\H
 ,0,-0.692,-2.156,-4.547\H,0,-1.267,0.74,-6.129\H,0,-2.204,0.714,-4.596
 \H,0,-1.967,-0.72,-5.453\H,0,1.356,-1.759,-5.967\H,0,1.452,-3.157,-4.9
 02\H,0,2.714,-0.522,-4.798\H,0,3.487,-2.121,-4.529\H,0,2.495,-1.303,-3
 .24\H,0,0.867,-6.333,-0.084\H,0,0.404,-5.642,-1.68\H,0,-0.891,-5.999,-
 0.463\H,0,-1.283,-3.581,4.028\H,0,0.698,-4.478,7.755\H,0,0.833,-2.619,
 7.68\H,0,2.,-3.754,6.976\Mg,0,13.14494,1.19087,1.00073\C,0,12.65865,1.
 28768,4.55505\C,0,11.98057,4.39549,0.90439\C,0,13.13487,0.98672,-2.165
 6\C,0,13.17076,-2.28597,1.23867\N,0,12.44208,2.55821,2.59089\C,0,12.36
 031,2.50702,3.91189\C,0,12.01238,3.86045,4.5877\C,0,11.27803,4.56715,3
 .34666\C,0,11.96319,3.82393,2.20174\C,0,9.78829,4.27408,3.28254\C,0,13
 .29179,4.65566,5.02675\C,0,13.02559,5.83472,5.96522\H,0,14.00887,6.134
 53,7.0024\N,0,13.10497,2.61771,-0.37807\C,0,12.61666,3.86833,-0.24097\
 C,0,12.80303,4.51847,-1.54739\C,0,13.2904,3.49745,-2.51418\C,0,13.1732
 5,2.29687,-1.71108\C,0,12.60031,5.99059,-1.75999\C,0,13.76904,3.58512,
 -3.93172\O,0,13.91922,2.53946,-4.65759\C,0,13.96725,4.93707,-4.47432\N
 ,0,12.94023,-0.41134,-0.30822\C,0,13.02545,-0.23277,-1.63818\C,0,13.12
 451,-1.55501,-2.36085\C,0,13.33246,-2.65455,-1.21833\C,0,13.22358,-1.7
 4847,0.02769\C,0,11.91876,-1.93567,-3.21973\C,0,14.57101,-3.5824,-1.35
 158\C,0,15.83896,-2.78071,-1.16454\N,0,13.13816,-0.25858,2.60294\C,0,1
 3.12543,-1.66533,2.4805\C,0,13.0071,-2.22002,3.84459\C,0,12.93546,-1.0
 8824,4.67068\C,0,12.98394,0.08873,3.87576\C,0,12.92993,-3.60196,4.1768
 7\C,0,12.81913,-0.62159,6.03354\O,0,12.82584,-1.16018,7.13972\C,0,12.5
 0738,0.93681,6.00922\C,0,13.4264,1.60974,6.99161\O,0,14.65532,1.622,6.
 8013\O,0,12.6912,2.31088,7.87379\C,0,13.55869,3.00533,8.86223\H,0,11.4
 1882,5.31448,0.73475\H,0,13.24046,0.85899,-3.24543\H,0,13.27054,-3.360
 67,1.40519\H,0,11.33339,3.78694,5.42874\H,0,11.50801,5.62859,3.3039\H,
 0,9.48999,3.54067,4.01688\H,0,9.60396,3.90459,2.28227\H,0,9.21727,5.20
 278,3.37076\H,0,13.69444,5.19354,4.15883\H,0,14.01585,3.99878,5.46818\
 H,0,12.01538,5.80262,6.39113\H,0,13.0396,6.75592,5.37768\H,0,12.08324,
 6.45235,-0.9098\H,0,11.90028,6.0996,-2.59541\H,0,13.52773,6.51234,-2.0
 0564\H,0,13.0323,5.48948,-4.41795\H,0,14.39584,4.79321,-5.46804\H,0,14
 .68498,5.46745,-3.83856\H,0,13.98116,-1.57036,-3.02343\H,0,12.48769,-3
 .35735,-1.1706\H,0,12.1795,-2.12683,-4.27781\H,0,11.18395,-1.145,-3.14
 603\H,0,11.36013,-2.80329,-2.87282\H,0,14.61863,-4.00845,-2.35675\H,0,
 14.56778,-4.41045,-0.65065\H,0,16.00804,-2.35132,-2.15656\H,0,16.66183
 ,-3.42866,-0.86943\H,0,15.67973,-1.9492,-0.4682\H,0,13.5745,-3.75289,5
 .03258\H,0,13.22665,-4.22949,3.33905\H,0,11.86288,-3.69008,4.39803\H,0
 ,11.45775,1.06513,6.27643\H,0,13.22577,2.69073,9.85615\H,0,13.48145,4.
 08255,8.62269\H,0,14.60585,2.72783,8.89227\\Version=ES64L-G16RevA.03\S
 tate=1-A\HF=-4069.8116881\RMSD=5.662e-09\PG=C01 [X(C68H72Mg2N8O8)]\\@


 You never know when you're making a memory.
                        -- Rickie Lee Jones
 Job cpu time:       0 days 11 hours 34 minutes 58.3 seconds.
 Elapsed time:       0 days  0 hours 29 minutes 33.0 seconds.
 File lengths (MBytes):  RWF=  13225 Int=      0 D2E=      0 Chk=    574 Scr=      1
 Normal termination of Gaussian 16 at Sat Sep 11 13:30:25 2021.
