 Entering Gaussian System, Link 0=g16
 Initial command:
 /sw/apps/gaussian-16.0/g16/l1.exe "/tmp/Gau-62516.inp" -scrdir="/tmp/"
 Entering Link 1 = /sw/apps/gaussian-16.0/g16/l1.exe PID=     62517.
  
 Copyright (c) 1988,1990,1992,1993,1995,1998,2003,2009,2016,
            Gaussian, Inc.  All Rights Reserved.
  
 This is part of the Gaussian(R) 16 program.  It is based on
 the Gaussian(R) 09 system (copyright 2009, Gaussian, Inc.),
 the Gaussian(R) 03 system (copyright 2003, Gaussian, Inc.),
 the Gaussian(R) 98 system (copyright 1998, Gaussian, Inc.),
 the Gaussian(R) 94 system (copyright 1995, Gaussian, Inc.),
 the Gaussian 92(TM) system (copyright 1992, Gaussian, Inc.),
 the Gaussian 90(TM) system (copyright 1990, Gaussian, Inc.),
 the Gaussian 88(TM) system (copyright 1988, Gaussian, Inc.),
 the Gaussian 86(TM) system (copyright 1986, Carnegie Mellon
 University), and the Gaussian 82(TM) system (copyright 1983,
 Carnegie Mellon University). Gaussian is a federally registered
 trademark of Gaussian, Inc.
  
 This software contains proprietary and confidential information,
 including trade secrets, belonging to Gaussian, Inc.
  
 This software is provided under written license and may be
 used, copied, transmitted, or stored only in accord with that
 written license.
  
 The following legend is applicable only to US Government
 contracts under FAR:
  
                    RESTRICTED RIGHTS LEGEND
  
 Use, reproduction and disclosure by the US Government is
 subject to restrictions as set forth in subparagraphs (a)
 and (c) of the Commercial Computer Software - Restricted
 Rights clause in FAR 52.227-19.
  
 Gaussian, Inc.
 340 Quinnipiac St., Bldg. 40, Wallingford CT 06492
  
  
 ---------------------------------------------------------------
 Warning -- This program may not be used in any manner that
 competes with the business of Gaussian, Inc. or will provide
 assistance to any competitor of Gaussian, Inc.  The licensee
 of this program is prohibited from giving any competitor of
 Gaussian, Inc. access to this program.  By using this program,
 the user acknowledges that Gaussian, Inc. is engaged in the
 business of creating and licensing software in the field of
 computational chemistry and represents and warrants to the
 licensee that it is not a competitor of Gaussian, Inc. and that
 it will not use this program in any manner prohibited above.
 ---------------------------------------------------------------
  

 Cite this work as:
 Gaussian 16, Revision A.03,
 M. J. Frisch, G. W. Trucks, H. B. Schlegel, G. E. Scuseria, 
 M. A. Robb, J. R. Cheeseman, G. Scalmani, V. Barone, 
 G. A. Petersson, H. Nakatsuji, X. Li, M. Caricato, A. V. Marenich, 
 J. Bloino, B. G. Janesko, R. Gomperts, B. Mennucci, H. P. Hratchian, 
 J. V. Ortiz, A. F. Izmaylov, J. L. Sonnenberg, D. Williams-Young, 
 F. Ding, F. Lipparini, F. Egidi, J. Goings, B. Peng, A. Petrone, 
 T. Henderson, D. Ranasinghe, V. G. Zakrzewski, J. Gao, N. Rega, 
 G. Zheng, W. Liang, M. Hada, M. Ehara, K. Toyota, R. Fukuda, 
 J. Hasegawa, M. Ishida, T. Nakajima, Y. Honda, O. Kitao, H. Nakai, 
 T. Vreven, K. Throssell, J. A. Montgomery, Jr., J. E. Peralta, 
 F. Ogliaro, M. J. Bearpark, J. J. Heyd, E. N. Brothers, K. N. Kudin, 
 V. N. Staroverov, T. A. Keith, R. Kobayashi, J. Normand, 
 K. Raghavachari, A. P. Rendell, J. C. Burant, S. S. Iyengar, 
 J. Tomasi, M. Cossi, J. M. Millam, M. Klene, C. Adamo, R. Cammi, 
 J. W. Ochterski, R. L. Martin, K. Morokuma, O. Farkas, 
 J. B. Foresman, and D. J. Fox, Gaussian, Inc., Wallingford CT, 2016.
 
 ******************************************
 Gaussian 16:  ES64L-G16RevA.03 25-Dec-2016
                 9-Sep-2021 
 ******************************************
 %nproc=24
 Will use up to   24 processors via shared memory.
 %mem=175gb
 -----------------------------------
 #p cam-b3lyp/Def2SVP td=(nstates=5)
 -----------------------------------
 1/38=1,172=1/1;
 2/12=2,17=6,18=5,40=1/2;
 3/5=43,7=101,11=9,25=1,30=1,74=-40/1,2,3,8;
 4//1;
 5/5=2,38=5/2;
 8/6=1,10=1,108=5/1;
 9/41=5,42=1,70=2/14;
 6/7=2,8=2,9=2,10=2/1;
 99/5=1,9=1/99;
 Leave Link    1 at Thu Sep  9 11:27:55 2021, MaxMem= 23488102400 cpu:               0.6 elap:               0.0
 (Enter /sw/apps/gaussian-16.0/g16/l101.exe)
 --------------------------------
 TDDFT excited states in gaussian
 --------------------------------
 Symbolic Z-matrix:
 Charge =  0 Multiplicity = 1
 Mg                    0.        0.        0. 
 C                    -0.217    -2.218     2.801 
 C                    -1.255     2.442     2.026 
 C                    -0.245     1.85     -2.564 
 C                     0.146    -2.824    -2.037 
 N                    -0.617    -0.009     2.126 
 C                    -0.594    -0.908     3.105 
 C                    -0.936    -0.309     4.502 
 C                    -1.773     0.964     4.032 
 C                    -1.155     1.168     2.66 
 C                    -3.263     0.685     3.863 
 C                     0.345     0.11      5.299 
 C                     0.124     0.397     6.787 
 H                     1.168     0.033     7.733 
 N                    -0.185     1.961    -0.152 
 C                    -0.703     2.8       0.777 
 C                    -0.62      4.156     0.193 
 C                    -0.187     4.015    -1.225 
 C                    -0.214     2.583    -1.38 
 C                    -0.887     5.406     0.974 
 C                     0.181     5.013    -2.277 
 O                     0.303     4.69     -3.508 
 C                     0.31      6.414    -1.837 
 N                    -0.265    -0.413    -2.029 
 C                    -0.279     0.569    -2.937 
 C                    -0.196     0.024    -4.332 
 C                     0.124    -1.533    -4.18 
 C                     0.086    -1.632    -2.635 
 C                    -1.451     0.205    -5.197 
 C                     1.373    -2.07     -4.923 
 C                     2.626    -1.49     -4.306 
 N                     0.15     -2.144     0.303 
 C                     0.173    -3.136    -0.688 
 C                     0.173    -4.438     0.004 
 C                     0.133    -4.111     1.358 
 C                     0.083    -2.695     1.502 
 C                     0.149    -5.715    -0.623 
 C                     0.096    -4.629     2.716 
 O                     0.208    -5.747     3.221 
 C                    -0.255    -3.428     3.701 
 C                     0.717    -3.482     4.848 
 O                     1.931    -3.255     4.669 
 O                     0.038    -3.556     6.003 
 C                     0.943    -3.583     7.183 
 H                    -1.859     3.22      2.497 
 H                    -0.218     2.453    -3.474 
 H                     0.276    -3.747    -2.605 
 H                    -1.554    -0.949     5.132 
 H                    -1.585     1.831     4.665 
 H                    -3.484    -0.377     3.969 
 H                    -3.511     1.027     2.858 
 H                    -3.852     1.301     4.543 
 H                     0.669     1.096     4.966 
 H                     1.13     -0.639     5.189 
 H                    -0.844     0.026     7.125 
 H                     0.062     1.477     6.921 
 H                    -1.344     5.186     1.938 
 H                    -1.651     5.963     0.432 
 H                     0.007     6.02      1.084 
 H                    -0.635     6.744    -1.405 
 H                     0.665     6.97     -2.704 
 H                     1.048     6.466    -1.036 
 H                     0.608     0.501    -4.891 
 H                    -0.692    -2.156    -4.547 
 H                    -1.267     0.74     -6.129 
 H                    -2.204     0.714    -4.596 
 H                    -1.967    -0.72     -5.453 
 H                     1.356    -1.759    -5.967 
 H                     1.452    -3.157    -4.902 
 H                     2.714    -0.522    -4.798 
 H                     3.487    -2.121    -4.529 
 H                     2.495    -1.303    -3.24 
 H                     0.867    -6.333    -0.084 
 H                     0.404    -5.642    -1.68 
 H                    -0.891    -5.999    -0.463 
 H                    -1.283    -3.581     4.028 
 H                     0.698    -4.478     7.755 
 H                     0.833    -2.619     7.68 
 H                     2.       -3.754     6.976 
 Mg                    7.88972   0.71302   0.59121 
 C                     10.65529  -1.52523   1.06121 
 C                     10.05422   3.2773    1.20277 
 C                     5.39732   2.67616   0.62926 
 C                     5.77712  -2.00225   1.14795 
 N                     10.05142   0.74509   1.0584 
 C                     11.01102  -0.16325   1.1501 
 C                     12.44319   0.42376   1.26795 
 C                     12.06428   1.86294   1.87134 
 C                     10.64681   1.99447   1.31801 
 C                     11.98789   1.87807   3.38899 
 C                     13.15242   0.55381  -0.12564 
 C                     14.65657   0.82729  -0.05869 
 H                     15.51823   0.23189  -1.07629 
 N                     7.80535   2.68549   0.38925 
 C                     8.78396   3.57396   0.66168 
 C                     8.21768   4.89927   0.36667 
 C                     6.77199   4.73289   0.05517 
 C                     6.59356   3.33033   0.37307 
 C                     9.04996   6.14769   0.31981 
 C                     5.72072   5.68244  -0.43409 
 O                     4.4755    5.37974  -0.40858 
 C                     6.1839    7.01222  -0.85675 
 N                     5.88306   0.43517   1.05862 
 C                     5.00019   1.4426    0.94219 
 C                     3.58105   0.94109   1.06439 
 C                     3.68616  -0.65458   1.04553 
 C                     5.22257  -0.80651   1.00364 
 C                     2.82359   1.38621   2.3152 
 C                     2.84005  -1.40306  -0.02056 
 C                     3.36704  -1.09874  -1.40442 
 N                     8.13082  -1.41919   0.84346 
 C                     7.11565  -2.369     1.09116 
 C                     7.78019  -3.67125   1.30323 
 C                     9.14808  -3.38203   1.18607 
 C                     9.32464  -1.99362   0.93982 
 C                     7.12725  -4.89801   1.61118 
 C                     10.48332  -3.93366   1.22527 
 O                     10.9525  -5.0678    1.31087 
 C                     11.52466  -2.73373   1.27183 
 C                     12.598   -3.01048   0.25503 
 O                     12.32884  -3.02929  -0.95897 
 O                     13.79753  -2.99136   0.86423 
 C                     14.89522  -3.24986  -0.10534 
 H                     10.59423   4.13606   1.60251 
 H                     4.49709   3.28926   0.54448 
 H                     5.18327  -2.91512   1.22972 
 H                     13.09631  -0.10566   1.95127 
 H                     12.70528   2.64199   1.46692 
 H                     12.08548   0.88726   3.8072 
 H                     11.01986   2.29707   3.63064 
 H                     12.72744   2.57316   3.79674 
 H                     12.81517   1.47699  -0.61426 
 H                     12.96944  -0.31418  -0.72874 
 H                     15.06412   0.64686   0.94346 
 H                     14.82321   1.8939   -0.22775 
 H                     10.04415   5.98486   0.75394 
 H                     8.57634   6.87309   0.99014 
 H                     9.10793   6.5779   -0.6823 
 H                     6.69229   7.49803  -0.02731 
 H                     5.30161   7.51537  -1.25711 
 H                     6.92738   6.88731  -1.65189 
 H                     2.98287   1.26386   0.22113 
 H                     3.35252  -1.09616   1.99607 
 H                     1.88074   1.91869   2.08811 
 H                     3.47957   2.01024   2.90749 
 H                     2.57291   0.58802   3.01179 
 H                     1.8056   -1.05154   0.00186 
 H                     2.81799  -2.47825   0.1225 
 H                     2.8917   -0.14305  -1.64485 
 H                     3.07002  -1.87501  -2.10671 
 H                     4.45038  -0.93246  -1.38524 
 H                     7.59452  -5.66074   1.00258 
 H                     6.05751  -4.83743   1.42204 
 H                     7.35165  -4.97587   2.67835 
 H                     11.92382  -2.68553   2.28569 
 H                     15.46553  -4.10187   0.27742 
 H                     15.43384  -2.28928  -0.20989 
 H                     14.61967  -3.60555  -1.09125 
 
 ITRead=  0  0  0  0  0  0  0  0  0  0  0  0  0  0  0  0  0  0  0  0
 ITRead=  0  0  0  0  0  0  0  0  0  0  0  0  0  0  0  0  0  0  0  0
 ITRead=  0  0  0  0  0  0  0  0  0  0  0  0  0  0  0  0  0  0  0  0
 ITRead=  0  0  0  0  0  0  0  0  0  0  0  0  0  0  0  0  0  0  0  0
 ITRead=  0  0  0  0  0  0  0  0  0  0  0  0  0  0  0  0  0  0  0  0
 ITRead=  0  0  0  0  0  0  0  0  0  0  0  0  0  0  0  0  0  0  0  0
 ITRead=  0  0  0  0  0  0  0  0  0  0  0  0  0  0  0  0  0  0  0  0
 ITRead=  0  0  0  0  0  0  0  0  0  0  0  0  0  0  0  0  0  0
 MicOpt= -1 -1 -1 -1 -1 -1 -1 -1 -1 -1 -1 -1 -1 -1 -1 -1 -1 -1 -1 -1
 MicOpt= -1 -1 -1 -1 -1 -1 -1 -1 -1 -1 -1 -1 -1 -1 -1 -1 -1 -1 -1 -1
 MicOpt= -1 -1 -1 -1 -1 -1 -1 -1 -1 -1 -1 -1 -1 -1 -1 -1 -1 -1 -1 -1
 MicOpt= -1 -1 -1 -1 -1 -1 -1 -1 -1 -1 -1 -1 -1 -1 -1 -1 -1 -1 -1 -1
 MicOpt= -1 -1 -1 -1 -1 -1 -1 -1 -1 -1 -1 -1 -1 -1 -1 -1 -1 -1 -1 -1
 MicOpt= -1 -1 -1 -1 -1 -1 -1 -1 -1 -1 -1 -1 -1 -1 -1 -1 -1 -1 -1 -1
 MicOpt= -1 -1 -1 -1 -1 -1 -1 -1 -1 -1 -1 -1 -1 -1 -1 -1 -1 -1 -1 -1
 MicOpt= -1 -1 -1 -1 -1 -1 -1 -1 -1 -1 -1 -1 -1 -1 -1 -1 -1 -1
 NAtoms=    158 NQM=      158 NQMF=       0 NMMI=      0 NMMIF=      0
                NMic=       0 NMicF=      0.
                    Isotopes and Nuclear Properties:
 (Nuclear quadrupole moments (NQMom) in fm**2, nuclear magnetic moments (NMagM)
  in nuclear magnetons)

  Atom         1           2           3           4           5           6           7           8           9          10
 IAtWgt=          24          12          12          12          12          14          12          12          12          12
 AtmWgt=  23.9850450  12.0000000  12.0000000  12.0000000  12.0000000  14.0030740  12.0000000  12.0000000  12.0000000  12.0000000
 NucSpn=           0           0           0           0           0           2           0           0           0           0
 AtZEff=  -0.0000000  -0.0000000  -0.0000000  -0.0000000  -0.0000000  -0.0000000  -0.0000000  -0.0000000  -0.0000000  -0.0000000
 NQMom=    0.0000000   0.0000000   0.0000000   0.0000000   0.0000000   2.0440000   0.0000000   0.0000000   0.0000000   0.0000000
 NMagM=    0.0000000   0.0000000   0.0000000   0.0000000   0.0000000   0.4037610   0.0000000   0.0000000   0.0000000   0.0000000
 AtZNuc=  12.0000000   6.0000000   6.0000000   6.0000000   6.0000000   7.0000000   6.0000000   6.0000000   6.0000000   6.0000000

  Atom        11          12          13          14          15          16          17          18          19          20
 IAtWgt=          12          12          12           1          14          12          12          12          12          12
 AtmWgt=  12.0000000  12.0000000  12.0000000   1.0078250  14.0030740  12.0000000  12.0000000  12.0000000  12.0000000  12.0000000
 NucSpn=           0           0           0           1           2           0           0           0           0           0
 AtZEff=  -0.0000000  -0.0000000  -0.0000000  -0.0000000  -0.0000000  -0.0000000  -0.0000000  -0.0000000  -0.0000000  -0.0000000
 NQMom=    0.0000000   0.0000000   0.0000000   0.0000000   2.0440000   0.0000000   0.0000000   0.0000000   0.0000000   0.0000000
 NMagM=    0.0000000   0.0000000   0.0000000   2.7928460   0.4037610   0.0000000   0.0000000   0.0000000   0.0000000   0.0000000
 AtZNuc=   6.0000000   6.0000000   6.0000000   1.0000000   7.0000000   6.0000000   6.0000000   6.0000000   6.0000000   6.0000000

  Atom        21          22          23          24          25          26          27          28          29          30
 IAtWgt=          12          16          12          14          12          12          12          12          12          12
 AtmWgt=  12.0000000  15.9949146  12.0000000  14.0030740  12.0000000  12.0000000  12.0000000  12.0000000  12.0000000  12.0000000
 NucSpn=           0           0           0           2           0           0           0           0           0           0
 AtZEff=  -0.0000000  -0.0000000  -0.0000000  -0.0000000  -0.0000000  -0.0000000  -0.0000000  -0.0000000  -0.0000000  -0.0000000
 NQMom=    0.0000000   0.0000000   0.0000000   2.0440000   0.0000000   0.0000000   0.0000000   0.0000000   0.0000000   0.0000000
 NMagM=    0.0000000   0.0000000   0.0000000   0.4037610   0.0000000   0.0000000   0.0000000   0.0000000   0.0000000   0.0000000
 AtZNuc=   6.0000000   8.0000000   6.0000000   7.0000000   6.0000000   6.0000000   6.0000000   6.0000000   6.0000000   6.0000000

  Atom        31          32          33          34          35          36          37          38          39          40
 IAtWgt=          12          14          12          12          12          12          12          12          16          12
 AtmWgt=  12.0000000  14.0030740  12.0000000  12.0000000  12.0000000  12.0000000  12.0000000  12.0000000  15.9949146  12.0000000
 NucSpn=           0           2           0           0           0           0           0           0           0           0
 AtZEff=  -0.0000000  -0.0000000  -0.0000000  -0.0000000  -0.0000000  -0.0000000  -0.0000000  -0.0000000  -0.0000000  -0.0000000
 NQMom=    0.0000000   2.0440000   0.0000000   0.0000000   0.0000000   0.0000000   0.0000000   0.0000000   0.0000000   0.0000000
 NMagM=    0.0000000   0.4037610   0.0000000   0.0000000   0.0000000   0.0000000   0.0000000   0.0000000   0.0000000   0.0000000
 AtZNuc=   6.0000000   7.0000000   6.0000000   6.0000000   6.0000000   6.0000000   6.0000000   6.0000000   8.0000000   6.0000000

  Atom        41          42          43          44          45          46          47          48          49          50
 IAtWgt=          12          16          16          12           1           1           1           1           1           1
 AtmWgt=  12.0000000  15.9949146  15.9949146  12.0000000   1.0078250   1.0078250   1.0078250   1.0078250   1.0078250   1.0078250
 NucSpn=           0           0           0           0           1           1           1           1           1           1
 AtZEff=  -0.0000000  -0.0000000  -0.0000000  -0.0000000  -0.0000000  -0.0000000  -0.0000000  -0.0000000  -0.0000000  -0.0000000
 NQMom=    0.0000000   0.0000000   0.0000000   0.0000000   0.0000000   0.0000000   0.0000000   0.0000000   0.0000000   0.0000000
 NMagM=    0.0000000   0.0000000   0.0000000   0.0000000   2.7928460   2.7928460   2.7928460   2.7928460   2.7928460   2.7928460
 AtZNuc=   6.0000000   8.0000000   8.0000000   6.0000000   1.0000000   1.0000000   1.0000000   1.0000000   1.0000000   1.0000000

  Atom        51          52          53          54          55          56          57          58          59          60
 IAtWgt=           1           1           1           1           1           1           1           1           1           1
 AtmWgt=   1.0078250   1.0078250   1.0078250   1.0078250   1.0078250   1.0078250   1.0078250   1.0078250   1.0078250   1.0078250
 NucSpn=           1           1           1           1           1           1           1           1           1           1
 AtZEff=  -0.0000000  -0.0000000  -0.0000000  -0.0000000  -0.0000000  -0.0000000  -0.0000000  -0.0000000  -0.0000000  -0.0000000
 NQMom=    0.0000000   0.0000000   0.0000000   0.0000000   0.0000000   0.0000000   0.0000000   0.0000000   0.0000000   0.0000000
 NMagM=    2.7928460   2.7928460   2.7928460   2.7928460   2.7928460   2.7928460   2.7928460   2.7928460   2.7928460   2.7928460
 AtZNuc=   1.0000000   1.0000000   1.0000000   1.0000000   1.0000000   1.0000000   1.0000000   1.0000000   1.0000000   1.0000000

  Atom        61          62          63          64          65          66          67          68          69          70
 IAtWgt=           1           1           1           1           1           1           1           1           1           1
 AtmWgt=   1.0078250   1.0078250   1.0078250   1.0078250   1.0078250   1.0078250   1.0078250   1.0078250   1.0078250   1.0078250
 NucSpn=           1           1           1           1           1           1           1           1           1           1
 AtZEff=  -0.0000000  -0.0000000  -0.0000000  -0.0000000  -0.0000000  -0.0000000  -0.0000000  -0.0000000  -0.0000000  -0.0000000
 NQMom=    0.0000000   0.0000000   0.0000000   0.0000000   0.0000000   0.0000000   0.0000000   0.0000000   0.0000000   0.0000000
 NMagM=    2.7928460   2.7928460   2.7928460   2.7928460   2.7928460   2.7928460   2.7928460   2.7928460   2.7928460   2.7928460
 AtZNuc=   1.0000000   1.0000000   1.0000000   1.0000000   1.0000000   1.0000000   1.0000000   1.0000000   1.0000000   1.0000000

  Atom        71          72          73          74          75          76          77          78          79          80
 IAtWgt=           1           1           1           1           1           1           1           1           1          24
 AtmWgt=   1.0078250   1.0078250   1.0078250   1.0078250   1.0078250   1.0078250   1.0078250   1.0078250   1.0078250  23.9850450
 NucSpn=           1           1           1           1           1           1           1           1           1           0
 AtZEff=  -0.0000000  -0.0000000  -0.0000000  -0.0000000  -0.0000000  -0.0000000  -0.0000000  -0.0000000  -0.0000000  -0.0000000
 NQMom=    0.0000000   0.0000000   0.0000000   0.0000000   0.0000000   0.0000000   0.0000000   0.0000000   0.0000000   0.0000000
 NMagM=    2.7928460   2.7928460   2.7928460   2.7928460   2.7928460   2.7928460   2.7928460   2.7928460   2.7928460   0.0000000
 AtZNuc=   1.0000000   1.0000000   1.0000000   1.0000000   1.0000000   1.0000000   1.0000000   1.0000000   1.0000000  12.0000000

  Atom        81          82          83          84          85          86          87          88          89          90
 IAtWgt=          12          12          12          12          14          12          12          12          12          12
 AtmWgt=  12.0000000  12.0000000  12.0000000  12.0000000  14.0030740  12.0000000  12.0000000  12.0000000  12.0000000  12.0000000
 NucSpn=           0           0           0           0           2           0           0           0           0           0
 AtZEff=  -0.0000000  -0.0000000  -0.0000000  -0.0000000  -0.0000000  -0.0000000  -0.0000000  -0.0000000  -0.0000000  -0.0000000
 NQMom=    0.0000000   0.0000000   0.0000000   0.0000000   2.0440000   0.0000000   0.0000000   0.0000000   0.0000000   0.0000000
 NMagM=    0.0000000   0.0000000   0.0000000   0.0000000   0.4037610   0.0000000   0.0000000   0.0000000   0.0000000   0.0000000
 AtZNuc=   6.0000000   6.0000000   6.0000000   6.0000000   7.0000000   6.0000000   6.0000000   6.0000000   6.0000000   6.0000000

  Atom        91          92          93          94          95          96          97          98          99         100
 IAtWgt=          12          12           1          14          12          12          12          12          12          12
 AtmWgt=  12.0000000  12.0000000   1.0078250  14.0030740  12.0000000  12.0000000  12.0000000  12.0000000  12.0000000  12.0000000
 NucSpn=           0           0           1           2           0           0           0           0           0           0
 AtZEff=  -0.0000000  -0.0000000  -0.0000000  -0.0000000  -0.0000000  -0.0000000  -0.0000000  -0.0000000  -0.0000000  -0.0000000
 NQMom=    0.0000000   0.0000000   0.0000000   2.0440000   0.0000000   0.0000000   0.0000000   0.0000000   0.0000000   0.0000000
 NMagM=    0.0000000   0.0000000   2.7928460   0.4037610   0.0000000   0.0000000   0.0000000   0.0000000   0.0000000   0.0000000
 AtZNuc=   6.0000000   6.0000000   1.0000000   7.0000000   6.0000000   6.0000000   6.0000000   6.0000000   6.0000000   6.0000000

  Atom       101         102         103         104         105         106         107         108         109         110
 IAtWgt=          16          12          14          12          12          12          12          12          12          12
 AtmWgt=  15.9949146  12.0000000  14.0030740  12.0000000  12.0000000  12.0000000  12.0000000  12.0000000  12.0000000  12.0000000
 NucSpn=           0           0           2           0           0           0           0           0           0           0
 AtZEff=  -0.0000000  -0.0000000  -0.0000000  -0.0000000  -0.0000000  -0.0000000  -0.0000000  -0.0000000  -0.0000000  -0.0000000
 NQMom=    0.0000000   0.0000000   2.0440000   0.0000000   0.0000000   0.0000000   0.0000000   0.0000000   0.0000000   0.0000000
 NMagM=    0.0000000   0.0000000   0.4037610   0.0000000   0.0000000   0.0000000   0.0000000   0.0000000   0.0000000   0.0000000
 AtZNuc=   8.0000000   6.0000000   7.0000000   6.0000000   6.0000000   6.0000000   6.0000000   6.0000000   6.0000000   6.0000000

  Atom       111         112         113         114         115         116         117         118         119         120
 IAtWgt=          14          12          12          12          12          12          12          16          12          12
 AtmWgt=  14.0030740  12.0000000  12.0000000  12.0000000  12.0000000  12.0000000  12.0000000  15.9949146  12.0000000  12.0000000
 NucSpn=           2           0           0           0           0           0           0           0           0           0
 AtZEff=  -0.0000000  -0.0000000  -0.0000000  -0.0000000  -0.0000000  -0.0000000  -0.0000000  -0.0000000  -0.0000000  -0.0000000
 NQMom=    2.0440000   0.0000000   0.0000000   0.0000000   0.0000000   0.0000000   0.0000000   0.0000000   0.0000000   0.0000000
 NMagM=    0.4037610   0.0000000   0.0000000   0.0000000   0.0000000   0.0000000   0.0000000   0.0000000   0.0000000   0.0000000
 AtZNuc=   7.0000000   6.0000000   6.0000000   6.0000000   6.0000000   6.0000000   6.0000000   8.0000000   6.0000000   6.0000000

  Atom       121         122         123         124         125         126         127         128         129         130
 IAtWgt=          16          16          12           1           1           1           1           1           1           1
 AtmWgt=  15.9949146  15.9949146  12.0000000   1.0078250   1.0078250   1.0078250   1.0078250   1.0078250   1.0078250   1.0078250
 NucSpn=           0           0           0           1           1           1           1           1           1           1
 AtZEff=  -0.0000000  -0.0000000  -0.0000000  -0.0000000  -0.0000000  -0.0000000  -0.0000000  -0.0000000  -0.0000000  -0.0000000
 NQMom=    0.0000000   0.0000000   0.0000000   0.0000000   0.0000000   0.0000000   0.0000000   0.0000000   0.0000000   0.0000000
 NMagM=    0.0000000   0.0000000   0.0000000   2.7928460   2.7928460   2.7928460   2.7928460   2.7928460   2.7928460   2.7928460
 AtZNuc=   8.0000000   8.0000000   6.0000000   1.0000000   1.0000000   1.0000000   1.0000000   1.0000000   1.0000000   1.0000000

  Atom       131         132         133         134         135         136         137         138         139         140
 IAtWgt=           1           1           1           1           1           1           1           1           1           1
 AtmWgt=   1.0078250   1.0078250   1.0078250   1.0078250   1.0078250   1.0078250   1.0078250   1.0078250   1.0078250   1.0078250
 NucSpn=           1           1           1           1           1           1           1           1           1           1
 AtZEff=  -0.0000000  -0.0000000  -0.0000000  -0.0000000  -0.0000000  -0.0000000  -0.0000000  -0.0000000  -0.0000000  -0.0000000
 NQMom=    0.0000000   0.0000000   0.0000000   0.0000000   0.0000000   0.0000000   0.0000000   0.0000000   0.0000000   0.0000000
 NMagM=    2.7928460   2.7928460   2.7928460   2.7928460   2.7928460   2.7928460   2.7928460   2.7928460   2.7928460   2.7928460
 AtZNuc=   1.0000000   1.0000000   1.0000000   1.0000000   1.0000000   1.0000000   1.0000000   1.0000000   1.0000000   1.0000000

  Atom       141         142         143         144         145         146         147         148         149         150
 IAtWgt=           1           1           1           1           1           1           1           1           1           1
 AtmWgt=   1.0078250   1.0078250   1.0078250   1.0078250   1.0078250   1.0078250   1.0078250   1.0078250   1.0078250   1.0078250
 NucSpn=           1           1           1           1           1           1           1           1           1           1
 AtZEff=  -0.0000000  -0.0000000  -0.0000000  -0.0000000  -0.0000000  -0.0000000  -0.0000000  -0.0000000  -0.0000000  -0.0000000
 NQMom=    0.0000000   0.0000000   0.0000000   0.0000000   0.0000000   0.0000000   0.0000000   0.0000000   0.0000000   0.0000000
 NMagM=    2.7928460   2.7928460   2.7928460   2.7928460   2.7928460   2.7928460   2.7928460   2.7928460   2.7928460   2.7928460
 AtZNuc=   1.0000000   1.0000000   1.0000000   1.0000000   1.0000000   1.0000000   1.0000000   1.0000000   1.0000000   1.0000000

  Atom       151         152         153         154         155         156         157         158
 IAtWgt=           1           1           1           1           1           1           1           1
 AtmWgt=   1.0078250   1.0078250   1.0078250   1.0078250   1.0078250   1.0078250   1.0078250   1.0078250
 NucSpn=           1           1           1           1           1           1           1           1
 AtZEff=  -0.0000000  -0.0000000  -0.0000000  -0.0000000  -0.0000000  -0.0000000  -0.0000000  -0.0000000
 NQMom=    0.0000000   0.0000000   0.0000000   0.0000000   0.0000000   0.0000000   0.0000000   0.0000000
 NMagM=    2.7928460   2.7928460   2.7928460   2.7928460   2.7928460   2.7928460   2.7928460   2.7928460
 AtZNuc=   1.0000000   1.0000000   1.0000000   1.0000000   1.0000000   1.0000000   1.0000000   1.0000000
 Leave Link  101 at Thu Sep  9 11:27:55 2021, MaxMem= 23488102400 cpu:               3.5 elap:               0.2
 (Enter /sw/apps/gaussian-16.0/g16/l202.exe)
 Stoichiometry    C68H72Mg2N8O8
 Framework group  C1[X(C68H72Mg2N8O8)]
 Deg. of freedom   468
 Full point group                 C1      NOp   1
 Largest Abelian subgroup         C1      NOp   1
 Largest concise Abelian subgroup C1      NOp   1
                         Standard orientation:                         
 ---------------------------------------------------------------------
 Center     Atomic      Atomic             Coordinates (Angstroms)
 Number     Number       Type             X           Y           Z
 ---------------------------------------------------------------------
      1         12           0        4.231247    0.197586    0.664907
      2          6           0        4.392258   -2.910500   -1.103168
      3          6           0        5.536987    1.677796   -2.118452
      4          6           0        4.523306    2.865818    2.353652
      5          6           0        4.025604   -1.656868    3.608437
      6          7           0        4.843508   -0.618546   -1.299708
      7          6           0        4.798165   -1.817502   -1.872089
      8          6           0        5.150749   -1.791458   -3.389449
      9          6           0        6.017294   -0.453575   -3.423598
     10          6           0        5.406892    0.261679   -2.231229
     11          6           0        7.500947   -0.681556   -3.152859
     12          6           0        3.877916   -1.672846   -4.293638
     13          6           0        4.102287   -1.967495   -5.779637
     14          1           0        3.048376   -2.635800   -6.527960
     15          7           0        4.460867    2.068825    0.074493
     16          6           0        4.995798    2.488463   -1.097275
     17          6           0        4.944691    3.965918   -1.062709
     18          6           0        4.511533    4.374411    0.302429
     19          6           0        4.506456    3.103821    0.981363
     20          6           0        5.238288    4.827441   -2.252385
     21          6           0        4.168366    5.700951    0.902979
     22          8           0        4.041626    5.864037    2.164690
     23          6           0        4.070182    6.838525   -0.029399
     24          7           0        4.491014    0.566965    2.702973
     25          6           0        4.529091    1.816555    3.178430
     26          6           0        4.436657    1.834206    4.675455
     27          6           0        4.081210    0.340539    5.114055
     28          6           0        4.113781   -0.329372    3.718194
     29          6           0        5.697208    2.297958    5.418393
     30          6           0        2.821916    0.147352    5.995687
     31          6           0        1.581088    0.481909    5.198496
     32          7           0        4.032169   -1.900533    1.183855
     33          6           0        3.988778   -2.449650    2.473530
     34          6           0        3.957904   -3.915579    2.318069
     35          6           0        4.002503   -4.119131    0.940236
     36          6           0        4.084221   -2.860942    0.277986
     37          6           0        3.954305   -4.866010    3.376890
     38          6           0        4.024981   -5.107694   -0.125640
     39          8           0        3.886684   -6.330689   -0.177119
     40          6           0        4.401028   -4.369660   -1.485685
     41          6           0        3.425696   -4.827165   -2.535793
     42          8           0        2.217512   -4.523378   -2.462506
     43          8           0        4.100469   -5.342113   -3.575048
     44          6           0        3.192663   -5.788368   -4.665414
     45          1           0        6.157458    2.210126   -2.842041
     46          1           0        4.511825    3.765594    2.972288
     47          1           0        3.875931   -2.297725    4.479272
     48          1           0        5.752817   -2.633778   -3.730675
     49          1           0        5.847649    0.117981   -4.335885
     50          1           0        7.697651   -1.710780   -2.852980
     51          1           0        7.758687    0.005705   -2.346797
     52          1           0        8.102328   -0.377217   -4.009886
     53          1           0        3.576987   -0.627041   -4.355239
     54          1           0        3.076404   -2.309233   -3.916920
     55          1           0        5.060951   -2.458875   -5.948220
     56          1           0        4.188423   -1.017410   -6.307006
     57          1           0        5.688209    4.253299   -3.061382
     58          1           0        6.015805    5.529856   -1.952735
     59          1           0        4.358179    5.375157   -2.589652
     60          1           0        5.021513    6.962572   -0.547212
     61          1           0        3.729634    7.685783    0.564764
     62          1           0        3.331900    6.603507   -0.796637
     63          1           0        3.644804    2.502890    5.010503
     64          1           0        4.883664   -0.117799    5.692560
     65          1           0        5.527275    3.146310    6.081813
     66          1           0        6.460289    2.529025    4.675692
     67          1           0        6.192680    1.524620    6.004800
     68          1           0        2.848095    0.825462    6.847994
     69          1           0        2.718307   -0.866770    6.381787
     70          1           0        1.516018    1.565299    5.292647
     71          1           0        0.706497   -0.001180    5.635448
     72          1           0        1.714089    0.254163    4.140701
     73          1           0        3.221403   -5.624870    3.103113
     74          1           0        3.703198   -4.397828    4.328391
     75          1           0        4.987284   -5.211770    3.341383
     76          1           0        5.424629   -4.656079   -1.725115
     77          1           0        3.416179   -6.837370   -4.860016
     78          1           0        3.323416   -5.082528   -5.485840
     79          1           0        2.132494   -5.846606   -4.416438
     80         12           0       -3.641527    0.809473   -0.201477
     81          6           0       -6.457977   -1.381558    0.180666
     82          6           0       -5.748729    3.005944   -1.740899
     83          6           0       -1.105446    2.561502   -0.953880
     84          6           0       -1.592033   -1.962413    0.310334
     85          7           0       -5.802906    0.711664   -0.660952
     86          6           0       -6.782992   -0.144048   -0.412939
     87          6           0       -8.201758    0.387411   -0.750925
     88          6           0       -7.791637    1.488293   -1.845800
     89          6           0       -6.370418    1.786183   -1.372413
     90          6           0       -7.718048    0.933601   -3.258679
     91          6           0       -8.904995    1.044141    0.488501
     92          6           0      -10.402709    1.305442    0.314390
     93          1           0      -11.275519    1.152278    1.475085
     94          7           0       -3.512150    2.712205   -0.750493
     95          6           0       -4.470972    3.455590   -1.341519
     96          6           0       -3.874255    4.782485   -1.559298
     97          6           0       -2.432060    4.713146   -1.198744
     98          6           0       -2.286054    3.289866   -0.968465
     99          6           0       -4.677987    5.975777   -1.987678
    100          6           0       -1.358577    5.753625   -1.092788
    101          8           0       -0.120577    5.436312   -0.995218
    102          6           0       -1.790690    7.154751   -1.200568
    103          7           0       -1.642632    0.333530   -0.518102
    104          6           0       -0.736963    1.292039   -0.780697
    105          6           0        0.670216    0.750456   -0.697402
    106          6           0        0.529081   -0.719903   -0.084465
    107          6           0       -1.010283   -0.811723    0.001100
    108          6           0        1.434973    0.679392   -2.018953
    109          6           0        1.360238   -1.034045    1.189570
    110          6           0        0.843115   -0.223311    2.356058
    111          7           0       -3.931311   -1.256769    0.359544
    112          6           0       -2.938396   -2.252175    0.491268
    113          6           0       -3.632656   -3.524559    0.776722
    114          6           0       -4.993410   -3.182834    0.768397
    115          6           0       -5.138014   -1.799488    0.476956
    116          6           0       -3.008265   -4.791420    0.953657
    117          6           0       -6.340863   -3.679977    0.929385
    118          8           0       -6.835751   -4.753464    1.270622
    119          6           0       -7.354890   -2.562010    0.431100
    120          6           0       -8.432120   -2.415380    1.470623
    121          8           0       -8.160956   -1.985072    2.605481
    122          8           0       -9.632162   -2.599185    0.890557
    123          6           0      -10.733420   -2.452748    1.879293
    124          1           0       -6.269998    3.664671   -2.436045
    125          1           0       -0.191406    3.142139   -1.098401
    126          1           0       -1.019152   -2.852401    0.579413
    127          1           0       -8.868091   -0.344643   -1.191238
    128          1           0       -8.414018    2.375770   -1.765913
    129          1           0       -7.838884   -0.139333   -3.277077
    130          1           0       -6.741288    1.210802   -3.633028
    131          1           0       -8.442525    1.441901   -3.901414
    132          1           0       -8.545946    2.075456    0.599043
    133          1           0       -8.740453    0.460604    1.373390
    134          1           0      -10.816298    0.772542   -0.550433
    135          1           0      -10.544834    2.361320    0.071637
    136          1           0       -5.676497    5.684194   -2.336036
    137          1           0       -4.189462    6.387687   -2.877361
    138          1           0       -4.724148    6.750411   -1.219254
    139          1           0       -2.289668    7.306392   -2.154753
    140          1           0       -0.896423    7.751734   -1.011407
    141          1           0       -2.535167    7.352189   -0.421219
    142          1           0        1.277278    1.351836   -0.031890
    143          1           0        0.850690   -1.491808   -0.799003
    144          1           0        2.390091    1.237514   -2.001074
    145          1           0        0.792058    1.051026   -2.805768
    146          1           0        1.666101   -0.326513   -2.365251
    147          1           0        2.402325   -0.738950    1.044217
    148          1           0        1.357679   -2.085020    1.458700
    149          1           0        1.340444    0.742414    2.225144
    150          1           0        1.123947   -0.687213    3.299433
    151          1           0       -0.236224   -0.052721    2.269058
    152          1           0       -3.491413   -5.261150    1.800070
    153          1           0       -1.937041   -4.687837    1.113464
    154          1           0       -3.236565   -5.257482   -0.008598
    155          1           0       -7.754944   -2.887455   -0.529944
    156          1           0      -11.323641   -3.373444    1.838830
    157          1           0      -11.249959   -1.511207    1.613881
    158          1           0      -10.463956   -2.420199    2.928479
 ---------------------------------------------------------------------
 Rotational constants (GHZ):           0.0268627           0.0141590           0.0121072
 Leave Link  202 at Thu Sep  9 11:27:55 2021, MaxMem= 23488102400 cpu:               0.2 elap:               0.0
 (Enter /sw/apps/gaussian-16.0/g16/l301.exe)
 Standard basis: def2SVP (5D, 7F)
 Ernie: Thresh=  0.10000D-02 Tol=  0.10000D-05 Strict=F.
 There are  1658 symmetry adapted cartesian basis functions of A   symmetry.
 There are  1572 symmetry adapted basis functions of A   symmetry.
  1572 basis functions,  2678 primitive gaussians,  1658 cartesian basis functions
   312 alpha electrons      312 beta electrons
       nuclear repulsion energy     16196.3320182812 Hartrees.
 IExCor=20419 DFT=T Ex+Corr=CAM-B3LYP ExCW=0 ScaHFX=  1.000000
 ScaDFX=  1.000000  1.000000  1.000000  0.810000 ScalE2=  1.000000  1.000000
 IRadAn=      5 IRanWt=     -1 IRanGd=            0 ICorTp=0 IEmpDi=  4
 HFx  wShort=  0.000000 wLong=  0.330000 cFull=  0.190000 cShort=  0.000000 cLong=  0.460000
 DFx  wShort=  0.000000 wLong=  0.330000 cFull=  0.190000 cShort=  0.000000 cLong=  0.460000
 NAtoms=  158 NActive=  158 NUniq=  158 SFac= 1.00D+00 NAtFMM=   60 NAOKFM=T Big=T
 Integral buffers will be    131072 words long.
 Raffenetti 1 integral format.
 Two-electron integral symmetry is turned on.
 Leave Link  301 at Thu Sep  9 11:27:55 2021, MaxMem= 23488102400 cpu:               1.3 elap:               0.1
 (Enter /sw/apps/gaussian-16.0/g16/l302.exe)
 NPDir=0 NMtPBC=     1 NCelOv=     1 NCel=       1 NClECP=     1 NCelD=      1
         NCelK=      1 NCelE2=     1 NClLst=     1 CellRange=     0.0.
 One-electron integrals computed using PRISM.
 One-electron integral symmetry used in STVInt
   1 Symmetry operations used in ECPInt.
 ECPInt:  NShTT=  271216 NPrTT=  987664 LenC2=  160997 LenP2D=  343659.
 LDataN:  DoStor=T MaxTD1= 4 Len=   56
 NBasis=  1572 RedAO= T EigKep=  3.20D-04  NBF=  1572
 NBsUse=  1572 1.00D-06 EigRej= -1.00D+00 NBFU=  1572
 Precomputing XC quadrature grid using
 IXCGrd= 4 IRadAn=           5 IRanWt=          -1 IRanGd=           0 AccXCQ= 0.00D+00.
 Generated NRdTot=       0 NPtTot=           0 NUsed=           0 NTot=          32
 NSgBfM=  1535  1533  1534  1535  1535 MxSgAt=   158 MxSgA2=   158.
 Leave Link  302 at Thu Sep  9 11:28:01 2021, MaxMem= 23488102400 cpu:             135.8 elap:               5.7
 (Enter /sw/apps/gaussian-16.0/g16/l303.exe)
 DipDrv:  MaxL=1.
 Leave Link  303 at Thu Sep  9 11:28:02 2021, MaxMem= 23488102400 cpu:               9.9 elap:               0.5
 (Enter /sw/apps/gaussian-16.0/g16/l308.exe)
 Leave Link  308 at Thu Sep  9 11:28:02 2021, MaxMem= 23488102400 cpu:              15.2 elap:               0.7
 (Enter /sw/apps/gaussian-16.0/g16/l401.exe)
 ExpMin= 3.36D-02 ExpMax= 4.95D+03 ExpMxC= 7.45D+02 IAcc=3 IRadAn=         5 AccDes= 0.00D+00
 Harris functional with IExCor=20419 and IRadAn=       5 diagonalized for initial guess.
 HarFok:  IExCor=20419 AccDes= 0.00D+00 IRadAn=         5 IDoV= 1 UseB2=F ITyADJ=14
 ICtDFT=  3500011 ScaDFX=  1.000000  1.000000  1.000000  1.000000
 FoFCou: FMM=F IPFlag=           0 FMFlag=      100000 FMFlg1=        2001
         NFxFlg=           0 DoJE=T BraDBF=F KetDBF=T FulRan=T
         wScrn=  0.000000 ICntrl=       500 IOpCl=  0 I1Cent=   200000004 NGrid=           0
         NMat0=    1 NMatS0=      1 NMatT0=    0 NMatD0=    1 NMtDS0=    0 NMtDT0=    0
 Petite list used in FoFCou.
 Harris En= -3918.61422917165    
 JPrj=0 DoOrth=F DoCkMO=F.
 Leave Link  401 at Thu Sep  9 11:28:11 2021, MaxMem= 23488102400 cpu:             217.6 elap:               9.1
 (Enter /sw/apps/gaussian-16.0/g16/l502.exe)
 Integral symmetry usage will be decided dynamically.
 Closed shell SCF:
 Using DIIS extrapolation, IDIIS=  1040.
 NGot= 23488102400 LenX= 23482547354 LenY= 23479796732
 Requested convergence on RMS density matrix=1.00D-08 within 128 cycles.
 Requested convergence on MAX density matrix=1.00D-06.
 Requested convergence on             energy=1.00D-06.
 No special actions if energy rises.
 Fock matrices will be formed incrementally for  20 cycles.

 Cycle   1  Pass 1  IDiag  1:
 FoFJK:  IHMeth= 1 ICntrl=       0 DoSepK=T KAlg= 0 I1Cent=           0 FoldK=F
 IRaf=         1 NMat=       1 IRICut=       1 DoRegI=T DoRafI=F ISym2E= 0 IDoP0=0 IntGTp=1.
 FoFCou: FMM=T IPFlag=           0 FMFlag=      100000 FMFlg1=        2001
         NFxFlg=           0 DoJE=T BraDBF=F KetDBF=F FulRan=T
         wScrn=  0.000000 ICntrl=       500 IOpCl=  0 I1Cent=           0 NGrid=           0
         NMat0=    1 NMatS0=      1 NMatT0=    0 NMatD0=    1 NMtDS0=    0 NMtDT0=    0
 Symmetry not used in FoFCou.
 FMM levels:  10  Number of levels for PrismC:   9
 E= -4068.91211191235    
 DIIS: error= 2.27D-02 at cycle   1 NSaved=   1.
 NSaved= 1 IEnMin= 1 EnMin= -4068.91211191235     IErMin= 1 ErrMin= 2.27D-02
 ErrMax= 2.27D-02  0.00D+00 EMaxC= 1.00D-01 BMatC= 1.70D+00 BMatP= 1.70D+00
 IDIUse=3 WtCom= 7.73D-01 WtEn= 2.27D-01
 Coeff-Com:  0.100D+01
 Coeff-En:   0.100D+01
 Coeff:      0.100D+01
 Gap=     0.118 Goal=   None    Shift=    0.000
 GapD=    0.118 DampG=1.000 DampE=0.500 DampFc=0.5000 IDamp=-1.
 Damping current iteration by 5.00D-01
 RMSDP=1.65D-03 MaxDP=1.86D-01              OVMax= 2.15D-01

 Cycle   2  Pass 1  IDiag  1:
 RMSU=  8.08D-04    CP:  9.80D-01
 E= -4069.30153314500     Delta-E=       -0.389421232645 Rises=F Damp=T
 DIIS: error= 1.37D-02 at cycle   2 NSaved=   2.
 NSaved= 2 IEnMin= 2 EnMin= -4069.30153314500     IErMin= 2 ErrMin= 1.37D-02
 ErrMax= 1.37D-02  0.00D+00 EMaxC= 1.00D-01 BMatC= 3.09D-01 BMatP= 1.70D+00
 IDIUse=3 WtCom= 8.63D-01 WtEn= 1.37D-01
 Coeff-Com: -0.213D+00 0.121D+01
 Coeff-En:   0.000D+00 0.100D+01
 Coeff:     -0.184D+00 0.118D+01
 Gap=     0.135 Goal=   None    Shift=    0.000
 RMSDP=8.09D-04 MaxDP=9.33D-02 DE=-3.89D-01 OVMax= 1.95D-01

 Cycle   3  Pass 1  IDiag  1:
 RMSU=  7.67D-04    CP:  9.65D-01  1.27D+00
 E= -4069.58252398512     Delta-E=       -0.280990840125 Rises=F Damp=F
 DIIS: error= 1.54D-02 at cycle   3 NSaved=   3.
 NSaved= 3 IEnMin= 3 EnMin= -4069.58252398512     IErMin= 2 ErrMin= 1.37D-02
 ErrMax= 1.54D-02  0.00D+00 EMaxC= 1.00D-01 BMatC= 2.12D-01 BMatP= 3.09D-01
 IDIUse=3 WtCom= 8.46D-01 WtEn= 1.54D-01
 Coeff-Com: -0.268D+00 0.660D+00 0.608D+00
 Coeff-En:   0.000D+00 0.000D+00 0.100D+01
 Coeff:     -0.227D+00 0.558D+00 0.669D+00
 Gap=     0.121 Goal=   None    Shift=    0.000
 RMSDP=5.49D-04 MaxDP=4.65D-02 DE=-2.81D-01 OVMax= 1.72D-01

 Cycle   4  Pass 1  IDiag  1:
 RMSU=  2.91D-04    CP:  9.61D-01  1.55D+00  4.75D-01
 E= -4069.72463575079     Delta-E=       -0.142111765668 Rises=F Damp=F
 DIIS: error= 6.82D-03 at cycle   4 NSaved=   4.
 NSaved= 4 IEnMin= 4 EnMin= -4069.72463575079     IErMin= 4 ErrMin= 6.82D-03
 ErrMax= 6.82D-03  0.00D+00 EMaxC= 1.00D-01 BMatC= 5.55D-02 BMatP= 2.12D-01
 IDIUse=3 WtCom= 9.32D-01 WtEn= 6.82D-02
 Coeff-Com: -0.112D+00 0.234D+00 0.411D+00 0.467D+00
 Coeff-En:   0.000D+00 0.000D+00 0.239D+00 0.761D+00
 Coeff:     -0.104D+00 0.218D+00 0.399D+00 0.487D+00
 Gap=     0.120 Goal=   None    Shift=    0.000
 RMSDP=2.29D-04 MaxDP=1.95D-02 DE=-1.42D-01 OVMax= 8.84D-02

 Cycle   5  Pass 1  IDiag  1:
 RMSU=  9.15D-05    CP:  9.61D-01  1.50D+00  6.76D-01  5.34D-01
 E= -4069.77675151434     Delta-E=       -0.052115763548 Rises=F Damp=F
 DIIS: error= 5.48D-04 at cycle   5 NSaved=   5.
 NSaved= 5 IEnMin= 5 EnMin= -4069.77675151434     IErMin= 5 ErrMin= 5.48D-04
 ErrMax= 5.48D-04  0.00D+00 EMaxC= 1.00D-01 BMatC= 1.86D-03 BMatP= 5.55D-02
 IDIUse=3 WtCom= 9.95D-01 WtEn= 5.48D-03
 Coeff-Com: -0.428D-01 0.849D-01 0.189D+00 0.272D+00 0.497D+00
 Coeff-En:   0.000D+00 0.000D+00 0.000D+00 0.000D+00 0.100D+01
 Coeff:     -0.426D-01 0.844D-01 0.188D+00 0.270D+00 0.500D+00
 Gap=     0.119 Goal=   None    Shift=    0.000
 RMSDP=5.55D-05 MaxDP=4.67D-03 DE=-5.21D-02 OVMax= 2.70D-02

 Cycle   6  Pass 1  IDiag  1:
 RMSU=  3.72D-05    CP:  9.61D-01  1.50D+00  6.63D-01  6.20D-01  6.66D-01
 E= -4069.77860566699     Delta-E=       -0.001854152652 Rises=F Damp=F
 DIIS: error= 2.20D-04 at cycle   6 NSaved=   6.
 NSaved= 6 IEnMin= 6 EnMin= -4069.77860566699     IErMin= 6 ErrMin= 2.20D-04
 ErrMax= 2.20D-04  0.00D+00 EMaxC= 1.00D-01 BMatC= 2.43D-04 BMatP= 1.86D-03
 IDIUse=3 WtCom= 9.98D-01 WtEn= 2.20D-03
 Coeff-Com:  0.485D-03-0.339D-02 0.195D-01 0.505D-01 0.285D+00 0.647D+00
 Coeff-En:   0.000D+00 0.000D+00 0.000D+00 0.000D+00 0.111D+00 0.889D+00
 Coeff:      0.484D-03-0.338D-02 0.194D-01 0.504D-01 0.285D+00 0.648D+00
 Gap=     0.120 Goal=   None    Shift=    0.000
 RMSDP=2.05D-05 MaxDP=1.66D-03 DE=-1.85D-03 OVMax= 1.13D-02

 Cycle   7  Pass 1  IDiag  1:
 RMSU=  1.31D-05    CP:  9.61D-01  1.51D+00  6.70D-01  6.15D-01  7.82D-01
                    CP:  7.29D-01
 E= -4069.77889074916     Delta-E=       -0.000285082169 Rises=F Damp=F
 DIIS: error= 1.22D-04 at cycle   7 NSaved=   7.
 NSaved= 7 IEnMin= 7 EnMin= -4069.77889074916     IErMin= 7 ErrMin= 1.22D-04
 ErrMax= 1.22D-04  0.00D+00 EMaxC= 1.00D-01 BMatC= 3.69D-05 BMatP= 2.43D-04
 IDIUse=3 WtCom= 9.99D-01 WtEn= 1.22D-03
 Coeff-Com:  0.455D-02-0.102D-01-0.773D-02-0.960D-03 0.102D+00 0.360D+00
 Coeff-Com:  0.553D+00
 Coeff-En:   0.000D+00 0.000D+00 0.000D+00 0.000D+00 0.000D+00 0.902D-02
 Coeff-En:   0.991D+00
 Coeff:      0.454D-02-0.102D-01-0.772D-02-0.958D-03 0.102D+00 0.359D+00
 Coeff:      0.553D+00
 Gap=     0.120 Goal=   None    Shift=    0.000
 RMSDP=7.40D-06 MaxDP=1.14D-03 DE=-2.85D-04 OVMax= 3.27D-03

 Cycle   8  Pass 1  IDiag  1:
 RMSU=  5.25D-06    CP:  9.61D-01  1.51D+00  6.70D-01  6.21D-01  7.78D-01
                    CP:  8.42D-01  8.20D-01
 E= -4069.77893472083     Delta-E=       -0.000043971664 Rises=F Damp=F
 DIIS: error= 4.77D-05 at cycle   8 NSaved=   8.
 NSaved= 8 IEnMin= 8 EnMin= -4069.77893472083     IErMin= 8 ErrMin= 4.77D-05
 ErrMax= 4.77D-05  0.00D+00 EMaxC= 1.00D-01 BMatC= 4.53D-06 BMatP= 3.69D-05
 IDIUse=1 WtCom= 1.00D+00 WtEn= 0.00D+00
 Coeff-Com:  0.232D-02-0.461D-02-0.802D-02-0.119D-01-0.955D-02 0.376D-01
 Coeff-Com:  0.270D+00 0.724D+00
 Coeff:      0.232D-02-0.461D-02-0.802D-02-0.119D-01-0.955D-02 0.376D-01
 Coeff:      0.270D+00 0.724D+00
 Gap=     0.120 Goal=   None    Shift=    0.000
 RMSDP=3.68D-06 MaxDP=5.00D-04 DE=-4.40D-05 OVMax= 1.43D-03

 Cycle   9  Pass 1  IDiag  1:
 RMSU=  2.24D-06    CP:  9.61D-01  1.51D+00  6.71D-01  6.23D-01  7.92D-01
                    CP:  8.71D-01  9.93D-01  9.89D-01
 E= -4069.77894282324     Delta-E=       -0.000008102412 Rises=F Damp=F
 DIIS: error= 1.87D-05 at cycle   9 NSaved=   9.
 NSaved= 9 IEnMin= 9 EnMin= -4069.77894282324     IErMin= 9 ErrMin= 1.87D-05
 ErrMax= 1.87D-05  0.00D+00 EMaxC= 1.00D-01 BMatC= 9.62D-07 BMatP= 4.53D-06
 IDIUse=1 WtCom= 1.00D+00 WtEn= 0.00D+00
 Coeff-Com:  0.592D-03-0.101D-02-0.314D-02-0.638D-02-0.197D-01-0.361D-01
 Coeff-Com:  0.648D-01 0.389D+00 0.612D+00
 Coeff:      0.592D-03-0.101D-02-0.314D-02-0.638D-02-0.197D-01-0.361D-01
 Coeff:      0.648D-01 0.389D+00 0.612D+00
 Gap=     0.120 Goal=   None    Shift=    0.000
 RMSDP=1.60D-06 MaxDP=1.58D-04 DE=-8.10D-06 OVMax= 8.14D-04

 Cycle  10  Pass 1  IDiag  1:
 RMSU=  1.08D-06    CP:  9.61D-01  1.51D+00  6.71D-01  6.23D-01  7.96D-01
                    CP:  8.82D-01  1.03D+00  1.16D+00  1.04D+00
 E= -4069.77894490121     Delta-E=       -0.000002077970 Rises=F Damp=F
 DIIS: error= 7.57D-06 at cycle  10 NSaved=  10.
 NSaved=10 IEnMin=10 EnMin= -4069.77894490121     IErMin=10 ErrMin= 7.57D-06
 ErrMax= 7.57D-06  0.00D+00 EMaxC= 1.00D-01 BMatC= 1.51D-07 BMatP= 9.62D-07
 IDIUse=1 WtCom= 1.00D+00 WtEn= 0.00D+00
 Coeff-Com: -0.403D-03 0.859D-03 0.106D-02 0.867D-03-0.403D-02-0.283D-01
 Coeff-Com: -0.510D-01-0.392D-01 0.196D+00 0.924D+00
 Coeff:     -0.403D-03 0.859D-03 0.106D-02 0.867D-03-0.403D-02-0.283D-01
 Coeff:     -0.510D-01-0.392D-01 0.196D+00 0.924D+00
 Gap=     0.120 Goal=   None    Shift=    0.000
 RMSDP=1.35D-06 MaxDP=1.29D-04 DE=-2.08D-06 OVMax= 7.34D-04

 Cycle  11  Pass 1  IDiag  1:
 RMSU=  6.39D-07    CP:  9.61D-01  1.51D+00  6.71D-01  6.23D-01  7.97D-01
                    CP:  8.90D-01  1.07D+00  1.26D+00  1.37D+00  1.33D+00
 E= -4069.77894583494     Delta-E=       -0.000000933735 Rises=F Damp=F
 DIIS: error= 4.13D-06 at cycle  11 NSaved=  11.
 NSaved=11 IEnMin=11 EnMin= -4069.77894583494     IErMin=11 ErrMin= 4.13D-06
 ErrMax= 4.13D-06  0.00D+00 EMaxC= 1.00D-01 BMatC= 8.70D-08 BMatP= 1.51D-07
 IDIUse=1 WtCom= 1.00D+00 WtEn= 0.00D+00
 Coeff-Com: -0.391D-03 0.765D-03 0.148D-02 0.225D-02 0.358D-02-0.826D-02
 Coeff-Com: -0.471D-01-0.123D+00-0.696D-01 0.558D+00 0.683D+00
 Coeff:     -0.391D-03 0.765D-03 0.148D-02 0.225D-02 0.358D-02-0.826D-02
 Coeff:     -0.471D-01-0.123D+00-0.696D-01 0.558D+00 0.683D+00
 Gap=     0.120 Goal=   None    Shift=    0.000
 RMSDP=7.98D-07 MaxDP=8.51D-05 DE=-9.34D-07 OVMax= 4.65D-04

 Cycle  12  Pass 1  IDiag  1:
 RMSU=  3.11D-07    CP:  9.61D-01  1.51D+00  6.71D-01  6.24D-01  7.98D-01
                    CP:  8.93D-01  1.09D+00  1.33D+00  1.53D+00  1.74D+00
                    CP:  1.15D+00
 E= -4069.77894618632     Delta-E=       -0.000000351378 Rises=F Damp=F
 DIIS: error= 2.44D-06 at cycle  12 NSaved=  12.
 NSaved=12 IEnMin=12 EnMin= -4069.77894618632     IErMin=12 ErrMin= 2.44D-06
 ErrMax= 2.44D-06  0.00D+00 EMaxC= 1.00D-01 BMatC= 1.62D-08 BMatP= 8.70D-08
 IDIUse=1 WtCom= 1.00D+00 WtEn= 0.00D+00
 Coeff-Com: -0.423D-04 0.649D-04 0.338D-03 0.738D-03 0.331D-02 0.423D-02
 Coeff-Com: -0.350D-02-0.366D-01-0.940D-01 0.390D-02 0.247D+00 0.875D+00
 Coeff:     -0.423D-04 0.649D-04 0.338D-03 0.738D-03 0.331D-02 0.423D-02
 Coeff:     -0.350D-02-0.366D-01-0.940D-01 0.390D-02 0.247D+00 0.875D+00
 Gap=     0.120 Goal=   None    Shift=    0.000
 RMSDP=4.90D-07 MaxDP=3.92D-05 DE=-3.51D-07 OVMax= 3.16D-04

 Cycle  13  Pass 1  IDiag  1:
 RMSU=  1.87D-07    CP:  9.61D-01  1.51D+00  6.71D-01  6.24D-01  7.98D-01
                    CP:  8.93D-01  1.10D+00  1.36D+00  1.63D+00  1.95D+00
                    CP:  1.55D+00  1.26D+00
 E= -4069.77894630542     Delta-E=       -0.000000119097 Rises=F Damp=F
 DIIS: error= 1.59D-06 at cycle  13 NSaved=  13.
 NSaved=13 IEnMin=13 EnMin= -4069.77894630542     IErMin=13 ErrMin= 1.59D-06
 ErrMax= 1.59D-06  0.00D+00 EMaxC= 1.00D-01 BMatC= 9.53D-09 BMatP= 1.62D-08
 IDIUse=1 WtCom= 1.00D+00 WtEn= 0.00D+00
 Coeff-Com:  0.129D-03-0.264D-03-0.388D-03-0.463D-03 0.607D-03 0.530D-02
 Coeff-Com:  0.174D-01 0.283D-01-0.334D-01-0.238D+00-0.194D+00 0.548D+00
 Coeff-Com:  0.867D+00
 Coeff:      0.129D-03-0.264D-03-0.388D-03-0.463D-03 0.607D-03 0.530D-02
 Coeff:      0.174D-01 0.283D-01-0.334D-01-0.238D+00-0.194D+00 0.548D+00
 Coeff:      0.867D+00
 Gap=     0.120 Goal=   None    Shift=    0.000
 RMSDP=4.30D-07 MaxDP=2.95D-05 DE=-1.19D-07 OVMax= 2.83D-04

 Cycle  14  Pass 1  IDiag  1:
 RMSU=  9.14D-08    CP:  9.61D-01  1.51D+00  6.71D-01  6.24D-01  7.99D-01
                    CP:  8.94D-01  1.10D+00  1.39D+00  1.71D+00  2.17D+00
                    CP:  1.83D+00  1.81D+00  1.23D+00
 E= -4069.77894635885     Delta-E=       -0.000000053438 Rises=F Damp=F
 DIIS: error= 9.56D-07 at cycle  14 NSaved=  14.
 NSaved=14 IEnMin=14 EnMin= -4069.77894635885     IErMin=14 ErrMin= 9.56D-07
 ErrMax= 9.56D-07  0.00D+00 EMaxC= 1.00D-01 BMatC= 1.34D-09 BMatP= 9.53D-09
 IDIUse=1 WtCom= 1.00D+00 WtEn= 0.00D+00
 Coeff-Com:  0.746D-04-0.147D-03-0.273D-03-0.411D-03-0.463D-03 0.130D-02
 Coeff-Com:  0.921D-02 0.222D-01 0.730D-02-0.102D+00-0.149D+00 0.573D-01
 Coeff-Com:  0.404D+00 0.751D+00
 Coeff:      0.746D-04-0.147D-03-0.273D-03-0.411D-03-0.463D-03 0.130D-02
 Coeff:      0.921D-02 0.222D-01 0.730D-02-0.102D+00-0.149D+00 0.573D-01
 Coeff:      0.404D+00 0.751D+00
 Gap=     0.120 Goal=   None    Shift=    0.000
 RMSDP=1.28D-07 MaxDP=8.47D-06 DE=-5.34D-08 OVMax= 8.84D-05

 Cycle  15  Pass 1  IDiag  1:
 RMSU=  4.58D-08    CP:  9.61D-01  1.51D+00  6.71D-01  6.24D-01  7.99D-01
                    CP:  8.93D-01  1.10D+00  1.39D+00  1.73D+00  2.21D+00
                    CP:  1.93D+00  1.98D+00  1.47D+00  1.10D+00
 E= -4069.77894636438     Delta-E=       -0.000000005526 Rises=F Damp=F
 DIIS: error= 3.09D-07 at cycle  15 NSaved=  15.
 NSaved=15 IEnMin=15 EnMin= -4069.77894636438     IErMin=15 ErrMin= 3.09D-07
 ErrMax= 3.09D-07  0.00D+00 EMaxC= 1.00D-01 BMatC= 2.85D-10 BMatP= 1.34D-09
 IDIUse=1 WtCom= 1.00D+00 WtEn= 0.00D+00
 Coeff-Com:  0.897D-05-0.158D-04-0.489D-04-0.103D-03-0.342D-03-0.484D-03
 Coeff-Com:  0.841D-03 0.415D-02 0.953D-02-0.110D-02-0.305D-01-0.794D-01
 Coeff-Com:  0.228D-01 0.337D+00 0.738D+00
 Coeff:      0.897D-05-0.158D-04-0.489D-04-0.103D-03-0.342D-03-0.484D-03
 Coeff:      0.841D-03 0.415D-02 0.953D-02-0.110D-02-0.305D-01-0.794D-01
 Coeff:      0.228D-01 0.337D+00 0.738D+00
 Gap=     0.120 Goal=   None    Shift=    0.000
 RMSDP=4.84D-08 MaxDP=3.61D-06 DE=-5.53D-09 OVMax= 3.36D-05

 Cycle  16  Pass 1  IDiag  1:
 RMSU=  2.18D-08    CP:  9.61D-01  1.51D+00  6.71D-01  6.24D-01  7.99D-01
                    CP:  8.93D-01  1.10D+00  1.39D+00  1.74D+00  2.23D+00
                    CP:  1.96D+00  2.03D+00  1.55D+00  1.32D+00  1.17D+00
 E= -4069.77894636597     Delta-E=       -0.000000001590 Rises=F Damp=F
 DIIS: error= 2.11D-07 at cycle  16 NSaved=  16.
 NSaved=16 IEnMin=16 EnMin= -4069.77894636597     IErMin=16 ErrMin= 2.11D-07
 ErrMax= 2.11D-07  0.00D+00 EMaxC= 1.00D-01 BMatC= 7.96D-11 BMatP= 2.85D-10
 IDIUse=1 WtCom= 1.00D+00 WtEn= 0.00D+00
 Coeff-Com: -0.151D-04 0.308D-04 0.476D-04 0.541D-04-0.546D-04-0.590D-03
 Coeff-Com: -0.197D-02-0.412D-02 0.312D-02 0.261D-01 0.245D-01-0.563D-01
 Coeff-Com: -0.891D-01-0.262D-01 0.350D+00 0.774D+00
 Coeff:     -0.151D-04 0.308D-04 0.476D-04 0.541D-04-0.546D-04-0.590D-03
 Coeff:     -0.197D-02-0.412D-02 0.312D-02 0.261D-01 0.245D-01-0.563D-01
 Coeff:     -0.891D-01-0.262D-01 0.350D+00 0.774D+00
 Gap=     0.120 Goal=   None    Shift=    0.000
 RMSDP=2.71D-08 MaxDP=2.07D-06 DE=-1.59D-09 OVMax= 1.97D-05

 Cycle  17  Pass 1  IDiag  1:
 RMSU=  1.38D-08    CP:  9.61D-01  1.51D+00  6.71D-01  6.24D-01  7.99D-01
                    CP:  8.93D-01  1.10D+00  1.39D+00  1.74D+00  2.23D+00
                    CP:  1.97D+00  2.05D+00  1.60D+00  1.42D+00  1.47D+00
                    CP:  1.24D+00
 E= -4069.77894636620     Delta-E=       -0.000000000226 Rises=F Damp=F
 DIIS: error= 7.74D-08 at cycle  17 NSaved=  17.
 NSaved=17 IEnMin=17 EnMin= -4069.77894636620     IErMin=17 ErrMin= 7.74D-08
 ErrMax= 7.74D-08  0.00D+00 EMaxC= 1.00D-01 BMatC= 2.77D-11 BMatP= 7.96D-11
 IDIUse=1 WtCom= 1.00D+00 WtEn= 0.00D+00
 Coeff-Com: -0.893D-05 0.175D-04 0.334D-04 0.489D-04 0.654D-04-0.108D-03
 Coeff-Com: -0.102D-02-0.296D-02-0.826D-03 0.111D-01 0.189D-01-0.631D-02
 Coeff-Com: -0.418D-01-0.103D+00-0.704D-01 0.371D+00 0.826D+00
 Coeff:     -0.893D-05 0.175D-04 0.334D-04 0.489D-04 0.654D-04-0.108D-03
 Coeff:     -0.102D-02-0.296D-02-0.826D-03 0.111D-01 0.189D-01-0.631D-02
 Coeff:     -0.418D-01-0.103D+00-0.704D-01 0.371D+00 0.826D+00
 Gap=     0.120 Goal=   None    Shift=    0.000
 RMSDP=1.84D-08 MaxDP=1.39D-06 DE=-2.26D-10 OVMax= 1.19D-05

 Cycle  18  Pass 1  IDiag  1:
 RMSU=  6.23D-09    CP:  9.61D-01  1.51D+00  6.71D-01  6.24D-01  7.99D-01
                    CP:  8.93D-01  1.10D+00  1.39D+00  1.74D+00  2.24D+00
                    CP:  1.98D+00  2.07D+00  1.63D+00  1.50D+00  1.66D+00
                    CP:  1.68D+00  1.36D+00
 E= -4069.77894636636     Delta-E=       -0.000000000164 Rises=F Damp=F
 DIIS: error= 5.09D-08 at cycle  18 NSaved=  18.
 NSaved=18 IEnMin=18 EnMin= -4069.77894636636     IErMin=18 ErrMin= 5.09D-08
 ErrMax= 5.09D-08  0.00D+00 EMaxC= 1.00D-01 BMatC= 7.61D-12 BMatP= 2.77D-11
 IDIUse=1 WtCom= 1.00D+00 WtEn= 0.00D+00
 Coeff-Com:  0.136D-05-0.311D-05-0.171D-05 0.309D-05 0.614D-04 0.192D-03
 Coeff-Com:  0.297D-03 0.137D-03-0.148D-02-0.491D-02 0.193D-03 0.184D-01
 Coeff-Com:  0.184D-01-0.373D-01-0.177D+00-0.906D-01 0.358D+00 0.915D+00
 Coeff:      0.136D-05-0.311D-05-0.171D-05 0.309D-05 0.614D-04 0.192D-03
 Coeff:      0.297D-03 0.137D-03-0.148D-02-0.491D-02 0.193D-03 0.184D-01
 Coeff:      0.184D-01-0.373D-01-0.177D+00-0.906D-01 0.358D+00 0.915D+00
 Gap=     0.120 Goal=   None    Shift=    0.000
 RMSDP=1.28D-08 MaxDP=9.60D-07 DE=-1.64D-10 OVMax= 8.26D-06

 Cycle  19  Pass 1  IDiag  1:
 RMSU=  4.03D-09    CP:  9.61D-01  1.51D+00  6.71D-01  6.24D-01  7.99D-01
                    CP:  8.93D-01  1.10D+00  1.39D+00  1.74D+00  2.23D+00
                    CP:  1.98D+00  2.07D+00  1.64D+00  1.54D+00  1.80D+00
                    CP:  1.97D+00  1.84D+00  1.17D+00
 E= -4069.77894636648     Delta-E=       -0.000000000116 Rises=F Damp=F
 DIIS: error= 3.80D-08 at cycle  19 NSaved=  19.
 NSaved=19 IEnMin=19 EnMin= -4069.77894636648     IErMin=19 ErrMin= 3.80D-08
 ErrMax= 3.80D-08  0.00D+00 EMaxC= 1.00D-01 BMatC= 4.09D-12 BMatP= 7.61D-12
 IDIUse=1 WtCom= 1.00D+00 WtEn= 0.00D+00
 Coeff-Com:  0.359D-05-0.730D-05-0.116D-04-0.133D-04 0.203D-04 0.159D-03
 Coeff-Com:  0.507D-03 0.101D-02-0.694D-03-0.701D-02-0.601D-02 0.133D-01
 Coeff-Com:  0.254D-01 0.791D-02-0.993D-01-0.179D+00-0.586D-01 0.609D+00
 Coeff-Com:  0.694D+00
 Coeff:      0.359D-05-0.730D-05-0.116D-04-0.133D-04 0.203D-04 0.159D-03
 Coeff:      0.507D-03 0.101D-02-0.694D-03-0.701D-02-0.601D-02 0.133D-01
 Coeff:      0.254D-01 0.791D-02-0.993D-01-0.179D+00-0.586D-01 0.609D+00
 Coeff:      0.694D+00
 Gap=     0.120 Goal=   None    Shift=    0.000
 RMSDP=7.60D-09 MaxDP=5.01D-07 DE=-1.16D-10 OVMax= 4.40D-06

 SCF Done:  E(RCAM-B3LYP) =  -4069.77894637     A.U. after   19 cycles
            NFock= 19  Conv=0.76D-08     -V/T= 2.0101
 KE= 4.028979875089D+03 PE=-4.187409821327D+04 EE= 1.757900737354D+04
 Leave Link  502 at Thu Sep  9 11:43:42 2021, MaxMem= 23488102400 cpu:           21606.0 elap:             930.9
 (Enter /sw/apps/gaussian-16.0/g16/l801.exe)
 DoSCS=F DFT=T ScalE2(SS,OS)=  1.000000  1.000000
 ExpMin= 3.36D-02 ExpMax= 4.95D+03 ExpMxC= 7.45D+02 IAcc=3 IRadAn=         5 AccDes= 0.00D+00
 HarFok:  IExCor=  205 AccDes= 0.00D+00 IRadAn=         5 IDoV=-2 UseB2=F ITyADJ=14
 ICtDFT= 12500011 ScaDFX=  1.000000  1.000000  1.000000  1.000000
 GSVD:  LWork=       -9588 too small for GESVD, short by       45590 words or       45590 for optimal perf.
 Largest valence mixing into a core orbital is  2.05D-04
 Largest core mixing into a valence orbital is  5.22D-05
 Range of M.O.s used for correlation:    95  1572
 NBasis=  1572 NAE=   312 NBE=   312 NFC=    94 NFV=     0
 NROrb=   1478 NOA=   218 NOB=   218 NVA=  1260 NVB=  1260
 Leave Link  801 at Thu Sep  9 11:43:43 2021, MaxMem= 23488102400 cpu:               7.6 elap:               0.3
 (Enter /sw/apps/gaussian-16.0/g16/l914.exe)
 RHF ground state
 Two-electron integrals replicated using symmetry.
 MDV= 23488102400 DFT=T DoStab=F Mixed=T DoRPA=T DoScal=F NonHer=T
 Making orbital integer symmetry assigments:
 Orbital symmetries:
       Occupied  (A) (A) (A) (A) (A) (A) (A) (A) (A) (A) (A) (A)
                 (A) (A) (A) (A) (A) (A) (A) (A) (A) (A) (A) (A)
                 (A) (A) (A) (A) (A) (A) (A) (A) (A) (A) (A) (A)
                 (A) (A) (A) (A) (A) (A) (A) (A) (A) (A) (A) (A)
                 (A) (A) (A) (A) (A) (A) (A) (A) (A) (A) (A) (A)
                 (A) (A) (A) (A) (A) (A) (A) (A) (A) (A) (A) (A)
                 (A) (A) (A) (A) (A) (A) (A) (A) (A) (A) (A) (A)
                 (A) (A) (A) (A) (A) (A) (A) (A) (A) (A) (A) (A)
                 (A) (A) (A) (A) (A) (A) (A) (A) (A) (A) (A) (A)
                 (A) (A) (A) (A) (A) (A) (A) (A) (A) (A) (A) (A)
                 (A) (A) (A) (A) (A) (A) (A) (A) (A) (A) (A) (A)
                 (A) (A) (A) (A) (A) (A) (A) (A) (A) (A) (A) (A)
                 (A) (A) (A) (A) (A) (A) (A) (A) (A) (A) (A) (A)
                 (A) (A) (A) (A) (A) (A) (A) (A) (A) (A) (A) (A)
                 (A) (A) (A) (A) (A) (A) (A) (A) (A) (A) (A) (A)
                 (A) (A) (A) (A) (A) (A) (A) (A) (A) (A) (A) (A)
                 (A) (A) (A) (A) (A) (A) (A) (A) (A) (A) (A) (A)
                 (A) (A) (A) (A) (A) (A) (A) (A) (A) (A) (A) (A)
                 (A) (A) (A) (A) (A) (A) (A) (A) (A) (A) (A) (A)
                 (A) (A) (A) (A) (A) (A) (A) (A) (A) (A) (A) (A)
                 (A) (A) (A) (A) (A) (A) (A) (A) (A) (A) (A) (A)
                 (A) (A) (A) (A) (A) (A) (A) (A) (A) (A) (A) (A)
                 (A) (A) (A) (A) (A) (A) (A) (A) (A) (A) (A) (A)
                 (A) (A) (A) (A) (A) (A) (A) (A) (A) (A) (A) (A)
                 (A) (A) (A) (A) (A) (A) (A) (A) (A) (A) (A) (A)
                 (A) (A) (A) (A) (A) (A) (A) (A) (A) (A) (A) (A)
       Virtual   (A) (A) (A) (A) (A) (A) (A) (A) (A) (A) (A) (A)
                 (A) (A) (A) (A) (A) (A) (A) (A) (A) (A) (A) (A)
                 (A) (A) (A) (A) (A) (A) (A) (A) (A) (A) (A) (A)
                 (A) (A) (A) (A) (A) (A) (A) (A) (A) (A) (A) (A)
                 (A) (A) (A) (A) (A) (A) (A) (A) (A) (A) (A) (A)
                 (A) (A) (A) (A) (A) (A) (A) (A) (A) (A) (A) (A)
                 (A) (A) (A) (A) (A) (A) (A) (A) (A) (A) (A) (A)
                 (A) (A) (A) (A) (A) (A) (A) (A) (A) (A) (A) (A)
                 (A) (A) (A) (A) (A) (A) (A) (A) (A) (A) (A) (A)
                 (A) (A) (A) (A) (A) (A) (A) (A) (A) (A) (A) (A)
                 (A) (A) (A) (A) (A) (A) (A) (A) (A) (A) (A) (A)
                 (A) (A) (A) (A) (A) (A) (A) (A) (A) (A) (A) (A)
                 (A) (A) (A) (A) (A) (A) (A) (A) (A) (A) (A) (A)
                 (A) (A) (A) (A) (A) (A) (A) (A) (A) (A) (A) (A)
                 (A) (A) (A) (A) (A) (A) (A) (A) (A) (A) (A) (A)
                 (A) (A) (A) (A) (A) (A) (A) (A) (A) (A) (A) (A)
                 (A) (A) (A) (A) (A) (A) (A) (A) (A) (A) (A) (A)
                 (A) (A) (A) (A) (A) (A) (A) (A) (A) (A) (A) (A)
                 (A) (A) (A) (A) (A) (A) (A) (A) (A) (A) (A) (A)
                 (A) (A) (A) (A) (A) (A) (A) (A) (A) (A) (A) (A)
                 (A) (A) (A) (A) (A) (A) (A) (A) (A) (A) (A) (A)
                 (A) (A) (A) (A) (A) (A) (A) (A) (A) (A) (A) (A)
                 (A) (A) (A) (A) (A) (A) (A) (A) (A) (A) (A) (A)
                 (A) (A) (A) (A) (A) (A) (A) (A) (A) (A) (A) (A)
                 (A) (A) (A) (A) (A) (A) (A) (A) (A) (A) (A) (A)
                 (A) (A) (A) (A) (A) (A) (A) (A) (A) (A) (A) (A)
                 (A) (A) (A) (A) (A) (A) (A) (A) (A) (A) (A) (A)
                 (A) (A) (A) (A) (A) (A) (A) (A) (A) (A) (A) (A)
                 (A) (A) (A) (A) (A) (A) (A) (A) (A) (A) (A) (A)
                 (A) (A) (A) (A) (A) (A) (A) (A) (A) (A) (A) (A)
                 (A) (A) (A) (A) (A) (A) (A) (A) (A) (A) (A) (A)
                 (A) (A) (A) (A) (A) (A) (A) (A) (A) (A) (A) (A)
                 (A) (A) (A) (A) (A) (A) (A) (A) (A) (A) (A) (A)
                 (A) (A) (A) (A) (A) (A) (A) (A) (A) (A) (A) (A)
                 (A) (A) (A) (A) (A) (A) (A) (A) (A) (A) (A) (A)
                 (A) (A) (A) (A) (A) (A) (A) (A) (A) (A) (A) (A)
                 (A) (A) (A) (A) (A) (A) (A) (A) (A) (A) (A) (A)
                 (A) (A) (A) (A) (A) (A) (A) (A) (A) (A) (A) (A)
                 (A) (A) (A) (A) (A) (A) (A) (A) (A) (A) (A) (A)
                 (A) (A) (A) (A) (A) (A) (A) (A) (A) (A) (A) (A)
                 (A) (A) (A) (A) (A) (A) (A) (A) (A) (A) (A) (A)
                 (A) (A) (A) (A) (A) (A) (A) (A) (A) (A) (A) (A)
                 (A) (A) (A) (A) (A) (A) (A) (A) (A) (A) (A) (A)
                 (A) (A) (A) (A) (A) (A) (A) (A) (A) (A) (A) (A)
                 (A) (A) (A) (A) (A) (A) (A) (A) (A) (A) (A) (A)
                 (A) (A) (A) (A) (A) (A) (A) (A) (A) (A) (A) (A)
                 (A) (A) (A) (A) (A) (A) (A) (A) (A) (A) (A) (A)
                 (A) (A) (A) (A) (A) (A) (A) (A) (A) (A) (A) (A)
                 (A) (A) (A) (A) (A) (A) (A) (A) (A) (A) (A) (A)
                 (A) (A) (A) (A) (A) (A) (A) (A) (A) (A) (A) (A)
                 (A) (A) (A) (A) (A) (A) (A) (A) (A) (A) (A) (A)
                 (A) (A) (A) (A) (A) (A) (A) (A) (A) (A) (A) (A)
                 (A) (A) (A) (A) (A) (A) (A) (A) (A) (A) (A) (A)
                 (A) (A) (A) (A) (A) (A) (A) (A) (A) (A) (A) (A)
                 (A) (A) (A) (A) (A) (A) (A) (A) (A) (A) (A) (A)
                 (A) (A) (A) (A) (A) (A) (A) (A) (A) (A) (A) (A)
                 (A) (A) (A) (A) (A) (A) (A) (A) (A) (A) (A) (A)
                 (A) (A) (A) (A) (A) (A) (A) (A) (A) (A) (A) (A)
                 (A) (A) (A) (A) (A) (A) (A) (A) (A) (A) (A) (A)
                 (A) (A) (A) (A) (A) (A) (A) (A) (A) (A) (A) (A)
                 (A) (A) (A) (A) (A) (A) (A) (A) (A) (A) (A) (A)
                 (A) (A) (A) (A) (A) (A) (A) (A) (A) (A) (A) (A)
                 (A) (A) (A) (A) (A) (A) (A) (A) (A) (A) (A) (A)
                 (A) (A) (A) (A) (A) (A) (A) (A) (A) (A) (A) (A)
                 (A) (A) (A) (A) (A) (A) (A) (A) (A) (A) (A) (A)
                 (A) (A) (A) (A) (A) (A) (A) (A) (A) (A) (A) (A)
                 (A) (A) (A) (A) (A) (A) (A) (A) (A) (A) (A) (A)
                 (A) (A) (A) (A) (A) (A) (A) (A) (A) (A) (A) (A)
                 (A) (A) (A) (A) (A) (A) (A) (A) (A) (A) (A) (A)
                 (A) (A) (A) (A) (A) (A) (A) (A) (A) (A) (A) (A)
                 (A) (A) (A) (A) (A) (A) (A) (A) (A) (A) (A) (A)
                 (A) (A) (A) (A) (A) (A) (A) (A) (A) (A) (A) (A)
                 (A) (A) (A) (A) (A) (A) (A) (A) (A) (A) (A) (A)
                 (A) (A) (A) (A) (A) (A) (A) (A) (A) (A) (A) (A)
                 (A) (A) (A) (A) (A) (A) (A) (A) (A) (A) (A) (A)
                 (A) (A) (A) (A) (A) (A) (A) (A) (A) (A) (A) (A)
                 (A) (A) (A) (A) (A) (A) (A) (A) (A) (A) (A) (A)
                 (A) (A) (A) (A) (A) (A) (A) (A) (A) (A) (A) (A)
                 (A) (A) (A) (A) (A) (A) (A) (A) (A) (A) (A) (A)
                 (A) (A) (A) (A) (A) (A) (A) (A) (A) (A) (A) (A)
                 (A) (A) (A) (A) (A) (A) (A) (A) (A) (A) (A) (A)
                 (A) (A) (A) (A) (A) (A) (A) (A) (A) (A) (A) (A)
                 (A) (A) (A) (A) (A) (A) (A) (A) (A) (A) (A) (A)
                 (A) (A) (A) (A) (A) (A) (A) (A) (A) (A) (A) (A)
                 (A) (A) (A) (A) (A) (A) (A) (A) (A) (A) (A) (A)
                 (A) (A) (A) (A) (A) (A) (A) (A) (A) (A) (A) (A)
                 (A) (A) (A) (A) (A) (A) (A) (A) (A) (A) (A) (A)
                 (A) (A) (A) (A) (A) (A) (A) (A) (A) (A) (A) (A)
                 (A) (A) (A) (A) (A) (A) (A) (A) (A) (A) (A) (A)
                 (A) (A) (A) (A) (A) (A) (A) (A) (A) (A) (A) (A)
                 (A) (A) (A) (A) (A) (A) (A) (A) (A) (A) (A) (A)
                 (A) (A) (A) (A) (A) (A) (A) (A) (A) (A) (A) (A)
                 (A) (A) (A) (A) (A) (A) (A) (A) (A) (A) (A) (A)
                 (A) (A) (A) (A) (A) (A) (A) (A) (A) (A) (A) (A)
                 (A) (A) (A) (A) (A) (A) (A) (A) (A) (A) (A) (A)
                 (A) (A) (A) (A) (A) (A) (A) (A) (A) (A) (A) (A)
                 (A) (A) (A) (A) (A) (A) (A) (A) (A) (A) (A) (A)
                 (A) (A) (A) (A) (A) (A) (A) (A) (A) (A) (A) (A)
                 (A) (A) (A) (A) (A) (A) (A) (A) (A) (A) (A) (A)
                 (A) (A) (A) (A) (A) (A) (A) (A) (A) (A) (A) (A)
                 (A) (A) (A) (A) (A) (A) (A) (A) (A) (A) (A) (A)
                 (A) (A) (A) (A) (A) (A) (A) (A) (A) (A) (A) (A)
                 (A) (A) (A) (A) (A) (A) (A) (A) (A) (A) (A) (A)
                 (A) (A) (A) (A) (A) (A) (A) (A) (A) (A) (A) (A)
                 (A) (A) (A) (A) (A) (A) (A) (A) (A) (A) (A) (A)
    20 initial guesses have been made.
 Convergence on wavefunction:    0.001000000000000
 Davidson Disk Diagonalization:  ConvIn= 1.00D-03 SkipCon=T Conv= 1.00D-03.
 Max sub-space:  2000 roots to seek:    20 dimension of matrix:       549360
 Iteration     1 Dimension    20 NMult     0 NNew     20
 CISAX will form    20 AO SS matrices at one time.
 NMat=    20 NSing=    20 JSym2X= 0.
 FoFJK:  IHMeth= 1 ICntrl=       0 DoSepK=T KAlg= 0 I1Cent=           0 FoldK=F
 IRaf=         1 NMat=      40 IRICut=       1 DoRegI=T DoRafI=F ISym2E= 0 IDoP0=3 IntGTp=3.
 FoFCou: FMM=T IPFlag=           0 FMFlag=      100000 FMFlg1=        2001
         NFxFlg=           0 DoJE=F BraDBF=F KetDBF=F FulRan=T
         wScrn=  0.000000 ICntrl=       500 IOpCl=  0 I1Cent=           0 NGrid=           0
         NMat0=   20 NMatS0=     20 NMatT0=    0 NMatD0=   20 NMtDS0=    0 NMtDT0=    0
 Symmetry not used in FoFCou.
 FMM levels:  10  Number of levels for PrismC:   9
 New state      2 was old state      4
 New state      3 was old state      2
 New state      4 was old state      7
 New state      5 was old state      6
 Excitation Energies [eV] at current iteration:
 Root      1 :     2.231243667793773
 Root      2 :     2.428411006956643
 Root      3 :     2.565884700275213
 Root      4 :     2.591910338472516
 Root      5 :     2.621150339494306
 Root      6 :     2.787130575956214
 Root      7 :     3.030368605170784
 Root      8 :     3.195247960513151
 Root      9 :     3.594760994622896
 Root     10 :     3.616226101485433
 Root     11 :     3.714693953751802
 Root     12 :     3.753688852942684
 Root     13 :     4.117507697653767
 Root     14 :     4.252822390095552
 Root     15 :     4.292899107099533
 Root     16 :     4.330394614275885
 Root     17 :     4.491498304010707
 Root     18 :     4.537687759879328
 Root     19 :     4.541768434972326
 Root     20 :     4.620837930065282
 Iteration     2 Dimension    30 NMult    20 NNew     10
 CISAX will form    10 AO SS matrices at one time.
 NMat=    10 NSing=    10 JSym2X= 0.
 New state      1 was old state      3
 Root      1 not converged, maximum delta is    0.306044177673230
 New state      2 was old state      4
 Root      2 not converged, maximum delta is    0.455237647072560
 New state      3 was old state      1
 Root      3 not converged, maximum delta is    0.388398211731526
 New state      4 was old state      5
 Root      4 not converged, maximum delta is    0.216058250900098
 New state      5 was old state      2
 Root      5 not converged, maximum delta is    0.028298050048269
 Excitation Energies [eV] at current iteration:
 Root      1 :     1.743061350264542   Change is   -0.822823350010671
 Root      2 :     2.199675595707625   Change is   -0.392234742764890
 Root      3 :     2.226031628499295   Change is   -0.005212039294478
 Root      4 :     2.231566642497882   Change is   -0.389583696996424
 Root      5 :     2.422805360374370   Change is   -0.005605646582273
 Iteration     3 Dimension    40 NMult    30 NNew     10
 CISAX will form    10 AO SS matrices at one time.
 NMat=    10 NSing=    10 JSym2X= 0.
 Root      1 not converged, maximum delta is    0.050560980024222
 No map to state      2
 New state      3 was old state      2
 Root      3 not converged, maximum delta is    0.240198868507502
 Root      4 not converged, maximum delta is    0.270568237351059
 New state      5 was old state      3
 Root      5 not converged, maximum delta is    0.262660000894792
 Excitation Energies [eV] at current iteration:
 Root      1 :     1.641854994303452   Change is   -0.101206355961090
 Root      2 :     1.850936817650226
 Root      3 :     2.170432749480915   Change is   -0.029242846226710
 Root      4 :     2.188876610043852   Change is   -0.042690032454030
 Root      5 :     2.220402767573869   Change is   -0.005628860925426
 Iteration     4 Dimension    50 NMult    40 NNew     10
 CISAX will form    10 AO SS matrices at one time.
 NMat=    10 NSing=    10 JSym2X= 0.
 Root      1 not converged, maximum delta is    0.014508164786094
 Root      2 not converged, maximum delta is    0.029163008795656
 Root      3 not converged, maximum delta is    0.023031164428296
 Root      4 not converged, maximum delta is    0.017673485191271
 Root      5 not converged, maximum delta is    0.017827187903297
 Excitation Energies [eV] at current iteration:
 Root      1 :     1.625057221498995   Change is   -0.016797772804457
 Root      2 :     1.731088079727358   Change is   -0.119848737922867
 Root      3 :     2.164414971148982   Change is   -0.006017778331933
 Root      4 :     2.180569906671943   Change is   -0.008306703371910
 Root      5 :     2.219919682186386   Change is   -0.000483085387483
 Iteration     5 Dimension    60 NMult    50 NNew     10
 CISAX will form    10 AO SS matrices at one time.
 NMat=    10 NSing=    10 JSym2X= 0.
 Root      1 not converged, maximum delta is    0.004193560757778
 Root      2 not converged, maximum delta is    0.012165019298897
 Root      3 not converged, maximum delta is    0.002978191792383
 Root      4 not converged, maximum delta is    0.002728272223933
 Root      5 not converged, maximum delta is    0.001815995654931
 Excitation Energies [eV] at current iteration:
 Root      1 :     1.623270614119892   Change is   -0.001786607379103
 Root      2 :     1.712775205116404   Change is   -0.018312874610954
 Root      3 :     2.163757471736120   Change is   -0.000657499412862
 Root      4 :     2.179599212125351   Change is   -0.000970694546591
 Root      5 :     2.219874638814568   Change is   -0.000045043371818
 Iteration     6 Dimension    70 NMult    60 NNew     10
 CISAX will form    10 AO SS matrices at one time.
 NMat=    10 NSing=    10 JSym2X= 0.
 Root      1 not converged, maximum delta is    0.001037140188870
 Root      2 not converged, maximum delta is    0.002829297376878
 Root      3 has converged.
 Root      4 has converged.
 Root      5 has converged.
 Excitation Energies [eV] at current iteration:
 Root      1 :     1.623022712590933   Change is   -0.000247901528959
 Root      2 :     1.710488220649536   Change is   -0.002286984466868
 Root      3 :     2.163676690788573   Change is   -0.000080780947548
 Root      4 :     2.179455189888379   Change is   -0.000144022236972
 Root      5 :     2.219868533943311   Change is   -0.000006104871257
 Iteration     7 Dimension    74 NMult    70 NNew      4
 CISAX will form     4 AO SS matrices at one time.
 NMat=     4 NSing=     4 JSym2X= 0.
 Root      1 has converged.
 Root      2 has converged.
 Root      3 has converged.
 Root      4 has converged.
 Root      5 has converged.
[...]
 Alpha virt. eigenvalues --    1.84226   1.84482   1.84520   1.84663   1.84803
 Alpha virt. eigenvalues --    1.84954   1.85158   1.85318   1.85460   1.85646
 Alpha virt. eigenvalues --    1.85888   1.85926   1.86216   1.86312   1.86462
 Alpha virt. eigenvalues --    1.86738   1.86802   1.86939   1.87106   1.87219
 Alpha virt. eigenvalues --    1.87320   1.87591   1.87716   1.87921   1.88086
 Alpha virt. eigenvalues --    1.88241   1.88389   1.88523   1.88651   1.88829
 Alpha virt. eigenvalues --    1.88924   1.89045   1.89345   1.89543   1.89698
 Alpha virt. eigenvalues --    1.89782   1.90048   1.90082   1.90222   1.90531
 Alpha virt. eigenvalues --    1.90646   1.90971   1.91123   1.91395   1.91607
 Alpha virt. eigenvalues --    1.91742   1.91773   1.92262   1.92617   1.92723
 Alpha virt. eigenvalues --    1.92999   1.93148   1.93353   1.93646   1.93897
 Alpha virt. eigenvalues --    1.94166   1.94312   1.94798   1.95192   1.95420
 Alpha virt. eigenvalues --    1.95763   1.95921   1.95978   1.96093   1.96396
 Alpha virt. eigenvalues --    1.96506   1.96683   1.97042   1.97279   1.97336
 Alpha virt. eigenvalues --    1.97433   1.97700   1.98037   1.98290   1.98371
 Alpha virt. eigenvalues --    1.98671   1.98818   1.99026   1.99209   1.99647
 Alpha virt. eigenvalues --    1.99851   2.00004   2.00235   2.00444   2.00994
 Alpha virt. eigenvalues --    2.01215   2.01427   2.01458   2.01731   2.01772
 Alpha virt. eigenvalues --    2.01853   2.02211   2.02514   2.02710   2.03016
 Alpha virt. eigenvalues --    2.03176   2.03387   2.03594   2.03803   2.03953
 Alpha virt. eigenvalues --    2.04464   2.04836   2.05090   2.05126   2.05435
 Alpha virt. eigenvalues --    2.05544   2.06028   2.06245   2.06664   2.06796
 Alpha virt. eigenvalues --    2.07034   2.07426   2.07628   2.07754   2.08416
 Alpha virt. eigenvalues --    2.08826   2.08924   2.09415   2.09655   2.09819
 Alpha virt. eigenvalues --    2.09975   2.10174   2.10906   2.11601   2.11633
 Alpha virt. eigenvalues --    2.11878   2.12004   2.12121   2.12249   2.12453
 Alpha virt. eigenvalues --    2.12745   2.13144   2.13310   2.13469   2.13670
 Alpha virt. eigenvalues --    2.13888   2.14038   2.14588   2.14705   2.15244
 Alpha virt. eigenvalues --    2.15661   2.16115   2.16170   2.16836   2.17072
 Alpha virt. eigenvalues --    2.17195   2.17458   2.17563   2.17808   2.18188
 Alpha virt. eigenvalues --    2.18387   2.18466   2.18644   2.18979   2.19200
 Alpha virt. eigenvalues --    2.19495   2.19503   2.19700   2.19965   2.20221
 Alpha virt. eigenvalues --    2.20480   2.20713   2.21340   2.21449   2.21666
 Alpha virt. eigenvalues --    2.21897   2.22068   2.22414   2.22622   2.22741
 Alpha virt. eigenvalues --    2.23251   2.23462   2.24110   2.24638   2.25097
 Alpha virt. eigenvalues --    2.25244   2.25624   2.26317   2.26661   2.26949
 Alpha virt. eigenvalues --    2.27241   2.27412   2.27783   2.28079   2.28417
 Alpha virt. eigenvalues --    2.28662   2.29501   2.30114   2.30142   2.30222
 Alpha virt. eigenvalues --    2.30849   2.30931   2.31037   2.31253   2.31383
 Alpha virt. eigenvalues --    2.32316   2.32541   2.32869   2.33300   2.33585
 Alpha virt. eigenvalues --    2.34021   2.34227   2.34759   2.35081   2.35408
 Alpha virt. eigenvalues --    2.35608   2.36090   2.36117   2.36620   2.36856
 Alpha virt. eigenvalues --    2.37448   2.37816   2.38617   2.38702   2.38781
 Alpha virt. eigenvalues --    2.38942   2.39266   2.39666   2.39868   2.40401
 Alpha virt. eigenvalues --    2.40425   2.40812   2.41122   2.41343   2.41493
 Alpha virt. eigenvalues --    2.41860   2.42074   2.42284   2.42447   2.43127
 Alpha virt. eigenvalues --    2.43252   2.43363   2.43634   2.43863   2.44574
 Alpha virt. eigenvalues --    2.44664   2.45038   2.45157   2.45221   2.45528
 Alpha virt. eigenvalues --    2.45982   2.46440   2.46497   2.46614   2.46759
 Alpha virt. eigenvalues --    2.46945   2.47076   2.47183   2.47351   2.48002
 Alpha virt. eigenvalues --    2.48276   2.48301   2.48923   2.49867   2.50406
 Alpha virt. eigenvalues --    2.50655   2.51272   2.51326   2.51697   2.52012
 Alpha virt. eigenvalues --    2.52302   2.52375   2.52740   2.52885   2.53342
 Alpha virt. eigenvalues --    2.53556   2.54224   2.54299   2.54706   2.54785
 Alpha virt. eigenvalues --    2.55226   2.55550   2.56063   2.56101   2.57296
 Alpha virt. eigenvalues --    2.58426   2.58647   2.59707   2.60169   2.60434
 Alpha virt. eigenvalues --    2.60561   2.60918   2.61199   2.61990   2.62308
 Alpha virt. eigenvalues --    2.62879   2.62950   2.63518   2.63724   2.64235
 Alpha virt. eigenvalues --    2.64423   2.65049   2.65314   2.65832   2.66026
 Alpha virt. eigenvalues --    2.66223   2.66599   2.66934   2.67523   2.67594
 Alpha virt. eigenvalues --    2.67797   2.68738   2.68885   2.69064   2.69125
 Alpha virt. eigenvalues --    2.69204   2.69994   2.70202   2.70470   2.70754
 Alpha virt. eigenvalues --    2.71160   2.71584   2.71956   2.72312   2.72704
 Alpha virt. eigenvalues --    2.72769   2.72836   2.73084   2.73419   2.73628
 Alpha virt. eigenvalues --    2.73811   2.73926   2.74666   2.74973   2.75285
 Alpha virt. eigenvalues --    2.75474   2.76144   2.76936   2.77220   2.77671
 Alpha virt. eigenvalues --    2.77724   2.77932   2.78249   2.78497   2.78736
 Alpha virt. eigenvalues --    2.79124   2.79359   2.79474   2.80275   2.80361
 Alpha virt. eigenvalues --    2.80776   2.80869   2.81069   2.81513   2.81651
 Alpha virt. eigenvalues --    2.82146   2.82229   2.82926   2.83029   2.83860
 Alpha virt. eigenvalues --    2.84052   2.84133   2.84236   2.84809   2.84901
 Alpha virt. eigenvalues --    2.85381   2.85843   2.86061   2.86982   2.87125
 Alpha virt. eigenvalues --    2.87272   2.88013   2.88115   2.88408   2.88694
 Alpha virt. eigenvalues --    2.88976   2.89382   2.89429   2.90256   2.90900
 Alpha virt. eigenvalues --    2.91826   2.92370   2.92808   2.93553   2.93632
 Alpha virt. eigenvalues --    2.94389   2.95079   2.95347   2.95490   2.95710
 Alpha virt. eigenvalues --    2.95945   2.96157   2.96521   2.96961   2.97163
 Alpha virt. eigenvalues --    2.97908   2.98236   2.98355   2.98448   2.98584
 Alpha virt. eigenvalues --    2.98676   2.98875   2.99028   2.99200   2.99260
 Alpha virt. eigenvalues --    2.99526   3.00091   3.00160   3.00236   3.00529
 Alpha virt. eigenvalues --    3.00848   3.01273   3.01309   3.01695   3.02126
 Alpha virt. eigenvalues --    3.02349   3.02705   3.02843   3.02894   3.02937
 Alpha virt. eigenvalues --    3.03364   3.03816   3.03911   3.03958   3.04306
 Alpha virt. eigenvalues --    3.04642   3.05114   3.05195   3.05692   3.05778
 Alpha virt. eigenvalues --    3.06116   3.06636   3.06848   3.07380   3.08517
 Alpha virt. eigenvalues --    3.08711   3.09466   3.09629   3.09748   3.10259
 Alpha virt. eigenvalues --    3.10632   3.10682   3.10861   3.11143   3.11459
 Alpha virt. eigenvalues --    3.12068   3.12300   3.12932   3.13575   3.13811
 Alpha virt. eigenvalues --    3.13853   3.14138   3.14359   3.14446   3.14605
 Alpha virt. eigenvalues --    3.16152   3.16594   3.17659   3.17726   3.17808
 Alpha virt. eigenvalues --    3.18566   3.18981   3.19467   3.21510   3.22214
 Alpha virt. eigenvalues --    3.22755   3.24228   3.24438   3.24721   3.25030
 Alpha virt. eigenvalues --    3.25376   3.26907   3.27068   3.27769   3.28109
 Alpha virt. eigenvalues --    3.28996   3.29326   3.31615   3.31762   3.33456
 Alpha virt. eigenvalues --    3.33805   3.40342   3.40517   3.42866   3.43128
 Alpha virt. eigenvalues --    3.48873   3.48957   3.50397   3.50539   3.51025
 Alpha virt. eigenvalues --    3.51790   3.56959   3.57272   3.59641   3.59785
 Alpha virt. eigenvalues --    3.62724   3.63446   3.66364   3.66530   3.67145
 Alpha virt. eigenvalues --    3.67637   3.73237   3.74128   3.76116   3.76794
          Condensed to atoms (all electrons):
 Mulliken charges:
               1
     1  Mg   0.668586
     2  C    0.007828
     3  C   -0.090142
     4  C   -0.048157
     5  C   -0.056580
     6  N   -0.244234
     7  C   -0.061558
     8  C   -0.014138
     9  C   -0.085985
    10  C    0.046002
    11  C    0.104953
    12  C    0.038108
    13  C   -0.067679
    14  H    0.036469
    15  N   -0.430390
    16  C    0.166612
    17  C   -0.175872
    18  C    0.002657
    19  C    0.154982
    20  C    0.110340
    21  C    0.023140
    22  O   -0.249607
    23  C    0.056810
    24  N   -0.322332
    25  C    0.044254
    26  C   -0.026679
    27  C   -0.019645
    28  C    0.063880
    29  C    0.077386
    30  C    0.040797
    31  C    0.026537
    32  N   -0.319168
    33  C    0.065444
    34  C   -0.168684
    35  C    0.012390
    36  C    0.071120
    37  C    0.128489
    38  C    0.040711
    39  O   -0.188250
    40  C   -0.009239
    41  C    0.214354
    42  O   -0.261372
    43  O   -0.303735
    44  C    0.157022
    45  H   -0.017939
    46  H   -0.016327
    47  H   -0.042774
    48  H   -0.000861
    49  H   -0.003759
    50  H    0.026084
    51  H    0.017995
    52  H    0.017057
    53  H    0.018131
    54  H    0.050470
    55  H    0.017952
    56  H    0.018477
    57  H    0.004487
    58  H    0.026567
    59  H    0.047528
    60  H    0.032588
    61  H    0.034017
    62  H    0.046852
    63  H    0.018403
    64  H    0.008632
    65  H    0.023638
    66  H    0.012442
    67  H    0.004962
    68  H    0.003511
    69  H   -0.000342
    70  H   -0.001673
    71  H    0.014031
    72  H   -0.014356
    73  H    0.045179
    74  H    0.009063
    75  H    0.046342
    76  H    0.036207
    77  H    0.044064
    78  H    0.047048
    79  H    0.053672
    80  Mg   0.838269
    81  C   -0.017653
    82  C   -0.088380
    83  C   -0.044225
    84  C   -0.067056
    85  N   -0.254664
    86  C   -0.049353
    87  C   -0.015166
    88  C   -0.090383
    89  C    0.045460
    90  C    0.114619
    91  C    0.062598
    92  C   -0.077586
    93  H    0.034398
    94  N   -0.423097
    95  C    0.162321
    96  C   -0.175622
    97  C   -0.009666
    98  C    0.151963
    99  C    0.099690
   100  C    0.017090
   101  O   -0.258037
   102  C    0.061339
   103  N   -0.350448
   104  C    0.036851
   105  C   -0.050672
   106  C   -0.026561
   107  C    0.094554
   108  C    0.064766
   109  C    0.018936
   110  C    0.007256
   111  N   -0.324339
   112  C    0.076710
   113  C   -0.161275
   114  C    0.001811
   115  C    0.096946
   116  C    0.132146
   117  C    0.042826
   118  O   -0.187636
   119  C    0.000909
   120  C    0.211183
   121  O   -0.251308
   122  O   -0.305616
   123  C    0.152164
   124  H   -0.020840
   125  H   -0.016479
   126  H   -0.029319
   127  H   -0.000881
   128  H   -0.004933
   129  H    0.022366
   130  H    0.014259
   131  H    0.015437
   132  H    0.013916
   133  H    0.037592
   134  H    0.020622
   135  H    0.019313
   136  H    0.008450
   137  H    0.024342
   138  H    0.039035
   139  H    0.037715
   140  H    0.033591
   141  H    0.035595
   142  H    0.032254
   143  H    0.033574
   144  H    0.051127
   145  H    0.004840
   146  H    0.016127
   147  H    0.068316
   148  H    0.020667
   149  H    0.029713
   150  H    0.040961
   151  H    0.024486
   152  H    0.044428
   153  H    0.014317
   154  H    0.049400
   155  H    0.034857
   156  H    0.043698
   157  H    0.049232
   158  H    0.053366
 Sum of Mulliken charges =  -0.00000
 Mulliken charges with hydrogens summed into heavy atoms:
               1
     1  Mg   0.668586
     2  C    0.007828
     3  C   -0.108082
     4  C   -0.064484
     5  C   -0.099354
     6  N   -0.244234
     7  C   -0.061558
     8  C   -0.014998
     9  C   -0.089744
    10  C    0.046002
    11  C    0.166089
    12  C    0.106709
    13  C    0.005220
    15  N   -0.430390
    16  C    0.166612
    17  C   -0.175872
    18  C    0.002657
    19  C    0.154982
    20  C    0.188922
    21  C    0.023140
    22  O   -0.249607
    23  C    0.170267
    24  N   -0.322332
    25  C    0.044254
    26  C   -0.008277
    27  C   -0.011013
    28  C    0.063880
    29  C    0.118428
    30  C    0.043966
    31  C    0.024538
    32  N   -0.319168
    33  C    0.065444
    34  C   -0.168684
    35  C    0.012390
    36  C    0.071120
    37  C    0.229073
    38  C    0.040711
    39  O   -0.188250
    40  C    0.026968
    41  C    0.214354
    42  O   -0.261372
    43  O   -0.303735
    44  C    0.301806
    80  Mg   0.838269
    81  C   -0.017653
    82  C   -0.109220
    83  C   -0.060703
    84  C   -0.096376
    85  N   -0.254664
    86  C   -0.049353
    87  C   -0.016047
    88  C   -0.095316
    89  C    0.045460
    90  C    0.166681
    91  C    0.114106
    92  C   -0.003253
    94  N   -0.423097
    95  C    0.162321
    96  C   -0.175622
    97  C   -0.009666
    98  C    0.151963
    99  C    0.171516
   100  C    0.017090
   101  O   -0.258037
   102  C    0.168240
   103  N   -0.350448
   104  C    0.036851
   105  C   -0.018417
   106  C    0.007013
   107  C    0.094554
   108  C    0.136859
   109  C    0.107920
   110  C    0.102417
   111  N   -0.324339
   112  C    0.076710
   113  C   -0.161275
   114  C    0.001811
   115  C    0.096946
   116  C    0.240292
   117  C    0.042826
   118  O   -0.187636
   119  C    0.035766
   120  C    0.211183
   121  O   -0.251308
   122  O   -0.305616
   123  C    0.298459
 Electronic spatial extent (au):  <R**2>=          94234.1588
 Charge=             -0.0000 electrons
 Dipole moment (field-independent basis, Debye):
    X=              1.2711    Y=              6.2631    Z=             -5.5153  Tot=              8.4416
 Quadrupole moment (field-independent basis, Debye-Ang):
   XX=           -464.0833   YY=           -541.7012   ZZ=           -479.4894
   XY=            -31.1857   XZ=              5.2051   YZ=            -11.5098
 Traceless Quadrupole moment (field-independent basis, Debye-Ang):
   XX=             31.0080   YY=            -46.6099   ZZ=             15.6019
   XY=            -31.1857   XZ=              5.2051   YZ=            -11.5098
 Octapole moment (field-independent basis, Debye-Ang**2):
  XXX=           -347.8526  YYY=            299.0213  ZZZ=            -21.0583  XYY=            -97.1197
  XXY=            255.2241  XXZ=           -229.2502  XZZ=            149.1837  YZZ=            -96.7027
  YYZ=           -207.8807  XYZ=            -53.3587
 Hexadecapole moment (field-independent basis, Debye-Ang**3):
 XXXX=         -70823.8772 YYYY=         -33506.5926 ZZZZ=         -17377.6716 XXXY=           -395.6445
 XXXZ=           -634.7737 YYYX=           -528.4645 YYYZ=           -238.9653 ZZZX=             18.9537
 ZZZY=            403.6725 XXYY=         -18969.2848 XXZZ=         -15252.9648 YYZZ=          -8013.4298
 XXYZ=           -453.2153 YYXZ=           -233.9849 ZZXY=           -381.6485
 N-N= 1.619633201828D+04 E-N=-4.187409820886D+04  KE= 4.028979875089D+03
 Leave Link  601 at Thu Sep  9 12:18:14 2021, MaxMem= 23488102400 cpu:              17.6 elap:               0.9
 (Enter /sw/apps/gaussian-16.0/g16/l9999.exe)
 1\1\GINC-BP1-COMPUTE00108\SP\RCAM-B3LYP TD-FC\def2SVP\C68H72Mg2N8O8\OF
 15641\09-Sep-2021\0\\#p cam-b3lyp/Def2SVP td=(nstates=5)\\TDDFT excite
 d states in gaussian\\0,1\Mg,0,0.,0.,0.\C,0,-0.217,-2.218,2.801\C,0,-1
 .255,2.442,2.026\C,0,-0.245,1.85,-2.564\C,0,0.146,-2.824,-2.037\N,0,-0
 .617,-0.009,2.126\C,0,-0.594,-0.908,3.105\C,0,-0.936,-0.309,4.502\C,0,
 -1.773,0.964,4.032\C,0,-1.155,1.168,2.66\C,0,-3.263,0.685,3.863\C,0,0.
 345,0.11,5.299\C,0,0.124,0.397,6.787\H,0,1.168,0.033,7.733\N,0,-0.185,
 1.961,-0.152\C,0,-0.703,2.8,0.777\C,0,-0.62,4.156,0.193\C,0,-0.187,4.0
 15,-1.225\C,0,-0.214,2.583,-1.38\C,0,-0.887,5.406,0.974\C,0,0.181,5.01
 3,-2.277\O,0,0.303,4.69,-3.508\C,0,0.31,6.414,-1.837\N,0,-0.265,-0.413
 ,-2.029\C,0,-0.279,0.569,-2.937\C,0,-0.196,0.024,-4.332\C,0,0.124,-1.5
 33,-4.18\C,0,0.086,-1.632,-2.635\C,0,-1.451,0.205,-5.197\C,0,1.373,-2.
 07,-4.923\C,0,2.626,-1.49,-4.306\N,0,0.15,-2.144,0.303\C,0,0.173,-3.13
 6,-0.688\C,0,0.173,-4.438,0.004\C,0,0.133,-4.111,1.358\C,0,0.083,-2.69
 5,1.502\C,0,0.149,-5.715,-0.623\C,0,0.096,-4.629,2.716\O,0,0.208,-5.74
 7,3.221\C,0,-0.255,-3.428,3.701\C,0,0.717,-3.482,4.848\O,0,1.931,-3.25
 5,4.669\O,0,0.038,-3.556,6.003\C,0,0.943,-3.583,7.183\H,0,-1.859,3.22,
 2.497\H,0,-0.218,2.453,-3.474\H,0,0.276,-3.747,-2.605\H,0,-1.554,-0.94
 9,5.132\H,0,-1.585,1.831,4.665\H,0,-3.484,-0.377,3.969\H,0,-3.511,1.02
 7,2.858\H,0,-3.852,1.301,4.543\H,0,0.669,1.096,4.966\H,0,1.13,-0.639,5
 .189\H,0,-0.844,0.026,7.125\H,0,0.062,1.477,6.921\H,0,-1.344,5.186,1.9
 38\H,0,-1.651,5.963,0.432\H,0,0.007,6.02,1.084\H,0,-0.635,6.744,-1.405
 \H,0,0.665,6.97,-2.704\H,0,1.048,6.466,-1.036\H,0,0.608,0.501,-4.891\H
 ,0,-0.692,-2.156,-4.547\H,0,-1.267,0.74,-6.129\H,0,-2.204,0.714,-4.596
 \H,0,-1.967,-0.72,-5.453\H,0,1.356,-1.759,-5.967\H,0,1.452,-3.157,-4.9
 02\H,0,2.714,-0.522,-4.798\H,0,3.487,-2.121,-4.529\H,0,2.495,-1.303,-3
 .24\H,0,0.867,-6.333,-0.084\H,0,0.404,-5.642,-1.68\H,0,-0.891,-5.999,-
 0.463\H,0,-1.283,-3.581,4.028\H,0,0.698,-4.478,7.755\H,0,0.833,-2.619,
 7.68\H,0,2.,-3.754,6.976\Mg,0,7.88972,0.71302,0.59121\C,0,10.65529,-1.
 52523,1.06121\C,0,10.05422,3.2773,1.20277\C,0,5.39732,2.67616,0.62926\
 C,0,5.77712,-2.00225,1.14795\N,0,10.05142,0.74509,1.0584\C,0,11.01102,
 -0.16325,1.1501\C,0,12.44319,0.42376,1.26795\C,0,12.06428,1.86294,1.87
 134\C,0,10.64681,1.99447,1.31801\C,0,11.98789,1.87807,3.38899\C,0,13.1
 5242,0.55381,-0.12564\C,0,14.65657,0.82729,-0.05869\H,0,15.51823,0.231
 89,-1.07629\N,0,7.80535,2.68549,0.38925\C,0,8.78396,3.57396,0.66168\C,
 0,8.21768,4.89927,0.36667\C,0,6.77199,4.73289,0.05517\C,0,6.59356,3.33
 033,0.37307\C,0,9.04996,6.14769,0.31981\C,0,5.72072,5.68244,-0.43409\O
 ,0,4.4755,5.37974,-0.40858\C,0,6.1839,7.01222,-0.85675\N,0,5.88306,0.4
 3517,1.05862\C,0,5.00019,1.4426,0.94219\C,0,3.58105,0.94109,1.06439\C,
 0,3.68616,-0.65458,1.04553\C,0,5.22257,-0.80651,1.00364\C,0,2.82359,1.
 38621,2.3152\C,0,2.84005,-1.40306,-0.02056\C,0,3.36704,-1.09874,-1.404
 42\N,0,8.13082,-1.41919,0.84346\C,0,7.11565,-2.369,1.09116\C,0,7.78019
 ,-3.67125,1.30323\C,0,9.14808,-3.38203,1.18607\C,0,9.32464,-1.99362,0.
 93982\C,0,7.12725,-4.89801,1.61118\C,0,10.48332,-3.93366,1.22527\O,0,1
 0.9525,-5.0678,1.31087\C,0,11.52466,-2.73373,1.27183\C,0,12.598,-3.010
 48,0.25503\O,0,12.32884,-3.02929,-0.95897\O,0,13.79753,-2.99136,0.8642
 3\C,0,14.89522,-3.24986,-0.10534\H,0,10.59423,4.13606,1.60251\H,0,4.49
 709,3.28926,0.54448\H,0,5.18327,-2.91512,1.22972\H,0,13.09631,-0.10566
 ,1.95127\H,0,12.70528,2.64199,1.46692\H,0,12.08548,0.88726,3.8072\H,0,
 11.01986,2.29707,3.63064\H,0,12.72744,2.57316,3.79674\H,0,12.81517,1.4
 7699,-0.61426\H,0,12.96944,-0.31418,-0.72874\H,0,15.06412,0.64686,0.94
 346\H,0,14.82321,1.8939,-0.22775\H,0,10.04415,5.98486,0.75394\H,0,8.57
 634,6.87309,0.99014\H,0,9.10793,6.5779,-0.6823\H,0,6.69229,7.49803,-0.
 02731\H,0,5.30161,7.51537,-1.25711\H,0,6.92738,6.88731,-1.65189\H,0,2.
 98287,1.26386,0.22113\H,0,3.35252,-1.09616,1.99607\H,0,1.88074,1.91869
 ,2.08811\H,0,3.47957,2.01024,2.90749\H,0,2.57291,0.58802,3.01179\H,0,1
 .8056,-1.05154,0.00186\H,0,2.81799,-2.47825,0.1225\H,0,2.8917,-0.14305
 ,-1.64485\H,0,3.07002,-1.87501,-2.10671\H,0,4.45038,-0.93246,-1.38524\
 H,0,7.59452,-5.66074,1.00258\H,0,6.05751,-4.83743,1.42204\H,0,7.35165,
 -4.97587,2.67835\H,0,11.92382,-2.68553,2.28569\H,0,15.46553,-4.10187,0
 .27742\H,0,15.43384,-2.28928,-0.20989\H,0,14.61967,-3.60555,-1.09125\\
 Version=ES64L-G16RevA.03\State=1-A\HF=-4069.7789464\RMSD=7.600e-09\PG=
 C01 [X(C68H72Mg2N8O8)]\\@


 THE MORE POWERFUL THE METHOD, THE MORE CATASTROPHIC THE ERRORS.
     -- M.D. KAMEN
 Job cpu time:       0 days 19 hours 49 minutes 40.3 seconds.
 Elapsed time:       0 days  0 hours 50 minutes 19.1 seconds.
 File lengths (MBytes):  RWF=  13225 Int=      0 D2E=      0 Chk=    574 Scr=      1
 Normal termination of Gaussian 16 at Thu Sep  9 12:18:15 2021.
