 Entering Gaussian System, Link 0=g16
 Initial command:
 /sw/apps/gaussian-16.0/g16/l1.exe "/tmp/Gau-56085.inp" -scrdir="/tmp/"
 Entering Link 1 = /sw/apps/gaussian-16.0/g16/l1.exe PID=     56086.
  
 Copyright (c) 1988,1990,1992,1993,1995,1998,2003,2009,2016,
            Gaussian, Inc.  All Rights Reserved.
  
 This is part of the Gaussian(R) 16 program.  It is based on
 the Gaussian(R) 09 system (copyright 2009, Gaussian, Inc.),
 the Gaussian(R) 03 system (copyright 2003, Gaussian, Inc.),
 the Gaussian(R) 98 system (copyright 1998, Gaussian, Inc.),
 the Gaussian(R) 94 system (copyright 1995, Gaussian, Inc.),
 the Gaussian 92(TM) system (copyright 1992, Gaussian, Inc.),
 the Gaussian 90(TM) system (copyright 1990, Gaussian, Inc.),
 the Gaussian 88(TM) system (copyright 1988, Gaussian, Inc.),
 the Gaussian 86(TM) system (copyright 1986, Carnegie Mellon
 University), and the Gaussian 82(TM) system (copyright 1983,
 Carnegie Mellon University). Gaussian is a federally registered
 trademark of Gaussian, Inc.
  
 This software contains proprietary and confidential information,
 including trade secrets, belonging to Gaussian, Inc.
  
 This software is provided under written license and may be
 used, copied, transmitted, or stored only in accord with that
 written license.
  
 The following legend is applicable only to US Government
 contracts under FAR:
  
                    RESTRICTED RIGHTS LEGEND
  
 Use, reproduction and disclosure by the US Government is
 subject to restrictions as set forth in subparagraphs (a)
 and (c) of the Commercial Computer Software - Restricted
 Rights clause in FAR 52.227-19.
  
 Gaussian, Inc.
 340 Quinnipiac St., Bldg. 40, Wallingford CT 06492
  
  
 ---------------------------------------------------------------
 Warning -- This program may not be used in any manner that
 competes with the business of Gaussian, Inc. or will provide
 assistance to any competitor of Gaussian, Inc.  The licensee
 of this program is prohibited from giving any competitor of
 Gaussian, Inc. access to this program.  By using this program,
 the user acknowledges that Gaussian, Inc. is engaged in the
 business of creating and licensing software in the field of
 computational chemistry and represents and warrants to the
 licensee that it is not a competitor of Gaussian, Inc. and that
 it will not use this program in any manner prohibited above.
 ---------------------------------------------------------------
  

 Cite this work as:
 Gaussian 16, Revision A.03,
 M. J. Frisch, G. W. Trucks, H. B. Schlegel, G. E. Scuseria, 
 M. A. Robb, J. R. Cheeseman, G. Scalmani, V. Barone, 
 G. A. Petersson, H. Nakatsuji, X. Li, M. Caricato, A. V. Marenich, 
 J. Bloino, B. G. Janesko, R. Gomperts, B. Mennucci, H. P. Hratchian, 
 J. V. Ortiz, A. F. Izmaylov, J. L. Sonnenberg, D. Williams-Young, 
 F. Ding, F. Lipparini, F. Egidi, J. Goings, B. Peng, A. Petrone, 
 T. Henderson, D. Ranasinghe, V. G. Zakrzewski, J. Gao, N. Rega, 
 G. Zheng, W. Liang, M. Hada, M. Ehara, K. Toyota, R. Fukuda, 
 J. Hasegawa, M. Ishida, T. Nakajima, Y. Honda, O. Kitao, H. Nakai, 
 T. Vreven, K. Throssell, J. A. Montgomery, Jr., J. E. Peralta, 
 F. Ogliaro, M. J. Bearpark, J. J. Heyd, E. N. Brothers, K. N. Kudin, 
 V. N. Staroverov, T. A. Keith, R. Kobayashi, J. Normand, 
 K. Raghavachari, A. P. Rendell, J. C. Burant, S. S. Iyengar, 
 J. Tomasi, M. Cossi, J. M. Millam, M. Klene, C. Adamo, R. Cammi, 
 J. W. Ochterski, R. L. Martin, K. Morokuma, O. Farkas, 
 J. B. Foresman, and D. J. Fox, Gaussian, Inc., Wallingford CT, 2016.
 
 ******************************************
 Gaussian 16:  ES64L-G16RevA.03 25-Dec-2016
                11-Sep-2021 
 ******************************************
 %nproc=24
 Will use up to   24 processors via shared memory.
 %mem=175gb
 -----------------------------------
 #p cam-b3lyp/Def2SVP td=(nstates=5)
 -----------------------------------
 1/38=1,172=1/1;
 2/12=2,17=6,18=5,40=1/2;
 3/5=43,7=101,11=9,25=1,30=1,74=-40/1,2,3,8;
 4//1;
 5/5=2,38=5/2;
 8/6=1,10=1,108=5/1;
 9/41=5,42=1,70=2/14;
 6/7=2,8=2,9=2,10=2/1;
 99/5=1,9=1/99;
 Leave Link    1 at Sat Sep 11 21:01:16 2021, MaxMem= 23488102400 cpu:               0.9 elap:               0.0
 (Enter /sw/apps/gaussian-16.0/g16/l101.exe)
 --------------------------------
 TDDFT excited states in gaussian
 --------------------------------
 Symbolic Z-matrix:
 Charge =  0 Multiplicity = 1
 Mg                    0.        0.        0. 
 C                    -0.217    -2.218     2.801 
 C                    -1.255     2.442     2.026 
 C                    -0.245     1.85     -2.564 
 C                     0.146    -2.824    -2.037 
 N                    -0.617    -0.009     2.126 
 C                    -0.594    -0.908     3.105 
 C                    -0.936    -0.309     4.502 
 C                    -1.773     0.964     4.032 
 C                    -1.155     1.168     2.66 
 C                    -3.263     0.685     3.863 
 C                     0.345     0.11      5.299 
 C                     0.124     0.397     6.787 
 H                     1.168     0.033     7.733 
 N                    -0.185     1.961    -0.152 
 C                    -0.703     2.8       0.777 
 C                    -0.62      4.156     0.193 
 C                    -0.187     4.015    -1.225 
 C                    -0.214     2.583    -1.38 
 C                    -0.887     5.406     0.974 
 C                     0.181     5.013    -2.277 
 O                     0.303     4.69     -3.508 
 C                     0.31      6.414    -1.837 
 N                    -0.265    -0.413    -2.029 
 C                    -0.279     0.569    -2.937 
 C                    -0.196     0.024    -4.332 
 C                     0.124    -1.533    -4.18 
 C                     0.086    -1.632    -2.635 
 C                    -1.451     0.205    -5.197 
 C                     1.373    -2.07     -4.923 
 C                     2.626    -1.49     -4.306 
 N                     0.15     -2.144     0.303 
 C                     0.173    -3.136    -0.688 
 C                     0.173    -4.438     0.004 
 C                     0.133    -4.111     1.358 
 C                     0.083    -2.695     1.502 
 C                     0.149    -5.715    -0.623 
 C                     0.096    -4.629     2.716 
 O                     0.208    -5.747     3.221 
 C                    -0.255    -3.428     3.701 
 C                     0.717    -3.482     4.848 
 O                     1.931    -3.255     4.669 
 O                     0.038    -3.556     6.003 
 C                     0.943    -3.583     7.183 
 H                    -1.859     3.22      2.497 
 H                    -0.218     2.453    -3.474 
 H                     0.276    -3.747    -2.605 
 H                    -1.554    -0.949     5.132 
 H                    -1.585     1.831     4.665 
 H                    -3.484    -0.377     3.969 
 H                    -3.511     1.027     2.858 
 H                    -3.852     1.301     4.543 
 H                     0.669     1.096     4.966 
 H                     1.13     -0.639     5.189 
 H                    -0.844     0.026     7.125 
 H                     0.062     1.477     6.921 
 H                    -1.344     5.186     1.938 
 H                    -1.651     5.963     0.432 
 H                     0.007     6.02      1.084 
 H                    -0.635     6.744    -1.405 
 H                     0.665     6.97     -2.704 
 H                     1.048     6.466    -1.036 
 H                     0.608     0.501    -4.891 
 H                    -0.692    -2.156    -4.547 
 H                    -1.267     0.74     -6.129 
 H                    -2.204     0.714    -4.596 
 H                    -1.967    -0.72     -5.453 
 H                     1.356    -1.759    -5.967 
 H                     1.452    -3.157    -4.902 
 H                     2.714    -0.522    -4.798 
 H                     3.487    -2.121    -4.529 
 H                     2.495    -1.303    -3.24 
 H                     0.867    -6.333    -0.084 
 H                     0.404    -5.642    -1.68 
 H                    -0.891    -5.999    -0.463 
 H                    -1.283    -3.581     4.028 
 H                     0.698    -4.478     7.755 
 H                     0.833    -2.619     7.68 
 H                     2.       -3.754     6.976 
 Mg                    15.76173   1.42162   1.18835 
 C                     17.08368  -1.21337  -0.85818 
 C                     17.2437   3.62513  -0.95242 
 C                     14.99743   3.74554   3.20892 
 C                     15.37863  -0.93257   3.72936 
 N                     16.97895   1.12284  -0.6341 
 C                     17.36445   0.07801  -1.35108 
 C                     18.0213   0.43798  -2.71069 
 C                     18.51981   1.92169  -2.35155 
 C                     17.49947   2.26698  -1.26879 
 C                     19.90613   1.95686  -1.7301 
 C                     16.98642   0.44945  -3.89005 
 C                     17.60586   0.48826  -5.28882 
 H                     16.93907  -0.23844  -6.36574 
 N                     15.64394   3.38239   0.90535 
 C                     16.29635   4.11096  -0.02461 
 C                     15.88485   5.50604   0.19583 
 C                     15.06429   5.56267   1.43607 
 C                     15.22424   4.20614   1.92014 
 C                     16.2055   6.61102  -0.76834 
 C                     14.27761   6.66012   2.0864 
 O                     13.83627   6.55305   3.28497 
 C                     14.11921   7.90028   1.31283 
 N                     15.45818   1.45889   3.24476 
 C                     15.08242   2.58966   3.86773 
 C                     14.65816   2.31349   5.29045 
 C                     14.59706   0.7206    5.41904 
 C                     15.10507   0.33352   4.01281 
 C                     15.57204   2.87696   6.37844 
 C                     13.26064   0.10551   5.91736 
 C                     12.17792   0.31729   4.88381 
 N                     15.97478  -0.72083   1.36878 
 C                     15.79035  -1.50149   2.53095 
 C                     16.16127  -2.88938   2.18654 
 C                     16.56088  -2.81504   0.84367 
 C                     16.46624  -1.47181   0.38951 
 C                     16.14959  -3.99915   3.07782 
 C                     17.05135  -3.56559  -0.28982 
 O                     17.24256  -4.75799  -0.52513 
 C                     17.532   -2.5402   -1.40514 
 C                     16.95867  -2.98468  -2.72281 
 O                     15.73012  -2.96855  -2.9152 
 O                     17.96003  -3.14723  -3.60668 
 C                     17.44039  -3.57716  -4.93218 
 H                     17.85476   4.39265  -1.42824 
 H                     14.62474   4.48954   3.91677 
 H                     15.19371  -1.74257   4.43815 
 H                     18.86636  -0.18194  -2.98519 
 H                     18.41449   2.59042  -3.20189 
 H                     20.28018   0.96518  -1.52322 
 H                     19.80299   2.52135  -0.81263 
 H                     20.58834   2.53195  -2.36271 
 H                     16.45682   1.41083  -3.89236 
 H                     16.31446  -0.38333  -3.81541 
 H                     18.67694   0.25277  -5.27198 
 H                     17.56308   1.51551  -5.6589 
 H                     16.96041   6.29938  -1.50072 
 H                     16.69569   7.40445  -0.19384 
 H                     15.3153   7.02159  -1.24964 
 H                     15.09992   8.30657   1.07702 
 H                     13.45353   8.53113   1.90509 
 H                     13.64091   7.65789   0.35727 
 H                     13.67345   2.71988   5.48616 
 H                     15.33911   0.34099   6.13674 
 H                     15.04733   3.54708   7.08532 
 H                     16.39228   3.39575   5.90032 
 H                     16.08938   2.13081   6.97912 
 H                     12.92594   0.61234   6.8258 
 H                     13.33098  -0.95263   6.14624 
 H                     11.83121   1.33345   5.09428 
 H                     11.3771  -0.40785   5.01383 
 H                     12.59545   0.31476   3.87024 
 H                     15.71268  -4.82815   2.5371 
 H                     15.59031  -3.77553   3.98389 
 H                     17.22032  -4.10472   3.27189 
 H                     18.62263  -2.54844  -1.40958 
 H                     17.95921  -4.50473  -5.19318 
 H                     17.58659  -2.71165  -5.60542 
 H                     16.40472  -3.89163  -4.98651 
 
 ITRead=  0  0  0  0  0  0  0  0  0  0  0  0  0  0  0  0  0  0  0  0
 ITRead=  0  0  0  0  0  0  0  0  0  0  0  0  0  0  0  0  0  0  0  0
 ITRead=  0  0  0  0  0  0  0  0  0  0  0  0  0  0  0  0  0  0  0  0
 ITRead=  0  0  0  0  0  0  0  0  0  0  0  0  0  0  0  0  0  0  0  0
 ITRead=  0  0  0  0  0  0  0  0  0  0  0  0  0  0  0  0  0  0  0  0
 ITRead=  0  0  0  0  0  0  0  0  0  0  0  0  0  0  0  0  0  0  0  0
 ITRead=  0  0  0  0  0  0  0  0  0  0  0  0  0  0  0  0  0  0  0  0
 ITRead=  0  0  0  0  0  0  0  0  0  0  0  0  0  0  0  0  0  0
 MicOpt= -1 -1 -1 -1 -1 -1 -1 -1 -1 -1 -1 -1 -1 -1 -1 -1 -1 -1 -1 -1
 MicOpt= -1 -1 -1 -1 -1 -1 -1 -1 -1 -1 -1 -1 -1 -1 -1 -1 -1 -1 -1 -1
 MicOpt= -1 -1 -1 -1 -1 -1 -1 -1 -1 -1 -1 -1 -1 -1 -1 -1 -1 -1 -1 -1
 MicOpt= -1 -1 -1 -1 -1 -1 -1 -1 -1 -1 -1 -1 -1 -1 -1 -1 -1 -1 -1 -1
 MicOpt= -1 -1 -1 -1 -1 -1 -1 -1 -1 -1 -1 -1 -1 -1 -1 -1 -1 -1 -1 -1
 MicOpt= -1 -1 -1 -1 -1 -1 -1 -1 -1 -1 -1 -1 -1 -1 -1 -1 -1 -1 -1 -1
 MicOpt= -1 -1 -1 -1 -1 -1 -1 -1 -1 -1 -1 -1 -1 -1 -1 -1 -1 -1 -1 -1
 MicOpt= -1 -1 -1 -1 -1 -1 -1 -1 -1 -1 -1 -1 -1 -1 -1 -1 -1 -1
 NAtoms=    158 NQM=      158 NQMF=       0 NMMI=      0 NMMIF=      0
                NMic=       0 NMicF=      0.
                    Isotopes and Nuclear Properties:
 (Nuclear quadrupole moments (NQMom) in fm**2, nuclear magnetic moments (NMagM)
  in nuclear magnetons)

  Atom         1           2           3           4           5           6           7           8           9          10
 IAtWgt=          24          12          12          12          12          14          12          12          12          12
 AtmWgt=  23.9850450  12.0000000  12.0000000  12.0000000  12.0000000  14.0030740  12.0000000  12.0000000  12.0000000  12.0000000
 NucSpn=           0           0           0           0           0           2           0           0           0           0
 AtZEff=  -0.0000000  -0.0000000  -0.0000000  -0.0000000  -0.0000000  -0.0000000  -0.0000000  -0.0000000  -0.0000000  -0.0000000
 NQMom=    0.0000000   0.0000000   0.0000000   0.0000000   0.0000000   2.0440000   0.0000000   0.0000000   0.0000000   0.0000000
 NMagM=    0.0000000   0.0000000   0.0000000   0.0000000   0.0000000   0.4037610   0.0000000   0.0000000   0.0000000   0.0000000
 AtZNuc=  12.0000000   6.0000000   6.0000000   6.0000000   6.0000000   7.0000000   6.0000000   6.0000000   6.0000000   6.0000000

  Atom        11          12          13          14          15          16          17          18          19          20
 IAtWgt=          12          12          12           1          14          12          12          12          12          12
 AtmWgt=  12.0000000  12.0000000  12.0000000   1.0078250  14.0030740  12.0000000  12.0000000  12.0000000  12.0000000  12.0000000
 NucSpn=           0           0           0           1           2           0           0           0           0           0
 AtZEff=  -0.0000000  -0.0000000  -0.0000000  -0.0000000  -0.0000000  -0.0000000  -0.0000000  -0.0000000  -0.0000000  -0.0000000
 NQMom=    0.0000000   0.0000000   0.0000000   0.0000000   2.0440000   0.0000000   0.0000000   0.0000000   0.0000000   0.0000000
 NMagM=    0.0000000   0.0000000   0.0000000   2.7928460   0.4037610   0.0000000   0.0000000   0.0000000   0.0000000   0.0000000
 AtZNuc=   6.0000000   6.0000000   6.0000000   1.0000000   7.0000000   6.0000000   6.0000000   6.0000000   6.0000000   6.0000000

  Atom        21          22          23          24          25          26          27          28          29          30
 IAtWgt=          12          16          12          14          12          12          12          12          12          12
 AtmWgt=  12.0000000  15.9949146  12.0000000  14.0030740  12.0000000  12.0000000  12.0000000  12.0000000  12.0000000  12.0000000
 NucSpn=           0           0           0           2           0           0           0           0           0           0
 AtZEff=  -0.0000000  -0.0000000  -0.0000000  -0.0000000  -0.0000000  -0.0000000  -0.0000000  -0.0000000  -0.0000000  -0.0000000
 NQMom=    0.0000000   0.0000000   0.0000000   2.0440000   0.0000000   0.0000000   0.0000000   0.0000000   0.0000000   0.0000000
 NMagM=    0.0000000   0.0000000   0.0000000   0.4037610   0.0000000   0.0000000   0.0000000   0.0000000   0.0000000   0.0000000
 AtZNuc=   6.0000000   8.0000000   6.0000000   7.0000000   6.0000000   6.0000000   6.0000000   6.0000000   6.0000000   6.0000000

  Atom        31          32          33          34          35          36          37          38          39          40
 IAtWgt=          12          14          12          12          12          12          12          12          16          12
 AtmWgt=  12.0000000  14.0030740  12.0000000  12.0000000  12.0000000  12.0000000  12.0000000  12.0000000  15.9949146  12.0000000
 NucSpn=           0           2           0           0           0           0           0           0           0           0
 AtZEff=  -0.0000000  -0.0000000  -0.0000000  -0.0000000  -0.0000000  -0.0000000  -0.0000000  -0.0000000  -0.0000000  -0.0000000
 NQMom=    0.0000000   2.0440000   0.0000000   0.0000000   0.0000000   0.0000000   0.0000000   0.0000000   0.0000000   0.0000000
 NMagM=    0.0000000   0.4037610   0.0000000   0.0000000   0.0000000   0.0000000   0.0000000   0.0000000   0.0000000   0.0000000
 AtZNuc=   6.0000000   7.0000000   6.0000000   6.0000000   6.0000000   6.0000000   6.0000000   6.0000000   8.0000000   6.0000000

  Atom        41          42          43          44          45          46          47          48          49          50
 IAtWgt=          12          16          16          12           1           1           1           1           1           1
 AtmWgt=  12.0000000  15.9949146  15.9949146  12.0000000   1.0078250   1.0078250   1.0078250   1.0078250   1.0078250   1.0078250
 NucSpn=           0           0           0           0           1           1           1           1           1           1
 AtZEff=  -0.0000000  -0.0000000  -0.0000000  -0.0000000  -0.0000000  -0.0000000  -0.0000000  -0.0000000  -0.0000000  -0.0000000
 NQMom=    0.0000000   0.0000000   0.0000000   0.0000000   0.0000000   0.0000000   0.0000000   0.0000000   0.0000000   0.0000000
 NMagM=    0.0000000   0.0000000   0.0000000   0.0000000   2.7928460   2.7928460   2.7928460   2.7928460   2.7928460   2.7928460
 AtZNuc=   6.0000000   8.0000000   8.0000000   6.0000000   1.0000000   1.0000000   1.0000000   1.0000000   1.0000000   1.0000000

  Atom        51          52          53          54          55          56          57          58          59          60
 IAtWgt=           1           1           1           1           1           1           1           1           1           1
 AtmWgt=   1.0078250   1.0078250   1.0078250   1.0078250   1.0078250   1.0078250   1.0078250   1.0078250   1.0078250   1.0078250
 NucSpn=           1           1           1           1           1           1           1           1           1           1
 AtZEff=  -0.0000000  -0.0000000  -0.0000000  -0.0000000  -0.0000000  -0.0000000  -0.0000000  -0.0000000  -0.0000000  -0.0000000
 NQMom=    0.0000000   0.0000000   0.0000000   0.0000000   0.0000000   0.0000000   0.0000000   0.0000000   0.0000000   0.0000000
 NMagM=    2.7928460   2.7928460   2.7928460   2.7928460   2.7928460   2.7928460   2.7928460   2.7928460   2.7928460   2.7928460
 AtZNuc=   1.0000000   1.0000000   1.0000000   1.0000000   1.0000000   1.0000000   1.0000000   1.0000000   1.0000000   1.0000000

  Atom        61          62          63          64          65          66          67          68          69          70
 IAtWgt=           1           1           1           1           1           1           1           1           1           1
 AtmWgt=   1.0078250   1.0078250   1.0078250   1.0078250   1.0078250   1.0078250   1.0078250   1.0078250   1.0078250   1.0078250
 NucSpn=           1           1           1           1           1           1           1           1           1           1
 AtZEff=  -0.0000000  -0.0000000  -0.0000000  -0.0000000  -0.0000000  -0.0000000  -0.0000000  -0.0000000  -0.0000000  -0.0000000
 NQMom=    0.0000000   0.0000000   0.0000000   0.0000000   0.0000000   0.0000000   0.0000000   0.0000000   0.0000000   0.0000000
 NMagM=    2.7928460   2.7928460   2.7928460   2.7928460   2.7928460   2.7928460   2.7928460   2.7928460   2.7928460   2.7928460
 AtZNuc=   1.0000000   1.0000000   1.0000000   1.0000000   1.0000000   1.0000000   1.0000000   1.0000000   1.0000000   1.0000000

  Atom        71          72          73          74          75          76          77          78          79          80
 IAtWgt=           1           1           1           1           1           1           1           1           1          24
 AtmWgt=   1.0078250   1.0078250   1.0078250   1.0078250   1.0078250   1.0078250   1.0078250   1.0078250   1.0078250  23.9850450
 NucSpn=           1           1           1           1           1           1           1           1           1           0
 AtZEff=  -0.0000000  -0.0000000  -0.0000000  -0.0000000  -0.0000000  -0.0000000  -0.0000000  -0.0000000  -0.0000000  -0.0000000
 NQMom=    0.0000000   0.0000000   0.0000000   0.0000000   0.0000000   0.0000000   0.0000000   0.0000000   0.0000000   0.0000000
 NMagM=    2.7928460   2.7928460   2.7928460   2.7928460   2.7928460   2.7928460   2.7928460   2.7928460   2.7928460   0.0000000
 AtZNuc=   1.0000000   1.0000000   1.0000000   1.0000000   1.0000000   1.0000000   1.0000000   1.0000000   1.0000000  12.0000000

  Atom        81          82          83          84          85          86          87          88          89          90
 IAtWgt=          12          12          12          12          14          12          12          12          12          12
 AtmWgt=  12.0000000  12.0000000  12.0000000  12.0000000  14.0030740  12.0000000  12.0000000  12.0000000  12.0000000  12.0000000
 NucSpn=           0           0           0           0           2           0           0           0           0           0
 AtZEff=  -0.0000000  -0.0000000  -0.0000000  -0.0000000  -0.0000000  -0.0000000  -0.0000000  -0.0000000  -0.0000000  -0.0000000
 NQMom=    0.0000000   0.0000000   0.0000000   0.0000000   2.0440000   0.0000000   0.0000000   0.0000000   0.0000000   0.0000000
 NMagM=    0.0000000   0.0000000   0.0000000   0.0000000   0.4037610   0.0000000   0.0000000   0.0000000   0.0000000   0.0000000
 AtZNuc=   6.0000000   6.0000000   6.0000000   6.0000000   7.0000000   6.0000000   6.0000000   6.0000000   6.0000000   6.0000000

  Atom        91          92          93          94          95          96          97          98          99         100
 IAtWgt=          12          12           1          14          12          12          12          12          12          12
 AtmWgt=  12.0000000  12.0000000   1.0078250  14.0030740  12.0000000  12.0000000  12.0000000  12.0000000  12.0000000  12.0000000
 NucSpn=           0           0           1           2           0           0           0           0           0           0
 AtZEff=  -0.0000000  -0.0000000  -0.0000000  -0.0000000  -0.0000000  -0.0000000  -0.0000000  -0.0000000  -0.0000000  -0.0000000
 NQMom=    0.0000000   0.0000000   0.0000000   2.0440000   0.0000000   0.0000000   0.0000000   0.0000000   0.0000000   0.0000000
 NMagM=    0.0000000   0.0000000   2.7928460   0.4037610   0.0000000   0.0000000   0.0000000   0.0000000   0.0000000   0.0000000
 AtZNuc=   6.0000000   6.0000000   1.0000000   7.0000000   6.0000000   6.0000000   6.0000000   6.0000000   6.0000000   6.0000000

  Atom       101         102         103         104         105         106         107         108         109         110
 IAtWgt=          16          12          14          12          12          12          12          12          12          12
 AtmWgt=  15.9949146  12.0000000  14.0030740  12.0000000  12.0000000  12.0000000  12.0000000  12.0000000  12.0000000  12.0000000
 NucSpn=           0           0           2           0           0           0           0           0           0           0
 AtZEff=  -0.0000000  -0.0000000  -0.0000000  -0.0000000  -0.0000000  -0.0000000  -0.0000000  -0.0000000  -0.0000000  -0.0000000
 NQMom=    0.0000000   0.0000000   2.0440000   0.0000000   0.0000000   0.0000000   0.0000000   0.0000000   0.0000000   0.0000000
 NMagM=    0.0000000   0.0000000   0.4037610   0.0000000   0.0000000   0.0000000   0.0000000   0.0000000   0.0000000   0.0000000
 AtZNuc=   8.0000000   6.0000000   7.0000000   6.0000000   6.0000000   6.0000000   6.0000000   6.0000000   6.0000000   6.0000000

  Atom       111         112         113         114         115         116         117         118         119         120
 IAtWgt=          14          12          12          12          12          12          12          16          12          12
 AtmWgt=  14.0030740  12.0000000  12.0000000  12.0000000  12.0000000  12.0000000  12.0000000  15.9949146  12.0000000  12.0000000
 NucSpn=           2           0           0           0           0           0           0           0           0           0
 AtZEff=  -0.0000000  -0.0000000  -0.0000000  -0.0000000  -0.0000000  -0.0000000  -0.0000000  -0.0000000  -0.0000000  -0.0000000
 NQMom=    2.0440000   0.0000000   0.0000000   0.0000000   0.0000000   0.0000000   0.0000000   0.0000000   0.0000000   0.0000000
 NMagM=    0.4037610   0.0000000   0.0000000   0.0000000   0.0000000   0.0000000   0.0000000   0.0000000   0.0000000   0.0000000
 AtZNuc=   7.0000000   6.0000000   6.0000000   6.0000000   6.0000000   6.0000000   6.0000000   8.0000000   6.0000000   6.0000000

  Atom       121         122         123         124         125         126         127         128         129         130
 IAtWgt=          16          16          12           1           1           1           1           1           1           1
 AtmWgt=  15.9949146  15.9949146  12.0000000   1.0078250   1.0078250   1.0078250   1.0078250   1.0078250   1.0078250   1.0078250
 NucSpn=           0           0           0           1           1           1           1           1           1           1
 AtZEff=  -0.0000000  -0.0000000  -0.0000000  -0.0000000  -0.0000000  -0.0000000  -0.0000000  -0.0000000  -0.0000000  -0.0000000
 NQMom=    0.0000000   0.0000000   0.0000000   0.0000000   0.0000000   0.0000000   0.0000000   0.0000000   0.0000000   0.0000000
 NMagM=    0.0000000   0.0000000   0.0000000   2.7928460   2.7928460   2.7928460   2.7928460   2.7928460   2.7928460   2.7928460
 AtZNuc=   8.0000000   8.0000000   6.0000000   1.0000000   1.0000000   1.0000000   1.0000000   1.0000000   1.0000000   1.0000000

  Atom       131         132         133         134         135         136         137         138         139         140
 IAtWgt=           1           1           1           1           1           1           1           1           1           1
 AtmWgt=   1.0078250   1.0078250   1.0078250   1.0078250   1.0078250   1.0078250   1.0078250   1.0078250   1.0078250   1.0078250
 NucSpn=           1           1           1           1           1           1           1           1           1           1
 AtZEff=  -0.0000000  -0.0000000  -0.0000000  -0.0000000  -0.0000000  -0.0000000  -0.0000000  -0.0000000  -0.0000000  -0.0000000
 NQMom=    0.0000000   0.0000000   0.0000000   0.0000000   0.0000000   0.0000000   0.0000000   0.0000000   0.0000000   0.0000000
 NMagM=    2.7928460   2.7928460   2.7928460   2.7928460   2.7928460   2.7928460   2.7928460   2.7928460   2.7928460   2.7928460
 AtZNuc=   1.0000000   1.0000000   1.0000000   1.0000000   1.0000000   1.0000000   1.0000000   1.0000000   1.0000000   1.0000000

  Atom       141         142         143         144         145         146         147         148         149         150
 IAtWgt=           1           1           1           1           1           1           1           1           1           1
 AtmWgt=   1.0078250   1.0078250   1.0078250   1.0078250   1.0078250   1.0078250   1.0078250   1.0078250   1.0078250   1.0078250
 NucSpn=           1           1           1           1           1           1           1           1           1           1
 AtZEff=  -0.0000000  -0.0000000  -0.0000000  -0.0000000  -0.0000000  -0.0000000  -0.0000000  -0.0000000  -0.0000000  -0.0000000
 NQMom=    0.0000000   0.0000000   0.0000000   0.0000000   0.0000000   0.0000000   0.0000000   0.0000000   0.0000000   0.0000000
 NMagM=    2.7928460   2.7928460   2.7928460   2.7928460   2.7928460   2.7928460   2.7928460   2.7928460   2.7928460   2.7928460
 AtZNuc=   1.0000000   1.0000000   1.0000000   1.0000000   1.0000000   1.0000000   1.0000000   1.0000000   1.0000000   1.0000000

  Atom       151         152         153         154         155         156         157         158
 IAtWgt=           1           1           1           1           1           1           1           1
 AtmWgt=   1.0078250   1.0078250   1.0078250   1.0078250   1.0078250   1.0078250   1.0078250   1.0078250
 NucSpn=           1           1           1           1           1           1           1           1
 AtZEff=  -0.0000000  -0.0000000  -0.0000000  -0.0000000  -0.0000000  -0.0000000  -0.0000000  -0.0000000
 NQMom=    0.0000000   0.0000000   0.0000000   0.0000000   0.0000000   0.0000000   0.0000000   0.0000000
 NMagM=    2.7928460   2.7928460   2.7928460   2.7928460   2.7928460   2.7928460   2.7928460   2.7928460
 AtZNuc=   1.0000000   1.0000000   1.0000000   1.0000000   1.0000000   1.0000000   1.0000000   1.0000000
 Leave Link  101 at Sat Sep 11 21:01:16 2021, MaxMem= 23488102400 cpu:               4.0 elap:               0.2
 (Enter /sw/apps/gaussian-16.0/g16/l202.exe)
 Stoichiometry    C68H72Mg2N8O8
 Framework group  C1[X(C68H72Mg2N8O8)]
 Deg. of freedom   468
 Full point group                 C1      NOp   1
 Largest Abelian subgroup         C1      NOp   1
 Largest concise Abelian subgroup C1      NOp   1
                         Standard orientation:                         
 ---------------------------------------------------------------------
 Center     Atomic      Atomic             Coordinates (Angstroms)
 Number     Number       Type             X           Y           Z
 ---------------------------------------------------------------------
      1         12           0        7.972236   -0.997490    0.121093
      2          6           0        8.445664    2.123425   -1.566499
      3          6           0        9.124276    0.526598    2.948287
      4          6           0        7.993816   -3.845037    1.516668
      5          6           0        7.952231   -2.520742   -3.013387
      6          7           0        8.664510    1.067963    0.515185
      7          6           0        8.740164    2.184307   -0.202605
      8          6           0        9.089219    3.442696    0.647096
      9          6           0        9.817005    2.725903    1.871242
     10          6           0        9.137157    1.370046    1.797870
     11          6           0       11.315900    2.535749    1.662294
     12          6           0        7.811428    4.217679    1.114411
     13          6           0        8.065115    5.623933    1.665269
     14          1           0        7.084098    6.666186    1.403234
     15          7           0        8.013061   -1.486059    2.034854
     16          6           0        8.503804   -0.737214    3.051559
     17          6           0        8.304522   -1.536551    4.279576
     18          6           0        7.831737   -2.888400    3.870831
     19          6           0        7.953931   -2.801217    2.438056
     20          6           0        8.510773   -0.990700    5.659162
     21          6           0        7.356706   -4.074725    4.648720
     22          8           0        7.213501   -5.226580    4.112720
     23          6           0        7.145281   -3.871241    6.093342
     24          7           0        8.192415   -2.938262   -0.615493
     25          6           0        8.104501   -3.998247    0.195486
     26          6           0        8.009903   -5.276052   -0.584389
     27          6           0        7.806046   -4.849087   -2.109478
     28          6           0        7.906547   -3.313042   -1.939962
     29          6           0        9.217066   -6.217761   -0.475063
     30          6           0        6.572022   -5.430942   -2.843678
     31          6           0        5.304320   -4.861617   -2.247104
     32          7           0        7.984630   -0.331102   -1.944535
     33          6           0        7.995879   -1.138732   -3.090956
     34          6           0        8.112508   -0.238210   -4.252648
     35          6           0        8.178119    1.037968   -3.696851
     36          6           0        8.133414    0.938994   -2.276817
     37          6           0        8.203794   -0.641703   -5.614005
     38          6           0        8.300400    2.460481   -3.971371
     39          8           0        8.285685    3.151226   -4.991247
     40          6           0        8.601186    3.211449   -2.599729
     41          6           0        7.677348    4.395997   -2.518009
     42          8           0        6.444717    4.239168   -2.402287
     43          8           0        8.401033    5.513418   -2.350102
     44          6           0        7.543272    6.722731   -2.231948
     45          1           0        9.688550    0.830691    3.832065
     46          1           0        7.891653   -4.841241    1.952074
     47          1           0        7.867191   -2.918429   -4.026336
     48          1           0        9.773051    4.141391    0.164786
     49          1           0        9.591328    3.212111    2.820133
     50          1           0       11.614826    2.808410    0.650256
     51          1           0       11.502836    1.476895    1.842226
     52          1           0       11.884158    3.073605    2.421616
     53          1           0        7.407002    3.739201    2.006352
     54          1           0        7.077681    4.272730    0.309481
     55          1           0        9.068387    5.973230    1.419612
     56          1           0        8.055679    5.571109    2.753993
     57          1           0        9.016557   -0.026218    5.636780
     58          1           0        9.213625   -1.654381    6.162388
     59          1           0        7.580290   -0.943325    6.225104
     60          1           0        8.079636   -3.546313    6.551548
     61          1           0        6.721005   -4.801625    6.469141
     62          1           0        6.434781   -3.056311    6.234868
     63          1           0        7.154692   -5.868572   -0.261960
     64          1           0        8.650150   -5.144283   -2.733193
     65          1           0        8.962392   -7.216726   -0.120216
     66          1           0        9.953502   -5.747459    0.175913
     67          1           0        9.787379   -6.338587   -1.395694
     68          1           0        6.529461   -6.512010   -2.715519
     69          1           0        6.570587   -5.223521   -3.913830
     70          1           0        5.130695   -5.504816   -1.385141
     71          1           0        4.482430   -4.934081   -2.960166
     72          1           0        5.460133   -3.849750   -1.872493
     73          1           0        7.550985    0.027110   -6.174809
     74          1           0        7.906380   -1.682593   -5.739289
     75          1           0        9.266300   -0.485726   -5.800034
     76          1           0        9.648518    3.510367   -2.629132
     77          1           0        7.871144    7.424955   -2.998508
     78          1           0        7.602930    7.044560   -1.192105
     79          1           0        6.494173    6.597884   -2.502399
     80         12           0       -7.797425    0.681402    0.724771
     81          6           0       -9.003351   -0.827232   -2.299924
     82          6           0       -9.507057   -1.726976    2.431071
     83          6           0       -7.126426    2.243315    3.403885
     84          6           0       -7.158189    3.561378   -1.130714
     85          7           0       -9.055426   -1.004874    0.042039
     86          6           0       -9.391951   -1.516607   -1.132364
     87          6           0      -10.121066   -2.884678   -1.052723
     88          6           0      -10.709582   -2.757190    0.435997
     89          6           0       -9.677761   -1.797685    1.025390
     90          6           0      -12.071651   -2.085435    0.489213
     91          6           0       -9.132715   -4.096912   -1.177818
     92          6           0       -9.803328   -5.451248   -1.418279
     93          1           0       -9.126232   -6.420879   -2.274909
     94          7           0       -7.828301    0.067081    2.611630
     95          6           0       -8.563478   -0.940227    3.127503
     96          6           0       -8.243588   -0.977578    4.562930
     97          6           0       -7.384918    0.195058    4.882822
     98          6           0       -7.431386    0.907628    3.621804
     99          6           0       -8.675789   -2.097685    5.464032
    100          6           0       -6.654578    0.613266    6.122942
    101          8           0       -6.163910    1.790434    6.250751
    102          6           0       -6.611885   -0.364676    7.219894
    103          7           0       -7.423384    2.685427    1.132608
    104          6           0       -7.106008    3.090593    2.374800
    105          6           0       -6.612383    4.517734    2.373635
    106          6           0       -6.434649    4.909602    0.833370
    107          6           0       -6.964453    3.614329    0.179944
    108          6           0       -7.523899    5.537473    3.056034
    109          6           0       -5.041146    5.440351    0.398477
    110          6           0       -4.013962    4.335686    0.498314
    111          7           0       -7.852407    1.229841   -1.364303
    112          6           0       -7.571712    2.496763   -1.921261
    113          6           0       -7.856120    2.408918   -3.368269
    114          6           0       -8.308081    1.093204   -3.550318
    115          6           0       -8.324704    0.415423   -2.301390
    116          6           0       -7.734209    3.472732   -4.306110
    117          6           0       -8.784975    0.126824   -4.513316
    118          8           0       -8.900076    0.104956   -5.738071
    119          6           0       -9.376512   -1.121109   -3.726465
    120          6           0       -8.821132   -2.370854   -4.352736
    121          8           0       -7.604498   -2.621311   -4.292059
    122          8           0       -9.839740   -3.166200   -4.727214
    123          6           0       -9.339188   -4.423555   -5.343917
    124          1           0      -10.187400   -2.295665    3.065589
    125          1           0       -6.781812    2.797310    4.280135
    126          1           0       -6.891268    4.386825   -1.794090
    127          1           0      -10.929701   -3.010470   -1.762697
    128          1           0      -10.682320   -3.712000    0.954615
    129          1           0      -12.367230   -1.697041   -0.474076
    130          1           0      -11.975548   -1.282035    1.207789
    131          1           0      -12.815014   -2.772724    0.903193
    132          1           0       -8.672572   -4.286172   -0.199461
    133          1           0       -8.401517   -3.915123   -1.941313
    134          1           0      -10.853858   -5.344181   -1.714715
    135          1           0       -9.846365   -5.990589   -0.468916
    136          1           0       -9.432761   -2.730476    4.984494
    137          1           0       -9.199634   -1.642345    6.311451
    138          1           0       -7.834632   -2.682940    5.841662
    139          1           0       -7.626632   -0.618696    7.516935
    140          1           0       -5.971393    0.080652    7.983651
    141          1           0       -6.152429   -1.287403    6.848285
    142          1           0       -5.652333    4.595269    2.869016
    143          1           0       -7.121786    5.715368    0.536018
    144          1           0       -7.022572    6.095735    3.869099
    145          1           0       -8.395329    5.018322    3.432367
    146          1           0       -7.965428    6.279064    2.392488
    147          1           0       -4.710473    6.233574    1.073470
    148          1           0       -5.028493    5.847177   -0.607170
    149          1           0       -3.732330    4.355385    1.555377
    150          1           0       -3.159894    4.547764   -0.141715
    151          1           0       -4.466512    3.357987    0.295917
    152          1           0       -7.259754    3.059169   -5.186091
    153          1           0       -7.159798    4.300640   -3.895765
    154          1           0       -8.787158    3.732409   -4.444450
    155          1           0      -10.463304   -1.072323   -3.804347
    156          1           0       -9.800451   -4.499749   -6.333418
    157          1           0       -9.570140   -5.225183   -4.617427
    158          1           0       -8.286572   -4.473268   -5.596864
 ---------------------------------------------------------------------
 Rotational constants (GHZ):           0.0209577           0.0055260           0.0055090
 Leave Link  202 at Sat Sep 11 21:01:16 2021, MaxMem= 23488102400 cpu:               0.2 elap:               0.0
 (Enter /sw/apps/gaussian-16.0/g16/l301.exe)
 Standard basis: def2SVP (5D, 7F)
 Ernie: Thresh=  0.10000D-02 Tol=  0.10000D-05 Strict=F.
 There are  1658 symmetry adapted cartesian basis functions of A   symmetry.
 There are  1572 symmetry adapted basis functions of A   symmetry.
  1572 basis functions,  2678 primitive gaussians,  1658 cartesian basis functions
   312 alpha electrons      312 beta electrons
       nuclear repulsion energy     13687.7212176819 Hartrees.
 IExCor=20419 DFT=T Ex+Corr=CAM-B3LYP ExCW=0 ScaHFX=  1.000000
 ScaDFX=  1.000000  1.000000  1.000000  0.810000 ScalE2=  1.000000  1.000000
 IRadAn=      5 IRanWt=     -1 IRanGd=            0 ICorTp=0 IEmpDi=  4
 HFx  wShort=  0.000000 wLong=  0.330000 cFull=  0.190000 cShort=  0.000000 cLong=  0.460000
 DFx  wShort=  0.000000 wLong=  0.330000 cFull=  0.190000 cShort=  0.000000 cLong=  0.460000
 NAtoms=  158 NActive=  158 NUniq=  158 SFac= 1.00D+00 NAtFMM=   60 NAOKFM=T Big=T
 Integral buffers will be    131072 words long.
 Raffenetti 1 integral format.
 Two-electron integral symmetry is turned on.
 Leave Link  301 at Sat Sep 11 21:01:16 2021, MaxMem= 23488102400 cpu:               1.3 elap:               0.1
 (Enter /sw/apps/gaussian-16.0/g16/l302.exe)
 NPDir=0 NMtPBC=     1 NCelOv=     1 NCel=       1 NClECP=     1 NCelD=      1
         NCelK=      1 NCelE2=     1 NClLst=     1 CellRange=     0.0.
 One-electron integrals computed using PRISM.
 One-electron integral symmetry used in STVInt
   1 Symmetry operations used in ECPInt.
 ECPInt:  NShTT=  271216 NPrTT=  987664 LenC2=  107295 LenP2D=  244236.
 LDataN:  DoStor=T MaxTD1= 4 Len=   56
 NBasis=  1572 RedAO= T EigKep=  3.36D-04  NBF=  1572
 NBsUse=  1572 1.00D-06 EigRej= -1.00D+00 NBFU=  1572
 Precomputing XC quadrature grid using
 IXCGrd= 4 IRadAn=           5 IRanWt=          -1 IRanGd=           0 AccXCQ= 0.00D+00.
 Generated NRdTot=       0 NPtTot=           0 NUsed=           0 NTot=          32
 NSgBfM=   900   888   895   896   900 MxSgAt=   158 MxSgA2=   153.
 Leave Link  302 at Sat Sep 11 21:01:20 2021, MaxMem= 23488102400 cpu:             108.3 elap:               4.5
 (Enter /sw/apps/gaussian-16.0/g16/l303.exe)
 DipDrv:  MaxL=1.
 Leave Link  303 at Sat Sep 11 21:01:21 2021, MaxMem= 23488102400 cpu:               9.6 elap:               0.4
 (Enter /sw/apps/gaussian-16.0/g16/l308.exe)
 Leave Link  308 at Sat Sep 11 21:01:22 2021, MaxMem= 23488102400 cpu:              15.0 elap:               0.7
 (Enter /sw/apps/gaussian-16.0/g16/l401.exe)
 ExpMin= 3.36D-02 ExpMax= 4.95D+03 ExpMxC= 7.45D+02 IAcc=3 IRadAn=         5 AccDes= 0.00D+00
 Harris functional with IExCor=20419 and IRadAn=       5 diagonalized for initial guess.
 HarFok:  IExCor=20419 AccDes= 0.00D+00 IRadAn=         5 IDoV= 1 UseB2=F ITyADJ=14
 ICtDFT=  3500011 ScaDFX=  1.000000  1.000000  1.000000  1.000000
 FoFCou: FMM=F IPFlag=           0 FMFlag=      100000 FMFlg1=        2001
         NFxFlg=           0 DoJE=T BraDBF=F KetDBF=T FulRan=T
         wScrn=  0.000000 ICntrl=       500 IOpCl=  0 I1Cent=   200000004 NGrid=           0
         NMat0=    1 NMatS0=      1 NMatT0=    0 NMatD0=    1 NMtDS0=    0 NMtDT0=    0
 Petite list used in FoFCou.
 Harris En= -3918.65801221081    
 JPrj=0 DoOrth=F DoCkMO=F.
 Leave Link  401 at Sat Sep 11 21:01:28 2021, MaxMem= 23488102400 cpu:             162.9 elap:               6.8
 (Enter /sw/apps/gaussian-16.0/g16/l502.exe)
 Integral symmetry usage will be decided dynamically.
 Closed shell SCF:
 Using DIIS extrapolation, IDIIS=  1040.
 NGot= 23488102400 LenX= 23482547354 LenY= 23479796732
 Requested convergence on RMS density matrix=1.00D-08 within 128 cycles.
 Requested convergence on MAX density matrix=1.00D-06.
 Requested convergence on             energy=1.00D-06.
 No special actions if energy rises.
 Fock matrices will be formed incrementally for  20 cycles.

 Cycle   1  Pass 1  IDiag  1:
 FoFJK:  IHMeth= 1 ICntrl=       0 DoSepK=T KAlg= 0 I1Cent=           0 FoldK=F
 IRaf=         1 NMat=       1 IRICut=       1 DoRegI=T DoRafI=F ISym2E= 0 IDoP0=0 IntGTp=1.
 FoFCou: FMM=T IPFlag=           0 FMFlag=      100000 FMFlg1=        2001
         NFxFlg=           0 DoJE=T BraDBF=F KetDBF=F FulRan=T
         wScrn=  0.000000 ICntrl=       500 IOpCl=  0 I1Cent=           0 NGrid=           0
         NMat0=    1 NMatS0=      1 NMatT0=    0 NMatD0=    1 NMtDS0=    0 NMtDT0=    0
 Symmetry not used in FoFCou.
 FMM levels:  10  Number of levels for PrismC:   9
 E= -4068.94906351571    
 DIIS: error= 2.04D-02 at cycle   1 NSaved=   1.
 NSaved= 1 IEnMin= 1 EnMin= -4068.94906351571     IErMin= 1 ErrMin= 2.04D-02
 ErrMax= 2.04D-02  0.00D+00 EMaxC= 1.00D-01 BMatC= 1.69D+00 BMatP= 1.69D+00
 IDIUse=3 WtCom= 7.96D-01 WtEn= 2.04D-01
 Coeff-Com:  0.100D+01
 Coeff-En:   0.100D+01
 Coeff:      0.100D+01
 Gap=     0.120 Goal=   None    Shift=    0.000
 GapD=    0.120 DampG=1.000 DampE=0.500 DampFc=0.5000 IDamp=-1.
 Damping current iteration by 5.00D-01
 RMSDP=1.57D-03 MaxDP=1.35D-01              OVMax= 2.04D-01

 Cycle   2  Pass 1  IDiag  1:
 RMSU=  7.70D-04    CP:  9.82D-01
 E= -4069.33790012324     Delta-E=       -0.388836607533 Rises=F Damp=T
 DIIS: error= 1.27D-02 at cycle   2 NSaved=   2.
 NSaved= 2 IEnMin= 2 EnMin= -4069.33790012324     IErMin= 2 ErrMin= 1.27D-02
 ErrMax= 1.27D-02  0.00D+00 EMaxC= 1.00D-01 BMatC= 3.07D-01 BMatP= 1.69D+00
 IDIUse=3 WtCom= 8.73D-01 WtEn= 1.27D-01
 Coeff-Com: -0.213D+00 0.121D+01
 Coeff-En:   0.000D+00 0.100D+01
 Coeff:     -0.186D+00 0.119D+01
 Gap=     0.138 Goal=   None    Shift=    0.000
 RMSDP=7.65D-04 MaxDP=9.45D-02 DE=-3.89D-01 OVMax= 1.88D-01

 Cycle   3  Pass 1  IDiag  1:
 RMSU=  7.33D-04    CP:  9.68D-01  1.24D+00
 E= -4069.62709004735     Delta-E=       -0.289189924104 Rises=F Damp=F
 DIIS: error= 1.58D-02 at cycle   3 NSaved=   3.
 NSaved= 3 IEnMin= 3 EnMin= -4069.62709004735     IErMin= 2 ErrMin= 1.27D-02
 ErrMax= 1.58D-02  0.00D+00 EMaxC= 1.00D-01 BMatC= 2.02D-01 BMatP= 3.07D-01
 IDIUse=3 WtCom= 8.42D-01 WtEn= 1.58D-01
 Coeff-Com: -0.267D+00 0.652D+00 0.615D+00
 Coeff-En:   0.000D+00 0.000D+00 0.100D+01
 Coeff:     -0.225D+00 0.549D+00 0.676D+00
 Gap=     0.125 Goal=   None    Shift=    0.000
 RMSDP=5.10D-04 MaxDP=4.77D-02 DE=-2.89D-01 OVMax= 1.45D-01

 Cycle   4  Pass 1  IDiag  1:
 RMSU=  2.66D-04    CP:  9.65D-01  1.55D+00  5.04D-01
 E= -4069.76441654174     Delta-E=       -0.137326494394 Rises=F Damp=F
 DIIS: error= 7.36D-03 at cycle   4 NSaved=   4.
 NSaved= 4 IEnMin= 4 EnMin= -4069.76441654174     IErMin= 4 ErrMin= 7.36D-03
 ErrMax= 7.36D-03  0.00D+00 EMaxC= 1.00D-01 BMatC= 5.09D-02 BMatP= 2.02D-01
 IDIUse=3 WtCom= 9.26D-01 WtEn= 7.36D-02
 Coeff-Com: -0.109D+00 0.226D+00 0.409D+00 0.474D+00
 Coeff-En:   0.000D+00 0.000D+00 0.223D+00 0.777D+00
 Coeff:     -0.101D+00 0.210D+00 0.395D+00 0.496D+00
 Gap=     0.123 Goal=   None    Shift=    0.000
 RMSDP=2.02D-04 MaxDP=2.09D-02 DE=-1.37D-01 OVMax= 6.38D-02

 Cycle   5  Pass 1  IDiag  1:
 RMSU=  7.67D-05    CP:  9.64D-01  1.49D+00  6.89D-01  5.47D-01
 E= -4069.81044041201     Delta-E=       -0.046023870273 Rises=F Damp=F
 DIIS: error= 7.83D-04 at cycle   5 NSaved=   5.
 NSaved= 5 IEnMin= 5 EnMin= -4069.81044041201     IErMin= 5 ErrMin= 7.83D-04
 ErrMax= 7.83D-04  0.00D+00 EMaxC= 1.00D-01 BMatC= 1.21D-03 BMatP= 5.09D-02
 IDIUse=3 WtCom= 9.92D-01 WtEn= 7.83D-03
 Coeff-Com: -0.363D-01 0.712D-01 0.167D+00 0.251D+00 0.547D+00
 Coeff-En:   0.000D+00 0.000D+00 0.000D+00 0.000D+00 0.100D+01
 Coeff:     -0.360D-01 0.707D-01 0.166D+00 0.249D+00 0.550D+00
 Gap=     0.122 Goal=   None    Shift=    0.000
 RMSDP=4.18D-05 MaxDP=4.18D-03 DE=-4.60D-02 OVMax= 1.73D-02

 Cycle   6  Pass 1  IDiag  1:
 RMSU=  3.07D-05    CP:  9.64D-01  1.49D+00  6.81D-01  6.20D-01  7.50D-01
 E= -4069.81149449183     Delta-E=       -0.001054079818 Rises=F Damp=F
 DIIS: error= 2.11D-04 at cycle   6 NSaved=   6.
 NSaved= 6 IEnMin= 6 EnMin= -4069.81149449183     IErMin= 6 ErrMin= 2.11D-04
 ErrMax= 2.11D-04  0.00D+00 EMaxC= 1.00D-01 BMatC= 1.81D-04 BMatP= 1.21D-03
 IDIUse=3 WtCom= 9.98D-01 WtEn= 2.11D-03
 Coeff-Com:  0.220D-02-0.658D-02 0.115D-01 0.407D-01 0.305D+00 0.647D+00
 Coeff-En:   0.000D+00 0.000D+00 0.000D+00 0.000D+00 0.105D+00 0.895D+00
 Coeff:      0.220D-02-0.657D-02 0.115D-01 0.406D-01 0.305D+00 0.647D+00
 Gap=     0.123 Goal=   None    Shift=    0.000
 RMSDP=1.62D-05 MaxDP=1.21D-03 DE=-1.05D-03 OVMax= 7.49D-03

 Cycle   7  Pass 1  IDiag  1:
 RMSU=  1.09D-05    CP:  9.64D-01  1.50D+00  6.86D-01  6.20D-01  8.53D-01
                    CP:  7.46D-01
 E= -4069.81169030920     Delta-E=       -0.000195817367 Rises=F Damp=F
 DIIS: error= 8.74D-05 at cycle   7 NSaved=   7.
 NSaved= 7 IEnMin= 7 EnMin= -4069.81169030920     IErMin= 7 ErrMin= 8.74D-05
 ErrMax= 8.74D-05  0.00D+00 EMaxC= 1.00D-01 BMatC= 2.21D-05 BMatP= 1.81D-04
 IDIUse=1 WtCom= 1.00D+00 WtEn= 0.00D+00
 Coeff-Com:  0.449D-02-0.983D-02-0.891D-02-0.349D-02 0.104D+00 0.333D+00
 Coeff-Com:  0.581D+00
 Coeff:      0.449D-02-0.983D-02-0.891D-02-0.349D-02 0.104D+00 0.333D+00
 Coeff:      0.581D+00
 Gap=     0.123 Goal=   None    Shift=    0.000
 RMSDP=6.63D-06 MaxDP=1.11D-03 DE=-1.96D-04 OVMax= 3.46D-03

 Cycle   8  Pass 1  IDiag  1:
 RMSU=  4.74D-06    CP:  9.64D-01  1.50D+00  6.87D-01  6.25D-01  8.57D-01
                    CP:  8.73D-01  8.16D-01
 E= -4069.81171769284     Delta-E=       -0.000027383641 Rises=F Damp=F
 DIIS: error= 5.04D-05 at cycle   8 NSaved=   8.
 NSaved= 8 IEnMin= 8 EnMin= -4069.81171769284     IErMin= 8 ErrMin= 5.04D-05
 ErrMax= 5.04D-05  0.00D+00 EMaxC= 1.00D-01 BMatC= 4.90D-06 BMatP= 2.21D-05
 IDIUse=1 WtCom= 1.00D+00 WtEn= 0.00D+00
 Coeff-Com:  0.218D-02-0.431D-02-0.780D-02-0.121D-01-0.108D-01 0.341D-01
 Coeff-Com:  0.338D+00 0.661D+00
 Coeff:      0.218D-02-0.431D-02-0.780D-02-0.121D-01-0.108D-01 0.341D-01
 Coeff:      0.338D+00 0.661D+00
 Gap=     0.123 Goal=   None    Shift=    0.000
 RMSDP=3.31D-06 MaxDP=3.55D-04 DE=-2.74D-05 OVMax= 1.07D-03

 Cycle   9  Pass 1  IDiag  1:
 RMSU=  1.93D-06    CP:  9.64D-01  1.50D+00  6.87D-01  6.26D-01  8.73D-01
                    CP:  8.99D-01  1.01D+00  9.47D-01
 E= -4069.81172556521     Delta-E=       -0.000007872375 Rises=F Damp=F
 DIIS: error= 1.97D-05 at cycle   9 NSaved=   9.
 NSaved= 9 IEnMin= 9 EnMin= -4069.81172556521     IErMin= 9 ErrMin= 1.97D-05
 ErrMax= 1.97D-05  0.00D+00 EMaxC= 1.00D-01 BMatC= 7.14D-07 BMatP= 4.90D-06
 IDIUse=1 WtCom= 1.00D+00 WtEn= 0.00D+00
 Coeff-Com:  0.468D-03-0.777D-03-0.269D-02-0.604D-02-0.210D-01-0.393D-01
 Coeff-Com:  0.101D+00 0.329D+00 0.639D+00
 Coeff:      0.468D-03-0.777D-03-0.269D-02-0.604D-02-0.210D-01-0.393D-01
 Coeff:      0.101D+00 0.329D+00 0.639D+00
 Gap=     0.123 Goal=   None    Shift=    0.000
 RMSDP=1.44D-06 MaxDP=1.51D-04 DE=-7.87D-06 OVMax= 7.53D-04

 Cycle  10  Pass 1  IDiag  1:
 RMSU=  9.49D-07    CP:  9.64D-01  1.50D+00  6.87D-01  6.26D-01  8.77D-01
                    CP:  9.12D-01  1.06D+00  1.11D+00  1.06D+00
 E= -4069.81172720799     Delta-E=       -0.000001642780 Rises=F Damp=F
 DIIS: error= 9.95D-06 at cycle  10 NSaved=  10.
 NSaved=10 IEnMin=10 EnMin= -4069.81172720799     IErMin=10 ErrMin= 9.95D-06
 ErrMax= 9.95D-06  0.00D+00 EMaxC= 1.00D-01 BMatC= 1.73D-07 BMatP= 7.14D-07
 IDIUse=1 WtCom= 1.00D+00 WtEn= 0.00D+00
 Coeff-Com: -0.428D-03 0.898D-03 0.123D-02 0.111D-02-0.371D-02-0.311D-01
 Coeff-Com: -0.458D-01-0.753D-01 0.248D+00 0.905D+00
 Coeff:     -0.428D-03 0.898D-03 0.123D-02 0.111D-02-0.371D-02-0.311D-01
 Coeff:     -0.458D-01-0.753D-01 0.248D+00 0.905D+00
 Gap=     0.123 Goal=   None    Shift=    0.000
 RMSDP=1.24D-06 MaxDP=1.23D-04 DE=-1.64D-06 OVMax= 6.25D-04

 Cycle  11  Pass 1  IDiag  1:
 RMSU=  5.25D-07    CP:  9.64D-01  1.50D+00  6.88D-01  6.27D-01  8.79D-01
                    CP:  9.23D-01  1.11D+00  1.23D+00  1.39D+00  1.38D+00
 E= -4069.81172801795     Delta-E=       -0.000000809952 Rises=F Damp=F
 DIIS: error= 4.19D-06 at cycle  11 NSaved=  11.
 NSaved=11 IEnMin=11 EnMin= -4069.81172801795     IErMin=11 ErrMin= 4.19D-06
 ErrMax= 4.19D-06  0.00D+00 EMaxC= 1.00D-01 BMatC= 6.38D-08 BMatP= 1.73D-07
 IDIUse=1 WtCom= 1.00D+00 WtEn= 0.00D+00
 Coeff-Com: -0.331D-03 0.645D-03 0.134D-02 0.214D-02 0.445D-02-0.839D-02
 Coeff-Com: -0.429D-01-0.133D+00-0.294D-01 0.471D+00 0.734D+00
 Coeff:     -0.331D-03 0.645D-03 0.134D-02 0.214D-02 0.445D-02-0.839D-02
 Coeff:     -0.429D-01-0.133D+00-0.294D-01 0.471D+00 0.734D+00
 Gap=     0.123 Goal=   None    Shift=    0.000
 RMSDP=7.01D-07 MaxDP=6.21D-05 DE=-8.10D-07 OVMax= 3.86D-04

 Cycle  12  Pass 1  IDiag  1:
 RMSU=  2.67D-07    CP:  9.64D-01  1.50D+00  6.87D-01  6.27D-01  8.80D-01
                    CP:  9.25D-01  1.13D+00  1.29D+00  1.56D+00  1.77D+00
                    CP:  1.20D+00
 E= -4069.81172829061     Delta-E=       -0.000000272667 Rises=F Damp=F
 DIIS: error= 2.44D-06 at cycle  12 NSaved=  12.
 NSaved=12 IEnMin=12 EnMin= -4069.81172829061     IErMin=12 ErrMin= 2.44D-06
 ErrMax= 2.44D-06  0.00D+00 EMaxC= 1.00D-01 BMatC= 1.53D-08 BMatP= 6.38D-08
 IDIUse=1 WtCom= 1.00D+00 WtEn= 0.00D+00
 Coeff-Com: -0.126D-05-0.143D-04 0.187D-03 0.522D-03 0.335D-02 0.406D-02
 Coeff-Com:  0.275D-02-0.349D-01-0.694D-01-0.720D-01 0.249D+00 0.916D+00
 Coeff:     -0.126D-05-0.143D-04 0.187D-03 0.522D-03 0.335D-02 0.406D-02
 Coeff:      0.275D-02-0.349D-01-0.694D-01-0.720D-01 0.249D+00 0.916D+00
 Gap=     0.123 Goal=   None    Shift=    0.000
 RMSDP=4.44D-07 MaxDP=2.79D-05 DE=-2.73D-07 OVMax= 2.55D-04

 Cycle  13  Pass 1  IDiag  1:
 RMSU=  1.67D-07    CP:  9.64D-01  1.50D+00  6.87D-01  6.27D-01  8.80D-01
                    CP:  9.25D-01  1.13D+00  1.32D+00  1.67D+00  2.00D+00
                    CP:  1.61D+00  1.27D+00
 E= -4069.81172838519     Delta-E=       -0.000000094580 Rises=F Damp=F
 DIIS: error= 1.36D-06 at cycle  13 NSaved=  13.
 NSaved=13 IEnMin=13 EnMin= -4069.81172838519     IErMin=13 ErrMin= 1.36D-06
 ErrMax= 1.36D-06  0.00D+00 EMaxC= 1.00D-01 BMatC= 8.43D-09 BMatP= 1.53D-08
 IDIUse=1 WtCom= 1.00D+00 WtEn= 0.00D+00
 Coeff-Com:  0.121D-03-0.247D-03-0.372D-03-0.459D-03 0.595D-03 0.506D-02
 Coeff-Com:  0.195D-01 0.231D-01-0.327D-01-0.242D+00-0.159D+00 0.598D+00
 Coeff-Com:  0.789D+00
 Coeff:      0.121D-03-0.247D-03-0.372D-03-0.459D-03 0.595D-03 0.506D-02
 Coeff:      0.195D-01 0.231D-01-0.327D-01-0.242D+00-0.159D+00 0.598D+00
 Coeff:      0.789D+00
 Gap=     0.123 Goal=   None    Shift=    0.000
 RMSDP=3.47D-07 MaxDP=2.21D-05 DE=-9.46D-08 OVMax= 2.05D-04

 Cycle  14  Pass 1  IDiag  1:
 RMSU=  7.71D-08    CP:  9.64D-01  1.50D+00  6.87D-01  6.27D-01  8.80D-01
                    CP:  9.26D-01  1.14D+00  1.34D+00  1.75D+00  2.19D+00
                    CP:  1.87D+00  1.79D+00  1.09D+00
 E= -4069.81172842243     Delta-E=       -0.000000037235 Rises=F Damp=F
 DIIS: error= 6.78D-07 at cycle  14 NSaved=  14.
 NSaved=14 IEnMin=14 EnMin= -4069.81172842243     IErMin=14 ErrMin= 6.78D-07
 ErrMax= 6.78D-07  0.00D+00 EMaxC= 1.00D-01 BMatC= 1.29D-09 BMatP= 8.43D-09
 IDIUse=1 WtCom= 1.00D+00 WtEn= 0.00D+00
 Coeff-Com:  0.668D-04-0.132D-03-0.248D-03-0.389D-03-0.472D-03 0.126D-02
 Coeff-Com:  0.106D-01 0.193D-01 0.446D-02-0.100D+00-0.143D+00 0.929D-01
 Coeff-Com:  0.404D+00 0.712D+00
 Coeff:      0.668D-04-0.132D-03-0.248D-03-0.389D-03-0.472D-03 0.126D-02
 Coeff:      0.106D-01 0.193D-01 0.446D-02-0.100D+00-0.143D+00 0.929D-01
 Coeff:      0.404D+00 0.712D+00
 Gap=     0.123 Goal=   None    Shift=    0.000
 RMSDP=1.03D-07 MaxDP=6.95D-06 DE=-3.72D-08 OVMax= 5.59D-05

 Cycle  15  Pass 1  IDiag  1:
 RMSU=  3.85D-08    CP:  9.64D-01  1.50D+00  6.87D-01  6.27D-01  8.80D-01
                    CP:  9.26D-01  1.14D+00  1.35D+00  1.76D+00  2.23D+00
                    CP:  1.98D+00  1.92D+00  1.33D+00  1.03D+00
 E= -4069.81172842644     Delta-E=       -0.000000004013 Rises=F Damp=F
 DIIS: error= 3.14D-07 at cycle  15 NSaved=  15.
 NSaved=15 IEnMin=15 EnMin= -4069.81172842644     IErMin=15 ErrMin= 3.14D-07
 ErrMax= 3.14D-07  0.00D+00 EMaxC= 1.00D-01 BMatC= 2.30D-10 BMatP= 1.29D-09
 IDIUse=1 WtCom= 1.00D+00 WtEn= 0.00D+00
 Coeff-Com:  0.529D-05-0.878D-05-0.326D-04-0.819D-04-0.295D-03-0.529D-03
 Coeff-Com:  0.111D-02 0.250D-02 0.879D-02 0.184D-02-0.303D-01-0.725D-01
 Coeff-Com:  0.290D-01 0.297D+00 0.763D+00
 Coeff:      0.529D-05-0.878D-05-0.326D-04-0.819D-04-0.295D-03-0.529D-03
 Coeff:      0.111D-02 0.250D-02 0.879D-02 0.184D-02-0.303D-01-0.725D-01
 Coeff:      0.290D-01 0.297D+00 0.763D+00
 Gap=     0.123 Goal=   None    Shift=    0.000
 RMSDP=4.04D-08 MaxDP=2.31D-06 DE=-4.01D-09 OVMax= 2.82D-05

 Cycle  16  Pass 1  IDiag  1:
 RMSU=  1.89D-08    CP:  9.64D-01  1.50D+00  6.87D-01  6.27D-01  8.80D-01
                    CP:  9.26D-01  1.14D+00  1.35D+00  1.77D+00  2.25D+00
                    CP:  2.00D+00  1.98D+00  1.40D+00  1.24D+00  1.14D+00
 E= -4069.81172842734     Delta-E=       -0.000000000902 Rises=F Damp=F
 DIIS: error= 1.83D-07 at cycle  16 NSaved=  16.
 NSaved=16 IEnMin=16 EnMin= -4069.81172842734     IErMin=16 ErrMin= 1.83D-07
 ErrMax= 1.83D-07  0.00D+00 EMaxC= 1.00D-01 BMatC= 8.42D-11 BMatP= 2.30D-10
 IDIUse=1 WtCom= 1.00D+00 WtEn= 0.00D+00
 Coeff-Com: -0.141D-04 0.285D-04 0.464D-04 0.525D-04-0.287D-04-0.632D-03
 Coeff-Com: -0.191D-02-0.422D-02 0.432D-02 0.253D-01 0.204D-01-0.641D-01
 Coeff-Com: -0.817D-01-0.356D-01 0.400D+00 0.738D+00
 Coeff:     -0.141D-04 0.285D-04 0.464D-04 0.525D-04-0.287D-04-0.632D-03
 Coeff:     -0.191D-02-0.422D-02 0.432D-02 0.253D-01 0.204D-01-0.641D-01
 Coeff:     -0.817D-01-0.356D-01 0.400D+00 0.738D+00
 Gap=     0.123 Goal=   None    Shift=    0.000
 RMSDP=2.30D-08 MaxDP=1.53D-06 DE=-9.02D-10 OVMax= 1.21D-05

 Cycle  17  Pass 1  IDiag  1:
 RMSU=  1.05D-08    CP:  9.64D-01  1.50D+00  6.87D-01  6.27D-01  8.80D-01
                    CP:  9.26D-01  1.14D+00  1.35D+00  1.77D+00  2.25D+00
                    CP:  2.02D+00  2.01D+00  1.45D+00  1.34D+00  1.44D+00
                    CP:  1.24D+00
 E= -4069.81172842759     Delta-E=       -0.000000000247 Rises=F Damp=F
 DIIS: error= 9.19D-08 at cycle  17 NSaved=  17.
 NSaved=17 IEnMin=17 EnMin= -4069.81172842759     IErMin=17 ErrMin= 9.19D-08
 ErrMax= 9.19D-08  0.00D+00 EMaxC= 1.00D-01 BMatC= 1.81D-11 BMatP= 8.42D-11
 IDIUse=1 WtCom= 1.00D+00 WtEn= 0.00D+00
 Coeff-Com: -0.723D-05 0.141D-04 0.286D-04 0.423D-04 0.823D-04-0.126D-03
 Coeff-Com: -0.932D-03-0.280D-02 0.735D-04 0.940D-02 0.173D-01-0.765D-02
 Coeff-Com: -0.366D-01-0.100D+00-0.259D-01 0.294D+00 0.853D+00
 Coeff:     -0.723D-05 0.141D-04 0.286D-04 0.423D-04 0.823D-04-0.126D-03
 Coeff:     -0.932D-03-0.280D-02 0.735D-04 0.940D-02 0.173D-01-0.765D-02
 Coeff:     -0.366D-01-0.100D+00-0.259D-01 0.294D+00 0.853D+00
 Gap=     0.123 Goal=   None    Shift=    0.000
 RMSDP=1.36D-08 MaxDP=9.06D-07 DE=-2.47D-10 OVMax= 9.47D-06

 Cycle  18  Pass 1  IDiag  1:
 RMSU=  5.08D-09    CP:  9.64D-01  1.50D+00  6.87D-01  6.27D-01  8.80D-01
                    CP:  9.26D-01  1.14D+00  1.35D+00  1.77D+00  2.25D+00
                    CP:  2.02D+00  2.02D+00  1.47D+00  1.41D+00  1.60D+00
                    CP:  1.64D+00  1.37D+00
 E= -4069.81172842774     Delta-E=       -0.000000000153 Rises=F Damp=F
 DIIS: error= 6.26D-08 at cycle  18 NSaved=  18.
 NSaved=18 IEnMin=18 EnMin= -4069.81172842774     IErMin=18 ErrMin= 6.26D-08
 ErrMax= 6.26D-08  0.00D+00 EMaxC= 1.00D-01 BMatC= 7.55D-12 BMatP= 1.81D-11
 IDIUse=1 WtCom= 1.00D+00 WtEn= 0.00D+00
 Coeff-Com:  0.161D-05-0.353D-05-0.292D-05 0.630D-06 0.613D-04 0.171D-03
 Coeff-Com:  0.336D-03 0.821D-04-0.124D-02-0.549D-02 0.659D-03 0.189D-01
 Coeff-Com:  0.158D-01-0.369D-01-0.158D+00-0.173D+00 0.384D+00 0.955D+00
 Coeff:      0.161D-05-0.353D-05-0.292D-05 0.630D-06 0.613D-04 0.171D-03
 Coeff:      0.336D-03 0.821D-04-0.124D-02-0.549D-02 0.659D-03 0.189D-01
 Coeff:      0.158D-01-0.369D-01-0.158D+00-0.173D+00 0.384D+00 0.955D+00
 Gap=     0.123 Goal=   None    Shift=    0.000
 RMSDP=1.15D-08 MaxDP=7.06D-07 DE=-1.53D-10 OVMax= 6.00D-06

 Cycle  19  Pass 1  IDiag  1:
 RMSU=  3.03D-09    CP:  9.64D-01  1.50D+00  6.87D-01  6.27D-01  8.80D-01
                    CP:  9.26D-01  1.14D+00  1.35D+00  1.77D+00  2.25D+00
                    CP:  2.02D+00  2.02D+00  1.48D+00  1.45D+00  1.75D+00
                    CP:  1.95D+00  1.91D+00  1.28D+00
 E= -4069.81172842777     Delta-E=       -0.000000000022 Rises=F Damp=F
 DIIS: error= 3.05D-08 at cycle  19 NSaved=  19.
 NSaved=19 IEnMin=19 EnMin= -4069.81172842777     IErMin=19 ErrMin= 3.05D-08
 ErrMax= 3.05D-08  0.00D+00 EMaxC= 1.00D-01 BMatC= 1.85D-12 BMatP= 7.55D-12
 IDIUse=1 WtCom= 1.00D+00 WtEn= 0.00D+00
 Coeff-Com:  0.300D-05-0.607D-05-0.101D-04-0.123D-04 0.152D-04 0.129D-03
 Coeff-Com:  0.489D-03 0.806D-03-0.632D-03-0.622D-02-0.476D-02 0.131D-01
 Coeff-Com:  0.210D-01 0.907D-02-0.791D-01-0.190D+00-0.914D-02 0.531D+00
 Coeff-Com:  0.715D+00
 Coeff:      0.300D-05-0.607D-05-0.101D-04-0.123D-04 0.152D-04 0.129D-03
 Coeff:      0.489D-03 0.806D-03-0.632D-03-0.622D-02-0.476D-02 0.131D-01
 Coeff:      0.210D-01 0.907D-02-0.791D-01-0.190D+00-0.914D-02 0.531D+00
 Coeff:      0.715D+00
 Gap=     0.123 Goal=   None    Shift=    0.000
 RMSDP=4.85D-09 MaxDP=3.42D-07 DE=-2.18D-11 OVMax= 3.54D-06

 SCF Done:  E(RCAM-B3LYP) =  -4069.81172843     A.U. after   19 cycles
            NFock= 19  Conv=0.49D-08     -V/T= 2.0102
 KE= 4.028802024739D+03 PE=-3.685677177528D+04 EE= 1.507043680443D+04
 Leave Link  502 at Sat Sep 11 21:09:59 2021, MaxMem= 23488102400 cpu:           11696.1 elap:             510.9
 (Enter /sw/apps/gaussian-16.0/g16/l801.exe)
 DoSCS=F DFT=T ScalE2(SS,OS)=  1.000000  1.000000
 ExpMin= 3.36D-02 ExpMax= 4.95D+03 ExpMxC= 7.45D+02 IAcc=3 IRadAn=         5 AccDes= 0.00D+00
 HarFok:  IExCor=  205 AccDes= 0.00D+00 IRadAn=         5 IDoV=-2 UseB2=F ITyADJ=14
 ICtDFT= 12500011 ScaDFX=  1.000000  1.000000  1.000000  1.000000
 GSVD:  LWork=       -9588 too small for GESVD, short by       45590 words or       45590 for optimal perf.
 Largest valence mixing into a core orbital is  2.03D-04
 Largest core mixing into a valence orbital is  5.24D-05
 Range of M.O.s used for correlation:    95  1572
 NBasis=  1572 NAE=   312 NBE=   312 NFC=    94 NFV=     0
 NROrb=   1478 NOA=   218 NOB=   218 NVA=  1260 NVB=  1260
 Leave Link  801 at Sat Sep 11 21:10:00 2021, MaxMem= 23488102400 cpu:               8.5 elap:               0.4
 (Enter /sw/apps/gaussian-16.0/g16/l914.exe)
 RHF ground state
 Two-electron integrals replicated using symmetry.
 MDV= 23488102400 DFT=T DoStab=F Mixed=T DoRPA=T DoScal=F NonHer=T
 Making orbital integer symmetry assigments:
 Orbital symmetries:
       Occupied  (A) (A) (A) (A) (A) (A) (A) (A) (A) (A) (A) (A)
                 (A) (A) (A) (A) (A) (A) (A) (A) (A) (A) (A) (A)
                 (A) (A) (A) (A) (A) (A) (A) (A) (A) (A) (A) (A)
                 (A) (A) (A) (A) (A) (A) (A) (A) (A) (A) (A) (A)
                 (A) (A) (A) (A) (A) (A) (A) (A) (A) (A) (A) (A)
                 (A) (A) (A) (A) (A) (A) (A) (A) (A) (A) (A) (A)
                 (A) (A) (A) (A) (A) (A) (A) (A) (A) (A) (A) (A)
                 (A) (A) (A) (A) (A) (A) (A) (A) (A) (A) (A) (A)
                 (A) (A) (A) (A) (A) (A) (A) (A) (A) (A) (A) (A)
                 (A) (A) (A) (A) (A) (A) (A) (A) (A) (A) (A) (A)
                 (A) (A) (A) (A) (A) (A) (A) (A) (A) (A) (A) (A)
                 (A) (A) (A) (A) (A) (A) (A) (A) (A) (A) (A) (A)
                 (A) (A) (A) (A) (A) (A) (A) (A) (A) (A) (A) (A)
                 (A) (A) (A) (A) (A) (A) (A) (A) (A) (A) (A) (A)
                 (A) (A) (A) (A) (A) (A) (A) (A) (A) (A) (A) (A)
                 (A) (A) (A) (A) (A) (A) (A) (A) (A) (A) (A) (A)
                 (A) (A) (A) (A) (A) (A) (A) (A) (A) (A) (A) (A)
                 (A) (A) (A) (A) (A) (A) (A) (A) (A) (A) (A) (A)
                 (A) (A) (A) (A) (A) (A) (A) (A) (A) (A) (A) (A)
                 (A) (A) (A) (A) (A) (A) (A) (A) (A) (A) (A) (A)
                 (A) (A) (A) (A) (A) (A) (A) (A) (A) (A) (A) (A)
                 (A) (A) (A) (A) (A) (A) (A) (A) (A) (A) (A) (A)
                 (A) (A) (A) (A) (A) (A) (A) (A) (A) (A) (A) (A)
                 (A) (A) (A) (A) (A) (A) (A) (A) (A) (A) (A) (A)
                 (A) (A) (A) (A) (A) (A) (A) (A) (A) (A) (A) (A)
                 (A) (A) (A) (A) (A) (A) (A) (A) (A) (A) (A) (A)
       Virtual   (A) (A) (A) (A) (A) (A) (A) (A) (A) (A) (A) (A)
                 (A) (A) (A) (A) (A) (A) (A) (A) (A) (A) (A) (A)
                 (A) (A) (A) (A) (A) (A) (A) (A) (A) (A) (A) (A)
                 (A) (A) (A) (A) (A) (A) (A) (A) (A) (A) (A) (A)
                 (A) (A) (A) (A) (A) (A) (A) (A) (A) (A) (A) (A)
                 (A) (A) (A) (A) (A) (A) (A) (A) (A) (A) (A) (A)
                 (A) (A) (A) (A) (A) (A) (A) (A) (A) (A) (A) (A)
                 (A) (A) (A) (A) (A) (A) (A) (A) (A) (A) (A) (A)
                 (A) (A) (A) (A) (A) (A) (A) (A) (A) (A) (A) (A)
                 (A) (A) (A) (A) (A) (A) (A) (A) (A) (A) (A) (A)
                 (A) (A) (A) (A) (A) (A) (A) (A) (A) (A) (A) (A)
                 (A) (A) (A) (A) (A) (A) (A) (A) (A) (A) (A) (A)
                 (A) (A) (A) (A) (A) (A) (A) (A) (A) (A) (A) (A)
                 (A) (A) (A) (A) (A) (A) (A) (A) (A) (A) (A) (A)
                 (A) (A) (A) (A) (A) (A) (A) (A) (A) (A) (A) (A)
                 (A) (A) (A) (A) (A) (A) (A) (A) (A) (A) (A) (A)
                 (A) (A) (A) (A) (A) (A) (A) (A) (A) (A) (A) (A)
                 (A) (A) (A) (A) (A) (A) (A) (A) (A) (A) (A) (A)
                 (A) (A) (A) (A) (A) (A) (A) (A) (A) (A) (A) (A)
                 (A) (A) (A) (A) (A) (A) (A) (A) (A) (A) (A) (A)
                 (A) (A) (A) (A) (A) (A) (A) (A) (A) (A) (A) (A)
                 (A) (A) (A) (A) (A) (A) (A) (A) (A) (A) (A) (A)
                 (A) (A) (A) (A) (A) (A) (A) (A) (A) (A) (A) (A)
                 (A) (A) (A) (A) (A) (A) (A) (A) (A) (A) (A) (A)
                 (A) (A) (A) (A) (A) (A) (A) (A) (A) (A) (A) (A)
                 (A) (A) (A) (A) (A) (A) (A) (A) (A) (A) (A) (A)
                 (A) (A) (A) (A) (A) (A) (A) (A) (A) (A) (A) (A)
                 (A) (A) (A) (A) (A) (A) (A) (A) (A) (A) (A) (A)
                 (A) (A) (A) (A) (A) (A) (A) (A) (A) (A) (A) (A)
                 (A) (A) (A) (A) (A) (A) (A) (A) (A) (A) (A) (A)
                 (A) (A) (A) (A) (A) (A) (A) (A) (A) (A) (A) (A)
                 (A) (A) (A) (A) (A) (A) (A) (A) (A) (A) (A) (A)
                 (A) (A) (A) (A) (A) (A) (A) (A) (A) (A) (A) (A)
                 (A) (A) (A) (A) (A) (A) (A) (A) (A) (A) (A) (A)
                 (A) (A) (A) (A) (A) (A) (A) (A) (A) (A) (A) (A)
                 (A) (A) (A) (A) (A) (A) (A) (A) (A) (A) (A) (A)
                 (A) (A) (A) (A) (A) (A) (A) (A) (A) (A) (A) (A)
                 (A) (A) (A) (A) (A) (A) (A) (A) (A) (A) (A) (A)
                 (A) (A) (A) (A) (A) (A) (A) (A) (A) (A) (A) (A)
                 (A) (A) (A) (A) (A) (A) (A) (A) (A) (A) (A) (A)
                 (A) (A) (A) (A) (A) (A) (A) (A) (A) (A) (A) (A)
                 (A) (A) (A) (A) (A) (A) (A) (A) (A) (A) (A) (A)
                 (A) (A) (A) (A) (A) (A) (A) (A) (A) (A) (A) (A)
                 (A) (A) (A) (A) (A) (A) (A) (A) (A) (A) (A) (A)
                 (A) (A) (A) (A) (A) (A) (A) (A) (A) (A) (A) (A)
                 (A) (A) (A) (A) (A) (A) (A) (A) (A) (A) (A) (A)
                 (A) (A) (A) (A) (A) (A) (A) (A) (A) (A) (A) (A)
                 (A) (A) (A) (A) (A) (A) (A) (A) (A) (A) (A) (A)
                 (A) (A) (A) (A) (A) (A) (A) (A) (A) (A) (A) (A)
                 (A) (A) (A) (A) (A) (A) (A) (A) (A) (A) (A) (A)
                 (A) (A) (A) (A) (A) (A) (A) (A) (A) (A) (A) (A)
                 (A) (A) (A) (A) (A) (A) (A) (A) (A) (A) (A) (A)
                 (A) (A) (A) (A) (A) (A) (A) (A) (A) (A) (A) (A)
                 (A) (A) (A) (A) (A) (A) (A) (A) (A) (A) (A) (A)
                 (A) (A) (A) (A) (A) (A) (A) (A) (A) (A) (A) (A)
                 (A) (A) (A) (A) (A) (A) (A) (A) (A) (A) (A) (A)
                 (A) (A) (A) (A) (A) (A) (A) (A) (A) (A) (A) (A)
                 (A) (A) (A) (A) (A) (A) (A) (A) (A) (A) (A) (A)
                 (A) (A) (A) (A) (A) (A) (A) (A) (A) (A) (A) (A)
                 (A) (A) (A) (A) (A) (A) (A) (A) (A) (A) (A) (A)
                 (A) (A) (A) (A) (A) (A) (A) (A) (A) (A) (A) (A)
                 (A) (A) (A) (A) (A) (A) (A) (A) (A) (A) (A) (A)
                 (A) (A) (A) (A) (A) (A) (A) (A) (A) (A) (A) (A)
                 (A) (A) (A) (A) (A) (A) (A) (A) (A) (A) (A) (A)
                 (A) (A) (A) (A) (A) (A) (A) (A) (A) (A) (A) (A)
                 (A) (A) (A) (A) (A) (A) (A) (A) (A) (A) (A) (A)
                 (A) (A) (A) (A) (A) (A) (A) (A) (A) (A) (A) (A)
                 (A) (A) (A) (A) (A) (A) (A) (A) (A) (A) (A) (A)
                 (A) (A) (A) (A) (A) (A) (A) (A) (A) (A) (A) (A)
                 (A) (A) (A) (A) (A) (A) (A) (A) (A) (A) (A) (A)
                 (A) (A) (A) (A) (A) (A) (A) (A) (A) (A) (A) (A)
                 (A) (A) (A) (A) (A) (A) (A) (A) (A) (A) (A) (A)
                 (A) (A) (A) (A) (A) (A) (A) (A) (A) (A) (A) (A)
                 (A) (A) (A) (A) (A) (A) (A) (A) (A) (A) (A) (A)
                 (A) (A) (A) (A) (A) (A) (A) (A) (A) (A) (A) (A)
                 (A) (A) (A) (A) (A) (A) (A) (A) (A) (A) (A) (A)
                 (A) (A) (A) (A) (A) (A) (A) (A) (A) (A) (A) (A)
                 (A) (A) (A) (A) (A) (A) (A) (A) (A) (A) (A) (A)
                 (A) (A) (A) (A) (A) (A) (A) (A) (A) (A) (A) (A)
                 (A) (A) (A) (A) (A) (A) (A) (A) (A) (A) (A) (A)
                 (A) (A) (A) (A) (A) (A) (A) (A) (A) (A) (A) (A)
                 (A) (A) (A) (A) (A) (A) (A) (A) (A) (A) (A) (A)
                 (A) (A) (A) (A) (A) (A) (A) (A) (A) (A) (A) (A)
                 (A) (A) (A) (A) (A) (A) (A) (A) (A) (A) (A) (A)
                 (A) (A) (A) (A) (A) (A) (A) (A) (A) (A) (A) (A)
                 (A) (A) (A) (A) (A) (A) (A) (A) (A) (A) (A) (A)
                 (A) (A) (A) (A) (A) (A) (A) (A) (A) (A) (A) (A)
                 (A) (A) (A) (A) (A) (A) (A) (A) (A) (A) (A) (A)
                 (A) (A) (A) (A) (A) (A) (A) (A) (A) (A) (A) (A)
                 (A) (A) (A) (A) (A) (A) (A) (A) (A) (A) (A) (A)
                 (A) (A) (A) (A) (A) (A) (A) (A) (A) (A) (A) (A)
                 (A) (A) (A) (A) (A) (A) (A) (A) (A) (A) (A) (A)
                 (A) (A) (A) (A) (A) (A) (A) (A) (A) (A) (A) (A)
                 (A) (A) (A) (A) (A) (A) (A) (A) (A) (A) (A) (A)
                 (A) (A) (A) (A) (A) (A) (A) (A) (A) (A) (A) (A)
                 (A) (A) (A) (A) (A) (A) (A) (A) (A) (A) (A) (A)
                 (A) (A) (A) (A) (A) (A) (A) (A) (A) (A) (A) (A)
                 (A) (A) (A) (A) (A) (A) (A) (A) (A) (A) (A) (A)
                 (A) (A) (A) (A) (A) (A) (A) (A) (A) (A) (A) (A)
                 (A) (A) (A) (A) (A) (A) (A) (A) (A) (A) (A) (A)
                 (A) (A) (A) (A) (A) (A) (A) (A) (A) (A) (A) (A)
                 (A) (A) (A) (A) (A) (A) (A) (A) (A) (A) (A) (A)
                 (A) (A) (A) (A) (A) (A) (A) (A) (A) (A) (A) (A)
                 (A) (A) (A) (A) (A) (A) (A) (A) (A) (A) (A) (A)
                 (A) (A) (A) (A) (A) (A) (A) (A) (A) (A) (A) (A)
    20 initial guesses have been made.
 Convergence on wavefunction:    0.001000000000000
 Davidson Disk Diagonalization:  ConvIn= 1.00D-03 SkipCon=T Conv= 1.00D-03.
 Max sub-space:  2000 roots to seek:    20 dimension of matrix:       549360
 Iteration     1 Dimension    20 NMult     0 NNew     20
 CISAX will form    20 AO SS matrices at one time.
 NMat=    20 NSing=    20 JSym2X= 0.
 FoFJK:  IHMeth= 1 ICntrl=       0 DoSepK=T KAlg= 0 I1Cent=           0 FoldK=F
 IRaf=         1 NMat=      40 IRICut=       1 DoRegI=T DoRafI=F ISym2E= 0 IDoP0=3 IntGTp=3.
 FoFCou: FMM=T IPFlag=           0 FMFlag=      100000 FMFlg1=        2001
         NFxFlg=           0 DoJE=F BraDBF=F KetDBF=F FulRan=T
         wScrn=  0.000000 ICntrl=       500 IOpCl=  0 I1Cent=           0 NGrid=           0
         NMat0=   20 NMatS0=     20 NMatT0=    0 NMatD0=   20 NMtDS0=    0 NMtDT0=    0
 Symmetry not used in FoFCou.
 FMM levels:  10  Number of levels for PrismC:   9
 New state      1 was old state      8
 New state      2 was old state      5
 New state      3 was old state      2
 New state      4 was old state      3
 New state      5 was old state      1
 Excitation Energies [eV] at current iteration:
 Root      1 :     2.613929680728436
 Root      2 :     2.619000735473388
 Root      3 :     2.668966276680929
 Root      4 :     2.701592901638387
 Root      5 :     2.803269274441605
 Root      6 :     2.822260525511597
 Root      7 :     3.605194227067063
 Root      8 :     3.616165996630401
 Root      9 :     3.626818107083088
 Root     10 :     3.668354046702555
 Root     11 :     3.737608641094710
 Root     12 :     3.759840659507002
 Root     13 :     4.294106846325530
 Root     14 :     4.314522332993722
 Root     15 :     4.729200239614732
 Root     16 :     4.731228564587282
 Root     17 :     5.023862222992459
 Root     18 :     5.029715792794125
 Root     19 :     5.052064318484348
 Root     20 :     5.063381280428857
 Iteration     2 Dimension    30 NMult    20 NNew     10
 CISAX will form    10 AO SS matrices at one time.
 NMat=    10 NSing=    10 JSym2X= 0.
 New state      1 was old state      3
 Root      1 not converged, maximum delta is    0.154413643055472
 New state      2 was old state      4
 Root      2 not converged, maximum delta is    0.158301930809495
 New state      3 was old state      2
 Root      3 not converged, maximum delta is    0.233311064177939
 New state      4 was old state      1
 Root      4 not converged, maximum delta is    0.243651417953395
 Root      5 not converged, maximum delta is    0.001141516581722
 Excitation Energies [eV] at current iteration:
 Root      1 :     1.795482965481752   Change is   -0.873483311199178
 Root      2 :     1.812590359157487   Change is   -0.889002542480901
 Root      3 :     2.235076224734918   Change is   -0.383924510738470
 Root      4 :     2.239390637031471   Change is   -0.374539043696965
 Root      5 :     2.803172220052985   Change is   -0.000097054388620
 Iteration     3 Dimension    40 NMult    30 NNew     10
 CISAX will form    10 AO SS matrices at one time.
 NMat=    10 NSing=    10 JSym2X= 0.
 Root      1 not converged, maximum delta is    0.055880100957140
 Root      2 not converged, maximum delta is    0.056859093072600
 Root      3 not converged, maximum delta is    0.079646324101748
 Root      4 not converged, maximum delta is    0.079418170482617
 Root      5 has converged.
 Excitation Energies [eV] at current iteration:
 Root      1 :     1.688598094707922   Change is   -0.106884870773830
 Root      2 :     1.703917856934004   Change is   -0.108672502223482
 Root      3 :     2.193700515195593   Change is   -0.041375709539325
 Root      4 :     2.200272774135227   Change is   -0.039117862896244
 Root      5 :     2.803171906925507   Change is   -0.000000313127478
 Iteration     4 Dimension    48 NMult    40 NNew      8
 CISAX will form     8 AO SS matrices at one time.
 NMat=     8 NSing=     8 JSym2X= 0.
 Root      1 not converged, maximum delta is    0.010817185876395
 Root      2 not converged, maximum delta is    0.010803199211327
 Root      3 not converged, maximum delta is    0.010195926214770
 Root      4 not converged, maximum delta is    0.010120928641211
 Root      5 has converged.
 Excitation Energies [eV] at current iteration:
 Root      1 :     1.671846316811193   Change is   -0.016751777896729
 Root      2 :     1.687079648257028   Change is   -0.016838208676976
 Root      3 :     2.186398475480301   Change is   -0.007302039715292
 Root      4 :     2.193467041657265   Change is   -0.006805732477962
 Root      5 :     2.803171906925360   Change is   -0.000000000000147
 Iteration     5 Dimension    56 NMult    48 NNew      8
 CISAX will form     8 AO SS matrices at one time.
 NMat=     8 NSing=     8 JSym2X= 0.
 Root      1 not converged, maximum delta is    0.001777122586149
 Root      2 not converged, maximum delta is    0.001789963684241
 Root      3 not converged, maximum delta is    0.002467736760175
 Root      4 not converged, maximum delta is    0.002349747092199
 Root      5 has converged.
 Excitation Energies [eV] at current iteration:
 Root      1 :     1.670083301481400   Change is   -0.001763015329793
 Root      2 :     1.685294042333574   Change is   -0.001785605923454
 Root      3 :     2.185552533783243   Change is   -0.000845941697058
 Root      4 :     2.192688465685248   Change is   -0.000778575972017
 Root      5 :     2.803171906925009   Change is   -0.000000000000352
 Iteration     6 Dimension    64 NMult    56 NNew      8
 CISAX will form     8 AO SS matrices at one time.
 NMat=     8 NSing=     8 JSym2X= 0.
 Root      1 not converged, maximum delta is    0.001106203755864
 Root      2 not converged, maximum delta is    0.001114945118023
 Root      3 not converged, maximum delta is    0.001053580228727
 Root      4 has converged.
 Root      5 has converged.
 Excitation Energies [eV] at current iteration:
 Root      1 :     1.669832202509122   Change is   -0.000251098972278
 Root      2 :     1.685037381771312   Change is   -0.000256660562263
 Root      3 :     2.185423984561855   Change is   -0.000128549221388
 Root      4 :     2.192570078097390   Change is   -0.000118387587858
 Root      5 :     2.803171906924950   Change is   -0.000000000000059
 Iteration     7 Dimension    70 NMult    64 NNew      6
 CISAX will form     6 AO SS matrices at one time.
 NMat=     6 NSing=     6 JSym2X= 0.
 Root      1 has converged.
 Root      2 has converged.
 Root      3 has converged.
 Root      4 has converged.
 Root      5 has converged.
 Excitation Energies [eV] at current iteration:
 Root      1 :     1.669807831892310   Change is   -0.000024370616812
[...]
 Alpha virt. eigenvalues --    1.84558   1.84587   1.84802   1.84940   1.85163
 Alpha virt. eigenvalues --    1.85245   1.85347   1.85408   1.85504   1.85608
 Alpha virt. eigenvalues --    1.85923   1.86003   1.86406   1.86497   1.86668
 Alpha virt. eigenvalues --    1.86687   1.86855   1.86918   1.87076   1.87178
 Alpha virt. eigenvalues --    1.87504   1.87581   1.87789   1.87811   1.88002
 Alpha virt. eigenvalues --    1.88033   1.88174   1.88196   1.88586   1.88666
 Alpha virt. eigenvalues --    1.88948   1.88951   1.89098   1.89264   1.89668
 Alpha virt. eigenvalues --    1.89754   1.89878   1.89892   1.90203   1.90249
 Alpha virt. eigenvalues --    1.90884   1.90912   1.91446   1.91479   1.91569
 Alpha virt. eigenvalues --    1.91604   1.92201   1.92288   1.92680   1.92754
 Alpha virt. eigenvalues --    1.93116   1.93169   1.93475   1.93526   1.94339
 Alpha virt. eigenvalues --    1.94423   1.94819   1.94828   1.95614   1.95623
 Alpha virt. eigenvalues --    1.95832   1.95859   1.96071   1.96126   1.96191
 Alpha virt. eigenvalues --    1.96293   1.96509   1.96731   1.96949   1.97030
 Alpha virt. eigenvalues --    1.97568   1.97586   1.97826   1.97974   1.98184
 Alpha virt. eigenvalues --    1.98301   1.98369   1.98799   1.99087   1.99264
 Alpha virt. eigenvalues --    1.99943   1.99949   2.00747   2.00796   2.01110
 Alpha virt. eigenvalues --    2.01127   2.01533   2.01608   2.01620   2.01811
 Alpha virt. eigenvalues --    2.01839   2.01848   2.02726   2.02916   2.03159
 Alpha virt. eigenvalues --    2.03368   2.03393   2.03533   2.03536   2.03615
 Alpha virt. eigenvalues --    2.04043   2.04167   2.04992   2.05091   2.05643
 Alpha virt. eigenvalues --    2.05646   2.06208   2.06296   2.07030   2.07047
 Alpha virt. eigenvalues --    2.07319   2.07367   2.08557   2.08715   2.09020
 Alpha virt. eigenvalues --    2.09113   2.09626   2.09719   2.10919   2.11063
 Alpha virt. eigenvalues --    2.11316   2.11424   2.11544   2.11667   2.11858
 Alpha virt. eigenvalues --    2.11874   2.12477   2.12595   2.12817   2.12886
 Alpha virt. eigenvalues --    2.12936   2.12968   2.13639   2.13892   2.14268
 Alpha virt. eigenvalues --    2.14271   2.15423   2.15468   2.16054   2.16095
 Alpha virt. eigenvalues --    2.16606   2.16657   2.16888   2.17190   2.17547
 Alpha virt. eigenvalues --    2.17663   2.17834   2.17944   2.18029   2.18208
 Alpha virt. eigenvalues --    2.18450   2.18682   2.18995   2.19248   2.19770
 Alpha virt. eigenvalues --    2.19830   2.20167   2.20260   2.20345   2.20448
 Alpha virt. eigenvalues --    2.21198   2.21290   2.21776   2.21800   2.21875
 Alpha virt. eigenvalues --    2.21887   2.22715   2.22813   2.23364   2.23451
 Alpha virt. eigenvalues --    2.24444   2.24528   2.25024   2.25101   2.26427
 Alpha virt. eigenvalues --    2.26452   2.26911   2.27021   2.27215   2.27231
 Alpha virt. eigenvalues --    2.28266   2.28323   2.29399   2.29448   2.29864
 Alpha virt. eigenvalues --    2.29890   2.30582   2.30629   2.30832   2.31213
 Alpha virt. eigenvalues --    2.31217   2.31305   2.32252   2.32252   2.33240
 Alpha virt. eigenvalues --    2.33262   2.33502   2.33595   2.34157   2.34274
 Alpha virt. eigenvalues --    2.35309   2.35496   2.35914   2.35923   2.36340
 Alpha virt. eigenvalues --    2.36470   2.36490   2.36752   2.37701   2.37798
 Alpha virt. eigenvalues --    2.38387   2.38387   2.38784   2.38980   2.39676
 Alpha virt. eigenvalues --    2.39739   2.40288   2.40317   2.40613   2.40833
 Alpha virt. eigenvalues --    2.41219   2.41394   2.41716   2.41824   2.42136
 Alpha virt. eigenvalues --    2.42166   2.42841   2.43074   2.43079   2.43649
 Alpha virt. eigenvalues --    2.43977   2.44291   2.44810   2.44858   2.44996
 Alpha virt. eigenvalues --    2.45031   2.45579   2.45679   2.46283   2.46428
 Alpha virt. eigenvalues --    2.46502   2.46607   2.46805   2.46926   2.47386
 Alpha virt. eigenvalues --    2.47391   2.47843   2.47894   2.49398   2.49438
 Alpha virt. eigenvalues --    2.49918   2.50207   2.50463   2.50686   2.51246
 Alpha virt. eigenvalues --    2.51269   2.51613   2.52012   2.52396   2.52563
 Alpha virt. eigenvalues --    2.52935   2.53163   2.53970   2.54047   2.54272
 Alpha virt. eigenvalues --    2.54273   2.54814   2.54918   2.55646   2.55666
 Alpha virt. eigenvalues --    2.57990   2.58075   2.58771   2.58902   2.60298
 Alpha virt. eigenvalues --    2.60331   2.60735   2.60917   2.61819   2.61837
 Alpha virt. eigenvalues --    2.62427   2.62658   2.63084   2.63127   2.64060
 Alpha virt. eigenvalues --    2.64212   2.64379   2.64436   2.65099   2.65208
 Alpha virt. eigenvalues --    2.65852   2.65909   2.66832   2.66913   2.67036
 Alpha virt. eigenvalues --    2.67051   2.67980   2.68038   2.68818   2.68984
 Alpha virt. eigenvalues --    2.69026   2.69148   2.69526   2.69595   2.70129
 Alpha virt. eigenvalues --    2.70143   2.71064   2.71108   2.71888   2.72178
 Alpha virt. eigenvalues --    2.72487   2.72728   2.72778   2.72946   2.73293
 Alpha virt. eigenvalues --    2.73411   2.73465   2.73653   2.74506   2.74640
 Alpha virt. eigenvalues --    2.75047   2.75101   2.76520   2.76722   2.77060
 Alpha virt. eigenvalues --    2.77360   2.77579   2.77588   2.78274   2.78310
 Alpha virt. eigenvalues --    2.78682   2.78855   2.79143   2.79259   2.80243
 Alpha virt. eigenvalues --    2.80467   2.80679   2.80711   2.81141   2.81243
 Alpha virt. eigenvalues --    2.81977   2.82059   2.82328   2.82471   2.83829
 Alpha virt. eigenvalues --    2.83876   2.83891   2.83894   2.84519   2.84675
 Alpha virt. eigenvalues --    2.84880   2.85014   2.85675   2.85792   2.86651
 Alpha virt. eigenvalues --    2.87122   2.87163   2.87726   2.88214   2.88277
 Alpha virt. eigenvalues --    2.88614   2.88640   2.88862   2.89063   2.90624
 Alpha virt. eigenvalues --    2.90651   2.91057   2.91319   2.93278   2.93305
 Alpha virt. eigenvalues --    2.93757   2.94327   2.94563   2.94686   2.95453
 Alpha virt. eigenvalues --    2.95487   2.95824   2.96322   2.96371   2.96574
 Alpha virt. eigenvalues --    2.96861   2.97298   2.97935   2.98011   2.98329
 Alpha virt. eigenvalues --    2.98338   2.98497   2.98556   2.98730   2.98772
 Alpha virt. eigenvalues --    2.98910   2.99008   2.99721   2.99798   3.00001
 Alpha virt. eigenvalues --    3.00151   3.00323   3.00343   3.00584   3.00977
 Alpha virt. eigenvalues --    3.01901   3.02089   3.02124   3.02150   3.02797
 Alpha virt. eigenvalues --    3.02847   3.03100   3.03288   3.03450   3.03695
 Alpha virt. eigenvalues --    3.04043   3.04307   3.04427   3.04585   3.04683
 Alpha virt. eigenvalues --    3.04728   3.05330   3.05419   3.06142   3.06237
 Alpha virt. eigenvalues --    3.06917   3.06925   3.07899   3.08271   3.09337
 Alpha virt. eigenvalues --    3.09523   3.09814   3.10408   3.10565   3.10718
 Alpha virt. eigenvalues --    3.11455   3.11460   3.11910   3.12064   3.12281
 Alpha virt. eigenvalues --    3.12321   3.13407   3.13630   3.13674   3.13773
 Alpha virt. eigenvalues --    3.14210   3.14455   3.16002   3.16065   3.17394
 Alpha virt. eigenvalues --    3.17505   3.17853   3.18203   3.19013   3.19256
 Alpha virt. eigenvalues --    3.22427   3.22581   3.24077   3.24422   3.24803
 Alpha virt. eigenvalues --    3.25177   3.26636   3.26641   3.27377   3.27751
 Alpha virt. eigenvalues --    3.29207   3.29223   3.31360   3.31654   3.33167
 Alpha virt. eigenvalues --    3.33549   3.40243   3.40749   3.42790   3.42941
 Alpha virt. eigenvalues --    3.48681   3.48790   3.50153   3.50265   3.50817
 Alpha virt. eigenvalues --    3.51605   3.56681   3.56986   3.59232   3.59324
 Alpha virt. eigenvalues --    3.62498   3.62968   3.66081   3.66307   3.67307
 Alpha virt. eigenvalues --    3.67527   3.73396   3.74006   3.76184   3.76665
          Condensed to atoms (all electrons):
 Mulliken charges:
               1
     1  Mg   0.839002
     2  C   -0.002953
     3  C   -0.094139
     4  C   -0.045859
     5  C   -0.063851
     6  N   -0.256777
     7  C   -0.052447
     8  C   -0.014051
     9  C   -0.086972
    10  C    0.046331
    11  C    0.104844
    12  C    0.053463
    13  C   -0.071697
    14  H    0.035906
    15  N   -0.433091
    16  C    0.168438
    17  C   -0.177213
    18  C   -0.004047
    19  C    0.148731
    20  C    0.110210
    21  C    0.012261
    22  O   -0.249798
    23  C    0.062475
    24  N   -0.341177
    25  C    0.041255
    26  C   -0.028112
    27  C   -0.024002
    28  C    0.074933
    29  C    0.076244
    30  C    0.035080
    31  C   -0.004545
    32  N   -0.310513
    33  C    0.080564
    34  C   -0.169444
    35  C    0.008357
    36  C    0.083128
    37  C    0.127245
    38  C    0.046235
    39  O   -0.188405
    40  C   -0.005406
    41  C    0.212849
    42  O   -0.256954
    43  O   -0.304830
    44  C    0.157746
    45  H   -0.017766
    46  H   -0.016979
    47  H   -0.041325
    48  H    0.000829
    49  H   -0.004087
    50  H    0.025405
    51  H    0.016410
    52  H    0.016507
    53  H    0.011350
    54  H    0.044171
    55  H    0.017764
    56  H    0.017963
    57  H    0.005812
    58  H    0.026604
    59  H    0.039589
    60  H    0.037240
    61  H    0.035359
    62  H    0.031641
    63  H    0.016550
    64  H    0.009346
    65  H    0.023033
    66  H    0.012408
    67  H    0.004664
    68  H    0.006199
    69  H    0.004917
    70  H    0.008582
    71  H    0.018879
    72  H    0.029075
    73  H    0.047878
    74  H    0.009330
    75  H    0.045841
    76  H    0.035022
    77  H    0.042842
    78  H    0.046302
    79  H    0.053630
    80  Mg   0.838155
    81  C   -0.016828
    82  C   -0.087867
    83  C   -0.045541
    84  C   -0.064729
    85  N   -0.254538
    86  C   -0.049810
    87  C   -0.015130
    88  C   -0.090489
    89  C    0.045731
    90  C    0.114426
    91  C    0.062564
    92  C   -0.077860
    93  H    0.034865
    94  N   -0.423428
    95  C    0.162882
    96  C   -0.174755
    97  C   -0.007942
    98  C    0.152135
    99  C    0.099410
   100  C    0.015475
   101  O   -0.253475
   102  C    0.061255
   103  N   -0.350150
   104  C    0.037554
   105  C   -0.019735
   106  C   -0.034913
   107  C    0.089098
   108  C    0.073777
   109  C    0.034704
   110  C   -0.007807
   111  N   -0.324200
   112  C    0.078685
   113  C   -0.162720
   114  C    0.002257
   115  C    0.096421
   116  C    0.131394
   117  C    0.042564
   118  O   -0.187733
   119  C    0.000840
   120  C    0.211256
   121  O   -0.250780
   122  O   -0.305711
   123  C    0.152039
   124  H   -0.019863
   125  H   -0.015802
   126  H   -0.040130
   127  H   -0.000722
   128  H   -0.004414
   129  H    0.022396
   130  H    0.014364
   131  H    0.016117
   132  H    0.013973
   133  H    0.037806
   134  H    0.020687
   135  H    0.019524
   136  H    0.008687
   137  H    0.025886
   138  H    0.039674
   139  H    0.038168
   140  H    0.035947
   141  H    0.033940
   142  H    0.014343
   143  H    0.012280
   144  H    0.024829
   145  H    0.011460
   146  H    0.005581
   147  H    0.005986
   148  H    0.004021
   149  H    0.010519
   150  H    0.019398
   151  H    0.030106
   152  H    0.046463
   153  H    0.008898
   154  H    0.046749
   155  H    0.034885
   156  H    0.043838
   157  H    0.049378
   158  H    0.053677
 Sum of Mulliken charges =  -0.00000
 Mulliken charges with hydrogens summed into heavy atoms:
               1
     1  Mg   0.839002
     2  C   -0.002953
     3  C   -0.111905
     4  C   -0.062839
     5  C   -0.105176
     6  N   -0.256777
     7  C   -0.052447
     8  C   -0.013222
     9  C   -0.091058
    10  C    0.046331
    11  C    0.163166
    12  C    0.108984
    13  C   -0.000064
    15  N   -0.433091
    16  C    0.168438
    17  C   -0.177213
    18  C   -0.004047
    19  C    0.148731
    20  C    0.182216
    21  C    0.012261
    22  O   -0.249798
    23  C    0.166715
    24  N   -0.341177
    25  C    0.041255
    26  C   -0.011562
    27  C   -0.014656
    28  C    0.074933
    29  C    0.116350
    30  C    0.046196
    31  C    0.051991
    32  N   -0.310513
    33  C    0.080564
    34  C   -0.169444
    35  C    0.008357
    36  C    0.083128
    37  C    0.230294
    38  C    0.046235
    39  O   -0.188405
    40  C    0.029616
    41  C    0.212849
    42  O   -0.256954
    43  O   -0.304830
    44  C    0.300519
    80  Mg   0.838155
    81  C   -0.016828
    82  C   -0.107731
    83  C   -0.061342
    84  C   -0.104859
    85  N   -0.254538
    86  C   -0.049810
    87  C   -0.015852
    88  C   -0.094902
    89  C    0.045731
    90  C    0.167304
    91  C    0.114343
    92  C   -0.002783
    94  N   -0.423428
    95  C    0.162882
    96  C   -0.174755
    97  C   -0.007942
    98  C    0.152135
    99  C    0.173657
   100  C    0.015475
   101  O   -0.253475
   102  C    0.169310
   103  N   -0.350150
   104  C    0.037554
   105  C   -0.005392
   106  C   -0.022633
   107  C    0.089098
   108  C    0.115647
   109  C    0.044712
   110  C    0.052216
   111  N   -0.324200
   112  C    0.078685
   113  C   -0.162720
   114  C    0.002257
   115  C    0.096421
   116  C    0.233504
   117  C    0.042564
   118  O   -0.187733
   119  C    0.035726
   120  C    0.211256
   121  O   -0.250780
   122  O   -0.305711
   123  C    0.298932
 Electronic spatial extent (au):  <R**2>=         199451.2390
 Charge=             -0.0000 electrons
 Dipole moment (field-independent basis, Debye):
    X=             -0.1837    Y=             -1.4794    Z=              7.2211  Tot=              7.3734
 Quadrupole moment (field-independent basis, Debye-Ang):
   XX=           -437.1848   YY=           -473.6873   ZZ=           -533.5664
   XY=             33.5376   XZ=              2.0525   YZ=             20.2414
 Traceless Quadrupole moment (field-independent basis, Debye-Ang):
   XX=             44.2947   YY=              7.7922   ZZ=            -52.0869
   XY=             33.5376   XZ=              2.0525   YZ=             20.2414
 Octapole moment (field-independent basis, Debye-Ang**2):
  XXX=           -164.5571  YYY=            230.2960  ZZZ=            269.1876  XYY=           -196.2159
  XXY=           -245.4800  XXZ=            612.0711  XZZ=            193.0937  YZZ=           -241.9561
  YYZ=           -188.8963  XYZ=            339.2112
 Hexadecapole moment (field-independent basis, Debye-Ang**3):
 XXXX=        -198208.8671 YYYY=         -31241.1510 ZZZZ=         -32633.7597 XXXY=           4961.9118
 XXXZ=            109.7760 YYYX=           1607.4694 YYYZ=            746.3212 ZZZX=            501.9975
 ZZZY=             -0.4790 XXYY=         -37647.7061 XXZZ=         -40706.0064 YYZZ=         -10825.9047
 XXYZ=           1741.7236 YYXZ=             19.7888 ZZXY=            650.7832
 N-N= 1.368772121768D+04 E-N=-3.685677176730D+04  KE= 4.028802024739D+03
 Leave Link  601 at Sat Sep 11 21:31:05 2021, MaxMem= 23488102400 cpu:              15.6 elap:               0.8
 (Enter /sw/apps/gaussian-16.0/g16/l9999.exe)
 1\1\GINC-BP1-COMPUTE00091\SP\RCAM-B3LYP TD-FC\def2SVP\C68H72Mg2N8O8\OF
 15641\11-Sep-2021\0\\#p cam-b3lyp/Def2SVP td=(nstates=5)\\TDDFT excite
 d states in gaussian\\0,1\Mg,0,0.,0.,0.\C,0,-0.217,-2.218,2.801\C,0,-1
 .255,2.442,2.026\C,0,-0.245,1.85,-2.564\C,0,0.146,-2.824,-2.037\N,0,-0
 .617,-0.009,2.126\C,0,-0.594,-0.908,3.105\C,0,-0.936,-0.309,4.502\C,0,
 -1.773,0.964,4.032\C,0,-1.155,1.168,2.66\C,0,-3.263,0.685,3.863\C,0,0.
 345,0.11,5.299\C,0,0.124,0.397,6.787\H,0,1.168,0.033,7.733\N,0,-0.185,
 1.961,-0.152\C,0,-0.703,2.8,0.777\C,0,-0.62,4.156,0.193\C,0,-0.187,4.0
 15,-1.225\C,0,-0.214,2.583,-1.38\C,0,-0.887,5.406,0.974\C,0,0.181,5.01
 3,-2.277\O,0,0.303,4.69,-3.508\C,0,0.31,6.414,-1.837\N,0,-0.265,-0.413
 ,-2.029\C,0,-0.279,0.569,-2.937\C,0,-0.196,0.024,-4.332\C,0,0.124,-1.5
 33,-4.18\C,0,0.086,-1.632,-2.635\C,0,-1.451,0.205,-5.197\C,0,1.373,-2.
 07,-4.923\C,0,2.626,-1.49,-4.306\N,0,0.15,-2.144,0.303\C,0,0.173,-3.13
 6,-0.688\C,0,0.173,-4.438,0.004\C,0,0.133,-4.111,1.358\C,0,0.083,-2.69
 5,1.502\C,0,0.149,-5.715,-0.623\C,0,0.096,-4.629,2.716\O,0,0.208,-5.74
 7,3.221\C,0,-0.255,-3.428,3.701\C,0,0.717,-3.482,4.848\O,0,1.931,-3.25
 5,4.669\O,0,0.038,-3.556,6.003\C,0,0.943,-3.583,7.183\H,0,-1.859,3.22,
 2.497\H,0,-0.218,2.453,-3.474\H,0,0.276,-3.747,-2.605\H,0,-1.554,-0.94
 9,5.132\H,0,-1.585,1.831,4.665\H,0,-3.484,-0.377,3.969\H,0,-3.511,1.02
 7,2.858\H,0,-3.852,1.301,4.543\H,0,0.669,1.096,4.966\H,0,1.13,-0.639,5
 .189\H,0,-0.844,0.026,7.125\H,0,0.062,1.477,6.921\H,0,-1.344,5.186,1.9
 38\H,0,-1.651,5.963,0.432\H,0,0.007,6.02,1.084\H,0,-0.635,6.744,-1.405
 \H,0,0.665,6.97,-2.704\H,0,1.048,6.466,-1.036\H,0,0.608,0.501,-4.891\H
 ,0,-0.692,-2.156,-4.547\H,0,-1.267,0.74,-6.129\H,0,-2.204,0.714,-4.596
 \H,0,-1.967,-0.72,-5.453\H,0,1.356,-1.759,-5.967\H,0,1.452,-3.157,-4.9
 02\H,0,2.714,-0.522,-4.798\H,0,3.487,-2.121,-4.529\H,0,2.495,-1.303,-3
 .24\H,0,0.867,-6.333,-0.084\H,0,0.404,-5.642,-1.68\H,0,-0.891,-5.999,-
 0.463\H,0,-1.283,-3.581,4.028\H,0,0.698,-4.478,7.755\H,0,0.833,-2.619,
 7.68\H,0,2.,-3.754,6.976\Mg,0,15.76173,1.42162,1.18835\C,0,17.08368,-1
 .21337,-0.85818\C,0,17.2437,3.62513,-0.95242\C,0,14.99743,3.74554,3.20
 892\C,0,15.37863,-0.93257,3.72936\N,0,16.97895,1.12284,-0.6341\C,0,17.
 36445,0.07801,-1.35108\C,0,18.0213,0.43798,-2.71069\C,0,18.51981,1.921
 69,-2.35155\C,0,17.49947,2.26698,-1.26879\C,0,19.90613,1.95686,-1.7301
 \C,0,16.98642,0.44945,-3.89005\C,0,17.60586,0.48826,-5.28882\H,0,16.93
 907,-0.23844,-6.36574\N,0,15.64394,3.38239,0.90535\C,0,16.29635,4.1109
 6,-0.02461\C,0,15.88485,5.50604,0.19583\C,0,15.06429,5.56267,1.43607\C
 ,0,15.22424,4.20614,1.92014\C,0,16.2055,6.61102,-0.76834\C,0,14.27761,
 6.66012,2.0864\O,0,13.83627,6.55305,3.28497\C,0,14.11921,7.90028,1.312
 83\N,0,15.45818,1.45889,3.24476\C,0,15.08242,2.58966,3.86773\C,0,14.65
 816,2.31349,5.29045\C,0,14.59706,0.7206,5.41904\C,0,15.10507,0.33352,4
 .01281\C,0,15.57204,2.87696,6.37844\C,0,13.26064,0.10551,5.91736\C,0,1
 2.17792,0.31729,4.88381\N,0,15.97478,-0.72083,1.36878\C,0,15.79035,-1.
 50149,2.53095\C,0,16.16127,-2.88938,2.18654\C,0,16.56088,-2.81504,0.84
 367\C,0,16.46624,-1.47181,0.38951\C,0,16.14959,-3.99915,3.07782\C,0,17
 .05135,-3.56559,-0.28982\O,0,17.24256,-4.75799,-0.52513\C,0,17.532,-2.
 5402,-1.40514\C,0,16.95867,-2.98468,-2.72281\O,0,15.73012,-2.96855,-2.
 9152\O,0,17.96003,-3.14723,-3.60668\C,0,17.44039,-3.57716,-4.93218\H,0
 ,17.85476,4.39265,-1.42824\H,0,14.62474,4.48954,3.91677\H,0,15.19371,-
 1.74257,4.43815\H,0,18.86636,-0.18194,-2.98519\H,0,18.41449,2.59042,-3
 .20189\H,0,20.28018,0.96518,-1.52322\H,0,19.80299,2.52135,-0.81263\H,0
 ,20.58834,2.53195,-2.36271\H,0,16.45682,1.41083,-3.89236\H,0,16.31446,
 -0.38333,-3.81541\H,0,18.67694,0.25277,-5.27198\H,0,17.56308,1.51551,-
 5.6589\H,0,16.96041,6.29938,-1.50072\H,0,16.69569,7.40445,-0.19384\H,0
 ,15.3153,7.02159,-1.24964\H,0,15.09992,8.30657,1.07702\H,0,13.45353,8.
 53113,1.90509\H,0,13.64091,7.65789,0.35727\H,0,13.67345,2.71988,5.4861
 6\H,0,15.33911,0.34099,6.13674\H,0,15.04733,3.54708,7.08532\H,0,16.392
 28,3.39575,5.90032\H,0,16.08938,2.13081,6.97912\H,0,12.92594,0.61234,6
 .8258\H,0,13.33098,-0.95263,6.14624\H,0,11.83121,1.33345,5.09428\H,0,1
 1.3771,-0.40785,5.01383\H,0,12.59545,0.31476,3.87024\H,0,15.71268,-4.8
 2815,2.5371\H,0,15.59031,-3.77553,3.98389\H,0,17.22032,-4.10472,3.2718
 9\H,0,18.62263,-2.54844,-1.40958\H,0,17.95921,-4.50473,-5.19318\H,0,17
 .58659,-2.71165,-5.60542\H,0,16.40472,-3.89163,-4.98651\\Version=ES64L
 -G16RevA.03\State=1-A\HF=-4069.8117284\RMSD=4.853e-09\PG=C01 [X(C68H72
 Mg2N8O8)]\\@


 Change starts when someone sees the next step.
                            -- William Drayton
 Job cpu time:       0 days 11 hours 41 minutes 32.6 seconds.
 Elapsed time:       0 days  0 hours 29 minutes 48.6 seconds.
 File lengths (MBytes):  RWF=  13225 Int=      0 D2E=      0 Chk=    574 Scr=      1
 Normal termination of Gaussian 16 at Sat Sep 11 21:31:06 2021.
