 Entering Gaussian System, Link 0=g16
 Initial command:
 /sw/apps/gaussian-16.0/g16/l1.exe "/tmp/Gau-210575.inp" -scrdir="/tmp/"
 Entering Link 1 = /sw/apps/gaussian-16.0/g16/l1.exe PID=    210576.
  
 Copyright (c) 1988,1990,1992,1993,1995,1998,2003,2009,2016,
            Gaussian, Inc.  All Rights Reserved.
  
 This is part of the Gaussian(R) 16 program.  It is based on
 the Gaussian(R) 09 system (copyright 2009, Gaussian, Inc.),
 the Gaussian(R) 03 system (copyright 2003, Gaussian, Inc.),
 the Gaussian(R) 98 system (copyright 1998, Gaussian, Inc.),
 the Gaussian(R) 94 system (copyright 1995, Gaussian, Inc.),
 the Gaussian 92(TM) system (copyright 1992, Gaussian, Inc.),
 the Gaussian 90(TM) system (copyright 1990, Gaussian, Inc.),
 the Gaussian 88(TM) system (copyright 1988, Gaussian, Inc.),
 the Gaussian 86(TM) system (copyright 1986, Carnegie Mellon
 University), and the Gaussian 82(TM) system (copyright 1983,
 Carnegie Mellon University). Gaussian is a federally registered
 trademark of Gaussian, Inc.
  
 This software contains proprietary and confidential information,
 including trade secrets, belonging to Gaussian, Inc.
  
 This software is provided under written license and may be
 used, copied, transmitted, or stored only in accord with that
 written license.
  
 The following legend is applicable only to US Government
 contracts under FAR:
  
                    RESTRICTED RIGHTS LEGEND
  
 Use, reproduction and disclosure by the US Government is
 subject to restrictions as set forth in subparagraphs (a)
 and (c) of the Commercial Computer Software - Restricted
 Rights clause in FAR 52.227-19.
  
 Gaussian, Inc.
 340 Quinnipiac St., Bldg. 40, Wallingford CT 06492
  
  
 ---------------------------------------------------------------
 Warning -- This program may not be used in any manner that
 competes with the business of Gaussian, Inc. or will provide
 assistance to any competitor of Gaussian, Inc.  The licensee
 of this program is prohibited from giving any competitor of
 Gaussian, Inc. access to this program.  By using this program,
 the user acknowledges that Gaussian, Inc. is engaged in the
 business of creating and licensing software in the field of
 computational chemistry and represents and warrants to the
 licensee that it is not a competitor of Gaussian, Inc. and that
 it will not use this program in any manner prohibited above.
 ---------------------------------------------------------------
  

 Cite this work as:
 Gaussian 16, Revision A.03,
 M. J. Frisch, G. W. Trucks, H. B. Schlegel, G. E. Scuseria, 
 M. A. Robb, J. R. Cheeseman, G. Scalmani, V. Barone, 
 G. A. Petersson, H. Nakatsuji, X. Li, M. Caricato, A. V. Marenich, 
 J. Bloino, B. G. Janesko, R. Gomperts, B. Mennucci, H. P. Hratchian, 
 J. V. Ortiz, A. F. Izmaylov, J. L. Sonnenberg, D. Williams-Young, 
 F. Ding, F. Lipparini, F. Egidi, J. Goings, B. Peng, A. Petrone, 
 T. Henderson, D. Ranasinghe, V. G. Zakrzewski, J. Gao, N. Rega, 
 G. Zheng, W. Liang, M. Hada, M. Ehara, K. Toyota, R. Fukuda, 
 J. Hasegawa, M. Ishida, T. Nakajima, Y. Honda, O. Kitao, H. Nakai, 
 T. Vreven, K. Throssell, J. A. Montgomery, Jr., J. E. Peralta, 
 F. Ogliaro, M. J. Bearpark, J. J. Heyd, E. N. Brothers, K. N. Kudin, 
 V. N. Staroverov, T. A. Keith, R. Kobayashi, J. Normand, 
 K. Raghavachari, A. P. Rendell, J. C. Burant, S. S. Iyengar, 
 J. Tomasi, M. Cossi, J. M. Millam, M. Klene, C. Adamo, R. Cammi, 
 J. W. Ochterski, R. L. Martin, K. Morokuma, O. Farkas, 
 J. B. Foresman, and D. J. Fox, Gaussian, Inc., Wallingford CT, 2016.
 
 ******************************************
 Gaussian 16:  ES64L-G16RevA.03 25-Dec-2016
                11-Sep-2021 
 ******************************************
 %nproc=24
 Will use up to   24 processors via shared memory.
 %mem=175gb
 -----------------------------------
 #p cam-b3lyp/Def2SVP td=(nstates=5)
 -----------------------------------
 1/38=1,172=1/1;
 2/12=2,17=6,18=5,40=1/2;
 3/5=43,7=101,11=9,25=1,30=1,74=-40/1,2,3,8;
 4//1;
 5/5=2,38=5/2;
 8/6=1,10=1,108=5/1;
 9/41=5,42=1,70=2/14;
 6/7=2,8=2,9=2,10=2/1;
 99/5=1,9=1/99;
 Leave Link    1 at Sat Sep 11 02:47:51 2021, MaxMem= 23488102400 cpu:               0.6 elap:               0.0
 (Enter /sw/apps/gaussian-16.0/g16/l101.exe)
 --------------------------------
 TDDFT excited states in gaussian
 --------------------------------
 Symbolic Z-matrix:
 Charge =  0 Multiplicity = 1
 Mg                    0.        0.        0. 
 C                    -0.217    -2.218     2.801 
 C                    -1.255     2.442     2.026 
 C                    -0.245     1.85     -2.564 
 C                     0.146    -2.824    -2.037 
 N                    -0.617    -0.009     2.126 
 C                    -0.594    -0.908     3.105 
 C                    -0.936    -0.309     4.502 
 C                    -1.773     0.964     4.032 
 C                    -1.155     1.168     2.66 
 C                    -3.263     0.685     3.863 
 C                     0.345     0.11      5.299 
 C                     0.124     0.397     6.787 
 H                     1.168     0.033     7.733 
 N                    -0.185     1.961    -0.152 
 C                    -0.703     2.8       0.777 
 C                    -0.62      4.156     0.193 
 C                    -0.187     4.015    -1.225 
 C                    -0.214     2.583    -1.38 
 C                    -0.887     5.406     0.974 
 C                     0.181     5.013    -2.277 
 O                     0.303     4.69     -3.508 
 C                     0.31      6.414    -1.837 
 N                    -0.265    -0.413    -2.029 
 C                    -0.279     0.569    -2.937 
 C                    -0.196     0.024    -4.332 
 C                     0.124    -1.533    -4.18 
 C                     0.086    -1.632    -2.635 
 C                    -1.451     0.205    -5.197 
 C                     1.373    -2.07     -4.923 
 C                     2.626    -1.49     -4.306 
 N                     0.15     -2.144     0.303 
 C                     0.173    -3.136    -0.688 
 C                     0.173    -4.438     0.004 
 C                     0.133    -4.111     1.358 
 C                     0.083    -2.695     1.502 
 C                     0.149    -5.715    -0.623 
 C                     0.096    -4.629     2.716 
 O                     0.208    -5.747     3.221 
 C                    -0.255    -3.428     3.701 
 C                     0.717    -3.482     4.848 
 O                     1.931    -3.255     4.669 
 O                     0.038    -3.556     6.003 
 C                     0.943    -3.583     7.183 
 H                    -1.859     3.22      2.497 
 H                    -0.218     2.453    -3.474 
 H                     0.276    -3.747    -2.605 
 H                    -1.554    -0.949     5.132 
 H                    -1.585     1.831     4.665 
 H                    -3.484    -0.377     3.969 
 H                    -3.511     1.027     2.858 
 H                    -3.852     1.301     4.543 
 H                     0.669     1.096     4.966 
 H                     1.13     -0.639     5.189 
 H                    -0.844     0.026     7.125 
 H                     0.062     1.477     6.921 
 H                    -1.344     5.186     1.938 
 H                    -1.651     5.963     0.432 
 H                     0.007     6.02      1.084 
 H                    -0.635     6.744    -1.405 
 H                     0.665     6.97     -2.704 
 H                     1.048     6.466    -1.036 
 H                     0.608     0.501    -4.891 
 H                    -0.692    -2.156    -4.547 
 H                    -1.267     0.74     -6.129 
 H                    -2.204     0.714    -4.596 
 H                    -1.967    -0.72     -5.453 
 H                     1.356    -1.759    -5.967 
 H                     1.452    -3.157    -4.902 
 H                     2.714    -0.522    -4.798 
 H                     3.487    -2.121    -4.529 
 H                     2.495    -1.303    -3.24 
 H                     0.867    -6.333    -0.084 
 H                     0.404    -5.642    -1.68 
 H                    -0.891    -5.999    -0.463 
 H                    -1.283    -3.581     4.028 
 H                     0.698    -4.478     7.755 
 H                     0.833    -2.619     7.68 
 H                     2.       -3.754     6.976 
 Mg                    13.1321   1.18897   1.00379 
 C                     15.30118   2.11396   3.70908 
 C                     11.07125  -0.21235   3.3327 
 C                     11.43063  -0.03058  -1.38056 
 C                     15.8461   1.62648  -1.1383 
 N                     13.27577   1.0354    3.20561 
 C                     14.1147   1.47799   4.13009 
 C                     13.61792   1.29618   5.58945 
 C                     12.60262   0.07572   5.34756 
 C                     12.26208   0.32821   3.88026 
 C                     13.26412  -1.28805   5.45653 
 C                     12.87118   2.56622   6.12925 
 C                     12.63153   2.57745   7.6406 
 H                     12.69916   3.85397   8.34659 
 N                     11.27669   0.48514   0.97881 
 C                     10.58582  -0.025     2.01984 
 C                     9.27669  -0.42139   1.47835 
 C                     9.31087  -0.25543  -0.00016 
 C                     10.71145   0.05993  -0.19771 
 C                     8.12396  -0.82591   2.35071 
 C                     8.25999  -0.37497  -1.06203 
 O                     8.56268  -0.42237  -2.30661 
 C                     6.8735   -0.52886  -0.59787 
 N                     13.62106   0.64126  -0.94127 
 C                     12.68114   0.18659  -1.78847 
 C                     13.20768   0.11912  -3.20218 
 C                     14.62715   0.85499  -3.16753 
 C                     14.71975   1.1551   -1.65533 
 C                     13.37652  -1.28469  -3.78288 
 C                     14.83807   2.0247   -4.16751 
 C                     13.94248   3.1858   -3.79991 
 N                     15.15041   1.93877   1.18357 
 C                     16.12776   2.00962   0.16679 
 C                     17.37781   2.48196   0.79663 
 C                     17.04452   2.63232   2.15118 
 C                     15.68847   2.25937   2.35497 
 C                     18.62415   2.66796   0.13471 
 C                     17.53448   3.0116    3.45686 
 O                     18.58095   3.49697   3.88471 
 C                     16.46327   2.57221   4.54583 
 C                     16.24237   3.73404   5.47527 
 O                     15.72459   4.78585   5.06029 
 O                     16.47629   3.33757   6.73957 
 C                     16.2596   4.45251   7.69967 
 H                     10.47063  -0.87825   3.95294 
 H                     10.85832  -0.34116  -2.25776 
 H                     16.70985   1.88198  -1.75581 
 H                     14.38502   1.0069    6.29772 
 H                     11.71473   0.17185   5.96706 
 H                     14.33588  -1.20868   5.56225 
 H                     13.01172  -1.81122   4.54349 
 H                     12.81046  -1.86325   6.26873 
 H                     11.83264   2.54875   5.77446 
 H                     13.384    3.46223   5.83803 
 H                     13.23151   1.81948   8.15873 
 H                     11.5982   2.27703   7.83034 
 H                     8.44647  -1.01266   3.38246 
 H                     7.77938  -1.80218   1.99292 
 H                     7.29267  -0.11915   2.30479 
 H                     6.79829  -1.41532   0.02741 
 H                     6.25928  -0.50835  -1.50019 
 H                     6.62032   0.32701   0.03774 
 H                     12.55381   0.6488   -3.88408 
 H                     15.45019   0.16391  -3.40173 
 H                     12.81394  -1.4387   -4.72301 
 H                     13.06981  -2.00295  -3.03417 
 H                     14.40496  -1.58202  -3.98066 
 H                     14.54987   1.71754  -5.17585 
 H                     15.8652   2.37041  -4.21739 
 H                     12.98725   2.91602  -4.26017 
 H                     14.33094   4.11478  -4.21239 
 H                     13.78448   3.23325  -2.7162 
 H                     19.02969   3.60513   0.49213 
 H                     18.50324   2.6728   -0.94655 
 H                     19.16408   1.78357   0.48342 
 H                     16.86377   1.70166   5.0667 
 H                     17.18361   4.56218   8.27575 
 H                     15.34389   4.18909   8.26166 
 H                     16.145    5.44999   7.29181 
 
 ITRead=  0  0  0  0  0  0  0  0  0  0  0  0  0  0  0  0  0  0  0  0
 ITRead=  0  0  0  0  0  0  0  0  0  0  0  0  0  0  0  0  0  0  0  0
 ITRead=  0  0  0  0  0  0  0  0  0  0  0  0  0  0  0  0  0  0  0  0
 ITRead=  0  0  0  0  0  0  0  0  0  0  0  0  0  0  0  0  0  0  0  0
 ITRead=  0  0  0  0  0  0  0  0  0  0  0  0  0  0  0  0  0  0  0  0
 ITRead=  0  0  0  0  0  0  0  0  0  0  0  0  0  0  0  0  0  0  0  0
 ITRead=  0  0  0  0  0  0  0  0  0  0  0  0  0  0  0  0  0  0  0  0
 ITRead=  0  0  0  0  0  0  0  0  0  0  0  0  0  0  0  0  0  0
 MicOpt= -1 -1 -1 -1 -1 -1 -1 -1 -1 -1 -1 -1 -1 -1 -1 -1 -1 -1 -1 -1
 MicOpt= -1 -1 -1 -1 -1 -1 -1 -1 -1 -1 -1 -1 -1 -1 -1 -1 -1 -1 -1 -1
 MicOpt= -1 -1 -1 -1 -1 -1 -1 -1 -1 -1 -1 -1 -1 -1 -1 -1 -1 -1 -1 -1
 MicOpt= -1 -1 -1 -1 -1 -1 -1 -1 -1 -1 -1 -1 -1 -1 -1 -1 -1 -1 -1 -1
 MicOpt= -1 -1 -1 -1 -1 -1 -1 -1 -1 -1 -1 -1 -1 -1 -1 -1 -1 -1 -1 -1
 MicOpt= -1 -1 -1 -1 -1 -1 -1 -1 -1 -1 -1 -1 -1 -1 -1 -1 -1 -1 -1 -1
 MicOpt= -1 -1 -1 -1 -1 -1 -1 -1 -1 -1 -1 -1 -1 -1 -1 -1 -1 -1 -1 -1
 MicOpt= -1 -1 -1 -1 -1 -1 -1 -1 -1 -1 -1 -1 -1 -1 -1 -1 -1 -1
 NAtoms=    158 NQM=      158 NQMF=       0 NMMI=      0 NMMIF=      0
                NMic=       0 NMicF=      0.
                    Isotopes and Nuclear Properties:
 (Nuclear quadrupole moments (NQMom) in fm**2, nuclear magnetic moments (NMagM)
  in nuclear magnetons)

  Atom         1           2           3           4           5           6           7           8           9          10
 IAtWgt=          24          12          12          12          12          14          12          12          12          12
 AtmWgt=  23.9850450  12.0000000  12.0000000  12.0000000  12.0000000  14.0030740  12.0000000  12.0000000  12.0000000  12.0000000
 NucSpn=           0           0           0           0           0           2           0           0           0           0
 AtZEff=  -0.0000000  -0.0000000  -0.0000000  -0.0000000  -0.0000000  -0.0000000  -0.0000000  -0.0000000  -0.0000000  -0.0000000
 NQMom=    0.0000000   0.0000000   0.0000000   0.0000000   0.0000000   2.0440000   0.0000000   0.0000000   0.0000000   0.0000000
 NMagM=    0.0000000   0.0000000   0.0000000   0.0000000   0.0000000   0.4037610   0.0000000   0.0000000   0.0000000   0.0000000
 AtZNuc=  12.0000000   6.0000000   6.0000000   6.0000000   6.0000000   7.0000000   6.0000000   6.0000000   6.0000000   6.0000000

  Atom        11          12          13          14          15          16          17          18          19          20
 IAtWgt=          12          12          12           1          14          12          12          12          12          12
 AtmWgt=  12.0000000  12.0000000  12.0000000   1.0078250  14.0030740  12.0000000  12.0000000  12.0000000  12.0000000  12.0000000
 NucSpn=           0           0           0           1           2           0           0           0           0           0
 AtZEff=  -0.0000000  -0.0000000  -0.0000000  -0.0000000  -0.0000000  -0.0000000  -0.0000000  -0.0000000  -0.0000000  -0.0000000
 NQMom=    0.0000000   0.0000000   0.0000000   0.0000000   2.0440000   0.0000000   0.0000000   0.0000000   0.0000000   0.0000000
 NMagM=    0.0000000   0.0000000   0.0000000   2.7928460   0.4037610   0.0000000   0.0000000   0.0000000   0.0000000   0.0000000
 AtZNuc=   6.0000000   6.0000000   6.0000000   1.0000000   7.0000000   6.0000000   6.0000000   6.0000000   6.0000000   6.0000000

  Atom        21          22          23          24          25          26          27          28          29          30
 IAtWgt=          12          16          12          14          12          12          12          12          12          12
 AtmWgt=  12.0000000  15.9949146  12.0000000  14.0030740  12.0000000  12.0000000  12.0000000  12.0000000  12.0000000  12.0000000
 NucSpn=           0           0           0           2           0           0           0           0           0           0
 AtZEff=  -0.0000000  -0.0000000  -0.0000000  -0.0000000  -0.0000000  -0.0000000  -0.0000000  -0.0000000  -0.0000000  -0.0000000
 NQMom=    0.0000000   0.0000000   0.0000000   2.0440000   0.0000000   0.0000000   0.0000000   0.0000000   0.0000000   0.0000000
 NMagM=    0.0000000   0.0000000   0.0000000   0.4037610   0.0000000   0.0000000   0.0000000   0.0000000   0.0000000   0.0000000
 AtZNuc=   6.0000000   8.0000000   6.0000000   7.0000000   6.0000000   6.0000000   6.0000000   6.0000000   6.0000000   6.0000000

  Atom        31          32          33          34          35          36          37          38          39          40
 IAtWgt=          12          14          12          12          12          12          12          12          16          12
 AtmWgt=  12.0000000  14.0030740  12.0000000  12.0000000  12.0000000  12.0000000  12.0000000  12.0000000  15.9949146  12.0000000
 NucSpn=           0           2           0           0           0           0           0           0           0           0
 AtZEff=  -0.0000000  -0.0000000  -0.0000000  -0.0000000  -0.0000000  -0.0000000  -0.0000000  -0.0000000  -0.0000000  -0.0000000
 NQMom=    0.0000000   2.0440000   0.0000000   0.0000000   0.0000000   0.0000000   0.0000000   0.0000000   0.0000000   0.0000000
 NMagM=    0.0000000   0.4037610   0.0000000   0.0000000   0.0000000   0.0000000   0.0000000   0.0000000   0.0000000   0.0000000
 AtZNuc=   6.0000000   7.0000000   6.0000000   6.0000000   6.0000000   6.0000000   6.0000000   6.0000000   8.0000000   6.0000000

  Atom        41          42          43          44          45          46          47          48          49          50
 IAtWgt=          12          16          16          12           1           1           1           1           1           1
 AtmWgt=  12.0000000  15.9949146  15.9949146  12.0000000   1.0078250   1.0078250   1.0078250   1.0078250   1.0078250   1.0078250
 NucSpn=           0           0           0           0           1           1           1           1           1           1
 AtZEff=  -0.0000000  -0.0000000  -0.0000000  -0.0000000  -0.0000000  -0.0000000  -0.0000000  -0.0000000  -0.0000000  -0.0000000
 NQMom=    0.0000000   0.0000000   0.0000000   0.0000000   0.0000000   0.0000000   0.0000000   0.0000000   0.0000000   0.0000000
 NMagM=    0.0000000   0.0000000   0.0000000   0.0000000   2.7928460   2.7928460   2.7928460   2.7928460   2.7928460   2.7928460
 AtZNuc=   6.0000000   8.0000000   8.0000000   6.0000000   1.0000000   1.0000000   1.0000000   1.0000000   1.0000000   1.0000000

  Atom        51          52          53          54          55          56          57          58          59          60
 IAtWgt=           1           1           1           1           1           1           1           1           1           1
 AtmWgt=   1.0078250   1.0078250   1.0078250   1.0078250   1.0078250   1.0078250   1.0078250   1.0078250   1.0078250   1.0078250
 NucSpn=           1           1           1           1           1           1           1           1           1           1
 AtZEff=  -0.0000000  -0.0000000  -0.0000000  -0.0000000  -0.0000000  -0.0000000  -0.0000000  -0.0000000  -0.0000000  -0.0000000
 NQMom=    0.0000000   0.0000000   0.0000000   0.0000000   0.0000000   0.0000000   0.0000000   0.0000000   0.0000000   0.0000000
 NMagM=    2.7928460   2.7928460   2.7928460   2.7928460   2.7928460   2.7928460   2.7928460   2.7928460   2.7928460   2.7928460
 AtZNuc=   1.0000000   1.0000000   1.0000000   1.0000000   1.0000000   1.0000000   1.0000000   1.0000000   1.0000000   1.0000000

  Atom        61          62          63          64          65          66          67          68          69          70
 IAtWgt=           1           1           1           1           1           1           1           1           1           1
 AtmWgt=   1.0078250   1.0078250   1.0078250   1.0078250   1.0078250   1.0078250   1.0078250   1.0078250   1.0078250   1.0078250
 NucSpn=           1           1           1           1           1           1           1           1           1           1
 AtZEff=  -0.0000000  -0.0000000  -0.0000000  -0.0000000  -0.0000000  -0.0000000  -0.0000000  -0.0000000  -0.0000000  -0.0000000
 NQMom=    0.0000000   0.0000000   0.0000000   0.0000000   0.0000000   0.0000000   0.0000000   0.0000000   0.0000000   0.0000000
 NMagM=    2.7928460   2.7928460   2.7928460   2.7928460   2.7928460   2.7928460   2.7928460   2.7928460   2.7928460   2.7928460
 AtZNuc=   1.0000000   1.0000000   1.0000000   1.0000000   1.0000000   1.0000000   1.0000000   1.0000000   1.0000000   1.0000000

  Atom        71          72          73          74          75          76          77          78          79          80
 IAtWgt=           1           1           1           1           1           1           1           1           1          24
 AtmWgt=   1.0078250   1.0078250   1.0078250   1.0078250   1.0078250   1.0078250   1.0078250   1.0078250   1.0078250  23.9850450
 NucSpn=           1           1           1           1           1           1           1           1           1           0
 AtZEff=  -0.0000000  -0.0000000  -0.0000000  -0.0000000  -0.0000000  -0.0000000  -0.0000000  -0.0000000  -0.0000000  -0.0000000
 NQMom=    0.0000000   0.0000000   0.0000000   0.0000000   0.0000000   0.0000000   0.0000000   0.0000000   0.0000000   0.0000000
 NMagM=    2.7928460   2.7928460   2.7928460   2.7928460   2.7928460   2.7928460   2.7928460   2.7928460   2.7928460   0.0000000
 AtZNuc=   1.0000000   1.0000000   1.0000000   1.0000000   1.0000000   1.0000000   1.0000000   1.0000000   1.0000000  12.0000000

  Atom        81          82          83          84          85          86          87          88          89          90
 IAtWgt=          12          12          12          12          14          12          12          12          12          12
 AtmWgt=  12.0000000  12.0000000  12.0000000  12.0000000  14.0030740  12.0000000  12.0000000  12.0000000  12.0000000  12.0000000
 NucSpn=           0           0           0           0           2           0           0           0           0           0
 AtZEff=  -0.0000000  -0.0000000  -0.0000000  -0.0000000  -0.0000000  -0.0000000  -0.0000000  -0.0000000  -0.0000000  -0.0000000
 NQMom=    0.0000000   0.0000000   0.0000000   0.0000000   2.0440000   0.0000000   0.0000000   0.0000000   0.0000000   0.0000000
 NMagM=    0.0000000   0.0000000   0.0000000   0.0000000   0.4037610   0.0000000   0.0000000   0.0000000   0.0000000   0.0000000
 AtZNuc=   6.0000000   6.0000000   6.0000000   6.0000000   7.0000000   6.0000000   6.0000000   6.0000000   6.0000000   6.0000000

  Atom        91          92          93          94          95          96          97          98          99         100
 IAtWgt=          12          12           1          14          12          12          12          12          12          12
 AtmWgt=  12.0000000  12.0000000   1.0078250  14.0030740  12.0000000  12.0000000  12.0000000  12.0000000  12.0000000  12.0000000
 NucSpn=           0           0           1           2           0           0           0           0           0           0
 AtZEff=  -0.0000000  -0.0000000  -0.0000000  -0.0000000  -0.0000000  -0.0000000  -0.0000000  -0.0000000  -0.0000000  -0.0000000
 NQMom=    0.0000000   0.0000000   0.0000000   2.0440000   0.0000000   0.0000000   0.0000000   0.0000000   0.0000000   0.0000000
 NMagM=    0.0000000   0.0000000   2.7928460   0.4037610   0.0000000   0.0000000   0.0000000   0.0000000   0.0000000   0.0000000
 AtZNuc=   6.0000000   6.0000000   1.0000000   7.0000000   6.0000000   6.0000000   6.0000000   6.0000000   6.0000000   6.0000000

  Atom       101         102         103         104         105         106         107         108         109         110
 IAtWgt=          16          12          14          12          12          12          12          12          12          12
 AtmWgt=  15.9949146  12.0000000  14.0030740  12.0000000  12.0000000  12.0000000  12.0000000  12.0000000  12.0000000  12.0000000
 NucSpn=           0           0           2           0           0           0           0           0           0           0
 AtZEff=  -0.0000000  -0.0000000  -0.0000000  -0.0000000  -0.0000000  -0.0000000  -0.0000000  -0.0000000  -0.0000000  -0.0000000
 NQMom=    0.0000000   0.0000000   2.0440000   0.0000000   0.0000000   0.0000000   0.0000000   0.0000000   0.0000000   0.0000000
 NMagM=    0.0000000   0.0000000   0.4037610   0.0000000   0.0000000   0.0000000   0.0000000   0.0000000   0.0000000   0.0000000
 AtZNuc=   8.0000000   6.0000000   7.0000000   6.0000000   6.0000000   6.0000000   6.0000000   6.0000000   6.0000000   6.0000000

  Atom       111         112         113         114         115         116         117         118         119         120
 IAtWgt=          14          12          12          12          12          12          12          16          12          12
 AtmWgt=  14.0030740  12.0000000  12.0000000  12.0000000  12.0000000  12.0000000  12.0000000  15.9949146  12.0000000  12.0000000
 NucSpn=           2           0           0           0           0           0           0           0           0           0
 AtZEff=  -0.0000000  -0.0000000  -0.0000000  -0.0000000  -0.0000000  -0.0000000  -0.0000000  -0.0000000  -0.0000000  -0.0000000
 NQMom=    2.0440000   0.0000000   0.0000000   0.0000000   0.0000000   0.0000000   0.0000000   0.0000000   0.0000000   0.0000000
 NMagM=    0.4037610   0.0000000   0.0000000   0.0000000   0.0000000   0.0000000   0.0000000   0.0000000   0.0000000   0.0000000
 AtZNuc=   7.0000000   6.0000000   6.0000000   6.0000000   6.0000000   6.0000000   6.0000000   8.0000000   6.0000000   6.0000000

  Atom       121         122         123         124         125         126         127         128         129         130
 IAtWgt=          16          16          12           1           1           1           1           1           1           1
 AtmWgt=  15.9949146  15.9949146  12.0000000   1.0078250   1.0078250   1.0078250   1.0078250   1.0078250   1.0078250   1.0078250
 NucSpn=           0           0           0           1           1           1           1           1           1           1
 AtZEff=  -0.0000000  -0.0000000  -0.0000000  -0.0000000  -0.0000000  -0.0000000  -0.0000000  -0.0000000  -0.0000000  -0.0000000
 NQMom=    0.0000000   0.0000000   0.0000000   0.0000000   0.0000000   0.0000000   0.0000000   0.0000000   0.0000000   0.0000000
 NMagM=    0.0000000   0.0000000   0.0000000   2.7928460   2.7928460   2.7928460   2.7928460   2.7928460   2.7928460   2.7928460
 AtZNuc=   8.0000000   8.0000000   6.0000000   1.0000000   1.0000000   1.0000000   1.0000000   1.0000000   1.0000000   1.0000000

  Atom       131         132         133         134         135         136         137         138         139         140
 IAtWgt=           1           1           1           1           1           1           1           1           1           1
 AtmWgt=   1.0078250   1.0078250   1.0078250   1.0078250   1.0078250   1.0078250   1.0078250   1.0078250   1.0078250   1.0078250
 NucSpn=           1           1           1           1           1           1           1           1           1           1
 AtZEff=  -0.0000000  -0.0000000  -0.0000000  -0.0000000  -0.0000000  -0.0000000  -0.0000000  -0.0000000  -0.0000000  -0.0000000
 NQMom=    0.0000000   0.0000000   0.0000000   0.0000000   0.0000000   0.0000000   0.0000000   0.0000000   0.0000000   0.0000000
 NMagM=    2.7928460   2.7928460   2.7928460   2.7928460   2.7928460   2.7928460   2.7928460   2.7928460   2.7928460   2.7928460
 AtZNuc=   1.0000000   1.0000000   1.0000000   1.0000000   1.0000000   1.0000000   1.0000000   1.0000000   1.0000000   1.0000000

  Atom       141         142         143         144         145         146         147         148         149         150
 IAtWgt=           1           1           1           1           1           1           1           1           1           1
 AtmWgt=   1.0078250   1.0078250   1.0078250   1.0078250   1.0078250   1.0078250   1.0078250   1.0078250   1.0078250   1.0078250
 NucSpn=           1           1           1           1           1           1           1           1           1           1
 AtZEff=  -0.0000000  -0.0000000  -0.0000000  -0.0000000  -0.0000000  -0.0000000  -0.0000000  -0.0000000  -0.0000000  -0.0000000
 NQMom=    0.0000000   0.0000000   0.0000000   0.0000000   0.0000000   0.0000000   0.0000000   0.0000000   0.0000000   0.0000000
 NMagM=    2.7928460   2.7928460   2.7928460   2.7928460   2.7928460   2.7928460   2.7928460   2.7928460   2.7928460   2.7928460
 AtZNuc=   1.0000000   1.0000000   1.0000000   1.0000000   1.0000000   1.0000000   1.0000000   1.0000000   1.0000000   1.0000000

  Atom       151         152         153         154         155         156         157         158
 IAtWgt=           1           1           1           1           1           1           1           1
 AtmWgt=   1.0078250   1.0078250   1.0078250   1.0078250   1.0078250   1.0078250   1.0078250   1.0078250
 NucSpn=           1           1           1           1           1           1           1           1
 AtZEff=  -0.0000000  -0.0000000  -0.0000000  -0.0000000  -0.0000000  -0.0000000  -0.0000000  -0.0000000
 NQMom=    0.0000000   0.0000000   0.0000000   0.0000000   0.0000000   0.0000000   0.0000000   0.0000000
 NMagM=    2.7928460   2.7928460   2.7928460   2.7928460   2.7928460   2.7928460   2.7928460   2.7928460
 AtZNuc=   1.0000000   1.0000000   1.0000000   1.0000000   1.0000000   1.0000000   1.0000000   1.0000000
 Leave Link  101 at Sat Sep 11 02:47:51 2021, MaxMem= 23488102400 cpu:               3.2 elap:               0.2
 (Enter /sw/apps/gaussian-16.0/g16/l202.exe)
 Stoichiometry    C68H72Mg2N8O8
 Framework group  C1[X(C68H72Mg2N8O8)]
 Deg. of freedom   468
 Full point group                 C1      NOp   1
 Largest Abelian subgroup         C1      NOp   1
 Largest concise Abelian subgroup C1      NOp   1
                         Standard orientation:                         
 ---------------------------------------------------------------------
 Center     Atomic      Atomic             Coordinates (Angstroms)
 Number     Number       Type             X           Y           Z
 ---------------------------------------------------------------------
      1         12           0        6.787422   -0.532508    0.522247
      2          6           0        7.053823    2.494806   -1.368948
      3          6           0        7.440393    1.325936    3.308442
      4          6           0        7.007216   -3.246259    2.148244
      5          6           0        7.284087   -2.265575   -2.460279
      6          7           0        7.178028    1.628002    0.805571
      7          6           0        7.192916    2.690584    0.006904
      8          6           0        7.294692    4.041033    0.777167
      9          6           0        7.970683    3.513771    2.121424
     10          6           0        7.472217    2.079585    2.097644
     11          6           0        9.495203    3.504761    2.073875
     12          6           0        5.890017    4.675522    1.052924
     13          6           0        5.911291    6.138516    1.505195
     14          1           0        4.844131    7.023633    1.063507
     15          7           0        6.684795   -0.873684    2.465419
     16          6           0        6.970672    0.003089    3.457804
     17          6           0        6.741317   -0.725512    4.723986
     18          6           0        6.482174   -2.152900    4.387085
     19          6           0        6.743624   -2.153236    2.970391
     20          6           0        6.732725   -0.060393    6.066108
     21          6           0        6.075273   -3.332087    5.212967
     22          8           0        6.130556   -4.528118    4.764605
     23          6           0        5.689184   -3.054980    6.608385
     24          7           0        7.318410   -2.476091   -0.023804
     25          6           0        7.274723   -3.477861    0.861369
     26          6           0        7.419060   -4.809592    0.186389
     27          6           0        7.327186   -4.522671   -1.381727
     28          6           0        7.221811   -2.978384   -1.333296
     29          6           0        8.713337   -5.576914    0.489827
     30          6           0        6.257579   -5.310297   -2.179226
     31          6           0        4.874188   -4.868665   -1.756982
     32          7           0        6.937019   -0.019430   -1.581420
     33          6           0        7.167434   -0.898643   -2.649394
     34          6           0        7.295909   -0.075927   -3.866234
     35          6           0        7.146845    1.234433   -3.416142
     36          6           0        6.964652    1.232224   -2.003665
     37          6           0        7.578929   -0.560443   -5.173742
     38          6           0        7.123696    2.637527   -3.796470
     39          8           0        7.133041    3.245906   -4.867582
     40          6           0        7.184321    3.517176   -2.470435
     41          6           0        6.119969    4.574986   -2.577677
     42          8           0        4.910253    4.268625   -2.567852
     43          8           0        6.680680    5.785785   -2.435856
     44          6           0        5.674681    6.879244   -2.502712
     45          1           0        7.866934    1.762862    4.213483
     46          1           0        6.981414   -4.213628    2.654178
     47          1           0        7.355550   -2.742275   -3.439617
     48          1           0        7.935679    4.786090    0.305519
     49          1           0        7.588573    4.033230    2.999990
     50          1           0        9.864068    3.740801    1.075804
     51          1           0        9.789343    2.494591    2.359409
     52          1           0        9.910427    4.164505    2.836177
     53          1           0        5.454732    4.213692    1.939096
     54          1           0        5.244241    4.577495    0.179603
     55          1           0        6.884988    6.596264    1.328305
     56          1           0        5.793317    6.162842    2.588565
     57          1           0        7.117078    0.957350    6.011184
     58          1           0        7.453856   -0.589864    6.688475
     59          1           0        5.748812   -0.093522    6.534242
     60          1           0        6.523427   -2.579961    7.125052
     61          1           0        5.343776   -4.003200    7.018779
     62          1           0        4.873977   -2.330844    6.612031
     63          1           0        6.612930   -5.483243    0.474094
     64          1           0        8.262069   -4.749946   -1.894577
     65          1           0        8.545866   -6.572507    0.901473
     66          1           0        9.314204   -4.969958    1.166477
     67          1           0        9.388199   -5.688383   -0.358438
     68          1           0        6.333389   -6.375838   -1.965170
     69          1           0        6.344075   -5.181804   -3.258234
     70          1           0        4.689876   -5.465679   -0.864550
     71          1           0        4.147204   -5.097649   -2.536899
     72          1           0        4.865418   -3.820984   -1.455694
     73          1           0        6.912651   -0.023535   -5.848852
     74          1           0        7.425120   -1.637339   -5.238870
     75          1           0        8.628276   -0.281965   -5.269535
     76          1           0        8.184768    3.946253   -2.424372
     77          1           0        5.993972    7.561413   -3.290705
     78          1           0        5.584543    7.279556   -1.492747
     79          1           0        4.683035    6.600672   -2.861005
     80         12           0       -6.404998   -0.800439   -0.350429
     81          6           0       -8.954997    1.594302    0.450710
     82          6           0       -4.402918    1.832802   -1.182501
     83          6           0       -4.302358   -2.886692   -1.487919
     84          6           0       -8.920722   -3.203610   -0.554541
     85          7           0       -6.747709    1.384550   -0.325785
     86          6           0       -7.734495    2.181120    0.056423
     87          6           0       -7.367502    3.689016    0.090221
     88          6           0       -6.158103    3.665888   -0.966040
     89          6           0       -5.712070    2.215181   -0.795191
     90          6           0       -6.610813    3.860253   -2.403609
     91          6           0       -6.882961    4.154616    1.508122
     92          6           0       -6.803553    5.671413    1.694558
     93          1           0       -7.137456    6.230454    3.001647
     94          7           0       -4.471029   -0.590374   -0.743094
     95          6           0       -3.820283    0.554500   -1.038190
     96          6           0       -2.417526    0.173187   -1.264088
     97          6           0       -2.325433   -1.311955   -1.240100
     98          6           0       -3.730167   -1.662158   -1.175414
     99          6           0       -1.311726    1.179830   -1.395666
    100          6           0       -1.165698   -2.260316   -1.282885
    101          8           0       -1.328796   -3.514483   -1.491000
    102          6           0        0.173241   -1.664226   -1.167119
    103          7           0       -6.603070   -2.711956   -1.143648
    104          6           0       -5.523066   -3.421951   -1.514354
    105          6           0       -5.885841   -4.860935   -1.793800
    106          6           0       -7.397200   -5.027050   -1.298018
    107          6           0       -7.688652   -3.568616   -0.881584
    108          6           0       -5.777701   -5.302921   -3.253032
    109          6           0       -7.681286   -6.159193   -0.273218
    110          6           0       -7.016174   -5.839817    1.046248
    111          7           0       -8.521936   -0.876099    0.074944
    112          6           0       -9.389546   -1.975470   -0.105916
    113          6           0      -10.754879   -1.509520    0.212180
    114          6           0      -10.588692   -0.154609    0.536362
    115          6           0       -9.219556    0.203989    0.408424
    116          6           0      -11.940764   -2.292770    0.132853
    117          6           0      -11.261731    1.056486    0.947436
    118          8           0      -12.408312    1.338589    1.293137
    119          6           0      -10.252859    2.274330    0.787926
    120          6           0      -10.308443    3.091801    2.049337
    121          8           0       -9.918007    2.614710    3.129408
    122          8           0      -10.606906    4.365807    1.735986
    123          6           0      -10.662588    5.218227    2.953408
    124          1           0       -3.774055    2.569413   -1.683300
    125          1           0       -3.602668   -3.673419   -1.779422
    126          1           0       -9.745718   -3.917060   -0.499464
    127          1           0       -8.149626    4.354727   -0.254571
    128          1           0       -5.363377    4.346352   -0.671509
    129          1           0       -7.687224    3.863822   -2.490040
    130          1           0       -6.189387    3.032720   -2.959167
    131          1           0       -6.159892    4.764750   -2.821803
    132          1           0       -5.823221    3.894906    1.627489
    133          1           0       -7.494346    3.727308    2.278994
    134          1           0       -7.330279    6.212613    0.899187
    135          1           0       -5.761289    5.980507    1.584235
    136          1           0       -1.705588    2.193691   -1.538331
    137          1           0       -0.787114    0.958081   -2.331327
    138          1           0       -0.598055    1.131852   -0.570419
    139          1           0        0.318888   -0.944877   -1.969469
    140          1           0        0.866041   -2.507093   -1.128760
    141          1           0        0.226217   -1.102809   -0.227641
    142          1           0       -5.254485   -5.535656   -1.228790
    143          1           0       -8.076536   -5.257513   -2.131819
    144          1           0       -5.105097   -6.169328   -3.397953
    145          1           0       -5.442849   -4.458971   -3.841384
    146          1           0       -6.722891   -5.556575   -3.729988
    147          1           0       -7.247980   -7.100795   -0.619322
    148          1           0       -8.738676   -6.333968   -0.104754
    149          1           0       -5.988946   -6.184642    0.894647
    150          1           0       -7.497974   -6.379959    1.858751
    151          1           0       -6.978866   -4.757551    1.216397
    152          1           0      -12.519276   -2.072546    1.020166
    153          1           0      -11.712172   -3.353968    0.059578
    154          1           0      -12.371813   -1.900887   -0.792292
    155          1           0      -10.566566    2.847379   -0.085438
    156          1           0      -11.646470    5.697362    2.963213
    157          1           0       -9.779634    5.882009    2.893969
    158          1           0      -10.660866    4.719004    3.915293
 ---------------------------------------------------------------------
 Rotational constants (GHZ):           0.0256983           0.0073443           0.0067152
 Leave Link  202 at Sat Sep 11 02:47:51 2021, MaxMem= 23488102400 cpu:               0.2 elap:               0.0
 (Enter /sw/apps/gaussian-16.0/g16/l301.exe)
 Standard basis: def2SVP (5D, 7F)
 Ernie: Thresh=  0.10000D-02 Tol=  0.10000D-05 Strict=F.
 There are  1658 symmetry adapted cartesian basis functions of A   symmetry.
 There are  1572 symmetry adapted basis functions of A   symmetry.
  1572 basis functions,  2678 primitive gaussians,  1658 cartesian basis functions
   312 alpha electrons      312 beta electrons
       nuclear repulsion energy     14339.0720086163 Hartrees.
 IExCor=20419 DFT=T Ex+Corr=CAM-B3LYP ExCW=0 ScaHFX=  1.000000
 ScaDFX=  1.000000  1.000000  1.000000  0.810000 ScalE2=  1.000000  1.000000
 IRadAn=      5 IRanWt=     -1 IRanGd=            0 ICorTp=0 IEmpDi=  4
 HFx  wShort=  0.000000 wLong=  0.330000 cFull=  0.190000 cShort=  0.000000 cLong=  0.460000
 DFx  wShort=  0.000000 wLong=  0.330000 cFull=  0.190000 cShort=  0.000000 cLong=  0.460000
 NAtoms=  158 NActive=  158 NUniq=  158 SFac= 1.00D+00 NAtFMM=   60 NAOKFM=T Big=T
 Integral buffers will be    131072 words long.
 Raffenetti 1 integral format.
 Two-electron integral symmetry is turned on.
 Leave Link  301 at Sat Sep 11 02:47:51 2021, MaxMem= 23488102400 cpu:               1.4 elap:               0.1
 (Enter /sw/apps/gaussian-16.0/g16/l302.exe)
 NPDir=0 NMtPBC=     1 NCelOv=     1 NCel=       1 NClECP=     1 NCelD=      1
         NCelK=      1 NCelE2=     1 NClLst=     1 CellRange=     0.0.
 One-electron integrals computed using PRISM.
 One-electron integral symmetry used in STVInt
   1 Symmetry operations used in ECPInt.
 ECPInt:  NShTT=  271216 NPrTT=  987664 LenC2=  122852 LenP2D=  268805.
 LDataN:  DoStor=T MaxTD1= 4 Len=   56
 NBasis=  1572 RedAO= T EigKep=  3.36D-04  NBF=  1572
 NBsUse=  1572 1.00D-06 EigRej= -1.00D+00 NBFU=  1572
 Precomputing XC quadrature grid using
 IXCGrd= 4 IRadAn=           5 IRanWt=          -1 IRanGd=           0 AccXCQ= 0.00D+00.
 Generated NRdTot=       0 NPtTot=           0 NUsed=           0 NTot=          32
 NSgBfM=  1449  1449  1449  1449  1449 MxSgAt=   158 MxSgA2=   158.
 Leave Link  302 at Sat Sep 11 02:47:56 2021, MaxMem= 23488102400 cpu:             126.7 elap:               5.3
 (Enter /sw/apps/gaussian-16.0/g16/l303.exe)
 DipDrv:  MaxL=1.
 Leave Link  303 at Sat Sep 11 02:47:57 2021, MaxMem= 23488102400 cpu:               9.6 elap:               0.4
 (Enter /sw/apps/gaussian-16.0/g16/l308.exe)
 Leave Link  308 at Sat Sep 11 02:47:57 2021, MaxMem= 23488102400 cpu:              13.7 elap:               0.7
 (Enter /sw/apps/gaussian-16.0/g16/l401.exe)
 ExpMin= 3.36D-02 ExpMax= 4.95D+03 ExpMxC= 7.45D+02 IAcc=3 IRadAn=         5 AccDes= 0.00D+00
 Harris functional with IExCor=20419 and IRadAn=       5 diagonalized for initial guess.
 HarFok:  IExCor=20419 AccDes= 0.00D+00 IRadAn=         5 IDoV= 1 UseB2=F ITyADJ=14
 ICtDFT=  3500011 ScaDFX=  1.000000  1.000000  1.000000  1.000000
 FoFCou: FMM=F IPFlag=           0 FMFlag=      100000 FMFlg1=        2001
         NFxFlg=           0 DoJE=T BraDBF=F KetDBF=T FulRan=T
         wScrn=  0.000000 ICntrl=       500 IOpCl=  0 I1Cent=   200000004 NGrid=           0
         NMat0=    1 NMatS0=      1 NMatT0=    0 NMatD0=    1 NMtDS0=    0 NMtDT0=    0
 Petite list used in FoFCou.
 Harris En= -3918.65802952553    
 JPrj=0 DoOrth=F DoCkMO=F.
 Leave Link  401 at Sat Sep 11 02:48:04 2021, MaxMem= 23488102400 cpu:             168.1 elap:               7.0
 (Enter /sw/apps/gaussian-16.0/g16/l502.exe)
 Integral symmetry usage will be decided dynamically.
 Closed shell SCF:
 Using DIIS extrapolation, IDIIS=  1040.
 NGot= 23488102400 LenX= 23482547354 LenY= 23479796732
 Requested convergence on RMS density matrix=1.00D-08 within 128 cycles.
 Requested convergence on MAX density matrix=1.00D-06.
 Requested convergence on             energy=1.00D-06.
 No special actions if energy rises.
 Fock matrices will be formed incrementally for  20 cycles.

 Cycle   1  Pass 1  IDiag  1:
 FoFJK:  IHMeth= 1 ICntrl=       0 DoSepK=T KAlg= 0 I1Cent=           0 FoldK=F
 IRaf=         1 NMat=       1 IRICut=       1 DoRegI=T DoRafI=F ISym2E= 0 IDoP0=0 IntGTp=1.
 FoFCou: FMM=T IPFlag=           0 FMFlag=      100000 FMFlg1=        2001
         NFxFlg=           0 DoJE=T BraDBF=F KetDBF=F FulRan=T
         wScrn=  0.000000 ICntrl=       500 IOpCl=  0 I1Cent=           0 NGrid=           0
         NMat0=    1 NMatS0=      1 NMatT0=    0 NMatD0=    1 NMtDS0=    0 NMtDT0=    0
 Symmetry not used in FoFCou.
 FMM levels:  10  Number of levels for PrismC:   9
 E= -4068.94985300045    
 DIIS: error= 2.04D-02 at cycle   1 NSaved=   1.
 NSaved= 1 IEnMin= 1 EnMin= -4068.94985300045     IErMin= 1 ErrMin= 2.04D-02
 ErrMax= 2.04D-02  0.00D+00 EMaxC= 1.00D-01 BMatC= 1.69D+00 BMatP= 1.69D+00
 IDIUse=3 WtCom= 7.96D-01 WtEn= 2.04D-01
 Coeff-Com:  0.100D+01
 Coeff-En:   0.100D+01
 Coeff:      0.100D+01
 Gap=     0.120 Goal=   None    Shift=    0.000
 GapD=    0.120 DampG=1.000 DampE=0.500 DampFc=0.5000 IDamp=-1.
 Damping current iteration by 5.00D-01
 RMSDP=1.57D-03 MaxDP=1.35D-01              OVMax= 2.02D-01

 Cycle   2  Pass 1  IDiag  1:
 RMSU=  7.70D-04    CP:  9.82D-01
 E= -4069.33868845668     Delta-E=       -0.388835456237 Rises=F Damp=T
 DIIS: error= 1.27D-02 at cycle   2 NSaved=   2.
 NSaved= 2 IEnMin= 2 EnMin= -4069.33868845668     IErMin= 2 ErrMin= 1.27D-02
 ErrMax= 1.27D-02  0.00D+00 EMaxC= 1.00D-01 BMatC= 3.06D-01 BMatP= 1.69D+00
 IDIUse=3 WtCom= 8.73D-01 WtEn= 1.27D-01
 Coeff-Com: -0.213D+00 0.121D+01
 Coeff-En:   0.000D+00 0.100D+01
 Coeff:     -0.186D+00 0.119D+01
 Gap=     0.134 Goal=   None    Shift=    0.000
 RMSDP=7.65D-04 MaxDP=9.42D-02 DE=-3.89D-01 OVMax= 1.89D-01

 Cycle   3  Pass 1  IDiag  1:
 RMSU=  7.33D-04    CP:  9.68D-01  1.24D+00
 E= -4069.62846781009     Delta-E=       -0.289779353410 Rises=F Damp=F
 DIIS: error= 1.56D-02 at cycle   3 NSaved=   3.
 NSaved= 3 IEnMin= 3 EnMin= -4069.62846781009     IErMin= 2 ErrMin= 1.27D-02
 ErrMax= 1.56D-02  0.00D+00 EMaxC= 1.00D-01 BMatC= 2.01D-01 BMatP= 3.06D-01
 IDIUse=3 WtCom= 8.44D-01 WtEn= 1.56D-01
 Coeff-Com: -0.267D+00 0.651D+00 0.616D+00
 Coeff-En:   0.000D+00 0.000D+00 0.100D+01
 Coeff:     -0.225D+00 0.550D+00 0.676D+00
 Gap=     0.121 Goal=   None    Shift=    0.000
 RMSDP=5.07D-04 MaxDP=4.88D-02 DE=-2.90D-01 OVMax= 1.44D-01

 Cycle   4  Pass 1  IDiag  1:
 RMSU=  2.65D-04    CP:  9.65D-01  1.54D+00  5.07D-01
 E= -4069.76591584760     Delta-E=       -0.137448037509 Rises=F Damp=F
 DIIS: error= 7.19D-03 at cycle   4 NSaved=   4.
 NSaved= 4 IEnMin= 4 EnMin= -4069.76591584760     IErMin= 4 ErrMin= 7.19D-03
 ErrMax= 7.19D-03  0.00D+00 EMaxC= 1.00D-01 BMatC= 4.99D-02 BMatP= 2.01D-01
 IDIUse=3 WtCom= 9.28D-01 WtEn= 7.19D-02
 Coeff-Com: -0.109D+00 0.226D+00 0.408D+00 0.475D+00
 Coeff-En:   0.000D+00 0.000D+00 0.219D+00 0.781D+00
 Coeff:     -0.101D+00 0.210D+00 0.395D+00 0.497D+00
 Gap=     0.120 Goal=   None    Shift=    0.000
 RMSDP=1.99D-04 MaxDP=2.06D-02 DE=-1.37D-01 OVMax= 6.28D-02

 Cycle   5  Pass 1  IDiag  1:
 RMSU=  7.52D-05    CP:  9.64D-01  1.49D+00  6.89D-01  5.51D-01
 E= -4069.81107022433     Delta-E=       -0.045154376727 Rises=F Damp=F
 DIIS: error= 7.77D-04 at cycle   5 NSaved=   5.
 NSaved= 5 IEnMin= 5 EnMin= -4069.81107022433     IErMin= 5 ErrMin= 7.77D-04
 ErrMax= 7.77D-04  0.00D+00 EMaxC= 1.00D-01 BMatC= 1.14D-03 BMatP= 4.99D-02
 IDIUse=3 WtCom= 9.92D-01 WtEn= 7.77D-03
 Coeff-Com: -0.357D-01 0.700D-01 0.164D+00 0.248D+00 0.553D+00
 Coeff-En:   0.000D+00 0.000D+00 0.000D+00 0.000D+00 0.100D+01
 Coeff:     -0.354D-01 0.694D-01 0.163D+00 0.246D+00 0.557D+00
 Gap=     0.120 Goal=   None    Shift=    0.000
 RMSDP=4.02D-05 MaxDP=4.18D-03 DE=-4.52D-02 OVMax= 1.66D-02

 Cycle   6  Pass 1  IDiag  1:
 RMSU=  2.99D-05    CP:  9.64D-01  1.49D+00  6.82D-01  6.22D-01  7.63D-01
 E= -4069.81205803844     Delta-E=       -0.000987814114 Rises=F Damp=F
 DIIS: error= 2.14D-04 at cycle   6 NSaved=   6.
 NSaved= 6 IEnMin= 6 EnMin= -4069.81205803844     IErMin= 6 ErrMin= 2.14D-04
 ErrMax= 2.14D-04  0.00D+00 EMaxC= 1.00D-01 BMatC= 1.72D-04 BMatP= 1.14D-03
 IDIUse=3 WtCom= 9.98D-01 WtEn= 2.14D-03
 Coeff-Com:  0.237D-02-0.690D-02 0.103D-01 0.389D-01 0.306D+00 0.649D+00
 Coeff-En:   0.000D+00 0.000D+00 0.000D+00 0.000D+00 0.102D+00 0.898D+00
 Coeff:      0.237D-02-0.688D-02 0.103D-01 0.388D-01 0.306D+00 0.650D+00
 Gap=     0.120 Goal=   None    Shift=    0.000
 RMSDP=1.57D-05 MaxDP=1.24D-03 DE=-9.88D-04 OVMax= 7.52D-03

 Cycle   7  Pass 1  IDiag  1:
 RMSU=  1.06D-05    CP:  9.64D-01  1.50D+00  6.87D-01  6.21D-01  8.63D-01
                    CP:  7.51D-01
 E= -4069.81224350498     Delta-E=       -0.000185466539 Rises=F Damp=F
 DIIS: error= 8.18D-05 at cycle   7 NSaved=   7.
 NSaved= 7 IEnMin= 7 EnMin= -4069.81224350498     IErMin= 7 ErrMin= 8.18D-05
 ErrMax= 8.18D-05  0.00D+00 EMaxC= 1.00D-01 BMatC= 2.01D-05 BMatP= 1.72D-04
 IDIUse=1 WtCom= 1.00D+00 WtEn= 0.00D+00
 Coeff-Com:  0.444D-02-0.969D-02-0.904D-02-0.407D-02 0.101D+00 0.328D+00
 Coeff-Com:  0.589D+00
 Coeff:      0.444D-02-0.969D-02-0.904D-02-0.407D-02 0.101D+00 0.328D+00
 Coeff:      0.589D+00
 Gap=     0.120 Goal=   None    Shift=    0.000
 RMSDP=6.35D-06 MaxDP=1.11D-03 DE=-1.85D-04 OVMax= 3.42D-03

 Cycle   8  Pass 1  IDiag  1:
 RMSU=  4.58D-06    CP:  9.64D-01  1.50D+00  6.88D-01  6.26D-01  8.68D-01
                    CP:  8.75D-01  8.25D-01
 E= -4069.81226819201     Delta-E=       -0.000024687026 Rises=F Damp=F
 DIIS: error= 5.15D-05 at cycle   8 NSaved=   8.
 NSaved= 8 IEnMin= 8 EnMin= -4069.81226819201     IErMin= 8 ErrMin= 5.15D-05
 ErrMax= 5.15D-05  0.00D+00 EMaxC= 1.00D-01 BMatC= 4.64D-06 BMatP= 2.01D-05
 IDIUse=1 WtCom= 1.00D+00 WtEn= 0.00D+00
 Coeff-Com:  0.213D-02-0.422D-02-0.769D-02-0.121D-01-0.122D-01 0.340D-01
 Coeff-Com:  0.344D+00 0.656D+00
 Coeff:      0.213D-02-0.422D-02-0.769D-02-0.121D-01-0.122D-01 0.340D-01
 Coeff:      0.344D+00 0.656D+00
 Gap=     0.120 Goal=   None    Shift=    0.000
 RMSDP=3.23D-06 MaxDP=3.79D-04 DE=-2.47D-05 OVMax= 1.23D-03

 Cycle   9  Pass 1  IDiag  1:
 RMSU=  1.87D-06    CP:  9.64D-01  1.50D+00  6.88D-01  6.27D-01  8.85D-01
                    CP:  9.01D-01  1.02D+00  9.33D-01
 E= -4069.81227551695     Delta-E=       -0.000007324939 Rises=F Damp=F
 DIIS: error= 1.93D-05 at cycle   9 NSaved=   9.
 NSaved= 9 IEnMin= 9 EnMin= -4069.81227551695     IErMin= 9 ErrMin= 1.93D-05
 ErrMax= 1.93D-05  0.00D+00 EMaxC= 1.00D-01 BMatC= 6.62D-07 BMatP= 4.64D-06
 IDIUse=1 WtCom= 1.00D+00 WtEn= 0.00D+00
 Coeff-Com:  0.468D-03-0.780D-03-0.265D-02-0.592D-02-0.213D-01-0.369D-01
 Coeff-Com:  0.105D+00 0.329D+00 0.633D+00
 Coeff:      0.468D-03-0.780D-03-0.265D-02-0.592D-02-0.213D-01-0.369D-01
 Coeff:      0.105D+00 0.329D+00 0.633D+00
 Gap=     0.120 Goal=   None    Shift=    0.000
 RMSDP=1.35D-06 MaxDP=1.46D-04 DE=-7.32D-06 OVMax= 7.29D-04

 Cycle  10  Pass 1  IDiag  1:
 RMSU=  9.08D-07    CP:  9.64D-01  1.50D+00  6.88D-01  6.28D-01  8.88D-01
                    CP:  9.14D-01  1.06D+00  1.09D+00  1.04D+00
 E= -4069.81227698457     Delta-E=       -0.000001467626 Rises=F Damp=F
 DIIS: error= 1.05D-05 at cycle  10 NSaved=  10.
 NSaved=10 IEnMin=10 EnMin= -4069.81227698457     IErMin=10 ErrMin= 1.05D-05
 ErrMax= 1.05D-05  0.00D+00 EMaxC= 1.00D-01 BMatC= 1.55D-07 BMatP= 6.62D-07
 IDIUse=1 WtCom= 1.00D+00 WtEn= 0.00D+00
 Coeff-Com: -0.411D-03 0.863D-03 0.118D-02 0.107D-02-0.395D-02-0.301D-01
 Coeff-Com: -0.462D-01-0.696D-01 0.252D+00 0.895D+00
 Coeff:     -0.411D-03 0.863D-03 0.118D-02 0.107D-02-0.395D-02-0.301D-01
 Coeff:     -0.462D-01-0.696D-01 0.252D+00 0.895D+00
 Gap=     0.120 Goal=   None    Shift=    0.000
 RMSDP=1.16D-06 MaxDP=1.27D-04 DE=-1.47D-06 OVMax= 5.90D-04

 Cycle  11  Pass 1  IDiag  1:
 RMSU=  4.91D-07    CP:  9.64D-01  1.50D+00  6.89D-01  6.28D-01  8.90D-01
                    CP:  9.23D-01  1.11D+00  1.20D+00  1.36D+00  1.36D+00
 E= -4069.81227768323     Delta-E=       -0.000000698659 Rises=F Damp=F
 DIIS: error= 3.91D-06 at cycle  11 NSaved=  11.
 NSaved=11 IEnMin=11 EnMin= -4069.81227768323     IErMin=11 ErrMin= 3.91D-06
 ErrMax= 3.91D-06  0.00D+00 EMaxC= 1.00D-01 BMatC= 5.41D-08 BMatP= 1.55D-07
 IDIUse=1 WtCom= 1.00D+00 WtEn= 0.00D+00
 Coeff-Com: -0.314D-03 0.611D-03 0.126D-02 0.202D-02 0.408D-02-0.823D-02
 Coeff-Com: -0.430D-01-0.125D+00-0.206D-01 0.460D+00 0.730D+00
 Coeff:     -0.314D-03 0.611D-03 0.126D-02 0.202D-02 0.408D-02-0.823D-02
 Coeff:     -0.430D-01-0.125D+00-0.206D-01 0.460D+00 0.730D+00
 Gap=     0.120 Goal=   None    Shift=    0.000
 RMSDP=6.33D-07 MaxDP=5.26D-05 DE=-6.99D-07 OVMax= 3.35D-04

 Cycle  12  Pass 1  IDiag  1:
 RMSU=  2.51D-07    CP:  9.64D-01  1.50D+00  6.88D-01  6.28D-01  8.91D-01
                    CP:  9.25D-01  1.13D+00  1.26D+00  1.52D+00  1.73D+00
                    CP:  1.20D+00
 E= -4069.81227791080     Delta-E=       -0.000000227570 Rises=F Damp=F
 DIIS: error= 2.30D-06 at cycle  12 NSaved=  12.
 NSaved=12 IEnMin=12 EnMin= -4069.81227791080     IErMin=12 ErrMin= 2.30D-06
 ErrMax= 2.30D-06  0.00D+00 EMaxC= 1.00D-01 BMatC= 1.28D-08 BMatP= 5.41D-08
 IDIUse=1 WtCom= 1.00D+00 WtEn= 0.00D+00
 Coeff-Com: -0.136D-05-0.126D-04 0.172D-03 0.488D-03 0.309D-02 0.375D-02
 Coeff-Com:  0.226D-02-0.330D-01-0.656D-01-0.713D-01 0.248D+00 0.913D+00
 Coeff:     -0.136D-05-0.126D-04 0.172D-03 0.488D-03 0.309D-02 0.375D-02
 Coeff:      0.226D-02-0.330D-01-0.656D-01-0.713D-01 0.248D+00 0.913D+00
 Gap=     0.120 Goal=   None    Shift=    0.000
 RMSDP=4.03D-07 MaxDP=3.08D-05 DE=-2.28D-07 OVMax= 2.34D-04

 Cycle  13  Pass 1  IDiag  1:
 RMSU=  1.57D-07    CP:  9.64D-01  1.50D+00  6.88D-01  6.28D-01  8.91D-01
                    CP:  9.26D-01  1.14D+00  1.28D+00  1.62D+00  1.94D+00
                    CP:  1.60D+00  1.27D+00
 E= -4069.81227799056     Delta-E=       -0.000000079752 Rises=F Damp=F
 DIIS: error= 1.18D-06 at cycle  13 NSaved=  13.
 NSaved=13 IEnMin=13 EnMin= -4069.81227799056     IErMin=13 ErrMin= 1.18D-06
 ErrMax= 1.18D-06  0.00D+00 EMaxC= 1.00D-01 BMatC= 7.23D-09 BMatP= 1.28D-08
 IDIUse=1 WtCom= 1.00D+00 WtEn= 0.00D+00
 Coeff-Com:  0.115D-03-0.235D-03-0.352D-03-0.432D-03 0.567D-03 0.493D-02
 Coeff-Com:  0.191D-01 0.218D-01-0.347D-01-0.236D+00-0.153D+00 0.601D+00
 Coeff-Com:  0.778D+00
 Coeff:      0.115D-03-0.235D-03-0.352D-03-0.432D-03 0.567D-03 0.493D-02
 Coeff:      0.191D-01 0.218D-01-0.347D-01-0.236D+00-0.153D+00 0.601D+00
 Coeff:      0.778D+00
 Gap=     0.120 Goal=   None    Shift=    0.000
 RMSDP=3.12D-07 MaxDP=1.81D-05 DE=-7.98D-08 OVMax= 1.70D-04

 Cycle  14  Pass 1  IDiag  1:
 RMSU=  7.33D-08    CP:  9.64D-01  1.50D+00  6.88D-01  6.28D-01  8.92D-01
                    CP:  9.26D-01  1.15D+00  1.31D+00  1.69D+00  2.13D+00
                    CP:  1.86D+00  1.78D+00  1.08D+00
 E= -4069.81227802167     Delta-E=       -0.000000031119 Rises=F Damp=F
 DIIS: error= 6.46D-07 at cycle  14 NSaved=  14.
 NSaved=14 IEnMin=14 EnMin= -4069.81227802167     IErMin=14 ErrMin= 6.46D-07
 ErrMax= 6.46D-07  0.00D+00 EMaxC= 1.00D-01 BMatC= 1.13D-09 BMatP= 7.23D-09
 IDIUse=1 WtCom= 1.00D+00 WtEn= 0.00D+00
 Coeff-Com:  0.646D-04-0.127D-03-0.238D-03-0.371D-03-0.458D-03 0.130D-02
 Coeff-Com:  0.106D-01 0.187D-01 0.242D-02-0.984D-01-0.142D+00 0.966D-01
 Coeff-Com:  0.402D+00 0.711D+00
 Coeff:      0.646D-04-0.127D-03-0.238D-03-0.371D-03-0.458D-03 0.130D-02
 Coeff:      0.106D-01 0.187D-01 0.242D-02-0.984D-01-0.142D+00 0.966D-01
 Coeff:      0.402D+00 0.711D+00
 Gap=     0.120 Goal=   None    Shift=    0.000
 RMSDP=9.68D-08 MaxDP=6.14D-06 DE=-3.11D-08 OVMax= 5.36D-05

 Cycle  15  Pass 1  IDiag  1:
 RMSU=  3.70D-08    CP:  9.64D-01  1.50D+00  6.88D-01  6.28D-01  8.92D-01
                    CP:  9.26D-01  1.15D+00  1.31D+00  1.70D+00  2.17D+00
                    CP:  1.96D+00  1.92D+00  1.32D+00  1.01D+00
 E= -4069.81227802525     Delta-E=       -0.000000003572 Rises=F Damp=F
 DIIS: error= 3.84D-07 at cycle  15 NSaved=  15.
 NSaved=15 IEnMin=15 EnMin= -4069.81227802525     IErMin=15 ErrMin= 3.84D-07
 ErrMax= 3.84D-07  0.00D+00 EMaxC= 1.00D-01 BMatC= 2.20D-10 BMatP= 1.13D-09
 IDIUse=1 WtCom= 1.00D+00 WtEn= 0.00D+00
 Coeff-Com:  0.671D-05-0.117D-04-0.366D-04-0.863D-04-0.301D-03-0.456D-03
 Coeff-Com:  0.134D-02 0.302D-02 0.825D-02-0.211D-03-0.344D-01-0.704D-01
 Coeff-Com:  0.323D-01 0.316D+00 0.745D+00
 Coeff:      0.671D-05-0.117D-04-0.366D-04-0.863D-04-0.301D-03-0.456D-03
 Coeff:      0.134D-02 0.302D-02 0.825D-02-0.211D-03-0.344D-01-0.704D-01
 Coeff:      0.323D-01 0.316D+00 0.745D+00
 Gap=     0.120 Goal=   None    Shift=    0.000
 RMSDP=3.94D-08 MaxDP=2.62D-06 DE=-3.57D-09 OVMax= 2.31D-05

 Cycle  16  Pass 1  IDiag  1:
 RMSU=  1.80D-08    CP:  9.64D-01  1.50D+00  6.88D-01  6.28D-01  8.92D-01
                    CP:  9.26D-01  1.15D+00  1.31D+00  1.71D+00  2.18D+00
                    CP:  1.99D+00  1.98D+00  1.40D+00  1.23D+00  1.13D+00
 E= -4069.81227802607     Delta-E=       -0.000000000826 Rises=F Damp=F
 DIIS: error= 2.16D-07 at cycle  16 NSaved=  16.
 NSaved=16 IEnMin=16 EnMin= -4069.81227802607     IErMin=16 ErrMin= 2.16D-07
 ErrMax= 2.16D-07  0.00D+00 EMaxC= 1.00D-01 BMatC= 7.38D-11 BMatP= 2.20D-10
 IDIUse=1 WtCom= 1.00D+00 WtEn= 0.00D+00
 Coeff-Com: -0.131D-04 0.267D-04 0.432D-04 0.482D-04-0.344D-04-0.613D-03
 Coeff-Com: -0.186D-02-0.389D-02 0.454D-02 0.247D-01 0.189D-01-0.639D-01
 Coeff-Com: -0.831D-01-0.232D-01 0.390D+00 0.739D+00
 Coeff:     -0.131D-04 0.267D-04 0.432D-04 0.482D-04-0.344D-04-0.613D-03
 Coeff:     -0.186D-02-0.389D-02 0.454D-02 0.247D-01 0.189D-01-0.639D-01
 Coeff:     -0.831D-01-0.232D-01 0.390D+00 0.739D+00
 Gap=     0.120 Goal=   None    Shift=    0.000
 RMSDP=2.18D-08 MaxDP=1.44D-06 DE=-8.26D-10 OVMax= 1.44D-05

 Cycle  17  Pass 1  IDiag  1:
 RMSU=  1.04D-08    CP:  9.64D-01  1.50D+00  6.88D-01  6.28D-01  8.92D-01
                    CP:  9.26D-01  1.15D+00  1.31D+00  1.71D+00  2.19D+00
                    CP:  2.00D+00  2.00D+00  1.45D+00  1.32D+00  1.42D+00
                    CP:  1.22D+00
 E= -4069.81227802650     Delta-E=       -0.000000000426 Rises=F Damp=F
 DIIS: error= 1.12D-07 at cycle  17 NSaved=  17.
 NSaved=17 IEnMin=17 EnMin= -4069.81227802650     IErMin=17 ErrMin= 1.12D-07
 ErrMax= 1.12D-07  0.00D+00 EMaxC= 1.00D-01 BMatC= 1.84D-11 BMatP= 7.38D-11
 IDIUse=1 WtCom= 1.00D+00 WtEn= 0.00D+00
 Coeff-Com: -0.770D-05 0.151D-04 0.299D-04 0.434D-04 0.756D-04-0.162D-03
 Coeff-Com: -0.106D-02-0.289D-02 0.454D-03 0.106D-01 0.182D-01-0.108D-01
 Coeff-Com: -0.427D-01-0.991D-01-0.183D-01 0.331D+00 0.815D+00
 Coeff:     -0.770D-05 0.151D-04 0.299D-04 0.434D-04 0.756D-04-0.162D-03
 Coeff:     -0.106D-02-0.289D-02 0.454D-03 0.106D-01 0.182D-01-0.108D-01
 Coeff:     -0.427D-01-0.991D-01-0.183D-01 0.331D+00 0.815D+00
 Gap=     0.120 Goal=   None    Shift=    0.000
 RMSDP=1.32D-08 MaxDP=8.52D-07 DE=-4.26D-10 OVMax= 7.78D-06

 Cycle  18  Pass 1  IDiag  1:
 RMSU=  5.03D-09    CP:  9.64D-01  1.50D+00  6.88D-01  6.28D-01  8.92D-01
                    CP:  9.26D-01  1.15D+00  1.31D+00  1.71D+00  2.19D+00
                    CP:  2.00D+00  2.01D+00  1.46D+00  1.39D+00  1.59D+00
                    CP:  1.62D+00  1.35D+00
 E= -4069.81227802635     Delta-E=        0.000000000146 Rises=F Damp=F
 DIIS: error= 5.57D-08 at cycle  18 NSaved=  18.
 NSaved=18 IEnMin=17 EnMin= -4069.81227802650     IErMin=18 ErrMin= 5.57D-08
 ErrMax= 5.57D-08  0.00D+00 EMaxC= 1.00D-01 BMatC= 6.59D-12 BMatP= 1.84D-11
 IDIUse=1 WtCom= 1.00D+00 WtEn= 0.00D+00
 Coeff-Com:  0.868D-06-0.206D-05-0.265D-06 0.388D-05 0.628D-04 0.143D-03
 Coeff-Com:  0.233D-03-0.185D-03-0.110D-02-0.428D-02 0.226D-02 0.178D-01
 Coeff-Com:  0.123D-01-0.413D-01-0.149D+00-0.123D+00 0.377D+00 0.909D+00
 Coeff:      0.868D-06-0.206D-05-0.265D-06 0.388D-05 0.628D-04 0.143D-03
 Coeff:      0.233D-03-0.185D-03-0.110D-02-0.428D-02 0.226D-02 0.178D-01
 Coeff:      0.123D-01-0.413D-01-0.149D+00-0.123D+00 0.377D+00 0.909D+00
 Gap=     0.120 Goal=   None    Shift=    0.000
 RMSDP=1.03D-08 MaxDP=8.10D-07 DE= 1.46D-10 OVMax= 7.09D-06

 Cycle  19  Pass 1  IDiag  1:
 RMSU=  3.14D-09    CP:  9.64D-01  1.50D+00  6.88D-01  6.28D-01  8.92D-01
                    CP:  9.26D-01  1.15D+00  1.31D+00  1.71D+00  2.19D+00
                    CP:  2.01D+00  2.02D+00  1.47D+00  1.43D+00  1.72D+00
                    CP:  1.92D+00  1.87D+00  1.22D+00
 E= -4069.81227802659     Delta-E=       -0.000000000233 Rises=F Damp=F
 DIIS: error= 3.75D-08 at cycle  19 NSaved=  19.
 NSaved=19 IEnMin=19 EnMin= -4069.81227802659     IErMin=19 ErrMin= 3.75D-08
 ErrMax= 3.75D-08  0.00D+00 EMaxC= 1.00D-01 BMatC= 2.70D-12 BMatP= 6.59D-12
 IDIUse=1 WtCom= 1.00D+00 WtEn= 0.00D+00
 Coeff-Com:  0.323D-05-0.655D-05-0.106D-04-0.127D-04 0.191D-04 0.149D-03
 Coeff-Com:  0.544D-03 0.851D-03-0.827D-03-0.696D-02-0.503D-02 0.156D-01
 Coeff-Com:  0.239D-01 0.673D-02-0.956D-01-0.210D+00-0.454D-01 0.598D+00
 Coeff-Com:  0.719D+00
 Coeff:      0.323D-05-0.655D-05-0.106D-04-0.127D-04 0.191D-04 0.149D-03
 Coeff:      0.544D-03 0.851D-03-0.827D-03-0.696D-02-0.503D-02 0.156D-01
 Coeff:      0.239D-01 0.673D-02-0.956D-01-0.210D+00-0.454D-01 0.598D+00
 Coeff:      0.719D+00
 Gap=     0.120 Goal=   None    Shift=    0.000
 RMSDP=6.40D-09 MaxDP=3.98D-07 DE=-2.33D-10 OVMax= 3.63D-06

 SCF Done:  E(RCAM-B3LYP) =  -4069.81227803     A.U. after   19 cycles
            NFock= 19  Conv=0.64D-08     -V/T= 2.0102
 KE= 4.028802040140D+03 PE=-3.815895791443D+04 EE= 1.572127158765D+04
 Leave Link  502 at Sat Sep 11 02:57:44 2021, MaxMem= 23488102400 cpu:           13314.4 elap:             579.7
 (Enter /sw/apps/gaussian-16.0/g16/l801.exe)
 DoSCS=F DFT=T ScalE2(SS,OS)=  1.000000  1.000000
 ExpMin= 3.36D-02 ExpMax= 4.95D+03 ExpMxC= 7.45D+02 IAcc=3 IRadAn=         5 AccDes= 0.00D+00
 HarFok:  IExCor=  205 AccDes= 0.00D+00 IRadAn=         5 IDoV=-2 UseB2=F ITyADJ=14
 ICtDFT= 12500011 ScaDFX=  1.000000  1.000000  1.000000  1.000000
 GSVD:  LWork=       -9588 too small for GESVD, short by       45590 words or       45590 for optimal perf.
 Largest valence mixing into a core orbital is  2.03D-04
 Largest core mixing into a valence orbital is  5.23D-05
 Range of M.O.s used for correlation:    95  1572
 NBasis=  1572 NAE=   312 NBE=   312 NFC=    94 NFV=     0
 NROrb=   1478 NOA=   218 NOB=   218 NVA=  1260 NVB=  1260
 Leave Link  801 at Sat Sep 11 02:57:44 2021, MaxMem= 23488102400 cpu:               8.8 elap:               0.4
 (Enter /sw/apps/gaussian-16.0/g16/l914.exe)
 RHF ground state
 Two-electron integrals replicated using symmetry.
 MDV= 23488102400 DFT=T DoStab=F Mixed=T DoRPA=T DoScal=F NonHer=T
 Making orbital integer symmetry assigments:
 Orbital symmetries:
       Occupied  (A) (A) (A) (A) (A) (A) (A) (A) (A) (A) (A) (A)
                 (A) (A) (A) (A) (A) (A) (A) (A) (A) (A) (A) (A)
                 (A) (A) (A) (A) (A) (A) (A) (A) (A) (A) (A) (A)
                 (A) (A) (A) (A) (A) (A) (A) (A) (A) (A) (A) (A)
                 (A) (A) (A) (A) (A) (A) (A) (A) (A) (A) (A) (A)
                 (A) (A) (A) (A) (A) (A) (A) (A) (A) (A) (A) (A)
                 (A) (A) (A) (A) (A) (A) (A) (A) (A) (A) (A) (A)
                 (A) (A) (A) (A) (A) (A) (A) (A) (A) (A) (A) (A)
                 (A) (A) (A) (A) (A) (A) (A) (A) (A) (A) (A) (A)
                 (A) (A) (A) (A) (A) (A) (A) (A) (A) (A) (A) (A)
                 (A) (A) (A) (A) (A) (A) (A) (A) (A) (A) (A) (A)
                 (A) (A) (A) (A) (A) (A) (A) (A) (A) (A) (A) (A)
                 (A) (A) (A) (A) (A) (A) (A) (A) (A) (A) (A) (A)
                 (A) (A) (A) (A) (A) (A) (A) (A) (A) (A) (A) (A)
                 (A) (A) (A) (A) (A) (A) (A) (A) (A) (A) (A) (A)
                 (A) (A) (A) (A) (A) (A) (A) (A) (A) (A) (A) (A)
                 (A) (A) (A) (A) (A) (A) (A) (A) (A) (A) (A) (A)
                 (A) (A) (A) (A) (A) (A) (A) (A) (A) (A) (A) (A)
                 (A) (A) (A) (A) (A) (A) (A) (A) (A) (A) (A) (A)
                 (A) (A) (A) (A) (A) (A) (A) (A) (A) (A) (A) (A)
                 (A) (A) (A) (A) (A) (A) (A) (A) (A) (A) (A) (A)
                 (A) (A) (A) (A) (A) (A) (A) (A) (A) (A) (A) (A)
                 (A) (A) (A) (A) (A) (A) (A) (A) (A) (A) (A) (A)
                 (A) (A) (A) (A) (A) (A) (A) (A) (A) (A) (A) (A)
                 (A) (A) (A) (A) (A) (A) (A) (A) (A) (A) (A) (A)
                 (A) (A) (A) (A) (A) (A) (A) (A) (A) (A) (A) (A)
       Virtual   (A) (A) (A) (A) (A) (A) (A) (A) (A) (A) (A) (A)
                 (A) (A) (A) (A) (A) (A) (A) (A) (A) (A) (A) (A)
                 (A) (A) (A) (A) (A) (A) (A) (A) (A) (A) (A) (A)
                 (A) (A) (A) (A) (A) (A) (A) (A) (A) (A) (A) (A)
                 (A) (A) (A) (A) (A) (A) (A) (A) (A) (A) (A) (A)
                 (A) (A) (A) (A) (A) (A) (A) (A) (A) (A) (A) (A)
                 (A) (A) (A) (A) (A) (A) (A) (A) (A) (A) (A) (A)
                 (A) (A) (A) (A) (A) (A) (A) (A) (A) (A) (A) (A)
                 (A) (A) (A) (A) (A) (A) (A) (A) (A) (A) (A) (A)
                 (A) (A) (A) (A) (A) (A) (A) (A) (A) (A) (A) (A)
                 (A) (A) (A) (A) (A) (A) (A) (A) (A) (A) (A) (A)
                 (A) (A) (A) (A) (A) (A) (A) (A) (A) (A) (A) (A)
                 (A) (A) (A) (A) (A) (A) (A) (A) (A) (A) (A) (A)
                 (A) (A) (A) (A) (A) (A) (A) (A) (A) (A) (A) (A)
                 (A) (A) (A) (A) (A) (A) (A) (A) (A) (A) (A) (A)
                 (A) (A) (A) (A) (A) (A) (A) (A) (A) (A) (A) (A)
                 (A) (A) (A) (A) (A) (A) (A) (A) (A) (A) (A) (A)
                 (A) (A) (A) (A) (A) (A) (A) (A) (A) (A) (A) (A)
                 (A) (A) (A) (A) (A) (A) (A) (A) (A) (A) (A) (A)
                 (A) (A) (A) (A) (A) (A) (A) (A) (A) (A) (A) (A)
                 (A) (A) (A) (A) (A) (A) (A) (A) (A) (A) (A) (A)
                 (A) (A) (A) (A) (A) (A) (A) (A) (A) (A) (A) (A)
                 (A) (A) (A) (A) (A) (A) (A) (A) (A) (A) (A) (A)
                 (A) (A) (A) (A) (A) (A) (A) (A) (A) (A) (A) (A)
                 (A) (A) (A) (A) (A) (A) (A) (A) (A) (A) (A) (A)
                 (A) (A) (A) (A) (A) (A) (A) (A) (A) (A) (A) (A)
                 (A) (A) (A) (A) (A) (A) (A) (A) (A) (A) (A) (A)
                 (A) (A) (A) (A) (A) (A) (A) (A) (A) (A) (A) (A)
                 (A) (A) (A) (A) (A) (A) (A) (A) (A) (A) (A) (A)
                 (A) (A) (A) (A) (A) (A) (A) (A) (A) (A) (A) (A)
                 (A) (A) (A) (A) (A) (A) (A) (A) (A) (A) (A) (A)
                 (A) (A) (A) (A) (A) (A) (A) (A) (A) (A) (A) (A)
                 (A) (A) (A) (A) (A) (A) (A) (A) (A) (A) (A) (A)
                 (A) (A) (A) (A) (A) (A) (A) (A) (A) (A) (A) (A)
                 (A) (A) (A) (A) (A) (A) (A) (A) (A) (A) (A) (A)
                 (A) (A) (A) (A) (A) (A) (A) (A) (A) (A) (A) (A)
                 (A) (A) (A) (A) (A) (A) (A) (A) (A) (A) (A) (A)
                 (A) (A) (A) (A) (A) (A) (A) (A) (A) (A) (A) (A)
                 (A) (A) (A) (A) (A) (A) (A) (A) (A) (A) (A) (A)
                 (A) (A) (A) (A) (A) (A) (A) (A) (A) (A) (A) (A)
                 (A) (A) (A) (A) (A) (A) (A) (A) (A) (A) (A) (A)
                 (A) (A) (A) (A) (A) (A) (A) (A) (A) (A) (A) (A)
                 (A) (A) (A) (A) (A) (A) (A) (A) (A) (A) (A) (A)
                 (A) (A) (A) (A) (A) (A) (A) (A) (A) (A) (A) (A)
                 (A) (A) (A) (A) (A) (A) (A) (A) (A) (A) (A) (A)
                 (A) (A) (A) (A) (A) (A) (A) (A) (A) (A) (A) (A)
                 (A) (A) (A) (A) (A) (A) (A) (A) (A) (A) (A) (A)
                 (A) (A) (A) (A) (A) (A) (A) (A) (A) (A) (A) (A)
                 (A) (A) (A) (A) (A) (A) (A) (A) (A) (A) (A) (A)
                 (A) (A) (A) (A) (A) (A) (A) (A) (A) (A) (A) (A)
                 (A) (A) (A) (A) (A) (A) (A) (A) (A) (A) (A) (A)
                 (A) (A) (A) (A) (A) (A) (A) (A) (A) (A) (A) (A)
                 (A) (A) (A) (A) (A) (A) (A) (A) (A) (A) (A) (A)
                 (A) (A) (A) (A) (A) (A) (A) (A) (A) (A) (A) (A)
                 (A) (A) (A) (A) (A) (A) (A) (A) (A) (A) (A) (A)
                 (A) (A) (A) (A) (A) (A) (A) (A) (A) (A) (A) (A)
                 (A) (A) (A) (A) (A) (A) (A) (A) (A) (A) (A) (A)
                 (A) (A) (A) (A) (A) (A) (A) (A) (A) (A) (A) (A)
                 (A) (A) (A) (A) (A) (A) (A) (A) (A) (A) (A) (A)
                 (A) (A) (A) (A) (A) (A) (A) (A) (A) (A) (A) (A)
                 (A) (A) (A) (A) (A) (A) (A) (A) (A) (A) (A) (A)
                 (A) (A) (A) (A) (A) (A) (A) (A) (A) (A) (A) (A)
                 (A) (A) (A) (A) (A) (A) (A) (A) (A) (A) (A) (A)
                 (A) (A) (A) (A) (A) (A) (A) (A) (A) (A) (A) (A)
                 (A) (A) (A) (A) (A) (A) (A) (A) (A) (A) (A) (A)
                 (A) (A) (A) (A) (A) (A) (A) (A) (A) (A) (A) (A)
                 (A) (A) (A) (A) (A) (A) (A) (A) (A) (A) (A) (A)
                 (A) (A) (A) (A) (A) (A) (A) (A) (A) (A) (A) (A)
                 (A) (A) (A) (A) (A) (A) (A) (A) (A) (A) (A) (A)
                 (A) (A) (A) (A) (A) (A) (A) (A) (A) (A) (A) (A)
                 (A) (A) (A) (A) (A) (A) (A) (A) (A) (A) (A) (A)
                 (A) (A) (A) (A) (A) (A) (A) (A) (A) (A) (A) (A)
                 (A) (A) (A) (A) (A) (A) (A) (A) (A) (A) (A) (A)
                 (A) (A) (A) (A) (A) (A) (A) (A) (A) (A) (A) (A)
                 (A) (A) (A) (A) (A) (A) (A) (A) (A) (A) (A) (A)
                 (A) (A) (A) (A) (A) (A) (A) (A) (A) (A) (A) (A)
                 (A) (A) (A) (A) (A) (A) (A) (A) (A) (A) (A) (A)
                 (A) (A) (A) (A) (A) (A) (A) (A) (A) (A) (A) (A)
                 (A) (A) (A) (A) (A) (A) (A) (A) (A) (A) (A) (A)
                 (A) (A) (A) (A) (A) (A) (A) (A) (A) (A) (A) (A)
                 (A) (A) (A) (A) (A) (A) (A) (A) (A) (A) (A) (A)
                 (A) (A) (A) (A) (A) (A) (A) (A) (A) (A) (A) (A)
                 (A) (A) (A) (A) (A) (A) (A) (A) (A) (A) (A) (A)
                 (A) (A) (A) (A) (A) (A) (A) (A) (A) (A) (A) (A)
                 (A) (A) (A) (A) (A) (A) (A) (A) (A) (A) (A) (A)
                 (A) (A) (A) (A) (A) (A) (A) (A) (A) (A) (A) (A)
                 (A) (A) (A) (A) (A) (A) (A) (A) (A) (A) (A) (A)
                 (A) (A) (A) (A) (A) (A) (A) (A) (A) (A) (A) (A)
                 (A) (A) (A) (A) (A) (A) (A) (A) (A) (A) (A) (A)
                 (A) (A) (A) (A) (A) (A) (A) (A) (A) (A) (A) (A)
                 (A) (A) (A) (A) (A) (A) (A) (A) (A) (A) (A) (A)
                 (A) (A) (A) (A) (A) (A) (A) (A) (A) (A) (A) (A)
                 (A) (A) (A) (A) (A) (A) (A) (A) (A) (A) (A) (A)
                 (A) (A) (A) (A) (A) (A) (A) (A) (A) (A) (A) (A)
                 (A) (A) (A) (A) (A) (A) (A) (A) (A) (A) (A) (A)
                 (A) (A) (A) (A) (A) (A) (A) (A) (A) (A) (A) (A)
                 (A) (A) (A) (A) (A) (A) (A) (A) (A) (A) (A) (A)
                 (A) (A) (A) (A) (A) (A) (A) (A) (A) (A) (A) (A)
                 (A) (A) (A) (A) (A) (A) (A) (A) (A) (A) (A) (A)
                 (A) (A) (A) (A) (A) (A) (A) (A) (A) (A) (A) (A)
                 (A) (A) (A) (A) (A) (A) (A) (A) (A) (A) (A) (A)
                 (A) (A) (A) (A) (A) (A) (A) (A) (A) (A) (A) (A)
                 (A) (A) (A) (A) (A) (A) (A) (A) (A) (A) (A) (A)
                 (A) (A) (A) (A) (A) (A) (A) (A) (A) (A) (A) (A)
                 (A) (A) (A) (A) (A) (A) (A) (A) (A) (A) (A) (A)
    20 initial guesses have been made.
 Convergence on wavefunction:    0.001000000000000
 Davidson Disk Diagonalization:  ConvIn= 1.00D-03 SkipCon=T Conv= 1.00D-03.
 Max sub-space:  2000 roots to seek:    20 dimension of matrix:       549360
 Iteration     1 Dimension    20 NMult     0 NNew     20
 CISAX will form    20 AO SS matrices at one time.
 NMat=    20 NSing=    20 JSym2X= 0.
 FoFJK:  IHMeth= 1 ICntrl=       0 DoSepK=T KAlg= 0 I1Cent=           0 FoldK=F
 IRaf=         1 NMat=      40 IRICut=       1 DoRegI=T DoRafI=F ISym2E= 0 IDoP0=3 IntGTp=3.
 FoFCou: FMM=T IPFlag=           0 FMFlag=      100000 FMFlg1=        2001
         NFxFlg=           0 DoJE=F BraDBF=F KetDBF=F FulRan=T
         wScrn=  0.000000 ICntrl=       500 IOpCl=  0 I1Cent=           0 NGrid=           0
         NMat0=   20 NMatS0=     20 NMatT0=    0 NMatD0=   20 NMtDS0=    0 NMtDT0=    0
 Symmetry not used in FoFCou.
 FMM levels:  10  Number of levels for PrismC:   9
 New state      2 was old state      7
 New state      3 was old state      6
 New state      4 was old state      2
 New state      5 was old state      3
 Excitation Energies [eV] at current iteration:
 Root      1 :     2.606466443510280
 Root      2 :     2.612819182737407
 Root      3 :     2.620411459472816
 Root      4 :     2.673103254341938
 Root      5 :     2.698314782788796
 Root      6 :     2.749812307906332
 Root      7 :     3.420568824349628
 Root      8 :     3.551194782474459
 Root      9 :     3.634732642338058
 Root     10 :     3.674142359893015
 Root     11 :     3.728309920261221
 Root     12 :     3.758709734891184
 Root     13 :     4.286578634039905
 Root     14 :     4.328394595388689
 Root     15 :     4.515026549026108
 Root     16 :     4.629868104134888
 Root     17 :     4.669964406235256
 Root     18 :     4.955261501794556
 Root     19 :     4.976932322907682
 Root     20 :     4.990420581854010
 Iteration     2 Dimension    30 NMult    20 NNew     10
 CISAX will form    10 AO SS matrices at one time.
 NMat=    10 NSing=    10 JSym2X= 0.
 New state      1 was old state      4
 Root      1 not converged, maximum delta is    0.155021111332188
 New state      2 was old state      5
 Root      2 not converged, maximum delta is    0.158162125320814
 New state      3 was old state      2
 Root      3 not converged, maximum delta is    0.389204438247147
 New state      4 was old state      3
 Root      4 not converged, maximum delta is    0.399678246871728
 New state      5 was old state      1
 Root      5 not converged, maximum delta is    0.011944095979632
 Excitation Energies [eV] at current iteration:
 Root      1 :     1.795805566547528   Change is   -0.877297687794410
 Root      2 :     1.811338013163887   Change is   -0.886976769624909
 Root      3 :     2.235357646356893   Change is   -0.377461536380514
 Root      4 :     2.241616483599711   Change is   -0.378794975873105
 Root      5 :     2.604683160862821   Change is   -0.001783282647459
 Iteration     3 Dimension    40 NMult    30 NNew     10
 CISAX will form    10 AO SS matrices at one time.
 NMat=    10 NSing=    10 JSym2X= 0.
 Root      1 not converged, maximum delta is    0.055663720418300
 Root      2 not converged, maximum delta is    0.056720869512780
 Root      3 not converged, maximum delta is    0.107810201879927
 Root      4 not converged, maximum delta is    0.107330729176358
 Root      5 has converged.
 Excitation Energies [eV] at current iteration:
 Root      1 :     1.689291030264152   Change is   -0.106514536283376
 Root      2 :     1.702761991597357   Change is   -0.108576021566530
 Root      3 :     2.195107246724016   Change is   -0.040250399632878
 Root      4 :     2.202732589747443   Change is   -0.038883893852268
 Root      5 :     2.604679793589011   Change is   -0.000003367273809
 Iteration     4 Dimension    48 NMult    40 NNew      8
 CISAX will form     8 AO SS matrices at one time.
 NMat=     8 NSing=     8 JSym2X= 0.
 Root      1 not converged, maximum delta is    0.010706088197914
 Root      2 not converged, maximum delta is    0.011011416206818
 Root      3 not converged, maximum delta is    0.016278638938660
 Root      4 not converged, maximum delta is    0.016111172956641
 Root      5 has converged.
 Excitation Energies [eV] at current iteration:
 Root      1 :     1.672587766291958   Change is   -0.016703263972194
 Root      2 :     1.685874018939923   Change is   -0.016887972657433
 Root      3 :     2.187989456184614   Change is   -0.007117790539401
 Root      4 :     2.195955741234880   Change is   -0.006776848512563
 Root      5 :     2.604679790877093   Change is   -0.000000002711919
 Iteration     5 Dimension    56 NMult    48 NNew      8
 CISAX will form     8 AO SS matrices at one time.
 NMat=     8 NSing=     8 JSym2X= 0.
 Root      1 not converged, maximum delta is    0.001740929670647
 Root      2 not converged, maximum delta is    0.001835490825884
 Root      3 not converged, maximum delta is    0.002415984345445
 Root      4 not converged, maximum delta is    0.002381423896983
 Root      5 has converged.
 Excitation Energies [eV] at current iteration:
 Root      1 :     1.670837198328249   Change is   -0.001750567963709
 Root      2 :     1.684067747463197   Change is   -0.001806271476726
 Root      3 :     2.187162817460388   Change is   -0.000826638724227
 Root      4 :     2.195187511172204   Change is   -0.000768230062676
 Root      5 :     2.604679790198174   Change is   -0.000000000678919
 Iteration     6 Dimension    64 NMult    56 NNew      8
 CISAX will form     8 AO SS matrices at one time.
 NMat=     8 NSing=     8 JSym2X= 0.
 Root      1 not converged, maximum delta is    0.001095211597561
 Root      2 not converged, maximum delta is    0.001114198504769
 Root      3 has converged.
 Root      4 has converged.
 Root      5 has converged.
 Excitation Energies [eV] at current iteration:
 Root      1 :     1.670586674900237   Change is   -0.000250523428012
 Root      2 :     1.683810148822702   Change is   -0.000257598640495
 Root      3 :     2.187038600176854   Change is   -0.000124217283533
 Root      4 :     2.195069658097306   Change is   -0.000117853074898
 Root      5 :     2.604679789503916   Change is   -0.000000000694258
 Iteration     7 Dimension    68 NMult    64 NNew      4
 CISAX will form     4 AO SS matrices at one time.
 NMat=     4 NSing=     4 JSym2X= 0.
 Root      1 has converged.
 Root      2 has converged.
 Root      3 has converged.
 Root      4 has converged.
 Root      5 has converged.
 Excitation Energies [eV] at current iteration:
 Root      1 :     1.670562257174206   Change is   -0.000024417726032
 Root      2 :     1.683785412871158   Change is   -0.000024735951545
[...]
 Alpha virt. eigenvalues --    1.84384   1.84631   1.84718   1.84923   1.85039
 Alpha virt. eigenvalues --    1.85189   1.85212   1.85430   1.85498   1.85629
 Alpha virt. eigenvalues --    1.85836   1.86013   1.86295   1.86491   1.86505
 Alpha virt. eigenvalues --    1.86703   1.86768   1.86923   1.87004   1.87123
 Alpha virt. eigenvalues --    1.87383   1.87573   1.87585   1.87792   1.87853
 Alpha virt. eigenvalues --    1.87957   1.88124   1.88292   1.88447   1.88705
 Alpha virt. eigenvalues --    1.88713   1.89052   1.89088   1.89144   1.89550
 Alpha virt. eigenvalues --    1.89671   1.89797   1.89997   1.90063   1.90321
 Alpha virt. eigenvalues --    1.90647   1.90981   1.91236   1.91381   1.91506
 Alpha virt. eigenvalues --    1.91688   1.92063   1.92273   1.92495   1.92737
 Alpha virt. eigenvalues --    1.92908   1.93246   1.93293   1.93596   1.94226
 Alpha virt. eigenvalues --    1.94394   1.94618   1.94936   1.95443   1.95618
 Alpha virt. eigenvalues --    1.95667   1.95869   1.95889   1.96102   1.96142
 Alpha virt. eigenvalues --    1.96258   1.96525   1.96566   1.96812   1.97064
 Alpha virt. eigenvalues --    1.97369   1.97615   1.97767   1.97875   1.98061
 Alpha virt. eigenvalues --    1.98251   1.98413   1.98522   1.99027   1.99167
 Alpha virt. eigenvalues --    1.99691   2.00035   2.00583   2.00810   2.00882
 Alpha virt. eigenvalues --    2.01189   2.01323   2.01584   2.01597   2.01630
 Alpha virt. eigenvalues --    2.01701   2.01901   2.02681   2.02800   2.03170
 Alpha virt. eigenvalues --    2.03212   2.03283   2.03344   2.03475   2.03608
 Alpha virt. eigenvalues --    2.03933   2.04111   2.04872   2.05098   2.05435
 Alpha virt. eigenvalues --    2.05767   2.05990   2.06407   2.06756   2.07089
 Alpha virt. eigenvalues --    2.07106   2.07433   2.08532   2.08709   2.08874
 Alpha virt. eigenvalues --    2.09094   2.09463   2.09719   2.10751   2.11078
 Alpha virt. eigenvalues --    2.11115   2.11400   2.11511   2.11600   2.11625
 Alpha virt. eigenvalues --    2.11998   2.12351   2.12552   2.12711   2.12743
 Alpha virt. eigenvalues --    2.12921   2.12956   2.13615   2.13706   2.14085
 Alpha virt. eigenvalues --    2.14328   2.15238   2.15534   2.15808   2.16162
 Alpha virt. eigenvalues --    2.16464   2.16642   2.16700   2.17261   2.17331
 Alpha virt. eigenvalues --    2.17621   2.17743   2.18011   2.18019   2.18094
 Alpha virt. eigenvalues --    2.18204   2.18730   2.18764   2.19310   2.19526
 Alpha virt. eigenvalues --    2.19917   2.19920   2.20100   2.20320   2.20545
 Alpha virt. eigenvalues --    2.21138   2.21267   2.21580   2.21611   2.21863
 Alpha virt. eigenvalues --    2.21969   2.22591   2.22805   2.23237   2.23422
 Alpha virt. eigenvalues --    2.24322   2.24510   2.24946   2.25130   2.26156
 Alpha virt. eigenvalues --    2.26524   2.26693   2.26970   2.27110   2.27289
 Alpha virt. eigenvalues --    2.28028   2.28408   2.29177   2.29541   2.29606
 Alpha virt. eigenvalues --    2.29970   2.30322   2.30697   2.30882   2.30947
 Alpha virt. eigenvalues --    2.31053   2.31279   2.32052   2.32342   2.33009
 Alpha virt. eigenvalues --    2.33331   2.33355   2.33552   2.34073   2.34206
 Alpha virt. eigenvalues --    2.35219   2.35362   2.35675   2.36014   2.36318
 Alpha virt. eigenvalues --    2.36455   2.36514   2.36552   2.37605   2.37753
 Alpha virt. eigenvalues --    2.38193   2.38535   2.38715   2.38876   2.39504
 Alpha virt. eigenvalues --    2.39762   2.40116   2.40334   2.40357   2.40902
 Alpha virt. eigenvalues --    2.41132   2.41277   2.41638   2.41776   2.41891
 Alpha virt. eigenvalues --    2.42202   2.42896   2.42933   2.43095   2.43340
 Alpha virt. eigenvalues --    2.44050   2.44131   2.44624   2.44794   2.44911
 Alpha virt. eigenvalues --    2.45068   2.45455   2.45669   2.46216   2.46362
 Alpha virt. eigenvalues --    2.46430   2.46609   2.46676   2.46893   2.47160
 Alpha virt. eigenvalues --    2.47448   2.47623   2.47971   2.49246   2.49531
 Alpha virt. eigenvalues --    2.49969   2.50028   2.50510   2.50615   2.50982
 Alpha virt. eigenvalues --    2.51335   2.51735   2.51763   2.52302   2.52449
 Alpha virt. eigenvalues --    2.52693   2.53251   2.53832   2.54069   2.54091
 Alpha virt. eigenvalues --    2.54405   2.54710   2.54879   2.55434   2.55761
 Alpha virt. eigenvalues --    2.57770   2.58182   2.58561   2.58987   2.60055
 Alpha virt. eigenvalues --    2.60362   2.60481   2.61002   2.61621   2.61925
 Alpha virt. eigenvalues --    2.62412   2.62515   2.62842   2.63194   2.63818
 Alpha virt. eigenvalues --    2.64219   2.64316   2.64478   2.64985   2.65163
 Alpha virt. eigenvalues --    2.65653   2.65927   2.66720   2.66821   2.66898
 Alpha virt. eigenvalues --    2.67145   2.67828   2.68051   2.68744   2.68897
 Alpha virt. eigenvalues --    2.68906   2.69092   2.69330   2.69656   2.69904
 Alpha virt. eigenvalues --    2.70205   2.70877   2.71127   2.71923   2.71954
 Alpha virt. eigenvalues --    2.72514   2.72541   2.72652   2.72783   2.73238
 Alpha virt. eigenvalues --    2.73323   2.73356   2.73496   2.74404   2.74571
 Alpha virt. eigenvalues --    2.74852   2.75120   2.76512   2.76581   2.77095
 Alpha virt. eigenvalues --    2.77127   2.77355   2.77697   2.78117   2.78401
 Alpha virt. eigenvalues --    2.78591   2.78757   2.79025   2.79220   2.80233
 Alpha virt. eigenvalues --    2.80395   2.80430   2.80750   2.80984   2.81227
 Alpha virt. eigenvalues --    2.81809   2.82057   2.82248   2.82392   2.83603
 Alpha virt. eigenvalues --    2.83680   2.83949   2.83972   2.84446   2.84603
 Alpha virt. eigenvalues --    2.84814   2.84939   2.85591   2.85785   2.86706
 Alpha virt. eigenvalues --    2.86887   2.87199   2.87439   2.88067   2.88349
 Alpha virt. eigenvalues --    2.88414   2.88664   2.88833   2.88941   2.90389
 Alpha virt. eigenvalues --    2.90703   2.91116   2.91129   2.93025   2.93392
 Alpha virt. eigenvalues --    2.93833   2.94102   2.94500   2.94681   2.95225
 Alpha virt. eigenvalues --    2.95517   2.95850   2.96017   2.96363   2.96460
 Alpha virt. eigenvalues --    2.96890   2.97011   2.97652   2.98102   2.98171
 Alpha virt. eigenvalues --    2.98285   2.98398   2.98485   2.98656   2.98795
 Alpha virt. eigenvalues --    2.98837   2.99001   2.99553   2.99871   2.99896
 Alpha virt. eigenvalues --    3.00047   3.00120   3.00326   3.00475   3.01046
 Alpha virt. eigenvalues --    3.01924   3.01944   3.01948   3.02188   3.02563
 Alpha virt. eigenvalues --    3.02848   3.02891   3.03253   3.03450   3.03753
 Alpha virt. eigenvalues --    3.04103   3.04119   3.04341   3.04477   3.04519
 Alpha virt. eigenvalues --    3.04771   3.05246   3.05471   3.06016   3.06209
 Alpha virt. eigenvalues --    3.06668   3.06993   3.08058   3.08097   3.09260
 Alpha virt. eigenvalues --    3.09449   3.09588   3.10328   3.10462   3.10797
 Alpha virt. eigenvalues --    3.11291   3.11526   3.11789   3.11929   3.12213
 Alpha virt. eigenvalues --    3.12346   3.13142   3.13584   3.13697   3.13761
 Alpha virt. eigenvalues --    3.13900   3.14491   3.15919   3.16031   3.17147
 Alpha virt. eigenvalues --    3.17576   3.17975   3.18021   3.19044   3.19120
 Alpha virt. eigenvalues --    3.22098   3.22621   3.23824   3.24499   3.24521
 Alpha virt. eigenvalues --    3.25237   3.26387   3.26719   3.27450   3.27499
 Alpha virt. eigenvalues --    3.28881   3.29237   3.31404   3.31440   3.33250
 Alpha virt. eigenvalues --    3.33307   3.40263   3.40398   3.42733   3.42916
 Alpha virt. eigenvalues --    3.48526   3.48750   3.49908   3.50346   3.50902
 Alpha virt. eigenvalues --    3.51364   3.56447   3.57073   3.59007   3.59397
 Alpha virt. eigenvalues --    3.62574   3.62710   3.66122   3.66217   3.66966
 Alpha virt. eigenvalues --    3.67553   3.73065   3.74041   3.75870   3.76705
          Condensed to atoms (all electrons):
 Mulliken charges:
               1
     1  Mg   0.836370
     2  C   -0.004026
     3  C   -0.094382
     4  C   -0.045352
     5  C   -0.063435
     6  N   -0.256883
     7  C   -0.052978
     8  C   -0.013807
     9  C   -0.086925
    10  C    0.046003
    11  C    0.104710
    12  C    0.053502
    13  C   -0.071604
    14  H    0.034910
    15  N   -0.433368
    16  C    0.168247
    17  C   -0.177138
    18  C   -0.003719
    19  C    0.148574
    20  C    0.110101
    21  C    0.012597
    22  O   -0.248669
    23  C    0.062391
    24  N   -0.341200
    25  C    0.041347
    26  C   -0.028313
    27  C   -0.024132
    28  C    0.074841
    29  C    0.076037
    30  C    0.034870
    31  C   -0.005117
    32  N   -0.310289
    33  C    0.079724
    34  C   -0.169944
    35  C    0.008132
    36  C    0.081968
    37  C    0.127416
    38  C    0.045382
    39  O   -0.188769
    40  C   -0.005019
    41  C    0.213264
    42  O   -0.259358
    43  O   -0.304208
    44  C    0.157920
    45  H   -0.017295
    46  H   -0.015990
    47  H   -0.040873
    48  H    0.001084
    49  H   -0.004030
    50  H    0.025599
    51  H    0.016814
    52  H    0.016975
    53  H    0.010758
    54  H    0.042505
    55  H    0.018556
    56  H    0.018368
    57  H    0.005861
    58  H    0.027349
    59  H    0.039787
    60  H    0.037408
    61  H    0.036481
    62  H    0.031478
    63  H    0.017586
    64  H    0.009561
    65  H    0.023821
    66  H    0.012339
    67  H    0.004971
    68  H    0.007167
    69  H    0.004735
    70  H    0.010204
    71  H    0.021574
    72  H    0.026536
    73  H    0.047089
    74  H    0.009719
    75  H    0.046272
    76  H    0.035549
    77  H    0.043440
    78  H    0.046559
    79  H    0.052333
    80  Mg   0.837367
    81  C   -0.016903
    82  C   -0.087633
    83  C   -0.045562
    84  C   -0.064960
    85  N   -0.254526
    86  C   -0.050216
    87  C   -0.015111
    88  C   -0.090396
    89  C    0.045506
    90  C    0.114284
    91  C    0.062589
    92  C   -0.077592
    93  H    0.033966
    94  N   -0.423621
    95  C    0.162606
    96  C   -0.174106
    97  C   -0.007708
    98  C    0.152255
    99  C    0.099046
   100  C    0.015420
   101  O   -0.253887
   102  C    0.060215
   103  N   -0.350048
   104  C    0.037700
   105  C   -0.019878
   106  C   -0.034636
   107  C    0.088616
   108  C    0.073722
   109  C    0.034843
   110  C   -0.007602
   111  N   -0.323949
   112  C    0.077990
   113  C   -0.163550
   114  C    0.002035
   115  C    0.095872
   116  C    0.131581
   117  C    0.042055
   118  O   -0.188612
   119  C    0.000989
   120  C    0.211192
   121  O   -0.251298
   122  O   -0.305576
   123  C    0.152174
   124  H   -0.018303
   125  H   -0.015724
   126  H   -0.040910
   127  H   -0.000895
   128  H   -0.004155
   129  H    0.022176
   130  H    0.014869
   131  H    0.016594
   132  H    0.013823
   133  H    0.037380
   134  H    0.020819
   135  H    0.019550
   136  H    0.009849
   137  H    0.030097
   138  H    0.040676
   139  H    0.042001
   140  H    0.036167
   141  H    0.033211
   142  H    0.014232
   143  H    0.012152
   144  H    0.024795
   145  H    0.011907
   146  H    0.005490
   147  H    0.005944
   148  H    0.003408
   149  H    0.010897
   150  H    0.017578
   151  H    0.030208
   152  H    0.045551
   153  H    0.008198
   154  H    0.046626
   155  H    0.034847
   156  H    0.043665
   157  H    0.049380
   158  H    0.053290
 Sum of Mulliken charges =  -0.00000
 Mulliken charges with hydrogens summed into heavy atoms:
               1
     1  Mg   0.836370
     2  C   -0.004026
     3  C   -0.111677
     4  C   -0.061342
     5  C   -0.104308
     6  N   -0.256883
     7  C   -0.052978
     8  C   -0.012722
     9  C   -0.090955
    10  C    0.046003
    11  C    0.164097
    12  C    0.106764
    13  C    0.000229
    15  N   -0.433368
    16  C    0.168247
    17  C   -0.177138
    18  C   -0.003719
    19  C    0.148574
    20  C    0.183098
    21  C    0.012597
    22  O   -0.248669
    23  C    0.167757
    24  N   -0.341200
    25  C    0.041347
    26  C   -0.010727
    27  C   -0.014571
    28  C    0.074841
    29  C    0.117168
    30  C    0.046772
    31  C    0.053198
    32  N   -0.310289
    33  C    0.079724
    34  C   -0.169944
    35  C    0.008132
    36  C    0.081968
    37  C    0.230495
    38  C    0.045382
    39  O   -0.188769
    40  C    0.030529
    41  C    0.213264
    42  O   -0.259358
    43  O   -0.304208
    44  C    0.300251
    80  Mg   0.837367
    81  C   -0.016903
    82  C   -0.105936
    83  C   -0.061286
    84  C   -0.105870
    85  N   -0.254526
    86  C   -0.050216
    87  C   -0.016005
    88  C   -0.094550
    89  C    0.045506
    90  C    0.167923
    91  C    0.113792
    92  C   -0.003257
    94  N   -0.423621
    95  C    0.162606
    96  C   -0.174106
    97  C   -0.007708
    98  C    0.152255
    99  C    0.179669
   100  C    0.015420
   101  O   -0.253887
   102  C    0.171594
   103  N   -0.350048
   104  C    0.037700
   105  C   -0.005645
   106  C   -0.022484
   107  C    0.088616
   108  C    0.115914
   109  C    0.044195
   110  C    0.051080
   111  N   -0.323949
   112  C    0.077990
   113  C   -0.163550
   114  C    0.002035
   115  C    0.095872
   116  C    0.231956
   117  C    0.042055
   118  O   -0.188612
   119  C    0.035836
   120  C    0.211192
   121  O   -0.251298
   122  O   -0.305576
   123  C    0.298509
 Electronic spatial extent (au):  <R**2>=         157779.7797
 Charge=             -0.0000 electrons
 Dipole moment (field-independent basis, Debye):
    X=              5.2529    Y=              2.8112    Z=              1.9028  Tot=              6.2544
 Quadrupole moment (field-independent basis, Debye-Ang):
   XX=           -550.7312   YY=           -469.7849   ZZ=           -515.3548
   XY=             14.5313   XZ=             52.6060   YZ=             34.5448
 Traceless Quadrupole moment (field-independent basis, Debye-Ang):
   XX=            -38.7742   YY=             42.1720   ZZ=             -3.3979
   XY=             14.5313   XZ=             52.6060   YZ=             34.5448
 Octapole moment (field-independent basis, Debye-Ang**2):
  XXX=           1142.5237  YYY=            258.4982  ZZZ=            208.3783  XYY=           -235.8640
  XXY=           -135.4951  XXZ=            -79.0830  XZZ=             42.2444  YZZ=              5.0485
  YYZ=            -54.6962  XYZ=            213.4332
 Hexadecapole moment (field-independent basis, Debye-Ang**3):
 XXXX=        -174318.8745 YYYY=         -33623.3265 ZZZZ=         -17603.2688 XXXY=           2330.1233
 XXXZ=           3811.8339 YYYX=            462.6861 YYYZ=            479.8987 ZZZX=           1232.3558
 ZZZY=            538.8511 XXYY=         -29446.8345 XXZZ=         -30263.1534 YYZZ=          -9192.4322
 XXYZ=           2313.3193 YYXZ=           -886.5412 ZZXY=           -474.8864
 N-N= 1.433907200862D+04 E-N=-3.815895791039D+04  KE= 4.028802040140D+03
 Leave Link  601 at Sat Sep 11 03:24:04 2021, MaxMem= 23488102400 cpu:              16.2 elap:               0.8
 (Enter /sw/apps/gaussian-16.0/g16/l9999.exe)
 1\1\GINC-BP1-COMPUTE00105\SP\RCAM-B3LYP TD-FC\def2SVP\C68H72Mg2N8O8\OF
 15641\11-Sep-2021\0\\#p cam-b3lyp/Def2SVP td=(nstates=5)\\TDDFT excite
 d states in gaussian\\0,1\Mg,0,0.,0.,0.\C,0,-0.217,-2.218,2.801\C,0,-1
 .255,2.442,2.026\C,0,-0.245,1.85,-2.564\C,0,0.146,-2.824,-2.037\N,0,-0
 .617,-0.009,2.126\C,0,-0.594,-0.908,3.105\C,0,-0.936,-0.309,4.502\C,0,
 -1.773,0.964,4.032\C,0,-1.155,1.168,2.66\C,0,-3.263,0.685,3.863\C,0,0.
 345,0.11,5.299\C,0,0.124,0.397,6.787\H,0,1.168,0.033,7.733\N,0,-0.185,
 1.961,-0.152\C,0,-0.703,2.8,0.777\C,0,-0.62,4.156,0.193\C,0,-0.187,4.0
 15,-1.225\C,0,-0.214,2.583,-1.38\C,0,-0.887,5.406,0.974\C,0,0.181,5.01
 3,-2.277\O,0,0.303,4.69,-3.508\C,0,0.31,6.414,-1.837\N,0,-0.265,-0.413
 ,-2.029\C,0,-0.279,0.569,-2.937\C,0,-0.196,0.024,-4.332\C,0,0.124,-1.5
 33,-4.18\C,0,0.086,-1.632,-2.635\C,0,-1.451,0.205,-5.197\C,0,1.373,-2.
 07,-4.923\C,0,2.626,-1.49,-4.306\N,0,0.15,-2.144,0.303\C,0,0.173,-3.13
 6,-0.688\C,0,0.173,-4.438,0.004\C,0,0.133,-4.111,1.358\C,0,0.083,-2.69
 5,1.502\C,0,0.149,-5.715,-0.623\C,0,0.096,-4.629,2.716\O,0,0.208,-5.74
 7,3.221\C,0,-0.255,-3.428,3.701\C,0,0.717,-3.482,4.848\O,0,1.931,-3.25
 5,4.669\O,0,0.038,-3.556,6.003\C,0,0.943,-3.583,7.183\H,0,-1.859,3.22,
 2.497\H,0,-0.218,2.453,-3.474\H,0,0.276,-3.747,-2.605\H,0,-1.554,-0.94
 9,5.132\H,0,-1.585,1.831,4.665\H,0,-3.484,-0.377,3.969\H,0,-3.511,1.02
 7,2.858\H,0,-3.852,1.301,4.543\H,0,0.669,1.096,4.966\H,0,1.13,-0.639,5
 .189\H,0,-0.844,0.026,7.125\H,0,0.062,1.477,6.921\H,0,-1.344,5.186,1.9
 38\H,0,-1.651,5.963,0.432\H,0,0.007,6.02,1.084\H,0,-0.635,6.744,-1.405
 \H,0,0.665,6.97,-2.704\H,0,1.048,6.466,-1.036\H,0,0.608,0.501,-4.891\H
 ,0,-0.692,-2.156,-4.547\H,0,-1.267,0.74,-6.129\H,0,-2.204,0.714,-4.596
 \H,0,-1.967,-0.72,-5.453\H,0,1.356,-1.759,-5.967\H,0,1.452,-3.157,-4.9
 02\H,0,2.714,-0.522,-4.798\H,0,3.487,-2.121,-4.529\H,0,2.495,-1.303,-3
 .24\H,0,0.867,-6.333,-0.084\H,0,0.404,-5.642,-1.68\H,0,-0.891,-5.999,-
 0.463\H,0,-1.283,-3.581,4.028\H,0,0.698,-4.478,7.755\H,0,0.833,-2.619,
 7.68\H,0,2.,-3.754,6.976\Mg,0,13.1321,1.18897,1.00379\C,0,15.30118,2.1
 1396,3.70908\C,0,11.07125,-0.21235,3.3327\C,0,11.43063,-0.03058,-1.380
 56\C,0,15.8461,1.62648,-1.1383\N,0,13.27577,1.0354,3.20561\C,0,14.1147
 ,1.47799,4.13009\C,0,13.61792,1.29618,5.58945\C,0,12.60262,0.07572,5.3
 4756\C,0,12.26208,0.32821,3.88026\C,0,13.26412,-1.28805,5.45653\C,0,12
 .87118,2.56622,6.12925\C,0,12.63153,2.57745,7.6406\H,0,12.69916,3.8539
 7,8.34659\N,0,11.27669,0.48514,0.97881\C,0,10.58582,-0.025,2.01984\C,0
 ,9.27669,-0.42139,1.47835\C,0,9.31087,-0.25543,-0.00016\C,0,10.71145,0
 .05993,-0.19771\C,0,8.12396,-0.82591,2.35071\C,0,8.25999,-0.37497,-1.0
 6203\O,0,8.56268,-0.42237,-2.30661\C,0,6.8735,-0.52886,-0.59787\N,0,13
 .62106,0.64126,-0.94127\C,0,12.68114,0.18659,-1.78847\C,0,13.20768,0.1
 1912,-3.20218\C,0,14.62715,0.85499,-3.16753\C,0,14.71975,1.1551,-1.655
 33\C,0,13.37652,-1.28469,-3.78288\C,0,14.83807,2.0247,-4.16751\C,0,13.
 94248,3.1858,-3.79991\N,0,15.15041,1.93877,1.18357\C,0,16.12776,2.0096
 2,0.16679\C,0,17.37781,2.48196,0.79663\C,0,17.04452,2.63232,2.15118\C,
 0,15.68847,2.25937,2.35497\C,0,18.62415,2.66796,0.13471\C,0,17.53448,3
 .0116,3.45686\O,0,18.58095,3.49697,3.88471\C,0,16.46327,2.57221,4.5458
 3\C,0,16.24237,3.73404,5.47527\O,0,15.72459,4.78585,5.06029\O,0,16.476
 29,3.33757,6.73957\C,0,16.2596,4.45251,7.69967\H,0,10.47063,-0.87825,3
 .95294\H,0,10.85832,-0.34116,-2.25776\H,0,16.70985,1.88198,-1.75581\H,
 0,14.38502,1.0069,6.29772\H,0,11.71473,0.17185,5.96706\H,0,14.33588,-1
 .20868,5.56225\H,0,13.01172,-1.81122,4.54349\H,0,12.81046,-1.86325,6.2
 6873\H,0,11.83264,2.54875,5.77446\H,0,13.384,3.46223,5.83803\H,0,13.23
 151,1.81948,8.15873\H,0,11.5982,2.27703,7.83034\H,0,8.44647,-1.01266,3
 .38246\H,0,7.77938,-1.80218,1.99292\H,0,7.29267,-0.11915,2.30479\H,0,6
 .79829,-1.41532,0.02741\H,0,6.25928,-0.50835,-1.50019\H,0,6.62032,0.32
 701,0.03774\H,0,12.55381,0.6488,-3.88408\H,0,15.45019,0.16391,-3.40173
 \H,0,12.81394,-1.4387,-4.72301\H,0,13.06981,-2.00295,-3.03417\H,0,14.4
 0496,-1.58202,-3.98066\H,0,14.54987,1.71754,-5.17585\H,0,15.8652,2.370
 41,-4.21739\H,0,12.98725,2.91602,-4.26017\H,0,14.33094,4.11478,-4.2123
 9\H,0,13.78448,3.23325,-2.7162\H,0,19.02969,3.60513,0.49213\H,0,18.503
 24,2.6728,-0.94655\H,0,19.16408,1.78357,0.48342\H,0,16.86377,1.70166,5
 .0667\H,0,17.18361,4.56218,8.27575\H,0,15.34389,4.18909,8.26166\H,0,16
 .145,5.44999,7.29181\\Version=ES64L-G16RevA.03\State=1-A\HF=-4069.8122
 78\RMSD=6.403e-09\PG=C01 [X(C68H72Mg2N8O8)]\\@


 TOWERING GENIUS DISDAINS A BEATEN PATH.  IT SEEKS 
 REGIONS HITHERTO UNEXPLORED.

                                -- ABRAHAM LINCOLN
 Job cpu time:       0 days 14 hours 14 minutes 16.4 seconds.
 Elapsed time:       0 days  0 hours 36 minutes 12.8 seconds.
 File lengths (MBytes):  RWF=  13225 Int=      0 D2E=      0 Chk=    574 Scr=      1
 Normal termination of Gaussian 16 at Sat Sep 11 03:24:05 2021.
