 Entering Gaussian System, Link 0=g16
 Initial command:
 /sw/apps/gaussian-16.0/g16/l1.exe "/tmp/Gau-114569.inp" -scrdir="/tmp/"
 Entering Link 1 = /sw/apps/gaussian-16.0/g16/l1.exe PID=    114570.
  
 Copyright (c) 1988,1990,1992,1993,1995,1998,2003,2009,2016,
            Gaussian, Inc.  All Rights Reserved.
  
 This is part of the Gaussian(R) 16 program.  It is based on
 the Gaussian(R) 09 system (copyright 2009, Gaussian, Inc.),
 the Gaussian(R) 03 system (copyright 2003, Gaussian, Inc.),
 the Gaussian(R) 98 system (copyright 1998, Gaussian, Inc.),
 the Gaussian(R) 94 system (copyright 1995, Gaussian, Inc.),
 the Gaussian 92(TM) system (copyright 1992, Gaussian, Inc.),
 the Gaussian 90(TM) system (copyright 1990, Gaussian, Inc.),
 the Gaussian 88(TM) system (copyright 1988, Gaussian, Inc.),
 the Gaussian 86(TM) system (copyright 1986, Carnegie Mellon
 University), and the Gaussian 82(TM) system (copyright 1983,
 Carnegie Mellon University). Gaussian is a federally registered
 trademark of Gaussian, Inc.
  
 This software contains proprietary and confidential information,
 including trade secrets, belonging to Gaussian, Inc.
  
 This software is provided under written license and may be
 used, copied, transmitted, or stored only in accord with that
 written license.
  
 The following legend is applicable only to US Government
 contracts under FAR:
  
                    RESTRICTED RIGHTS LEGEND
  
 Use, reproduction and disclosure by the US Government is
 subject to restrictions as set forth in subparagraphs (a)
 and (c) of the Commercial Computer Software - Restricted
 Rights clause in FAR 52.227-19.
  
 Gaussian, Inc.
 340 Quinnipiac St., Bldg. 40, Wallingford CT 06492
  
  
 ---------------------------------------------------------------
 Warning -- This program may not be used in any manner that
 competes with the business of Gaussian, Inc. or will provide
 assistance to any competitor of Gaussian, Inc.  The licensee
 of this program is prohibited from giving any competitor of
 Gaussian, Inc. access to this program.  By using this program,
 the user acknowledges that Gaussian, Inc. is engaged in the
 business of creating and licensing software in the field of
 computational chemistry and represents and warrants to the
 licensee that it is not a competitor of Gaussian, Inc. and that
 it will not use this program in any manner prohibited above.
 ---------------------------------------------------------------
  

 Cite this work as:
 Gaussian 16, Revision A.03,
 M. J. Frisch, G. W. Trucks, H. B. Schlegel, G. E. Scuseria, 
 M. A. Robb, J. R. Cheeseman, G. Scalmani, V. Barone, 
 G. A. Petersson, H. Nakatsuji, X. Li, M. Caricato, A. V. Marenich, 
 J. Bloino, B. G. Janesko, R. Gomperts, B. Mennucci, H. P. Hratchian, 
 J. V. Ortiz, A. F. Izmaylov, J. L. Sonnenberg, D. Williams-Young, 
 F. Ding, F. Lipparini, F. Egidi, J. Goings, B. Peng, A. Petrone, 
 T. Henderson, D. Ranasinghe, V. G. Zakrzewski, J. Gao, N. Rega, 
 G. Zheng, W. Liang, M. Hada, M. Ehara, K. Toyota, R. Fukuda, 
 J. Hasegawa, M. Ishida, T. Nakajima, Y. Honda, O. Kitao, H. Nakai, 
 T. Vreven, K. Throssell, J. A. Montgomery, Jr., J. E. Peralta, 
 F. Ogliaro, M. J. Bearpark, J. J. Heyd, E. N. Brothers, K. N. Kudin, 
 V. N. Staroverov, T. A. Keith, R. Kobayashi, J. Normand, 
 K. Raghavachari, A. P. Rendell, J. C. Burant, S. S. Iyengar, 
 J. Tomasi, M. Cossi, J. M. Millam, M. Klene, C. Adamo, R. Cammi, 
 J. W. Ochterski, R. L. Martin, K. Morokuma, O. Farkas, 
 J. B. Foresman, and D. J. Fox, Gaussian, Inc., Wallingford CT, 2016.
 
 ******************************************
 Gaussian 16:  ES64L-G16RevA.03 25-Dec-2016
                12-Sep-2021 
 ******************************************
 %nproc=24
 Will use up to   24 processors via shared memory.
 %mem=175gb
 -----------------------------------
 #p cam-b3lyp/Def2SVP td=(nstates=5)
 -----------------------------------
 1/38=1,172=1/1;
 2/12=2,17=6,18=5,40=1/2;
 3/5=43,7=101,11=9,25=1,30=1,74=-40/1,2,3,8;
 4//1;
 5/5=2,38=5/2;
 8/6=1,10=1,108=5/1;
 9/41=5,42=1,70=2/14;
 6/7=2,8=2,9=2,10=2/1;
 99/5=1,9=1/99;
 Leave Link    1 at Sun Sep 12 11:59:37 2021, MaxMem= 23488102400 cpu:               0.6 elap:               0.0
 (Enter /sw/apps/gaussian-16.0/g16/l101.exe)
 --------------------------------
 TDDFT excited states in gaussian
 --------------------------------
 Symbolic Z-matrix:
 Charge =  0 Multiplicity = 1
 Mg                    0.        0.        0. 
 C                    -0.217    -2.218     2.801 
 C                    -1.255     2.442     2.026 
 C                    -0.245     1.85     -2.564 
 C                     0.146    -2.824    -2.037 
 N                    -0.617    -0.009     2.126 
 C                    -0.594    -0.908     3.105 
 C                    -0.936    -0.309     4.502 
 C                    -1.773     0.964     4.032 
 C                    -1.155     1.168     2.66 
 C                    -3.263     0.685     3.863 
 C                     0.345     0.11      5.299 
 C                     0.124     0.397     6.787 
 H                     1.168     0.033     7.733 
 N                    -0.185     1.961    -0.152 
 C                    -0.703     2.8       0.777 
 C                    -0.62      4.156     0.193 
 C                    -0.187     4.015    -1.225 
 C                    -0.214     2.583    -1.38 
 C                    -0.887     5.406     0.974 
 C                     0.181     5.013    -2.277 
 O                     0.303     4.69     -3.508 
 C                     0.31      6.414    -1.837 
 N                    -0.265    -0.413    -2.029 
 C                    -0.279     0.569    -2.937 
 C                    -0.196     0.024    -4.332 
 C                     0.124    -1.533    -4.18 
 C                     0.086    -1.632    -2.635 
 C                    -1.451     0.205    -5.197 
 C                     1.373    -2.07     -4.923 
 C                     2.626    -1.49     -4.306 
 N                     0.15     -2.144     0.303 
 C                     0.173    -3.136    -0.688 
 C                     0.173    -4.438     0.004 
 C                     0.133    -4.111     1.358 
 C                     0.083    -2.695     1.502 
 C                     0.149    -5.715    -0.623 
 C                     0.096    -4.629     2.716 
 O                     0.208    -5.747     3.221 
 C                    -0.255    -3.428     3.701 
 C                     0.717    -3.482     4.848 
 O                     1.931    -3.255     4.669 
 O                     0.038    -3.556     6.003 
 C                     0.943    -3.583     7.183 
 H                    -1.859     3.22      2.497 
 H                    -0.218     2.453    -3.474 
 H                     0.276    -3.747    -2.605 
 H                    -1.554    -0.949     5.132 
 H                    -1.585     1.831     4.665 
 H                    -3.484    -0.377     3.969 
 H                    -3.511     1.027     2.858 
 H                    -3.852     1.301     4.543 
 H                     0.669     1.096     4.966 
 H                     1.13     -0.639     5.189 
 H                    -0.844     0.026     7.125 
 H                     0.062     1.477     6.921 
 H                    -1.344     5.186     1.938 
 H                    -1.651     5.963     0.432 
 H                     0.007     6.02      1.084 
 H                    -0.635     6.744    -1.405 
 H                     0.665     6.97     -2.704 
 H                     1.048     6.466    -1.036 
 H                     0.608     0.501    -4.891 
 H                    -0.692    -2.156    -4.547 
 H                    -1.267     0.74     -6.129 
 H                    -2.204     0.714    -4.596 
 H                    -1.967    -0.72     -5.453 
 H                     1.356    -1.759    -5.967 
 H                     1.452    -3.157    -4.902 
 H                     2.714    -0.522    -4.798 
 H                     3.487    -2.121    -4.529 
 H                     2.495    -1.303    -3.24 
 H                     0.867    -6.333    -0.084 
 H                     0.404    -5.642    -1.68 
 H                    -0.891    -5.999    -0.463 
 H                    -1.283    -3.581     4.028 
 H                     0.698    -4.478     7.755 
 H                     0.833    -2.619     7.68 
 H                     2.       -3.754     6.976 
 Mg                    31.52638   2.841     2.387 
 C                     32.38964   0.15022   0.17486 
 C                     32.62265   4.98228  -0.03121 
 C                     31.19989   5.20807   4.47454 
 C                     31.58146   0.53      4.99505 
 N                     32.37401   2.49096   0.37422 
 C                     32.59784   1.42835  -0.38413 
 C                     32.99474   1.75547  -1.84872 
 C                     33.58037   3.23239  -1.615 
 C                     32.78821   3.61468  -0.36639 
 C                     35.0591   3.24502  -1.26494 
 C                     31.75736   1.77421  -2.81337 
 C                     32.10396   1.78059  -4.30387 
 H                     31.23301   1.0546   -5.22411 
 N                     31.39551   4.79995   2.09725 
 C                     31.87579   5.50138   1.04911 
 C                     31.54002   6.90807   1.31861 
 C                     30.96801   6.99946   2.68944 
 C                     31.1897   5.64628   3.15832 
 C                     31.69535   7.9927    0.29251 
 C                     30.3387   8.1227    3.45657 
 O                     30.12812   8.04146   4.71827 
 C                     30.06197   9.35565   2.70507 
 N                     31.61487   2.91242   4.46291 
 C                     31.38462   4.05947   5.12562 
 C                     31.2296   3.8118    6.60718 
 C                     31.16293   2.22251   6.77242 
 C                     31.39047   1.80552   5.30282 
 C                     32.34212   4.36927   7.49483 
 C                     29.93213   1.64398   7.52281 
 C                     28.67899   1.86598   6.70687 
 N                     31.72805   0.69693   2.56128 
 C                     31.74991  -0.06387   3.75073 
 C                     32.02271  -1.46412   3.36695 
 C                     32.1646  -1.4166    1.97192 
 C                     32.01241  -0.07777   1.5204 
 C                     32.15703  -2.56138   4.26367 
 C                     32.41906  -2.19291   0.77974 
 O                     32.53963  -3.3923    0.53341 
 C                     32.70162  -1.19342  -0.4234 
 C                     31.88274  -1.64258  -1.60247 
 O                     30.64046  -1.60171  -1.56157 
 O                     32.69713  -1.83912  -2.65533 
 C                     31.92978  -2.27503  -3.85241 
 H                     33.14829   5.72961  -0.62625 
 H                     30.98109   5.96954   5.22671 
 H                     31.5172  -0.26617   5.73981 
 H                     33.76114   1.11332  -2.26591 
 H                     33.33031   3.89189  -2.44197 
 H                     35.44608   2.24812  -1.11469 
 H                     35.14088   3.82385  -0.35427 
 H                     35.62147   3.79632  -2.02398 
 H                     31.25542   2.74701  -2.73303 
 H                     31.09537   0.95765  -2.59981 
 H                     33.15442   1.5216   -4.4839 
 H                     32.01237   2.80351  -4.67706 
 H                     32.29326   7.65462  -0.56282 
 H                     32.29989   8.78263   0.75123 
 H                     30.73877   8.4165   -0.02054 
 H                     30.98867   9.73686   2.28275 
 H                     29.53157   10.00898   3.40056 
 H                     29.40827   9.11123   1.86035 
 H                     30.30716   4.24254   6.97684 
 H                     32.019    1.83611   7.34486 
 H                     31.97243   5.06026   8.27581 
 H                     33.06795   4.86328   6.86263 
 H                     32.94847   3.61988   8.00076 
 H                     29.7837   2.17019   8.46898 
 H                     30.02369   0.58768   7.7527 
 H                     28.39765   2.89231   6.96098 
 H                     27.90293   1.16062   6.9971 
 H                     28.89879   1.84065   5.63323 
 H                     31.61048  -3.3876    3.82876 
 H                     31.78213  -2.31332   5.25447 
 H                     33.24291  -2.68812   4.25552 
 H                     33.77168  -1.22597  -0.63192 
 H                     32.37238  -3.2173   -4.18992 
 H                     31.96376  -1.42203  -4.55596 
 H                     30.89643  -2.5671   -3.70633 
 
 ITRead=  0  0  0  0  0  0  0  0  0  0  0  0  0  0  0  0  0  0  0  0
 ITRead=  0  0  0  0  0  0  0  0  0  0  0  0  0  0  0  0  0  0  0  0
 ITRead=  0  0  0  0  0  0  0  0  0  0  0  0  0  0  0  0  0  0  0  0
 ITRead=  0  0  0  0  0  0  0  0  0  0  0  0  0  0  0  0  0  0  0  0
 ITRead=  0  0  0  0  0  0  0  0  0  0  0  0  0  0  0  0  0  0  0  0
 ITRead=  0  0  0  0  0  0  0  0  0  0  0  0  0  0  0  0  0  0  0  0
 ITRead=  0  0  0  0  0  0  0  0  0  0  0  0  0  0  0  0  0  0  0  0
 ITRead=  0  0  0  0  0  0  0  0  0  0  0  0  0  0  0  0  0  0
 MicOpt= -1 -1 -1 -1 -1 -1 -1 -1 -1 -1 -1 -1 -1 -1 -1 -1 -1 -1 -1 -1
 MicOpt= -1 -1 -1 -1 -1 -1 -1 -1 -1 -1 -1 -1 -1 -1 -1 -1 -1 -1 -1 -1
 MicOpt= -1 -1 -1 -1 -1 -1 -1 -1 -1 -1 -1 -1 -1 -1 -1 -1 -1 -1 -1 -1
 MicOpt= -1 -1 -1 -1 -1 -1 -1 -1 -1 -1 -1 -1 -1 -1 -1 -1 -1 -1 -1 -1
 MicOpt= -1 -1 -1 -1 -1 -1 -1 -1 -1 -1 -1 -1 -1 -1 -1 -1 -1 -1 -1 -1
 MicOpt= -1 -1 -1 -1 -1 -1 -1 -1 -1 -1 -1 -1 -1 -1 -1 -1 -1 -1 -1 -1
 MicOpt= -1 -1 -1 -1 -1 -1 -1 -1 -1 -1 -1 -1 -1 -1 -1 -1 -1 -1 -1 -1
 MicOpt= -1 -1 -1 -1 -1 -1 -1 -1 -1 -1 -1 -1 -1 -1 -1 -1 -1 -1
 NAtoms=    158 NQM=      158 NQMF=       0 NMMI=      0 NMMIF=      0
                NMic=       0 NMicF=      0.
                    Isotopes and Nuclear Properties:
 (Nuclear quadrupole moments (NQMom) in fm**2, nuclear magnetic moments (NMagM)
  in nuclear magnetons)

  Atom         1           2           3           4           5           6           7           8           9          10
 IAtWgt=          24          12          12          12          12          14          12          12          12          12
 AtmWgt=  23.9850450  12.0000000  12.0000000  12.0000000  12.0000000  14.0030740  12.0000000  12.0000000  12.0000000  12.0000000
 NucSpn=           0           0           0           0           0           2           0           0           0           0
 AtZEff=  -0.0000000  -0.0000000  -0.0000000  -0.0000000  -0.0000000  -0.0000000  -0.0000000  -0.0000000  -0.0000000  -0.0000000
 NQMom=    0.0000000   0.0000000   0.0000000   0.0000000   0.0000000   2.0440000   0.0000000   0.0000000   0.0000000   0.0000000
 NMagM=    0.0000000   0.0000000   0.0000000   0.0000000   0.0000000   0.4037610   0.0000000   0.0000000   0.0000000   0.0000000
 AtZNuc=  12.0000000   6.0000000   6.0000000   6.0000000   6.0000000   7.0000000   6.0000000   6.0000000   6.0000000   6.0000000

  Atom        11          12          13          14          15          16          17          18          19          20
 IAtWgt=          12          12          12           1          14          12          12          12          12          12
 AtmWgt=  12.0000000  12.0000000  12.0000000   1.0078250  14.0030740  12.0000000  12.0000000  12.0000000  12.0000000  12.0000000
 NucSpn=           0           0           0           1           2           0           0           0           0           0
 AtZEff=  -0.0000000  -0.0000000  -0.0000000  -0.0000000  -0.0000000  -0.0000000  -0.0000000  -0.0000000  -0.0000000  -0.0000000
 NQMom=    0.0000000   0.0000000   0.0000000   0.0000000   2.0440000   0.0000000   0.0000000   0.0000000   0.0000000   0.0000000
 NMagM=    0.0000000   0.0000000   0.0000000   2.7928460   0.4037610   0.0000000   0.0000000   0.0000000   0.0000000   0.0000000
 AtZNuc=   6.0000000   6.0000000   6.0000000   1.0000000   7.0000000   6.0000000   6.0000000   6.0000000   6.0000000   6.0000000

  Atom        21          22          23          24          25          26          27          28          29          30
 IAtWgt=          12          16          12          14          12          12          12          12          12          12
 AtmWgt=  12.0000000  15.9949146  12.0000000  14.0030740  12.0000000  12.0000000  12.0000000  12.0000000  12.0000000  12.0000000
 NucSpn=           0           0           0           2           0           0           0           0           0           0
 AtZEff=  -0.0000000  -0.0000000  -0.0000000  -0.0000000  -0.0000000  -0.0000000  -0.0000000  -0.0000000  -0.0000000  -0.0000000
 NQMom=    0.0000000   0.0000000   0.0000000   2.0440000   0.0000000   0.0000000   0.0000000   0.0000000   0.0000000   0.0000000
 NMagM=    0.0000000   0.0000000   0.0000000   0.4037610   0.0000000   0.0000000   0.0000000   0.0000000   0.0000000   0.0000000
 AtZNuc=   6.0000000   8.0000000   6.0000000   7.0000000   6.0000000   6.0000000   6.0000000   6.0000000   6.0000000   6.0000000

  Atom        31          32          33          34          35          36          37          38          39          40
 IAtWgt=          12          14          12          12          12          12          12          12          16          12
 AtmWgt=  12.0000000  14.0030740  12.0000000  12.0000000  12.0000000  12.0000000  12.0000000  12.0000000  15.9949146  12.0000000
 NucSpn=           0           2           0           0           0           0           0           0           0           0
 AtZEff=  -0.0000000  -0.0000000  -0.0000000  -0.0000000  -0.0000000  -0.0000000  -0.0000000  -0.0000000  -0.0000000  -0.0000000
 NQMom=    0.0000000   2.0440000   0.0000000   0.0000000   0.0000000   0.0000000   0.0000000   0.0000000   0.0000000   0.0000000
 NMagM=    0.0000000   0.4037610   0.0000000   0.0000000   0.0000000   0.0000000   0.0000000   0.0000000   0.0000000   0.0000000
 AtZNuc=   6.0000000   7.0000000   6.0000000   6.0000000   6.0000000   6.0000000   6.0000000   6.0000000   8.0000000   6.0000000

  Atom        41          42          43          44          45          46          47          48          49          50
 IAtWgt=          12          16          16          12           1           1           1           1           1           1
 AtmWgt=  12.0000000  15.9949146  15.9949146  12.0000000   1.0078250   1.0078250   1.0078250   1.0078250   1.0078250   1.0078250
 NucSpn=           0           0           0           0           1           1           1           1           1           1
 AtZEff=  -0.0000000  -0.0000000  -0.0000000  -0.0000000  -0.0000000  -0.0000000  -0.0000000  -0.0000000  -0.0000000  -0.0000000
 NQMom=    0.0000000   0.0000000   0.0000000   0.0000000   0.0000000   0.0000000   0.0000000   0.0000000   0.0000000   0.0000000
 NMagM=    0.0000000   0.0000000   0.0000000   0.0000000   2.7928460   2.7928460   2.7928460   2.7928460   2.7928460   2.7928460
 AtZNuc=   6.0000000   8.0000000   8.0000000   6.0000000   1.0000000   1.0000000   1.0000000   1.0000000   1.0000000   1.0000000

  Atom        51          52          53          54          55          56          57          58          59          60
 IAtWgt=           1           1           1           1           1           1           1           1           1           1
 AtmWgt=   1.0078250   1.0078250   1.0078250   1.0078250   1.0078250   1.0078250   1.0078250   1.0078250   1.0078250   1.0078250
 NucSpn=           1           1           1           1           1           1           1           1           1           1
 AtZEff=  -0.0000000  -0.0000000  -0.0000000  -0.0000000  -0.0000000  -0.0000000  -0.0000000  -0.0000000  -0.0000000  -0.0000000
 NQMom=    0.0000000   0.0000000   0.0000000   0.0000000   0.0000000   0.0000000   0.0000000   0.0000000   0.0000000   0.0000000
 NMagM=    2.7928460   2.7928460   2.7928460   2.7928460   2.7928460   2.7928460   2.7928460   2.7928460   2.7928460   2.7928460
 AtZNuc=   1.0000000   1.0000000   1.0000000   1.0000000   1.0000000   1.0000000   1.0000000   1.0000000   1.0000000   1.0000000

  Atom        61          62          63          64          65          66          67          68          69          70
 IAtWgt=           1           1           1           1           1           1           1           1           1           1
 AtmWgt=   1.0078250   1.0078250   1.0078250   1.0078250   1.0078250   1.0078250   1.0078250   1.0078250   1.0078250   1.0078250
 NucSpn=           1           1           1           1           1           1           1           1           1           1
 AtZEff=  -0.0000000  -0.0000000  -0.0000000  -0.0000000  -0.0000000  -0.0000000  -0.0000000  -0.0000000  -0.0000000  -0.0000000
 NQMom=    0.0000000   0.0000000   0.0000000   0.0000000   0.0000000   0.0000000   0.0000000   0.0000000   0.0000000   0.0000000
 NMagM=    2.7928460   2.7928460   2.7928460   2.7928460   2.7928460   2.7928460   2.7928460   2.7928460   2.7928460   2.7928460
 AtZNuc=   1.0000000   1.0000000   1.0000000   1.0000000   1.0000000   1.0000000   1.0000000   1.0000000   1.0000000   1.0000000

  Atom        71          72          73          74          75          76          77          78          79          80
 IAtWgt=           1           1           1           1           1           1           1           1           1          24
 AtmWgt=   1.0078250   1.0078250   1.0078250   1.0078250   1.0078250   1.0078250   1.0078250   1.0078250   1.0078250  23.9850450
 NucSpn=           1           1           1           1           1           1           1           1           1           0
 AtZEff=  -0.0000000  -0.0000000  -0.0000000  -0.0000000  -0.0000000  -0.0000000  -0.0000000  -0.0000000  -0.0000000  -0.0000000
 NQMom=    0.0000000   0.0000000   0.0000000   0.0000000   0.0000000   0.0000000   0.0000000   0.0000000   0.0000000   0.0000000
 NMagM=    2.7928460   2.7928460   2.7928460   2.7928460   2.7928460   2.7928460   2.7928460   2.7928460   2.7928460   0.0000000
 AtZNuc=   1.0000000   1.0000000   1.0000000   1.0000000   1.0000000   1.0000000   1.0000000   1.0000000   1.0000000  12.0000000

  Atom        81          82          83          84          85          86          87          88          89          90
 IAtWgt=          12          12          12          12          14          12          12          12          12          12
 AtmWgt=  12.0000000  12.0000000  12.0000000  12.0000000  14.0030740  12.0000000  12.0000000  12.0000000  12.0000000  12.0000000
 NucSpn=           0           0           0           0           2           0           0           0           0           0
 AtZEff=  -0.0000000  -0.0000000  -0.0000000  -0.0000000  -0.0000000  -0.0000000  -0.0000000  -0.0000000  -0.0000000  -0.0000000
 NQMom=    0.0000000   0.0000000   0.0000000   0.0000000   2.0440000   0.0000000   0.0000000   0.0000000   0.0000000   0.0000000
 NMagM=    0.0000000   0.0000000   0.0000000   0.0000000   0.4037610   0.0000000   0.0000000   0.0000000   0.0000000   0.0000000
 AtZNuc=   6.0000000   6.0000000   6.0000000   6.0000000   7.0000000   6.0000000   6.0000000   6.0000000   6.0000000   6.0000000

  Atom        91          92          93          94          95          96          97          98          99         100
 IAtWgt=          12          12           1          14          12          12          12          12          12          12
 AtmWgt=  12.0000000  12.0000000   1.0078250  14.0030740  12.0000000  12.0000000  12.0000000  12.0000000  12.0000000  12.0000000
 NucSpn=           0           0           1           2           0           0           0           0           0           0
 AtZEff=  -0.0000000  -0.0000000  -0.0000000  -0.0000000  -0.0000000  -0.0000000  -0.0000000  -0.0000000  -0.0000000  -0.0000000
 NQMom=    0.0000000   0.0000000   0.0000000   2.0440000   0.0000000   0.0000000   0.0000000   0.0000000   0.0000000   0.0000000
 NMagM=    0.0000000   0.0000000   2.7928460   0.4037610   0.0000000   0.0000000   0.0000000   0.0000000   0.0000000   0.0000000
 AtZNuc=   6.0000000   6.0000000   1.0000000   7.0000000   6.0000000   6.0000000   6.0000000   6.0000000   6.0000000   6.0000000

  Atom       101         102         103         104         105         106         107         108         109         110
 IAtWgt=          16          12          14          12          12          12          12          12          12          12
 AtmWgt=  15.9949146  12.0000000  14.0030740  12.0000000  12.0000000  12.0000000  12.0000000  12.0000000  12.0000000  12.0000000
 NucSpn=           0           0           2           0           0           0           0           0           0           0
 AtZEff=  -0.0000000  -0.0000000  -0.0000000  -0.0000000  -0.0000000  -0.0000000  -0.0000000  -0.0000000  -0.0000000  -0.0000000
 NQMom=    0.0000000   0.0000000   2.0440000   0.0000000   0.0000000   0.0000000   0.0000000   0.0000000   0.0000000   0.0000000
 NMagM=    0.0000000   0.0000000   0.4037610   0.0000000   0.0000000   0.0000000   0.0000000   0.0000000   0.0000000   0.0000000
 AtZNuc=   8.0000000   6.0000000   7.0000000   6.0000000   6.0000000   6.0000000   6.0000000   6.0000000   6.0000000   6.0000000

  Atom       111         112         113         114         115         116         117         118         119         120
 IAtWgt=          14          12          12          12          12          12          12          16          12          12
 AtmWgt=  14.0030740  12.0000000  12.0000000  12.0000000  12.0000000  12.0000000  12.0000000  15.9949146  12.0000000  12.0000000
 NucSpn=           2           0           0           0           0           0           0           0           0           0
 AtZEff=  -0.0000000  -0.0000000  -0.0000000  -0.0000000  -0.0000000  -0.0000000  -0.0000000  -0.0000000  -0.0000000  -0.0000000
 NQMom=    2.0440000   0.0000000   0.0000000   0.0000000   0.0000000   0.0000000   0.0000000   0.0000000   0.0000000   0.0000000
 NMagM=    0.4037610   0.0000000   0.0000000   0.0000000   0.0000000   0.0000000   0.0000000   0.0000000   0.0000000   0.0000000
 AtZNuc=   7.0000000   6.0000000   6.0000000   6.0000000   6.0000000   6.0000000   6.0000000   8.0000000   6.0000000   6.0000000

  Atom       121         122         123         124         125         126         127         128         129         130
 IAtWgt=          16          16          12           1           1           1           1           1           1           1
 AtmWgt=  15.9949146  15.9949146  12.0000000   1.0078250   1.0078250   1.0078250   1.0078250   1.0078250   1.0078250   1.0078250
 NucSpn=           0           0           0           1           1           1           1           1           1           1
 AtZEff=  -0.0000000  -0.0000000  -0.0000000  -0.0000000  -0.0000000  -0.0000000  -0.0000000  -0.0000000  -0.0000000  -0.0000000
 NQMom=    0.0000000   0.0000000   0.0000000   0.0000000   0.0000000   0.0000000   0.0000000   0.0000000   0.0000000   0.0000000
 NMagM=    0.0000000   0.0000000   0.0000000   2.7928460   2.7928460   2.7928460   2.7928460   2.7928460   2.7928460   2.7928460
 AtZNuc=   8.0000000   8.0000000   6.0000000   1.0000000   1.0000000   1.0000000   1.0000000   1.0000000   1.0000000   1.0000000

  Atom       131         132         133         134         135         136         137         138         139         140
 IAtWgt=           1           1           1           1           1           1           1           1           1           1
 AtmWgt=   1.0078250   1.0078250   1.0078250   1.0078250   1.0078250   1.0078250   1.0078250   1.0078250   1.0078250   1.0078250
 NucSpn=           1           1           1           1           1           1           1           1           1           1
 AtZEff=  -0.0000000  -0.0000000  -0.0000000  -0.0000000  -0.0000000  -0.0000000  -0.0000000  -0.0000000  -0.0000000  -0.0000000
 NQMom=    0.0000000   0.0000000   0.0000000   0.0000000   0.0000000   0.0000000   0.0000000   0.0000000   0.0000000   0.0000000
 NMagM=    2.7928460   2.7928460   2.7928460   2.7928460   2.7928460   2.7928460   2.7928460   2.7928460   2.7928460   2.7928460
 AtZNuc=   1.0000000   1.0000000   1.0000000   1.0000000   1.0000000   1.0000000   1.0000000   1.0000000   1.0000000   1.0000000

  Atom       141         142         143         144         145         146         147         148         149         150
 IAtWgt=           1           1           1           1           1           1           1           1           1           1
 AtmWgt=   1.0078250   1.0078250   1.0078250   1.0078250   1.0078250   1.0078250   1.0078250   1.0078250   1.0078250   1.0078250
 NucSpn=           1           1           1           1           1           1           1           1           1           1
 AtZEff=  -0.0000000  -0.0000000  -0.0000000  -0.0000000  -0.0000000  -0.0000000  -0.0000000  -0.0000000  -0.0000000  -0.0000000
 NQMom=    0.0000000   0.0000000   0.0000000   0.0000000   0.0000000   0.0000000   0.0000000   0.0000000   0.0000000   0.0000000
 NMagM=    2.7928460   2.7928460   2.7928460   2.7928460   2.7928460   2.7928460   2.7928460   2.7928460   2.7928460   2.7928460
 AtZNuc=   1.0000000   1.0000000   1.0000000   1.0000000   1.0000000   1.0000000   1.0000000   1.0000000   1.0000000   1.0000000

  Atom       151         152         153         154         155         156         157         158
 IAtWgt=           1           1           1           1           1           1           1           1
 AtmWgt=   1.0078250   1.0078250   1.0078250   1.0078250   1.0078250   1.0078250   1.0078250   1.0078250
 NucSpn=           1           1           1           1           1           1           1           1
 AtZEff=  -0.0000000  -0.0000000  -0.0000000  -0.0000000  -0.0000000  -0.0000000  -0.0000000  -0.0000000
 NQMom=    0.0000000   0.0000000   0.0000000   0.0000000   0.0000000   0.0000000   0.0000000   0.0000000
 NMagM=    2.7928460   2.7928460   2.7928460   2.7928460   2.7928460   2.7928460   2.7928460   2.7928460
 AtZNuc=   1.0000000   1.0000000   1.0000000   1.0000000   1.0000000   1.0000000   1.0000000   1.0000000
 Leave Link  101 at Sun Sep 12 11:59:37 2021, MaxMem= 23488102400 cpu:               3.8 elap:               0.2
 (Enter /sw/apps/gaussian-16.0/g16/l202.exe)
 Stoichiometry    C68H72Mg2N8O8
 Framework group  C1[X(C68H72Mg2N8O8)]
 Deg. of freedom   468
 Full point group                 C1      NOp   1
 Largest Abelian subgroup         C1      NOp   1
 Largest concise Abelian subgroup C1      NOp   1
                         Standard orientation:                         
 ---------------------------------------------------------------------
 Center     Atomic      Atomic             Coordinates (Angstroms)
 Number     Number       Type             X           Y           Z
 ---------------------------------------------------------------------
      1         12           0      -15.886529    0.686145    0.450485
      2          6           0      -16.199259   -1.842217   -2.063833
      3          6           0      -16.864369   -1.663313    2.723576
      4          6           0      -16.057316    3.002973    2.609133
      5          6           0      -16.045772    3.044449   -2.110511
      6          7           0      -16.432845   -1.448296    0.235203
      7          6           0      -16.454168   -2.313322   -0.773978
      8          6           0      -16.698869   -3.784093   -0.321952
      9          6           0      -17.440106   -3.502322    1.061222
     10          6           0      -16.851877   -2.138820    1.378671
     11          6           0      -18.953044   -3.364872    0.924738
     12          6           0      -15.361888   -4.569887   -0.105758
     13          6           0      -15.509499   -6.089268    0.016910
     14          1           0      -14.469876   -6.941134   -0.540635
     15          7           0      -15.910000    0.599291    2.423999
     16          6           0      -16.324870   -0.442692    3.183894
     17          6           0      -16.146564   -0.018678    4.589277
     18          6           0      -15.773218    1.423090    4.585687
     19          6           0      -15.926129    1.743591    3.189523
     20          6           0      -16.281533   -0.951386    5.753574
     21          6           0      -15.356500    2.365458    5.670316
     22          8           0      -15.302195    3.629879    5.489032
     23          6           0      -15.095389    1.770120    6.993356
     24          7           0      -16.251107    2.736551    0.307121
     25          6           0      -16.211506    3.521781    1.389170
     26          6           0      -16.220115    4.973298    1.011066
     27          6           0      -16.028061    5.018500   -0.573492
     28          6           0      -16.024191    3.495537   -0.854277
     29          6           0      -17.482709    5.757333    1.394675
     30          6           0      -14.853645    5.871410   -1.115441
     31          6           0      -13.536779    5.244160   -0.716041
     32          7           0      -15.908483    0.643146   -1.719472
     33          6           0      -16.001519    1.743672   -2.583684
     34          6           0      -16.089103    1.209675   -3.955269
     35          6           0      -16.057420   -0.173793   -3.791386
     36          6           0      -15.982901   -0.484757   -2.403568
     37          6           0      -16.241229    1.980457   -5.141518
     38          6           0      -16.094018   -1.462058   -4.464358
     39          8           0      -16.060575   -1.827348   -5.640342
     40          6           0      -16.310171   -2.594982   -3.366365
     41          6           0      -15.309543   -3.685659   -3.635581
     42          8           0      -14.087146   -3.483383   -3.486596
     43          8           0      -15.954571   -4.851666   -3.793406
     44          6           0      -15.017318   -5.981080   -4.034513
     45          1           0      -17.384886   -2.247348    3.485093
     46          1           0      -16.008973    3.836344    3.313118
     47          1           0      -16.012707    3.721702   -2.965898
     48          1           0      -17.347990   -4.360271   -0.981562
     49          1           0      -17.159101   -4.224072    1.827926
     50          1           0      -19.259436   -3.354900   -0.121180
     51          1           0      -19.203705   -2.418265    1.403901
     52          1           0      -19.465536   -4.136655    1.499611
     53          1           0      -14.966699   -4.341369    0.884022
     54          1           0      -14.646962   -4.339794   -0.896495
     55          1           0      -16.493919   -6.422035   -0.313381
     56          1           0      -15.475645   -6.351433    1.074418
     57          1           0      -16.723999   -1.901391    5.456490
     58          1           0      -17.012902   -0.511168    6.431081
     59          1           0      -15.335755   -1.094737    6.276343
     60          1           0      -15.994624    1.262890    7.343559
     61          1           0      -14.722969    2.580188    7.619409
     62          1           0      -14.330060    1.000438    6.889381
     63          1           0      -15.397229    5.505992    1.485958
     64          1           0      -16.905250    5.421197   -1.080493
     65          1           0      -17.284469    6.627134    2.021454
     66          1           0      -18.170130    5.069548    1.886301
     67          1           0      -18.083049    6.097965    0.551479
     68          1           0      -14.878137    6.870104   -0.680750
     69          1           0      -14.866135    5.981322   -2.199883
     70          1           0      -13.383296    5.622581    0.293945
     71          1           0      -12.739858    5.575751   -1.382505
     72          1           0      -13.616887    4.159014   -0.648760
     73          1           0      -15.560923    1.548422   -5.875342
     74          1           0      -16.015369    3.031435   -4.962535
     75          1           0      -17.295772    1.811064   -5.358546
     76          1           0      -17.336281   -2.944922   -3.474819
     77          1           0      -15.318395   -6.454066   -4.969323
     78          1           0      -15.029302   -6.591847   -3.131615
     79          1           0      -13.985814   -5.711003   -4.263416
     80         12           0       15.827906   -0.683620    0.451196
     81          6           0       16.388559    1.863142   -2.014317
     82          6           0       17.022223    1.511067    2.773175
     83          6           0       15.770430   -3.046136    2.568424
     84          6           0       15.772028   -2.998142   -2.153712
     85          7           0       16.577239    1.390309    0.279127
     86          6           0       16.685783    2.276757   -0.699017
     87          6           0       17.061221    3.708356   -0.230905
     88          6           0       17.776818    3.328079    1.155526
     89          6           0       17.060683    2.010929    1.446998
     90          6           0       19.261894    3.041727    1.007556
     91          6           0       15.799234    4.611028    0.002725
     92          6           0       16.096638    6.103806    0.160606
     93          1           0       15.138090    7.065184   -0.377350
     94          7           0       15.853705   -0.631270    2.434920
     95          6           0       16.357308    0.346773    3.216641
     96          6           0       16.150511   -0.099692    4.603022
     97          6           0       15.633004   -1.494714    4.574323
     98          6           0       15.754645   -1.791966    3.161193
     99          6           0       16.363590    0.797840    5.787278
    100          6           0       15.126052   -2.414107    5.643858
    101          8           0       14.950368   -3.665348    5.428541
    102          6           0       14.930277   -1.824669    6.976424
    103          7           0       15.989357   -2.747988    0.265050
    104          6           0       15.878454   -3.549709    1.338766
    105          6           0       15.751166   -4.997243    0.927869
    106          6           0       15.555837   -4.977725   -0.659285
    107          6           0       15.699574   -3.461089   -0.913316
    108          6           0       16.934997   -5.896327    1.283660
    109          6           0       14.305528   -5.706445   -1.223505
    110          6           0       13.049840   -4.975815   -0.805377
    111          7           0       15.853233   -0.596710   -1.707481
    112          6           0       15.849273   -1.686793   -2.605139
    113          6           0       15.990199   -1.130353   -3.966359
    114          6           0       16.090303    0.254231   -3.762871
    115          6           0       16.037228    0.538876   -2.371591
    116          6           0       16.060320   -1.885799   -5.170731
    117          6           0       16.239480    1.538863   -4.407980
    118          8           0       16.250227    1.928951   -5.574799
    119          6           0       16.566335    2.627410   -3.296855
    120          6           0       15.674645    3.815352   -3.533916
    121          8           0       14.442241    3.717507   -3.398965
    122          8           0       16.434958    4.917444   -3.666916
    123          6           0       15.595122    6.123879   -3.892824
    124          1           0       17.589565    2.036076    3.542175
    125          1           0       15.641250   -3.890941    3.248928
    126          1           0       15.664899   -3.646491   -3.025979
    127          1           0       17.756694    4.229936   -0.877469
    128          1           0       17.556703    4.060741    1.927605
    129          1           0       19.567922    3.025843   -0.027930
    130          1           0       19.421765    2.073760    1.464212
    131          1           0       19.843935    3.753987    1.599373
    132          1           0       15.384156    4.396088    0.995825
    133          1           0       15.077887    4.466882   -0.777973
    134          1           0       17.115068    6.357161   -0.158086
    135          1           0       16.079759    6.350320    1.225017
    136          1           0       16.902755    1.711388    5.507788
    137          1           0       17.047264    0.275640    6.465348
    138          1           0       15.436598    1.018371    6.320854
    139          1           0       15.871696   -1.411180    7.330268
    140          1           0       14.479801   -2.613722    7.581682
    141          1           0       14.231227   -0.985493    6.888511
    142          1           0       14.880890   -5.453474    1.383449
    143          1           0       16.394300   -5.464254   -1.179013
    144          1           0       16.650525   -6.767831    1.903035
    145          1           0       17.679099   -5.296300    1.790446
    146          1           0       17.491938   -6.284865    0.432739
    147          1           0       14.232839   -6.713191   -0.804763
    148          1           0       14.314911   -5.806864   -2.303704
    149          1           0       12.864612   -5.360128    0.202130
    150          1           0       12.226772   -5.213886   -1.476135
    151          1           0       13.231797   -3.898288   -0.718874
    152          1           0       15.432103   -1.380519   -5.892216
    153          1           0       15.740034   -2.913790   -5.014463
    154          1           0       17.130771   -1.816990   -5.382073
    155          1           0       17.622495    2.883319   -3.389624
    156          1           0       15.945348    6.587900   -4.820027
    157          1           0       15.678233    6.723399   -2.966857
    158          1           0       14.546069    5.969524   -4.116695
 ---------------------------------------------------------------------
 Rotational constants (GHZ):           0.0203475           0.0016078           0.0016054
 Leave Link  202 at Sun Sep 12 11:59:37 2021, MaxMem= 23488102400 cpu:               0.2 elap:               0.0
 (Enter /sw/apps/gaussian-16.0/g16/l301.exe)
 Standard basis: def2SVP (5D, 7F)
 Ernie: Thresh=  0.10000D-02 Tol=  0.10000D-05 Strict=F.
 There are  1658 symmetry adapted cartesian basis functions of A   symmetry.
 There are  1572 symmetry adapted basis functions of A   symmetry.
  1572 basis functions,  2678 primitive gaussians,  1658 cartesian basis functions
   312 alpha electrons      312 beta electrons
       nuclear repulsion energy     12295.0353248140 Hartrees.
 IExCor=20419 DFT=T Ex+Corr=CAM-B3LYP ExCW=0 ScaHFX=  1.000000
 ScaDFX=  1.000000  1.000000  1.000000  0.810000 ScalE2=  1.000000  1.000000
 IRadAn=      5 IRanWt=     -1 IRanGd=            0 ICorTp=0 IEmpDi=  4
 HFx  wShort=  0.000000 wLong=  0.330000 cFull=  0.190000 cShort=  0.000000 cLong=  0.460000
 DFx  wShort=  0.000000 wLong=  0.330000 cFull=  0.190000 cShort=  0.000000 cLong=  0.460000
 NAtoms=  158 NActive=  158 NUniq=  158 SFac= 1.00D+00 NAtFMM=   60 NAOKFM=T Big=T
 Integral buffers will be    131072 words long.
 Raffenetti 1 integral format.
 Two-electron integral symmetry is turned on.
 Leave Link  301 at Sun Sep 12 11:59:37 2021, MaxMem= 23488102400 cpu:               1.3 elap:               0.1
 (Enter /sw/apps/gaussian-16.0/g16/l302.exe)
 NPDir=0 NMtPBC=     1 NCelOv=     1 NCel=       1 NClECP=     1 NCelD=      1
         NCelK=      1 NCelE2=     1 NClLst=     1 CellRange=     0.0.
 One-electron integrals computed using PRISM.
 One-electron integral symmetry used in STVInt
   1 Symmetry operations used in ECPInt.
 ECPInt:  NShTT=  271216 NPrTT=  987664 LenC2=  103957 LenP2D=  239866.
 LDataN:  DoStor=T MaxTD1= 4 Len=   56
 NBasis=  1572 RedAO= T EigKep=  3.36D-04  NBF=  1572
 NBsUse=  1572 1.00D-06 EigRej= -1.00D+00 NBFU=  1572
 Precomputing XC quadrature grid using
 IXCGrd= 4 IRadAn=           5 IRanWt=          -1 IRanGd=           0 AccXCQ= 0.00D+00.
 Generated NRdTot=       0 NPtTot=           0 NUsed=           0 NTot=          32
 NSgBfM=   812   812   812   812   812 MxSgAt=   158 MxSgA2=    79.
 Leave Link  302 at Sun Sep 12 11:59:41 2021, MaxMem= 23488102400 cpu:              97.5 elap:               4.1
 (Enter /sw/apps/gaussian-16.0/g16/l303.exe)
 DipDrv:  MaxL=1.
 Leave Link  303 at Sun Sep 12 11:59:41 2021, MaxMem= 23488102400 cpu:               8.2 elap:               0.4
 (Enter /sw/apps/gaussian-16.0/g16/l308.exe)
 Leave Link  308 at Sun Sep 12 11:59:42 2021, MaxMem= 23488102400 cpu:              12.1 elap:               0.6
 (Enter /sw/apps/gaussian-16.0/g16/l401.exe)
 ExpMin= 3.36D-02 ExpMax= 4.95D+03 ExpMxC= 7.45D+02 IAcc=3 IRadAn=         5 AccDes= 0.00D+00
 Harris functional with IExCor=20419 and IRadAn=       5 diagonalized for initial guess.
 HarFok:  IExCor=20419 AccDes= 0.00D+00 IRadAn=         5 IDoV= 1 UseB2=F ITyADJ=14
 ICtDFT=  3500011 ScaDFX=  1.000000  1.000000  1.000000  1.000000
 FoFCou: FMM=F IPFlag=           0 FMFlag=      100000 FMFlg1=        2001
         NFxFlg=           0 DoJE=T BraDBF=F KetDBF=T FulRan=T
         wScrn=  0.000000 ICntrl=       500 IOpCl=  0 I1Cent=   200000004 NGrid=           0
         NMat0=    1 NMatS0=      1 NMatT0=    0 NMatD0=    1 NMtDS0=    0 NMtDT0=    0
 Petite list used in FoFCou.
 Harris En= -3918.65801223818    
 JPrj=0 DoOrth=F DoCkMO=F.
 Leave Link  401 at Sun Sep 12 11:59:48 2021, MaxMem= 23488102400 cpu:             153.1 elap:               6.4
 (Enter /sw/apps/gaussian-16.0/g16/l502.exe)
 Integral symmetry usage will be decided dynamically.
 Closed shell SCF:
 Using DIIS extrapolation, IDIIS=  1040.
 NGot= 23488102400 LenX= 23482547354 LenY= 23479796732
 Requested convergence on RMS density matrix=1.00D-08 within 128 cycles.
 Requested convergence on MAX density matrix=1.00D-06.
 Requested convergence on             energy=1.00D-06.
 No special actions if energy rises.
 Fock matrices will be formed incrementally for  20 cycles.

 Cycle   1  Pass 1  IDiag  1:
 FoFJK:  IHMeth= 1 ICntrl=       0 DoSepK=T KAlg= 0 I1Cent=           0 FoldK=F
 IRaf=         1 NMat=       1 IRICut=       1 DoRegI=T DoRafI=F ISym2E= 0 IDoP0=0 IntGTp=1.
 FoFCou: FMM=T IPFlag=           0 FMFlag=      100000 FMFlg1=        2001
         NFxFlg=           0 DoJE=T BraDBF=F KetDBF=F FulRan=T
         wScrn=  0.000000 ICntrl=       500 IOpCl=  0 I1Cent=           0 NGrid=           0
         NMat0=    1 NMatS0=      1 NMatT0=    0 NMatD0=    1 NMtDS0=    0 NMtDT0=    0
 Symmetry not used in FoFCou.
 FMM levels:  10  Number of levels for PrismC:   9
 E= -4068.94926025335    
 DIIS: error= 2.04D-02 at cycle   1 NSaved=   1.
 NSaved= 1 IEnMin= 1 EnMin= -4068.94926025335     IErMin= 1 ErrMin= 2.04D-02
 ErrMax= 2.04D-02  0.00D+00 EMaxC= 1.00D-01 BMatC= 1.69D+00 BMatP= 1.69D+00
 IDIUse=3 WtCom= 7.96D-01 WtEn= 2.04D-01
 Coeff-Com:  0.100D+01
 Coeff-En:   0.100D+01
 Coeff:      0.100D+01
 Gap=     0.120 Goal=   None    Shift=    0.000
 GapD=    0.120 DampG=1.000 DampE=0.500 DampFc=0.5000 IDamp=-1.
 Damping current iteration by 5.00D-01
 RMSDP=1.57D-03 MaxDP=1.35D-01              OVMax= 2.03D-01

 Cycle   2  Pass 1  IDiag  1:
 RMSU=  7.69D-04    CP:  9.82D-01
 E= -4069.33817378509     Delta-E=       -0.388913531737 Rises=F Damp=T
 DIIS: error= 1.27D-02 at cycle   2 NSaved=   2.
 NSaved= 2 IEnMin= 2 EnMin= -4069.33817378509     IErMin= 2 ErrMin= 1.27D-02
 ErrMax= 1.27D-02  0.00D+00 EMaxC= 1.00D-01 BMatC= 3.07D-01 BMatP= 1.69D+00
 IDIUse=3 WtCom= 8.73D-01 WtEn= 1.27D-01
 Coeff-Com: -0.213D+00 0.121D+01
 Coeff-En:   0.000D+00 0.100D+01
 Coeff:     -0.186D+00 0.119D+01
 Gap=     0.138 Goal=   None    Shift=    0.000
 RMSDP=7.65D-04 MaxDP=9.44D-02 DE=-3.89D-01 OVMax= 1.88D-01

 Cycle   3  Pass 1  IDiag  1:
 RMSU=  7.32D-04    CP:  9.68D-01  1.24D+00
 E= -4069.62792775622     Delta-E=       -0.289753971128 Rises=F Damp=F
 DIIS: error= 1.58D-02 at cycle   3 NSaved=   3.
 NSaved= 3 IEnMin= 3 EnMin= -4069.62792775622     IErMin= 2 ErrMin= 1.27D-02
 ErrMax= 1.58D-02  0.00D+00 EMaxC= 1.00D-01 BMatC= 2.02D-01 BMatP= 3.07D-01
 IDIUse=3 WtCom= 8.42D-01 WtEn= 1.58D-01
 Coeff-Com: -0.267D+00 0.652D+00 0.616D+00
 Coeff-En:   0.000D+00 0.000D+00 0.100D+01
 Coeff:     -0.225D+00 0.549D+00 0.676D+00
 Gap=     0.125 Goal=   None    Shift=    0.000
 RMSDP=5.08D-04 MaxDP=4.77D-02 DE=-2.90D-01 OVMax= 1.43D-01

 Cycle   4  Pass 1  IDiag  1:
 RMSU=  2.65D-04    CP:  9.65D-01  1.55D+00  5.06D-01
 E= -4069.76503245022     Delta-E=       -0.137104694000 Rises=F Damp=F
 DIIS: error= 7.32D-03 at cycle   4 NSaved=   4.
 NSaved= 4 IEnMin= 4 EnMin= -4069.76503245022     IErMin= 4 ErrMin= 7.32D-03
 ErrMax= 7.32D-03  0.00D+00 EMaxC= 1.00D-01 BMatC= 5.04D-02 BMatP= 2.02D-01
 IDIUse=3 WtCom= 9.27D-01 WtEn= 7.32D-02
 Coeff-Com: -0.109D+00 0.226D+00 0.409D+00 0.474D+00
 Coeff-En:   0.000D+00 0.000D+00 0.221D+00 0.779D+00
 Coeff:     -0.101D+00 0.209D+00 0.395D+00 0.497D+00
 Gap=     0.123 Goal=   None    Shift=    0.000
 RMSDP=2.00D-04 MaxDP=2.08D-02 DE=-1.37D-01 OVMax= 6.18D-02

 Cycle   5  Pass 1  IDiag  1:
 RMSU=  7.58D-05    CP:  9.64D-01  1.49D+00  6.89D-01  5.49D-01
 E= -4069.81052301595     Delta-E=       -0.045490565732 Rises=F Damp=F
 DIIS: error= 7.88D-04 at cycle   5 NSaved=   5.
 NSaved= 5 IEnMin= 5 EnMin= -4069.81052301595     IErMin= 5 ErrMin= 7.88D-04
 ErrMax= 7.88D-04  0.00D+00 EMaxC= 1.00D-01 BMatC= 1.17D-03 BMatP= 5.04D-02
 IDIUse=3 WtCom= 9.92D-01 WtEn= 7.88D-03
 Coeff-Com: -0.358D-01 0.702D-01 0.165D+00 0.249D+00 0.551D+00
 Coeff-En:   0.000D+00 0.000D+00 0.000D+00 0.000D+00 0.100D+01
 Coeff:     -0.355D-01 0.696D-01 0.164D+00 0.247D+00 0.555D+00
 Gap=     0.122 Goal=   None    Shift=    0.000
 RMSDP=4.07D-05 MaxDP=4.17D-03 DE=-4.55D-02 OVMax= 1.64D-02

 Cycle   6  Pass 1  IDiag  1:
 RMSU=  3.02D-05    CP:  9.64D-01  1.49D+00  6.81D-01  6.21D-01  7.59D-01
 E= -4069.81153108376     Delta-E=       -0.001008067813 Rises=F Damp=F
 DIIS: error= 2.19D-04 at cycle   6 NSaved=   6.
 NSaved= 6 IEnMin= 6 EnMin= -4069.81153108376     IErMin= 6 ErrMin= 2.19D-04
 ErrMax= 2.19D-04  0.00D+00 EMaxC= 1.00D-01 BMatC= 1.76D-04 BMatP= 1.17D-03
 IDIUse=3 WtCom= 9.98D-01 WtEn= 2.19D-03
 Coeff-Com:  0.231D-02-0.678D-02 0.109D-01 0.398D-01 0.306D+00 0.648D+00
 Coeff-En:   0.000D+00 0.000D+00 0.000D+00 0.000D+00 0.102D+00 0.898D+00
 Coeff:      0.230D-02-0.676D-02 0.108D-01 0.397D-01 0.306D+00 0.648D+00
 Gap=     0.123 Goal=   None    Shift=    0.000
 RMSDP=1.58D-05 MaxDP=1.23D-03 DE=-1.01D-03 OVMax= 7.24D-03

 Cycle   7  Pass 1  IDiag  1:
 RMSU=  1.07D-05    CP:  9.64D-01  1.50D+00  6.87D-01  6.21D-01  8.59D-01
                    CP:  7.50D-01
 E= -4069.81171954781     Delta-E=       -0.000188464051 Rises=F Damp=F
 DIIS: error= 8.38D-05 at cycle   7 NSaved=   7.
 NSaved= 7 IEnMin= 7 EnMin= -4069.81171954781     IErMin= 7 ErrMin= 8.38D-05
 ErrMax= 8.38D-05  0.00D+00 EMaxC= 1.00D-01 BMatC= 2.07D-05 BMatP= 1.76D-04
 IDIUse=1 WtCom= 1.00D+00 WtEn= 0.00D+00
 Coeff-Com:  0.445D-02-0.974D-02-0.898D-02-0.382D-02 0.102D+00 0.329D+00
 Coeff-Com:  0.587D+00
 Coeff:      0.445D-02-0.974D-02-0.898D-02-0.382D-02 0.102D+00 0.329D+00
 Coeff:      0.587D+00
 Gap=     0.123 Goal=   None    Shift=    0.000
 RMSDP=6.50D-06 MaxDP=1.11D-03 DE=-1.88D-04 OVMax= 3.41D-03

 Cycle   8  Pass 1  IDiag  1:
 RMSU=  4.67D-06    CP:  9.64D-01  1.50D+00  6.88D-01  6.26D-01  8.64D-01
                    CP:  8.76D-01  8.23D-01
 E= -4069.81174527187     Delta-E=       -0.000025724061 Rises=F Damp=F
 DIIS: error= 5.00D-05 at cycle   8 NSaved=   8.
 NSaved= 8 IEnMin= 8 EnMin= -4069.81174527187     IErMin= 8 ErrMin= 5.00D-05
 ErrMax= 5.00D-05  0.00D+00 EMaxC= 1.00D-01 BMatC= 4.82D-06 BMatP= 2.07D-05
 IDIUse=1 WtCom= 1.00D+00 WtEn= 0.00D+00
 Coeff-Com:  0.215D-02-0.426D-02-0.775D-02-0.121D-01-0.117D-01 0.336D-01
 Coeff-Com:  0.344D+00 0.656D+00
 Coeff:      0.215D-02-0.426D-02-0.775D-02-0.121D-01-0.117D-01 0.336D-01
 Coeff:      0.344D+00 0.656D+00
 Gap=     0.123 Goal=   None    Shift=    0.000
 RMSDP=3.27D-06 MaxDP=3.52D-04 DE=-2.57D-05 OVMax= 1.11D-03

 Cycle   9  Pass 1  IDiag  1:
 RMSU=  1.91D-06    CP:  9.64D-01  1.50D+00  6.88D-01  6.27D-01  8.81D-01
                    CP:  9.02D-01  1.02D+00  9.40D-01
 E= -4069.81175297206     Delta-E=       -0.000007700184 Rises=F Damp=F
 DIIS: error= 1.94D-05 at cycle   9 NSaved=   9.
 NSaved= 9 IEnMin= 9 EnMin= -4069.81175297206     IErMin= 9 ErrMin= 1.94D-05
 ErrMax= 1.94D-05  0.00D+00 EMaxC= 1.00D-01 BMatC= 6.88D-07 BMatP= 4.82D-06
 IDIUse=1 WtCom= 1.00D+00 WtEn= 0.00D+00
 Coeff-Com:  0.462D-03-0.767D-03-0.266D-02-0.599D-02-0.212D-01-0.386D-01
 Coeff-Com:  0.104D+00 0.326D+00 0.639D+00
 Coeff:      0.462D-03-0.767D-03-0.266D-02-0.599D-02-0.212D-01-0.386D-01
 Coeff:      0.104D+00 0.326D+00 0.639D+00
 Gap=     0.123 Goal=   None    Shift=    0.000
 RMSDP=1.42D-06 MaxDP=1.50D-04 DE=-7.70D-06 OVMax= 7.45D-04

 Cycle  10  Pass 1  IDiag  1:
 RMSU=  9.38D-07    CP:  9.64D-01  1.50D+00  6.88D-01  6.28D-01  8.84D-01
                    CP:  9.15D-01  1.07D+00  1.11D+00  1.05D+00
 E= -4069.81175455878     Delta-E=       -0.000001586728 Rises=F Damp=F
 DIIS: error= 1.02D-05 at cycle  10 NSaved=  10.
 NSaved=10 IEnMin=10 EnMin= -4069.81175455878     IErMin=10 ErrMin= 1.02D-05
 ErrMax= 1.02D-05  0.00D+00 EMaxC= 1.00D-01 BMatC= 1.71D-07 BMatP= 6.88D-07
 IDIUse=1 WtCom= 1.00D+00 WtEn= 0.00D+00
 Coeff-Com: -0.427D-03 0.894D-03 0.123D-02 0.112D-02-0.376D-02-0.310D-01
 Coeff-Com: -0.465D-01-0.763D-01 0.255D+00 0.900D+00
 Coeff:     -0.427D-03 0.894D-03 0.123D-02 0.112D-02-0.376D-02-0.310D-01
 Coeff:     -0.465D-01-0.763D-01 0.255D+00 0.900D+00
 Gap=     0.123 Goal=   None    Shift=    0.000
 RMSDP=1.22D-06 MaxDP=1.24D-04 DE=-1.59D-06 OVMax= 6.08D-04

 Cycle  11  Pass 1  IDiag  1:
 RMSU=  5.15D-07    CP:  9.64D-01  1.50D+00  6.88D-01  6.28D-01  8.86D-01
                    CP:  9.26D-01  1.11D+00  1.22D+00  1.39D+00  1.37D+00
 E= -4069.81175534669     Delta-E=       -0.000000787908 Rises=F Damp=F
 DIIS: error= 3.98D-06 at cycle  11 NSaved=  11.
 NSaved=11 IEnMin=11 EnMin= -4069.81175534669     IErMin=11 ErrMin= 3.98D-06
 ErrMax= 3.98D-06  0.00D+00 EMaxC= 1.00D-01 BMatC= 6.10D-08 BMatP= 1.71D-07
 IDIUse=1 WtCom= 1.00D+00 WtEn= 0.00D+00
 Coeff-Com: -0.327D-03 0.635D-03 0.133D-02 0.212D-02 0.442D-02-0.833D-02
 Coeff-Com: -0.436D-01-0.132D+00-0.237D-01 0.465D+00 0.735D+00
 Coeff:     -0.327D-03 0.635D-03 0.133D-02 0.212D-02 0.442D-02-0.833D-02
 Coeff:     -0.436D-01-0.132D+00-0.237D-01 0.465D+00 0.735D+00
 Gap=     0.123 Goal=   None    Shift=    0.000
 RMSDP=6.87D-07 MaxDP=5.84D-05 DE=-7.88D-07 OVMax= 3.72D-04

 Cycle  12  Pass 1  IDiag  1:
 RMSU=  2.63D-07    CP:  9.64D-01  1.50D+00  6.88D-01  6.28D-01  8.87D-01
                    CP:  9.28D-01  1.14D+00  1.28D+00  1.56D+00  1.76D+00
                    CP:  1.20D+00
 E= -4069.81175560930     Delta-E=       -0.000000262604 Rises=F Damp=F
 DIIS: error= 2.34D-06 at cycle  12 NSaved=  12.
 NSaved=12 IEnMin=12 EnMin= -4069.81175560930     IErMin=12 ErrMin= 2.34D-06
 ErrMax= 2.34D-06  0.00D+00 EMaxC= 1.00D-01 BMatC= 1.48D-08 BMatP= 6.10D-08
 IDIUse=1 WtCom= 1.00D+00 WtEn= 0.00D+00
 Coeff-Com:  0.903D-06-0.183D-04 0.176D-03 0.506D-03 0.329D-02 0.409D-02
 Coeff-Com:  0.292D-02-0.346D-01-0.679D-01-0.769D-01 0.249D+00 0.919D+00
 Coeff:      0.903D-06-0.183D-04 0.176D-03 0.506D-03 0.329D-02 0.409D-02
 Coeff:      0.292D-02-0.346D-01-0.679D-01-0.769D-01 0.249D+00 0.919D+00
 Gap=     0.123 Goal=   None    Shift=    0.000
 RMSDP=4.38D-07 MaxDP=2.99D-05 DE=-2.63D-07 OVMax= 2.49D-04

 Cycle  13  Pass 1  IDiag  1:
 RMSU=  1.65D-07    CP:  9.64D-01  1.50D+00  6.88D-01  6.28D-01  8.87D-01
                    CP:  9.28D-01  1.14D+00  1.31D+00  1.67D+00  1.99D+00
                    CP:  1.62D+00  1.28D+00
 E= -4069.81175570165     Delta-E=       -0.000000092350 Rises=F Damp=F
 DIIS: error= 1.25D-06 at cycle  13 NSaved=  13.
 NSaved=13 IEnMin=13 EnMin= -4069.81175570165     IErMin=13 ErrMin= 1.25D-06
 ErrMax= 1.25D-06  0.00D+00 EMaxC= 1.00D-01 BMatC= 8.11D-09 BMatP= 1.48D-08
 IDIUse=1 WtCom= 1.00D+00 WtEn= 0.00D+00
 Coeff-Com:  0.120D-03-0.245D-03-0.370D-03-0.458D-03 0.566D-03 0.508D-02
 Coeff-Com:  0.197D-01 0.228D-01-0.338D-01-0.242D+00-0.156D+00 0.599D+00
 Coeff-Com:  0.785D+00
 Coeff:      0.120D-03-0.245D-03-0.370D-03-0.458D-03 0.566D-03 0.508D-02
 Coeff:      0.197D-01 0.228D-01-0.338D-01-0.242D+00-0.156D+00 0.599D+00
 Coeff:      0.785D+00
 Gap=     0.123 Goal=   None    Shift=    0.000
 RMSDP=3.39D-07 MaxDP=2.21D-05 DE=-9.24D-08 OVMax= 1.96D-04

 Cycle  14  Pass 1  IDiag  1:
 RMSU=  7.60D-08    CP:  9.64D-01  1.50D+00  6.88D-01  6.28D-01  8.88D-01
                    CP:  9.29D-01  1.15D+00  1.33D+00  1.74D+00  2.18D+00
                    CP:  1.88D+00  1.79D+00  1.09D+00
 E= -4069.81175573727     Delta-E=       -0.000000035619 Rises=F Damp=F
 DIIS: error= 6.33D-07 at cycle  14 NSaved=  14.
 NSaved=14 IEnMin=14 EnMin= -4069.81175573727     IErMin=14 ErrMin= 6.33D-07
 ErrMax= 6.33D-07  0.00D+00 EMaxC= 1.00D-01 BMatC= 1.25D-09 BMatP= 8.11D-09
 IDIUse=1 WtCom= 1.00D+00 WtEn= 0.00D+00
 Coeff-Com:  0.662D-04-0.130D-03-0.246D-03-0.386D-03-0.484D-03 0.129D-02
 Coeff-Com:  0.107D-01 0.191D-01 0.378D-02-0.994D-01-0.142D+00 0.939D-01
 Coeff-Com:  0.404D+00 0.710D+00
 Coeff:      0.662D-04-0.130D-03-0.246D-03-0.386D-03-0.484D-03 0.129D-02
 Coeff:      0.107D-01 0.191D-01 0.378D-02-0.994D-01-0.142D+00 0.939D-01
 Coeff:      0.404D+00 0.710D+00
 Gap=     0.123 Goal=   None    Shift=    0.000
 RMSDP=1.01D-07 MaxDP=6.48D-06 DE=-3.56D-08 OVMax= 5.42D-05

 Cycle  15  Pass 1  IDiag  1:
 RMSU=  3.82D-08    CP:  9.64D-01  1.50D+00  6.88D-01  6.28D-01  8.87D-01
                    CP:  9.29D-01  1.15D+00  1.34D+00  1.76D+00  2.22D+00
                    CP:  1.98D+00  1.93D+00  1.32D+00  1.03D+00
 E= -4069.81175574134     Delta-E=       -0.000000004075 Rises=F Damp=F
 DIIS: error= 3.38D-07 at cycle  15 NSaved=  15.
 NSaved=15 IEnMin=15 EnMin= -4069.81175574134     IErMin=15 ErrMin= 3.38D-07
 ErrMax= 3.38D-07  0.00D+00 EMaxC= 1.00D-01 BMatC= 2.26D-10 BMatP= 1.25D-09
 IDIUse=1 WtCom= 1.00D+00 WtEn= 0.00D+00
 Coeff-Com:  0.512D-05-0.845D-05-0.318D-04-0.806D-04-0.299D-03-0.518D-03
 Coeff-Com:  0.111D-02 0.248D-02 0.876D-02 0.197D-02-0.306D-01-0.731D-01
 Coeff-Com:  0.284D-01 0.297D+00 0.765D+00
 Coeff:      0.512D-05-0.845D-05-0.318D-04-0.806D-04-0.299D-03-0.518D-03
 Coeff:      0.111D-02 0.248D-02 0.876D-02 0.197D-02-0.306D-01-0.731D-01
 Coeff:      0.284D-01 0.297D+00 0.765D+00
 Gap=     0.123 Goal=   None    Shift=    0.000
 RMSDP=4.07D-08 MaxDP=2.53D-06 DE=-4.07D-09 OVMax= 2.69D-05

 Cycle  16  Pass 1  IDiag  1:
 RMSU=  1.87D-08    CP:  9.64D-01  1.50D+00  6.88D-01  6.28D-01  8.87D-01
                    CP:  9.29D-01  1.15D+00  1.34D+00  1.76D+00  2.24D+00
                    CP:  2.01D+00  1.99D+00  1.40D+00  1.24D+00  1.14D+00
 E= -4069.81175574189     Delta-E=       -0.000000000553 Rises=F Damp=F
 DIIS: error= 1.65D-07 at cycle  16 NSaved=  16.
 NSaved=16 IEnMin=16 EnMin= -4069.81175574189     IErMin=16 ErrMin= 1.65D-07
 ErrMax= 1.65D-07  0.00D+00 EMaxC= 1.00D-01 BMatC= 8.13D-11 BMatP= 2.26D-10
 IDIUse=1 WtCom= 1.00D+00 WtEn= 0.00D+00
 Coeff-Com: -0.142D-04 0.288D-04 0.470D-04 0.539D-04-0.262D-04-0.633D-03
 Coeff-Com: -0.198D-02-0.426D-02 0.452D-02 0.256D-01 0.206D-01-0.646D-01
 Coeff-Com: -0.833D-01-0.369D-01 0.397D+00 0.743D+00
 Coeff:     -0.142D-04 0.288D-04 0.470D-04 0.539D-04-0.262D-04-0.633D-03
 Coeff:     -0.198D-02-0.426D-02 0.452D-02 0.256D-01 0.206D-01-0.646D-01
 Coeff:     -0.833D-01-0.369D-01 0.397D+00 0.743D+00
 Gap=     0.123 Goal=   None    Shift=    0.000
 RMSDP=2.28D-08 MaxDP=1.61D-06 DE=-5.53D-10 OVMax= 1.30D-05

 Cycle  17  Pass 1  IDiag  1:
 RMSU=  1.04D-08    CP:  9.64D-01  1.50D+00  6.88D-01  6.28D-01  8.87D-01
                    CP:  9.29D-01  1.15D+00  1.34D+00  1.77D+00  2.24D+00
                    CP:  2.02D+00  2.01D+00  1.45D+00  1.34D+00  1.44D+00
                    CP:  1.25D+00
 E= -4069.81175574228     Delta-E=       -0.000000000387 Rises=F Damp=F
 DIIS: error= 9.39D-08 at cycle  17 NSaved=  17.
 NSaved=17 IEnMin=17 EnMin= -4069.81175574228     IErMin=17 ErrMin= 9.39D-08
 ErrMax= 9.39D-08  0.00D+00 EMaxC= 1.00D-01 BMatC= 1.78D-11 BMatP= 8.13D-11
 IDIUse=1 WtCom= 1.00D+00 WtEn= 0.00D+00
 Coeff-Com: -0.717D-05 0.139D-04 0.284D-04 0.424D-04 0.840D-04-0.122D-03
 Coeff-Com: -0.958D-03-0.279D-02 0.130D-03 0.918D-02 0.174D-01-0.719D-02
 Coeff-Com: -0.368D-01-0.101D+00-0.318D-01 0.294D+00 0.860D+00
 Coeff:     -0.717D-05 0.139D-04 0.284D-04 0.424D-04 0.840D-04-0.122D-03
 Coeff:     -0.958D-03-0.279D-02 0.130D-03 0.918D-02 0.174D-01-0.719D-02
 Coeff:     -0.368D-01-0.101D+00-0.318D-01 0.294D+00 0.860D+00
 Gap=     0.123 Goal=   None    Shift=    0.000
 RMSDP=1.37D-08 MaxDP=1.01D-06 DE=-3.87D-10 OVMax= 8.89D-06

 Cycle  18  Pass 1  IDiag  1:
 RMSU=  4.86D-09    CP:  9.64D-01  1.50D+00  6.88D-01  6.28D-01  8.87D-01
                    CP:  9.29D-01  1.15D+00  1.34D+00  1.77D+00  2.24D+00
                    CP:  2.02D+00  2.02D+00  1.47D+00  1.41D+00  1.61D+00
                    CP:  1.66D+00  1.39D+00
 E= -4069.81175574233     Delta-E=       -0.000000000047 Rises=F Damp=F
 DIIS: error= 5.09D-08 at cycle  18 NSaved=  18.
 NSaved=18 IEnMin=18 EnMin= -4069.81175574233     IErMin=18 ErrMin= 5.09D-08
 ErrMax= 5.09D-08  0.00D+00 EMaxC= 1.00D-01 BMatC= 6.89D-12 BMatP= 1.78D-11
 IDIUse=1 WtCom= 1.00D+00 WtEn= 0.00D+00
 Coeff-Com:  0.208D-05-0.448D-05-0.470D-05-0.189D-05 0.589D-04 0.184D-03
 Coeff-Com:  0.409D-03 0.237D-03-0.129D-02-0.624D-02-0.189D-03 0.203D-01
 Coeff-Com:  0.186D-01-0.324D-01-0.163D+00-0.193D+00 0.348D+00 0.101D+01
 Coeff:      0.208D-05-0.448D-05-0.470D-05-0.189D-05 0.589D-04 0.184D-03
 Coeff:      0.409D-03 0.237D-03-0.129D-02-0.624D-02-0.189D-03 0.203D-01
 Coeff:      0.186D-01-0.324D-01-0.163D+00-0.193D+00 0.348D+00 0.101D+01
 Gap=     0.123 Goal=   None    Shift=    0.000
 RMSDP=1.18D-08 MaxDP=7.60D-07 DE=-4.73D-11 OVMax= 6.82D-06

 Cycle  19  Pass 1  IDiag  1:
 RMSU=  2.78D-09    CP:  9.64D-01  1.50D+00  6.88D-01  6.28D-01  8.87D-01
                    CP:  9.29D-01  1.15D+00  1.34D+00  1.77D+00  2.24D+00
                    CP:  2.03D+00  2.03D+00  1.48D+00  1.46D+00  1.77D+00
                    CP:  1.99D+00  1.94D+00  1.38D+00
 E= -4069.81175574255     Delta-E=       -0.000000000218 Rises=F Damp=F
 DIIS: error= 3.38D-08 at cycle  19 NSaved=  19.
 NSaved=19 IEnMin=19 EnMin= -4069.81175574255     IErMin=19 ErrMin= 3.38D-08
 ErrMax= 3.38D-08  0.00D+00 EMaxC= 1.00D-01 BMatC= 1.40D-12 BMatP= 6.89D-12
 IDIUse=1 WtCom= 1.00D+00 WtEn= 0.00D+00
 Coeff-Com:  0.286D-05-0.577D-05-0.981D-05-0.123D-04 0.106D-04 0.117D-03
 Coeff-Com:  0.472D-03 0.788D-03-0.583D-03-0.589D-02-0.478D-02 0.119D-01
 Coeff-Com:  0.199D-01 0.114D-01-0.678D-01-0.176D+00-0.338D-01 0.487D+00
 Coeff-Com:  0.757D+00
 Coeff:      0.286D-05-0.577D-05-0.981D-05-0.123D-04 0.106D-04 0.117D-03
 Coeff:      0.472D-03 0.788D-03-0.583D-03-0.589D-02-0.478D-02 0.119D-01
 Coeff:      0.199D-01 0.114D-01-0.678D-01-0.176D+00-0.338D-01 0.487D+00
 Coeff:      0.757D+00
 Gap=     0.123 Goal=   None    Shift=    0.000
 RMSDP=4.48D-09 MaxDP=3.05D-07 DE=-2.18D-10 OVMax= 2.90D-06

 SCF Done:  E(RCAM-B3LYP) =  -4069.81175574     A.U. after   19 cycles
            NFock= 19  Conv=0.45D-08     -V/T= 2.0102
 KE= 4.028802061997D+03 PE=-3.407102978096D+04 EE= 1.367738063841D+04
 Leave Link  502 at Sun Sep 12 12:08:06 2021, MaxMem= 23488102400 cpu:           11375.5 elap:             497.8
 (Enter /sw/apps/gaussian-16.0/g16/l801.exe)
 DoSCS=F DFT=T ScalE2(SS,OS)=  1.000000  1.000000
 ExpMin= 3.36D-02 ExpMax= 4.95D+03 ExpMxC= 7.45D+02 IAcc=3 IRadAn=         5 AccDes= 0.00D+00
 HarFok:  IExCor=  205 AccDes= 0.00D+00 IRadAn=         5 IDoV=-2 UseB2=F ITyADJ=14
 ICtDFT= 12500011 ScaDFX=  1.000000  1.000000  1.000000  1.000000
 GSVD:  LWork=       -9588 too small for GESVD, short by       45590 words or       45590 for optimal perf.
 Largest valence mixing into a core orbital is  2.03D-04
 Largest core mixing into a valence orbital is  5.24D-05
 Range of M.O.s used for correlation:    95  1572
 NBasis=  1572 NAE=   312 NBE=   312 NFC=    94 NFV=     0
 NROrb=   1478 NOA=   218 NOB=   218 NVA=  1260 NVB=  1260
 Leave Link  801 at Sun Sep 12 12:08:07 2021, MaxMem= 23488102400 cpu:               8.6 elap:               0.4
 (Enter /sw/apps/gaussian-16.0/g16/l914.exe)
 RHF ground state
 Two-electron integrals replicated using symmetry.
 MDV= 23488102400 DFT=T DoStab=F Mixed=T DoRPA=T DoScal=F NonHer=T
 Making orbital integer symmetry assigments:
 Orbital symmetries:
       Occupied  (A) (A) (A) (A) (A) (A) (A) (A) (A) (A) (A) (A)
                 (A) (A) (A) (A) (A) (A) (A) (A) (A) (A) (A) (A)
                 (A) (A) (A) (A) (A) (A) (A) (A) (A) (A) (A) (A)
                 (A) (A) (A) (A) (A) (A) (A) (A) (A) (A) (A) (A)
                 (A) (A) (A) (A) (A) (A) (A) (A) (A) (A) (A) (A)
                 (A) (A) (A) (A) (A) (A) (A) (A) (A) (A) (A) (A)
                 (A) (A) (A) (A) (A) (A) (A) (A) (A) (A) (A) (A)
                 (A) (A) (A) (A) (A) (A) (A) (A) (A) (A) (A) (A)
                 (A) (A) (A) (A) (A) (A) (A) (A) (A) (A) (A) (A)
                 (A) (A) (A) (A) (A) (A) (A) (A) (A) (A) (A) (A)
                 (A) (A) (A) (A) (A) (A) (A) (A) (A) (A) (A) (A)
                 (A) (A) (A) (A) (A) (A) (A) (A) (A) (A) (A) (A)
                 (A) (A) (A) (A) (A) (A) (A) (A) (A) (A) (A) (A)
                 (A) (A) (A) (A) (A) (A) (A) (A) (A) (A) (A) (A)
                 (A) (A) (A) (A) (A) (A) (A) (A) (A) (A) (A) (A)
                 (A) (A) (A) (A) (A) (A) (A) (A) (A) (A) (A) (A)
                 (A) (A) (A) (A) (A) (A) (A) (A) (A) (A) (A) (A)
                 (A) (A) (A) (A) (A) (A) (A) (A) (A) (A) (A) (A)
                 (A) (A) (A) (A) (A) (A) (A) (A) (A) (A) (A) (A)
                 (A) (A) (A) (A) (A) (A) (A) (A) (A) (A) (A) (A)
                 (A) (A) (A) (A) (A) (A) (A) (A) (A) (A) (A) (A)
                 (A) (A) (A) (A) (A) (A) (A) (A) (A) (A) (A) (A)
                 (A) (A) (A) (A) (A) (A) (A) (A) (A) (A) (A) (A)
                 (A) (A) (A) (A) (A) (A) (A) (A) (A) (A) (A) (A)
                 (A) (A) (A) (A) (A) (A) (A) (A) (A) (A) (A) (A)
                 (A) (A) (A) (A) (A) (A) (A) (A) (A) (A) (A) (A)
       Virtual   (A) (A) (A) (A) (A) (A) (A) (A) (A) (A) (A) (A)
                 (A) (A) (A) (A) (A) (A) (A) (A) (A) (A) (A) (A)
                 (A) (A) (A) (A) (A) (A) (A) (A) (A) (A) (A) (A)
                 (A) (A) (A) (A) (A) (A) (A) (A) (A) (A) (A) (A)
                 (A) (A) (A) (A) (A) (A) (A) (A) (A) (A) (A) (A)
                 (A) (A) (A) (A) (A) (A) (A) (A) (A) (A) (A) (A)
                 (A) (A) (A) (A) (A) (A) (A) (A) (A) (A) (A) (A)
                 (A) (A) (A) (A) (A) (A) (A) (A) (A) (A) (A) (A)
                 (A) (A) (A) (A) (A) (A) (A) (A) (A) (A) (A) (A)
                 (A) (A) (A) (A) (A) (A) (A) (A) (A) (A) (A) (A)
                 (A) (A) (A) (A) (A) (A) (A) (A) (A) (A) (A) (A)
                 (A) (A) (A) (A) (A) (A) (A) (A) (A) (A) (A) (A)
                 (A) (A) (A) (A) (A) (A) (A) (A) (A) (A) (A) (A)
                 (A) (A) (A) (A) (A) (A) (A) (A) (A) (A) (A) (A)
                 (A) (A) (A) (A) (A) (A) (A) (A) (A) (A) (A) (A)
                 (A) (A) (A) (A) (A) (A) (A) (A) (A) (A) (A) (A)
                 (A) (A) (A) (A) (A) (A) (A) (A) (A) (A) (A) (A)
                 (A) (A) (A) (A) (A) (A) (A) (A) (A) (A) (A) (A)
                 (A) (A) (A) (A) (A) (A) (A) (A) (A) (A) (A) (A)
                 (A) (A) (A) (A) (A) (A) (A) (A) (A) (A) (A) (A)
                 (A) (A) (A) (A) (A) (A) (A) (A) (A) (A) (A) (A)
                 (A) (A) (A) (A) (A) (A) (A) (A) (A) (A) (A) (A)
                 (A) (A) (A) (A) (A) (A) (A) (A) (A) (A) (A) (A)
                 (A) (A) (A) (A) (A) (A) (A) (A) (A) (A) (A) (A)
                 (A) (A) (A) (A) (A) (A) (A) (A) (A) (A) (A) (A)
                 (A) (A) (A) (A) (A) (A) (A) (A) (A) (A) (A) (A)
                 (A) (A) (A) (A) (A) (A) (A) (A) (A) (A) (A) (A)
                 (A) (A) (A) (A) (A) (A) (A) (A) (A) (A) (A) (A)
                 (A) (A) (A) (A) (A) (A) (A) (A) (A) (A) (A) (A)
                 (A) (A) (A) (A) (A) (A) (A) (A) (A) (A) (A) (A)
                 (A) (A) (A) (A) (A) (A) (A) (A) (A) (A) (A) (A)
                 (A) (A) (A) (A) (A) (A) (A) (A) (A) (A) (A) (A)
                 (A) (A) (A) (A) (A) (A) (A) (A) (A) (A) (A) (A)
                 (A) (A) (A) (A) (A) (A) (A) (A) (A) (A) (A) (A)
                 (A) (A) (A) (A) (A) (A) (A) (A) (A) (A) (A) (A)
                 (A) (A) (A) (A) (A) (A) (A) (A) (A) (A) (A) (A)
                 (A) (A) (A) (A) (A) (A) (A) (A) (A) (A) (A) (A)
                 (A) (A) (A) (A) (A) (A) (A) (A) (A) (A) (A) (A)
                 (A) (A) (A) (A) (A) (A) (A) (A) (A) (A) (A) (A)
                 (A) (A) (A) (A) (A) (A) (A) (A) (A) (A) (A) (A)
                 (A) (A) (A) (A) (A) (A) (A) (A) (A) (A) (A) (A)
                 (A) (A) (A) (A) (A) (A) (A) (A) (A) (A) (A) (A)
                 (A) (A) (A) (A) (A) (A) (A) (A) (A) (A) (A) (A)
                 (A) (A) (A) (A) (A) (A) (A) (A) (A) (A) (A) (A)
                 (A) (A) (A) (A) (A) (A) (A) (A) (A) (A) (A) (A)
                 (A) (A) (A) (A) (A) (A) (A) (A) (A) (A) (A) (A)
                 (A) (A) (A) (A) (A) (A) (A) (A) (A) (A) (A) (A)
                 (A) (A) (A) (A) (A) (A) (A) (A) (A) (A) (A) (A)
                 (A) (A) (A) (A) (A) (A) (A) (A) (A) (A) (A) (A)
                 (A) (A) (A) (A) (A) (A) (A) (A) (A) (A) (A) (A)
                 (A) (A) (A) (A) (A) (A) (A) (A) (A) (A) (A) (A)
                 (A) (A) (A) (A) (A) (A) (A) (A) (A) (A) (A) (A)
                 (A) (A) (A) (A) (A) (A) (A) (A) (A) (A) (A) (A)
                 (A) (A) (A) (A) (A) (A) (A) (A) (A) (A) (A) (A)
                 (A) (A) (A) (A) (A) (A) (A) (A) (A) (A) (A) (A)
                 (A) (A) (A) (A) (A) (A) (A) (A) (A) (A) (A) (A)
                 (A) (A) (A) (A) (A) (A) (A) (A) (A) (A) (A) (A)
                 (A) (A) (A) (A) (A) (A) (A) (A) (A) (A) (A) (A)
                 (A) (A) (A) (A) (A) (A) (A) (A) (A) (A) (A) (A)
                 (A) (A) (A) (A) (A) (A) (A) (A) (A) (A) (A) (A)
                 (A) (A) (A) (A) (A) (A) (A) (A) (A) (A) (A) (A)
                 (A) (A) (A) (A) (A) (A) (A) (A) (A) (A) (A) (A)
                 (A) (A) (A) (A) (A) (A) (A) (A) (A) (A) (A) (A)
                 (A) (A) (A) (A) (A) (A) (A) (A) (A) (A) (A) (A)
                 (A) (A) (A) (A) (A) (A) (A) (A) (A) (A) (A) (A)
                 (A) (A) (A) (A) (A) (A) (A) (A) (A) (A) (A) (A)
                 (A) (A) (A) (A) (A) (A) (A) (A) (A) (A) (A) (A)
                 (A) (A) (A) (A) (A) (A) (A) (A) (A) (A) (A) (A)
                 (A) (A) (A) (A) (A) (A) (A) (A) (A) (A) (A) (A)
                 (A) (A) (A) (A) (A) (A) (A) (A) (A) (A) (A) (A)
                 (A) (A) (A) (A) (A) (A) (A) (A) (A) (A) (A) (A)
                 (A) (A) (A) (A) (A) (A) (A) (A) (A) (A) (A) (A)
                 (A) (A) (A) (A) (A) (A) (A) (A) (A) (A) (A) (A)
                 (A) (A) (A) (A) (A) (A) (A) (A) (A) (A) (A) (A)
                 (A) (A) (A) (A) (A) (A) (A) (A) (A) (A) (A) (A)
                 (A) (A) (A) (A) (A) (A) (A) (A) (A) (A) (A) (A)
                 (A) (A) (A) (A) (A) (A) (A) (A) (A) (A) (A) (A)
                 (A) (A) (A) (A) (A) (A) (A) (A) (A) (A) (A) (A)
                 (A) (A) (A) (A) (A) (A) (A) (A) (A) (A) (A) (A)
                 (A) (A) (A) (A) (A) (A) (A) (A) (A) (A) (A) (A)
                 (A) (A) (A) (A) (A) (A) (A) (A) (A) (A) (A) (A)
                 (A) (A) (A) (A) (A) (A) (A) (A) (A) (A) (A) (A)
                 (A) (A) (A) (A) (A) (A) (A) (A) (A) (A) (A) (A)
                 (A) (A) (A) (A) (A) (A) (A) (A) (A) (A) (A) (A)
                 (A) (A) (A) (A) (A) (A) (A) (A) (A) (A) (A) (A)
                 (A) (A) (A) (A) (A) (A) (A) (A) (A) (A) (A) (A)
                 (A) (A) (A) (A) (A) (A) (A) (A) (A) (A) (A) (A)
                 (A) (A) (A) (A) (A) (A) (A) (A) (A) (A) (A) (A)
                 (A) (A) (A) (A) (A) (A) (A) (A) (A) (A) (A) (A)
                 (A) (A) (A) (A) (A) (A) (A) (A) (A) (A) (A) (A)
                 (A) (A) (A) (A) (A) (A) (A) (A) (A) (A) (A) (A)
                 (A) (A) (A) (A) (A) (A) (A) (A) (A) (A) (A) (A)
                 (A) (A) (A) (A) (A) (A) (A) (A) (A) (A) (A) (A)
                 (A) (A) (A) (A) (A) (A) (A) (A) (A) (A) (A) (A)
                 (A) (A) (A) (A) (A) (A) (A) (A) (A) (A) (A) (A)
                 (A) (A) (A) (A) (A) (A) (A) (A) (A) (A) (A) (A)
                 (A) (A) (A) (A) (A) (A) (A) (A) (A) (A) (A) (A)
                 (A) (A) (A) (A) (A) (A) (A) (A) (A) (A) (A) (A)
                 (A) (A) (A) (A) (A) (A) (A) (A) (A) (A) (A) (A)
                 (A) (A) (A) (A) (A) (A) (A) (A) (A) (A) (A) (A)
                 (A) (A) (A) (A) (A) (A) (A) (A) (A) (A) (A) (A)
                 (A) (A) (A) (A) (A) (A) (A) (A) (A) (A) (A) (A)
                 (A) (A) (A) (A) (A) (A) (A) (A) (A) (A) (A) (A)
                 (A) (A) (A) (A) (A) (A) (A) (A) (A) (A) (A) (A)
                 (A) (A) (A) (A) (A) (A) (A) (A) (A) (A) (A) (A)
    20 initial guesses have been made.
 Convergence on wavefunction:    0.001000000000000
 Davidson Disk Diagonalization:  ConvIn= 1.00D-03 SkipCon=T Conv= 1.00D-03.
 Max sub-space:  2000 roots to seek:    20 dimension of matrix:       549360
 Iteration     1 Dimension    20 NMult     0 NNew     20
 CISAX will form    20 AO SS matrices at one time.
 NMat=    20 NSing=    20 JSym2X= 0.
 FoFJK:  IHMeth= 1 ICntrl=       0 DoSepK=T KAlg= 0 I1Cent=           0 FoldK=F
 IRaf=         1 NMat=      40 IRICut=       1 DoRegI=T DoRafI=F ISym2E= 0 IDoP0=3 IntGTp=3.
 FoFCou: FMM=T IPFlag=           0 FMFlag=      100000 FMFlg1=        2001
         NFxFlg=           0 DoJE=F BraDBF=F KetDBF=F FulRan=T
         wScrn=  0.000000 ICntrl=       500 IOpCl=  0 I1Cent=           0 NGrid=           0
         NMat0=   20 NMatS0=     20 NMatT0=    0 NMatD0=   20 NMtDS0=    0 NMtDT0=    0
 Symmetry not used in FoFCou.
 FMM levels:  10  Number of levels for PrismC:   9
 New state      1 was old state      8
 New state      2 was old state      5
 New state      3 was old state      2
 New state      4 was old state      3
 New state      5 was old state      1
 Excitation Energies [eV] at current iteration:
 Root      1 :     2.614402858670259
 Root      2 :     2.619316462215493
 Root      3 :     2.680378315542207
 Root      4 :     2.690260468448389
 Root      5 :     3.059136356129667
 Root      6 :     3.084347779083450
 Root      7 :     3.628491842436765
 Root      8 :     3.669026150851956
 Root      9 :     3.735893904184724
 Root     10 :     3.759299378005729
 Root     11 :     3.862440809892390
 Root     12 :     3.878598649750010
 Root     13 :     4.303281542543898
 Root     14 :     4.306556062823826
 Root     15 :     4.992260478611843
 Root     16 :     4.995201084146031
 Root     17 :     5.285919304402970
 Root     18 :     5.287635702735280
 Root     19 :     5.316548328703985
 Root     20 :     5.321870855569044
 Iteration     2 Dimension    30 NMult    20 NNew     10
 CISAX will form    10 AO SS matrices at one time.
 NMat=    10 NSing=    10 JSym2X= 0.
 New state      1 was old state      3
 Root      1 not converged, maximum delta is    0.187228790869680
 New state      2 was old state      4
 Root      2 not converged, maximum delta is    0.188595269213316
 New state      3 was old state      2
 Root      3 not converged, maximum delta is    0.066117104622975
 New state      4 was old state      1
 Root      4 not converged, maximum delta is    0.089720035116758
 Root      5 has converged.
 Excitation Energies [eV] at current iteration:
 Root      1 :     1.801335581098444   Change is   -0.879042734443763
 Root      2 :     1.807432552599499   Change is   -0.882827915848890
 Root      3 :     2.235843666823763   Change is   -0.383472795391730
 Root      4 :     2.239079006113669   Change is   -0.375323852556590
 Root      5 :     3.059131413264995   Change is   -0.000004942864671
 Iteration     3 Dimension    38 NMult    30 NNew      8
 CISAX will form     8 AO SS matrices at one time.
 NMat=     8 NSing=     8 JSym2X= 0.
 Root      1 not converged, maximum delta is    0.069414674649283
 Root      2 not converged, maximum delta is    0.070579329063952
 Root      3 not converged, maximum delta is    0.044032096510573
 Root      4 not converged, maximum delta is    0.042578864999322
 Root      5 has converged.
 Excitation Energies [eV] at current iteration:
 Root      1 :     1.694092822469289   Change is   -0.107242758629154
 Root      2 :     1.699041736344301   Change is   -0.108390816255199
 Root      3 :     2.194358880233548   Change is   -0.041484786590215
 Root      4 :     2.200188310116358   Change is   -0.038890695997310
 Root      5 :     3.059131413264861   Change is   -0.000000000000134
 Iteration     4 Dimension    46 NMult    38 NNew      8
 CISAX will form     8 AO SS matrices at one time.
 NMat=     8 NSing=     8 JSym2X= 0.
 Root      1 not converged, maximum delta is    0.013028222147482
 Root      2 not converged, maximum delta is    0.013287218702493
 Root      3 not converged, maximum delta is    0.009744767074467
 Root      4 not converged, maximum delta is    0.008904479666332
 Root      5 has converged.
 Excitation Energies [eV] at current iteration:
 Root      1 :     1.677378167529975   Change is   -0.016714654939314
 Root      2 :     1.682164458268787   Change is   -0.016877278075513
 Root      3 :     2.187052997000794   Change is   -0.007305883232754
 Root      4 :     2.193411822023182   Change is   -0.006776488093176
 Root      5 :     3.059131413265076   Change is    0.000000000000215
 Iteration     5 Dimension    54 NMult    46 NNew      8
 CISAX will form     8 AO SS matrices at one time.
 NMat=     8 NSing=     8 JSym2X= 0.
 Root      1 not converged, maximum delta is    0.002165807281787
 Root      2 not converged, maximum delta is    0.002167050935875
 Root      3 not converged, maximum delta is    0.002501058394630
 Root      4 not converged, maximum delta is    0.002387256091213
 Root      5 has converged.
 Excitation Energies [eV] at current iteration:
 Root      1 :     1.675599738375191   Change is   -0.001778429154785
 Root      2 :     1.680391726495461   Change is   -0.001772731773326
 Root      3 :     2.186206638418189   Change is   -0.000846358582605
 Root      4 :     2.192635400648063   Change is   -0.000776421375119
 Root      5 :     3.059131413264968   Change is   -0.000000000000108
 Iteration     6 Dimension    62 NMult    54 NNew      8
 CISAX will form     8 AO SS matrices at one time.
 NMat=     8 NSing=     8 JSym2X= 0.
 Root      1 not converged, maximum delta is    0.001357578053044
 Root      2 not converged, maximum delta is    0.001378319468546
 Root      3 not converged, maximum delta is    0.001070040005573
 Root      4 not converged, maximum delta is    0.001014120293165
 Root      5 has converged.
 Excitation Energies [eV] at current iteration:
 Root      1 :     1.675345985268728   Change is   -0.000253753106463
 Root      2 :     1.680136707240762   Change is   -0.000255019254699
 Root      3 :     2.186078328603636   Change is   -0.000128309814553
 Root      4 :     2.192517647834505   Change is   -0.000117752813559
 Root      5 :     3.059131413264968   Change is    0.000000000000000
 Iteration     7 Dimension    70 NMult    62 NNew      8
 CISAX will form     8 AO SS matrices at one time.
 NMat=     8 NSing=     8 JSym2X= 0.
 Root      1 has converged.
 Root      2 has converged.
 Root      3 has converged.
 Root      4 has converged.
 Root      5 has converged.
 Excitation Energies [eV] at current iteration:
 Root      1 :     1.675321759524691   Change is   -0.000024225744037
[...]
 Alpha virt. eigenvalues --    1.84482   1.84530   1.84741   1.84889   1.85081
 Alpha virt. eigenvalues --    1.85183   1.85301   1.85354   1.85442   1.85561
 Alpha virt. eigenvalues --    1.85855   1.85947   1.86336   1.86439   1.86606
 Alpha virt. eigenvalues --    1.86635   1.86779   1.86862   1.86999   1.87119
 Alpha virt. eigenvalues --    1.87437   1.87525   1.87726   1.87760   1.87947
 Alpha virt. eigenvalues --    1.87967   1.88119   1.88132   1.88526   1.88615
 Alpha virt. eigenvalues --    1.88891   1.88901   1.89026   1.89205   1.89613
 Alpha virt. eigenvalues --    1.89704   1.89825   1.89831   1.90143   1.90197
 Alpha virt. eigenvalues --    1.90831   1.90848   1.91379   1.91427   1.91518
 Alpha virt. eigenvalues --    1.91544   1.92136   1.92233   1.92615   1.92706
 Alpha virt. eigenvalues --    1.93061   1.93103   1.93416   1.93455   1.94263
 Alpha virt. eigenvalues --    1.94362   1.94766   1.94767   1.95545   1.95553
 Alpha virt. eigenvalues --    1.95766   1.95807   1.96001   1.96074   1.96126
 Alpha virt. eigenvalues --    1.96231   1.96436   1.96674   1.96888   1.96978
 Alpha virt. eigenvalues --    1.97496   1.97529   1.97755   1.97915   1.98119
 Alpha virt. eigenvalues --    1.98249   1.98303   1.98755   1.99023   1.99215
 Alpha virt. eigenvalues --    1.99884   1.99900   2.00677   2.00738   2.01048
 Alpha virt. eigenvalues --    2.01076   2.01459   2.01560   2.01560   2.01752
 Alpha virt. eigenvalues --    2.01777   2.01799   2.02662   2.02864   2.03092
 Alpha virt. eigenvalues --    2.03313   2.03331   2.03472   2.03483   2.03564
 Alpha virt. eigenvalues --    2.03977   2.04114   2.04928   2.05037   2.05581
 Alpha virt. eigenvalues --    2.05592   2.06157   2.06237   2.06982   2.06985
 Alpha virt. eigenvalues --    2.07262   2.07298   2.08504   2.08663   2.08955
 Alpha virt. eigenvalues --    2.09060   2.09563   2.09668   2.10857   2.10984
 Alpha virt. eigenvalues --    2.11261   2.11357   2.11483   2.11618   2.11806
 Alpha virt. eigenvalues --    2.11815   2.12415   2.12544   2.12751   2.12819
 Alpha virt. eigenvalues --    2.12882   2.12913   2.13580   2.13845   2.14201
 Alpha virt. eigenvalues --    2.14214   2.15356   2.15414   2.16003   2.16030
 Alpha virt. eigenvalues --    2.16541   2.16600   2.16832   2.17121   2.17494
 Alpha virt. eigenvalues --    2.17598   2.17782   2.17882   2.17953   2.18148
 Alpha virt. eigenvalues --    2.18403   2.18622   2.18946   2.19184   2.19719
 Alpha virt. eigenvalues --    2.19768   2.20116   2.20191   2.20290   2.20387
 Alpha virt. eigenvalues --    2.21121   2.21228   2.21712   2.21747   2.21822
 Alpha virt. eigenvalues --    2.21824   2.22649   2.22757   2.23290   2.23391
 Alpha virt. eigenvalues --    2.24367   2.24472   2.24953   2.25036   2.26376
 Alpha virt. eigenvalues --    2.26388   2.26856   2.26956   2.27150   2.27180
 Alpha virt. eigenvalues --    2.28214   2.28261   2.29345   2.29383   2.29812
 Alpha virt. eigenvalues --    2.29826   2.30532   2.30569   2.30774   2.31147
 Alpha virt. eigenvalues --    2.31160   2.31259   2.32186   2.32197   2.33181
 Alpha virt. eigenvalues --    2.33212   2.33430   2.33539   2.34087   2.34216
 Alpha virt. eigenvalues --    2.35246   2.35448   2.35855   2.35873   2.36278
 Alpha virt. eigenvalues --    2.36395   2.36429   2.36700   2.37623   2.37735
 Alpha virt. eigenvalues --    2.38327   2.38333   2.38728   2.38933   2.39613
 Alpha virt. eigenvalues --    2.39687   2.40212   2.40258   2.40562   2.40773
 Alpha virt. eigenvalues --    2.41158   2.41345   2.41639   2.41763   2.42073
 Alpha virt. eigenvalues --    2.42116   2.42766   2.43018   2.43019   2.43611
 Alpha virt. eigenvalues --    2.43920   2.44245   2.44748   2.44806   2.44931
 Alpha virt. eigenvalues --    2.44979   2.45513   2.45622   2.46227   2.46376
 Alpha virt. eigenvalues --    2.46438   2.46553   2.46741   2.46875   2.47319
 Alpha virt. eigenvalues --    2.47329   2.47788   2.47827   2.49333   2.49384
 Alpha virt. eigenvalues --    2.49834   2.50144   2.50396   2.50624   2.51195
 Alpha virt. eigenvalues --    2.51206   2.51550   2.51961   2.52337   2.52515
 Alpha virt. eigenvalues --    2.52883   2.53101   2.53908   2.53993   2.54221
 Alpha virt. eigenvalues --    2.54223   2.54744   2.54862   2.55593   2.55603
 Alpha virt. eigenvalues --    2.57938   2.58014   2.58717   2.58838   2.60236
 Alpha virt. eigenvalues --    2.60281   2.60686   2.60858   2.61755   2.61784
 Alpha virt. eigenvalues --    2.62365   2.62607   2.63029   2.63060   2.64009
 Alpha virt. eigenvalues --    2.64152   2.64317   2.64359   2.65031   2.65153
 Alpha virt. eigenvalues --    2.65794   2.65860   2.66753   2.66851   2.66983
 Alpha virt. eigenvalues --    2.66988   2.67912   2.67981   2.68751   2.68931
 Alpha virt. eigenvalues --    2.68964   2.69097   2.69464   2.69524   2.70068
 Alpha virt. eigenvalues --    2.70072   2.70998   2.71054   2.71824   2.72127
 Alpha virt. eigenvalues --    2.72423   2.72665   2.72727   2.72903   2.73216
 Alpha virt. eigenvalues --    2.73348   2.73400   2.73608   2.74436   2.74584
 Alpha virt. eigenvalues --    2.74983   2.75048   2.76448   2.76664   2.76993
 Alpha virt. eigenvalues --    2.77306   2.77529   2.77531   2.78222   2.78262
 Alpha virt. eigenvalues --    2.78616   2.78803   2.79082   2.79207   2.80190
 Alpha virt. eigenvalues --    2.80417   2.80616   2.80663   2.81075   2.81188
 Alpha virt. eigenvalues --    2.81914   2.82007   2.82258   2.82414   2.83771
 Alpha virt. eigenvalues --    2.83825   2.83829   2.83840   2.84450   2.84617
 Alpha virt. eigenvalues --    2.84808   2.84955   2.85616   2.85740   2.86583
 Alpha virt. eigenvalues --    2.87069   2.87100   2.87681   2.88160   2.88227
 Alpha virt. eigenvalues --    2.88539   2.88581   2.88794   2.89007   2.90570
 Alpha virt. eigenvalues --    2.90581   2.90989   2.91260   2.93227   2.93242
 Alpha virt. eigenvalues --    2.93691   2.94272   2.94494   2.94629   2.95394
 Alpha virt. eigenvalues --    2.95440   2.95764   2.96276   2.96296   2.96514
 Alpha virt. eigenvalues --    2.96795   2.97251   2.97890   2.97952   2.98279
 Alpha virt. eigenvalues --    2.98280   2.98438   2.98493   2.98673   2.98699
 Alpha virt. eigenvalues --    2.98842   2.98955   2.99658   2.99721   2.99939
 Alpha virt. eigenvalues --    3.00105   3.00257   3.00293   3.00534   3.00912
 Alpha virt. eigenvalues --    3.01822   3.02036   3.02061   3.02104   3.02744
 Alpha virt. eigenvalues --    3.02807   3.03051   3.03235   3.03399   3.03627
 Alpha virt. eigenvalues --    3.03972   3.04243   3.04352   3.04523   3.04620
 Alpha virt. eigenvalues --    3.04647   3.05270   3.05366   3.06081   3.06185
 Alpha virt. eigenvalues --    3.06854   3.06877   3.07841   3.08217   3.09275
 Alpha virt. eigenvalues --    3.09475   3.09766   3.10353   3.10515   3.10657
 Alpha virt. eigenvalues --    3.11397   3.11401   3.11818   3.12017   3.12222
 Alpha virt. eigenvalues --    3.12249   3.13357   3.13568   3.13607   3.13713
 Alpha virt. eigenvalues --    3.14167   3.14395   3.15908   3.15995   3.17337
 Alpha virt. eigenvalues --    3.17436   3.17797   3.18151   3.18950   3.19201
 Alpha virt. eigenvalues --    3.22382   3.22518   3.24021   3.24356   3.24749
 Alpha virt. eigenvalues --    3.25110   3.26574   3.26579   3.27311   3.27696
 Alpha virt. eigenvalues --    3.29143   3.29178   3.31295   3.31600   3.33102
 Alpha virt. eigenvalues --    3.33493   3.40182   3.40708   3.42735   3.42891
 Alpha virt. eigenvalues --    3.48614   3.48735   3.50097   3.50198   3.50753
 Alpha virt. eigenvalues --    3.51550   3.56626   3.56922   3.59175   3.59256
 Alpha virt. eigenvalues --    3.62432   3.62913   3.66032   3.66260   3.67264
 Alpha virt. eigenvalues --    3.67464   3.73349   3.73941   3.76134   3.76599
          Condensed to atoms (all electrons):
 Mulliken charges:
               1
     1  Mg   0.838858
     2  C   -0.002973
     3  C   -0.094111
     4  C   -0.045895
     5  C   -0.063966
     6  N   -0.256795
     7  C   -0.052441
     8  C   -0.014025
     9  C   -0.087015
    10  C    0.046355
    11  C    0.104821
    12  C    0.053465
    13  C   -0.071820
    14  H    0.036203
    15  N   -0.433145
    16  C    0.168416
    17  C   -0.177156
    18  C   -0.004021
    19  C    0.148717
    20  C    0.110178
    21  C    0.012290
    22  O   -0.249661
    23  C    0.062474
    24  N   -0.341172
    25  C    0.041246
    26  C   -0.028159
    27  C   -0.023965
    28  C    0.074853
    29  C    0.076182
    30  C    0.035113
    31  C   -0.004498
    32  N   -0.310487
    33  C    0.080443
    34  C   -0.169688
    35  C    0.008355
    36  C    0.083024
    37  C    0.127301
    38  C    0.046145
    39  O   -0.188413
    40  C   -0.005343
    41  C    0.212878
    42  O   -0.257036
    43  O   -0.304826
    44  C    0.157678
    45  H   -0.017636
    46  H   -0.016869
    47  H   -0.041489
    48  H    0.000926
    49  H   -0.004031
    50  H    0.025456
    51  H    0.016421
    52  H    0.016624
    53  H    0.011234
    54  H    0.044171
    55  H    0.017829
    56  H    0.017944
    57  H    0.005865
    58  H    0.026773
    59  H    0.039571
    60  H    0.037310
    61  H    0.035611
    62  H    0.031543
    63  H    0.016555
    64  H    0.009425
    65  H    0.023172
    66  H    0.012517
    67  H    0.004719
    68  H    0.006330
    69  H    0.004743
    70  H    0.008765
    71  H    0.018213
    72  H    0.029012
    73  H    0.047623
    74  H    0.009122
    75  H    0.045970
    76  H    0.035118
    77  H    0.042933
    78  H    0.046393
    79  H    0.053753
    80  Mg   0.837901
    81  C   -0.016803
    82  C   -0.087774
    83  C   -0.045509
    84  C   -0.064878
    85  N   -0.254552
    86  C   -0.049839
    87  C   -0.015088
    88  C   -0.090493
    89  C    0.045744
    90  C    0.114383
    91  C    0.062508
    92  C   -0.077923
    93  H    0.034983
    94  N   -0.423497
    95  C    0.162908
    96  C   -0.174640
    97  C   -0.007805
    98  C    0.152129
    99  C    0.099382
   100  C    0.015579
   101  O   -0.253201
   102  C    0.061192
   103  N   -0.350090
   104  C    0.037533
   105  C   -0.019838
   106  C   -0.034836
   107  C    0.088951
   108  C    0.073669
   109  C    0.034742
   110  C   -0.007693
   111  N   -0.324119
   112  C    0.078441
   113  C   -0.163094
   114  C    0.002257
   115  C    0.096209
   116  C    0.131479
   117  C    0.042408
   118  O   -0.187829
   119  C    0.000927
   120  C    0.211266
   121  O   -0.250950
   122  O   -0.305662
   123  C    0.152004
   124  H   -0.019674
   125  H   -0.015589
   126  H   -0.040430
   127  H   -0.000654
   128  H   -0.004311
   129  H    0.022448
   130  H    0.014401
   131  H    0.016276
   132  H    0.013937
   133  H    0.037718
   134  H    0.020766
   135  H    0.019593
   136  H    0.008761
   137  H    0.026116
   138  H    0.039812
   139  H    0.038234
   140  H    0.036378
   141  H    0.033927
   142  H    0.014413
   143  H    0.012401
   144  H    0.025126
   145  H    0.011612
   146  H    0.005657
   147  H    0.006252
   148  H    0.003680
   149  H    0.010923
   150  H    0.018024
   151  H    0.030119
   152  H    0.046081
   153  H    0.008542
   154  H    0.046913
   155  H    0.035003
   156  H    0.043926
   157  H    0.049490
   158  H    0.053649
 Sum of Mulliken charges =  -0.00000
 Mulliken charges with hydrogens summed into heavy atoms:
               1
     1  Mg   0.838858
     2  C   -0.002973
     3  C   -0.111747
     4  C   -0.062763
     5  C   -0.105455
     6  N   -0.256795
     7  C   -0.052441
     8  C   -0.013098
     9  C   -0.091046
    10  C    0.046355
    11  C    0.163322
    12  C    0.108870
    13  C    0.000156
    15  N   -0.433145
    16  C    0.168416
    17  C   -0.177156
    18  C   -0.004021
    19  C    0.148717
    20  C    0.182387
    21  C    0.012290
    22  O   -0.249661
    23  C    0.166938
    24  N   -0.341172
    25  C    0.041246
    26  C   -0.011605
    27  C   -0.014540
    28  C    0.074853
    29  C    0.116590
    30  C    0.046186
    31  C    0.051492
    32  N   -0.310487
    33  C    0.080443
    34  C   -0.169688
    35  C    0.008355
    36  C    0.083024
    37  C    0.230017
    38  C    0.046145
    39  O   -0.188413
    40  C    0.029775
    41  C    0.212878
    42  O   -0.257036
    43  O   -0.304826
    44  C    0.300758
    80  Mg   0.837901
    81  C   -0.016803
    82  C   -0.107449
    83  C   -0.061097
    84  C   -0.105309
    85  N   -0.254552
    86  C   -0.049839
    87  C   -0.015742
    88  C   -0.094804
    89  C    0.045744
    90  C    0.167507
    91  C    0.114164
    92  C   -0.002581
    94  N   -0.423497
    95  C    0.162908
    96  C   -0.174640
    97  C   -0.007805
    98  C    0.152129
    99  C    0.174071
   100  C    0.015579
   101  O   -0.253201
   102  C    0.169732
   103  N   -0.350090
   104  C    0.037533
   105  C   -0.005426
   106  C   -0.022435
   107  C    0.088951
   108  C    0.116063
   109  C    0.044674
   110  C    0.051374
   111  N   -0.324119
   112  C    0.078441
   113  C   -0.163094
   114  C    0.002257
   115  C    0.096209
   116  C    0.233014
   117  C    0.042408
   118  O   -0.187829
   119  C    0.035931
   120  C    0.211266
   121  O   -0.250950
   122  O   -0.305662
   123  C    0.299069
 Electronic spatial extent (au):  <R**2>=         622505.8037
 Charge=             -0.0000 electrons
 Dipole moment (field-independent basis, Debye):
    X=              0.0739    Y=             -0.2312    Z=              7.4785  Tot=              7.4824
 Quadrupole moment (field-independent basis, Debye-Ang):
   XX=           -380.6052   YY=           -461.0015   ZZ=           -539.6286
   XY=             54.6367   XZ=              0.7583   YZ=              0.9909
 Traceless Quadrupole moment (field-independent basis, Debye-Ang):
   XX=             79.8066   YY=             -0.5897   ZZ=            -79.2169
   XY=             54.6367   XZ=              0.7583   YZ=              0.9909
 Octapole moment (field-independent basis, Debye-Ang**2):
  XXX=            103.5194  YYY=              8.7501  ZZZ=            380.9924  XYY=            -27.2376
  XXY=             19.7908  XXZ=           1964.0204  XZZ=             23.8728  YZZ=            -11.7574
  YYZ=           -286.3209  XYZ=            924.5566
 Hexadecapole moment (field-independent basis, Debye-Ang**3):
 XXXX=        -727071.9630 YYYY=         -32396.7516 ZZZZ=         -32662.3960 XXXY=          19295.4858
 XXXZ=           1678.7143 YYYX=           3287.9764 YYYZ=             -5.5003 ZZZX=             17.4464
 ZZZY=             -2.5832 XXYY=        -124368.7125 XXZZ=        -143396.0630 YYZZ=         -11424.0470
 XXYZ=           -151.6772 YYXZ=            -11.0843 ZZXY=           1617.3060
 N-N= 1.229503532481D+04 E-N=-3.407102977241D+04  KE= 4.028802061997D+03
 Leave Link  601 at Sun Sep 12 12:25:47 2021, MaxMem= 23488102400 cpu:              13.9 elap:               0.7
 (Enter /sw/apps/gaussian-16.0/g16/l9999.exe)
 1\1\GINC-BP1-COMPUTE00089\SP\RCAM-B3LYP TD-FC\def2SVP\C68H72Mg2N8O8\OF
 15641\12-Sep-2021\0\\#p cam-b3lyp/Def2SVP td=(nstates=5)\\TDDFT excite
 d states in gaussian\\0,1\Mg,0,0.,0.,0.\C,0,-0.217,-2.218,2.801\C,0,-1
 .255,2.442,2.026\C,0,-0.245,1.85,-2.564\C,0,0.146,-2.824,-2.037\N,0,-0
 .617,-0.009,2.126\C,0,-0.594,-0.908,3.105\C,0,-0.936,-0.309,4.502\C,0,
 -1.773,0.964,4.032\C,0,-1.155,1.168,2.66\C,0,-3.263,0.685,3.863\C,0,0.
 345,0.11,5.299\C,0,0.124,0.397,6.787\H,0,1.168,0.033,7.733\N,0,-0.185,
 1.961,-0.152\C,0,-0.703,2.8,0.777\C,0,-0.62,4.156,0.193\C,0,-0.187,4.0
 15,-1.225\C,0,-0.214,2.583,-1.38\C,0,-0.887,5.406,0.974\C,0,0.181,5.01
 3,-2.277\O,0,0.303,4.69,-3.508\C,0,0.31,6.414,-1.837\N,0,-0.265,-0.413
 ,-2.029\C,0,-0.279,0.569,-2.937\C,0,-0.196,0.024,-4.332\C,0,0.124,-1.5
 33,-4.18\C,0,0.086,-1.632,-2.635\C,0,-1.451,0.205,-5.197\C,0,1.373,-2.
 07,-4.923\C,0,2.626,-1.49,-4.306\N,0,0.15,-2.144,0.303\C,0,0.173,-3.13
 6,-0.688\C,0,0.173,-4.438,0.004\C,0,0.133,-4.111,1.358\C,0,0.083,-2.69
 5,1.502\C,0,0.149,-5.715,-0.623\C,0,0.096,-4.629,2.716\O,0,0.208,-5.74
 7,3.221\C,0,-0.255,-3.428,3.701\C,0,0.717,-3.482,4.848\O,0,1.931,-3.25
 5,4.669\O,0,0.038,-3.556,6.003\C,0,0.943,-3.583,7.183\H,0,-1.859,3.22,
 2.497\H,0,-0.218,2.453,-3.474\H,0,0.276,-3.747,-2.605\H,0,-1.554,-0.94
 9,5.132\H,0,-1.585,1.831,4.665\H,0,-3.484,-0.377,3.969\H,0,-3.511,1.02
 7,2.858\H,0,-3.852,1.301,4.543\H,0,0.669,1.096,4.966\H,0,1.13,-0.639,5
 .189\H,0,-0.844,0.026,7.125\H,0,0.062,1.477,6.921\H,0,-1.344,5.186,1.9
 38\H,0,-1.651,5.963,0.432\H,0,0.007,6.02,1.084\H,0,-0.635,6.744,-1.405
 \H,0,0.665,6.97,-2.704\H,0,1.048,6.466,-1.036\H,0,0.608,0.501,-4.891\H
 ,0,-0.692,-2.156,-4.547\H,0,-1.267,0.74,-6.129\H,0,-2.204,0.714,-4.596
 \H,0,-1.967,-0.72,-5.453\H,0,1.356,-1.759,-5.967\H,0,1.452,-3.157,-4.9
 02\H,0,2.714,-0.522,-4.798\H,0,3.487,-2.121,-4.529\H,0,2.495,-1.303,-3
 .24\H,0,0.867,-6.333,-0.084\H,0,0.404,-5.642,-1.68\H,0,-0.891,-5.999,-
 0.463\H,0,-1.283,-3.581,4.028\H,0,0.698,-4.478,7.755\H,0,0.833,-2.619,
 7.68\H,0,2.,-3.754,6.976\Mg,0,31.52638,2.841,2.387\C,0,32.38964,0.1502
 2,0.17486\C,0,32.62265,4.98228,-0.03121\C,0,31.19989,5.20807,4.47454\C
 ,0,31.58146,0.53,4.99505\N,0,32.37401,2.49096,0.37422\C,0,32.59784,1.4
 2835,-0.38413\C,0,32.99474,1.75547,-1.84872\C,0,33.58037,3.23239,-1.61
 5\C,0,32.78821,3.61468,-0.36639\C,0,35.0591,3.24502,-1.26494\C,0,31.75
 736,1.77421,-2.81337\C,0,32.10396,1.78059,-4.30387\H,0,31.23301,1.0546
 ,-5.22411\N,0,31.39551,4.79995,2.09725\C,0,31.87579,5.50138,1.04911\C,
 0,31.54002,6.90807,1.31861\C,0,30.96801,6.99946,2.68944\C,0,31.1897,5.
 64628,3.15832\C,0,31.69535,7.9927,0.29251\C,0,30.3387,8.1227,3.45657\O
 ,0,30.12812,8.04146,4.71827\C,0,30.06197,9.35565,2.70507\N,0,31.61487,
 2.91242,4.46291\C,0,31.38462,4.05947,5.12562\C,0,31.2296,3.8118,6.6071
 8\C,0,31.16293,2.22251,6.77242\C,0,31.39047,1.80552,5.30282\C,0,32.342
 12,4.36927,7.49483\C,0,29.93213,1.64398,7.52281\C,0,28.67899,1.86598,6
 .70687\N,0,31.72805,0.69693,2.56128\C,0,31.74991,-0.06387,3.75073\C,0,
 32.02271,-1.46412,3.36695\C,0,32.1646,-1.4166,1.97192\C,0,32.01241,-0.
 07777,1.5204\C,0,32.15703,-2.56138,4.26367\C,0,32.41906,-2.19291,0.779
 74\O,0,32.53963,-3.3923,0.53341\C,0,32.70162,-1.19342,-0.4234\C,0,31.8
 8274,-1.64258,-1.60247\O,0,30.64046,-1.60171,-1.56157\O,0,32.69713,-1.
 83912,-2.65533\C,0,31.92978,-2.27503,-3.85241\H,0,33.14829,5.72961,-0.
 62625\H,0,30.98109,5.96954,5.22671\H,0,31.5172,-0.26617,5.73981\H,0,33
 .76114,1.11332,-2.26591\H,0,33.33031,3.89189,-2.44197\H,0,35.44608,2.2
 4812,-1.11469\H,0,35.14088,3.82385,-0.35427\H,0,35.62147,3.79632,-2.02
 398\H,0,31.25542,2.74701,-2.73303\H,0,31.09537,0.95765,-2.59981\H,0,33
 .15442,1.5216,-4.4839\H,0,32.01237,2.80351,-4.67706\H,0,32.29326,7.654
 62,-0.56282\H,0,32.29989,8.78263,0.75123\H,0,30.73877,8.4165,-0.02054\
 H,0,30.98867,9.73686,2.28275\H,0,29.53157,10.00898,3.40056\H,0,29.4082
 7,9.11123,1.86035\H,0,30.30716,4.24254,6.97684\H,0,32.019,1.83611,7.34
 486\H,0,31.97243,5.06026,8.27581\H,0,33.06795,4.86328,6.86263\H,0,32.9
 4847,3.61988,8.00076\H,0,29.7837,2.17019,8.46898\H,0,30.02369,0.58768,
 7.7527\H,0,28.39765,2.89231,6.96098\H,0,27.90293,1.16062,6.9971\H,0,28
 .89879,1.84065,5.63323\H,0,31.61048,-3.3876,3.82876\H,0,31.78213,-2.31
 332,5.25447\H,0,33.24291,-2.68812,4.25552\H,0,33.77168,-1.22597,-0.631
 92\H,0,32.37238,-3.2173,-4.18992\H,0,31.96376,-1.42203,-4.55596\H,0,30
 .89643,-2.5671,-3.70633\\Version=ES64L-G16RevA.03\State=1-A\HF=-4069.8
 117557\RMSD=4.479e-09\PG=C01 [X(C68H72Mg2N8O8)]\\@


 FORGIVE MY NONSENSE AS I ALSO FORGIVE THOSE WHO THINK THEY TALK SENSE

                                                       -- ROBERT FROST
 Job cpu time:       0 days 10 hours 14 minutes  7.3 seconds.
 Elapsed time:       0 days  0 hours 26 minutes 10.5 seconds.
 File lengths (MBytes):  RWF=  13225 Int=      0 D2E=      0 Chk=    574 Scr=      1
 Normal termination of Gaussian 16 at Sun Sep 12 12:25:48 2021.
