 Entering Gaussian System, Link 0=g16
 Initial command:
 /sw/apps/gaussian-16.0/g16/l1.exe "/tmp/Gau-265469.inp" -scrdir="/tmp/"
 Entering Link 1 = /sw/apps/gaussian-16.0/g16/l1.exe PID=    265470.
  
 Copyright (c) 1988,1990,1992,1993,1995,1998,2003,2009,2016,
            Gaussian, Inc.  All Rights Reserved.
  
 This is part of the Gaussian(R) 16 program.  It is based on
 the Gaussian(R) 09 system (copyright 2009, Gaussian, Inc.),
 the Gaussian(R) 03 system (copyright 2003, Gaussian, Inc.),
 the Gaussian(R) 98 system (copyright 1998, Gaussian, Inc.),
 the Gaussian(R) 94 system (copyright 1995, Gaussian, Inc.),
 the Gaussian 92(TM) system (copyright 1992, Gaussian, Inc.),
 the Gaussian 90(TM) system (copyright 1990, Gaussian, Inc.),
 the Gaussian 88(TM) system (copyright 1988, Gaussian, Inc.),
 the Gaussian 86(TM) system (copyright 1986, Carnegie Mellon
 University), and the Gaussian 82(TM) system (copyright 1983,
 Carnegie Mellon University). Gaussian is a federally registered
 trademark of Gaussian, Inc.
  
 This software contains proprietary and confidential information,
 including trade secrets, belonging to Gaussian, Inc.
  
 This software is provided under written license and may be
 used, copied, transmitted, or stored only in accord with that
 written license.
  
 The following legend is applicable only to US Government
 contracts under FAR:
  
                    RESTRICTED RIGHTS LEGEND
  
 Use, reproduction and disclosure by the US Government is
 subject to restrictions as set forth in subparagraphs (a)
 and (c) of the Commercial Computer Software - Restricted
 Rights clause in FAR 52.227-19.
  
 Gaussian, Inc.
 340 Quinnipiac St., Bldg. 40, Wallingford CT 06492
  
  
 ---------------------------------------------------------------
 Warning -- This program may not be used in any manner that
 competes with the business of Gaussian, Inc. or will provide
 assistance to any competitor of Gaussian, Inc.  The licensee
 of this program is prohibited from giving any competitor of
 Gaussian, Inc. access to this program.  By using this program,
 the user acknowledges that Gaussian, Inc. is engaged in the
 business of creating and licensing software in the field of
 computational chemistry and represents and warrants to the
 licensee that it is not a competitor of Gaussian, Inc. and that
 it will not use this program in any manner prohibited above.
 ---------------------------------------------------------------
  

 Cite this work as:
 Gaussian 16, Revision A.03,
 M. J. Frisch, G. W. Trucks, H. B. Schlegel, G. E. Scuseria, 
 M. A. Robb, J. R. Cheeseman, G. Scalmani, V. Barone, 
 G. A. Petersson, H. Nakatsuji, X. Li, M. Caricato, A. V. Marenich, 
 J. Bloino, B. G. Janesko, R. Gomperts, B. Mennucci, H. P. Hratchian, 
 J. V. Ortiz, A. F. Izmaylov, J. L. Sonnenberg, D. Williams-Young, 
 F. Ding, F. Lipparini, F. Egidi, J. Goings, B. Peng, A. Petrone, 
 T. Henderson, D. Ranasinghe, V. G. Zakrzewski, J. Gao, N. Rega, 
 G. Zheng, W. Liang, M. Hada, M. Ehara, K. Toyota, R. Fukuda, 
 J. Hasegawa, M. Ishida, T. Nakajima, Y. Honda, O. Kitao, H. Nakai, 
 T. Vreven, K. Throssell, J. A. Montgomery, Jr., J. E. Peralta, 
 F. Ogliaro, M. J. Bearpark, J. J. Heyd, E. N. Brothers, K. N. Kudin, 
 V. N. Staroverov, T. A. Keith, R. Kobayashi, J. Normand, 
 K. Raghavachari, A. P. Rendell, J. C. Burant, S. S. Iyengar, 
 J. Tomasi, M. Cossi, J. M. Millam, M. Klene, C. Adamo, R. Cammi, 
 J. W. Ochterski, R. L. Martin, K. Morokuma, O. Farkas, 
 J. B. Foresman, and D. J. Fox, Gaussian, Inc., Wallingford CT, 2016.
 
 ******************************************
 Gaussian 16:  ES64L-G16RevA.03 25-Dec-2016
                 4-Sep-2021 
 ******************************************
 %nproc=24
 Will use up to   24 processors via shared memory.
 %mem=175gb
 -----------------------------------
 #p cam-b3lyp/Def2SVP td=(nstates=5)
 -----------------------------------
 1/38=1,172=1/1;
 2/12=2,17=6,18=5,40=1/2;
 3/5=43,7=101,11=9,25=1,30=1,74=-40/1,2,3,8;
 4//1;
 5/5=2,38=5/2;
 8/6=1,10=1,108=5/1;
 9/41=5,42=1,70=2/14;
 6/7=2,8=2,9=2,10=2/1;
 99/5=1,9=1/99;
 Leave Link    1 at Sat Sep  4 04:21:36 2021, MaxMem= 23488102400 cpu:               0.8 elap:               0.0
 (Enter /sw/apps/gaussian-16.0/g16/l101.exe)
 --------------------------------
 TDDFT excited states in gaussian
 --------------------------------
 Symbolic Z-matrix:
 Charge =  0 Multiplicity = 1
 Mg                    0.        0.        0. 
 C                    -0.217    -2.218     2.801 
 C                    -1.255     2.442     2.026 
 C                    -0.245     1.85     -2.564 
 C                     0.146    -2.824    -2.037 
 N                    -0.617    -0.009     2.126 
 C                    -0.594    -0.908     3.105 
 C                    -0.936    -0.309     4.502 
 C                    -1.773     0.964     4.032 
 C                    -1.155     1.168     2.66 
 C                    -3.263     0.685     3.863 
 C                     0.345     0.11      5.299 
 C                     0.124     0.397     6.787 
 H                     1.168     0.033     7.733 
 N                    -0.185     1.961    -0.152 
 C                    -0.703     2.8       0.777 
 C                    -0.62      4.156     0.193 
 C                    -0.187     4.015    -1.225 
 C                    -0.214     2.583    -1.38 
 C                    -0.887     5.406     0.974 
 C                     0.181     5.013    -2.277 
 O                     0.303     4.69     -3.508 
 C                     0.31      6.414    -1.837 
 N                    -0.265    -0.413    -2.029 
 C                    -0.279     0.569    -2.937 
 C                    -0.196     0.024    -4.332 
 C                     0.124    -1.533    -4.18 
 C                     0.086    -1.632    -2.635 
 C                    -1.451     0.205    -5.197 
 C                     1.373    -2.07     -4.923 
 C                     2.626    -1.49     -4.306 
 N                     0.15     -2.144     0.303 
 C                     0.173    -3.136    -0.688 
 C                     0.173    -4.438     0.004 
 C                     0.133    -4.111     1.358 
 C                     0.083    -2.695     1.502 
 C                     0.149    -5.715    -0.623 
 C                     0.096    -4.629     2.716 
 O                     0.208    -5.747     3.221 
 C                    -0.255    -3.428     3.701 
 C                     0.717    -3.482     4.848 
 O                     1.931    -3.255     4.669 
 O                     0.038    -3.556     6.003 
 C                     0.943    -3.583     7.183 
 H                    -1.859     3.22      2.497 
 H                    -0.218     2.453    -3.474 
 H                     0.276    -3.747    -2.605 
 H                    -1.554    -0.949     5.132 
 H                    -1.585     1.831     4.665 
 H                    -3.484    -0.377     3.969 
 H                    -3.511     1.027     2.858 
 H                    -3.852     1.301     4.543 
 H                     0.669     1.096     4.966 
 H                     1.13     -0.639     5.189 
 H                    -0.844     0.026     7.125 
 H                     0.062     1.477     6.921 
 H                    -1.344     5.186     1.938 
 H                    -1.651     5.963     0.432 
 H                     0.007     6.02      1.084 
 H                    -0.635     6.744    -1.405 
 H                     0.665     6.97     -2.704 
 H                     1.048     6.466    -1.036 
 H                     0.608     0.501    -4.891 
 H                    -0.692    -2.156    -4.547 
 H                    -1.267     0.74     -6.129 
 H                    -2.204     0.714    -4.596 
 H                    -1.967    -0.72     -5.453 
 H                     1.356    -1.759    -5.967 
 H                     1.452    -3.157    -4.902 
 H                     2.714    -0.522    -4.798 
 H                     3.487    -2.121    -4.529 
 H                     2.495    -1.303    -3.24 
 H                     0.867    -6.333    -0.084 
 H                     0.404    -5.642    -1.68 
 H                    -0.891    -5.999    -0.463 
 H                    -1.283    -3.581     4.028 
 H                     0.698    -4.478     7.755 
 H                     0.833    -2.619     7.68 
 H                     2.       -3.754     6.976 
 Mg                    10.51728   0.95452   0.80016 
 C                     9.99395   1.50191   4.30809 
 C                     9.38697   4.13173   0.28799 
 C                     10.53905   0.35384  -2.31531 
 C                     10.50486  -2.46487   1.47344 
 N                     9.81149   2.51716   2.1974 
 C                     9.71505   2.63325   3.51329 
 C                     9.37381   4.06396   4.00946 
 C                     8.6601    4.61542   2.68078 
 C                     9.34982   3.72807   1.64658 
 C                     7.16819   4.32979   2.63624 
 C                     10.65653   4.89674   4.36031 
 C                     10.39241   6.18678   5.13993 
 H                     11.36755   6.60597   6.14286 
 N                     10.50674   2.19691  -0.7474 
 C                     10.02985   3.4591   -0.77437 
 C                     10.23687   3.93809  -2.14982 
 C                     10.72406   2.7993   -2.97476 
 C                     10.586    1.71036  -2.0286 
 C                     10.05156   5.37351  -2.54814 
 C                     11.21874   2.70375  -4.38628 
 O                     11.36595   1.57382  -4.97314 
 C                     11.43662   3.97492  -5.09206 
 N                     10.31017  -0.79774  -0.29941 
 C                     10.41147  -0.78862  -1.64015 
 C                     10.50469  -2.19208  -2.1897 
 C                     10.68908  -3.14097  -0.91566 
 C                     10.57617  -2.08444   0.20523 
 C                     9.30437  -2.66707  -3.00824 
 C                     11.9194  -4.08912  -0.91648 
 C                     13.19344  -3.28151  -0.81656 
 N                     10.47846  -0.28178   2.57163 
 C                     10.4526  -1.69259   2.6268 
 C                     10.31397  -2.07024   4.04827 
 C                     10.2451  -0.84295   4.72467 
 C                     10.31418   0.22421   3.78878 
 C                     10.21906  -3.39867   4.55064 
 C                     10.11897  -0.20758   6.01661 
 O                     10.1083  -0.6028    7.18169 
 C                     9.82351   1.33808   5.79292 
 C                     10.73881   2.12107   6.69384 
 O                     11.96976   2.09844   6.51816 
 O                     10.00144   2.93408   7.47208 
 C                     10.86537   3.73964   8.37569 
 H                     8.83653   5.02701  -0.00248 
 H                     10.65488   0.09037  -3.36918 
 H                     10.59181  -3.51094   1.77488 
 H                     8.68512   4.10282   4.84491 
 H                     8.9014    5.66097   2.50771 
 H                     6.85453   3.69722   3.45332 
 H                     6.99081   3.83906   1.68821 
 H                     6.60582   5.26722   2.60024 
 H                     11.07396   5.31761   3.43654 
 H                     11.36904   4.29423   4.8894 
 H                     9.37742   6.21743   5.55442 
 H                     10.42217   7.02661   4.44149 
 H                     9.53018   5.94309  -1.76894 
 H                     9.36168   5.38276  -3.39892 
 H                     10.98686   5.852    -2.84634 
 H                     10.50684   4.53827  -5.11672 
 H                     11.87433   3.70343  -6.05465 
 H                     12.1529   4.57469  -4.51949 
 H                     11.36819  -2.29821  -2.83484 
 H                     9.83668  -3.8247   -0.79006 
 H                     9.57445  -2.99209  -4.03073 
 H                     8.57696  -1.86695  -3.04326 
 H                     8.73317  -3.4792   -2.56173 
 H                     11.97341  -4.63863  -1.8595 
 H                     11.90017  -4.82237  -0.11713 
 H                     13.37753  -2.98182  -1.8526 
 H                     14.00641  -3.89445  -0.43258 
 H                     13.0353  -2.36765  -0.23219 
 H                     10.85284  -3.44647   5.42616 
 H                     10.51828  -4.12919   3.80193 
 H                     9.14885  -3.44885   4.76839 
 H                     8.77245   1.50826   6.02935 
 H                     10.51861   3.55551   9.39722 
 H                     10.80176   4.77882   8.00177 
 H                     11.90924   3.45888   8.45285 
 
 ITRead=  0  0  0  0  0  0  0  0  0  0  0  0  0  0  0  0  0  0  0  0
 ITRead=  0  0  0  0  0  0  0  0  0  0  0  0  0  0  0  0  0  0  0  0
 ITRead=  0  0  0  0  0  0  0  0  0  0  0  0  0  0  0  0  0  0  0  0
 ITRead=  0  0  0  0  0  0  0  0  0  0  0  0  0  0  0  0  0  0  0  0
 ITRead=  0  0  0  0  0  0  0  0  0  0  0  0  0  0  0  0  0  0  0  0
 ITRead=  0  0  0  0  0  0  0  0  0  0  0  0  0  0  0  0  0  0  0  0
 ITRead=  0  0  0  0  0  0  0  0  0  0  0  0  0  0  0  0  0  0  0  0
 ITRead=  0  0  0  0  0  0  0  0  0  0  0  0  0  0  0  0  0  0
 MicOpt= -1 -1 -1 -1 -1 -1 -1 -1 -1 -1 -1 -1 -1 -1 -1 -1 -1 -1 -1 -1
 MicOpt= -1 -1 -1 -1 -1 -1 -1 -1 -1 -1 -1 -1 -1 -1 -1 -1 -1 -1 -1 -1
 MicOpt= -1 -1 -1 -1 -1 -1 -1 -1 -1 -1 -1 -1 -1 -1 -1 -1 -1 -1 -1 -1
 MicOpt= -1 -1 -1 -1 -1 -1 -1 -1 -1 -1 -1 -1 -1 -1 -1 -1 -1 -1 -1 -1
 MicOpt= -1 -1 -1 -1 -1 -1 -1 -1 -1 -1 -1 -1 -1 -1 -1 -1 -1 -1 -1 -1
 MicOpt= -1 -1 -1 -1 -1 -1 -1 -1 -1 -1 -1 -1 -1 -1 -1 -1 -1 -1 -1 -1
 MicOpt= -1 -1 -1 -1 -1 -1 -1 -1 -1 -1 -1 -1 -1 -1 -1 -1 -1 -1 -1 -1
 MicOpt= -1 -1 -1 -1 -1 -1 -1 -1 -1 -1 -1 -1 -1 -1 -1 -1 -1 -1
 NAtoms=    158 NQM=      158 NQMF=       0 NMMI=      0 NMMIF=      0
                NMic=       0 NMicF=      0.
                    Isotopes and Nuclear Properties:
 (Nuclear quadrupole moments (NQMom) in fm**2, nuclear magnetic moments (NMagM)
  in nuclear magnetons)

  Atom         1           2           3           4           5           6           7           8           9          10
 IAtWgt=          24          12          12          12          12          14          12          12          12          12
 AtmWgt=  23.9850450  12.0000000  12.0000000  12.0000000  12.0000000  14.0030740  12.0000000  12.0000000  12.0000000  12.0000000
 NucSpn=           0           0           0           0           0           2           0           0           0           0
 AtZEff=  -0.0000000  -0.0000000  -0.0000000  -0.0000000  -0.0000000  -0.0000000  -0.0000000  -0.0000000  -0.0000000  -0.0000000
 NQMom=    0.0000000   0.0000000   0.0000000   0.0000000   0.0000000   2.0440000   0.0000000   0.0000000   0.0000000   0.0000000
 NMagM=    0.0000000   0.0000000   0.0000000   0.0000000   0.0000000   0.4037610   0.0000000   0.0000000   0.0000000   0.0000000
 AtZNuc=  12.0000000   6.0000000   6.0000000   6.0000000   6.0000000   7.0000000   6.0000000   6.0000000   6.0000000   6.0000000

  Atom        11          12          13          14          15          16          17          18          19          20
 IAtWgt=          12          12          12           1          14          12          12          12          12          12
 AtmWgt=  12.0000000  12.0000000  12.0000000   1.0078250  14.0030740  12.0000000  12.0000000  12.0000000  12.0000000  12.0000000
 NucSpn=           0           0           0           1           2           0           0           0           0           0
 AtZEff=  -0.0000000  -0.0000000  -0.0000000  -0.0000000  -0.0000000  -0.0000000  -0.0000000  -0.0000000  -0.0000000  -0.0000000
 NQMom=    0.0000000   0.0000000   0.0000000   0.0000000   2.0440000   0.0000000   0.0000000   0.0000000   0.0000000   0.0000000
 NMagM=    0.0000000   0.0000000   0.0000000   2.7928460   0.4037610   0.0000000   0.0000000   0.0000000   0.0000000   0.0000000
 AtZNuc=   6.0000000   6.0000000   6.0000000   1.0000000   7.0000000   6.0000000   6.0000000   6.0000000   6.0000000   6.0000000

  Atom        21          22          23          24          25          26          27          28          29          30
 IAtWgt=          12          16          12          14          12          12          12          12          12          12
 AtmWgt=  12.0000000  15.9949146  12.0000000  14.0030740  12.0000000  12.0000000  12.0000000  12.0000000  12.0000000  12.0000000
 NucSpn=           0           0           0           2           0           0           0           0           0           0
 AtZEff=  -0.0000000  -0.0000000  -0.0000000  -0.0000000  -0.0000000  -0.0000000  -0.0000000  -0.0000000  -0.0000000  -0.0000000
 NQMom=    0.0000000   0.0000000   0.0000000   2.0440000   0.0000000   0.0000000   0.0000000   0.0000000   0.0000000   0.0000000
 NMagM=    0.0000000   0.0000000   0.0000000   0.4037610   0.0000000   0.0000000   0.0000000   0.0000000   0.0000000   0.0000000
 AtZNuc=   6.0000000   8.0000000   6.0000000   7.0000000   6.0000000   6.0000000   6.0000000   6.0000000   6.0000000   6.0000000

  Atom        31          32          33          34          35          36          37          38          39          40
 IAtWgt=          12          14          12          12          12          12          12          12          16          12
 AtmWgt=  12.0000000  14.0030740  12.0000000  12.0000000  12.0000000  12.0000000  12.0000000  12.0000000  15.9949146  12.0000000
 NucSpn=           0           2           0           0           0           0           0           0           0           0
 AtZEff=  -0.0000000  -0.0000000  -0.0000000  -0.0000000  -0.0000000  -0.0000000  -0.0000000  -0.0000000  -0.0000000  -0.0000000
 NQMom=    0.0000000   2.0440000   0.0000000   0.0000000   0.0000000   0.0000000   0.0000000   0.0000000   0.0000000   0.0000000
 NMagM=    0.0000000   0.4037610   0.0000000   0.0000000   0.0000000   0.0000000   0.0000000   0.0000000   0.0000000   0.0000000
 AtZNuc=   6.0000000   7.0000000   6.0000000   6.0000000   6.0000000   6.0000000   6.0000000   6.0000000   8.0000000   6.0000000

  Atom        41          42          43          44          45          46          47          48          49          50
 IAtWgt=          12          16          16          12           1           1           1           1           1           1
 AtmWgt=  12.0000000  15.9949146  15.9949146  12.0000000   1.0078250   1.0078250   1.0078250   1.0078250   1.0078250   1.0078250
 NucSpn=           0           0           0           0           1           1           1           1           1           1
 AtZEff=  -0.0000000  -0.0000000  -0.0000000  -0.0000000  -0.0000000  -0.0000000  -0.0000000  -0.0000000  -0.0000000  -0.0000000
 NQMom=    0.0000000   0.0000000   0.0000000   0.0000000   0.0000000   0.0000000   0.0000000   0.0000000   0.0000000   0.0000000
 NMagM=    0.0000000   0.0000000   0.0000000   0.0000000   2.7928460   2.7928460   2.7928460   2.7928460   2.7928460   2.7928460
 AtZNuc=   6.0000000   8.0000000   8.0000000   6.0000000   1.0000000   1.0000000   1.0000000   1.0000000   1.0000000   1.0000000

  Atom        51          52          53          54          55          56          57          58          59          60
 IAtWgt=           1           1           1           1           1           1           1           1           1           1
 AtmWgt=   1.0078250   1.0078250   1.0078250   1.0078250   1.0078250   1.0078250   1.0078250   1.0078250   1.0078250   1.0078250
 NucSpn=           1           1           1           1           1           1           1           1           1           1
 AtZEff=  -0.0000000  -0.0000000  -0.0000000  -0.0000000  -0.0000000  -0.0000000  -0.0000000  -0.0000000  -0.0000000  -0.0000000
 NQMom=    0.0000000   0.0000000   0.0000000   0.0000000   0.0000000   0.0000000   0.0000000   0.0000000   0.0000000   0.0000000
 NMagM=    2.7928460   2.7928460   2.7928460   2.7928460   2.7928460   2.7928460   2.7928460   2.7928460   2.7928460   2.7928460
 AtZNuc=   1.0000000   1.0000000   1.0000000   1.0000000   1.0000000   1.0000000   1.0000000   1.0000000   1.0000000   1.0000000

  Atom        61          62          63          64          65          66          67          68          69          70
 IAtWgt=           1           1           1           1           1           1           1           1           1           1
 AtmWgt=   1.0078250   1.0078250   1.0078250   1.0078250   1.0078250   1.0078250   1.0078250   1.0078250   1.0078250   1.0078250
 NucSpn=           1           1           1           1           1           1           1           1           1           1
 AtZEff=  -0.0000000  -0.0000000  -0.0000000  -0.0000000  -0.0000000  -0.0000000  -0.0000000  -0.0000000  -0.0000000  -0.0000000
 NQMom=    0.0000000   0.0000000   0.0000000   0.0000000   0.0000000   0.0000000   0.0000000   0.0000000   0.0000000   0.0000000
 NMagM=    2.7928460   2.7928460   2.7928460   2.7928460   2.7928460   2.7928460   2.7928460   2.7928460   2.7928460   2.7928460
 AtZNuc=   1.0000000   1.0000000   1.0000000   1.0000000   1.0000000   1.0000000   1.0000000   1.0000000   1.0000000   1.0000000

  Atom        71          72          73          74          75          76          77          78          79          80
 IAtWgt=           1           1           1           1           1           1           1           1           1          24
 AtmWgt=   1.0078250   1.0078250   1.0078250   1.0078250   1.0078250   1.0078250   1.0078250   1.0078250   1.0078250  23.9850450
 NucSpn=           1           1           1           1           1           1           1           1           1           0
 AtZEff=  -0.0000000  -0.0000000  -0.0000000  -0.0000000  -0.0000000  -0.0000000  -0.0000000  -0.0000000  -0.0000000  -0.0000000
 NQMom=    0.0000000   0.0000000   0.0000000   0.0000000   0.0000000   0.0000000   0.0000000   0.0000000   0.0000000   0.0000000
 NMagM=    2.7928460   2.7928460   2.7928460   2.7928460   2.7928460   2.7928460   2.7928460   2.7928460   2.7928460   0.0000000
 AtZNuc=   1.0000000   1.0000000   1.0000000   1.0000000   1.0000000   1.0000000   1.0000000   1.0000000   1.0000000  12.0000000

  Atom        81          82          83          84          85          86          87          88          89          90
 IAtWgt=          12          12          12          12          14          12          12          12          12          12
 AtmWgt=  12.0000000  12.0000000  12.0000000  12.0000000  14.0030740  12.0000000  12.0000000  12.0000000  12.0000000  12.0000000
 NucSpn=           0           0           0           0           2           0           0           0           0           0
 AtZEff=  -0.0000000  -0.0000000  -0.0000000  -0.0000000  -0.0000000  -0.0000000  -0.0000000  -0.0000000  -0.0000000  -0.0000000
 NQMom=    0.0000000   0.0000000   0.0000000   0.0000000   2.0440000   0.0000000   0.0000000   0.0000000   0.0000000   0.0000000
 NMagM=    0.0000000   0.0000000   0.0000000   0.0000000   0.4037610   0.0000000   0.0000000   0.0000000   0.0000000   0.0000000
 AtZNuc=   6.0000000   6.0000000   6.0000000   6.0000000   7.0000000   6.0000000   6.0000000   6.0000000   6.0000000   6.0000000

  Atom        91          92          93          94          95          96          97          98          99         100
 IAtWgt=          12          12           1          14          12          12          12          12          12          12
 AtmWgt=  12.0000000  12.0000000   1.0078250  14.0030740  12.0000000  12.0000000  12.0000000  12.0000000  12.0000000  12.0000000
 NucSpn=           0           0           1           2           0           0           0           0           0           0
 AtZEff=  -0.0000000  -0.0000000  -0.0000000  -0.0000000  -0.0000000  -0.0000000  -0.0000000  -0.0000000  -0.0000000  -0.0000000
 NQMom=    0.0000000   0.0000000   0.0000000   2.0440000   0.0000000   0.0000000   0.0000000   0.0000000   0.0000000   0.0000000
 NMagM=    0.0000000   0.0000000   2.7928460   0.4037610   0.0000000   0.0000000   0.0000000   0.0000000   0.0000000   0.0000000
 AtZNuc=   6.0000000   6.0000000   1.0000000   7.0000000   6.0000000   6.0000000   6.0000000   6.0000000   6.0000000   6.0000000

  Atom       101         102         103         104         105         106         107         108         109         110
 IAtWgt=          16          12          14          12          12          12          12          12          12          12
 AtmWgt=  15.9949146  12.0000000  14.0030740  12.0000000  12.0000000  12.0000000  12.0000000  12.0000000  12.0000000  12.0000000
 NucSpn=           0           0           2           0           0           0           0           0           0           0
 AtZEff=  -0.0000000  -0.0000000  -0.0000000  -0.0000000  -0.0000000  -0.0000000  -0.0000000  -0.0000000  -0.0000000  -0.0000000
 NQMom=    0.0000000   0.0000000   2.0440000   0.0000000   0.0000000   0.0000000   0.0000000   0.0000000   0.0000000   0.0000000
 NMagM=    0.0000000   0.0000000   0.4037610   0.0000000   0.0000000   0.0000000   0.0000000   0.0000000   0.0000000   0.0000000
 AtZNuc=   8.0000000   6.0000000   7.0000000   6.0000000   6.0000000   6.0000000   6.0000000   6.0000000   6.0000000   6.0000000

  Atom       111         112         113         114         115         116         117         118         119         120
 IAtWgt=          14          12          12          12          12          12          12          16          12          12
 AtmWgt=  14.0030740  12.0000000  12.0000000  12.0000000  12.0000000  12.0000000  12.0000000  15.9949146  12.0000000  12.0000000
 NucSpn=           2           0           0           0           0           0           0           0           0           0
 AtZEff=  -0.0000000  -0.0000000  -0.0000000  -0.0000000  -0.0000000  -0.0000000  -0.0000000  -0.0000000  -0.0000000  -0.0000000
 NQMom=    2.0440000   0.0000000   0.0000000   0.0000000   0.0000000   0.0000000   0.0000000   0.0000000   0.0000000   0.0000000
 NMagM=    0.4037610   0.0000000   0.0000000   0.0000000   0.0000000   0.0000000   0.0000000   0.0000000   0.0000000   0.0000000
 AtZNuc=   7.0000000   6.0000000   6.0000000   6.0000000   6.0000000   6.0000000   6.0000000   8.0000000   6.0000000   6.0000000

  Atom       121         122         123         124         125         126         127         128         129         130
 IAtWgt=          16          16          12           1           1           1           1           1           1           1
 AtmWgt=  15.9949146  15.9949146  12.0000000   1.0078250   1.0078250   1.0078250   1.0078250   1.0078250   1.0078250   1.0078250
 NucSpn=           0           0           0           1           1           1           1           1           1           1
 AtZEff=  -0.0000000  -0.0000000  -0.0000000  -0.0000000  -0.0000000  -0.0000000  -0.0000000  -0.0000000  -0.0000000  -0.0000000
 NQMom=    0.0000000   0.0000000   0.0000000   0.0000000   0.0000000   0.0000000   0.0000000   0.0000000   0.0000000   0.0000000
 NMagM=    0.0000000   0.0000000   0.0000000   2.7928460   2.7928460   2.7928460   2.7928460   2.7928460   2.7928460   2.7928460
 AtZNuc=   8.0000000   8.0000000   6.0000000   1.0000000   1.0000000   1.0000000   1.0000000   1.0000000   1.0000000   1.0000000

  Atom       131         132         133         134         135         136         137         138         139         140
 IAtWgt=           1           1           1           1           1           1           1           1           1           1
 AtmWgt=   1.0078250   1.0078250   1.0078250   1.0078250   1.0078250   1.0078250   1.0078250   1.0078250   1.0078250   1.0078250
 NucSpn=           1           1           1           1           1           1           1           1           1           1
 AtZEff=  -0.0000000  -0.0000000  -0.0000000  -0.0000000  -0.0000000  -0.0000000  -0.0000000  -0.0000000  -0.0000000  -0.0000000
 NQMom=    0.0000000   0.0000000   0.0000000   0.0000000   0.0000000   0.0000000   0.0000000   0.0000000   0.0000000   0.0000000
 NMagM=    2.7928460   2.7928460   2.7928460   2.7928460   2.7928460   2.7928460   2.7928460   2.7928460   2.7928460   2.7928460
 AtZNuc=   1.0000000   1.0000000   1.0000000   1.0000000   1.0000000   1.0000000   1.0000000   1.0000000   1.0000000   1.0000000

  Atom       141         142         143         144         145         146         147         148         149         150
 IAtWgt=           1           1           1           1           1           1           1           1           1           1
 AtmWgt=   1.0078250   1.0078250   1.0078250   1.0078250   1.0078250   1.0078250   1.0078250   1.0078250   1.0078250   1.0078250
 NucSpn=           1           1           1           1           1           1           1           1           1           1
 AtZEff=  -0.0000000  -0.0000000  -0.0000000  -0.0000000  -0.0000000  -0.0000000  -0.0000000  -0.0000000  -0.0000000  -0.0000000
 NQMom=    0.0000000   0.0000000   0.0000000   0.0000000   0.0000000   0.0000000   0.0000000   0.0000000   0.0000000   0.0000000
 NMagM=    2.7928460   2.7928460   2.7928460   2.7928460   2.7928460   2.7928460   2.7928460   2.7928460   2.7928460   2.7928460
 AtZNuc=   1.0000000   1.0000000   1.0000000   1.0000000   1.0000000   1.0000000   1.0000000   1.0000000   1.0000000   1.0000000

  Atom       151         152         153         154         155         156         157         158
 IAtWgt=           1           1           1           1           1           1           1           1
 AtmWgt=   1.0078250   1.0078250   1.0078250   1.0078250   1.0078250   1.0078250   1.0078250   1.0078250
 NucSpn=           1           1           1           1           1           1           1           1
 AtZEff=  -0.0000000  -0.0000000  -0.0000000  -0.0000000  -0.0000000  -0.0000000  -0.0000000  -0.0000000
 NQMom=    0.0000000   0.0000000   0.0000000   0.0000000   0.0000000   0.0000000   0.0000000   0.0000000
 NMagM=    2.7928460   2.7928460   2.7928460   2.7928460   2.7928460   2.7928460   2.7928460   2.7928460
 AtZNuc=   1.0000000   1.0000000   1.0000000   1.0000000   1.0000000   1.0000000   1.0000000   1.0000000
 Leave Link  101 at Sat Sep  4 04:21:36 2021, MaxMem= 23488102400 cpu:               3.3 elap:               0.2
 (Enter /sw/apps/gaussian-16.0/g16/l202.exe)
 Stoichiometry    C68H72Mg2N8O8
 Framework group  C1[X(C68H72Mg2N8O8)]
 Deg. of freedom   468
 Full point group                 C1      NOp   1
 Largest Abelian subgroup         C1      NOp   1
 Largest concise Abelian subgroup C1      NOp   1
                         Standard orientation:                         
 ---------------------------------------------------------------------
 Center     Atomic      Atomic             Coordinates (Angstroms)
 Number     Number       Type             X           Y           Z
 ---------------------------------------------------------------------
      1         12           0        5.206953   -0.676771    0.294216
      2          6           0        5.501457    2.513944   -1.301033
      3          6           0        5.863952    0.904553    3.245628
      4          6           0        5.401774   -3.533866    1.656448
      5          6           0        5.701113   -2.123294   -2.837722
      6          7           0        5.612144    1.444219    0.781932
      7          6           0        5.637350    2.577514    0.087541
      8          6           0        5.746262    3.848157    0.982515
      9          6           0        6.413940    3.190931    2.272577
     10          6           0        5.905250    1.769210    2.111744
     11          6           0        7.938506    3.175062    2.228427
     12          6           0        4.345274    4.464171    1.313406
     13          6           0        4.375560    5.877565    1.902265
     14          1           0        3.316281    6.808486    1.543570
     15          7           0        5.095372   -1.199642    2.196059
     16          6           0        5.384229   -0.422942    3.267780
     17          6           0        5.145402   -1.266432    4.458649
     18          6           0        4.877123   -2.653526    3.987382
     19          6           0        5.143303   -2.521665    2.577723
     20          6           0        5.137105   -0.731346    5.857707
     21          6           0        4.458987   -3.902543    4.696784
     22          8           0        4.507163   -5.051122    4.137304
     23          6           0        4.070235   -3.755937    6.111147
     24          7           0        5.725767   -2.563831   -0.432057
     25          6           0        5.671911   -3.644564    0.354136
     26          6           0        5.808921   -4.907437   -0.443560
     27          6           0        5.724361   -4.472637   -1.977689
     28          6           0        5.629939   -2.939131   -1.783488
     29          6           0        7.096621   -5.709704   -0.210735
     30          6           0        4.651789   -5.173184   -2.849033
     31          6           0        3.270207   -4.763185   -2.390526
     32          7           0        5.367276    0.032070   -1.750994
     33          6           0        5.594932   -0.743762   -2.896826
     34          6           0        5.733394    0.189499   -4.029928
     35          6           0        5.592257    1.452428   -3.458146
     36          6           0        5.405328    1.317841   -2.052715
     37          6           0        6.017293   -0.171132   -5.376695
     38          6           0        5.580476    2.885365   -3.703930
     39          8           0        5.597783    3.592350   -4.712576
     40          6           0        5.642992    3.635018   -2.300385
     41          6           0        4.586644    4.706162   -2.309774
     42          8           0        3.374729    4.409303   -2.332216
     43          8           0        5.155574    5.893862   -2.052425
     44          6           0        4.157699    6.996232   -2.018079
     45          1           0        6.290595    1.250612    4.189111
     46          1           0        5.367319   -4.544577    2.068413
     47          1           0        5.772420   -2.505637   -3.857615
     48          1           0        6.394167    4.629712    0.585256
     49          1           0        6.032640    3.627706    3.195377
     50          1           0        8.312398    3.501785    1.258181
     51          1           0        8.224413    2.140220    2.417778
     52          1           0        8.355913    3.756532    3.050887
     53          1           0        3.903714    3.923771    2.150695
     54          1           0        3.701735    4.454115    0.433018
     55          1           0        5.353112    6.342710    1.772107
     56          1           0        4.254140    5.800075    2.982752
     57          1           0        5.528952    0.284122    5.900443
     58          1           0        5.852321   -1.322750    6.429036
     59          1           0        4.151418   -0.801294    6.317990
     60          1           0        4.906140   -3.338230    6.672691
     61          1           0        3.716642   -4.736147    6.428969
     62          1           0        3.260252   -3.029322    6.181203
     63          1           0        4.997006   -5.599257   -0.223090
     64          1           0        6.659295   -4.657315   -2.507281
     65          1           0        6.920613   -6.738523    0.104318
     66          1           0        7.699572   -5.174061    0.521951
     67          1           0        7.773498   -5.745393   -1.063953
     68          1           0        4.719214   -6.254745   -2.736663
     69          1           0        4.742817   -4.943746   -3.910788
     70          1           0        3.078618   -5.440628   -1.559143
     71          1           0        2.544207   -4.911844   -3.190549
     72          1           0        3.267966   -3.748706   -1.991386
     73          1           0        5.357159    0.432260   -5.999679
     74          1           0        5.855959   -1.235841   -5.543935
     75          1           0        7.068932    0.107309   -5.442900
     76          1           0        6.646340    4.050310   -2.211239
     77          1           0        4.484524    7.747546   -2.737070
     78          1           0        4.067064    7.299772   -0.974981
     79          1           0        3.165278    6.760265   -2.403773
     80         12           0       -5.357510   -0.749301   -0.448340
     81          6           0       -5.263535    2.608320    0.815239
     82          6           0       -4.696502   -1.803890    2.727426
     83          6           0       -4.987517   -3.680621   -1.605022
     84          6           0       -4.872571    0.583106   -3.631925
     85          7           0       -5.042338    0.355036    1.441995
     86          6           0       -5.091243    1.625766    1.812398
     87          6           0       -5.027780    1.851329    3.346887
     88          6           0       -4.286116    0.488144    3.759852
     89          6           0       -4.726146   -0.392867    2.592433
     90          6           0       -2.770499    0.595470    3.732450
     91          6           0       -6.452891    1.949300    3.996078
     92          6           0       -6.470175    2.474974    5.433136
     93          1           0       -7.590175    3.311845    5.854722
     94          7           0       -5.394671   -2.507234    0.471919
     95          6           0       -5.121521   -2.751733    1.770720
     96          6           0       -5.269077   -4.204858    1.946238
     97          6           0       -5.490496   -4.818796    0.608787
     98          6           0       -5.274014   -3.670032   -0.247686
     99          6           0       -5.274337   -4.865279    3.294291
    100          6           0       -5.827159   -6.212409    0.172061
    101          8           0       -5.738477   -6.573576   -1.054524
    102          6           0       -6.173638   -7.166915    1.235236
    103          7           0       -4.773928   -1.467143   -2.310194
    104          6           0       -4.747092   -2.787133   -2.564818
    105          6           0       -4.565945   -3.054543   -4.039970
    106          6           0       -4.719682   -1.633010   -4.756336
    107          6           0       -4.881476   -0.737087   -3.508721
    108          6           0       -3.233418   -3.685734   -4.442908
    109          6           0       -5.780101   -1.525322   -5.886199
    110          6           0       -7.168800   -1.667354   -5.305909
    111          7           0       -5.294137    1.229638   -1.313115
    112          6           0       -5.052445    1.562885   -2.663903
    113          6           0       -4.992416    3.036752   -2.744693
    114          6           0       -5.181931    3.461392   -1.420961
    115          6           0       -5.328166    2.331340   -0.571791
    116          6           0       -4.738427    3.795707   -3.921803
    117          6           0       -5.280908    4.608387   -0.547279
    118          8           0       -5.319454    5.826740   -0.714172
    119          6           0       -5.211854    4.104120    0.958491
    120          6           0       -6.320431    4.773392    1.723759
    121          8           0       -7.510126    4.527830    1.457415
    122          8           0       -5.797482    5.421628    2.780486
    123          6           0       -6.859364    6.092352    3.576947
    124          1           0       -4.268314   -2.229324    3.635471
    125          1           0       -4.959513   -4.667221   -2.073328
    126          1           0       -4.822525    1.078365   -4.603986
    127          1           0       -4.436576    2.704791    3.656503
    128          1           0       -4.670984    0.097748    4.698373
    129          1           0       -2.440759    1.539283    3.324238
    130          1           0       -2.428683   -0.224245    3.114170
    131          1           0       -2.361468    0.411470    4.730031
    132          1           0       -6.841219    0.936176    4.161944
    133          1           0       -7.109116    2.540296    3.387213
    134          1           0       -5.516795    2.938900    5.713826
    135          1           0       -6.564704    1.624472    6.112642
    136          1           0       -4.925568   -4.181910    4.078369
    137          1           0       -4.516526   -5.655705    3.266083
    138          1           0       -6.240419   -5.310561    3.541416
    139          1           0       -5.345791   -7.242886    1.936207
    140          1           0       -6.469481   -8.083060    0.720425
    141          1           0       -7.026503   -6.770209    1.797254
    142          1           0       -5.336567   -3.719665   -4.409909
    143          1           0       -3.786403   -1.321472   -5.248049
    144          1           0       -3.350367   -4.639311   -4.991616
    145          1           0       -2.640688   -3.831279   -3.549582
    146          1           0       -2.586991   -3.052802   -5.048485
    147          1           0       -5.656984   -2.343255   -6.600337
    148          1           0       -5.722280   -0.597732   -6.445859
    149          1           0       -7.298026   -2.751665   -5.237691
    150          1           0       -7.908301   -1.222656   -5.968810
    151          1           0       -7.212572   -1.265410   -4.287007
    152          1           0       -5.437399    4.621485   -3.916692
    153          1           0       -4.846452    3.187940   -4.817743
    154          1           0       -3.699315    4.086555   -3.745916
    155          1           0       -4.227949    4.368665    1.347766
    156          1           0       -6.586999    7.150050    3.645948
    157          1           0       -6.924359    5.526053    4.525018
    158          1           0       -7.848739    6.156836    3.139428
 ---------------------------------------------------------------------
 Rotational constants (GHZ):           0.0202617           0.0114521           0.0103182
 Leave Link  202 at Sat Sep  4 04:21:36 2021, MaxMem= 23488102400 cpu:               0.2 elap:               0.0
 (Enter /sw/apps/gaussian-16.0/g16/l301.exe)
 Standard basis: def2SVP (5D, 7F)
 Ernie: Thresh=  0.10000D-02 Tol=  0.10000D-05 Strict=F.
 There are  1658 symmetry adapted cartesian basis functions of A   symmetry.
 There are  1572 symmetry adapted basis functions of A   symmetry.
  1572 basis functions,  2678 primitive gaussians,  1658 cartesian basis functions
   312 alpha electrons      312 beta electrons
       nuclear repulsion energy     14941.9347680858 Hartrees.
 IExCor=20419 DFT=T Ex+Corr=CAM-B3LYP ExCW=0 ScaHFX=  1.000000
 ScaDFX=  1.000000  1.000000  1.000000  0.810000 ScalE2=  1.000000  1.000000
 IRadAn=      5 IRanWt=     -1 IRanGd=            0 ICorTp=0 IEmpDi=  4
 HFx  wShort=  0.000000 wLong=  0.330000 cFull=  0.190000 cShort=  0.000000 cLong=  0.460000
 DFx  wShort=  0.000000 wLong=  0.330000 cFull=  0.190000 cShort=  0.000000 cLong=  0.460000
 NAtoms=  158 NActive=  158 NUniq=  158 SFac= 1.00D+00 NAtFMM=   60 NAOKFM=T Big=T
 Integral buffers will be    131072 words long.
 Raffenetti 1 integral format.
 Two-electron integral symmetry is turned on.
 Leave Link  301 at Sat Sep  4 04:21:36 2021, MaxMem= 23488102400 cpu:               1.3 elap:               0.1
 (Enter /sw/apps/gaussian-16.0/g16/l302.exe)
 NPDir=0 NMtPBC=     1 NCelOv=     1 NCel=       1 NClECP=     1 NCelD=      1
         NCelK=      1 NCelE2=     1 NClLst=     1 CellRange=     0.0.
 One-electron integrals computed using PRISM.
 One-electron integral symmetry used in STVInt
   1 Symmetry operations used in ECPInt.
 ECPInt:  NShTT=  271216 NPrTT=  987664 LenC2=  137599 LenP2D=  286864.
 LDataN:  DoStor=T MaxTD1= 4 Len=   56
 NBasis=  1572 RedAO= T EigKep=  3.36D-04  NBF=  1572
 NBsUse=  1572 1.00D-06 EigRej= -1.00D+00 NBFU=  1572
 Precomputing XC quadrature grid using
 IXCGrd= 4 IRadAn=           5 IRanWt=          -1 IRanGd=           0 AccXCQ= 0.00D+00.
 Generated NRdTot=       0 NPtTot=           0 NUsed=           0 NTot=          32
 NSgBfM=  1125  1105  1112  1113  1125 MxSgAt=   158 MxSgA2=   157.
 Leave Link  302 at Sat Sep  4 04:21:41 2021, MaxMem= 23488102400 cpu:             126.6 elap:               5.3
 (Enter /sw/apps/gaussian-16.0/g16/l303.exe)
 DipDrv:  MaxL=1.
 Leave Link  303 at Sat Sep  4 04:21:42 2021, MaxMem= 23488102400 cpu:               9.6 elap:               0.4
 (Enter /sw/apps/gaussian-16.0/g16/l308.exe)
 Leave Link  308 at Sat Sep  4 04:21:43 2021, MaxMem= 23488102400 cpu:              12.5 elap:               0.6
 (Enter /sw/apps/gaussian-16.0/g16/l401.exe)
 ExpMin= 3.36D-02 ExpMax= 4.95D+03 ExpMxC= 7.45D+02 IAcc=3 IRadAn=         5 AccDes= 0.00D+00
 Harris functional with IExCor=20419 and IRadAn=       5 diagonalized for initial guess.
 HarFok:  IExCor=20419 AccDes= 0.00D+00 IRadAn=         5 IDoV= 1 UseB2=F ITyADJ=14
 ICtDFT=  3500011 ScaDFX=  1.000000  1.000000  1.000000  1.000000
 FoFCou: FMM=F IPFlag=           0 FMFlag=      100000 FMFlg1=        2001
         NFxFlg=           0 DoJE=T BraDBF=F KetDBF=T FulRan=T
         wScrn=  0.000000 ICntrl=       500 IOpCl=  0 I1Cent=   200000004 NGrid=           0
         NMat0=    1 NMatS0=      1 NMatT0=    0 NMatD0=    1 NMtDS0=    0 NMtDT0=    0
 Petite list used in FoFCou.
 Harris En= -3918.65800214891    
 JPrj=0 DoOrth=F DoCkMO=F.
 Leave Link  401 at Sat Sep  4 04:21:50 2021, MaxMem= 23488102400 cpu:             175.8 elap:               7.4
 (Enter /sw/apps/gaussian-16.0/g16/l502.exe)
 Integral symmetry usage will be decided dynamically.
 Closed shell SCF:
 Using DIIS extrapolation, IDIIS=  1040.
 NGot= 23488102400 LenX= 23482547354 LenY= 23479796732
 Requested convergence on RMS density matrix=1.00D-08 within 128 cycles.
 Requested convergence on MAX density matrix=1.00D-06.
 Requested convergence on             energy=1.00D-06.
 No special actions if energy rises.
 Fock matrices will be formed incrementally for  20 cycles.

 Cycle   1  Pass 1  IDiag  1:
 FoFJK:  IHMeth= 1 ICntrl=       0 DoSepK=T KAlg= 0 I1Cent=           0 FoldK=F
 IRaf=         1 NMat=       1 IRICut=       1 DoRegI=T DoRafI=F ISym2E= 0 IDoP0=0 IntGTp=1.
 FoFCou: FMM=T IPFlag=           0 FMFlag=      100000 FMFlg1=        2001
         NFxFlg=           0 DoJE=T BraDBF=F KetDBF=F FulRan=T
         wScrn=  0.000000 ICntrl=       500 IOpCl=  0 I1Cent=           0 NGrid=           0
         NMat0=    1 NMatS0=      1 NMatT0=    0 NMatD0=    1 NMtDS0=    0 NMtDT0=    0
 Symmetry not used in FoFCou.
 FMM levels:  10  Number of levels for PrismC:   9
 E= -4068.94847739426    
 DIIS: error= 2.04D-02 at cycle   1 NSaved=   1.
 NSaved= 1 IEnMin= 1 EnMin= -4068.94847739426     IErMin= 1 ErrMin= 2.04D-02
 ErrMax= 2.04D-02  0.00D+00 EMaxC= 1.00D-01 BMatC= 1.69D+00 BMatP= 1.69D+00
 IDIUse=3 WtCom= 7.96D-01 WtEn= 2.04D-01
 Coeff-Com:  0.100D+01
 Coeff-En:   0.100D+01
 Coeff:      0.100D+01
 Gap=     0.120 Goal=   None    Shift=    0.000
 GapD=    0.120 DampG=1.000 DampE=0.500 DampFc=0.5000 IDamp=-1.
 Damping current iteration by 5.00D-01
 RMSDP=1.57D-03 MaxDP=1.36D-01              OVMax= 2.08D-01

 Cycle   2  Pass 1  IDiag  1:
 RMSU=  7.70D-04    CP:  9.82D-01
 E= -4069.33688477753     Delta-E=       -0.388407383267 Rises=F Damp=T
 DIIS: error= 1.27D-02 at cycle   2 NSaved=   2.
 NSaved= 2 IEnMin= 2 EnMin= -4069.33688477753     IErMin= 2 ErrMin= 1.27D-02
 ErrMax= 1.27D-02  0.00D+00 EMaxC= 1.00D-01 BMatC= 3.07D-01 BMatP= 1.69D+00
 IDIUse=3 WtCom= 8.73D-01 WtEn= 1.27D-01
 Coeff-Com: -0.212D+00 0.121D+01
 Coeff-En:   0.000D+00 0.100D+01
 Coeff:     -0.185D+00 0.118D+01
 Gap=     0.135 Goal=   None    Shift=    0.000
 RMSDP=7.68D-04 MaxDP=9.41D-02 DE=-3.88D-01 OVMax= 1.97D-01

 Cycle   3  Pass 1  IDiag  1:
 RMSU=  7.37D-04    CP:  9.68D-01  1.23D+00
 E= -4069.62386648121     Delta-E=       -0.286981703677 Rises=F Damp=F
 DIIS: error= 1.58D-02 at cycle   3 NSaved=   3.
 NSaved= 3 IEnMin= 3 EnMin= -4069.62386648121     IErMin= 2 ErrMin= 1.27D-02
 ErrMax= 1.58D-02  0.00D+00 EMaxC= 1.00D-01 BMatC= 2.05D-01 BMatP= 3.07D-01
 IDIUse=3 WtCom= 8.42D-01 WtEn= 1.58D-01
 Coeff-Com: -0.267D+00 0.653D+00 0.614D+00
 Coeff-En:   0.000D+00 0.000D+00 0.100D+01
 Coeff:     -0.225D+00 0.550D+00 0.675D+00
 Gap=     0.122 Goal=   None    Shift=    0.000
 RMSDP=5.17D-04 MaxDP=5.00D-02 DE=-2.87D-01 OVMax= 1.54D-01

 Cycle   4  Pass 1  IDiag  1:
 RMSU=  2.70D-04    CP:  9.65D-01  1.55D+00  4.99D-01
 E= -4069.76262012054     Delta-E=       -0.138753639330 Rises=F Damp=F
 DIIS: error= 7.29D-03 at cycle   4 NSaved=   4.
 NSaved= 4 IEnMin= 4 EnMin= -4069.76262012054     IErMin= 4 ErrMin= 7.29D-03
 ErrMax= 7.29D-03  0.00D+00 EMaxC= 1.00D-01 BMatC= 5.19D-02 BMatP= 2.05D-01
 IDIUse=3 WtCom= 9.27D-01 WtEn= 7.29D-02
 Coeff-Com: -0.110D+00 0.228D+00 0.410D+00 0.472D+00
 Coeff-En:   0.000D+00 0.000D+00 0.227D+00 0.773D+00
 Coeff:     -0.102D+00 0.211D+00 0.396D+00 0.494D+00
 Gap=     0.121 Goal=   None    Shift=    0.000
 RMSDP=2.07D-04 MaxDP=2.07D-02 DE=-1.39D-01 OVMax= 7.02D-02

 Cycle   5  Pass 1  IDiag  1:
 RMSU=  7.91D-05    CP:  9.64D-01  1.49D+00  6.87D-01  5.41D-01
 E= -4069.81025092716     Delta-E=       -0.047630806625 Rises=F Damp=F
 DIIS: error= 7.47D-04 at cycle   5 NSaved=   5.
 NSaved= 5 IEnMin= 5 EnMin= -4069.81025092716     IErMin= 5 ErrMin= 7.47D-04
 ErrMax= 7.47D-04  0.00D+00 EMaxC= 1.00D-01 BMatC= 1.32D-03 BMatP= 5.19D-02
 IDIUse=3 WtCom= 9.93D-01 WtEn= 7.47D-03
 Coeff-Com: -0.377D-01 0.742D-01 0.172D+00 0.255D+00 0.536D+00
 Coeff-En:   0.000D+00 0.000D+00 0.000D+00 0.000D+00 0.100D+01
 Coeff:     -0.374D-01 0.737D-01 0.171D+00 0.253D+00 0.539D+00
 Gap=     0.120 Goal=   None    Shift=    0.000
 RMSDP=4.47D-05 MaxDP=4.21D-03 DE=-4.76D-02 OVMax= 2.03D-02

 Cycle   6  Pass 1  IDiag  1:
 RMSU=  3.22D-05    CP:  9.64D-01  1.49D+00  6.78D-01  6.17D-01  7.27D-01
 E= -4069.81144643620     Delta-E=       -0.001195509034 Rises=F Damp=F
 DIIS: error= 2.01D-04 at cycle   6 NSaved=   6.
 NSaved= 6 IEnMin= 6 EnMin= -4069.81144643620     IErMin= 6 ErrMin= 2.01D-04
 ErrMax= 2.01D-04  0.00D+00 EMaxC= 1.00D-01 BMatC= 2.01D-04 BMatP= 1.32D-03
 IDIUse=3 WtCom= 9.98D-01 WtEn= 2.01D-03
 Coeff-Com:  0.196D-02-0.614D-02 0.128D-01 0.424D-01 0.305D+00 0.644D+00
 Coeff-En:   0.000D+00 0.000D+00 0.000D+00 0.000D+00 0.117D+00 0.883D+00
 Coeff:      0.195D-02-0.613D-02 0.128D-01 0.423D-01 0.305D+00 0.644D+00
 Gap=     0.121 Goal=   None    Shift=    0.000
 RMSDP=1.74D-05 MaxDP=1.29D-03 DE=-1.20D-03 OVMax= 8.38D-03

 Cycle   7  Pass 1  IDiag  1:
 RMSU=  1.14D-05    CP:  9.64D-01  1.49D+00  6.84D-01  6.16D-01  8.40D-01
                    CP:  7.38D-01
 E= -4069.81167049130     Delta-E=       -0.000224055104 Rises=F Damp=F
 DIIS: error= 9.75D-05 at cycle   7 NSaved=   7.
 NSaved= 7 IEnMin= 7 EnMin= -4069.81167049130     IErMin= 7 ErrMin= 9.75D-05
 ErrMax= 9.75D-05  0.00D+00 EMaxC= 1.00D-01 BMatC= 2.55D-05 BMatP= 2.01D-04
 IDIUse=1 WtCom= 1.00D+00 WtEn= 0.00D+00
 Coeff-Com:  0.459D-02-0.101D-01-0.887D-02-0.307D-02 0.108D+00 0.339D+00
 Coeff-Com:  0.570D+00
 Coeff:      0.459D-02-0.101D-01-0.887D-02-0.307D-02 0.108D+00 0.339D+00
 Coeff:      0.570D+00
 Gap=     0.121 Goal=   None    Shift=    0.000
 RMSDP=6.76D-06 MaxDP=1.11D-03 DE=-2.24D-04 OVMax= 3.65D-03

 Cycle   8  Pass 1  IDiag  1:
 RMSU=  4.84D-06    CP:  9.64D-01  1.49D+00  6.85D-01  6.21D-01  8.40D-01
                    CP:  8.59D-01  8.13D-01
 E= -4069.81170183651     Delta-E=       -0.000031345207 Rises=F Damp=F
 DIIS: error= 5.50D-05 at cycle   8 NSaved=   8.
 NSaved= 8 IEnMin= 8 EnMin= -4069.81170183651     IErMin= 8 ErrMin= 5.50D-05
 ErrMax= 5.50D-05  0.00D+00 EMaxC= 1.00D-01 BMatC= 4.98D-06 BMatP= 2.55D-05
 IDIUse=1 WtCom= 1.00D+00 WtEn= 0.00D+00
 Coeff-Com:  0.221D-02-0.439D-02-0.784D-02-0.121D-01-0.877D-02 0.327D-01
 Coeff-Com:  0.320D+00 0.678D+00
 Coeff:      0.221D-02-0.439D-02-0.784D-02-0.121D-01-0.877D-02 0.327D-01
 Coeff:      0.320D+00 0.678D+00
 Gap=     0.121 Goal=   None    Shift=    0.000
 RMSDP=3.40D-06 MaxDP=4.24D-04 DE=-3.13D-05 OVMax= 1.17D-03

 Cycle   9  Pass 1  IDiag  1:
 RMSU=  1.98D-06    CP:  9.64D-01  1.49D+00  6.85D-01  6.22D-01  8.57D-01
                    CP:  8.87D-01  1.00D+00  9.71D-01
 E= -4069.81170990568     Delta-E=       -0.000008069172 Rises=F Damp=F
 DIIS: error= 1.99D-05 at cycle   9 NSaved=   9.
 NSaved= 9 IEnMin= 9 EnMin= -4069.81170990568     IErMin= 9 ErrMin= 1.99D-05
 ErrMax= 1.99D-05  0.00D+00 EMaxC= 1.00D-01 BMatC= 7.73D-07 BMatP= 4.98D-06
 IDIUse=1 WtCom= 1.00D+00 WtEn= 0.00D+00
 Coeff-Com:  0.477D-03-0.792D-03-0.272D-02-0.607D-02-0.201D-01-0.408D-01
 Coeff-Com:  0.937D-01 0.338D+00 0.638D+00
 Coeff:      0.477D-03-0.792D-03-0.272D-02-0.607D-02-0.201D-01-0.408D-01
 Coeff:      0.937D-01 0.338D+00 0.638D+00
 Gap=     0.121 Goal=   None    Shift=    0.000
 RMSDP=1.48D-06 MaxDP=1.58D-04 DE=-8.07D-06 OVMax= 7.54D-04

 Cycle  10  Pass 1  IDiag  1:
 RMSU=  9.74D-07    CP:  9.64D-01  1.49D+00  6.85D-01  6.23D-01  8.61D-01
                    CP:  8.99D-01  1.05D+00  1.14D+00  1.06D+00
 E= -4069.81171165640     Delta-E=       -0.000001750726 Rises=F Damp=F
 DIIS: error= 1.03D-05 at cycle  10 NSaved=  10.
 NSaved=10 IEnMin=10 EnMin= -4069.81171165640     IErMin=10 ErrMin= 1.03D-05
 ErrMax= 1.03D-05  0.00D+00 EMaxC= 1.00D-01 BMatC= 1.81D-07 BMatP= 7.73D-07
 IDIUse=1 WtCom= 1.00D+00 WtEn= 0.00D+00
 Coeff-Com: -0.430D-03 0.903D-03 0.122D-02 0.105D-02-0.365D-02-0.315D-01
 Coeff-Com: -0.438D-01-0.723D-01 0.238D+00 0.910D+00
 Coeff:     -0.430D-03 0.903D-03 0.122D-02 0.105D-02-0.365D-02-0.315D-01
 Coeff:     -0.438D-01-0.723D-01 0.238D+00 0.910D+00
 Gap=     0.121 Goal=   None    Shift=    0.000
 RMSDP=1.27D-06 MaxDP=1.28D-04 DE=-1.75D-06 OVMax= 6.52D-04

 Cycle  11  Pass 1  IDiag  1:
 RMSU=  5.52D-07    CP:  9.64D-01  1.49D+00  6.85D-01  6.23D-01  8.63D-01
                    CP:  9.09D-01  1.10D+00  1.25D+00  1.40D+00  1.36D+00
 E= -4069.81171250820     Delta-E=       -0.000000851796 Rises=F Damp=F
 DIIS: error= 4.28D-06 at cycle  11 NSaved=  11.
 NSaved=11 IEnMin=11 EnMin= -4069.81171250820     IErMin=11 ErrMin= 4.28D-06
 ErrMax= 4.28D-06  0.00D+00 EMaxC= 1.00D-01 BMatC= 7.30D-08 BMatP= 1.81D-07
 IDIUse=1 WtCom= 1.00D+00 WtEn= 0.00D+00
 Coeff-Com: -0.343D-03 0.668D-03 0.137D-02 0.214D-02 0.432D-02-0.886D-02
 Coeff-Com: -0.414D-01-0.133D+00-0.367D-01 0.494D+00 0.718D+00
 Coeff:     -0.343D-03 0.668D-03 0.137D-02 0.214D-02 0.432D-02-0.886D-02
 Coeff:     -0.414D-01-0.133D+00-0.367D-01 0.494D+00 0.718D+00
 Gap=     0.121 Goal=   None    Shift=    0.000
 RMSDP=7.27D-07 MaxDP=6.61D-05 DE=-8.52D-07 OVMax= 4.08D-04

 Cycle  12  Pass 1  IDiag  1:
 RMSU=  2.79D-07    CP:  9.64D-01  1.49D+00  6.85D-01  6.23D-01  8.64D-01
                    CP:  9.11D-01  1.12D+00  1.32D+00  1.57D+00  1.76D+00
                    CP:  1.18D+00
 E= -4069.81171280219     Delta-E=       -0.000000293985 Rises=F Damp=F
 DIIS: error= 2.73D-06 at cycle  12 NSaved=  12.
 NSaved=12 IEnMin=12 EnMin= -4069.81171280219     IErMin=12 ErrMin= 2.73D-06
 ErrMax= 2.73D-06  0.00D+00 EMaxC= 1.00D-01 BMatC= 1.78D-08 BMatP= 7.30D-08
 IDIUse=1 WtCom= 1.00D+00 WtEn= 0.00D+00
 Coeff-Com: -0.180D-04 0.178D-04 0.255D-03 0.620D-03 0.359D-02 0.363D-02
 Coeff-Com:  0.790D-03-0.398D-01-0.757D-01-0.405D-01 0.269D+00 0.878D+00
 Coeff:     -0.180D-04 0.178D-04 0.255D-03 0.620D-03 0.359D-02 0.363D-02
 Coeff:      0.790D-03-0.398D-01-0.757D-01-0.405D-01 0.269D+00 0.878D+00
 Gap=     0.121 Goal=   None    Shift=    0.000
 RMSDP=4.50D-07 MaxDP=3.30D-05 DE=-2.94D-07 OVMax= 2.58D-04

 Cycle  13  Pass 1  IDiag  1:
 RMSU=  1.74D-07    CP:  9.64D-01  1.49D+00  6.85D-01  6.23D-01  8.64D-01
                    CP:  9.11D-01  1.12D+00  1.35D+00  1.68D+00  1.98D+00
                    CP:  1.58D+00  1.23D+00
 E= -4069.81171290348     Delta-E=       -0.000000101296 Rises=F Damp=F
 DIIS: error= 1.36D-06 at cycle  13 NSaved=  13.
 NSaved=13 IEnMin=13 EnMin= -4069.81171290348     IErMin=13 ErrMin= 1.36D-06
 ErrMax= 1.36D-06  0.00D+00 EMaxC= 1.00D-01 BMatC= 9.31D-09 BMatP= 1.78D-08
 IDIUse=1 WtCom= 1.00D+00 WtEn= 0.00D+00
 Coeff-Com:  0.121D-03-0.248D-03-0.365D-03-0.440D-03 0.763D-03 0.502D-02
 Coeff-Com:  0.185D-01 0.234D-01-0.341D-01-0.238D+00-0.157D+00 0.574D+00
 Coeff-Com:  0.808D+00
 Coeff:      0.121D-03-0.248D-03-0.365D-03-0.440D-03 0.763D-03 0.502D-02
 Coeff:      0.185D-01 0.234D-01-0.341D-01-0.238D+00-0.157D+00 0.574D+00
 Coeff:      0.808D+00
 Gap=     0.121 Goal=   None    Shift=    0.000
 RMSDP=3.69D-07 MaxDP=2.58D-05 DE=-1.01D-07 OVMax= 2.29D-04

 Cycle  14  Pass 1  IDiag  1:
 RMSU=  8.11D-08    CP:  9.64D-01  1.49D+00  6.85D-01  6.23D-01  8.65D-01
                    CP:  9.12D-01  1.13D+00  1.37D+00  1.76D+00  2.19D+00
                    CP:  1.84D+00  1.75D+00  1.12D+00
 E= -4069.81171294591     Delta-E=       -0.000000042426 Rises=F Damp=F
 DIIS: error= 7.73D-07 at cycle  14 NSaved=  14.
 NSaved=14 IEnMin=14 EnMin= -4069.81171294591     IErMin=14 ErrMin= 7.73D-07
 ErrMax= 7.73D-07  0.00D+00 EMaxC= 1.00D-01 BMatC= 1.48D-09 BMatP= 9.31D-09
 IDIUse=1 WtCom= 1.00D+00 WtEn= 0.00D+00
 Coeff-Com:  0.702D-04-0.139D-03-0.258D-03-0.399D-03-0.424D-03 0.131D-02
 Coeff-Com:  0.104D-01 0.206D-01 0.424D-02-0.105D+00-0.146D+00 0.819D-01
 Coeff-Com:  0.419D+00 0.716D+00
 Coeff:      0.702D-04-0.139D-03-0.258D-03-0.399D-03-0.424D-03 0.131D-02
 Coeff:      0.104D-01 0.206D-01 0.424D-02-0.105D+00-0.146D+00 0.819D-01
 Coeff:      0.419D+00 0.716D+00
 Gap=     0.121 Goal=   None    Shift=    0.000
 RMSDP=1.15D-07 MaxDP=7.79D-06 DE=-4.24D-08 OVMax= 6.30D-05

 Cycle  15  Pass 1  IDiag  1:
 RMSU=  4.04D-08    CP:  9.64D-01  1.49D+00  6.85D-01  6.23D-01  8.65D-01
                    CP:  9.12D-01  1.13D+00  1.38D+00  1.78D+00  2.23D+00
                    CP:  1.95D+00  1.89D+00  1.36D+00  1.03D+00
 E= -4069.81171295085     Delta-E=       -0.000000004940 Rises=F Damp=F
 DIIS: error= 3.67D-07 at cycle  15 NSaved=  15.
 NSaved=15 IEnMin=15 EnMin= -4069.81171295085     IErMin=15 ErrMin= 3.67D-07
 ErrMax= 3.67D-07  0.00D+00 EMaxC= 1.00D-01 BMatC= 2.39D-10 BMatP= 1.48D-09
 IDIUse=1 WtCom= 1.00D+00 WtEn= 0.00D+00
 Coeff-Com:  0.740D-05-0.129D-04-0.403D-04-0.930D-04-0.299D-03-0.504D-03
 Coeff-Com:  0.127D-02 0.325D-02 0.888D-02-0.107D-02-0.316D-01-0.719D-01
 Coeff-Com:  0.422D-01 0.295D+00 0.755D+00
 Coeff:      0.740D-05-0.129D-04-0.403D-04-0.930D-04-0.299D-03-0.504D-03
 Coeff:      0.127D-02 0.325D-02 0.888D-02-0.107D-02-0.316D-01-0.719D-01
 Coeff:      0.422D-01 0.295D+00 0.755D+00
 Gap=     0.121 Goal=   None    Shift=    0.000
 RMSDP=3.92D-08 MaxDP=2.93D-06 DE=-4.94D-09 OVMax= 3.04D-05

 Cycle  16  Pass 1  IDiag  1:
 RMSU=  2.03D-08    CP:  9.64D-01  1.49D+00  6.85D-01  6.23D-01  8.65D-01
                    CP:  9.12D-01  1.13D+00  1.38D+00  1.78D+00  2.25D+00
                    CP:  1.98D+00  1.95D+00  1.43D+00  1.24D+00  1.12D+00
 E= -4069.81171295185     Delta-E=       -0.000000001004 Rises=F Damp=F
 DIIS: error= 2.15D-07 at cycle  16 NSaved=  16.
 NSaved=16 IEnMin=16 EnMin= -4069.81171295185     IErMin=16 ErrMin= 2.15D-07
 ErrMax= 2.15D-07  0.00D+00 EMaxC= 1.00D-01 BMatC= 1.03D-10 BMatP= 2.39D-10
 IDIUse=1 WtCom= 1.00D+00 WtEn= 0.00D+00
 Coeff-Com: -0.138D-04 0.281D-04 0.444D-04 0.475D-04-0.506D-04-0.646D-03
 Coeff-Com: -0.178D-02-0.404D-02 0.439D-02 0.248D-01 0.199D-01-0.651D-01
 Coeff-Com: -0.763D-01-0.364D-01 0.422D+00 0.713D+00
 Coeff:     -0.138D-04 0.281D-04 0.444D-04 0.475D-04-0.506D-04-0.646D-03
 Coeff:     -0.178D-02-0.404D-02 0.439D-02 0.248D-01 0.199D-01-0.651D-01
 Coeff:     -0.763D-01-0.364D-01 0.422D+00 0.713D+00
 Gap=     0.121 Goal=   None    Shift=    0.000
 RMSDP=2.48D-08 MaxDP=1.74D-06 DE=-1.00D-09 OVMax= 1.38D-05

 Cycle  17  Pass 1  IDiag  1:
 RMSU=  1.15D-08    CP:  9.64D-01  1.49D+00  6.85D-01  6.23D-01  8.65D-01
                    CP:  9.12D-01  1.13D+00  1.38D+00  1.78D+00  2.25D+00
                    CP:  1.99D+00  1.97D+00  1.48D+00  1.33D+00  1.42D+00
                    CP:  1.17D+00
 E= -4069.81171295213     Delta-E=       -0.000000000276 Rises=F Damp=F
 DIIS: error= 9.28D-08 at cycle  17 NSaved=  17.
 NSaved=17 IEnMin=17 EnMin= -4069.81171295213     IErMin=17 ErrMin= 9.28D-08
 ErrMax= 9.28D-08  0.00D+00 EMaxC= 1.00D-01 BMatC= 2.10D-11 BMatP= 1.03D-10
 IDIUse=1 WtCom= 1.00D+00 WtEn= 0.00D+00
 Coeff-Com: -0.830D-05 0.163D-04 0.318D-04 0.454D-04 0.736D-04-0.172D-03
 Coeff-Com: -0.101D-02-0.306D-02 0.221D-03 0.113D-01 0.188D-01-0.117D-01
 Coeff-Com: -0.393D-01-0.103D+00 0.787D-02 0.299D+00 0.822D+00
 Coeff:     -0.830D-05 0.163D-04 0.318D-04 0.454D-04 0.736D-04-0.172D-03
 Coeff:     -0.101D-02-0.306D-02 0.221D-03 0.113D-01 0.188D-01-0.117D-01
 Coeff:     -0.393D-01-0.103D+00 0.787D-02 0.299D+00 0.822D+00
 Gap=     0.121 Goal=   None    Shift=    0.000
 RMSDP=1.40D-08 MaxDP=1.12D-06 DE=-2.76D-10 OVMax= 1.05D-05

 Cycle  18  Pass 1  IDiag  1:
 RMSU=  5.98D-09    CP:  9.64D-01  1.49D+00  6.85D-01  6.23D-01  8.65D-01
                    CP:  9.12D-01  1.13D+00  1.38D+00  1.79D+00  2.25D+00
                    CP:  1.99D+00  1.98D+00  1.50D+00  1.39D+00  1.57D+00
                    CP:  1.56D+00  1.29D+00
 E= -4069.81171295224     Delta-E=       -0.000000000109 Rises=F Damp=F
 DIIS: error= 8.06D-08 at cycle  18 NSaved=  18.
 NSaved=18 IEnMin=18 EnMin= -4069.81171295224     IErMin=18 ErrMin= 8.06D-08
 ErrMax= 8.06D-08  0.00D+00 EMaxC= 1.00D-01 BMatC= 1.03D-11 BMatP= 2.10D-11
 IDIUse=1 WtCom= 1.00D+00 WtEn= 0.00D+00
 Coeff-Com: -0.222D-07-0.327D-06 0.317D-05 0.908D-05 0.705D-04 0.129D-03
 Coeff-Com:  0.114D-03-0.449D-03-0.117D-02-0.293D-02 0.381D-02 0.147D-01
 Coeff-Com:  0.791D-02-0.499D-01-0.138D+00-0.117D+00 0.472D+00 0.811D+00
 Coeff:     -0.222D-07-0.327D-06 0.317D-05 0.908D-05 0.705D-04 0.129D-03
 Coeff:      0.114D-03-0.449D-03-0.117D-02-0.293D-02 0.381D-02 0.147D-01
 Coeff:      0.791D-02-0.499D-01-0.138D+00-0.117D+00 0.472D+00 0.811D+00
 Gap=     0.121 Goal=   None    Shift=    0.000
 RMSDP=1.07D-08 MaxDP=7.49D-07 DE=-1.09D-10 OVMax= 5.96D-06

 Cycle  19  Pass 1  IDiag  1:
 RMSU=  3.24D-09    CP:  9.64D-01  1.49D+00  6.85D-01  6.23D-01  8.65D-01
                    CP:  9.12D-01  1.13D+00  1.38D+00  1.79D+00  2.25D+00
                    CP:  2.00D+00  1.98D+00  1.51D+00  1.43D+00  1.71D+00
                    CP:  1.80D+00  1.79D+00  1.13D+00
 E= -4069.81171295249     Delta-E=       -0.000000000247 Rises=F Damp=F
 DIIS: error= 3.15D-08 at cycle  19 NSaved=  19.
 NSaved=19 IEnMin=19 EnMin= -4069.81171295249     IErMin=19 ErrMin= 3.15D-08
 ErrMax= 3.15D-08  0.00D+00 EMaxC= 1.00D-01 BMatC= 2.79D-12 BMatP= 1.03D-11
 IDIUse=1 WtCom= 1.00D+00 WtEn= 0.00D+00
 Coeff-Com:  0.323D-05-0.656D-05-0.104D-04-0.121D-04 0.233D-04 0.149D-03
 Coeff-Com:  0.502D-03 0.865D-03-0.757D-03-0.674D-02-0.494D-02 0.141D-01
 Coeff-Com:  0.228D-01 0.774D-02-0.915D-01-0.212D+00 0.196D-02 0.494D+00
 Coeff-Com:  0.774D+00
 Coeff:      0.323D-05-0.656D-05-0.104D-04-0.121D-04 0.233D-04 0.149D-03
 Coeff:      0.502D-03 0.865D-03-0.757D-03-0.674D-02-0.494D-02 0.141D-01
 Coeff:      0.228D-01 0.774D-02-0.915D-01-0.212D+00 0.196D-02 0.494D+00
 Coeff:      0.774D+00
 Gap=     0.121 Goal=   None    Shift=    0.000
 RMSDP=6.82D-09 MaxDP=5.08D-07 DE=-2.47D-10 OVMax= 4.62D-06

 SCF Done:  E(RCAM-B3LYP) =  -4069.81171295     A.U. after   19 cycles
            NFock= 19  Conv=0.68D-08     -V/T= 2.0102
 KE= 4.028801776161D+03 PE=-3.936493075938D+04 EE= 1.632438250218D+04
 Leave Link  502 at Sat Sep  4 04:31:40 2021, MaxMem= 23488102400 cpu:           13559.0 elap:             589.9
 (Enter /sw/apps/gaussian-16.0/g16/l801.exe)
 DoSCS=F DFT=T ScalE2(SS,OS)=  1.000000  1.000000
 ExpMin= 3.36D-02 ExpMax= 4.95D+03 ExpMxC= 7.45D+02 IAcc=3 IRadAn=         5 AccDes= 0.00D+00
 HarFok:  IExCor=  205 AccDes= 0.00D+00 IRadAn=         5 IDoV=-2 UseB2=F ITyADJ=14
 ICtDFT= 12500011 ScaDFX=  1.000000  1.000000  1.000000  1.000000
 GSVD:  LWork=       -9588 too small for GESVD, short by       45590 words or       45590 for optimal perf.
 Largest valence mixing into a core orbital is  2.03D-04
 Largest core mixing into a valence orbital is  5.23D-05
 Range of M.O.s used for correlation:    95  1572
 NBasis=  1572 NAE=   312 NBE=   312 NFC=    94 NFV=     0
 NROrb=   1478 NOA=   218 NOB=   218 NVA=  1260 NVB=  1260
 Leave Link  801 at Sat Sep  4 04:31:40 2021, MaxMem= 23488102400 cpu:               8.2 elap:               0.4
 (Enter /sw/apps/gaussian-16.0/g16/l914.exe)
 RHF ground state
 Two-electron integrals replicated using symmetry.
 MDV= 23488102400 DFT=T DoStab=F Mixed=T DoRPA=T DoScal=F NonHer=T
 Making orbital integer symmetry assigments:
 Orbital symmetries:
       Occupied  (A) (A) (A) (A) (A) (A) (A) (A) (A) (A) (A) (A)
                 (A) (A) (A) (A) (A) (A) (A) (A) (A) (A) (A) (A)
                 (A) (A) (A) (A) (A) (A) (A) (A) (A) (A) (A) (A)
                 (A) (A) (A) (A) (A) (A) (A) (A) (A) (A) (A) (A)
                 (A) (A) (A) (A) (A) (A) (A) (A) (A) (A) (A) (A)
                 (A) (A) (A) (A) (A) (A) (A) (A) (A) (A) (A) (A)
                 (A) (A) (A) (A) (A) (A) (A) (A) (A) (A) (A) (A)
                 (A) (A) (A) (A) (A) (A) (A) (A) (A) (A) (A) (A)
                 (A) (A) (A) (A) (A) (A) (A) (A) (A) (A) (A) (A)
                 (A) (A) (A) (A) (A) (A) (A) (A) (A) (A) (A) (A)
                 (A) (A) (A) (A) (A) (A) (A) (A) (A) (A) (A) (A)
                 (A) (A) (A) (A) (A) (A) (A) (A) (A) (A) (A) (A)
                 (A) (A) (A) (A) (A) (A) (A) (A) (A) (A) (A) (A)
                 (A) (A) (A) (A) (A) (A) (A) (A) (A) (A) (A) (A)
                 (A) (A) (A) (A) (A) (A) (A) (A) (A) (A) (A) (A)
                 (A) (A) (A) (A) (A) (A) (A) (A) (A) (A) (A) (A)
                 (A) (A) (A) (A) (A) (A) (A) (A) (A) (A) (A) (A)
                 (A) (A) (A) (A) (A) (A) (A) (A) (A) (A) (A) (A)
                 (A) (A) (A) (A) (A) (A) (A) (A) (A) (A) (A) (A)
                 (A) (A) (A) (A) (A) (A) (A) (A) (A) (A) (A) (A)
                 (A) (A) (A) (A) (A) (A) (A) (A) (A) (A) (A) (A)
                 (A) (A) (A) (A) (A) (A) (A) (A) (A) (A) (A) (A)
                 (A) (A) (A) (A) (A) (A) (A) (A) (A) (A) (A) (A)
                 (A) (A) (A) (A) (A) (A) (A) (A) (A) (A) (A) (A)
                 (A) (A) (A) (A) (A) (A) (A) (A) (A) (A) (A) (A)
                 (A) (A) (A) (A) (A) (A) (A) (A) (A) (A) (A) (A)
       Virtual   (A) (A) (A) (A) (A) (A) (A) (A) (A) (A) (A) (A)
                 (A) (A) (A) (A) (A) (A) (A) (A) (A) (A) (A) (A)
                 (A) (A) (A) (A) (A) (A) (A) (A) (A) (A) (A) (A)
                 (A) (A) (A) (A) (A) (A) (A) (A) (A) (A) (A) (A)
                 (A) (A) (A) (A) (A) (A) (A) (A) (A) (A) (A) (A)
                 (A) (A) (A) (A) (A) (A) (A) (A) (A) (A) (A) (A)
                 (A) (A) (A) (A) (A) (A) (A) (A) (A) (A) (A) (A)
                 (A) (A) (A) (A) (A) (A) (A) (A) (A) (A) (A) (A)
                 (A) (A) (A) (A) (A) (A) (A) (A) (A) (A) (A) (A)
                 (A) (A) (A) (A) (A) (A) (A) (A) (A) (A) (A) (A)
                 (A) (A) (A) (A) (A) (A) (A) (A) (A) (A) (A) (A)
                 (A) (A) (A) (A) (A) (A) (A) (A) (A) (A) (A) (A)
                 (A) (A) (A) (A) (A) (A) (A) (A) (A) (A) (A) (A)
                 (A) (A) (A) (A) (A) (A) (A) (A) (A) (A) (A) (A)
                 (A) (A) (A) (A) (A) (A) (A) (A) (A) (A) (A) (A)
                 (A) (A) (A) (A) (A) (A) (A) (A) (A) (A) (A) (A)
                 (A) (A) (A) (A) (A) (A) (A) (A) (A) (A) (A) (A)
                 (A) (A) (A) (A) (A) (A) (A) (A) (A) (A) (A) (A)
                 (A) (A) (A) (A) (A) (A) (A) (A) (A) (A) (A) (A)
                 (A) (A) (A) (A) (A) (A) (A) (A) (A) (A) (A) (A)
                 (A) (A) (A) (A) (A) (A) (A) (A) (A) (A) (A) (A)
                 (A) (A) (A) (A) (A) (A) (A) (A) (A) (A) (A) (A)
                 (A) (A) (A) (A) (A) (A) (A) (A) (A) (A) (A) (A)
                 (A) (A) (A) (A) (A) (A) (A) (A) (A) (A) (A) (A)
                 (A) (A) (A) (A) (A) (A) (A) (A) (A) (A) (A) (A)
                 (A) (A) (A) (A) (A) (A) (A) (A) (A) (A) (A) (A)
                 (A) (A) (A) (A) (A) (A) (A) (A) (A) (A) (A) (A)
                 (A) (A) (A) (A) (A) (A) (A) (A) (A) (A) (A) (A)
                 (A) (A) (A) (A) (A) (A) (A) (A) (A) (A) (A) (A)
                 (A) (A) (A) (A) (A) (A) (A) (A) (A) (A) (A) (A)
                 (A) (A) (A) (A) (A) (A) (A) (A) (A) (A) (A) (A)
                 (A) (A) (A) (A) (A) (A) (A) (A) (A) (A) (A) (A)
                 (A) (A) (A) (A) (A) (A) (A) (A) (A) (A) (A) (A)
                 (A) (A) (A) (A) (A) (A) (A) (A) (A) (A) (A) (A)
                 (A) (A) (A) (A) (A) (A) (A) (A) (A) (A) (A) (A)
                 (A) (A) (A) (A) (A) (A) (A) (A) (A) (A) (A) (A)
                 (A) (A) (A) (A) (A) (A) (A) (A) (A) (A) (A) (A)
                 (A) (A) (A) (A) (A) (A) (A) (A) (A) (A) (A) (A)
                 (A) (A) (A) (A) (A) (A) (A) (A) (A) (A) (A) (A)
                 (A) (A) (A) (A) (A) (A) (A) (A) (A) (A) (A) (A)
                 (A) (A) (A) (A) (A) (A) (A) (A) (A) (A) (A) (A)
                 (A) (A) (A) (A) (A) (A) (A) (A) (A) (A) (A) (A)
                 (A) (A) (A) (A) (A) (A) (A) (A) (A) (A) (A) (A)
                 (A) (A) (A) (A) (A) (A) (A) (A) (A) (A) (A) (A)
                 (A) (A) (A) (A) (A) (A) (A) (A) (A) (A) (A) (A)
                 (A) (A) (A) (A) (A) (A) (A) (A) (A) (A) (A) (A)
                 (A) (A) (A) (A) (A) (A) (A) (A) (A) (A) (A) (A)
                 (A) (A) (A) (A) (A) (A) (A) (A) (A) (A) (A) (A)
                 (A) (A) (A) (A) (A) (A) (A) (A) (A) (A) (A) (A)
                 (A) (A) (A) (A) (A) (A) (A) (A) (A) (A) (A) (A)
                 (A) (A) (A) (A) (A) (A) (A) (A) (A) (A) (A) (A)
                 (A) (A) (A) (A) (A) (A) (A) (A) (A) (A) (A) (A)
                 (A) (A) (A) (A) (A) (A) (A) (A) (A) (A) (A) (A)
                 (A) (A) (A) (A) (A) (A) (A) (A) (A) (A) (A) (A)
                 (A) (A) (A) (A) (A) (A) (A) (A) (A) (A) (A) (A)
                 (A) (A) (A) (A) (A) (A) (A) (A) (A) (A) (A) (A)
                 (A) (A) (A) (A) (A) (A) (A) (A) (A) (A) (A) (A)
                 (A) (A) (A) (A) (A) (A) (A) (A) (A) (A) (A) (A)
                 (A) (A) (A) (A) (A) (A) (A) (A) (A) (A) (A) (A)
                 (A) (A) (A) (A) (A) (A) (A) (A) (A) (A) (A) (A)
                 (A) (A) (A) (A) (A) (A) (A) (A) (A) (A) (A) (A)
                 (A) (A) (A) (A) (A) (A) (A) (A) (A) (A) (A) (A)
                 (A) (A) (A) (A) (A) (A) (A) (A) (A) (A) (A) (A)
                 (A) (A) (A) (A) (A) (A) (A) (A) (A) (A) (A) (A)
                 (A) (A) (A) (A) (A) (A) (A) (A) (A) (A) (A) (A)
                 (A) (A) (A) (A) (A) (A) (A) (A) (A) (A) (A) (A)
                 (A) (A) (A) (A) (A) (A) (A) (A) (A) (A) (A) (A)
                 (A) (A) (A) (A) (A) (A) (A) (A) (A) (A) (A) (A)
                 (A) (A) (A) (A) (A) (A) (A) (A) (A) (A) (A) (A)
                 (A) (A) (A) (A) (A) (A) (A) (A) (A) (A) (A) (A)
                 (A) (A) (A) (A) (A) (A) (A) (A) (A) (A) (A) (A)
                 (A) (A) (A) (A) (A) (A) (A) (A) (A) (A) (A) (A)
                 (A) (A) (A) (A) (A) (A) (A) (A) (A) (A) (A) (A)
                 (A) (A) (A) (A) (A) (A) (A) (A) (A) (A) (A) (A)
                 (A) (A) (A) (A) (A) (A) (A) (A) (A) (A) (A) (A)
                 (A) (A) (A) (A) (A) (A) (A) (A) (A) (A) (A) (A)
                 (A) (A) (A) (A) (A) (A) (A) (A) (A) (A) (A) (A)
                 (A) (A) (A) (A) (A) (A) (A) (A) (A) (A) (A) (A)
                 (A) (A) (A) (A) (A) (A) (A) (A) (A) (A) (A) (A)
                 (A) (A) (A) (A) (A) (A) (A) (A) (A) (A) (A) (A)
                 (A) (A) (A) (A) (A) (A) (A) (A) (A) (A) (A) (A)
                 (A) (A) (A) (A) (A) (A) (A) (A) (A) (A) (A) (A)
                 (A) (A) (A) (A) (A) (A) (A) (A) (A) (A) (A) (A)
                 (A) (A) (A) (A) (A) (A) (A) (A) (A) (A) (A) (A)
                 (A) (A) (A) (A) (A) (A) (A) (A) (A) (A) (A) (A)
                 (A) (A) (A) (A) (A) (A) (A) (A) (A) (A) (A) (A)
                 (A) (A) (A) (A) (A) (A) (A) (A) (A) (A) (A) (A)
                 (A) (A) (A) (A) (A) (A) (A) (A) (A) (A) (A) (A)
                 (A) (A) (A) (A) (A) (A) (A) (A) (A) (A) (A) (A)
                 (A) (A) (A) (A) (A) (A) (A) (A) (A) (A) (A) (A)
                 (A) (A) (A) (A) (A) (A) (A) (A) (A) (A) (A) (A)
                 (A) (A) (A) (A) (A) (A) (A) (A) (A) (A) (A) (A)
                 (A) (A) (A) (A) (A) (A) (A) (A) (A) (A) (A) (A)
                 (A) (A) (A) (A) (A) (A) (A) (A) (A) (A) (A) (A)
                 (A) (A) (A) (A) (A) (A) (A) (A) (A) (A) (A) (A)
                 (A) (A) (A) (A) (A) (A) (A) (A) (A) (A) (A) (A)
                 (A) (A) (A) (A) (A) (A) (A) (A) (A) (A) (A) (A)
                 (A) (A) (A) (A) (A) (A) (A) (A) (A) (A) (A) (A)
                 (A) (A) (A) (A) (A) (A) (A) (A) (A) (A) (A) (A)
                 (A) (A) (A) (A) (A) (A) (A) (A) (A) (A) (A) (A)
                 (A) (A) (A) (A) (A) (A) (A) (A) (A) (A) (A) (A)
                 (A) (A) (A) (A) (A) (A) (A) (A) (A) (A) (A) (A)
                 (A) (A) (A) (A) (A) (A) (A) (A) (A) (A) (A) (A)
                 (A) (A) (A) (A) (A) (A) (A) (A) (A) (A) (A) (A)
                 (A) (A) (A) (A) (A) (A) (A) (A) (A) (A) (A) (A)
    20 initial guesses have been made.
 Convergence on wavefunction:    0.001000000000000
 Davidson Disk Diagonalization:  ConvIn= 1.00D-03 SkipCon=T Conv= 1.00D-03.
 Max sub-space:  2000 roots to seek:    20 dimension of matrix:       549360
 Iteration     1 Dimension    20 NMult     0 NNew     20
 CISAX will form    20 AO SS matrices at one time.
 NMat=    20 NSing=    20 JSym2X= 0.
 FoFJK:  IHMeth= 1 ICntrl=       0 DoSepK=T KAlg= 0 I1Cent=           0 FoldK=F
 IRaf=         1 NMat=      40 IRICut=       1 DoRegI=T DoRafI=F ISym2E= 0 IDoP0=3 IntGTp=3.
 FoFCou: FMM=T IPFlag=           0 FMFlag=      100000 FMFlg1=        2001
         NFxFlg=           0 DoJE=F BraDBF=F KetDBF=F FulRan=T
         wScrn=  0.000000 ICntrl=       500 IOpCl=  0 I1Cent=           0 NGrid=           0
         NMat0=   20 NMatS0=     20 NMatT0=    0 NMatD0=   20 NMtDS0=    0 NMtDT0=    0
 Symmetry not used in FoFCou.
 FMM levels:  10  Number of levels for PrismC:   9
 New state      2 was old state      7
 New state      3 was old state      6
 New state      5 was old state      2
 Excitation Energies [eV] at current iteration:
 Root      1 :     2.486011454876316
 Root      2 :     2.609391216068892
 Root      3 :     2.617117533283849
 Root      4 :     2.621457541400287
 Root      5 :     2.656371541111796
 Root      6 :     2.717714983760875
 Root      7 :     3.273010542939349
 Root      8 :     3.417525743590916
 Root      9 :     3.623510196903263
 Root     10 :     3.666382402422575
 Root     11 :     3.738888028274279
 Root     12 :     3.763109275092585
 Root     13 :     4.280646150667852
 Root     14 :     4.327267592353381
 Root     15 :     4.390754672514184
 Root     16 :     4.551283706344277
 Root     17 :     4.705149864024863
 Root     18 :     4.745774234841294
 Root     19 :     4.850606948965082
 Root     20 :     4.860151009713919
 Iteration     2 Dimension    30 NMult    20 NNew     10
 CISAX will form    10 AO SS matrices at one time.
 NMat=    10 NSing=    10 JSym2X= 0.
 New state      1 was old state      5
 Root      1 not converged, maximum delta is    0.224248532188824
 New state      2 was old state      3
 Root      2 not converged, maximum delta is    0.132319032288569
 New state      3 was old state      2
 Root      3 not converged, maximum delta is    0.188793580652043
 New state      4 was old state      1
 Root      4 not converged, maximum delta is    0.002282579627874
 New state      5 was old state      4
 Root      5 not converged, maximum delta is    0.004324496367838
 Excitation Energies [eV] at current iteration:
 Root      1 :     1.786649526383281   Change is   -0.869722014728516
 Root      2 :     2.222232564996612   Change is   -0.394884968287238
 Root      3 :     2.238513819930488   Change is   -0.370877396138404
 Root      4 :     2.485575452537757   Change is   -0.000436002338559
 Root      5 :     2.620923595574224   Change is   -0.000533945826063
 Iteration     3 Dimension    40 NMult    30 NNew     10
 CISAX will form    10 AO SS matrices at one time.
 NMat=    10 NSing=    10 JSym2X= 0.
 Root      1 not converged, maximum delta is    0.054261553481480
 Root      2 not converged, maximum delta is    0.463661529590755
 Root      3 not converged, maximum delta is    0.236476851627959
 No map to state      4
 New state      5 was old state      4
 Root      5 has converged.
 Excitation Energies [eV] at current iteration:
 Root      1 :     1.680793893444194   Change is   -0.105855632939087
 Root      2 :     1.932778513804089   Change is   -0.289454051192523
 Root      3 :     2.197601034397711   Change is   -0.040912785532777
 Root      4 :     2.221092443304757
 Root      5 :     2.485572685643890   Change is   -0.000002766893867
 Iteration     4 Dimension    48 NMult    40 NNew      8
 CISAX will form     8 AO SS matrices at one time.
 NMat=     8 NSing=     8 JSym2X= 0.
 Root      1 not converged, maximum delta is    0.010241546287384
 Root      2 not converged, maximum delta is    0.131059792645999
 New state      3 was old state      4
 Root      3 not converged, maximum delta is    0.469778362209810
 New state      4 was old state      3
 Root      4 not converged, maximum delta is    0.466981097098156
 Root      5 has converged.
 Excitation Energies [eV] at current iteration:
 Root      1 :     1.664130346177859   Change is   -0.016663547266335
 Root      2 :     1.711285587169772   Change is   -0.221492926634317
 Root      3 :     2.186489987487112   Change is   -0.034602455817646
 Root      4 :     2.193365526708807   Change is   -0.004235507688904
 Root      5 :     2.485572679211253   Change is   -0.000000006432637
 Iteration     5 Dimension    56 NMult    48 NNew      8
 CISAX will form     8 AO SS matrices at one time.
 NMat=     8 NSing=     8 JSym2X= 0.
 Root      1 not converged, maximum delta is    0.001693753931326
 Root      2 not converged, maximum delta is    0.010204181023462
 Root      3 not converged, maximum delta is    0.041230000388366
 Root      4 not converged, maximum delta is    0.041290799518374
 Root      5 has converged.
 Excitation Energies [eV] at current iteration:
 Root      1 :     1.662398453308634   Change is   -0.001731892869225
 Root      2 :     1.693504889007595   Change is   -0.017780698162177
 Root      3 :     2.185022035917709   Change is   -0.001467951569402
 Root      4 :     2.192179507780326   Change is   -0.001186018928481
 Root      5 :     2.485572676897802   Change is   -0.000000002313451
 Iteration     6 Dimension    64 NMult    56 NNew      8
 CISAX will form     8 AO SS matrices at one time.
 NMat=     8 NSing=     8 JSym2X= 0.
 Root      1 not converged, maximum delta is    0.001041553735558
 Root      2 not converged, maximum delta is    0.005281275230250
 Root      3 not converged, maximum delta is    0.006155319509000
 Root      4 not converged, maximum delta is    0.006197966876841
 Root      5 has converged.
 Excitation Energies [eV] at current iteration:
 Root      1 :     1.662152103212583   Change is   -0.000246350096051
 Root      2 :     1.690354358992402   Change is   -0.003150530015193
 Root      3 :     2.184795231056698   Change is   -0.000226804861011
 Root      4 :     2.192005991816972   Change is   -0.000173515963354
 Root      5 :     2.485572675090844   Change is   -0.000000001806958
 Iteration     7 Dimension    72 NMult    64 NNew      8
 CISAX will form     8 AO SS matrices at one time.
 NMat=     8 NSing=     8 JSym2X= 0.
 Root      1 has converged.
 Root      2 not converged, maximum delta is    0.001473891992351
 Root      3 has converged.
 Root      4 has converged.
 Root      5 has converged.
 Excitation Energies [eV] at current iteration:
[...]
 Alpha virt. eigenvalues --    1.84423   1.84629   1.84762   1.84874   1.85096
 Alpha virt. eigenvalues --    1.85208   1.85232   1.85384   1.85426   1.85585
 Alpha virt. eigenvalues --    1.85835   1.86000   1.86323   1.86480   1.86508
 Alpha virt. eigenvalues --    1.86737   1.86761   1.86924   1.87045   1.87130
 Alpha virt. eigenvalues --    1.87424   1.87572   1.87667   1.87837   1.87844
 Alpha virt. eigenvalues --    1.88010   1.88113   1.88264   1.88496   1.88653
 Alpha virt. eigenvalues --    1.88799   1.89006   1.89109   1.89165   1.89566
 Alpha virt. eigenvalues --    1.89686   1.89746   1.89979   1.90085   1.90277
 Alpha virt. eigenvalues --    1.90737   1.90978   1.91331   1.91425   1.91516
 Alpha virt. eigenvalues --    1.91651   1.92128   1.92264   1.92624   1.92727
 Alpha virt. eigenvalues --    1.92949   1.93251   1.93306   1.93611   1.94267
 Alpha virt. eigenvalues --    1.94402   1.94646   1.94911   1.95453   1.95696
 Alpha virt. eigenvalues --    1.95714   1.95885   1.95984   1.96125   1.96135
 Alpha virt. eigenvalues --    1.96250   1.96570   1.96580   1.96862   1.97017
 Alpha virt. eigenvalues --    1.97432   1.97622   1.97819   1.97886   1.98148
 Alpha virt. eigenvalues --    1.98246   1.98415   1.98697   1.99125   1.99165
 Alpha virt. eigenvalues --    1.99805   1.99995   2.00628   2.00827   2.00975
 Alpha virt. eigenvalues --    2.01179   2.01475   2.01616   2.01648   2.01671
 Alpha virt. eigenvalues --    2.01708   2.01889   2.02761   2.02793   2.03217
 Alpha virt. eigenvalues --    2.03236   2.03385   2.03458   2.03472   2.03610
 Alpha virt. eigenvalues --    2.04018   2.04113   2.04911   2.05081   2.05468
 Alpha virt. eigenvalues --    2.05727   2.06034   2.06373   2.06901   2.07099
 Alpha virt. eigenvalues --    2.07163   2.07464   2.08515   2.08651   2.08943
 Alpha virt. eigenvalues --    2.09090   2.09564   2.09699   2.10748   2.11145
 Alpha virt. eigenvalues --    2.11149   2.11505   2.11531   2.11587   2.11684
 Alpha virt. eigenvalues --    2.11948   2.12445   2.12528   2.12759   2.12808
 Alpha virt. eigenvalues --    2.12898   2.12959   2.13676   2.13760   2.14108
 Alpha virt. eigenvalues --    2.14361   2.15297   2.15500   2.15908   2.16164
 Alpha virt. eigenvalues --    2.16482   2.16685   2.16720   2.17296   2.17391
 Alpha virt. eigenvalues --    2.17673   2.17750   2.18009   2.18044   2.18111
 Alpha virt. eigenvalues --    2.18308   2.18736   2.18860   2.19299   2.19617
 Alpha virt. eigenvalues --    2.19898   2.20009   2.20191   2.20339   2.20511
 Alpha virt. eigenvalues --    2.21115   2.21278   2.21627   2.21728   2.21866
 Alpha virt. eigenvalues --    2.21964   2.22645   2.22787   2.23288   2.23455
 Alpha virt. eigenvalues --    2.24346   2.24527   2.24923   2.25105   2.26280
 Alpha virt. eigenvalues --    2.26521   2.26747   2.27083   2.27092   2.27291
 Alpha virt. eigenvalues --    2.28109   2.28377   2.29228   2.29527   2.29706
 Alpha virt. eigenvalues --    2.29965   2.30437   2.30675   2.30857   2.31060
 Alpha virt. eigenvalues --    2.31201   2.31307   2.32076   2.32340   2.33105
 Alpha virt. eigenvalues --    2.33305   2.33438   2.33568   2.34121   2.34219
 Alpha virt. eigenvalues --    2.35362   2.35377   2.35762   2.35980   2.36316
 Alpha virt. eigenvalues --    2.36426   2.36555   2.36576   2.37627   2.37793
 Alpha virt. eigenvalues --    2.38192   2.38476   2.38824   2.38838   2.39571
 Alpha virt. eigenvalues --    2.39755   2.40159   2.40357   2.40461   2.40879
 Alpha virt. eigenvalues --    2.41262   2.41263   2.41654   2.41783   2.42032
 Alpha virt. eigenvalues --    2.42206   2.42902   2.42918   2.43075   2.43582
 Alpha virt. eigenvalues --    2.44045   2.44154   2.44691   2.44876   2.44890
 Alpha virt. eigenvalues --    2.45072   2.45507   2.45673   2.46228   2.46366
 Alpha virt. eigenvalues --    2.46442   2.46604   2.46764   2.46887   2.47231
 Alpha virt. eigenvalues --    2.47485   2.47678   2.47977   2.49258   2.49488
 Alpha virt. eigenvalues --    2.49988   2.50028   2.50501   2.50539   2.51101
 Alpha virt. eigenvalues --    2.51334   2.51691   2.51851   2.52427   2.52430
 Alpha virt. eigenvalues --    2.52781   2.53225   2.53876   2.54052   2.54068
 Alpha virt. eigenvalues --    2.54370   2.54755   2.54905   2.55464   2.55757
 Alpha virt. eigenvalues --    2.57808   2.58160   2.58609   2.58980   2.60187
 Alpha virt. eigenvalues --    2.60355   2.60589   2.60969   2.61659   2.61901
 Alpha virt. eigenvalues --    2.62495   2.62506   2.62925   2.63207   2.63897
 Alpha virt. eigenvalues --    2.64217   2.64277   2.64510   2.65051   2.65171
 Alpha virt. eigenvalues --    2.65758   2.65902   2.66742   2.66870   2.66903
 Alpha virt. eigenvalues --    2.67118   2.67873   2.68051   2.68817   2.68887
 Alpha virt. eigenvalues --    2.69007   2.69079   2.69361   2.69657   2.69971
 Alpha virt. eigenvalues --    2.70218   2.70959   2.71114   2.71946   2.72033
 Alpha virt. eigenvalues --    2.72546   2.72626   2.72781   2.72863   2.73239
 Alpha virt. eigenvalues --    2.73373   2.73495   2.73555   2.74480   2.74586
 Alpha virt. eigenvalues --    2.74945   2.75126   2.76555   2.76600   2.77149
 Alpha virt. eigenvalues --    2.77200   2.77401   2.77665   2.78110   2.78362
 Alpha virt. eigenvalues --    2.78709   2.78759   2.79097   2.79205   2.80283
 Alpha virt. eigenvalues --    2.80327   2.80576   2.80730   2.81079   2.81232
 Alpha virt. eigenvalues --    2.81897   2.82045   2.82304   2.82412   2.83682
 Alpha virt. eigenvalues --    2.83740   2.83923   2.83963   2.84499   2.84622
 Alpha virt. eigenvalues --    2.84841   2.84970   2.85605   2.85755   2.86711
 Alpha virt. eigenvalues --    2.86975   2.87198   2.87631   2.88076   2.88304
 Alpha virt. eigenvalues --    2.88481   2.88706   2.88893   2.88958   2.90479
 Alpha virt. eigenvalues --    2.90702   2.91139   2.91156   2.93123   2.93374
 Alpha virt. eigenvalues --    2.93834   2.94159   2.94499   2.94645   2.95357
 Alpha virt. eigenvalues --    2.95481   2.95837   2.96226   2.96424   2.96429
 Alpha virt. eigenvalues --    2.96886   2.97192   2.97811   2.98093   2.98145
 Alpha virt. eigenvalues --    2.98334   2.98373   2.98568   2.98624   2.98831
 Alpha virt. eigenvalues --    2.98888   2.99034   2.99530   2.99866   3.00003
 Alpha virt. eigenvalues --    3.00040   3.00210   3.00399   3.00440   3.01025
 Alpha virt. eigenvalues --    3.01957   3.01966   3.01974   3.02135   3.02739
 Alpha virt. eigenvalues --    3.02842   3.02975   3.03266   3.03354   3.03735
 Alpha virt. eigenvalues --    3.04093   3.04146   3.04412   3.04480   3.04525
 Alpha virt. eigenvalues --    3.04856   3.05248   3.05422   3.06077   3.06216
 Alpha virt. eigenvalues --    3.06788   3.06978   3.07982   3.08079   3.09370
 Alpha virt. eigenvalues --    3.09428   3.09673   3.10413   3.10423   3.10774
 Alpha virt. eigenvalues --    3.11292   3.11546   3.11934   3.11977   3.12152
 Alpha virt. eigenvalues --    3.12322   3.13253   3.13590   3.13683   3.13767
 Alpha virt. eigenvalues --    3.14116   3.14484   3.15887   3.16065   3.17225
 Alpha virt. eigenvalues --    3.17601   3.17947   3.18002   3.19066   3.19109
 Alpha virt. eigenvalues --    3.22324   3.22622   3.23905   3.24512   3.24655
 Alpha virt. eigenvalues --    3.25256   3.26463   3.26736   3.27464   3.27585
 Alpha virt. eigenvalues --    3.29126   3.29239   3.31449   3.31486   3.33260
 Alpha virt. eigenvalues --    3.33373   3.40255   3.40678   3.42744   3.42884
 Alpha virt. eigenvalues --    3.48627   3.48772   3.49981   3.50355   3.50904
 Alpha virt. eigenvalues --    3.51429   3.56502   3.57082   3.59058   3.59423
 Alpha virt. eigenvalues --    3.62590   3.62801   3.66100   3.66178   3.67218
 Alpha virt. eigenvalues --    3.67551   3.73286   3.74052   3.76058   3.76723
          Condensed to atoms (all electrons):
 Mulliken charges:
               1
     1  Mg   0.838635
     2  C   -0.002820
     3  C   -0.094434
     4  C   -0.045940
     5  C   -0.064038
     6  N   -0.256802
     7  C   -0.052282
     8  C   -0.013938
     9  C   -0.086925
    10  C    0.046251
    11  C    0.104806
    12  C    0.053555
    13  C   -0.072450
    14  H    0.038045
    15  N   -0.433051
    16  C    0.168121
    17  C   -0.177642
    18  C   -0.004464
    19  C    0.148613
    20  C    0.110259
    21  C    0.011671
    22  O   -0.249620
    23  C    0.062891
    24  N   -0.341210
    25  C    0.041297
    26  C   -0.028190
    27  C   -0.024067
    28  C    0.075103
    29  C    0.076126
    30  C    0.035045
    31  C   -0.004440
    32  N   -0.310547
    33  C    0.080659
    34  C   -0.169814
    35  C    0.008500
    36  C    0.083093
    37  C    0.127320
    38  C    0.046179
    39  O   -0.187932
    40  C   -0.005265
    41  C    0.212872
    42  O   -0.256859
    43  O   -0.304973
    44  C    0.157300
    45  H   -0.017645
    46  H   -0.016915
    47  H   -0.041376
    48  H    0.001278
    49  H   -0.004144
    50  H    0.025629
    51  H    0.016335
    52  H    0.016753
    53  H    0.010389
    54  H    0.044612
    55  H    0.017941
    56  H    0.017473
    57  H    0.006021
    58  H    0.026906
    59  H    0.038088
    60  H    0.037762
    61  H    0.035069
    62  H    0.029879
    63  H    0.016624
    64  H    0.009597
    65  H    0.023281
    66  H    0.012491
    67  H    0.004894
    68  H    0.006746
    69  H    0.004621
    70  H    0.009203
    71  H    0.018347
    72  H    0.028644
    73  H    0.047503
    74  H    0.009099
    75  H    0.046311
    76  H    0.035330
    77  H    0.043230
    78  H    0.046673
    79  H    0.054706
    80  Mg   0.838247
    81  C   -0.016787
    82  C   -0.087990
    83  C   -0.045372
    84  C   -0.063252
    85  N   -0.254475
    86  C   -0.049651
    87  C   -0.015061
    88  C   -0.090583
    89  C    0.045738
    90  C    0.114591
    91  C    0.062671
    92  C   -0.077500
    93  H    0.034512
    94  N   -0.423433
    95  C    0.162702
    96  C   -0.174646
    97  C   -0.007944
    98  C    0.151981
    99  C    0.099378
   100  C    0.015490
   101  O   -0.253575
   102  C    0.061226
   103  N   -0.349821
   104  C    0.037519
   105  C   -0.019872
   106  C   -0.035143
   107  C    0.088930
   108  C    0.073585
   109  C    0.034686
   110  C   -0.007588
   111  N   -0.324395
   112  C    0.078624
   113  C   -0.161523
   114  C    0.002665
   115  C    0.096465
   116  C    0.130976
   117  C    0.043135
   118  O   -0.188132
   119  C    0.000627
   120  C    0.211046
   121  O   -0.251122
   122  O   -0.305793
   123  C    0.152164
   124  H   -0.020440
   125  H   -0.015890
   126  H   -0.039502
   127  H   -0.001313
   128  H   -0.005084
   129  H    0.022773
   130  H    0.015195
   131  H    0.014012
   132  H    0.013973
   133  H    0.037746
   134  H    0.020018
   135  H    0.019248
   136  H    0.008112
   137  H    0.026471
   138  H    0.039236
   139  H    0.038473
   140  H    0.035992
   141  H    0.033584
   142  H    0.013991
   143  H    0.013823
   144  H    0.024218
   145  H    0.011764
   146  H    0.006223
   147  H    0.005947
   148  H    0.004114
   149  H    0.010613
   150  H    0.017702
   151  H    0.030037
   152  H    0.045208
   153  H    0.008531
   154  H    0.050660
   155  H    0.035214
   156  H    0.043417
   157  H    0.049072
   158  H    0.053563
 Sum of Mulliken charges =  -0.00000
 Mulliken charges with hydrogens summed into heavy atoms:
               1
     1  Mg   0.838635
     2  C   -0.002820
     3  C   -0.112078
     4  C   -0.062855
     5  C   -0.105414
     6  N   -0.256802
     7  C   -0.052282
     8  C   -0.012660
     9  C   -0.091069
    10  C    0.046251
    11  C    0.163523
    12  C    0.108557
    13  C    0.001009
    15  N   -0.433051
    16  C    0.168121
    17  C   -0.177642
    18  C   -0.004464
    19  C    0.148613
    20  C    0.181274
    21  C    0.011671
    22  O   -0.249620
    23  C    0.165601
    24  N   -0.341210
    25  C    0.041297
    26  C   -0.011566
    27  C   -0.014470
    28  C    0.075103
    29  C    0.116792
    30  C    0.046413
    31  C    0.051755
    32  N   -0.310547
    33  C    0.080659
    34  C   -0.169814
    35  C    0.008500
    36  C    0.083093
    37  C    0.230232
    38  C    0.046179
    39  O   -0.187932
    40  C    0.030065
    41  C    0.212872
    42  O   -0.256859
    43  O   -0.304973
    44  C    0.301909
    80  Mg   0.838247
    81  C   -0.016787
    82  C   -0.108430
    83  C   -0.061262
    84  C   -0.102755
    85  N   -0.254475
    86  C   -0.049651
    87  C   -0.016374
    88  C   -0.095667
    89  C    0.045738
    90  C    0.166572
    91  C    0.114390
    92  C   -0.003722
    94  N   -0.423433
    95  C    0.162702
    96  C   -0.174646
    97  C   -0.007944
    98  C    0.151981
    99  C    0.173196
   100  C    0.015490
   101  O   -0.253575
   102  C    0.169275
   103  N   -0.349821
   104  C    0.037519
   105  C   -0.005882
   106  C   -0.021320
   107  C    0.088930
   108  C    0.115789
   109  C    0.044747
   110  C    0.050763
   111  N   -0.324395
   112  C    0.078624
   113  C   -0.161523
   114  C    0.002665
   115  C    0.096465
   116  C    0.235375
   117  C    0.043135
   118  O   -0.188132
   119  C    0.035842
   120  C    0.211046
   121  O   -0.251122
   122  O   -0.305793
   123  C    0.298216
 Electronic spatial extent (au):  <R**2>=         114858.3538
 Charge=             -0.0000 electrons
 Dipole moment (field-independent basis, Debye):
    X=              3.5914    Y=             -1.9775    Z=              7.0398  Tot=              8.1466
 Quadrupole moment (field-independent basis, Debye-Ang):
   XX=           -518.7732   YY=           -534.6670   ZZ=           -464.5449
   XY=             18.9649   XZ=              1.6184   YZ=             32.7659
 Traceless Quadrupole moment (field-independent basis, Debye-Ang):
   XX=            -12.7782   YY=            -28.6719   ZZ=             41.4501
   XY=             18.9649   XZ=              1.6184   YZ=             32.7659
 Octapole moment (field-independent basis, Debye-Ang**2):
  XXX=            309.9676  YYY=            233.6412  ZZZ=            146.2221  XYY=            172.9067
  XXY=            -83.7209  XXZ=            217.8330  XZZ=           -183.5352  YZZ=            -40.3330
  YYZ=            117.0205  XYZ=            203.7360
 Hexadecapole moment (field-independent basis, Debye-Ang**3):
 XXXX=         -90874.8757 YYYY=         -39549.5336 ZZZZ=         -26657.6717 XXXY=            823.1546
 XXXZ=           -301.6907 YYYX=            518.2312 YYYZ=            290.7867 ZZZX=           1051.6468
 ZZZY=            509.4275 XXYY=         -22048.0150 XXZZ=         -18281.2435 YYZZ=         -11141.0415
 XXYZ=           1133.0092 YYXZ=          -1530.6167 ZZXY=           -635.3554
 N-N= 1.494193476809D+04 E-N=-3.936493075145D+04  KE= 4.028801776161D+03
 Leave Link  601 at Sat Sep  4 04:56:37 2021, MaxMem= 23488102400 cpu:              14.7 elap:               0.7
 (Enter /sw/apps/gaussian-16.0/g16/l9999.exe)
 1\1\GINC-BP1-COMPUTE00089\SP\RCAM-B3LYP TD-FC\def2SVP\C68H72Mg2N8O8\OF
 15641\04-Sep-2021\0\\#p cam-b3lyp/Def2SVP td=(nstates=5)\\TDDFT excite
 d states in gaussian\\0,1\Mg,0,0.,0.,0.\C,0,-0.217,-2.218,2.801\C,0,-1
 .255,2.442,2.026\C,0,-0.245,1.85,-2.564\C,0,0.146,-2.824,-2.037\N,0,-0
 .617,-0.009,2.126\C,0,-0.594,-0.908,3.105\C,0,-0.936,-0.309,4.502\C,0,
 -1.773,0.964,4.032\C,0,-1.155,1.168,2.66\C,0,-3.263,0.685,3.863\C,0,0.
 345,0.11,5.299\C,0,0.124,0.397,6.787\H,0,1.168,0.033,7.733\N,0,-0.185,
 1.961,-0.152\C,0,-0.703,2.8,0.777\C,0,-0.62,4.156,0.193\C,0,-0.187,4.0
 15,-1.225\C,0,-0.214,2.583,-1.38\C,0,-0.887,5.406,0.974\C,0,0.181,5.01
 3,-2.277\O,0,0.303,4.69,-3.508\C,0,0.31,6.414,-1.837\N,0,-0.265,-0.413
 ,-2.029\C,0,-0.279,0.569,-2.937\C,0,-0.196,0.024,-4.332\C,0,0.124,-1.5
 33,-4.18\C,0,0.086,-1.632,-2.635\C,0,-1.451,0.205,-5.197\C,0,1.373,-2.
 07,-4.923\C,0,2.626,-1.49,-4.306\N,0,0.15,-2.144,0.303\C,0,0.173,-3.13
 6,-0.688\C,0,0.173,-4.438,0.004\C,0,0.133,-4.111,1.358\C,0,0.083,-2.69
 5,1.502\C,0,0.149,-5.715,-0.623\C,0,0.096,-4.629,2.716\O,0,0.208,-5.74
 7,3.221\C,0,-0.255,-3.428,3.701\C,0,0.717,-3.482,4.848\O,0,1.931,-3.25
 5,4.669\O,0,0.038,-3.556,6.003\C,0,0.943,-3.583,7.183\H,0,-1.859,3.22,
 2.497\H,0,-0.218,2.453,-3.474\H,0,0.276,-3.747,-2.605\H,0,-1.554,-0.94
 9,5.132\H,0,-1.585,1.831,4.665\H,0,-3.484,-0.377,3.969\H,0,-3.511,1.02
 7,2.858\H,0,-3.852,1.301,4.543\H,0,0.669,1.096,4.966\H,0,1.13,-0.639,5
 .189\H,0,-0.844,0.026,7.125\H,0,0.062,1.477,6.921\H,0,-1.344,5.186,1.9
 38\H,0,-1.651,5.963,0.432\H,0,0.007,6.02,1.084\H,0,-0.635,6.744,-1.405
 \H,0,0.665,6.97,-2.704\H,0,1.048,6.466,-1.036\H,0,0.608,0.501,-4.891\H
 ,0,-0.692,-2.156,-4.547\H,0,-1.267,0.74,-6.129\H,0,-2.204,0.714,-4.596
 \H,0,-1.967,-0.72,-5.453\H,0,1.356,-1.759,-5.967\H,0,1.452,-3.157,-4.9
 02\H,0,2.714,-0.522,-4.798\H,0,3.487,-2.121,-4.529\H,0,2.495,-1.303,-3
 .24\H,0,0.867,-6.333,-0.084\H,0,0.404,-5.642,-1.68\H,0,-0.891,-5.999,-
 0.463\H,0,-1.283,-3.581,4.028\H,0,0.698,-4.478,7.755\H,0,0.833,-2.619,
 7.68\H,0,2.,-3.754,6.976\Mg,0,10.51728,0.95452,0.80016\C,0,9.99395,1.5
 0191,4.30809\C,0,9.38697,4.13173,0.28799\C,0,10.53905,0.35384,-2.31531
 \C,0,10.50486,-2.46487,1.47344\N,0,9.81149,2.51716,2.1974\C,0,9.71505,
 2.63325,3.51329\C,0,9.37381,4.06396,4.00946\C,0,8.6601,4.61542,2.68078
 \C,0,9.34982,3.72807,1.64658\C,0,7.16819,4.32979,2.63624\C,0,10.65653,
 4.89674,4.36031\C,0,10.39241,6.18678,5.13993\H,0,11.36755,6.60597,6.14
 286\N,0,10.50674,2.19691,-0.7474\C,0,10.02985,3.4591,-0.77437\C,0,10.2
 3687,3.93809,-2.14982\C,0,10.72406,2.7993,-2.97476\C,0,10.586,1.71036,
 -2.0286\C,0,10.05156,5.37351,-2.54814\C,0,11.21874,2.70375,-4.38628\O,
 0,11.36595,1.57382,-4.97314\C,0,11.43662,3.97492,-5.09206\N,0,10.31017
 ,-0.79774,-0.29941\C,0,10.41147,-0.78862,-1.64015\C,0,10.50469,-2.1920
 8,-2.1897\C,0,10.68908,-3.14097,-0.91566\C,0,10.57617,-2.08444,0.20523
 \C,0,9.30437,-2.66707,-3.00824\C,0,11.9194,-4.08912,-0.91648\C,0,13.19
 344,-3.28151,-0.81656\N,0,10.47846,-0.28178,2.57163\C,0,10.4526,-1.692
 59,2.6268\C,0,10.31397,-2.07024,4.04827\C,0,10.2451,-0.84295,4.72467\C
 ,0,10.31418,0.22421,3.78878\C,0,10.21906,-3.39867,4.55064\C,0,10.11897
 ,-0.20758,6.01661\O,0,10.1083,-0.6028,7.18169\C,0,9.82351,1.33808,5.79
 292\C,0,10.73881,2.12107,6.69384\O,0,11.96976,2.09844,6.51816\O,0,10.0
 0144,2.93408,7.47208\C,0,10.86537,3.73964,8.37569\H,0,8.83653,5.02701,
 -0.00248\H,0,10.65488,0.09037,-3.36918\H,0,10.59181,-3.51094,1.77488\H
 ,0,8.68512,4.10282,4.84491\H,0,8.9014,5.66097,2.50771\H,0,6.85453,3.69
 722,3.45332\H,0,6.99081,3.83906,1.68821\H,0,6.60582,5.26722,2.60024\H,
 0,11.07396,5.31761,3.43654\H,0,11.36904,4.29423,4.8894\H,0,9.37742,6.2
 1743,5.55442\H,0,10.42217,7.02661,4.44149\H,0,9.53018,5.94309,-1.76894
 \H,0,9.36168,5.38276,-3.39892\H,0,10.98686,5.852,-2.84634\H,0,10.50684
 ,4.53827,-5.11672\H,0,11.87433,3.70343,-6.05465\H,0,12.1529,4.57469,-4
 .51949\H,0,11.36819,-2.29821,-2.83484\H,0,9.83668,-3.8247,-0.79006\H,0
 ,9.57445,-2.99209,-4.03073\H,0,8.57696,-1.86695,-3.04326\H,0,8.73317,-
 3.4792,-2.56173\H,0,11.97341,-4.63863,-1.8595\H,0,11.90017,-4.82237,-0
 .11713\H,0,13.37753,-2.98182,-1.8526\H,0,14.00641,-3.89445,-0.43258\H,
 0,13.0353,-2.36765,-0.23219\H,0,10.85284,-3.44647,5.42616\H,0,10.51828
 ,-4.12919,3.80193\H,0,9.14885,-3.44885,4.76839\H,0,8.77245,1.50826,6.0
 2935\H,0,10.51861,3.55551,9.39722\H,0,10.80176,4.77882,8.00177\H,0,11.
 90924,3.45888,8.45285\\Version=ES64L-G16RevA.03\State=1-A\HF=-4069.811
 713\RMSD=6.824e-09\PG=C01 [X(C68H72Mg2N8O8)]\\@


 ERWIN WITH HIS PSI CAN DO
 CALCULATIONS QUITE A FEW.
 BUT ONE THING HAS NOT BEEN SEEN
 JUST WHAT DOES PSI REALLY MEAN.
 -- WALTER HUCKEL, TRANS. BY FELIX BLOCH
 Job cpu time:       0 days 13 hours 44 minutes 52.4 seconds.
 Elapsed time:       0 days  0 hours 35 minutes  1.4 seconds.
 File lengths (MBytes):  RWF=  13225 Int=      0 D2E=      0 Chk=    574 Scr=      1
 Normal termination of Gaussian 16 at Sat Sep  4 04:56:38 2021.
