 Entering Gaussian System, Link 0=g16
 Initial command:
 /sw/apps/gaussian-16.0/g16/l1.exe "/tmp/Gau-20744.inp" -scrdir="/tmp/"
 Entering Link 1 = /sw/apps/gaussian-16.0/g16/l1.exe PID=     20745.
  
 Copyright (c) 1988,1990,1992,1993,1995,1998,2003,2009,2016,
            Gaussian, Inc.  All Rights Reserved.
  
 This is part of the Gaussian(R) 16 program.  It is based on
 the Gaussian(R) 09 system (copyright 2009, Gaussian, Inc.),
 the Gaussian(R) 03 system (copyright 2003, Gaussian, Inc.),
 the Gaussian(R) 98 system (copyright 1998, Gaussian, Inc.),
 the Gaussian(R) 94 system (copyright 1995, Gaussian, Inc.),
 the Gaussian 92(TM) system (copyright 1992, Gaussian, Inc.),
 the Gaussian 90(TM) system (copyright 1990, Gaussian, Inc.),
 the Gaussian 88(TM) system (copyright 1988, Gaussian, Inc.),
 the Gaussian 86(TM) system (copyright 1986, Carnegie Mellon
 University), and the Gaussian 82(TM) system (copyright 1983,
 Carnegie Mellon University). Gaussian is a federally registered
 trademark of Gaussian, Inc.
  
 This software contains proprietary and confidential information,
 including trade secrets, belonging to Gaussian, Inc.
  
 This software is provided under written license and may be
 used, copied, transmitted, or stored only in accord with that
 written license.
  
 The following legend is applicable only to US Government
 contracts under FAR:
  
                    RESTRICTED RIGHTS LEGEND
  
 Use, reproduction and disclosure by the US Government is
 subject to restrictions as set forth in subparagraphs (a)
 and (c) of the Commercial Computer Software - Restricted
 Rights clause in FAR 52.227-19.
  
 Gaussian, Inc.
 340 Quinnipiac St., Bldg. 40, Wallingford CT 06492
  
  
 ---------------------------------------------------------------
 Warning -- This program may not be used in any manner that
 competes with the business of Gaussian, Inc. or will provide
 assistance to any competitor of Gaussian, Inc.  The licensee
 of this program is prohibited from giving any competitor of
 Gaussian, Inc. access to this program.  By using this program,
 the user acknowledges that Gaussian, Inc. is engaged in the
 business of creating and licensing software in the field of
 computational chemistry and represents and warrants to the
 licensee that it is not a competitor of Gaussian, Inc. and that
 it will not use this program in any manner prohibited above.
 ---------------------------------------------------------------
  

 Cite this work as:
 Gaussian 16, Revision A.03,
 M. J. Frisch, G. W. Trucks, H. B. Schlegel, G. E. Scuseria, 
 M. A. Robb, J. R. Cheeseman, G. Scalmani, V. Barone, 
 G. A. Petersson, H. Nakatsuji, X. Li, M. Caricato, A. V. Marenich, 
 J. Bloino, B. G. Janesko, R. Gomperts, B. Mennucci, H. P. Hratchian, 
 J. V. Ortiz, A. F. Izmaylov, J. L. Sonnenberg, D. Williams-Young, 
 F. Ding, F. Lipparini, F. Egidi, J. Goings, B. Peng, A. Petrone, 
 T. Henderson, D. Ranasinghe, V. G. Zakrzewski, J. Gao, N. Rega, 
 G. Zheng, W. Liang, M. Hada, M. Ehara, K. Toyota, R. Fukuda, 
 J. Hasegawa, M. Ishida, T. Nakajima, Y. Honda, O. Kitao, H. Nakai, 
 T. Vreven, K. Throssell, J. A. Montgomery, Jr., J. E. Peralta, 
 F. Ogliaro, M. J. Bearpark, J. J. Heyd, E. N. Brothers, K. N. Kudin, 
 V. N. Staroverov, T. A. Keith, R. Kobayashi, J. Normand, 
 K. Raghavachari, A. P. Rendell, J. C. Burant, S. S. Iyengar, 
 J. Tomasi, M. Cossi, J. M. Millam, M. Klene, C. Adamo, R. Cammi, 
 J. W. Ochterski, R. L. Martin, K. Morokuma, O. Farkas, 
 J. B. Foresman, and D. J. Fox, Gaussian, Inc., Wallingford CT, 2016.
 
 ******************************************
 Gaussian 16:  ES64L-G16RevA.03 25-Dec-2016
                10-Sep-2021 
 ******************************************
 %nproc=24
 Will use up to   24 processors via shared memory.
 %mem=175gb
 -----------------------------------
 #p cam-b3lyp/Def2SVP td=(nstates=5)
 -----------------------------------
 1/38=1,172=1/1;
 2/12=2,17=6,18=5,40=1/2;
 3/5=43,7=101,11=9,25=1,30=1,74=-40/1,2,3,8;
 4//1;
 5/5=2,38=5/2;
 8/6=1,10=1,108=5/1;
 9/41=5,42=1,70=2/14;
 6/7=2,8=2,9=2,10=2/1;
 99/5=1,9=1/99;
 Leave Link    1 at Fri Sep 10 08:04:05 2021, MaxMem= 23488102400 cpu:               0.8 elap:               0.0
 (Enter /sw/apps/gaussian-16.0/g16/l101.exe)
 --------------------------------
 TDDFT excited states in gaussian
 --------------------------------
 Symbolic Z-matrix:
 Charge =  0 Multiplicity = 1
 Mg                    0.        0.        0. 
 C                    -0.217    -2.218     2.801 
 C                    -1.255     2.442     2.026 
 C                    -0.245     1.85     -2.564 
 C                     0.146    -2.824    -2.037 
 N                    -0.617    -0.009     2.126 
 C                    -0.594    -0.908     3.105 
 C                    -0.936    -0.309     4.502 
 C                    -1.773     0.964     4.032 
 C                    -1.155     1.168     2.66 
 C                    -3.263     0.685     3.863 
 C                     0.345     0.11      5.299 
 C                     0.124     0.397     6.787 
 H                     1.168     0.033     7.733 
 N                    -0.185     1.961    -0.152 
 C                    -0.703     2.8       0.777 
 C                    -0.62      4.156     0.193 
 C                    -0.187     4.015    -1.225 
 C                    -0.214     2.583    -1.38 
 C                    -0.887     5.406     0.974 
 C                     0.181     5.013    -2.277 
 O                     0.303     4.69     -3.508 
 C                     0.31      6.414    -1.837 
 N                    -0.265    -0.413    -2.029 
 C                    -0.279     0.569    -2.937 
 C                    -0.196     0.024    -4.332 
 C                     0.124    -1.533    -4.18 
 C                     0.086    -1.632    -2.635 
 C                    -1.451     0.205    -5.197 
 C                     1.373    -2.07     -4.923 
 C                     2.626    -1.49     -4.306 
 N                     0.15     -2.144     0.303 
 C                     0.173    -3.136    -0.688 
 C                     0.173    -4.438     0.004 
 C                     0.133    -4.111     1.358 
 C                     0.083    -2.695     1.502 
 C                     0.149    -5.715    -0.623 
 C                     0.096    -4.629     2.716 
 O                     0.208    -5.747     3.221 
 C                    -0.255    -3.428     3.701 
 C                     0.717    -3.482     4.848 
 O                     1.931    -3.255     4.669 
 O                     0.038    -3.556     6.003 
 C                     0.943    -3.583     7.183 
 H                    -1.859     3.22      2.497 
 H                    -0.218     2.453    -3.474 
 H                     0.276    -3.747    -2.605 
 H                    -1.554    -0.949     5.132 
 H                    -1.585     1.831     4.665 
 H                    -3.484    -0.377     3.969 
 H                    -3.511     1.027     2.858 
 H                    -3.852     1.301     4.543 
 H                     0.669     1.096     4.966 
 H                     1.13     -0.639     5.189 
 H                    -0.844     0.026     7.125 
 H                     0.062     1.477     6.921 
 H                    -1.344     5.186     1.938 
 H                    -1.651     5.963     0.432 
 H                     0.007     6.02      1.084 
 H                    -0.635     6.744    -1.405 
 H                     0.665     6.97     -2.704 
 H                     1.048     6.466    -1.036 
 H                     0.608     0.501    -4.891 
 H                    -0.692    -2.156    -4.547 
 H                    -1.267     0.74     -6.129 
 H                    -2.204     0.714    -4.596 
 H                    -1.967    -0.72     -5.453 
 H                     1.356    -1.759    -5.967 
 H                     1.452    -3.157    -4.902 
 H                     2.714    -0.522    -4.798 
 H                     3.487    -2.121    -4.529 
 H                     2.495    -1.303    -3.24 
 H                     0.867    -6.333    -0.084 
 H                     0.404    -5.642    -1.68 
 H                    -0.891    -5.999    -0.463 
 H                    -1.283    -3.581     4.028 
 H                     0.698    -4.478     7.755 
 H                     0.833    -2.619     7.68 
 H                     2.       -3.754     6.976 
 Mg                    8.92851   0.81117   0.68441 
 C                     11.16149   1.42961   3.42492 
 C                     6.67828  -0.34308   2.97325 
 C                     7.1183   -0.1614   -1.73317 
 C                     11.70331   0.9254   -1.42109 
 N                     9.0234    0.61905   2.88585 
 C                     9.89926   0.9436    3.82493 
 C                     9.36485   0.81125   5.27629 
 C                     8.20762  -0.26955   5.0088 
 C                     7.92038   0.03817   3.54065 
 C                     8.69129  -1.70663   5.10983 
 C                     8.77649   2.15965   5.82189 
 C                     8.5207    2.18598   7.33041 
 H                     8.73889   3.43686   8.05164 
 N                     6.99992   0.34627   0.63 
 C                     6.23715  -0.08329   1.6571 
 C                     4.8957   -0.30673   1.09606 
 C                     4.96948  -0.1318   -0.37997 
 C                     6.40098   0.00706  -0.55774 
 C                     3.69019  -0.57183   1.95039 
 C                     3.92567  -0.10789  -1.45519 
 O                     4.23602  -0.18066  -2.69665 
 C                     2.52497  -0.09097  -1.00884 
 N                     9.36988   0.2256   -1.26101 
 C                     8.39132  -0.09902  -2.12412 
 C                     8.9234   -0.21815  -3.53234 
 C                     10.42342   0.3332   -3.47292 
 C                     10.53347   0.60437  -1.95643 
 C                     8.92221  -1.62624  -4.12703 
 C                     10.79232   1.47696  -4.457 
 C                     10.04485   2.73769  -4.08654 
 N                     11.02246   1.29968   0.89601 
 C                     12.01399   1.25723  -0.10856 
 C                     13.30522   1.56256   0.54101 
 C                     12.97602   1.74023   1.89325 
 C                     11.58137   1.53858   2.07711 
 C                     14.57347   1.59705  -0.10433 
 C                     13.49284   2.04205   3.20873 
 O                     14.58635   2.38788   3.65414 
 C                     12.36104   1.72999   4.28019 
 C                     12.27573   2.90113   5.22022 
 O                     11.89941   4.01369   4.81131 
 O                     12.44174   2.46596   6.48253 
 C                     12.35433   3.58976   7.45271 
 H                     5.99091  -0.93435   3.57889 
 H                     6.52288  -0.38895  -2.62039 
 H                     12.60018   1.07645  -2.02565 
 H                     10.0804   0.42092   5.99001 
 H                     7.33091  -0.06877   5.61907 
 H                     9.76309  -1.76357   5.22881 
 H                     8.38702  -2.18492   4.18804 
 H                     8.15861  -2.22827   5.91013 
 H                     7.74863   2.27628   5.45497 
 H                     9.4014    2.98697   5.54684 
 H                     9.0141    1.35357   7.84674 
 H                     7.45549   2.01589   7.50478 
 H                     3.9734   -0.80779   2.9836 
 H                     3.23045  -1.4935    1.57753 
 H                     2.95482   0.23418   1.90294 
 H                     2.33106  -0.96709  -0.39462 
 H                     1.92984   0.01543  -1.9179 
 H                     2.37302   0.78361  -0.36647 
 H                     8.35      0.39618  -4.21566 
 H                     11.15618  -0.45344  -3.70548 
 H                     8.3569   -1.69908  -5.07528 
 H                     8.51817  -2.30764  -3.39015 
 H                     9.90766  -2.04845  -4.3163 
 H                     10.48086   1.2184   -5.47203 
 H                     11.85527   1.69138  -4.49107 
 H                     9.06932   2.59459  -4.56083 
 H                     10.5521   3.61453  -4.48389 
 H                     9.88011   2.79391  -3.00425 
 H                     15.08877   2.47228   0.26841 
 H                     14.46806   1.62771  -1.18679 
 H                     14.99362   0.64844   0.24048 
 H                     12.64238   0.81092   4.79568 
 H                     13.2773   3.5768    8.04063 
 H                     11.40564   3.43793   8.00106 
 H                     12.37107   4.59771   7.05496 
 
 ITRead=  0  0  0  0  0  0  0  0  0  0  0  0  0  0  0  0  0  0  0  0
 ITRead=  0  0  0  0  0  0  0  0  0  0  0  0  0  0  0  0  0  0  0  0
 ITRead=  0  0  0  0  0  0  0  0  0  0  0  0  0  0  0  0  0  0  0  0
 ITRead=  0  0  0  0  0  0  0  0  0  0  0  0  0  0  0  0  0  0  0  0
 ITRead=  0  0  0  0  0  0  0  0  0  0  0  0  0  0  0  0  0  0  0  0
 ITRead=  0  0  0  0  0  0  0  0  0  0  0  0  0  0  0  0  0  0  0  0
 ITRead=  0  0  0  0  0  0  0  0  0  0  0  0  0  0  0  0  0  0  0  0
 ITRead=  0  0  0  0  0  0  0  0  0  0  0  0  0  0  0  0  0  0
 MicOpt= -1 -1 -1 -1 -1 -1 -1 -1 -1 -1 -1 -1 -1 -1 -1 -1 -1 -1 -1 -1
 MicOpt= -1 -1 -1 -1 -1 -1 -1 -1 -1 -1 -1 -1 -1 -1 -1 -1 -1 -1 -1 -1
 MicOpt= -1 -1 -1 -1 -1 -1 -1 -1 -1 -1 -1 -1 -1 -1 -1 -1 -1 -1 -1 -1
 MicOpt= -1 -1 -1 -1 -1 -1 -1 -1 -1 -1 -1 -1 -1 -1 -1 -1 -1 -1 -1 -1
 MicOpt= -1 -1 -1 -1 -1 -1 -1 -1 -1 -1 -1 -1 -1 -1 -1 -1 -1 -1 -1 -1
 MicOpt= -1 -1 -1 -1 -1 -1 -1 -1 -1 -1 -1 -1 -1 -1 -1 -1 -1 -1 -1 -1
 MicOpt= -1 -1 -1 -1 -1 -1 -1 -1 -1 -1 -1 -1 -1 -1 -1 -1 -1 -1 -1 -1
 MicOpt= -1 -1 -1 -1 -1 -1 -1 -1 -1 -1 -1 -1 -1 -1 -1 -1 -1 -1
 NAtoms=    158 NQM=      158 NQMF=       0 NMMI=      0 NMMIF=      0
                NMic=       0 NMicF=      0.
                    Isotopes and Nuclear Properties:
 (Nuclear quadrupole moments (NQMom) in fm**2, nuclear magnetic moments (NMagM)
  in nuclear magnetons)

  Atom         1           2           3           4           5           6           7           8           9          10
 IAtWgt=          24          12          12          12          12          14          12          12          12          12
 AtmWgt=  23.9850450  12.0000000  12.0000000  12.0000000  12.0000000  14.0030740  12.0000000  12.0000000  12.0000000  12.0000000
 NucSpn=           0           0           0           0           0           2           0           0           0           0
 AtZEff=  -0.0000000  -0.0000000  -0.0000000  -0.0000000  -0.0000000  -0.0000000  -0.0000000  -0.0000000  -0.0000000  -0.0000000
 NQMom=    0.0000000   0.0000000   0.0000000   0.0000000   0.0000000   2.0440000   0.0000000   0.0000000   0.0000000   0.0000000
 NMagM=    0.0000000   0.0000000   0.0000000   0.0000000   0.0000000   0.4037610   0.0000000   0.0000000   0.0000000   0.0000000
 AtZNuc=  12.0000000   6.0000000   6.0000000   6.0000000   6.0000000   7.0000000   6.0000000   6.0000000   6.0000000   6.0000000

  Atom        11          12          13          14          15          16          17          18          19          20
 IAtWgt=          12          12          12           1          14          12          12          12          12          12
 AtmWgt=  12.0000000  12.0000000  12.0000000   1.0078250  14.0030740  12.0000000  12.0000000  12.0000000  12.0000000  12.0000000
 NucSpn=           0           0           0           1           2           0           0           0           0           0
 AtZEff=  -0.0000000  -0.0000000  -0.0000000  -0.0000000  -0.0000000  -0.0000000  -0.0000000  -0.0000000  -0.0000000  -0.0000000
 NQMom=    0.0000000   0.0000000   0.0000000   0.0000000   2.0440000   0.0000000   0.0000000   0.0000000   0.0000000   0.0000000
 NMagM=    0.0000000   0.0000000   0.0000000   2.7928460   0.4037610   0.0000000   0.0000000   0.0000000   0.0000000   0.0000000
 AtZNuc=   6.0000000   6.0000000   6.0000000   1.0000000   7.0000000   6.0000000   6.0000000   6.0000000   6.0000000   6.0000000

  Atom        21          22          23          24          25          26          27          28          29          30
 IAtWgt=          12          16          12          14          12          12          12          12          12          12
 AtmWgt=  12.0000000  15.9949146  12.0000000  14.0030740  12.0000000  12.0000000  12.0000000  12.0000000  12.0000000  12.0000000
 NucSpn=           0           0           0           2           0           0           0           0           0           0
 AtZEff=  -0.0000000  -0.0000000  -0.0000000  -0.0000000  -0.0000000  -0.0000000  -0.0000000  -0.0000000  -0.0000000  -0.0000000
 NQMom=    0.0000000   0.0000000   0.0000000   2.0440000   0.0000000   0.0000000   0.0000000   0.0000000   0.0000000   0.0000000
 NMagM=    0.0000000   0.0000000   0.0000000   0.4037610   0.0000000   0.0000000   0.0000000   0.0000000   0.0000000   0.0000000
 AtZNuc=   6.0000000   8.0000000   6.0000000   7.0000000   6.0000000   6.0000000   6.0000000   6.0000000   6.0000000   6.0000000

  Atom        31          32          33          34          35          36          37          38          39          40
 IAtWgt=          12          14          12          12          12          12          12          12          16          12
 AtmWgt=  12.0000000  14.0030740  12.0000000  12.0000000  12.0000000  12.0000000  12.0000000  12.0000000  15.9949146  12.0000000
 NucSpn=           0           2           0           0           0           0           0           0           0           0
 AtZEff=  -0.0000000  -0.0000000  -0.0000000  -0.0000000  -0.0000000  -0.0000000  -0.0000000  -0.0000000  -0.0000000  -0.0000000
 NQMom=    0.0000000   2.0440000   0.0000000   0.0000000   0.0000000   0.0000000   0.0000000   0.0000000   0.0000000   0.0000000
 NMagM=    0.0000000   0.4037610   0.0000000   0.0000000   0.0000000   0.0000000   0.0000000   0.0000000   0.0000000   0.0000000
 AtZNuc=   6.0000000   7.0000000   6.0000000   6.0000000   6.0000000   6.0000000   6.0000000   6.0000000   8.0000000   6.0000000

  Atom        41          42          43          44          45          46          47          48          49          50
 IAtWgt=          12          16          16          12           1           1           1           1           1           1
 AtmWgt=  12.0000000  15.9949146  15.9949146  12.0000000   1.0078250   1.0078250   1.0078250   1.0078250   1.0078250   1.0078250
 NucSpn=           0           0           0           0           1           1           1           1           1           1
 AtZEff=  -0.0000000  -0.0000000  -0.0000000  -0.0000000  -0.0000000  -0.0000000  -0.0000000  -0.0000000  -0.0000000  -0.0000000
 NQMom=    0.0000000   0.0000000   0.0000000   0.0000000   0.0000000   0.0000000   0.0000000   0.0000000   0.0000000   0.0000000
 NMagM=    0.0000000   0.0000000   0.0000000   0.0000000   2.7928460   2.7928460   2.7928460   2.7928460   2.7928460   2.7928460
 AtZNuc=   6.0000000   8.0000000   8.0000000   6.0000000   1.0000000   1.0000000   1.0000000   1.0000000   1.0000000   1.0000000

  Atom        51          52          53          54          55          56          57          58          59          60
 IAtWgt=           1           1           1           1           1           1           1           1           1           1
 AtmWgt=   1.0078250   1.0078250   1.0078250   1.0078250   1.0078250   1.0078250   1.0078250   1.0078250   1.0078250   1.0078250
 NucSpn=           1           1           1           1           1           1           1           1           1           1
 AtZEff=  -0.0000000  -0.0000000  -0.0000000  -0.0000000  -0.0000000  -0.0000000  -0.0000000  -0.0000000  -0.0000000  -0.0000000
 NQMom=    0.0000000   0.0000000   0.0000000   0.0000000   0.0000000   0.0000000   0.0000000   0.0000000   0.0000000   0.0000000
 NMagM=    2.7928460   2.7928460   2.7928460   2.7928460   2.7928460   2.7928460   2.7928460   2.7928460   2.7928460   2.7928460
 AtZNuc=   1.0000000   1.0000000   1.0000000   1.0000000   1.0000000   1.0000000   1.0000000   1.0000000   1.0000000   1.0000000

  Atom        61          62          63          64          65          66          67          68          69          70
 IAtWgt=           1           1           1           1           1           1           1           1           1           1
 AtmWgt=   1.0078250   1.0078250   1.0078250   1.0078250   1.0078250   1.0078250   1.0078250   1.0078250   1.0078250   1.0078250
 NucSpn=           1           1           1           1           1           1           1           1           1           1
 AtZEff=  -0.0000000  -0.0000000  -0.0000000  -0.0000000  -0.0000000  -0.0000000  -0.0000000  -0.0000000  -0.0000000  -0.0000000
 NQMom=    0.0000000   0.0000000   0.0000000   0.0000000   0.0000000   0.0000000   0.0000000   0.0000000   0.0000000   0.0000000
 NMagM=    2.7928460   2.7928460   2.7928460   2.7928460   2.7928460   2.7928460   2.7928460   2.7928460   2.7928460   2.7928460
 AtZNuc=   1.0000000   1.0000000   1.0000000   1.0000000   1.0000000   1.0000000   1.0000000   1.0000000   1.0000000   1.0000000

  Atom        71          72          73          74          75          76          77          78          79          80
 IAtWgt=           1           1           1           1           1           1           1           1           1          24
 AtmWgt=   1.0078250   1.0078250   1.0078250   1.0078250   1.0078250   1.0078250   1.0078250   1.0078250   1.0078250  23.9850450
 NucSpn=           1           1           1           1           1           1           1           1           1           0
 AtZEff=  -0.0000000  -0.0000000  -0.0000000  -0.0000000  -0.0000000  -0.0000000  -0.0000000  -0.0000000  -0.0000000  -0.0000000
 NQMom=    0.0000000   0.0000000   0.0000000   0.0000000   0.0000000   0.0000000   0.0000000   0.0000000   0.0000000   0.0000000
 NMagM=    2.7928460   2.7928460   2.7928460   2.7928460   2.7928460   2.7928460   2.7928460   2.7928460   2.7928460   0.0000000
 AtZNuc=   1.0000000   1.0000000   1.0000000   1.0000000   1.0000000   1.0000000   1.0000000   1.0000000   1.0000000  12.0000000

  Atom        81          82          83          84          85          86          87          88          89          90
 IAtWgt=          12          12          12          12          14          12          12          12          12          12
 AtmWgt=  12.0000000  12.0000000  12.0000000  12.0000000  14.0030740  12.0000000  12.0000000  12.0000000  12.0000000  12.0000000
 NucSpn=           0           0           0           0           2           0           0           0           0           0
 AtZEff=  -0.0000000  -0.0000000  -0.0000000  -0.0000000  -0.0000000  -0.0000000  -0.0000000  -0.0000000  -0.0000000  -0.0000000
 NQMom=    0.0000000   0.0000000   0.0000000   0.0000000   2.0440000   0.0000000   0.0000000   0.0000000   0.0000000   0.0000000
 NMagM=    0.0000000   0.0000000   0.0000000   0.0000000   0.4037610   0.0000000   0.0000000   0.0000000   0.0000000   0.0000000
 AtZNuc=   6.0000000   6.0000000   6.0000000   6.0000000   7.0000000   6.0000000   6.0000000   6.0000000   6.0000000   6.0000000

  Atom        91          92          93          94          95          96          97          98          99         100
 IAtWgt=          12          12           1          14          12          12          12          12          12          12
 AtmWgt=  12.0000000  12.0000000   1.0078250  14.0030740  12.0000000  12.0000000  12.0000000  12.0000000  12.0000000  12.0000000
 NucSpn=           0           0           1           2           0           0           0           0           0           0
 AtZEff=  -0.0000000  -0.0000000  -0.0000000  -0.0000000  -0.0000000  -0.0000000  -0.0000000  -0.0000000  -0.0000000  -0.0000000
 NQMom=    0.0000000   0.0000000   0.0000000   2.0440000   0.0000000   0.0000000   0.0000000   0.0000000   0.0000000   0.0000000
 NMagM=    0.0000000   0.0000000   2.7928460   0.4037610   0.0000000   0.0000000   0.0000000   0.0000000   0.0000000   0.0000000
 AtZNuc=   6.0000000   6.0000000   1.0000000   7.0000000   6.0000000   6.0000000   6.0000000   6.0000000   6.0000000   6.0000000

  Atom       101         102         103         104         105         106         107         108         109         110
 IAtWgt=          16          12          14          12          12          12          12          12          12          12
 AtmWgt=  15.9949146  12.0000000  14.0030740  12.0000000  12.0000000  12.0000000  12.0000000  12.0000000  12.0000000  12.0000000
 NucSpn=           0           0           2           0           0           0           0           0           0           0
 AtZEff=  -0.0000000  -0.0000000  -0.0000000  -0.0000000  -0.0000000  -0.0000000  -0.0000000  -0.0000000  -0.0000000  -0.0000000
 NQMom=    0.0000000   0.0000000   2.0440000   0.0000000   0.0000000   0.0000000   0.0000000   0.0000000   0.0000000   0.0000000
 NMagM=    0.0000000   0.0000000   0.4037610   0.0000000   0.0000000   0.0000000   0.0000000   0.0000000   0.0000000   0.0000000
 AtZNuc=   8.0000000   6.0000000   7.0000000   6.0000000   6.0000000   6.0000000   6.0000000   6.0000000   6.0000000   6.0000000

  Atom       111         112         113         114         115         116         117         118         119         120
 IAtWgt=          14          12          12          12          12          12          12          16          12          12
 AtmWgt=  14.0030740  12.0000000  12.0000000  12.0000000  12.0000000  12.0000000  12.0000000  15.9949146  12.0000000  12.0000000
 NucSpn=           2           0           0           0           0           0           0           0           0           0
 AtZEff=  -0.0000000  -0.0000000  -0.0000000  -0.0000000  -0.0000000  -0.0000000  -0.0000000  -0.0000000  -0.0000000  -0.0000000
 NQMom=    2.0440000   0.0000000   0.0000000   0.0000000   0.0000000   0.0000000   0.0000000   0.0000000   0.0000000   0.0000000
 NMagM=    0.4037610   0.0000000   0.0000000   0.0000000   0.0000000   0.0000000   0.0000000   0.0000000   0.0000000   0.0000000
 AtZNuc=   7.0000000   6.0000000   6.0000000   6.0000000   6.0000000   6.0000000   6.0000000   8.0000000   6.0000000   6.0000000

  Atom       121         122         123         124         125         126         127         128         129         130
 IAtWgt=          16          16          12           1           1           1           1           1           1           1
 AtmWgt=  15.9949146  15.9949146  12.0000000   1.0078250   1.0078250   1.0078250   1.0078250   1.0078250   1.0078250   1.0078250
 NucSpn=           0           0           0           1           1           1           1           1           1           1
 AtZEff=  -0.0000000  -0.0000000  -0.0000000  -0.0000000  -0.0000000  -0.0000000  -0.0000000  -0.0000000  -0.0000000  -0.0000000
 NQMom=    0.0000000   0.0000000   0.0000000   0.0000000   0.0000000   0.0000000   0.0000000   0.0000000   0.0000000   0.0000000
 NMagM=    0.0000000   0.0000000   0.0000000   2.7928460   2.7928460   2.7928460   2.7928460   2.7928460   2.7928460   2.7928460
 AtZNuc=   8.0000000   8.0000000   6.0000000   1.0000000   1.0000000   1.0000000   1.0000000   1.0000000   1.0000000   1.0000000

  Atom       131         132         133         134         135         136         137         138         139         140
 IAtWgt=           1           1           1           1           1           1           1           1           1           1
 AtmWgt=   1.0078250   1.0078250   1.0078250   1.0078250   1.0078250   1.0078250   1.0078250   1.0078250   1.0078250   1.0078250
 NucSpn=           1           1           1           1           1           1           1           1           1           1
 AtZEff=  -0.0000000  -0.0000000  -0.0000000  -0.0000000  -0.0000000  -0.0000000  -0.0000000  -0.0000000  -0.0000000  -0.0000000
 NQMom=    0.0000000   0.0000000   0.0000000   0.0000000   0.0000000   0.0000000   0.0000000   0.0000000   0.0000000   0.0000000
 NMagM=    2.7928460   2.7928460   2.7928460   2.7928460   2.7928460   2.7928460   2.7928460   2.7928460   2.7928460   2.7928460
 AtZNuc=   1.0000000   1.0000000   1.0000000   1.0000000   1.0000000   1.0000000   1.0000000   1.0000000   1.0000000   1.0000000

  Atom       141         142         143         144         145         146         147         148         149         150
 IAtWgt=           1           1           1           1           1           1           1           1           1           1
 AtmWgt=   1.0078250   1.0078250   1.0078250   1.0078250   1.0078250   1.0078250   1.0078250   1.0078250   1.0078250   1.0078250
 NucSpn=           1           1           1           1           1           1           1           1           1           1
 AtZEff=  -0.0000000  -0.0000000  -0.0000000  -0.0000000  -0.0000000  -0.0000000  -0.0000000  -0.0000000  -0.0000000  -0.0000000
 NQMom=    0.0000000   0.0000000   0.0000000   0.0000000   0.0000000   0.0000000   0.0000000   0.0000000   0.0000000   0.0000000
 NMagM=    2.7928460   2.7928460   2.7928460   2.7928460   2.7928460   2.7928460   2.7928460   2.7928460   2.7928460   2.7928460
 AtZNuc=   1.0000000   1.0000000   1.0000000   1.0000000   1.0000000   1.0000000   1.0000000   1.0000000   1.0000000   1.0000000

  Atom       151         152         153         154         155         156         157         158
 IAtWgt=           1           1           1           1           1           1           1           1
 AtmWgt=   1.0078250   1.0078250   1.0078250   1.0078250   1.0078250   1.0078250   1.0078250   1.0078250
 NucSpn=           1           1           1           1           1           1           1           1
 AtZEff=  -0.0000000  -0.0000000  -0.0000000  -0.0000000  -0.0000000  -0.0000000  -0.0000000  -0.0000000
 NQMom=    0.0000000   0.0000000   0.0000000   0.0000000   0.0000000   0.0000000   0.0000000   0.0000000
 NMagM=    2.7928460   2.7928460   2.7928460   2.7928460   2.7928460   2.7928460   2.7928460   2.7928460
 AtZNuc=   1.0000000   1.0000000   1.0000000   1.0000000   1.0000000   1.0000000   1.0000000   1.0000000
 Leave Link  101 at Fri Sep 10 08:04:06 2021, MaxMem= 23488102400 cpu:               3.9 elap:               0.2
 (Enter /sw/apps/gaussian-16.0/g16/l202.exe)
 Stoichiometry    C68H72Mg2N8O8
 Framework group  C1[X(C68H72Mg2N8O8)]
 Deg. of freedom   468
 Full point group                 C1      NOp   1
 Largest Abelian subgroup         C1      NOp   1
 Largest concise Abelian subgroup C1      NOp   1
                         Standard orientation:                         
 ---------------------------------------------------------------------
 Center     Atomic      Atomic             Coordinates (Angstroms)
 Number     Number       Type             X           Y           Z
 ---------------------------------------------------------------------
      1         12           0        4.688100   -0.381516    0.488350
      2          6           0        4.852501    2.700920   -1.323769
      3          6           0        5.203458    1.434309    3.330927
      4          6           0        5.000082   -3.122367    2.052647
      5          6           0        5.319002   -2.015632   -2.524504
      6          7           0        4.974886    1.786611    0.831311
      7          6           0        4.956610    2.868376    0.058897
      8          6           0        4.982484    4.202404    0.863305
      9          6           0        5.656238    3.672661    2.207711
     10          6           0        5.223880    2.218585    2.139489
     11          6           0        7.180222    3.733280    2.190391
     12          6           0        3.545524    4.766128    1.126162
     13          6           0        3.491882    6.216870    1.613835
     14          1           0        2.394185    7.063931    1.172362
     15          7           0        4.564444   -0.775304    2.420315
     16          6           0        4.791497    0.088399    3.439015
     17          6           0        4.571603   -0.681110    4.682472
     18          6           0        4.383873   -2.109846    4.306221
     19          6           0        4.671728   -2.063118    2.895429
     20          6           0        4.507551   -0.050720    6.039769
     21          6           0        4.015387   -3.326336    5.095209
     22          8           0        4.133310   -4.507127    4.619393
     23          6           0        3.590890   -3.101721    6.488907
     24          7           0        5.316906   -2.285085   -0.093600
     25          6           0        5.302029   -3.309567    0.766167
     26          6           0        5.519326   -4.616231    0.062356
     27          6           0        5.444107   -4.294710   -1.499924
     28          6           0        5.267893   -2.758399   -1.416464
     29          6           0        6.841129   -5.332011    0.373013
     30          6           0        4.426552   -5.109422   -2.337328
     31          6           0        3.016838   -4.740998   -1.932273
     32          7           0        4.853895    0.190056   -1.598960
     33          6           0        5.144047   -0.651024   -2.682966
     34          6           0        5.257983    0.206717   -3.876854
     35          6           0        5.041174    1.497434   -3.398430
     36          6           0        4.832676    1.451828   -1.990332
     37          6           0        5.587287   -0.231853   -5.189733
     38          6           0        4.961573    2.907121   -3.745276
     39          8           0        4.963500    3.541826   -4.801041
     40          6           0        4.957227    3.755265   -2.397516
     41          6           0        3.848196    4.766579   -2.500495
     42          8           0        2.653653    4.406076   -2.522187
     43          8           0        4.350631    5.997412   -2.318423
     44          6           0        3.297506    7.045940   -2.379014
     45          1           0        5.592604    1.867238    4.254550
     46          1           0        5.008656   -4.102234    2.534544
     47          1           0        5.430463   -2.464075   -3.513407
     48          1           0        5.597789    4.987011    0.422606
     49          1           0        5.234464    4.152375    3.090719
     50          1           0        7.556748    4.010453    1.205849
     51          1           0        7.514448    2.730525    2.457351
     52          1           0        7.550648    4.391783    2.976480
     53          1           0        3.115010    4.263271    1.992103
     54          1           0        2.921437    4.661021    0.238022
     55          1           0        4.446973    6.722131    1.467476
     56          1           0        3.352526    6.208853    2.694906
     57          1           0        4.846307    0.984302    6.017028
     58          1           0        5.240098   -0.562642    6.663484
     59          1           0        3.517505   -0.139644    6.487242
     60          1           0        4.392839   -2.602765    7.033398
     61          1           0        3.281178   -4.074427    6.869394
     62          1           0        2.743750   -2.415223    6.493706
     63          1           0        4.739304   -5.332352    0.317625
     64          1           0        6.397837   -4.466933   -1.999335
     65          1           0        6.711263   -6.344073    0.757162
     66          1           0        7.400982   -4.715758    1.075926
     67          1           0        7.536222   -5.391888   -0.464052
     68          1           0        4.546572   -6.175493   -2.147501
     69          1           0        4.527454   -4.950311   -3.410992
     70          1           0        2.843008   -5.367751   -1.058319
     71          1           0        2.315820   -4.982865   -2.731826
     72          1           0        2.954874   -3.702606   -1.606100
     73          1           0        4.910184    0.291275   -5.864891
     74          1           0        5.483742   -1.312608   -5.283808
     75          1           0        6.624540    0.095749   -5.257837
     76          1           0        5.936133    4.227535   -2.321187
     77          1           0        3.600319    7.761190   -3.143837
     78          1           0        3.170279    7.416493   -1.361709
     79          1           0        2.326447    6.732158   -2.763623
     80         12           0       -4.251897   -0.949743   -0.285132
     81          6           0       -6.939023    1.375790    0.215183
     82          6           0       -2.206590    1.741487   -0.741873
     83          6           0       -1.965913   -2.963123   -1.172839
     84          6           0       -6.662589   -3.385164   -0.919942
     85          7           0       -4.639752    1.227431   -0.243484
     86          6           0       -5.687195    1.994920    0.017584
     87          6           0       -5.360052    3.506603    0.149293
     88          6           0       -4.012259    3.537863   -0.723255
     89          6           0       -3.565203    2.089706   -0.534457
     90          6           0       -4.259410    3.772213   -2.204247
     91          6           0       -5.092239    3.932935    1.635411
     92          6           0       -5.071609    5.443846    1.877231
     93          1           0       -5.599862    5.953992    3.139443
     94          7           0       -2.286474   -0.695645   -0.390472
     95          6           0       -1.624149    0.468693   -0.554539
     96          6           0       -0.195922    0.117740   -0.588863
     97          6           0       -0.077486   -1.365707   -0.597027
     98          6           0       -1.469543   -1.740486   -0.744660
     99          6           0        0.896269    1.145892   -0.530255
    100          6           0        1.095880   -2.293298   -0.502178
    101          8           0        0.990089   -3.542381   -0.769455
    102          6           0        2.392032   -1.679812   -0.177988
    103          7           0       -4.295319   -2.837010   -1.156164
    104          6           0       -3.159053   -3.516852   -1.389896
    105          6           0       -3.448459   -4.951505   -1.761919
    106          6           0       -5.011273   -5.158256   -1.492765
    107          6           0       -5.389209   -3.719253   -1.078251
    108          6           0       -3.124362   -5.343310   -3.203385
    109          6           0       -5.415011   -6.328037   -0.553992
    110          6           0       -4.951461   -6.041672    0.856153
    111          7           0       -6.405813   -1.073552   -0.169537
    112          6           0       -7.215864   -2.180229   -0.505954
    113          6           0       -8.621942   -1.747125   -0.372503
    114          6           0       -8.531720   -0.401143    0.013094
    115          6           0       -7.166032   -0.016467    0.093314
    116          6           0       -9.767960   -2.546382   -0.644428
    117          6           0       -9.281373    0.784703    0.360190
    118          8           0      -10.471107    1.036707    0.546678
    119          6           0       -8.285498    2.023275    0.383716
    120          6           0       -8.537168    2.797692    1.648406
    121          8           0       -8.294829    2.291588    2.758247
    122          8           0       -8.814220    4.076359    1.334381
    123          6           0       -9.060442    4.887131    2.556608
    124          1           0       -1.528159    2.504282   -1.124957
    125          1           0       -1.215696   -3.728397   -1.384956
    126          1           0       -7.472078   -4.113279   -1.005161
    127          1           0       -6.098664    4.170607   -0.283508
    128          1           0       -3.281865    4.220979   -0.297533
    129          1           0       -5.312364    3.761258   -2.443664
    130          1           0       -3.746094    2.970379   -2.718647
    131          1           0       -3.772306    4.697178   -2.525973
    132          1           0       -4.055187    3.686573    1.897248
    133          1           0       -5.798258    3.470610    2.297541
    134          1           0       -5.490702    6.002409    1.031468
    135          1           0       -4.030889    5.773198    1.926610
    136          1           0        0.505866    2.157424   -0.696979
    137          1           0        1.553345    0.963624   -1.387512
    138          1           0        1.485898    1.082236    0.386783
    139          1           0        2.635623   -0.932125   -0.929041
    140          1           0        3.089597   -2.512196   -0.066495
    141          1           0        2.298971   -1.148909    0.776003
    142          1           0       -2.890234   -5.634225   -1.133116
    143          1           0       -5.559946   -5.372028   -2.421788
    144          1           0       -2.420186   -6.193489   -3.276801
    145          1           0       -2.726614   -4.475113   -3.711890
    146          1           0       -3.986477   -5.596304   -3.818160
    147          1           0       -4.917417   -7.250584   -0.862946
    148          1           0       -6.481773   -6.525311   -0.543942
    149          1           0       -3.906196   -6.364671    0.842698
    150          1           0       -5.532851   -6.616033    1.574577
    151          1           0       -4.961179   -4.965142    1.062647
    152          1           0      -10.471441   -2.364920    0.157247
    153          1           0       -9.509354   -3.600760   -0.716408
    154          1           0      -10.070794   -2.131198   -1.609412
    155          1           0       -8.483326    2.619685   -0.507761
    156          1           0      -10.045379    5.349741    2.440068
    157          1           0       -8.191953    5.566683    2.644297
    158          1           0       -9.185479    4.356541    3.493244
 ---------------------------------------------------------------------
 Rotational constants (GHZ):           0.0261954           0.0127177           0.0108468
 Leave Link  202 at Fri Sep 10 08:04:06 2021, MaxMem= 23488102400 cpu:               0.2 elap:               0.0
 (Enter /sw/apps/gaussian-16.0/g16/l301.exe)
 Standard basis: def2SVP (5D, 7F)
 Ernie: Thresh=  0.10000D-02 Tol=  0.10000D-05 Strict=F.
 There are  1658 symmetry adapted cartesian basis functions of A   symmetry.
 There are  1572 symmetry adapted basis functions of A   symmetry.
  1572 basis functions,  2678 primitive gaussians,  1658 cartesian basis functions
   312 alpha electrons      312 beta electrons
       nuclear repulsion energy     15798.7184522308 Hartrees.
 IExCor=20419 DFT=T Ex+Corr=CAM-B3LYP ExCW=0 ScaHFX=  1.000000
 ScaDFX=  1.000000  1.000000  1.000000  0.810000 ScalE2=  1.000000  1.000000
 IRadAn=      5 IRanWt=     -1 IRanGd=            0 ICorTp=0 IEmpDi=  4
 HFx  wShort=  0.000000 wLong=  0.330000 cFull=  0.190000 cShort=  0.000000 cLong=  0.460000
 DFx  wShort=  0.000000 wLong=  0.330000 cFull=  0.190000 cShort=  0.000000 cLong=  0.460000
 NAtoms=  158 NActive=  158 NUniq=  158 SFac= 1.00D+00 NAtFMM=   60 NAOKFM=T Big=T
 Integral buffers will be    131072 words long.
 Raffenetti 1 integral format.
 Two-electron integral symmetry is turned on.
 Leave Link  301 at Fri Sep 10 08:04:06 2021, MaxMem= 23488102400 cpu:               1.3 elap:               0.1
 (Enter /sw/apps/gaussian-16.0/g16/l302.exe)
 NPDir=0 NMtPBC=     1 NCelOv=     1 NCel=       1 NClECP=     1 NCelD=      1
         NCelK=      1 NCelE2=     1 NClLst=     1 CellRange=     0.0.
 One-electron integrals computed using PRISM.
 One-electron integral symmetry used in STVInt
   1 Symmetry operations used in ECPInt.
 ECPInt:  NShTT=  271216 NPrTT=  987664 LenC2=  153525 LenP2D=  326861.
 LDataN:  DoStor=T MaxTD1= 4 Len=   56
 NBasis=  1572 RedAO= T EigKep=  3.26D-04  NBF=  1572
 NBsUse=  1572 1.00D-06 EigRej= -1.00D+00 NBFU=  1572
 Precomputing XC quadrature grid using
 IXCGrd= 4 IRadAn=           5 IRanWt=          -1 IRanGd=           0 AccXCQ= 0.00D+00.
 Generated NRdTot=       0 NPtTot=           0 NUsed=           0 NTot=          32
 NSgBfM=  1556  1556  1556  1556  1556 MxSgAt=   158 MxSgA2=   158.
 Leave Link  302 at Fri Sep 10 08:04:11 2021, MaxMem= 23488102400 cpu:             133.5 elap:               5.6
 (Enter /sw/apps/gaussian-16.0/g16/l303.exe)
 DipDrv:  MaxL=1.
 Leave Link  303 at Fri Sep 10 08:04:12 2021, MaxMem= 23488102400 cpu:               8.7 elap:               0.4
 (Enter /sw/apps/gaussian-16.0/g16/l308.exe)
 Leave Link  308 at Fri Sep 10 08:04:13 2021, MaxMem= 23488102400 cpu:              14.8 elap:               0.7
 (Enter /sw/apps/gaussian-16.0/g16/l401.exe)
 ExpMin= 3.36D-02 ExpMax= 4.95D+03 ExpMxC= 7.45D+02 IAcc=3 IRadAn=         5 AccDes= 0.00D+00
 Harris functional with IExCor=20419 and IRadAn=       5 diagonalized for initial guess.
 HarFok:  IExCor=20419 AccDes= 0.00D+00 IRadAn=         5 IDoV= 1 UseB2=F ITyADJ=14
 ICtDFT=  3500011 ScaDFX=  1.000000  1.000000  1.000000  1.000000
 FoFCou: FMM=F IPFlag=           0 FMFlag=      100000 FMFlg1=        2001
         NFxFlg=           0 DoJE=T BraDBF=F KetDBF=T FulRan=T
         wScrn=  0.000000 ICntrl=       500 IOpCl=  0 I1Cent=   200000004 NGrid=           0
         NMat0=    1 NMatS0=      1 NMatT0=    0 NMatD0=    1 NMtDS0=    0 NMtDT0=    0
 Petite list used in FoFCou.
 Harris En= -3918.63731418947    
 JPrj=0 DoOrth=F DoCkMO=F.
 Leave Link  401 at Fri Sep 10 08:04:21 2021, MaxMem= 23488102400 cpu:             210.8 elap:               8.8
 (Enter /sw/apps/gaussian-16.0/g16/l502.exe)
 Integral symmetry usage will be decided dynamically.
 Closed shell SCF:
 Using DIIS extrapolation, IDIIS=  1040.
 NGot= 23488102400 LenX= 23482547354 LenY= 23479796732
 Requested convergence on RMS density matrix=1.00D-08 within 128 cycles.
 Requested convergence on MAX density matrix=1.00D-06.
 Requested convergence on             energy=1.00D-06.
 No special actions if energy rises.
 Fock matrices will be formed incrementally for  20 cycles.

 Cycle   1  Pass 1  IDiag  1:
 FoFJK:  IHMeth= 1 ICntrl=       0 DoSepK=T KAlg= 0 I1Cent=           0 FoldK=F
 IRaf=         1 NMat=       1 IRICut=       1 DoRegI=T DoRafI=F ISym2E= 0 IDoP0=0 IntGTp=1.
 FoFCou: FMM=T IPFlag=           0 FMFlag=      100000 FMFlg1=        2001
         NFxFlg=           0 DoJE=T BraDBF=F KetDBF=F FulRan=T
         wScrn=  0.000000 ICntrl=       500 IOpCl=  0 I1Cent=           0 NGrid=           0
         NMat0=    1 NMatS0=      1 NMatT0=    0 NMatD0=    1 NMtDS0=    0 NMtDT0=    0
 Symmetry not used in FoFCou.
 FMM levels:  10  Number of levels for PrismC:   9
 E= -4068.92921313095    
 DIIS: error= 2.13D-02 at cycle   1 NSaved=   1.
 NSaved= 1 IEnMin= 1 EnMin= -4068.92921313095     IErMin= 1 ErrMin= 2.13D-02
 ErrMax= 2.13D-02  0.00D+00 EMaxC= 1.00D-01 BMatC= 1.70D+00 BMatP= 1.70D+00
 IDIUse=3 WtCom= 7.87D-01 WtEn= 2.13D-01
 Coeff-Com:  0.100D+01
 Coeff-En:   0.100D+01
 Coeff:      0.100D+01
 Gap=     0.117 Goal=   None    Shift=    0.000
 GapD=    0.117 DampG=1.000 DampE=0.500 DampFc=0.5000 IDamp=-1.
 Damping current iteration by 5.00D-01
 RMSDP=1.63D-03 MaxDP=1.57D-01              OVMax= 2.05D-01

 Cycle   2  Pass 1  IDiag  1:
 RMSU=  7.96D-04    CP:  9.81D-01
 E= -4069.32281752538     Delta-E=       -0.393604394434 Rises=F Damp=T
 DIIS: error= 1.28D-02 at cycle   2 NSaved=   2.
 NSaved= 2 IEnMin= 2 EnMin= -4069.32281752538     IErMin= 2 ErrMin= 1.28D-02
 ErrMax= 1.28D-02  0.00D+00 EMaxC= 1.00D-01 BMatC= 3.08D-01 BMatP= 1.70D+00
 IDIUse=3 WtCom= 8.72D-01 WtEn= 1.28D-01
 Coeff-Com: -0.216D+00 0.122D+01
 Coeff-En:   0.000D+00 0.100D+01
 Coeff:     -0.188D+00 0.119D+01
 Gap=     0.135 Goal=   None    Shift=    0.000
 RMSDP=7.86D-04 MaxDP=9.39D-02 DE=-3.94D-01 OVMax= 2.02D-01

 Cycle   3  Pass 1  IDiag  1:
 RMSU=  7.46D-04    CP:  9.66D-01  1.26D+00
 E= -4069.61423395122     Delta-E=       -0.291416425833 Rises=F Damp=F
 DIIS: error= 1.44D-02 at cycle   3 NSaved=   3.
 NSaved= 3 IEnMin= 3 EnMin= -4069.61423395122     IErMin= 2 ErrMin= 1.28D-02
 ErrMax= 1.44D-02  0.00D+00 EMaxC= 1.00D-01 BMatC= 2.02D-01 BMatP= 3.08D-01
 IDIUse=3 WtCom= 8.56D-01 WtEn= 1.44D-01
 Coeff-Com: -0.266D+00 0.652D+00 0.614D+00
 Coeff-En:   0.000D+00 0.000D+00 0.100D+01
 Coeff:     -0.228D+00 0.558D+00 0.670D+00
 Gap=     0.121 Goal=   None    Shift=    0.000
 RMSDP=5.14D-04 MaxDP=5.09D-02 DE=-2.91D-01 OVMax= 1.53D-01

 Cycle   4  Pass 1  IDiag  1:
 RMSU=  2.74D-04    CP:  9.63D-01  1.54D+00  5.02D-01
 E= -4069.75403527193     Delta-E=       -0.139801320711 Rises=F Damp=F
 DIIS: error= 6.30D-03 at cycle   4 NSaved=   4.
 NSaved= 4 IEnMin= 4 EnMin= -4069.75403527193     IErMin= 4 ErrMin= 6.30D-03
 ErrMax= 6.30D-03  0.00D+00 EMaxC= 1.00D-01 BMatC= 4.82D-02 BMatP= 2.02D-01
 IDIUse=3 WtCom= 9.37D-01 WtEn= 6.30D-02
 Coeff-Com: -0.111D+00 0.230D+00 0.405D+00 0.476D+00
 Coeff-En:   0.000D+00 0.000D+00 0.215D+00 0.785D+00
 Coeff:     -0.104D+00 0.216D+00 0.393D+00 0.495D+00
 Gap=     0.121 Goal=   None    Shift=    0.000
 RMSDP=2.03D-04 MaxDP=1.93D-02 DE=-1.40D-01 OVMax= 7.04D-02

 Cycle   5  Pass 1  IDiag  1:
 RMSU=  8.10D-05    CP:  9.62D-01  1.49D+00  6.84D-01  5.56D-01
 E= -4069.79854188919     Delta-E=       -0.044506617262 Rises=F Damp=F
 DIIS: error= 6.65D-04 at cycle   5 NSaved=   5.
 NSaved= 5 IEnMin= 5 EnMin= -4069.79854188919     IErMin= 5 ErrMin= 6.65D-04
 ErrMax= 6.65D-04  0.00D+00 EMaxC= 1.00D-01 BMatC= 1.24D-03 BMatP= 4.82D-02
 IDIUse=3 WtCom= 9.93D-01 WtEn= 6.65D-03
 Coeff-Com: -0.378D-01 0.745D-01 0.167D+00 0.252D+00 0.544D+00
 Coeff-En:   0.000D+00 0.000D+00 0.000D+00 0.000D+00 0.100D+01
 Coeff:     -0.376D-01 0.740D-01 0.166D+00 0.251D+00 0.547D+00
 Gap=     0.120 Goal=   None    Shift=    0.000
 RMSDP=4.37D-05 MaxDP=4.02D-03 DE=-4.45D-02 OVMax= 1.94D-02

 Cycle   6  Pass 1  IDiag  1:
 RMSU=  3.17D-05    CP:  9.62D-01  1.50D+00  6.75D-01  6.27D-01  7.36D-01
 E= -4069.79965980323     Delta-E=       -0.001117914046 Rises=F Damp=F
 DIIS: error= 1.79D-04 at cycle   6 NSaved=   6.
 NSaved= 6 IEnMin= 6 EnMin= -4069.79965980323     IErMin= 6 ErrMin= 1.79D-04
 ErrMax= 1.79D-04  0.00D+00 EMaxC= 1.00D-01 BMatC= 2.00D-04 BMatP= 1.24D-03
 IDIUse=3 WtCom= 9.98D-01 WtEn= 1.79D-03
 Coeff-Com:  0.128D-02-0.482D-02 0.140D-01 0.433D-01 0.310D+00 0.637D+00
 Coeff-En:   0.000D+00 0.000D+00 0.000D+00 0.000D+00 0.124D+00 0.876D+00
 Coeff:      0.127D-02-0.481D-02 0.140D-01 0.432D-01 0.309D+00 0.637D+00
 Gap=     0.121 Goal=   None    Shift=    0.000
 RMSDP=1.76D-05 MaxDP=1.29D-03 DE=-1.12D-03 OVMax= 8.65D-03

 Cycle   7  Pass 1  IDiag  1:
 RMSU=  1.16D-05    CP:  9.62D-01  1.50D+00  6.82D-01  6.25D-01  8.41D-01
                    CP:  7.28D-01
 E= -4069.79988267047     Delta-E=       -0.000222867238 Rises=F Damp=F
 DIIS: error= 8.75D-05 at cycle   7 NSaved=   7.
 NSaved= 7 IEnMin= 7 EnMin= -4069.79988267047     IErMin= 7 ErrMin= 8.75D-05
 ErrMax= 8.75D-05  0.00D+00 EMaxC= 1.00D-01 BMatC= 2.40D-05 BMatP= 2.00D-04
 IDIUse=1 WtCom= 1.00D+00 WtEn= 0.00D+00
 Coeff-Com:  0.428D-02-0.946D-02-0.801D-02-0.290D-02 0.106D+00 0.331D+00
 Coeff-Com:  0.579D+00
 Coeff:      0.428D-02-0.946D-02-0.801D-02-0.290D-02 0.106D+00 0.331D+00
 Coeff:      0.579D+00
 Gap=     0.121 Goal=   None    Shift=    0.000
 RMSDP=6.48D-06 MaxDP=9.94D-04 DE=-2.23D-04 OVMax= 3.14D-03

 Cycle   8  Pass 1  IDiag  1:
 RMSU=  4.69D-06    CP:  9.62D-01  1.50D+00  6.82D-01  6.29D-01  8.44D-01
                    CP:  8.46D-01  8.32D-01
 E= -4069.79991153773     Delta-E=       -0.000028867260 Rises=F Damp=F
 DIIS: error= 4.89D-05 at cycle   8 NSaved=   8.
 NSaved= 8 IEnMin= 8 EnMin= -4069.79991153773     IErMin= 8 ErrMin= 4.89D-05
 ErrMax= 4.89D-05  0.00D+00 EMaxC= 1.00D-01 BMatC= 4.85D-06 BMatP= 2.40D-05
 IDIUse=1 WtCom= 1.00D+00 WtEn= 0.00D+00
 Coeff-Com:  0.222D-02-0.440D-02-0.780D-02-0.125D-01-0.114D-01 0.310D-01
 Coeff-Com:  0.326D+00 0.677D+00
 Coeff:      0.222D-02-0.440D-02-0.780D-02-0.125D-01-0.114D-01 0.310D-01
 Coeff:      0.326D+00 0.677D+00
 Gap=     0.121 Goal=   None    Shift=    0.000
 RMSDP=3.45D-06 MaxDP=4.70D-04 DE=-2.89D-05 OVMax= 1.31D-03

 Cycle   9  Pass 1  IDiag  1:
 RMSU=  1.99D-06    CP:  9.62D-01  1.50D+00  6.83D-01  6.31D-01  8.61D-01
                    CP:  8.74D-01  1.02D+00  9.64D-01
 E= -4069.79991918422     Delta-E=       -0.000007646489 Rises=F Damp=F
 DIIS: error= 1.66D-05 at cycle   9 NSaved=   9.
 NSaved= 9 IEnMin= 9 EnMin= -4069.79991918422     IErMin= 9 ErrMin= 1.66D-05
 ErrMax= 1.66D-05  0.00D+00 EMaxC= 1.00D-01 BMatC= 7.05D-07 BMatP= 4.85D-06
 IDIUse=1 WtCom= 1.00D+00 WtEn= 0.00D+00
 Coeff-Com:  0.545D-03-0.932D-03-0.282D-02-0.616D-02-0.201D-01-0.367D-01
 Coeff-Com:  0.952D-01 0.334D+00 0.637D+00
 Coeff:      0.545D-03-0.932D-03-0.282D-02-0.616D-02-0.201D-01-0.367D-01
 Coeff:      0.952D-01 0.334D+00 0.637D+00
 Gap=     0.121 Goal=   None    Shift=    0.000
 RMSDP=1.37D-06 MaxDP=1.18D-04 DE=-7.65D-06 OVMax= 6.65D-04

 Cycle  10  Pass 1  IDiag  1:
 RMSU=  9.46D-07    CP:  9.62D-01  1.50D+00  6.83D-01  6.31D-01  8.64D-01
                    CP:  8.84D-01  1.07D+00  1.11D+00  1.05D+00
 E= -4069.79992075543     Delta-E=       -0.000001571207 Rises=F Damp=F
 DIIS: error= 1.01D-05 at cycle  10 NSaved=  10.
 NSaved=10 IEnMin=10 EnMin= -4069.79992075543     IErMin=10 ErrMin= 1.01D-05
 ErrMax= 1.01D-05  0.00D+00 EMaxC= 1.00D-01 BMatC= 1.62D-07 BMatP= 7.05D-07
 IDIUse=1 WtCom= 1.00D+00 WtEn= 0.00D+00
 Coeff-Com: -0.422D-03 0.885D-03 0.120D-02 0.114D-02-0.343D-02-0.296D-01
 Coeff-Com: -0.487D-01-0.735D-01 0.241D+00 0.912D+00
 Coeff:     -0.422D-03 0.885D-03 0.120D-02 0.114D-02-0.343D-02-0.296D-01
 Coeff:     -0.487D-01-0.735D-01 0.241D+00 0.912D+00
 Gap=     0.121 Goal=   None    Shift=    0.000
 RMSDP=1.24D-06 MaxDP=1.40D-04 DE=-1.57D-06 OVMax= 6.37D-04

 Cycle  11  Pass 1  IDiag  1:
 RMSU=  5.06D-07    CP:  9.62D-01  1.50D+00  6.83D-01  6.32D-01  8.67D-01
                    CP:  8.94D-01  1.11D+00  1.23D+00  1.37D+00  1.39D+00
 E= -4069.79992151798     Delta-E=       -0.000000762553 Rises=F Damp=F
 DIIS: error= 3.80D-06 at cycle  11 NSaved=  11.
 NSaved=11 IEnMin=11 EnMin= -4069.79992151798     IErMin=11 ErrMin= 3.80D-06
 ErrMax= 3.80D-06  0.00D+00 EMaxC= 1.00D-01 BMatC= 5.89D-08 BMatP= 1.62D-07
 IDIUse=1 WtCom= 1.00D+00 WtEn= 0.00D+00
 Coeff-Com: -0.330D-03 0.644D-03 0.129D-02 0.207D-02 0.419D-02-0.793D-02
 Coeff-Com: -0.417D-01-0.124D+00-0.319D-01 0.469D+00 0.729D+00
 Coeff:     -0.330D-03 0.644D-03 0.129D-02 0.207D-02 0.419D-02-0.793D-02
 Coeff:     -0.417D-01-0.124D+00-0.319D-01 0.469D+00 0.729D+00
 Gap=     0.121 Goal=   None    Shift=    0.000
 RMSDP=6.58D-07 MaxDP=4.98D-05 DE=-7.63D-07 OVMax= 3.45D-04

 Cycle  12  Pass 1  IDiag  1:
 RMSU=  2.63D-07    CP:  9.62D-01  1.50D+00  6.83D-01  6.32D-01  8.67D-01
                    CP:  8.95D-01  1.13D+00  1.28D+00  1.53D+00  1.76D+00
                    CP:  1.22D+00
 E= -4069.79992176369     Delta-E=       -0.000000245705 Rises=F Damp=F
 DIIS: error= 1.97D-06 at cycle  12 NSaved=  12.
 NSaved=12 IEnMin=12 EnMin= -4069.79992176369     IErMin=12 ErrMin= 1.97D-06
 ErrMax= 1.97D-06  0.00D+00 EMaxC= 1.00D-01 BMatC= 1.37D-08 BMatP= 5.89D-08
 IDIUse=1 WtCom= 1.00D+00 WtEn= 0.00D+00
 Coeff-Com: -0.938D-05 0.272D-05 0.194D-03 0.502D-03 0.309D-02 0.354D-02
 Coeff-Com:  0.226D-02-0.308D-01-0.734D-01-0.662D-01 0.245D+00 0.916D+00
 Coeff:     -0.938D-05 0.272D-05 0.194D-03 0.502D-03 0.309D-02 0.354D-02
 Coeff:      0.226D-02-0.308D-01-0.734D-01-0.662D-01 0.245D+00 0.916D+00
 Gap=     0.121 Goal=   None    Shift=    0.000
 RMSDP=4.30D-07 MaxDP=3.33D-05 DE=-2.46D-07 OVMax= 2.53D-04

 Cycle  13  Pass 1  IDiag  1:
 RMSU=  1.65D-07    CP:  9.62D-01  1.50D+00  6.83D-01  6.32D-01  8.68D-01
                    CP:  8.95D-01  1.14D+00  1.31D+00  1.62D+00  1.99D+00
                    CP:  1.63D+00  1.27D+00
 E= -4069.79992185083     Delta-E=       -0.000000087141 Rises=F Damp=F
 DIIS: error= 1.22D-06 at cycle  13 NSaved=  13.
 NSaved=13 IEnMin=13 EnMin= -4069.79992185083     IErMin=13 ErrMin= 1.22D-06
 ErrMax= 1.22D-06  0.00D+00 EMaxC= 1.00D-01 BMatC= 7.76D-09 BMatP= 1.37D-08
 IDIUse=1 WtCom= 1.00D+00 WtEn= 0.00D+00
 Coeff-Com:  0.119D-03-0.244D-03-0.359D-03-0.456D-03 0.559D-03 0.475D-02
 Coeff-Com:  0.188D-01 0.245D-01-0.376D-01-0.231D+00-0.158D+00 0.610D+00
 Coeff-Com:  0.769D+00
 Coeff:      0.119D-03-0.244D-03-0.359D-03-0.456D-03 0.559D-03 0.475D-02
 Coeff:      0.188D-01 0.245D-01-0.376D-01-0.231D+00-0.158D+00 0.610D+00
 Coeff:      0.769D+00
 Gap=     0.121 Goal=   None    Shift=    0.000
 RMSDP=3.23D-07 MaxDP=2.04D-05 DE=-8.71D-08 OVMax= 1.80D-04

 Cycle  14  Pass 1  IDiag  1:
 RMSU=  7.92D-08    CP:  9.62D-01  1.50D+00  6.83D-01  6.32D-01  8.68D-01
                    CP:  8.96D-01  1.15D+00  1.33D+00  1.69D+00  2.17D+00
                    CP:  1.88D+00  1.79D+00  1.07D+00
 E= -4069.79992188404     Delta-E=       -0.000000033211 Rises=F Damp=F
 DIIS: error= 7.07D-07 at cycle  14 NSaved=  14.
 NSaved=14 IEnMin=14 EnMin= -4069.79992188404     IErMin=14 ErrMin= 7.07D-07
 ErrMax= 7.07D-07  0.00D+00 EMaxC= 1.00D-01 BMatC= 1.28D-09 BMatP= 7.76D-09
 IDIUse=1 WtCom= 1.00D+00 WtEn= 0.00D+00
 Coeff-Com:  0.704D-04-0.139D-03-0.251D-03-0.394D-03-0.457D-03 0.130D-02
 Coeff-Com:  0.104D-01 0.206D-01 0.585D-03-0.990D-01-0.151D+00 0.110D+00
 Coeff-Com:  0.411D+00 0.697D+00
 Coeff:      0.704D-04-0.139D-03-0.251D-03-0.394D-03-0.457D-03 0.130D-02
 Coeff:      0.104D-01 0.206D-01 0.585D-03-0.990D-01-0.151D+00 0.110D+00
 Coeff:      0.411D+00 0.697D+00
 Gap=     0.121 Goal=   None    Shift=    0.000
 RMSDP=1.05D-07 MaxDP=7.41D-06 DE=-3.32D-08 OVMax= 6.46D-05

 Cycle  15  Pass 1  IDiag  1:
 RMSU=  4.16D-08    CP:  9.62D-01  1.50D+00  6.83D-01  6.32D-01  8.68D-01
                    CP:  8.95D-01  1.15D+00  1.33D+00  1.70D+00  2.22D+00
                    CP:  1.99D+00  1.93D+00  1.32D+00  9.82D-01
 E= -4069.79992188833     Delta-E=       -0.000000004296 Rises=F Damp=F
 DIIS: error= 2.46D-07 at cycle  15 NSaved=  15.
 NSaved=15 IEnMin=15 EnMin= -4069.79992188833     IErMin=15 ErrMin= 2.46D-07
 ErrMax= 2.46D-07  0.00D+00 EMaxC= 1.00D-01 BMatC= 2.61D-10 BMatP= 1.28D-09
 IDIUse=1 WtCom= 1.00D+00 WtEn= 0.00D+00
 Coeff-Com:  0.100D-04-0.182D-04-0.471D-04-0.103D-03-0.319D-03-0.412D-03
 Coeff-Com:  0.148D-02 0.416D-02 0.752D-02-0.221D-02-0.421D-01-0.656D-01
 Coeff-Com:  0.477D-01 0.332D+00 0.718D+00
 Coeff:      0.100D-04-0.182D-04-0.471D-04-0.103D-03-0.319D-03-0.412D-03
 Coeff:      0.148D-02 0.416D-02 0.752D-02-0.221D-02-0.421D-01-0.656D-01
 Coeff:      0.477D-01 0.332D+00 0.718D+00
 Gap=     0.121 Goal=   None    Shift=    0.000
 RMSDP=4.28D-08 MaxDP=2.96D-06 DE=-4.30D-09 OVMax= 2.64D-05

 Cycle  16  Pass 1  IDiag  1:
 RMSU=  2.01D-08    CP:  9.62D-01  1.50D+00  6.83D-01  6.32D-01  8.68D-01
                    CP:  8.95D-01  1.15D+00  1.34D+00  1.71D+00  2.24D+00
                    CP:  2.02D+00  1.99D+00  1.39D+00  1.21D+00  1.09D+00
 E= -4069.79992188913     Delta-E=       -0.000000000793 Rises=F Damp=F
 DIIS: error= 1.71D-07 at cycle  16 NSaved=  16.
 NSaved=16 IEnMin=16 EnMin= -4069.79992188913     IErMin=16 ErrMin= 1.71D-07
 ErrMax= 1.71D-07  0.00D+00 EMaxC= 1.00D-01 BMatC= 9.00D-11 BMatP= 2.61D-10
 IDIUse=1 WtCom= 1.00D+00 WtEn= 0.00D+00
 Coeff-Com: -0.139D-04 0.284D-04 0.448D-04 0.498D-04-0.427D-04-0.630D-03
 Coeff-Com: -0.194D-02-0.391D-02 0.450D-02 0.264D-01 0.184D-01-0.694D-01
 Coeff-Com: -0.835D-01-0.166D-01 0.398D+00 0.729D+00
 Coeff:     -0.139D-04 0.284D-04 0.448D-04 0.498D-04-0.427D-04-0.630D-03
 Coeff:     -0.194D-02-0.391D-02 0.450D-02 0.264D-01 0.184D-01-0.694D-01
 Coeff:     -0.835D-01-0.166D-01 0.398D+00 0.729D+00
 Gap=     0.121 Goal=   None    Shift=    0.000
 RMSDP=2.49D-08 MaxDP=1.94D-06 DE=-7.93D-10 OVMax= 1.86D-05

 Cycle  17  Pass 1  IDiag  1:
 RMSU=  1.18D-08    CP:  9.62D-01  1.50D+00  6.83D-01  6.32D-01  8.68D-01
                    CP:  8.95D-01  1.15D+00  1.34D+00  1.71D+00  2.24D+00
                    CP:  2.03D+00  2.02D+00  1.45D+00  1.31D+00  1.39D+00
                    CP:  1.20D+00
 E= -4069.79992188952     Delta-E=       -0.000000000393 Rises=F Damp=F
 DIIS: error= 8.31D-08 at cycle  17 NSaved=  17.
 NSaved=17 IEnMin=17 EnMin= -4069.79992188952     IErMin=17 ErrMin= 8.31D-08
 ErrMax= 8.31D-08  0.00D+00 EMaxC= 1.00D-01 BMatC= 2.22D-11 BMatP= 9.00D-11
 IDIUse=1 WtCom= 1.00D+00 WtEn= 0.00D+00
 Coeff-Com: -0.950D-05 0.187D-04 0.352D-04 0.506D-04 0.764D-04-0.198D-03
 Coeff-Com: -0.124D-02-0.325D-02 0.434D-03 0.129D-01 0.205D-01-0.165D-01
 Coeff-Com: -0.490D-01-0.105D+00 0.112D-02 0.342D+00 0.798D+00
 Coeff:     -0.950D-05 0.187D-04 0.352D-04 0.506D-04 0.764D-04-0.198D-03
 Coeff:     -0.124D-02-0.325D-02 0.434D-03 0.129D-01 0.205D-01-0.165D-01
 Coeff:     -0.490D-01-0.105D+00 0.112D-02 0.342D+00 0.798D+00
 Gap=     0.121 Goal=   None    Shift=    0.000
 RMSDP=1.52D-08 MaxDP=1.10D-06 DE=-3.93D-10 OVMax= 9.11D-06

 Cycle  18  Pass 1  IDiag  1:
 RMSU=  5.99D-09    CP:  9.62D-01  1.50D+00  6.83D-01  6.32D-01  8.68D-01
                    CP:  8.95D-01  1.15D+00  1.34D+00  1.71D+00  2.25D+00
                    CP:  2.04D+00  2.03D+00  1.47D+00  1.38D+00  1.55D+00
                    CP:  1.60D+00  1.32D+00
 E= -4069.79992188983     Delta-E=       -0.000000000309 Rises=F Damp=F
 DIIS: error= 7.98D-08 at cycle  18 NSaved=  18.
 NSaved=18 IEnMin=18 EnMin= -4069.79992188983     IErMin=18 ErrMin= 7.98D-08
 ErrMax= 7.98D-08  0.00D+00 EMaxC= 1.00D-01 BMatC= 7.82D-12 BMatP= 2.22D-11
 IDIUse=1 WtCom= 1.00D+00 WtEn= 0.00D+00
 Coeff-Com:  0.796D-07-0.526D-06 0.268D-05 0.792D-05 0.693D-04 0.129D-03
 Coeff-Com:  0.134D-03-0.364D-03-0.123D-02-0.320D-02 0.405D-02 0.169D-01
 Coeff-Com:  0.915D-02-0.503D-01-0.139D+00-0.101D+00 0.401D+00 0.863D+00
 Coeff:      0.796D-07-0.526D-06 0.268D-05 0.792D-05 0.693D-04 0.129D-03
 Coeff:      0.134D-03-0.364D-03-0.123D-02-0.320D-02 0.405D-02 0.169D-01
 Coeff:      0.915D-02-0.503D-01-0.139D+00-0.101D+00 0.401D+00 0.863D+00
 Gap=     0.121 Goal=   None    Shift=    0.000
 RMSDP=1.11D-08 MaxDP=8.55D-07 DE=-3.09D-10 OVMax= 8.28D-06

 Cycle  19  Pass 1  IDiag  1:
 RMSU=  3.56D-09    CP:  9.62D-01  1.50D+00  6.83D-01  6.32D-01  8.68D-01
                    CP:  8.95D-01  1.15D+00  1.34D+00  1.71D+00  2.25D+00
                    CP:  2.04D+00  2.03D+00  1.48D+00  1.42D+00  1.68D+00
                    CP:  1.87D+00  1.84D+00  1.13D+00
 E= -4069.79992188980     Delta-E=        0.000000000029 Rises=F Damp=F
 DIIS: error= 3.63D-08 at cycle  19 NSaved=  19.
 NSaved=19 IEnMin=18 EnMin= -4069.79992188983     IErMin=19 ErrMin= 3.63D-08
 ErrMax= 3.63D-08  0.00D+00 EMaxC= 1.00D-01 BMatC= 3.65D-12 BMatP= 7.82D-12
 IDIUse=1 WtCom= 1.00D+00 WtEn= 0.00D+00
 Coeff-Com:  0.347D-05-0.707D-05-0.110D-04-0.131D-04 0.233D-04 0.160D-03
 Coeff-Com:  0.556D-03 0.930D-03-0.980D-03-0.733D-02-0.495D-02 0.174D-01
 Coeff-Com:  0.251D-01 0.288D-02-0.989D-01-0.212D+00-0.514D-01 0.582D+00
 Coeff-Com:  0.747D+00
 Coeff:      0.347D-05-0.707D-05-0.110D-04-0.131D-04 0.233D-04 0.160D-03
 Coeff:      0.556D-03 0.930D-03-0.980D-03-0.733D-02-0.495D-02 0.174D-01
 Coeff:      0.251D-01 0.288D-02-0.989D-01-0.212D+00-0.514D-01 0.582D+00
 Coeff:      0.747D+00
 Gap=     0.121 Goal=   None    Shift=    0.000
 RMSDP=7.92D-09 MaxDP=5.71D-07 DE= 2.91D-11 OVMax= 4.48D-06

 SCF Done:  E(RCAM-B3LYP) =  -4069.79992189     A.U. after   19 cycles
            NFock= 19  Conv=0.79D-08     -V/T= 2.0101
 KE= 4.028911157206D+03 PE=-4.107808212977D+04 EE= 1.718065259844D+04
 Leave Link  502 at Fri Sep 10 08:17:57 2021, MaxMem= 23488102400 cpu:           18907.2 elap:             815.5
 (Enter /sw/apps/gaussian-16.0/g16/l801.exe)
 DoSCS=F DFT=T ScalE2(SS,OS)=  1.000000  1.000000
 ExpMin= 3.36D-02 ExpMax= 4.95D+03 ExpMxC= 7.45D+02 IAcc=3 IRadAn=         5 AccDes= 0.00D+00
 HarFok:  IExCor=  205 AccDes= 0.00D+00 IRadAn=         5 IDoV=-2 UseB2=F ITyADJ=14
 ICtDFT= 12500011 ScaDFX=  1.000000  1.000000  1.000000  1.000000
 GSVD:  LWork=       -9588 too small for GESVD, short by       45590 words or       45590 for optimal perf.
 Largest valence mixing into a core orbital is  2.05D-04
 Largest core mixing into a valence orbital is  5.23D-05
 Range of M.O.s used for correlation:    95  1572
 NBasis=  1572 NAE=   312 NBE=   312 NFC=    94 NFV=     0
 NROrb=   1478 NOA=   218 NOB=   218 NVA=  1260 NVB=  1260
 Leave Link  801 at Fri Sep 10 08:17:57 2021, MaxMem= 23488102400 cpu:               9.4 elap:               0.4
 (Enter /sw/apps/gaussian-16.0/g16/l914.exe)
 RHF ground state
 Two-electron integrals replicated using symmetry.
 MDV= 23488102400 DFT=T DoStab=F Mixed=T DoRPA=T DoScal=F NonHer=T
 Making orbital integer symmetry assigments:
 Orbital symmetries:
       Occupied  (A) (A) (A) (A) (A) (A) (A) (A) (A) (A) (A) (A)
                 (A) (A) (A) (A) (A) (A) (A) (A) (A) (A) (A) (A)
                 (A) (A) (A) (A) (A) (A) (A) (A) (A) (A) (A) (A)
                 (A) (A) (A) (A) (A) (A) (A) (A) (A) (A) (A) (A)
                 (A) (A) (A) (A) (A) (A) (A) (A) (A) (A) (A) (A)
                 (A) (A) (A) (A) (A) (A) (A) (A) (A) (A) (A) (A)
                 (A) (A) (A) (A) (A) (A) (A) (A) (A) (A) (A) (A)
                 (A) (A) (A) (A) (A) (A) (A) (A) (A) (A) (A) (A)
                 (A) (A) (A) (A) (A) (A) (A) (A) (A) (A) (A) (A)
                 (A) (A) (A) (A) (A) (A) (A) (A) (A) (A) (A) (A)
                 (A) (A) (A) (A) (A) (A) (A) (A) (A) (A) (A) (A)
                 (A) (A) (A) (A) (A) (A) (A) (A) (A) (A) (A) (A)
                 (A) (A) (A) (A) (A) (A) (A) (A) (A) (A) (A) (A)
                 (A) (A) (A) (A) (A) (A) (A) (A) (A) (A) (A) (A)
                 (A) (A) (A) (A) (A) (A) (A) (A) (A) (A) (A) (A)
                 (A) (A) (A) (A) (A) (A) (A) (A) (A) (A) (A) (A)
                 (A) (A) (A) (A) (A) (A) (A) (A) (A) (A) (A) (A)
                 (A) (A) (A) (A) (A) (A) (A) (A) (A) (A) (A) (A)
                 (A) (A) (A) (A) (A) (A) (A) (A) (A) (A) (A) (A)
                 (A) (A) (A) (A) (A) (A) (A) (A) (A) (A) (A) (A)
                 (A) (A) (A) (A) (A) (A) (A) (A) (A) (A) (A) (A)
                 (A) (A) (A) (A) (A) (A) (A) (A) (A) (A) (A) (A)
                 (A) (A) (A) (A) (A) (A) (A) (A) (A) (A) (A) (A)
                 (A) (A) (A) (A) (A) (A) (A) (A) (A) (A) (A) (A)
                 (A) (A) (A) (A) (A) (A) (A) (A) (A) (A) (A) (A)
                 (A) (A) (A) (A) (A) (A) (A) (A) (A) (A) (A) (A)
       Virtual   (A) (A) (A) (A) (A) (A) (A) (A) (A) (A) (A) (A)
                 (A) (A) (A) (A) (A) (A) (A) (A) (A) (A) (A) (A)
                 (A) (A) (A) (A) (A) (A) (A) (A) (A) (A) (A) (A)
                 (A) (A) (A) (A) (A) (A) (A) (A) (A) (A) (A) (A)
                 (A) (A) (A) (A) (A) (A) (A) (A) (A) (A) (A) (A)
                 (A) (A) (A) (A) (A) (A) (A) (A) (A) (A) (A) (A)
                 (A) (A) (A) (A) (A) (A) (A) (A) (A) (A) (A) (A)
                 (A) (A) (A) (A) (A) (A) (A) (A) (A) (A) (A) (A)
                 (A) (A) (A) (A) (A) (A) (A) (A) (A) (A) (A) (A)
                 (A) (A) (A) (A) (A) (A) (A) (A) (A) (A) (A) (A)
                 (A) (A) (A) (A) (A) (A) (A) (A) (A) (A) (A) (A)
                 (A) (A) (A) (A) (A) (A) (A) (A) (A) (A) (A) (A)
                 (A) (A) (A) (A) (A) (A) (A) (A) (A) (A) (A) (A)
                 (A) (A) (A) (A) (A) (A) (A) (A) (A) (A) (A) (A)
                 (A) (A) (A) (A) (A) (A) (A) (A) (A) (A) (A) (A)
                 (A) (A) (A) (A) (A) (A) (A) (A) (A) (A) (A) (A)
                 (A) (A) (A) (A) (A) (A) (A) (A) (A) (A) (A) (A)
                 (A) (A) (A) (A) (A) (A) (A) (A) (A) (A) (A) (A)
                 (A) (A) (A) (A) (A) (A) (A) (A) (A) (A) (A) (A)
                 (A) (A) (A) (A) (A) (A) (A) (A) (A) (A) (A) (A)
                 (A) (A) (A) (A) (A) (A) (A) (A) (A) (A) (A) (A)
                 (A) (A) (A) (A) (A) (A) (A) (A) (A) (A) (A) (A)
                 (A) (A) (A) (A) (A) (A) (A) (A) (A) (A) (A) (A)
                 (A) (A) (A) (A) (A) (A) (A) (A) (A) (A) (A) (A)
                 (A) (A) (A) (A) (A) (A) (A) (A) (A) (A) (A) (A)
                 (A) (A) (A) (A) (A) (A) (A) (A) (A) (A) (A) (A)
                 (A) (A) (A) (A) (A) (A) (A) (A) (A) (A) (A) (A)
                 (A) (A) (A) (A) (A) (A) (A) (A) (A) (A) (A) (A)
                 (A) (A) (A) (A) (A) (A) (A) (A) (A) (A) (A) (A)
                 (A) (A) (A) (A) (A) (A) (A) (A) (A) (A) (A) (A)
                 (A) (A) (A) (A) (A) (A) (A) (A) (A) (A) (A) (A)
                 (A) (A) (A) (A) (A) (A) (A) (A) (A) (A) (A) (A)
                 (A) (A) (A) (A) (A) (A) (A) (A) (A) (A) (A) (A)
                 (A) (A) (A) (A) (A) (A) (A) (A) (A) (A) (A) (A)
                 (A) (A) (A) (A) (A) (A) (A) (A) (A) (A) (A) (A)
                 (A) (A) (A) (A) (A) (A) (A) (A) (A) (A) (A) (A)
                 (A) (A) (A) (A) (A) (A) (A) (A) (A) (A) (A) (A)
                 (A) (A) (A) (A) (A) (A) (A) (A) (A) (A) (A) (A)
                 (A) (A) (A) (A) (A) (A) (A) (A) (A) (A) (A) (A)
                 (A) (A) (A) (A) (A) (A) (A) (A) (A) (A) (A) (A)
                 (A) (A) (A) (A) (A) (A) (A) (A) (A) (A) (A) (A)
                 (A) (A) (A) (A) (A) (A) (A) (A) (A) (A) (A) (A)
                 (A) (A) (A) (A) (A) (A) (A) (A) (A) (A) (A) (A)
                 (A) (A) (A) (A) (A) (A) (A) (A) (A) (A) (A) (A)
                 (A) (A) (A) (A) (A) (A) (A) (A) (A) (A) (A) (A)
                 (A) (A) (A) (A) (A) (A) (A) (A) (A) (A) (A) (A)
                 (A) (A) (A) (A) (A) (A) (A) (A) (A) (A) (A) (A)
                 (A) (A) (A) (A) (A) (A) (A) (A) (A) (A) (A) (A)
                 (A) (A) (A) (A) (A) (A) (A) (A) (A) (A) (A) (A)
                 (A) (A) (A) (A) (A) (A) (A) (A) (A) (A) (A) (A)
                 (A) (A) (A) (A) (A) (A) (A) (A) (A) (A) (A) (A)
                 (A) (A) (A) (A) (A) (A) (A) (A) (A) (A) (A) (A)
                 (A) (A) (A) (A) (A) (A) (A) (A) (A) (A) (A) (A)
                 (A) (A) (A) (A) (A) (A) (A) (A) (A) (A) (A) (A)
                 (A) (A) (A) (A) (A) (A) (A) (A) (A) (A) (A) (A)
                 (A) (A) (A) (A) (A) (A) (A) (A) (A) (A) (A) (A)
                 (A) (A) (A) (A) (A) (A) (A) (A) (A) (A) (A) (A)
                 (A) (A) (A) (A) (A) (A) (A) (A) (A) (A) (A) (A)
                 (A) (A) (A) (A) (A) (A) (A) (A) (A) (A) (A) (A)
                 (A) (A) (A) (A) (A) (A) (A) (A) (A) (A) (A) (A)
                 (A) (A) (A) (A) (A) (A) (A) (A) (A) (A) (A) (A)
                 (A) (A) (A) (A) (A) (A) (A) (A) (A) (A) (A) (A)
                 (A) (A) (A) (A) (A) (A) (A) (A) (A) (A) (A) (A)
                 (A) (A) (A) (A) (A) (A) (A) (A) (A) (A) (A) (A)
                 (A) (A) (A) (A) (A) (A) (A) (A) (A) (A) (A) (A)
                 (A) (A) (A) (A) (A) (A) (A) (A) (A) (A) (A) (A)
                 (A) (A) (A) (A) (A) (A) (A) (A) (A) (A) (A) (A)
                 (A) (A) (A) (A) (A) (A) (A) (A) (A) (A) (A) (A)
                 (A) (A) (A) (A) (A) (A) (A) (A) (A) (A) (A) (A)
                 (A) (A) (A) (A) (A) (A) (A) (A) (A) (A) (A) (A)
                 (A) (A) (A) (A) (A) (A) (A) (A) (A) (A) (A) (A)
                 (A) (A) (A) (A) (A) (A) (A) (A) (A) (A) (A) (A)
                 (A) (A) (A) (A) (A) (A) (A) (A) (A) (A) (A) (A)
                 (A) (A) (A) (A) (A) (A) (A) (A) (A) (A) (A) (A)
                 (A) (A) (A) (A) (A) (A) (A) (A) (A) (A) (A) (A)
                 (A) (A) (A) (A) (A) (A) (A) (A) (A) (A) (A) (A)
                 (A) (A) (A) (A) (A) (A) (A) (A) (A) (A) (A) (A)
                 (A) (A) (A) (A) (A) (A) (A) (A) (A) (A) (A) (A)
                 (A) (A) (A) (A) (A) (A) (A) (A) (A) (A) (A) (A)
                 (A) (A) (A) (A) (A) (A) (A) (A) (A) (A) (A) (A)
                 (A) (A) (A) (A) (A) (A) (A) (A) (A) (A) (A) (A)
                 (A) (A) (A) (A) (A) (A) (A) (A) (A) (A) (A) (A)
                 (A) (A) (A) (A) (A) (A) (A) (A) (A) (A) (A) (A)
                 (A) (A) (A) (A) (A) (A) (A) (A) (A) (A) (A) (A)
                 (A) (A) (A) (A) (A) (A) (A) (A) (A) (A) (A) (A)
                 (A) (A) (A) (A) (A) (A) (A) (A) (A) (A) (A) (A)
                 (A) (A) (A) (A) (A) (A) (A) (A) (A) (A) (A) (A)
                 (A) (A) (A) (A) (A) (A) (A) (A) (A) (A) (A) (A)
                 (A) (A) (A) (A) (A) (A) (A) (A) (A) (A) (A) (A)
                 (A) (A) (A) (A) (A) (A) (A) (A) (A) (A) (A) (A)
                 (A) (A) (A) (A) (A) (A) (A) (A) (A) (A) (A) (A)
                 (A) (A) (A) (A) (A) (A) (A) (A) (A) (A) (A) (A)
                 (A) (A) (A) (A) (A) (A) (A) (A) (A) (A) (A) (A)
                 (A) (A) (A) (A) (A) (A) (A) (A) (A) (A) (A) (A)
                 (A) (A) (A) (A) (A) (A) (A) (A) (A) (A) (A) (A)
                 (A) (A) (A) (A) (A) (A) (A) (A) (A) (A) (A) (A)
                 (A) (A) (A) (A) (A) (A) (A) (A) (A) (A) (A) (A)
                 (A) (A) (A) (A) (A) (A) (A) (A) (A) (A) (A) (A)
                 (A) (A) (A) (A) (A) (A) (A) (A) (A) (A) (A) (A)
                 (A) (A) (A) (A) (A) (A) (A) (A) (A) (A) (A) (A)
                 (A) (A) (A) (A) (A) (A) (A) (A) (A) (A) (A) (A)
                 (A) (A) (A) (A) (A) (A) (A) (A) (A) (A) (A) (A)
                 (A) (A) (A) (A) (A) (A) (A) (A) (A) (A) (A) (A)
                 (A) (A) (A) (A) (A) (A) (A) (A) (A) (A) (A) (A)
                 (A) (A) (A) (A) (A) (A) (A) (A) (A) (A) (A) (A)
    20 initial guesses have been made.
 Convergence on wavefunction:    0.001000000000000
 Davidson Disk Diagonalization:  ConvIn= 1.00D-03 SkipCon=T Conv= 1.00D-03.
 Max sub-space:  2000 roots to seek:    20 dimension of matrix:       549360
 Iteration     1 Dimension    20 NMult     0 NNew     20
 CISAX will form    20 AO SS matrices at one time.
 NMat=    20 NSing=    20 JSym2X= 0.
 FoFJK:  IHMeth= 1 ICntrl=       0 DoSepK=T KAlg= 0 I1Cent=           0 FoldK=F
 IRaf=         1 NMat=      40 IRICut=       1 DoRegI=T DoRafI=F ISym2E= 0 IDoP0=3 IntGTp=3.
 FoFCou: FMM=T IPFlag=           0 FMFlag=      100000 FMFlg1=        2001
         NFxFlg=           0 DoJE=F BraDBF=F KetDBF=F FulRan=T
         wScrn=  0.000000 ICntrl=       500 IOpCl=  0 I1Cent=           0 NGrid=           0
         NMat0=   20 NMatS0=     20 NMatT0=    0 NMatD0=   20 NMtDS0=    0 NMtDT0=    0
 Symmetry not used in FoFCou.
 FMM levels:  10  Number of levels for PrismC:   9
 New state      2 was old state      4
 New state      3 was old state      7
 New state      4 was old state      6
 New state      5 was old state      2
 Excitation Energies [eV] at current iteration:
 Root      1 :     2.322447550787890
 Root      2 :     2.407759450022130
 Root      3 :     2.597317665616673
 Root      4 :     2.615404893193945
 Root      5 :     2.653360449103272
 Root      6 :     2.707030714261371
 Root      7 :     3.160507546209868
 Root      8 :     3.178551960594772
 Root      9 :     3.630889149855263
 Root     10 :     3.689508243738850
 Root     11 :     3.736811347672786
 Root     12 :     3.757697252014542
 Root     13 :     4.126718418594199
 Root     14 :     4.164837559411972
 Root     15 :     4.228317727497567
 Root     16 :     4.277820128515883
 Root     17 :     4.354730914640704
 Root     18 :     4.634352604687901
 Root     19 :     4.657779696362548
 Root     20 :     4.801620277924244
 Iteration     2 Dimension    30 NMult    20 NNew     10
 CISAX will form    10 AO SS matrices at one time.
 NMat=    10 NSing=    10 JSym2X= 0.
 New state      1 was old state      5
 Root      1 not converged, maximum delta is    0.131393234855191
 New state      2 was old state      3
 Root      2 not converged, maximum delta is    0.186342032626348
 New state      3 was old state      4
 Root      3 not converged, maximum delta is    0.210750795388039
 New state      4 was old state      1
 Root      4 not converged, maximum delta is    0.337436799509421
 New state      5 was old state      6
 Root      5 not converged, maximum delta is    0.583798343737191
 Excitation Energies [eV] at current iteration:
 Root      1 :     1.773035715021521   Change is   -0.880324734081751
 Root      2 :     2.187902340025758   Change is   -0.409415325590915
 Root      3 :     2.231218428370576   Change is   -0.384186464823368
 Root      4 :     2.292239738839605   Change is   -0.030207811948285
 Root      5 :     2.325659022307565   Change is   -0.381371691953805
 Iteration     3 Dimension    40 NMult    30 NNew     10
 CISAX will form    10 AO SS matrices at one time.
 NMat=    10 NSing=    10 JSym2X= 0.
 Root      1 not converged, maximum delta is    0.050575779424383
 New state      2 was old state      4
 Root      2 not converged, maximum delta is    0.379277402891625
 New state      3 was old state      2
 Root      3 not converged, maximum delta is    0.244344429386811
 New state      4 was old state      3
 Root      4 not converged, maximum delta is    0.033907049656651
 Root      5 not converged, maximum delta is    0.206255682300283
 Excitation Energies [eV] at current iteration:
 Root      1 :     1.670102179404173   Change is   -0.102933535617348
 Root      2 :     1.772788921962251   Change is   -0.519450816877353
 Root      3 :     2.174667722864628   Change is   -0.013234617161130
 Root      4 :     2.193034888911813   Change is   -0.038183539458763
 Root      5 :     2.314968159267918   Change is   -0.010690863039647
 Iteration     4 Dimension    50 NMult    40 NNew     10
 CISAX will form    10 AO SS matrices at one time.
 NMat=    10 NSing=    10 JSym2X= 0.
 Root      1 not converged, maximum delta is    0.017427270920885
 Root      2 not converged, maximum delta is    0.046770936545385
 Root      3 not converged, maximum delta is    0.008477063006442
 Root      4 not converged, maximum delta is    0.006574676939425
 Root      5 not converged, maximum delta is    0.002176016089133
 Excitation Energies [eV] at current iteration:
 Root      1 :     1.653428685517568   Change is   -0.016673493886605
 Root      2 :     1.690167011865886   Change is   -0.082621910096365
 Root      3 :     2.166414411140404   Change is   -0.008253311724223
 Root      4 :     2.186199804612490   Change is   -0.006835084299323
 Root      5 :     2.314896657071260   Change is   -0.000071502196658
 Iteration     5 Dimension    60 NMult    50 NNew     10
 CISAX will form    10 AO SS matrices at one time.
 NMat=    10 NSing=    10 JSym2X= 0.
 Root      1 not converged, maximum delta is    0.005212025088001
 Root      2 not converged, maximum delta is    0.009836596895827
 Root      3 not converged, maximum delta is    0.001941002912096
 Root      4 not converged, maximum delta is    0.001938535361107
 Root      5 has converged.
 Excitation Energies [eV] at current iteration:
 Root      1 :     1.651699392434032   Change is   -0.001729293083536
 Root      2 :     1.680016166520998   Change is   -0.010150845344887
 Root      3 :     2.165602292247780   Change is   -0.000812118892625
 Root      4 :     2.185482448928784   Change is   -0.000717355683706
 Root      5 :     2.314889264475044   Change is   -0.000007392596216
 Iteration     6 Dimension    68 NMult    60 NNew      8
 CISAX will form     8 AO SS matrices at one time.
 NMat=     8 NSing=     8 JSym2X= 0.
 Root      1 not converged, maximum delta is    0.001047994213096
 Root      2 not converged, maximum delta is    0.003057107462905
 Root      3 has converged.
 Root      4 has converged.
 Root      5 has converged.
 Excitation Energies [eV] at current iteration:
 Root      1 :     1.651466655890214   Change is   -0.000232736543818
 Root      2 :     1.678809723076619   Change is   -0.001206443444379
 Root      3 :     2.165481084441623   Change is   -0.000121207806156
 Root      4 :     2.185372554064931   Change is   -0.000109894863853
 Root      5 :     2.314888303982690   Change is   -0.000000960492354
 Iteration     7 Dimension    72 NMult    68 NNew      4
 CISAX will form     4 AO SS matrices at one time.
 NMat=     4 NSing=     4 JSym2X= 0.
 Root      1 has converged.
 Root      2 has converged.
 Root      3 has converged.
 Root      4 has converged.
 Root      5 has converged.
 Excitation Energies [eV] at current iteration:
[...]
 Alpha virt. eigenvalues --    1.84951   1.85085   1.85280   1.85357   1.85435
 Alpha virt. eigenvalues --    1.85653   1.85769   1.85925   1.86135   1.86306
 Alpha virt. eigenvalues --    1.86505   1.86508   1.86708   1.86968   1.87018
 Alpha virt. eigenvalues --    1.87156   1.87295   1.87329   1.87594   1.87822
 Alpha virt. eigenvalues --    1.87914   1.88124   1.88259   1.88364   1.88497
 Alpha virt. eigenvalues --    1.88792   1.88883   1.89019   1.89088   1.89229
 Alpha virt. eigenvalues --    1.89778   1.89948   1.89977   1.90388   1.90645
 Alpha virt. eigenvalues --    1.90839   1.90984   1.91050   1.91342   1.91500
 Alpha virt. eigenvalues --    1.91692   1.91780   1.92115   1.92244   1.92609
 Alpha virt. eigenvalues --    1.92814   1.92894   1.93157   1.93527   1.93828
 Alpha virt. eigenvalues --    1.94026   1.94158   1.94699   1.94914   1.95303
 Alpha virt. eigenvalues --    1.95554   1.95636   1.95889   1.95926   1.96027
 Alpha virt. eigenvalues --    1.96321   1.96362   1.96625   1.96759   1.96991
 Alpha virt. eigenvalues --    1.97066   1.97425   1.97518   1.97822   1.97876
 Alpha virt. eigenvalues --    1.98223   1.98305   1.98369   1.98498   1.98656
 Alpha virt. eigenvalues --    1.99105   1.99298   1.99732   1.99822   2.00232
 Alpha virt. eigenvalues --    2.00520   2.00860   2.01045   2.01231   2.01419
 Alpha virt. eigenvalues --    2.01501   2.01735   2.01797   2.02049   2.02412
 Alpha virt. eigenvalues --    2.02764   2.02917   2.03174   2.03283   2.03387
 Alpha virt. eigenvalues --    2.03557   2.03826   2.04199   2.04361   2.04565
 Alpha virt. eigenvalues --    2.04805   2.05135   2.05424   2.05846   2.06118
 Alpha virt. eigenvalues --    2.06444   2.06898   2.07102   2.07247   2.07480
 Alpha virt. eigenvalues --    2.07939   2.08528   2.08941   2.09032   2.09195
 Alpha virt. eigenvalues --    2.09730   2.10095   2.11085   2.11258   2.11455
 Alpha virt. eigenvalues --    2.11547   2.11603   2.11913   2.12327   2.12474
 Alpha virt. eigenvalues --    2.12555   2.12675   2.12982   2.13295   2.13326
 Alpha virt. eigenvalues --    2.13579   2.13736   2.14263   2.14300   2.14957
 Alpha virt. eigenvalues --    2.15575   2.15804   2.16141   2.16266   2.16734
 Alpha virt. eigenvalues --    2.16849   2.17200   2.17492   2.17638   2.17890
 Alpha virt. eigenvalues --    2.18027   2.18086   2.18311   2.18560   2.18894
 Alpha virt. eigenvalues --    2.18986   2.19217   2.19529   2.19839   2.20062
 Alpha virt. eigenvalues --    2.20371   2.20556   2.20720   2.20897   2.21329
 Alpha virt. eigenvalues --    2.21593   2.21853   2.22013   2.22171   2.22693
 Alpha virt. eigenvalues --    2.23146   2.23269   2.23495   2.24414   2.24591
 Alpha virt. eigenvalues --    2.25166   2.25518   2.26309   2.26559   2.26724
 Alpha virt. eigenvalues --    2.26997   2.27128   2.27524   2.28003   2.28446
 Alpha virt. eigenvalues --    2.28697   2.28780   2.29663   2.29814   2.29949
 Alpha virt. eigenvalues --    2.30171   2.30682   2.30809   2.30931   2.31233
 Alpha virt. eigenvalues --    2.31317   2.32180   2.32685   2.33052   2.33393
 Alpha virt. eigenvalues --    2.33496   2.33743   2.33992   2.34227   2.34710
 Alpha virt. eigenvalues --    2.35343   2.35478   2.35789   2.36238   2.36634
 Alpha virt. eigenvalues --    2.36776   2.36920   2.37651   2.37823   2.38473
 Alpha virt. eigenvalues --    2.38745   2.39021   2.39104   2.39738   2.40094
 Alpha virt. eigenvalues --    2.40263   2.40306   2.40502   2.40675   2.41019
 Alpha virt. eigenvalues --    2.41350   2.41374   2.41927   2.41963   2.42533
 Alpha virt. eigenvalues --    2.42542   2.43025   2.43135   2.43382   2.43779
 Alpha virt. eigenvalues --    2.44382   2.44830   2.44857   2.45114   2.45309
 Alpha virt. eigenvalues --    2.45571   2.45868   2.46169   2.46264   2.46544
 Alpha virt. eigenvalues --    2.46777   2.46890   2.46999   2.47447   2.47585
 Alpha virt. eigenvalues --    2.47964   2.48308   2.49393   2.49631   2.49979
 Alpha virt. eigenvalues --    2.50330   2.50531   2.51060   2.51342   2.51454
 Alpha virt. eigenvalues --    2.51863   2.52332   2.52576   2.52722   2.53011
 Alpha virt. eigenvalues --    2.53401   2.53966   2.54167   2.54285   2.54387
 Alpha virt. eigenvalues --    2.54778   2.55319   2.55744   2.56125   2.57773
 Alpha virt. eigenvalues --    2.58109   2.58863   2.59216   2.59694   2.60078
 Alpha virt. eigenvalues --    2.60344   2.60661   2.61144   2.61946   2.62361
 Alpha virt. eigenvalues --    2.62661   2.63108   2.63325   2.63451   2.64018
 Alpha virt. eigenvalues --    2.64429   2.64574   2.64979   2.65131   2.65365
 Alpha virt. eigenvalues --    2.65909   2.66078   2.66910   2.67054   2.67219
 Alpha virt. eigenvalues --    2.67417   2.68160   2.68373   2.68841   2.69051
 Alpha virt. eigenvalues --    2.69330   2.69380   2.69735   2.70160   2.70256
 Alpha virt. eigenvalues --    2.70295   2.71152   2.71323   2.71978   2.72061
 Alpha virt. eigenvalues --    2.72474   2.72604   2.72769   2.72899   2.73152
 Alpha virt. eigenvalues --    2.73414   2.73493   2.74083   2.74580   2.74768
 Alpha virt. eigenvalues --    2.75208   2.75372   2.76623   2.76996   2.77086
 Alpha virt. eigenvalues --    2.77310   2.77636   2.78104   2.78314   2.78617
 Alpha virt. eigenvalues --    2.78819   2.79223   2.79268   2.80210   2.80457
 Alpha virt. eigenvalues --    2.80539   2.80771   2.81013   2.81206   2.81377
 Alpha virt. eigenvalues --    2.82066   2.82230   2.82366   2.82580   2.83602
 Alpha virt. eigenvalues --    2.83778   2.83907   2.84283   2.84741   2.84932
 Alpha virt. eigenvalues --    2.85122   2.85232   2.86107   2.86470   2.86944
 Alpha virt. eigenvalues --    2.87159   2.87348   2.87864   2.88266   2.88577
 Alpha virt. eigenvalues --    2.88677   2.88793   2.89305   2.90642   2.90776
 Alpha virt. eigenvalues --    2.90959   2.91978   2.92392   2.93348   2.93535
 Alpha virt. eigenvalues --    2.93861   2.94785   2.94932   2.95386   2.95501
 Alpha virt. eigenvalues --    2.95780   2.95838   2.96169   2.96770   2.96876
 Alpha virt. eigenvalues --    2.97028   2.97827   2.98156   2.98386   2.98442
 Alpha virt. eigenvalues --    2.98499   2.98751   2.98832   2.99029   2.99106
 Alpha virt. eigenvalues --    2.99651   2.99848   2.99947   3.00060   3.00101
 Alpha virt. eigenvalues --    3.00785   3.01018   3.01225   3.01781   3.01984
 Alpha virt. eigenvalues --    3.02050   3.02444   3.02468   3.02852   3.02980
 Alpha virt. eigenvalues --    3.03438   3.03739   3.03884   3.04066   3.04361
 Alpha virt. eigenvalues --    3.04564   3.04661   3.04906   3.05131   3.05836
 Alpha virt. eigenvalues --    3.05953   3.06281   3.06515   3.07063   3.07080
 Alpha virt. eigenvalues --    3.07267   3.08410   3.08743   3.09227   3.09778
 Alpha virt. eigenvalues --    3.10206   3.10468   3.10767   3.10914   3.11438
 Alpha virt. eigenvalues --    3.11736   3.11879   3.11913   3.12362   3.13140
 Alpha virt. eigenvalues --    3.13336   3.13567   3.13758   3.14019   3.14135
 Alpha virt. eigenvalues --    3.14465   3.14995   3.16103   3.17175   3.17452
 Alpha virt. eigenvalues --    3.17594   3.18569   3.18719   3.19810   3.20170
 Alpha virt. eigenvalues --    3.21942   3.22583   3.24011   3.24502   3.24537
 Alpha virt. eigenvalues --    3.25211   3.26606   3.26715   3.27406   3.27776
 Alpha virt. eigenvalues --    3.28667   3.29188   3.31439   3.31461   3.33225
 Alpha virt. eigenvalues --    3.33451   3.40209   3.40232   3.42820   3.43102
 Alpha virt. eigenvalues --    3.48643   3.48694   3.50213   3.50333   3.50886
 Alpha virt. eigenvalues --    3.51510   3.56708   3.57168   3.59358   3.59667
 Alpha virt. eigenvalues --    3.62615   3.62963   3.66199   3.66835   3.67480
 Alpha virt. eigenvalues --    3.68544   3.72904   3.73980   3.75811   3.76641
          Condensed to atoms (all electrons):
 Mulliken charges:
               1
     1  Mg   0.576015
     2  C   -0.002725
     3  C   -0.092853
     4  C   -0.037907
     5  C   -0.044447
     6  N   -0.247862
     7  C   -0.056568
     8  C   -0.012635
     9  C   -0.086263
    10  C    0.046083
    11  C    0.104858
    12  C    0.051018
    13  C   -0.071426
    14  H    0.033528
    15  N   -0.420671
    16  C    0.169269
    17  C   -0.179033
    18  C   -0.003584
    19  C    0.149020
    20  C    0.110783
    21  C    0.013191
    22  O   -0.246938
    23  C    0.062372
    24  N   -0.321551
    25  C    0.029014
    26  C   -0.017379
    27  C   -0.021917
    28  C    0.059794
    29  C    0.078239
    30  C    0.060319
    31  C    0.020443
    32  N   -0.309510
    33  C    0.067525
    34  C   -0.168280
    35  C    0.007674
    36  C    0.077146
    37  C    0.127899
    38  C    0.044371
    39  O   -0.188289
    40  C   -0.007181
    41  C    0.214217
    42  O   -0.263097
    43  O   -0.303082
    44  C    0.157531
    45  H   -0.018884
    46  H   -0.014835
    47  H   -0.040799
    48  H    0.000973
    49  H   -0.004297
    50  H    0.025700
    51  H    0.017791
    52  H    0.016991
    53  H    0.011074
    54  H    0.041106
    55  H    0.019549
    56  H    0.019211
    57  H    0.005847
    58  H    0.027447
    59  H    0.039984
    60  H    0.037255
    61  H    0.036881
    62  H    0.031597
    63  H    0.019720
    64  H    0.006684
    65  H    0.023107
    66  H    0.010368
    67  H    0.004515
    68  H   -0.002225
    69  H   -0.006163
    70  H    0.004975
    71  H    0.006267
    72  H    0.005850
    73  H    0.046465
    74  H    0.011312
    75  H    0.046200
    76  H    0.036256
    77  H    0.044683
    78  H    0.046957
    79  H    0.051224
    80  Mg   0.838560
    81  C   -0.016508
    82  C   -0.089059
    83  C   -0.046341
    84  C   -0.065314
    85  N   -0.254286
    86  C   -0.049881
    87  C   -0.015240
    88  C   -0.089728
    89  C    0.043788
    90  C    0.114035
    91  C    0.062574
    92  C   -0.077368
    93  H    0.033445
    94  N   -0.423622
    95  C    0.160855
    96  C   -0.177866
    97  C    0.008385
    98  C    0.152615
    99  C    0.078234
   100  C    0.061214
   101  O   -0.244357
   102  C   -0.079378
   103  N   -0.350512
   104  C    0.037827
   105  C   -0.020017
   106  C   -0.034824
   107  C    0.089378
   108  C    0.073420
   109  C    0.034791
   110  C   -0.007636
   111  N   -0.324017
   112  C    0.078522
   113  C   -0.163489
   114  C    0.002419
   115  C    0.095908
   116  C    0.131524
   117  C    0.042208
   118  O   -0.188183
   119  C    0.000971
   120  C    0.211271
   121  O   -0.251382
   122  O   -0.305421
   123  C    0.152174
   124  H   -0.008760
   125  H   -0.016614
   126  H   -0.040780
   127  H   -0.000764
   128  H   -0.003259
   129  H    0.021272
   130  H    0.016816
   131  H    0.018293
   132  H    0.013638
   133  H    0.037031
   134  H    0.021117
   135  H    0.019339
   136  H    0.022082
   137  H    0.051761
   138  H    0.054453
   139  H    0.135168
   140  H    0.122970
   141  H    0.120699
   142  H    0.014013
   143  H    0.012454
   144  H    0.023877
   145  H    0.012155
   146  H    0.006029
   147  H    0.005962
   148  H    0.003617
   149  H    0.011099
   150  H    0.017832
   151  H    0.030153
   152  H    0.045694
   153  H    0.008327
   154  H    0.046939
   155  H    0.035343
   156  H    0.043801
   157  H    0.049418
   158  H    0.053235
 Sum of Mulliken charges =  -0.00000
 Mulliken charges with hydrogens summed into heavy atoms:
               1
     1  Mg   0.576015
     2  C   -0.002725
     3  C   -0.111737
     4  C   -0.052741
     5  C   -0.085246
     6  N   -0.247862
     7  C   -0.056568
     8  C   -0.011663
     9  C   -0.090559
    10  C    0.046083
    11  C    0.165340
    12  C    0.103199
    13  C    0.000863
    15  N   -0.420671
    16  C    0.169269
    17  C   -0.179033
    18  C   -0.003584
    19  C    0.149020
    20  C    0.184061
    21  C    0.013191
    22  O   -0.246938
    23  C    0.168106
    24  N   -0.321551
    25  C    0.029014
    26  C    0.002341
    27  C   -0.015234
    28  C    0.059794
    29  C    0.116230
    30  C    0.051930
    31  C    0.037534
    32  N   -0.309510
    33  C    0.067525
    34  C   -0.168280
    35  C    0.007674
    36  C    0.077146
    37  C    0.231876
    38  C    0.044371
    39  O   -0.188289
    40  C    0.029076
    41  C    0.214217
    42  O   -0.263097
    43  O   -0.303082
    44  C    0.300395
    80  Mg   0.838560
    81  C   -0.016508
    82  C   -0.097819
    83  C   -0.062955
    84  C   -0.106094
    85  N   -0.254286
    86  C   -0.049881
    87  C   -0.016004
    88  C   -0.092986
    89  C    0.043788
    90  C    0.170416
    91  C    0.113243
    92  C   -0.003467
    94  N   -0.423622
    95  C    0.160855
    96  C   -0.177866
    97  C    0.008385
    98  C    0.152615
    99  C    0.206530
   100  C    0.061214
   101  O   -0.244357
   102  C    0.299459
   103  N   -0.350512
   104  C    0.037827
   105  C   -0.006004
   106  C   -0.022370
   107  C    0.089378
   108  C    0.115480
   109  C    0.044370
   110  C    0.051448
   111  N   -0.324017
   112  C    0.078522
   113  C   -0.163489
   114  C    0.002419
   115  C    0.095908
   116  C    0.232484
   117  C    0.042208
   118  O   -0.188183
   119  C    0.036314
   120  C    0.211271
   121  O   -0.251382
   122  O   -0.305421
   123  C    0.298628
 Electronic spatial extent (au):  <R**2>=         102842.8830
 Charge=             -0.0000 electrons
 Dipole moment (field-independent basis, Debye):
    X=              4.3387    Y=              2.7912    Z=              2.4596  Tot=              5.7153
 Quadrupole moment (field-independent basis, Debye-Ang):
   XX=           -553.0843   YY=           -470.7416   ZZ=           -511.6517
   XY=             14.9233   XZ=             34.4875   YZ=             39.2521
 Traceless Quadrupole moment (field-independent basis, Debye-Ang):
   XX=            -41.2584   YY=             41.0843   ZZ=              0.1741
   XY=             14.9233   XZ=             34.4875   YZ=             39.2521
 Octapole moment (field-independent basis, Debye-Ang**2):
  XXX=            716.9881  YYY=            252.0023  ZZZ=            208.2541  XYY=           -236.8995
  XXY=            -55.4648  XXZ=            -41.6176  XZZ=             12.0102  YZZ=            -15.4132
  YYZ=            -51.6778  XYZ=            115.4785
 Hexadecapole moment (field-independent basis, Debye-Ang**3):
 XXXX=         -95020.3770 YYYY=         -33700.2307 ZZZZ=         -16593.1502 XXXY=            655.9127
 XXXZ=           1020.4604 YYYX=            346.3973 YYYZ=            445.8273 ZZZX=            816.1750
 ZZZY=            479.3922 XXYY=         -18546.3636 XXZZ=         -17367.6947 YYZZ=          -9096.1810
 XXYZ=           1436.1176 YYXZ=           -413.8968 ZZXY=           -358.3914
 N-N= 1.579871845223D+04 E-N=-4.107808212460D+04  KE= 4.028911157206D+03
 Leave Link  601 at Fri Sep 10 08:48:07 2021, MaxMem= 23488102400 cpu:              16.5 elap:               0.8
 (Enter /sw/apps/gaussian-16.0/g16/l9999.exe)
 1\1\GINC-BP1-COMPUTE00091\SP\RCAM-B3LYP TD-FC\def2SVP\C68H72Mg2N8O8\OF
 15641\10-Sep-2021\0\\#p cam-b3lyp/Def2SVP td=(nstates=5)\\TDDFT excite
 d states in gaussian\\0,1\Mg,0,0.,0.,0.\C,0,-0.217,-2.218,2.801\C,0,-1
 .255,2.442,2.026\C,0,-0.245,1.85,-2.564\C,0,0.146,-2.824,-2.037\N,0,-0
 .617,-0.009,2.126\C,0,-0.594,-0.908,3.105\C,0,-0.936,-0.309,4.502\C,0,
 -1.773,0.964,4.032\C,0,-1.155,1.168,2.66\C,0,-3.263,0.685,3.863\C,0,0.
 345,0.11,5.299\C,0,0.124,0.397,6.787\H,0,1.168,0.033,7.733\N,0,-0.185,
 1.961,-0.152\C,0,-0.703,2.8,0.777\C,0,-0.62,4.156,0.193\C,0,-0.187,4.0
 15,-1.225\C,0,-0.214,2.583,-1.38\C,0,-0.887,5.406,0.974\C,0,0.181,5.01
 3,-2.277\O,0,0.303,4.69,-3.508\C,0,0.31,6.414,-1.837\N,0,-0.265,-0.413
 ,-2.029\C,0,-0.279,0.569,-2.937\C,0,-0.196,0.024,-4.332\C,0,0.124,-1.5
 33,-4.18\C,0,0.086,-1.632,-2.635\C,0,-1.451,0.205,-5.197\C,0,1.373,-2.
 07,-4.923\C,0,2.626,-1.49,-4.306\N,0,0.15,-2.144,0.303\C,0,0.173,-3.13
 6,-0.688\C,0,0.173,-4.438,0.004\C,0,0.133,-4.111,1.358\C,0,0.083,-2.69
 5,1.502\C,0,0.149,-5.715,-0.623\C,0,0.096,-4.629,2.716\O,0,0.208,-5.74
 7,3.221\C,0,-0.255,-3.428,3.701\C,0,0.717,-3.482,4.848\O,0,1.931,-3.25
 5,4.669\O,0,0.038,-3.556,6.003\C,0,0.943,-3.583,7.183\H,0,-1.859,3.22,
 2.497\H,0,-0.218,2.453,-3.474\H,0,0.276,-3.747,-2.605\H,0,-1.554,-0.94
 9,5.132\H,0,-1.585,1.831,4.665\H,0,-3.484,-0.377,3.969\H,0,-3.511,1.02
 7,2.858\H,0,-3.852,1.301,4.543\H,0,0.669,1.096,4.966\H,0,1.13,-0.639,5
 .189\H,0,-0.844,0.026,7.125\H,0,0.062,1.477,6.921\H,0,-1.344,5.186,1.9
 38\H,0,-1.651,5.963,0.432\H,0,0.007,6.02,1.084\H,0,-0.635,6.744,-1.405
 \H,0,0.665,6.97,-2.704\H,0,1.048,6.466,-1.036\H,0,0.608,0.501,-4.891\H
 ,0,-0.692,-2.156,-4.547\H,0,-1.267,0.74,-6.129\H,0,-2.204,0.714,-4.596
 \H,0,-1.967,-0.72,-5.453\H,0,1.356,-1.759,-5.967\H,0,1.452,-3.157,-4.9
 02\H,0,2.714,-0.522,-4.798\H,0,3.487,-2.121,-4.529\H,0,2.495,-1.303,-3
 .24\H,0,0.867,-6.333,-0.084\H,0,0.404,-5.642,-1.68\H,0,-0.891,-5.999,-
 0.463\H,0,-1.283,-3.581,4.028\H,0,0.698,-4.478,7.755\H,0,0.833,-2.619,
 7.68\H,0,2.,-3.754,6.976\Mg,0,8.92851,0.81117,0.68441\C,0,11.16149,1.4
 2961,3.42492\C,0,6.67828,-0.34308,2.97325\C,0,7.1183,-0.1614,-1.73317\
 C,0,11.70331,0.9254,-1.42109\N,0,9.0234,0.61905,2.88585\C,0,9.89926,0.
 9436,3.82493\C,0,9.36485,0.81125,5.27629\C,0,8.20762,-0.26955,5.0088\C
 ,0,7.92038,0.03817,3.54065\C,0,8.69129,-1.70663,5.10983\C,0,8.77649,2.
 15965,5.82189\C,0,8.5207,2.18598,7.33041\H,0,8.73889,3.43686,8.05164\N
 ,0,6.99992,0.34627,0.63\C,0,6.23715,-0.08329,1.6571\C,0,4.8957,-0.3067
 3,1.09606\C,0,4.96948,-0.1318,-0.37997\C,0,6.40098,0.00706,-0.55774\C,
 0,3.69019,-0.57183,1.95039\C,0,3.92567,-0.10789,-1.45519\O,0,4.23602,-
 0.18066,-2.69665\C,0,2.52497,-0.09097,-1.00884\N,0,9.36988,0.2256,-1.2
 6101\C,0,8.39132,-0.09902,-2.12412\C,0,8.9234,-0.21815,-3.53234\C,0,10
 .42342,0.3332,-3.47292\C,0,10.53347,0.60437,-1.95643\C,0,8.92221,-1.62
 624,-4.12703\C,0,10.79232,1.47696,-4.457\C,0,10.04485,2.73769,-4.08654
 \N,0,11.02246,1.29968,0.89601\C,0,12.01399,1.25723,-0.10856\C,0,13.305
 22,1.56256,0.54101\C,0,12.97602,1.74023,1.89325\C,0,11.58137,1.53858,2
 .07711\C,0,14.57347,1.59705,-0.10433\C,0,13.49284,2.04205,3.20873\O,0,
 14.58635,2.38788,3.65414\C,0,12.36104,1.72999,4.28019\C,0,12.27573,2.9
 0113,5.22022\O,0,11.89941,4.01369,4.81131\O,0,12.44174,2.46596,6.48253
 \C,0,12.35433,3.58976,7.45271\H,0,5.99091,-0.93435,3.57889\H,0,6.52288
 ,-0.38895,-2.62039\H,0,12.60018,1.07645,-2.02565\H,0,10.0804,0.42092,5
 .99001\H,0,7.33091,-0.06877,5.61907\H,0,9.76309,-1.76357,5.22881\H,0,8
 .38702,-2.18492,4.18804\H,0,8.15861,-2.22827,5.91013\H,0,7.74863,2.276
 28,5.45497\H,0,9.4014,2.98697,5.54684\H,0,9.0141,1.35357,7.84674\H,0,7
 .45549,2.01589,7.50478\H,0,3.9734,-0.80779,2.9836\H,0,3.23045,-1.4935,
 1.57753\H,0,2.95482,0.23418,1.90294\H,0,2.33106,-0.96709,-0.39462\H,0,
 1.92984,0.01543,-1.9179\H,0,2.37302,0.78361,-0.36647\H,0,8.35,0.39618,
 -4.21566\H,0,11.15618,-0.45344,-3.70548\H,0,8.3569,-1.69908,-5.07528\H
 ,0,8.51817,-2.30764,-3.39015\H,0,9.90766,-2.04845,-4.3163\H,0,10.48086
 ,1.2184,-5.47203\H,0,11.85527,1.69138,-4.49107\H,0,9.06932,2.59459,-4.
 56083\H,0,10.5521,3.61453,-4.48389\H,0,9.88011,2.79391,-3.00425\H,0,15
 .08877,2.47228,0.26841\H,0,14.46806,1.62771,-1.18679\H,0,14.99362,0.64
 844,0.24048\H,0,12.64238,0.81092,4.79568\H,0,13.2773,3.5768,8.04063\H,
 0,11.40564,3.43793,8.00106\H,0,12.37107,4.59771,7.05496\\Version=ES64L
 -G16RevA.03\State=1-A\HF=-4069.7999219\RMSD=7.924e-09\PG=C01 [X(C68H72
 Mg2N8O8)]\\@


 In the beginning the Universe was created.
 This has made a lot of people very angry
 and been widely regarded as a bad move.
                               -D.Adams
 Job cpu time:       0 days 17 hours 19 minutes 48.3 seconds.
 Elapsed time:       0 days  0 hours 44 minutes  0.9 seconds.
 File lengths (MBytes):  RWF=  13225 Int=      0 D2E=      0 Chk=    574 Scr=      1
 Normal termination of Gaussian 16 at Fri Sep 10 08:48:08 2021.
