 Entering Gaussian System, Link 0=g16
 Initial command:
 /sw/apps/gaussian-16.0/g16/l1.exe "/tmp/Gau-211667.inp" -scrdir="/tmp/"
 Entering Link 1 = /sw/apps/gaussian-16.0/g16/l1.exe PID=    211668.
  
 Copyright (c) 1988,1990,1992,1993,1995,1998,2003,2009,2016,
            Gaussian, Inc.  All Rights Reserved.
  
 This is part of the Gaussian(R) 16 program.  It is based on
 the Gaussian(R) 09 system (copyright 2009, Gaussian, Inc.),
 the Gaussian(R) 03 system (copyright 2003, Gaussian, Inc.),
 the Gaussian(R) 98 system (copyright 1998, Gaussian, Inc.),
 the Gaussian(R) 94 system (copyright 1995, Gaussian, Inc.),
 the Gaussian 92(TM) system (copyright 1992, Gaussian, Inc.),
 the Gaussian 90(TM) system (copyright 1990, Gaussian, Inc.),
 the Gaussian 88(TM) system (copyright 1988, Gaussian, Inc.),
 the Gaussian 86(TM) system (copyright 1986, Carnegie Mellon
 University), and the Gaussian 82(TM) system (copyright 1983,
 Carnegie Mellon University). Gaussian is a federally registered
 trademark of Gaussian, Inc.
  
 This software contains proprietary and confidential information,
 including trade secrets, belonging to Gaussian, Inc.
  
 This software is provided under written license and may be
 used, copied, transmitted, or stored only in accord with that
 written license.
  
 The following legend is applicable only to US Government
 contracts under FAR:
  
                    RESTRICTED RIGHTS LEGEND
  
 Use, reproduction and disclosure by the US Government is
 subject to restrictions as set forth in subparagraphs (a)
 and (c) of the Commercial Computer Software - Restricted
 Rights clause in FAR 52.227-19.
  
 Gaussian, Inc.
 340 Quinnipiac St., Bldg. 40, Wallingford CT 06492
  
  
 ---------------------------------------------------------------
 Warning -- This program may not be used in any manner that
 competes with the business of Gaussian, Inc. or will provide
 assistance to any competitor of Gaussian, Inc.  The licensee
 of this program is prohibited from giving any competitor of
 Gaussian, Inc. access to this program.  By using this program,
 the user acknowledges that Gaussian, Inc. is engaged in the
 business of creating and licensing software in the field of
 computational chemistry and represents and warrants to the
 licensee that it is not a competitor of Gaussian, Inc. and that
 it will not use this program in any manner prohibited above.
 ---------------------------------------------------------------
  

 Cite this work as:
 Gaussian 16, Revision A.03,
 M. J. Frisch, G. W. Trucks, H. B. Schlegel, G. E. Scuseria, 
 M. A. Robb, J. R. Cheeseman, G. Scalmani, V. Barone, 
 G. A. Petersson, H. Nakatsuji, X. Li, M. Caricato, A. V. Marenich, 
 J. Bloino, B. G. Janesko, R. Gomperts, B. Mennucci, H. P. Hratchian, 
 J. V. Ortiz, A. F. Izmaylov, J. L. Sonnenberg, D. Williams-Young, 
 F. Ding, F. Lipparini, F. Egidi, J. Goings, B. Peng, A. Petrone, 
 T. Henderson, D. Ranasinghe, V. G. Zakrzewski, J. Gao, N. Rega, 
 G. Zheng, W. Liang, M. Hada, M. Ehara, K. Toyota, R. Fukuda, 
 J. Hasegawa, M. Ishida, T. Nakajima, Y. Honda, O. Kitao, H. Nakai, 
 T. Vreven, K. Throssell, J. A. Montgomery, Jr., J. E. Peralta, 
 F. Ogliaro, M. J. Bearpark, J. J. Heyd, E. N. Brothers, K. N. Kudin, 
 V. N. Staroverov, T. A. Keith, R. Kobayashi, J. Normand, 
 K. Raghavachari, A. P. Rendell, J. C. Burant, S. S. Iyengar, 
 J. Tomasi, M. Cossi, J. M. Millam, M. Klene, C. Adamo, R. Cammi, 
 J. W. Ochterski, R. L. Martin, K. Morokuma, O. Farkas, 
 J. B. Foresman, and D. J. Fox, Gaussian, Inc., Wallingford CT, 2016.
 
 ******************************************
 Gaussian 16:  ES64L-G16RevA.03 25-Dec-2016
                11-Sep-2021 
 ******************************************
 %nproc=24
 Will use up to   24 processors via shared memory.
 %mem=175gb
 -----------------------------------
 #p cam-b3lyp/Def2SVP td=(nstates=5)
 -----------------------------------
 1/38=1,172=1/1;
 2/12=2,17=6,18=5,40=1/2;
 3/5=43,7=101,11=9,25=1,30=1,74=-40/1,2,3,8;
 4//1;
 5/5=2,38=5/2;
 8/6=1,10=1,108=5/1;
 9/41=5,42=1,70=2/14;
 6/7=2,8=2,9=2,10=2/1;
 99/5=1,9=1/99;
 Leave Link    1 at Sat Sep 11 03:59:27 2021, MaxMem= 23488102400 cpu:               0.9 elap:               0.0
 (Enter /sw/apps/gaussian-16.0/g16/l101.exe)
 --------------------------------
 TDDFT excited states in gaussian
 --------------------------------
 Symbolic Z-matrix:
 Charge =  0 Multiplicity = 1
 Mg                    0.        0.        0. 
 C                    -0.217    -2.218     2.801 
 C                    -1.255     2.442     2.026 
 C                    -0.245     1.85     -2.564 
 C                     0.146    -2.824    -2.037 
 N                    -0.617    -0.009     2.126 
 C                    -0.594    -0.908     3.105 
 C                    -0.936    -0.309     4.502 
 C                    -1.773     0.964     4.032 
 C                    -1.155     1.168     2.66 
 C                    -3.263     0.685     3.863 
 C                     0.345     0.11      5.299 
 C                     0.124     0.397     6.787 
 H                     1.168     0.033     7.733 
 N                    -0.185     1.961    -0.152 
 C                    -0.703     2.8       0.777 
 C                    -0.62      4.156     0.193 
 C                    -0.187     4.015    -1.225 
 C                    -0.214     2.583    -1.38 
 C                    -0.887     5.406     0.974 
 C                     0.181     5.013    -2.277 
 O                     0.303     4.69     -3.508 
 C                     0.31      6.414    -1.837 
 N                    -0.265    -0.413    -2.029 
 C                    -0.279     0.569    -2.937 
 C                    -0.196     0.024    -4.332 
 C                     0.124    -1.533    -4.18 
 C                     0.086    -1.632    -2.635 
 C                    -1.451     0.205    -5.197 
 C                     1.373    -2.07     -4.923 
 C                     2.626    -1.49     -4.306 
 N                     0.15     -2.144     0.303 
 C                     0.173    -3.136    -0.688 
 C                     0.173    -4.438     0.004 
 C                     0.133    -4.111     1.358 
 C                     0.083    -2.695     1.502 
 C                     0.149    -5.715    -0.623 
 C                     0.096    -4.629     2.716 
 O                     0.208    -5.747     3.221 
 C                    -0.255    -3.428     3.701 
 C                     0.717    -3.482     4.848 
 O                     1.931    -3.255     4.669 
 O                     0.038    -3.556     6.003 
 C                     0.943    -3.583     7.183 
 H                    -1.859     3.22      2.497 
 H                    -0.218     2.453    -3.474 
 H                     0.276    -3.747    -2.605 
 H                    -1.554    -0.949     5.132 
 H                    -1.585     1.831     4.665 
 H                    -3.484    -0.377     3.969 
 H                    -3.511     1.027     2.858 
 H                    -3.852     1.301     4.543 
 H                     0.669     1.096     4.966 
 H                     1.13     -0.639     5.189 
 H                    -0.844     0.026     7.125 
 H                     0.062     1.477     6.921 
 H                    -1.344     5.186     1.938 
 H                    -1.651     5.963     0.432 
 H                     0.007     6.02      1.084 
 H                    -0.635     6.744    -1.405 
 H                     0.665     6.97     -2.704 
 H                     1.048     6.466    -1.036 
 H                     0.608     0.501    -4.891 
 H                    -0.692    -2.156    -4.547 
 H                    -1.267     0.74     -6.129 
 H                    -2.204     0.714    -4.596 
 H                    -1.967    -0.72     -5.453 
 H                     1.356    -1.759    -5.967 
 H                     1.452    -3.157    -4.902 
 H                     2.714    -0.522    -4.798 
 H                     3.487    -2.121    -4.529 
 H                     2.495    -1.303    -3.24 
 H                     0.867    -6.333    -0.084 
 H                     0.404    -5.642    -1.68 
 H                    -0.891    -5.999    -0.463 
 H                    -1.283    -3.581     4.028 
 H                     0.698    -4.478     7.755 
 H                     0.833    -2.619     7.68 
 H                     2.       -3.754     6.976 
 Mg                    13.1303   1.18589   1.00394 
 C                     14.78552   3.06762   3.57267 
 C                     11.94421  -0.85178   3.46882 
 C                     12.0341  -0.74856  -1.25962 
 C                     15.3244   2.63883  -1.28093 
 N                     13.39914   1.20817   3.19927 
 C                     13.99904   2.00711   4.06884 
 C                     13.67647   1.69767   5.55537 
 C                     13.27216   0.15161   5.3969 
 C                     12.80768   0.16831   3.94203 
 C                     14.45594  -0.79461   5.50952 
 C                     12.47734   2.55235   6.09723 
 C                     12.30641   2.52914   7.61776 
 H                     11.84593   3.74372   8.28502 
 N                     11.75346  -0.24082   1.08979 
 C                     11.38177  -0.9486    2.17707 
 C                     10.35004  -1.88845   1.71193 
 C                     10.26073  -1.79103   0.22962 
 C                     11.38504  -0.91905  -0.04545 
 C                     9.51027  -2.70493   2.65086 
 C                     9.32677  -2.3944   -0.7753 
 O                     9.57901  -2.36495  -2.03162 
 C                     8.15512  -3.10234  -0.23907 
 N                     13.74114   0.8106   -0.94757 
 C                     13.05772  -0.03872  -1.73466 
 C                     13.51517   0.06015  -3.1704 
 C                     14.48472   1.33077  -3.22586 
 C                     14.49068   1.71008  -1.7287 
 C                     14.24786  -1.16317  -3.72088 
 C                     14.14243   2.43234  -4.26608 
 C                     12.84957   3.11741  -3.88585 
 N                     14.63985   2.73048   1.06334 
 C                     15.45882   3.16421  -0.00214 
 C                     16.40768   4.15158   0.55211 
 C                     16.08749   4.20717   1.91698 
 C                     15.02821   3.30236   2.19762 
 C                     17.43238   4.81994  -0.1755 
 C                     16.41181   4.81771   3.18614 
 O                     17.1644   5.72108   3.54845 
 C                     15.66782   4.01424   4.33823 
 C                     15.00305   5.01254   5.24597 
 O                     14.07216   5.72405   4.82908 
 O                     15.42591   4.81112   6.50731 
 C                     14.786    5.77022   7.4467 
 H                     11.70654  -1.68104   4.1357 
 H                     11.62032  -1.31259  -2.09875 
 H                     15.97519   3.20923  -1.9471 
 H                     14.5168   1.79474   6.23227 
 H                     12.44947  -0.11116   6.05682 
 H                     15.39402  -0.26206   5.55985 
 H                     14.42083  -1.4163    4.62447 
 H                     14.31873  -1.47064   6.35833 
 H                     11.53453   2.07858   5.79492 
 H                     12.54837   3.56716   5.75703 
 H                     13.18953   2.12286   8.12567 
 H                     11.5073   1.82657   7.86644 
 H                     9.91586  -2.68966   3.67001 
 H                     9.60388  -3.75017   2.33689 
 H                     8.45575  -2.42191   2.62723 
 H                     8.48659  -3.90717   0.41273 
 H                     7.56125  -3.38611  -1.11008 
 H                     7.58205  -2.40765   0.38511 
 H                     12.67538   0.22973  -3.83304 
 H                     15.51574   1.04571  -3.48192 
 H                     13.77392  -1.58442  -4.62752 
 H                     14.30242  -1.90887  -2.9389 
 H                     15.29755  -1.00332  -3.96131 
 H                     13.97955   1.98632  -5.2503 
 H                     14.92125   3.17956  -4.37603 
 H                     12.08627   2.44625  -4.29082 
 H                     12.79011   4.10361  -4.34184 
 H                     12.72269   3.14227  -2.7973 
 H                     17.41053   5.85576   0.13612 
 H                     17.28499   4.72379  -1.24918 
 H                     18.30958   4.26616   0.16964 
 H                     16.41886   3.42146   4.86179 
 H                     15.59333   6.28864   7.97316 
 H                     14.08979   5.16804   8.06023 
 H                     14.24287   6.6045    7.01841 
 
 ITRead=  0  0  0  0  0  0  0  0  0  0  0  0  0  0  0  0  0  0  0  0
 ITRead=  0  0  0  0  0  0  0  0  0  0  0  0  0  0  0  0  0  0  0  0
 ITRead=  0  0  0  0  0  0  0  0  0  0  0  0  0  0  0  0  0  0  0  0
 ITRead=  0  0  0  0  0  0  0  0  0  0  0  0  0  0  0  0  0  0  0  0
 ITRead=  0  0  0  0  0  0  0  0  0  0  0  0  0  0  0  0  0  0  0  0
 ITRead=  0  0  0  0  0  0  0  0  0  0  0  0  0  0  0  0  0  0  0  0
 ITRead=  0  0  0  0  0  0  0  0  0  0  0  0  0  0  0  0  0  0  0  0
 ITRead=  0  0  0  0  0  0  0  0  0  0  0  0  0  0  0  0  0  0
 MicOpt= -1 -1 -1 -1 -1 -1 -1 -1 -1 -1 -1 -1 -1 -1 -1 -1 -1 -1 -1 -1
 MicOpt= -1 -1 -1 -1 -1 -1 -1 -1 -1 -1 -1 -1 -1 -1 -1 -1 -1 -1 -1 -1
 MicOpt= -1 -1 -1 -1 -1 -1 -1 -1 -1 -1 -1 -1 -1 -1 -1 -1 -1 -1 -1 -1
 MicOpt= -1 -1 -1 -1 -1 -1 -1 -1 -1 -1 -1 -1 -1 -1 -1 -1 -1 -1 -1 -1
 MicOpt= -1 -1 -1 -1 -1 -1 -1 -1 -1 -1 -1 -1 -1 -1 -1 -1 -1 -1 -1 -1
 MicOpt= -1 -1 -1 -1 -1 -1 -1 -1 -1 -1 -1 -1 -1 -1 -1 -1 -1 -1 -1 -1
 MicOpt= -1 -1 -1 -1 -1 -1 -1 -1 -1 -1 -1 -1 -1 -1 -1 -1 -1 -1 -1 -1
 MicOpt= -1 -1 -1 -1 -1 -1 -1 -1 -1 -1 -1 -1 -1 -1 -1 -1 -1 -1
 NAtoms=    158 NQM=      158 NQMF=       0 NMMI=      0 NMMIF=      0
                NMic=       0 NMicF=      0.
                    Isotopes and Nuclear Properties:
 (Nuclear quadrupole moments (NQMom) in fm**2, nuclear magnetic moments (NMagM)
  in nuclear magnetons)

  Atom         1           2           3           4           5           6           7           8           9          10
 IAtWgt=          24          12          12          12          12          14          12          12          12          12
 AtmWgt=  23.9850450  12.0000000  12.0000000  12.0000000  12.0000000  14.0030740  12.0000000  12.0000000  12.0000000  12.0000000
 NucSpn=           0           0           0           0           0           2           0           0           0           0
 AtZEff=  -0.0000000  -0.0000000  -0.0000000  -0.0000000  -0.0000000  -0.0000000  -0.0000000  -0.0000000  -0.0000000  -0.0000000
 NQMom=    0.0000000   0.0000000   0.0000000   0.0000000   0.0000000   2.0440000   0.0000000   0.0000000   0.0000000   0.0000000
 NMagM=    0.0000000   0.0000000   0.0000000   0.0000000   0.0000000   0.4037610   0.0000000   0.0000000   0.0000000   0.0000000
 AtZNuc=  12.0000000   6.0000000   6.0000000   6.0000000   6.0000000   7.0000000   6.0000000   6.0000000   6.0000000   6.0000000

  Atom        11          12          13          14          15          16          17          18          19          20
 IAtWgt=          12          12          12           1          14          12          12          12          12          12
 AtmWgt=  12.0000000  12.0000000  12.0000000   1.0078250  14.0030740  12.0000000  12.0000000  12.0000000  12.0000000  12.0000000
 NucSpn=           0           0           0           1           2           0           0           0           0           0
 AtZEff=  -0.0000000  -0.0000000  -0.0000000  -0.0000000  -0.0000000  -0.0000000  -0.0000000  -0.0000000  -0.0000000  -0.0000000
 NQMom=    0.0000000   0.0000000   0.0000000   0.0000000   2.0440000   0.0000000   0.0000000   0.0000000   0.0000000   0.0000000
 NMagM=    0.0000000   0.0000000   0.0000000   2.7928460   0.4037610   0.0000000   0.0000000   0.0000000   0.0000000   0.0000000
 AtZNuc=   6.0000000   6.0000000   6.0000000   1.0000000   7.0000000   6.0000000   6.0000000   6.0000000   6.0000000   6.0000000

  Atom        21          22          23          24          25          26          27          28          29          30
 IAtWgt=          12          16          12          14          12          12          12          12          12          12
 AtmWgt=  12.0000000  15.9949146  12.0000000  14.0030740  12.0000000  12.0000000  12.0000000  12.0000000  12.0000000  12.0000000
 NucSpn=           0           0           0           2           0           0           0           0           0           0
 AtZEff=  -0.0000000  -0.0000000  -0.0000000  -0.0000000  -0.0000000  -0.0000000  -0.0000000  -0.0000000  -0.0000000  -0.0000000
 NQMom=    0.0000000   0.0000000   0.0000000   2.0440000   0.0000000   0.0000000   0.0000000   0.0000000   0.0000000   0.0000000
 NMagM=    0.0000000   0.0000000   0.0000000   0.4037610   0.0000000   0.0000000   0.0000000   0.0000000   0.0000000   0.0000000
 AtZNuc=   6.0000000   8.0000000   6.0000000   7.0000000   6.0000000   6.0000000   6.0000000   6.0000000   6.0000000   6.0000000

  Atom        31          32          33          34          35          36          37          38          39          40
 IAtWgt=          12          14          12          12          12          12          12          12          16          12
 AtmWgt=  12.0000000  14.0030740  12.0000000  12.0000000  12.0000000  12.0000000  12.0000000  12.0000000  15.9949146  12.0000000
 NucSpn=           0           2           0           0           0           0           0           0           0           0
 AtZEff=  -0.0000000  -0.0000000  -0.0000000  -0.0000000  -0.0000000  -0.0000000  -0.0000000  -0.0000000  -0.0000000  -0.0000000
 NQMom=    0.0000000   2.0440000   0.0000000   0.0000000   0.0000000   0.0000000   0.0000000   0.0000000   0.0000000   0.0000000
 NMagM=    0.0000000   0.4037610   0.0000000   0.0000000   0.0000000   0.0000000   0.0000000   0.0000000   0.0000000   0.0000000
 AtZNuc=   6.0000000   7.0000000   6.0000000   6.0000000   6.0000000   6.0000000   6.0000000   6.0000000   8.0000000   6.0000000

  Atom        41          42          43          44          45          46          47          48          49          50
 IAtWgt=          12          16          16          12           1           1           1           1           1           1
 AtmWgt=  12.0000000  15.9949146  15.9949146  12.0000000   1.0078250   1.0078250   1.0078250   1.0078250   1.0078250   1.0078250
 NucSpn=           0           0           0           0           1           1           1           1           1           1
 AtZEff=  -0.0000000  -0.0000000  -0.0000000  -0.0000000  -0.0000000  -0.0000000  -0.0000000  -0.0000000  -0.0000000  -0.0000000
 NQMom=    0.0000000   0.0000000   0.0000000   0.0000000   0.0000000   0.0000000   0.0000000   0.0000000   0.0000000   0.0000000
 NMagM=    0.0000000   0.0000000   0.0000000   0.0000000   2.7928460   2.7928460   2.7928460   2.7928460   2.7928460   2.7928460
 AtZNuc=   6.0000000   8.0000000   8.0000000   6.0000000   1.0000000   1.0000000   1.0000000   1.0000000   1.0000000   1.0000000

  Atom        51          52          53          54          55          56          57          58          59          60
 IAtWgt=           1           1           1           1           1           1           1           1           1           1
 AtmWgt=   1.0078250   1.0078250   1.0078250   1.0078250   1.0078250   1.0078250   1.0078250   1.0078250   1.0078250   1.0078250
 NucSpn=           1           1           1           1           1           1           1           1           1           1
 AtZEff=  -0.0000000  -0.0000000  -0.0000000  -0.0000000  -0.0000000  -0.0000000  -0.0000000  -0.0000000  -0.0000000  -0.0000000
 NQMom=    0.0000000   0.0000000   0.0000000   0.0000000   0.0000000   0.0000000   0.0000000   0.0000000   0.0000000   0.0000000
 NMagM=    2.7928460   2.7928460   2.7928460   2.7928460   2.7928460   2.7928460   2.7928460   2.7928460   2.7928460   2.7928460
 AtZNuc=   1.0000000   1.0000000   1.0000000   1.0000000   1.0000000   1.0000000   1.0000000   1.0000000   1.0000000   1.0000000

  Atom        61          62          63          64          65          66          67          68          69          70
 IAtWgt=           1           1           1           1           1           1           1           1           1           1
 AtmWgt=   1.0078250   1.0078250   1.0078250   1.0078250   1.0078250   1.0078250   1.0078250   1.0078250   1.0078250   1.0078250
 NucSpn=           1           1           1           1           1           1           1           1           1           1
 AtZEff=  -0.0000000  -0.0000000  -0.0000000  -0.0000000  -0.0000000  -0.0000000  -0.0000000  -0.0000000  -0.0000000  -0.0000000
 NQMom=    0.0000000   0.0000000   0.0000000   0.0000000   0.0000000   0.0000000   0.0000000   0.0000000   0.0000000   0.0000000
 NMagM=    2.7928460   2.7928460   2.7928460   2.7928460   2.7928460   2.7928460   2.7928460   2.7928460   2.7928460   2.7928460
 AtZNuc=   1.0000000   1.0000000   1.0000000   1.0000000   1.0000000   1.0000000   1.0000000   1.0000000   1.0000000   1.0000000

  Atom        71          72          73          74          75          76          77          78          79          80
 IAtWgt=           1           1           1           1           1           1           1           1           1          24
 AtmWgt=   1.0078250   1.0078250   1.0078250   1.0078250   1.0078250   1.0078250   1.0078250   1.0078250   1.0078250  23.9850450
 NucSpn=           1           1           1           1           1           1           1           1           1           0
 AtZEff=  -0.0000000  -0.0000000  -0.0000000  -0.0000000  -0.0000000  -0.0000000  -0.0000000  -0.0000000  -0.0000000  -0.0000000
 NQMom=    0.0000000   0.0000000   0.0000000   0.0000000   0.0000000   0.0000000   0.0000000   0.0000000   0.0000000   0.0000000
 NMagM=    2.7928460   2.7928460   2.7928460   2.7928460   2.7928460   2.7928460   2.7928460   2.7928460   2.7928460   0.0000000
 AtZNuc=   1.0000000   1.0000000   1.0000000   1.0000000   1.0000000   1.0000000   1.0000000   1.0000000   1.0000000  12.0000000

  Atom        81          82          83          84          85          86          87          88          89          90
 IAtWgt=          12          12          12          12          14          12          12          12          12          12
 AtmWgt=  12.0000000  12.0000000  12.0000000  12.0000000  14.0030740  12.0000000  12.0000000  12.0000000  12.0000000  12.0000000
 NucSpn=           0           0           0           0           2           0           0           0           0           0
 AtZEff=  -0.0000000  -0.0000000  -0.0000000  -0.0000000  -0.0000000  -0.0000000  -0.0000000  -0.0000000  -0.0000000  -0.0000000
 NQMom=    0.0000000   0.0000000   0.0000000   0.0000000   2.0440000   0.0000000   0.0000000   0.0000000   0.0000000   0.0000000
 NMagM=    0.0000000   0.0000000   0.0000000   0.0000000   0.4037610   0.0000000   0.0000000   0.0000000   0.0000000   0.0000000
 AtZNuc=   6.0000000   6.0000000   6.0000000   6.0000000   7.0000000   6.0000000   6.0000000   6.0000000   6.0000000   6.0000000

  Atom        91          92          93          94          95          96          97          98          99         100
 IAtWgt=          12          12           1          14          12          12          12          12          12          12
 AtmWgt=  12.0000000  12.0000000   1.0078250  14.0030740  12.0000000  12.0000000  12.0000000  12.0000000  12.0000000  12.0000000
 NucSpn=           0           0           1           2           0           0           0           0           0           0
 AtZEff=  -0.0000000  -0.0000000  -0.0000000  -0.0000000  -0.0000000  -0.0000000  -0.0000000  -0.0000000  -0.0000000  -0.0000000
 NQMom=    0.0000000   0.0000000   0.0000000   2.0440000   0.0000000   0.0000000   0.0000000   0.0000000   0.0000000   0.0000000
 NMagM=    0.0000000   0.0000000   2.7928460   0.4037610   0.0000000   0.0000000   0.0000000   0.0000000   0.0000000   0.0000000
 AtZNuc=   6.0000000   6.0000000   1.0000000   7.0000000   6.0000000   6.0000000   6.0000000   6.0000000   6.0000000   6.0000000

  Atom       101         102         103         104         105         106         107         108         109         110
 IAtWgt=          16          12          14          12          12          12          12          12          12          12
 AtmWgt=  15.9949146  12.0000000  14.0030740  12.0000000  12.0000000  12.0000000  12.0000000  12.0000000  12.0000000  12.0000000
 NucSpn=           0           0           2           0           0           0           0           0           0           0
 AtZEff=  -0.0000000  -0.0000000  -0.0000000  -0.0000000  -0.0000000  -0.0000000  -0.0000000  -0.0000000  -0.0000000  -0.0000000
 NQMom=    0.0000000   0.0000000   2.0440000   0.0000000   0.0000000   0.0000000   0.0000000   0.0000000   0.0000000   0.0000000
 NMagM=    0.0000000   0.0000000   0.4037610   0.0000000   0.0000000   0.0000000   0.0000000   0.0000000   0.0000000   0.0000000
 AtZNuc=   8.0000000   6.0000000   7.0000000   6.0000000   6.0000000   6.0000000   6.0000000   6.0000000   6.0000000   6.0000000

  Atom       111         112         113         114         115         116         117         118         119         120
 IAtWgt=          14          12          12          12          12          12          12          16          12          12
 AtmWgt=  14.0030740  12.0000000  12.0000000  12.0000000  12.0000000  12.0000000  12.0000000  15.9949146  12.0000000  12.0000000
 NucSpn=           2           0           0           0           0           0           0           0           0           0
 AtZEff=  -0.0000000  -0.0000000  -0.0000000  -0.0000000  -0.0000000  -0.0000000  -0.0000000  -0.0000000  -0.0000000  -0.0000000
 NQMom=    2.0440000   0.0000000   0.0000000   0.0000000   0.0000000   0.0000000   0.0000000   0.0000000   0.0000000   0.0000000
 NMagM=    0.4037610   0.0000000   0.0000000   0.0000000   0.0000000   0.0000000   0.0000000   0.0000000   0.0000000   0.0000000
 AtZNuc=   7.0000000   6.0000000   6.0000000   6.0000000   6.0000000   6.0000000   6.0000000   8.0000000   6.0000000   6.0000000

  Atom       121         122         123         124         125         126         127         128         129         130
 IAtWgt=          16          16          12           1           1           1           1           1           1           1
 AtmWgt=  15.9949146  15.9949146  12.0000000   1.0078250   1.0078250   1.0078250   1.0078250   1.0078250   1.0078250   1.0078250
 NucSpn=           0           0           0           1           1           1           1           1           1           1
 AtZEff=  -0.0000000  -0.0000000  -0.0000000  -0.0000000  -0.0000000  -0.0000000  -0.0000000  -0.0000000  -0.0000000  -0.0000000
 NQMom=    0.0000000   0.0000000   0.0000000   0.0000000   0.0000000   0.0000000   0.0000000   0.0000000   0.0000000   0.0000000
 NMagM=    0.0000000   0.0000000   0.0000000   2.7928460   2.7928460   2.7928460   2.7928460   2.7928460   2.7928460   2.7928460
 AtZNuc=   8.0000000   8.0000000   6.0000000   1.0000000   1.0000000   1.0000000   1.0000000   1.0000000   1.0000000   1.0000000

  Atom       131         132         133         134         135         136         137         138         139         140
 IAtWgt=           1           1           1           1           1           1           1           1           1           1
 AtmWgt=   1.0078250   1.0078250   1.0078250   1.0078250   1.0078250   1.0078250   1.0078250   1.0078250   1.0078250   1.0078250
 NucSpn=           1           1           1           1           1           1           1           1           1           1
 AtZEff=  -0.0000000  -0.0000000  -0.0000000  -0.0000000  -0.0000000  -0.0000000  -0.0000000  -0.0000000  -0.0000000  -0.0000000
 NQMom=    0.0000000   0.0000000   0.0000000   0.0000000   0.0000000   0.0000000   0.0000000   0.0000000   0.0000000   0.0000000
 NMagM=    2.7928460   2.7928460   2.7928460   2.7928460   2.7928460   2.7928460   2.7928460   2.7928460   2.7928460   2.7928460
 AtZNuc=   1.0000000   1.0000000   1.0000000   1.0000000   1.0000000   1.0000000   1.0000000   1.0000000   1.0000000   1.0000000

  Atom       141         142         143         144         145         146         147         148         149         150
 IAtWgt=           1           1           1           1           1           1           1           1           1           1
 AtmWgt=   1.0078250   1.0078250   1.0078250   1.0078250   1.0078250   1.0078250   1.0078250   1.0078250   1.0078250   1.0078250
 NucSpn=           1           1           1           1           1           1           1           1           1           1
 AtZEff=  -0.0000000  -0.0000000  -0.0000000  -0.0000000  -0.0000000  -0.0000000  -0.0000000  -0.0000000  -0.0000000  -0.0000000
 NQMom=    0.0000000   0.0000000   0.0000000   0.0000000   0.0000000   0.0000000   0.0000000   0.0000000   0.0000000   0.0000000
 NMagM=    2.7928460   2.7928460   2.7928460   2.7928460   2.7928460   2.7928460   2.7928460   2.7928460   2.7928460   2.7928460
 AtZNuc=   1.0000000   1.0000000   1.0000000   1.0000000   1.0000000   1.0000000   1.0000000   1.0000000   1.0000000   1.0000000

  Atom       151         152         153         154         155         156         157         158
 IAtWgt=           1           1           1           1           1           1           1           1
 AtmWgt=   1.0078250   1.0078250   1.0078250   1.0078250   1.0078250   1.0078250   1.0078250   1.0078250
 NucSpn=           1           1           1           1           1           1           1           1
 AtZEff=  -0.0000000  -0.0000000  -0.0000000  -0.0000000  -0.0000000  -0.0000000  -0.0000000  -0.0000000
 NQMom=    0.0000000   0.0000000   0.0000000   0.0000000   0.0000000   0.0000000   0.0000000   0.0000000
 NMagM=    2.7928460   2.7928460   2.7928460   2.7928460   2.7928460   2.7928460   2.7928460   2.7928460
 AtZNuc=   1.0000000   1.0000000   1.0000000   1.0000000   1.0000000   1.0000000   1.0000000   1.0000000
 Leave Link  101 at Sat Sep 11 03:59:27 2021, MaxMem= 23488102400 cpu:               3.6 elap:               0.2
 (Enter /sw/apps/gaussian-16.0/g16/l202.exe)
 Stoichiometry    C68H72Mg2N8O8
 Framework group  C1[X(C68H72Mg2N8O8)]
 Deg. of freedom   468
 Full point group                 C1      NOp   1
 Largest Abelian subgroup         C1      NOp   1
 Largest concise Abelian subgroup C1      NOp   1
                         Standard orientation:                         
 ---------------------------------------------------------------------
 Center     Atomic      Atomic             Coordinates (Angstroms)
 Number     Number       Type             X           Y           Z
 ---------------------------------------------------------------------
      1         12           0        6.730415   -0.579088    0.736920
      2          6           0        7.119242    2.353828   -1.277784
      3          6           0        7.293730    1.397994    3.460317
      4          6           0        6.842905   -3.217199    2.493148
      5          6           0        7.325612   -2.454495   -2.139579
      6          7           0        7.140209    1.587135    0.937402
      7          6           0        7.203759    2.611330    0.092323
      8          6           0        7.292972    3.994605    0.803637
      9          6           0        7.904685    3.521680    2.197964
     10          6           0        7.386874    2.094317    2.218750
     11          6           0        9.429571    3.491293    2.215341
     12          6           0        5.887392    4.658807    0.990487
     13          6           0        5.911054    6.140788    1.375877
     14          1           0        4.876170    7.017866    0.849475
     15          7           0        6.542034   -0.828615    2.687586
     16          6           0        6.799044    0.089497    3.650032
     17          6           0        6.506620   -0.576757    4.937384
     18          6           0        6.241033   -2.014838    4.655459
     19          6           0        6.561207   -2.084053    3.252577
     20          6           0        6.451814    0.149842    6.246124
     21          6           0        5.783026   -3.149309    5.516468
     22          8           0        5.839560   -4.365417    5.126005
     23          6           0        5.343239   -2.803058    6.880190
     24          7           0        7.255406   -2.552396    0.303245
     25          6           0        7.160366   -3.511481    1.230665
     26          6           0        7.313333   -4.874745    0.623993
     27          6           0        7.291000   -4.659599   -0.958084
     28          6           0        7.206129   -3.113522   -0.984818
     29          6           0        8.582579   -5.643423    1.016624
     30          6           0        6.244202   -5.469780   -1.763217
     31          6           0        4.850988   -4.991698   -1.420447
     32          7           0        6.974898   -0.165879   -1.379807
     33          6           0        7.236790   -1.096425   -2.395765
     34          6           0        7.427744   -0.332610   -3.642437
     35          6           0        7.279109    0.998955   -3.259440
     36          6           0        7.038254    1.064436   -1.857301
     37          6           0        7.757891   -0.880665   -4.913292
     38          6           0        7.292184    2.383116   -3.704170
     39          8           0        7.354947    2.941086   -4.800629
     40          6           0        7.310313    3.322382   -2.418371
     41          6           0        6.266817    4.387404   -2.618755
     42          8           0        5.053421    4.097074   -2.646060
     43          8           0        6.838654    5.596317   -2.508884
     44          6           0        5.852291    6.698082   -2.668125
     45          1           0        7.688519    1.870951    4.361647
     46          1           0        6.782021   -4.159706    3.041247
     47          1           0        7.430859   -2.976887   -3.092198
     48          1           0        7.963787    4.708900    0.325921
     49          1           0        7.493909    4.086025    3.034923
     50          1           0        9.843057    3.676210    1.224001
     51          1           0        9.696872    2.491803    2.558945
     52          1           0        9.822231    4.180344    2.963541
     53          1           0        5.408932    4.244015    1.877664
     54          1           0        5.277181    4.528587    0.096054
     55          1           0        6.897813    6.577566    1.219545
     56          1           0        5.748443    6.216728    2.451047
     57          1           0        6.852853    1.159033    6.161007
     58          1           0        7.138646   -0.359280    6.921969
     59          1           0        5.448887    0.150807    6.673286
     60          1           0        6.162055   -2.315164    7.409386
     61          1           0        4.967316   -3.726838    7.318553
     62          1           0        4.539185   -2.069327    6.816266
     63          1           0        6.486229   -5.524155    0.907880
     64          1           0        8.243026   -4.922122   -1.420039
     65          1           0        8.383679   -6.616704    1.465922
     66          1           0        9.163501   -5.013400    1.689597
     67          1           0        9.290483   -5.802530    0.203621
     68          1           0        6.295558   -6.525138   -1.497647
     69          1           0        6.377402   -5.392480   -2.842352
     70          1           0        4.621033   -5.544387   -0.510234
     71          1           0        4.153857   -5.247379   -2.219100
     72          1           0        4.844891   -3.931165   -1.168024
     73          1           0        7.128164   -0.367247   -5.639799
     74          1           0        7.591311   -1.957401   -4.935548
     75          1           0        8.814249   -0.620148   -4.977290
     76          1           0        8.314097    3.740507   -2.349743
     77          1           0        6.213981    7.338964   -3.472291
     78          1           0        5.726003    7.145826   -1.682234
     79          1           0        4.872482    6.415722   -3.054888
     80         12           0       -6.414386   -0.720617   -0.681944
     81          6           0       -8.633061    1.591300    0.934087
     82          6           0       -5.083739    1.946547   -2.340304
     83          6           0       -4.759196   -2.771480   -2.448795
     84          6           0       -8.631610   -3.257149    0.210053
     85          7           0       -6.882042    1.440466   -0.624827
     86          6           0       -7.703374    2.210506    0.072877
     87          6           0       -7.463929    3.733804   -0.105461
     88          6           0       -6.752731    3.698532   -1.544848
     89          6           0       -6.169374    2.287911   -1.494751
     90          6           0       -7.734191    3.768665   -2.702937
     91          6           0       -6.509465    4.321413    0.992590
     92          6           0       -6.477095    5.849611    1.065597
     93          1           0       -6.325653    6.480883    2.373665
     94          7           0       -4.799190   -0.440305   -1.800482
     95          6           0       -4.397478    0.712789   -2.375186
     96          6           0       -3.163949    0.388550   -3.108272
     97          6           0       -2.960188   -1.084667   -3.055136
     98          6           0       -4.203164   -1.500558   -2.436970
     99          6           0       -2.270374    1.438534   -3.701990
    100          6           0       -1.838465   -1.973415   -3.500180
    101          8           0       -1.975616   -3.245727   -3.572599
    102          6           0       -0.605181   -1.303295   -3.937713
    103          7           0       -6.759082   -2.690501   -1.250362
    104          6           0       -5.853900   -3.368743   -1.977378
    105          6           0       -6.188579   -4.840341   -2.030059
    106          6           0       -7.378366   -5.048141   -0.981821
    107          6           0       -7.595189   -3.580911   -0.550981
    108          6           0       -6.614802   -5.377135   -3.396281
    109          6           0       -7.164096   -6.118898    0.122827
    110          6           0       -6.070204   -5.674648    1.066980
    111          7           0       -8.195474   -0.874057    0.531402
    112          6           0       -8.982422   -2.026126    0.749414
    113          6           0      -10.152461   -1.609208    1.549175
    114          6           0       -9.975493   -0.228261    1.722812
    115          6           0       -8.790115    0.189763    1.059751
    116          6           0      -11.217018   -2.455463    1.969531
    117          6           0      -10.527486    0.972754    2.307257
    118          8           0      -11.471913    1.219575    3.056173
    119          6           0       -9.749475    2.226258    1.715799
    120          6           0       -9.378309    3.125987    2.862638
    121          8           0       -8.570128    2.746037    3.728133
    122          8           0       -9.867255    4.358127    2.632156
    123          6           0       -9.515605    5.289584    3.736937
    124          1           0       -4.750722    2.677434   -3.077727
    125          1           0       -4.168262   -3.540009   -2.952425
    126          1           0       -9.317545   -4.006086    0.611618
    127          1           0       -8.365356    4.333097   -0.150712
    128          1           0       -5.958441    4.437494   -1.611175
    129          1           0       -8.758799    3.711371   -2.366733
    130          1           0       -7.497559    2.926869   -3.340455
    131          1           0       -7.545832    4.663509   -3.303018
    132          1           0       -5.468670    4.124979    0.704668
    133          1           0       -6.745875    3.918442    1.958170
    134          1           0       -7.306559    6.306375    0.512157
    135          1           0       -5.582336    6.202902    0.547316
    136          1           0       -2.762619    2.418580   -3.726690
    137          1           0       -2.128958    1.178937   -4.756730
    138          1           0       -1.293767    1.484741   -3.215395
    139          1           0       -0.831306   -0.635285   -4.765419
    140          1           0        0.109795   -2.105048   -4.132305
    141          1           0       -0.238337   -0.675634   -3.117914
    142          1           0       -5.341053   -5.440908   -1.723277
    143          1           0       -8.306047   -5.370599   -1.477057
    144          1           0       -5.986829   -6.216180   -3.750851
    145          1           0       -6.593984   -4.560412   -4.105554
    146          1           0       -7.649022   -5.711291   -3.459024
    147          1           0       -6.827932   -7.059094   -0.321221
    148          1           0       -8.060450   -6.335080    0.694492
    149          1           0       -5.156761   -5.976468    0.545817
    150          1           0       -6.163015   -6.180522    2.025901
    151          1           0       -6.050724   -4.582639    1.160752
    152          1           0      -11.426452   -2.203517    3.000631
    153          1           0      -10.956119   -3.506166    1.861304
    154          1           0      -11.997011   -2.151641    1.266268
    155          1           0      -10.414978    2.720159    1.006763
    156          1           0      -10.453327    5.717522    4.104696
    157          1           0       -8.774298    5.991690    3.311190
    158          1           0       -9.108993    4.859539    4.644777
 ---------------------------------------------------------------------
 Rotational constants (GHZ):           0.0235027           0.0073788           0.0069441
 Leave Link  202 at Sat Sep 11 03:59:27 2021, MaxMem= 23488102400 cpu:               0.2 elap:               0.0
 (Enter /sw/apps/gaussian-16.0/g16/l301.exe)
 Standard basis: def2SVP (5D, 7F)
 Ernie: Thresh=  0.10000D-02 Tol=  0.10000D-05 Strict=F.
 There are  1658 symmetry adapted cartesian basis functions of A   symmetry.
 There are  1572 symmetry adapted basis functions of A   symmetry.
  1572 basis functions,  2678 primitive gaussians,  1658 cartesian basis functions
   312 alpha electrons      312 beta electrons
       nuclear repulsion energy     14258.0604737446 Hartrees.
 IExCor=20419 DFT=T Ex+Corr=CAM-B3LYP ExCW=0 ScaHFX=  1.000000
 ScaDFX=  1.000000  1.000000  1.000000  0.810000 ScalE2=  1.000000  1.000000
 IRadAn=      5 IRanWt=     -1 IRanGd=            0 ICorTp=0 IEmpDi=  4
 HFx  wShort=  0.000000 wLong=  0.330000 cFull=  0.190000 cShort=  0.000000 cLong=  0.460000
 DFx  wShort=  0.000000 wLong=  0.330000 cFull=  0.190000 cShort=  0.000000 cLong=  0.460000
 NAtoms=  158 NActive=  158 NUniq=  158 SFac= 1.00D+00 NAtFMM=   60 NAOKFM=T Big=T
 Integral buffers will be    131072 words long.
 Raffenetti 1 integral format.
 Two-electron integral symmetry is turned on.
 Leave Link  301 at Sat Sep 11 03:59:27 2021, MaxMem= 23488102400 cpu:               1.3 elap:               0.1
 (Enter /sw/apps/gaussian-16.0/g16/l302.exe)
 NPDir=0 NMtPBC=     1 NCelOv=     1 NCel=       1 NClECP=     1 NCelD=      1
         NCelK=      1 NCelE2=     1 NClLst=     1 CellRange=     0.0.
 One-electron integrals computed using PRISM.
 One-electron integral symmetry used in STVInt
   1 Symmetry operations used in ECPInt.
 ECPInt:  NShTT=  271216 NPrTT=  987664 LenC2=  119430 LenP2D=  261759.
 LDataN:  DoStor=T MaxTD1= 4 Len=   56
 NBasis=  1572 RedAO= T EigKep=  3.36D-04  NBF=  1572
 NBsUse=  1572 1.00D-06 EigRej= -1.00D+00 NBFU=  1572
 Precomputing XC quadrature grid using
 IXCGrd= 4 IRadAn=           5 IRanWt=          -1 IRanGd=           0 AccXCQ= 0.00D+00.
 Generated NRdTot=       0 NPtTot=           0 NUsed=           0 NTot=          32
 NSgBfM=  1324  1313  1317  1321  1324 MxSgAt=   158 MxSgA2=   158.
 Leave Link  302 at Sat Sep 11 03:59:32 2021, MaxMem= 23488102400 cpu:             116.2 elap:               4.9
 (Enter /sw/apps/gaussian-16.0/g16/l303.exe)
 DipDrv:  MaxL=1.
 Leave Link  303 at Sat Sep 11 03:59:32 2021, MaxMem= 23488102400 cpu:               8.1 elap:               0.4
 (Enter /sw/apps/gaussian-16.0/g16/l308.exe)
 Leave Link  308 at Sat Sep 11 03:59:33 2021, MaxMem= 23488102400 cpu:              13.5 elap:               0.6
 (Enter /sw/apps/gaussian-16.0/g16/l401.exe)
 ExpMin= 3.36D-02 ExpMax= 4.95D+03 ExpMxC= 7.45D+02 IAcc=3 IRadAn=         5 AccDes= 0.00D+00
 Harris functional with IExCor=20419 and IRadAn=       5 diagonalized for initial guess.
 HarFok:  IExCor=20419 AccDes= 0.00D+00 IRadAn=         5 IDoV= 1 UseB2=F ITyADJ=14
 ICtDFT=  3500011 ScaDFX=  1.000000  1.000000  1.000000  1.000000
 FoFCou: FMM=F IPFlag=           0 FMFlag=      100000 FMFlg1=        2001
         NFxFlg=           0 DoJE=T BraDBF=F KetDBF=T FulRan=T
         wScrn=  0.000000 ICntrl=       500 IOpCl=  0 I1Cent=   200000004 NGrid=           0
         NMat0=    1 NMatS0=      1 NMatT0=    0 NMatD0=    1 NMtDS0=    0 NMtDT0=    0
 Petite list used in FoFCou.
 Harris En= -3918.65801543090    
 JPrj=0 DoOrth=F DoCkMO=F.
 Leave Link  401 at Sat Sep 11 03:59:40 2021, MaxMem= 23488102400 cpu:             163.9 elap:               6.9
 (Enter /sw/apps/gaussian-16.0/g16/l502.exe)
 Integral symmetry usage will be decided dynamically.
 Closed shell SCF:
 Using DIIS extrapolation, IDIIS=  1040.
 NGot= 23488102400 LenX= 23482547354 LenY= 23479796732
 Requested convergence on RMS density matrix=1.00D-08 within 128 cycles.
 Requested convergence on MAX density matrix=1.00D-06.
 Requested convergence on             energy=1.00D-06.
 No special actions if energy rises.
 Fock matrices will be formed incrementally for  20 cycles.

 Cycle   1  Pass 1  IDiag  1:
 FoFJK:  IHMeth= 1 ICntrl=       0 DoSepK=T KAlg= 0 I1Cent=           0 FoldK=F
 IRaf=         1 NMat=       1 IRICut=       1 DoRegI=T DoRafI=F ISym2E= 0 IDoP0=0 IntGTp=1.
 FoFCou: FMM=T IPFlag=           0 FMFlag=      100000 FMFlg1=        2001
         NFxFlg=           0 DoJE=T BraDBF=F KetDBF=F FulRan=T
         wScrn=  0.000000 ICntrl=       500 IOpCl=  0 I1Cent=           0 NGrid=           0
         NMat0=    1 NMatS0=      1 NMatT0=    0 NMatD0=    1 NMtDS0=    0 NMtDT0=    0
 Symmetry not used in FoFCou.
 FMM levels:  10  Number of levels for PrismC:   9
 E= -4068.95007842123    
 DIIS: error= 2.04D-02 at cycle   1 NSaved=   1.
 NSaved= 1 IEnMin= 1 EnMin= -4068.95007842123     IErMin= 1 ErrMin= 2.04D-02
 ErrMax= 2.04D-02  0.00D+00 EMaxC= 1.00D-01 BMatC= 1.69D+00 BMatP= 1.69D+00
 IDIUse=3 WtCom= 7.96D-01 WtEn= 2.04D-01
 Coeff-Com:  0.100D+01
 Coeff-En:   0.100D+01
 Coeff:      0.100D+01
 Gap=     0.120 Goal=   None    Shift=    0.000
 GapD=    0.120 DampG=1.000 DampE=0.500 DampFc=0.5000 IDamp=-1.
 Damping current iteration by 5.00D-01
 RMSDP=1.57D-03 MaxDP=1.35D-01              OVMax= 2.01D-01

 Cycle   2  Pass 1  IDiag  1:
 RMSU=  7.70D-04    CP:  9.82D-01
 E= -4069.33882429580     Delta-E=       -0.388745874578 Rises=F Damp=T
 DIIS: error= 1.27D-02 at cycle   2 NSaved=   2.
 NSaved= 2 IEnMin= 2 EnMin= -4069.33882429580     IErMin= 2 ErrMin= 1.27D-02
 ErrMax= 1.27D-02  0.00D+00 EMaxC= 1.00D-01 BMatC= 3.06D-01 BMatP= 1.69D+00
 IDIUse=3 WtCom= 8.73D-01 WtEn= 1.27D-01
 Coeff-Com: -0.213D+00 0.121D+01
 Coeff-En:   0.000D+00 0.100D+01
 Coeff:     -0.186D+00 0.119D+01
 Gap=     0.135 Goal=   None    Shift=    0.000
 RMSDP=7.65D-04 MaxDP=9.42D-02 DE=-3.89D-01 OVMax= 1.88D-01

 Cycle   3  Pass 1  IDiag  1:
 RMSU=  7.32D-04    CP:  9.68D-01  1.24D+00
 E= -4069.62867870200     Delta-E=       -0.289854406197 Rises=F Damp=F
 DIIS: error= 1.56D-02 at cycle   3 NSaved=   3.
 NSaved= 3 IEnMin= 3 EnMin= -4069.62867870200     IErMin= 2 ErrMin= 1.27D-02
 ErrMax= 1.56D-02  0.00D+00 EMaxC= 1.00D-01 BMatC= 2.01D-01 BMatP= 3.06D-01
 IDIUse=3 WtCom= 8.44D-01 WtEn= 1.56D-01
 Coeff-Com: -0.267D+00 0.651D+00 0.616D+00
 Coeff-En:   0.000D+00 0.000D+00 0.100D+01
 Coeff:     -0.225D+00 0.549D+00 0.676D+00
 Gap=     0.123 Goal=   None    Shift=    0.000
 RMSDP=5.07D-04 MaxDP=4.89D-02 DE=-2.90D-01 OVMax= 1.42D-01

 Cycle   4  Pass 1  IDiag  1:
 RMSU=  2.65D-04    CP:  9.65D-01  1.54D+00  5.07D-01
 E= -4069.76613578211     Delta-E=       -0.137457080113 Rises=F Damp=F
 DIIS: error= 7.19D-03 at cycle   4 NSaved=   4.
 NSaved= 4 IEnMin= 4 EnMin= -4069.76613578211     IErMin= 4 ErrMin= 7.19D-03
 ErrMax= 7.19D-03  0.00D+00 EMaxC= 1.00D-01 BMatC= 4.98D-02 BMatP= 2.01D-01
 IDIUse=3 WtCom= 9.28D-01 WtEn= 7.19D-02
 Coeff-Com: -0.109D+00 0.226D+00 0.408D+00 0.475D+00
 Coeff-En:   0.000D+00 0.000D+00 0.219D+00 0.781D+00
 Coeff:     -0.101D+00 0.209D+00 0.394D+00 0.497D+00
 Gap=     0.121 Goal=   None    Shift=    0.000
 RMSDP=1.98D-04 MaxDP=2.06D-02 DE=-1.37D-01 OVMax= 6.18D-02

 Cycle   5  Pass 1  IDiag  1:
 RMSU=  7.50D-05    CP:  9.64D-01  1.49D+00  6.89D-01  5.52D-01
 E= -4069.81113534186     Delta-E=       -0.044999559748 Rises=F Damp=F
 DIIS: error= 7.80D-04 at cycle   5 NSaved=   5.
 NSaved= 5 IEnMin= 5 EnMin= -4069.81113534186     IErMin= 5 ErrMin= 7.80D-04
 ErrMax= 7.80D-04  0.00D+00 EMaxC= 1.00D-01 BMatC= 1.13D-03 BMatP= 4.98D-02
 IDIUse=3 WtCom= 9.92D-01 WtEn= 7.80D-03
 Coeff-Com: -0.354D-01 0.694D-01 0.163D+00 0.247D+00 0.555D+00
 Coeff-En:   0.000D+00 0.000D+00 0.000D+00 0.000D+00 0.100D+01
 Coeff:     -0.351D-01 0.689D-01 0.162D+00 0.245D+00 0.559D+00
 Gap=     0.121 Goal=   None    Shift=    0.000
 RMSDP=3.98D-05 MaxDP=4.17D-03 DE=-4.50D-02 OVMax= 1.61D-02

 Cycle   6  Pass 1  IDiag  1:
 RMSU=  2.97D-05    CP:  9.64D-01  1.49D+00  6.81D-01  6.22D-01  7.66D-01
 E= -4069.81210293542     Delta-E=       -0.000967593554 Rises=F Damp=F
 DIIS: error= 2.22D-04 at cycle   6 NSaved=   6.
 NSaved= 6 IEnMin= 6 EnMin= -4069.81210293542     IErMin= 6 ErrMin= 2.22D-04
 ErrMax= 2.22D-04  0.00D+00 EMaxC= 1.00D-01 BMatC= 1.70D-04 BMatP= 1.13D-03
 IDIUse=3 WtCom= 9.98D-01 WtEn= 2.22D-03
 Coeff-Com:  0.243D-02-0.701D-02 0.100D-01 0.384D-01 0.306D+00 0.650D+00
 Coeff-En:   0.000D+00 0.000D+00 0.000D+00 0.000D+00 0.999D-01 0.900D+00
 Coeff:      0.243D-02-0.699D-02 0.998D-02 0.384D-01 0.306D+00 0.651D+00
 Gap=     0.121 Goal=   None    Shift=    0.000
 RMSDP=1.54D-05 MaxDP=1.25D-03 DE=-9.68D-04 OVMax= 7.42D-03

 Cycle   7  Pass 1  IDiag  1:
 RMSU=  1.04D-05    CP:  9.64D-01  1.50D+00  6.87D-01  6.22D-01  8.64D-01
                    CP:  7.54D-01
 E= -4069.81228460158     Delta-E=       -0.000181666168 Rises=F Damp=F
 DIIS: error= 8.04D-05 at cycle   7 NSaved=   7.
 NSaved= 7 IEnMin= 7 EnMin= -4069.81228460158     IErMin= 7 ErrMin= 8.04D-05
 ErrMax= 8.04D-05  0.00D+00 EMaxC= 1.00D-01 BMatC= 1.93D-05 BMatP= 1.70D-04
 IDIUse=1 WtCom= 1.00D+00 WtEn= 0.00D+00
 Coeff-Com:  0.442D-02-0.964D-02-0.909D-02-0.426D-02 0.997D-01 0.326D+00
 Coeff-Com:  0.593D+00
 Coeff:      0.442D-02-0.964D-02-0.909D-02-0.426D-02 0.997D-01 0.326D+00
 Coeff:      0.593D+00
 Gap=     0.121 Goal=   None    Shift=    0.000
 RMSDP=6.28D-06 MaxDP=1.12D-03 DE=-1.82D-04 OVMax= 3.40D-03

 Cycle   8  Pass 1  IDiag  1:
 RMSU=  4.54D-06    CP:  9.64D-01  1.50D+00  6.88D-01  6.27D-01  8.70D-01
                    CP:  8.78D-01  8.29D-01
 E= -4069.81230844745     Delta-E=       -0.000023845867 Rises=F Damp=F
 DIIS: error= 5.24D-05 at cycle   8 NSaved=   8.
 NSaved= 8 IEnMin= 8 EnMin= -4069.81230844745     IErMin= 8 ErrMin= 5.24D-05
 ErrMax= 5.24D-05  0.00D+00 EMaxC= 1.00D-01 BMatC= 4.56D-06 BMatP= 1.93D-05
 IDIUse=1 WtCom= 1.00D+00 WtEn= 0.00D+00
 Coeff-Com:  0.211D-02-0.418D-02-0.765D-02-0.120D-01-0.127D-01 0.338D-01
 Coeff-Com:  0.347D+00 0.654D+00
 Coeff:      0.211D-02-0.418D-02-0.765D-02-0.120D-01-0.127D-01 0.338D-01
 Coeff:      0.347D+00 0.654D+00
 Gap=     0.121 Goal=   None    Shift=    0.000
 RMSDP=3.20D-06 MaxDP=3.82D-04 DE=-2.38D-05 OVMax= 1.26D-03

 Cycle   9  Pass 1  IDiag  1:
 RMSU=  1.87D-06    CP:  9.64D-01  1.50D+00  6.88D-01  6.28D-01  8.87D-01
                    CP:  9.03D-01  1.03D+00  9.29D-01
 E= -4069.81231565163     Delta-E=       -0.000007204180 Rises=F Damp=F
 DIIS: error= 2.04D-05 at cycle   9 NSaved=   9.
 NSaved= 9 IEnMin= 9 EnMin= -4069.81231565163     IErMin= 9 ErrMin= 2.04D-05
 ErrMax= 2.04D-05  0.00D+00 EMaxC= 1.00D-01 BMatC= 6.54D-07 BMatP= 4.56D-06
 IDIUse=1 WtCom= 1.00D+00 WtEn= 0.00D+00
 Coeff-Com:  0.463D-03-0.771D-03-0.264D-02-0.590D-02-0.215D-01-0.366D-01
 Coeff-Com:  0.106D+00 0.329D+00 0.632D+00
 Coeff:      0.463D-03-0.771D-03-0.264D-02-0.590D-02-0.215D-01-0.366D-01
 Coeff:      0.106D+00 0.329D+00 0.632D+00
 Gap=     0.121 Goal=   None    Shift=    0.000
 RMSDP=1.34D-06 MaxDP=1.49D-04 DE=-7.20D-06 OVMax= 7.35D-04

 Cycle  10  Pass 1  IDiag  1:
 RMSU=  9.05D-07    CP:  9.64D-01  1.50D+00  6.88D-01  6.28D-01  8.90D-01
                    CP:  9.16D-01  1.07D+00  1.09D+00  1.04D+00
 E= -4069.81231710108     Delta-E=       -0.000001449447 Rises=F Damp=F
 DIIS: error= 1.10D-05 at cycle  10 NSaved=  10.
 NSaved=10 IEnMin=10 EnMin= -4069.81231710108     IErMin=10 ErrMin= 1.10D-05
 ErrMax= 1.10D-05  0.00D+00 EMaxC= 1.00D-01 BMatC= 1.54D-07 BMatP= 6.54D-07
 IDIUse=1 WtCom= 1.00D+00 WtEn= 0.00D+00
 Coeff-Com: -0.410D-03 0.859D-03 0.117D-02 0.107D-02-0.400D-02-0.299D-01
 Coeff-Com: -0.468D-01-0.691D-01 0.255D+00 0.893D+00
 Coeff:     -0.410D-03 0.859D-03 0.117D-02 0.107D-02-0.400D-02-0.299D-01
 Coeff:     -0.468D-01-0.691D-01 0.255D+00 0.893D+00
 Gap=     0.121 Goal=   None    Shift=    0.000
 RMSDP=1.15D-06 MaxDP=1.30D-04 DE=-1.45D-06 OVMax= 5.84D-04

 Cycle  11  Pass 1  IDiag  1:
 RMSU=  4.90D-07    CP:  9.64D-01  1.50D+00  6.88D-01  6.29D-01  8.92D-01
                    CP:  9.26D-01  1.12D+00  1.20D+00  1.36D+00  1.35D+00
 E= -4069.81231779219     Delta-E=       -0.000000691110 Rises=F Damp=F
 DIIS: error= 3.87D-06 at cycle  11 NSaved=  11.
 NSaved=11 IEnMin=11 EnMin= -4069.81231779219     IErMin=11 ErrMin= 3.87D-06
 ErrMax= 3.87D-06  0.00D+00 EMaxC= 1.00D-01 BMatC= 5.32D-08 BMatP= 1.54D-07
 IDIUse=1 WtCom= 1.00D+00 WtEn= 0.00D+00
 Coeff-Com: -0.313D-03 0.609D-03 0.126D-02 0.202D-02 0.407D-02-0.821D-02
 Coeff-Com: -0.437D-01-0.125D+00-0.183D-01 0.459D+00 0.729D+00
 Coeff:     -0.313D-03 0.609D-03 0.126D-02 0.202D-02 0.407D-02-0.821D-02
 Coeff:     -0.437D-01-0.125D+00-0.183D-01 0.459D+00 0.729D+00
 Gap=     0.121 Goal=   None    Shift=    0.000
 RMSDP=6.28D-07 MaxDP=5.27D-05 DE=-6.91D-07 OVMax= 3.34D-04

 Cycle  12  Pass 1  IDiag  1:
 RMSU=  2.50D-07    CP:  9.64D-01  1.50D+00  6.88D-01  6.29D-01  8.93D-01
                    CP:  9.28D-01  1.14D+00  1.25D+00  1.51D+00  1.72D+00
                    CP:  1.19D+00
 E= -4069.81231801645     Delta-E=       -0.000000224267 Rises=F Damp=F
 DIIS: error= 2.33D-06 at cycle  12 NSaved=  12.
 NSaved=12 IEnMin=12 EnMin= -4069.81231801645     IErMin=12 ErrMin= 2.33D-06
 ErrMax= 2.33D-06  0.00D+00 EMaxC= 1.00D-01 BMatC= 1.24D-08 BMatP= 5.32D-08
 IDIUse=1 WtCom= 1.00D+00 WtEn= 0.00D+00
 Coeff-Com: -0.103D-05-0.132D-04 0.170D-03 0.485D-03 0.307D-02 0.376D-02
 Coeff-Com:  0.214D-02-0.330D-01-0.650D-01-0.709D-01 0.246D+00 0.913D+00
 Coeff:     -0.103D-05-0.132D-04 0.170D-03 0.485D-03 0.307D-02 0.376D-02
 Coeff:      0.214D-02-0.330D-01-0.650D-01-0.709D-01 0.246D+00 0.913D+00
 Gap=     0.121 Goal=   None    Shift=    0.000
 RMSDP=4.01D-07 MaxDP=3.08D-05 DE=-2.24D-07 OVMax= 2.31D-04

 Cycle  13  Pass 1  IDiag  1:
 RMSU=  1.58D-07    CP:  9.64D-01  1.50D+00  6.88D-01  6.29D-01  8.93D-01
                    CP:  9.28D-01  1.14D+00  1.28D+00  1.61D+00  1.94D+00
                    CP:  1.59D+00  1.27D+00
 E= -4069.81231809438     Delta-E=       -0.000000077926 Rises=F Damp=F
 DIIS: error= 1.25D-06 at cycle  13 NSaved=  13.
 NSaved=13 IEnMin=13 EnMin= -4069.81231809438     IErMin=13 ErrMin= 1.25D-06
 ErrMax= 1.25D-06  0.00D+00 EMaxC= 1.00D-01 BMatC= 7.30D-09 BMatP= 1.24D-08
 IDIUse=1 WtCom= 1.00D+00 WtEn= 0.00D+00
 Coeff-Com:  0.115D-03-0.234D-03-0.351D-03-0.429D-03 0.568D-03 0.497D-02
 Coeff-Com:  0.192D-01 0.216D-01-0.356D-01-0.236D+00-0.152D+00 0.610D+00
 Coeff-Com:  0.767D+00
 Coeff:      0.115D-03-0.234D-03-0.351D-03-0.429D-03 0.568D-03 0.497D-02
 Coeff:      0.192D-01 0.216D-01-0.356D-01-0.236D+00-0.152D+00 0.610D+00
 Coeff:      0.767D+00
 Gap=     0.121 Goal=   None    Shift=    0.000
 RMSDP=3.08D-07 MaxDP=1.76D-05 DE=-7.79D-08 OVMax= 1.68D-04

 Cycle  14  Pass 1  IDiag  1:
 RMSU=  7.41D-08    CP:  9.64D-01  1.50D+00  6.88D-01  6.29D-01  8.93D-01
                    CP:  9.29D-01  1.15D+00  1.30D+00  1.68D+00  2.12D+00
                    CP:  1.84D+00  1.78D+00  1.07D+00
 E= -4069.81231812571     Delta-E=       -0.000000031334 Rises=F Damp=F
 DIIS: error= 8.20D-07 at cycle  14 NSaved=  14.
 NSaved=14 IEnMin=14 EnMin= -4069.81231812571     IErMin=14 ErrMin= 8.20D-07
 ErrMax= 8.20D-07  0.00D+00 EMaxC= 1.00D-01 BMatC= 1.10D-09 BMatP= 7.30D-09
 IDIUse=1 WtCom= 1.00D+00 WtEn= 0.00D+00
 Coeff-Com:  0.648D-04-0.128D-03-0.238D-03-0.372D-03-0.457D-03 0.135D-02
 Coeff-Com:  0.108D-01 0.188D-01 0.171D-02-0.995D-01-0.143D+00 0.105D+00
 Coeff-Com:  0.395D+00 0.711D+00
 Coeff:      0.648D-04-0.128D-03-0.238D-03-0.372D-03-0.457D-03 0.135D-02
 Coeff:      0.108D-01 0.188D-01 0.171D-02-0.995D-01-0.143D+00 0.105D+00
 Coeff:      0.395D+00 0.711D+00
 Gap=     0.121 Goal=   None    Shift=    0.000
 RMSDP=9.72D-08 MaxDP=6.15D-06 DE=-3.13D-08 OVMax= 5.94D-05

 Cycle  15  Pass 1  IDiag  1:
 RMSU=  3.72D-08    CP:  9.64D-01  1.50D+00  6.88D-01  6.29D-01  8.93D-01
                    CP:  9.29D-01  1.15D+00  1.30D+00  1.70D+00  2.16D+00
                    CP:  1.95D+00  1.92D+00  1.31D+00  1.00D+00
 E= -4069.81231812946     Delta-E=       -0.000000003751 Rises=F Damp=F
 DIIS: error= 4.46D-07 at cycle  15 NSaved=  15.
 NSaved=15 IEnMin=15 EnMin= -4069.81231812946     IErMin=15 ErrMin= 4.46D-07
 ErrMax= 4.46D-07  0.00D+00 EMaxC= 1.00D-01 BMatC= 2.39D-10 BMatP= 1.10D-09
 IDIUse=1 WtCom= 1.00D+00 WtEn= 0.00D+00
 Coeff-Com:  0.802D-05-0.142D-04-0.415D-04-0.939D-04-0.316D-03-0.425D-03
 Coeff-Com:  0.156D-02 0.348D-02 0.831D-02-0.185D-02-0.377D-01-0.671D-01
 Coeff-Com:  0.338D-01 0.335D+00 0.725D+00
 Coeff:      0.802D-05-0.142D-04-0.415D-04-0.939D-04-0.316D-03-0.425D-03
 Coeff:      0.156D-02 0.348D-02 0.831D-02-0.185D-02-0.377D-01-0.671D-01
 Coeff:      0.338D-01 0.335D+00 0.725D+00
 Gap=     0.121 Goal=   None    Shift=    0.000
 RMSDP=3.93D-08 MaxDP=2.56D-06 DE=-3.75D-09 OVMax= 2.32D-05

 Cycle  16  Pass 1  IDiag  1:
 RMSU=  1.82D-08    CP:  9.64D-01  1.50D+00  6.88D-01  6.29D-01  8.93D-01
                    CP:  9.29D-01  1.15D+00  1.31D+00  1.70D+00  2.18D+00
                    CP:  1.97D+00  1.98D+00  1.38D+00  1.22D+00  1.12D+00
 E= -4069.81231813013     Delta-E=       -0.000000000666 Rises=F Damp=F
 DIIS: error= 2.34D-07 at cycle  16 NSaved=  16.
 NSaved=16 IEnMin=16 EnMin= -4069.81231813013     IErMin=16 ErrMin= 2.34D-07
 ErrMax= 2.34D-07  0.00D+00 EMaxC= 1.00D-01 BMatC= 7.23D-11 BMatP= 2.39D-10
 IDIUse=1 WtCom= 1.00D+00 WtEn= 0.00D+00
 Coeff-Com: -0.128D-04 0.261D-04 0.420D-04 0.461D-04-0.400D-04-0.613D-03
 Coeff-Com: -0.184D-02-0.377D-02 0.468D-02 0.244D-01 0.177D-01-0.637D-01
 Coeff-Com: -0.842D-01-0.869D-02 0.375D+00 0.741D+00
 Coeff:     -0.128D-04 0.261D-04 0.420D-04 0.461D-04-0.400D-04-0.613D-03
 Coeff:     -0.184D-02-0.377D-02 0.468D-02 0.244D-01 0.177D-01-0.637D-01
 Coeff:     -0.842D-01-0.869D-02 0.375D+00 0.741D+00
 Gap=     0.121 Goal=   None    Shift=    0.000
 RMSDP=2.22D-08 MaxDP=1.48D-06 DE=-6.66D-10 OVMax= 1.62D-05

 Cycle  17  Pass 1  IDiag  1:
 RMSU=  1.11D-08    CP:  9.64D-01  1.50D+00  6.88D-01  6.29D-01  8.93D-01
                    CP:  9.29D-01  1.15D+00  1.31D+00  1.70D+00  2.18D+00
                    CP:  1.99D+00  2.00D+00  1.43D+00  1.31D+00  1.41D+00
                    CP:  1.19D+00
 E= -4069.81231813029     Delta-E=       -0.000000000160 Rises=F Damp=F
 DIIS: error= 1.14D-07 at cycle  17 NSaved=  17.
 NSaved=17 IEnMin=17 EnMin= -4069.81231813029     IErMin=17 ErrMin= 1.14D-07
 ErrMax= 1.14D-07  0.00D+00 EMaxC= 1.00D-01 BMatC= 2.13D-11 BMatP= 7.23D-11
 IDIUse=1 WtCom= 1.00D+00 WtEn= 0.00D+00
 Coeff-Com: -0.845D-05 0.166D-04 0.324D-04 0.464D-04 0.731D-04-0.198D-03
 Coeff-Com: -0.121D-02-0.309D-02 0.739D-03 0.122D-01 0.192D-01-0.142D-01
 Coeff-Com: -0.490D-01-0.959D-01-0.163D-01 0.376D+00 0.772D+00
 Coeff:     -0.845D-05 0.166D-04 0.324D-04 0.464D-04 0.731D-04-0.198D-03
 Coeff:     -0.121D-02-0.309D-02 0.739D-03 0.122D-01 0.192D-01-0.142D-01
 Coeff:     -0.490D-01-0.959D-01-0.163D-01 0.376D+00 0.772D+00
 Gap=     0.121 Goal=   None    Shift=    0.000
 RMSDP=1.33D-08 MaxDP=8.05D-07 DE=-1.60D-10 OVMax= 7.63D-06

 Cycle  18  Pass 1  IDiag  1:
 RMSU=  5.34D-09    CP:  9.64D-01  1.50D+00  6.88D-01  6.29D-01  8.93D-01
                    CP:  9.29D-01  1.15D+00  1.31D+00  1.70D+00  2.18D+00
                    CP:  1.99D+00  2.01D+00  1.45D+00  1.38D+00  1.57D+00
                    CP:  1.59D+00  1.29D+00
 E= -4069.81231813051     Delta-E=       -0.000000000215 Rises=F Damp=F
 DIIS: error= 6.87D-08 at cycle  18 NSaved=  18.
 NSaved=18 IEnMin=18 EnMin= -4069.81231813051     IErMin=18 ErrMin= 6.87D-08
 ErrMax= 6.87D-08  0.00D+00 EMaxC= 1.00D-01 BMatC= 6.58D-12 BMatP= 2.13D-11
 IDIUse=1 WtCom= 1.00D+00 WtEn= 0.00D+00
 Coeff-Com:  0.264D-06-0.865D-06 0.196D-05 0.699D-05 0.657D-04 0.126D-03
 Coeff-Com:  0.139D-03-0.399D-03-0.105D-02-0.331D-02 0.350D-02 0.166D-01
 Coeff-Com:  0.821D-02-0.450D-01-0.148D+00-0.736D-01 0.359D+00 0.883D+00
 Coeff:      0.264D-06-0.865D-06 0.196D-05 0.699D-05 0.657D-04 0.126D-03
 Coeff:      0.139D-03-0.399D-03-0.105D-02-0.331D-02 0.350D-02 0.166D-01
 Coeff:      0.821D-02-0.450D-01-0.148D+00-0.736D-01 0.359D+00 0.883D+00
 Gap=     0.121 Goal=   None    Shift=    0.000
 RMSDP=1.01D-08 MaxDP=8.30D-07 DE=-2.15D-10 OVMax= 7.20D-06

 Cycle  19  Pass 1  IDiag  1:
 RMSU=  3.23D-09    CP:  9.64D-01  1.50D+00  6.88D-01  6.29D-01  8.93D-01
                    CP:  9.29D-01  1.15D+00  1.31D+00  1.70D+00  2.18D+00
                    CP:  2.00D+00  2.02D+00  1.46D+00  1.42D+00  1.70D+00
                    CP:  1.86D+00  1.80D+00  1.17D+00
 E= -4069.81231813072     Delta-E=       -0.000000000211 Rises=F Damp=F
 DIIS: error= 3.62D-08 at cycle  19 NSaved=  19.
 NSaved=19 IEnMin=19 EnMin= -4069.81231813072     IErMin=19 ErrMin= 3.62D-08
 ErrMax= 3.62D-08  0.00D+00 EMaxC= 1.00D-01 BMatC= 3.16D-12 BMatP= 6.58D-12
 IDIUse=1 WtCom= 1.00D+00 WtEn= 0.00D+00
 Coeff-Com:  0.332D-05-0.674D-05-0.109D-04-0.129D-04 0.208D-04 0.156D-03
 Coeff-Com:  0.568D-03 0.866D-03-0.894D-03-0.720D-02-0.506D-02 0.166D-01
 Coeff-Com:  0.247D-01 0.592D-02-0.994D-01-0.205D+00-0.837D-01 0.600D+00
 Coeff-Com:  0.753D+00
 Coeff:      0.332D-05-0.674D-05-0.109D-04-0.129D-04 0.208D-04 0.156D-03
 Coeff:      0.568D-03 0.866D-03-0.894D-03-0.720D-02-0.506D-02 0.166D-01
 Coeff:      0.247D-01 0.592D-02-0.994D-01-0.205D+00-0.837D-01 0.600D+00
 Coeff:      0.753D+00
 Gap=     0.121 Goal=   None    Shift=    0.000
 RMSDP=7.19D-09 MaxDP=4.24D-07 DE=-2.11D-10 OVMax= 3.84D-06

 SCF Done:  E(RCAM-B3LYP) =  -4069.81231813     A.U. after   19 cycles
            NFock= 19  Conv=0.72D-08     -V/T= 2.0102
 KE= 4.028802318344D+03 PE=-3.799717172030D+04 EE= 1.564049661008D+04
 Leave Link  502 at Sat Sep 11 04:08:56 2021, MaxMem= 23488102400 cpu:           12766.9 elap:             556.2
 (Enter /sw/apps/gaussian-16.0/g16/l801.exe)
 DoSCS=F DFT=T ScalE2(SS,OS)=  1.000000  1.000000
 ExpMin= 3.36D-02 ExpMax= 4.95D+03 ExpMxC= 7.45D+02 IAcc=3 IRadAn=         5 AccDes= 0.00D+00
 HarFok:  IExCor=  205 AccDes= 0.00D+00 IRadAn=         5 IDoV=-2 UseB2=F ITyADJ=14
 ICtDFT= 12500011 ScaDFX=  1.000000  1.000000  1.000000  1.000000
 GSVD:  LWork=       -9588 too small for GESVD, short by       45590 words or       45590 for optimal perf.
 Largest valence mixing into a core orbital is  2.03D-04
 Largest core mixing into a valence orbital is  5.23D-05
 Range of M.O.s used for correlation:    95  1572
 NBasis=  1572 NAE=   312 NBE=   312 NFC=    94 NFV=     0
 NROrb=   1478 NOA=   218 NOB=   218 NVA=  1260 NVB=  1260
 Leave Link  801 at Sat Sep 11 04:08:57 2021, MaxMem= 23488102400 cpu:               8.2 elap:               0.4
 (Enter /sw/apps/gaussian-16.0/g16/l914.exe)
 RHF ground state
 Two-electron integrals replicated using symmetry.
 MDV= 23488102400 DFT=T DoStab=F Mixed=T DoRPA=T DoScal=F NonHer=T
 Making orbital integer symmetry assigments:
 Orbital symmetries:
       Occupied  (A) (A) (A) (A) (A) (A) (A) (A) (A) (A) (A) (A)
                 (A) (A) (A) (A) (A) (A) (A) (A) (A) (A) (A) (A)
                 (A) (A) (A) (A) (A) (A) (A) (A) (A) (A) (A) (A)
                 (A) (A) (A) (A) (A) (A) (A) (A) (A) (A) (A) (A)
                 (A) (A) (A) (A) (A) (A) (A) (A) (A) (A) (A) (A)
                 (A) (A) (A) (A) (A) (A) (A) (A) (A) (A) (A) (A)
                 (A) (A) (A) (A) (A) (A) (A) (A) (A) (A) (A) (A)
                 (A) (A) (A) (A) (A) (A) (A) (A) (A) (A) (A) (A)
                 (A) (A) (A) (A) (A) (A) (A) (A) (A) (A) (A) (A)
                 (A) (A) (A) (A) (A) (A) (A) (A) (A) (A) (A) (A)
                 (A) (A) (A) (A) (A) (A) (A) (A) (A) (A) (A) (A)
                 (A) (A) (A) (A) (A) (A) (A) (A) (A) (A) (A) (A)
                 (A) (A) (A) (A) (A) (A) (A) (A) (A) (A) (A) (A)
                 (A) (A) (A) (A) (A) (A) (A) (A) (A) (A) (A) (A)
                 (A) (A) (A) (A) (A) (A) (A) (A) (A) (A) (A) (A)
                 (A) (A) (A) (A) (A) (A) (A) (A) (A) (A) (A) (A)
                 (A) (A) (A) (A) (A) (A) (A) (A) (A) (A) (A) (A)
                 (A) (A) (A) (A) (A) (A) (A) (A) (A) (A) (A) (A)
                 (A) (A) (A) (A) (A) (A) (A) (A) (A) (A) (A) (A)
                 (A) (A) (A) (A) (A) (A) (A) (A) (A) (A) (A) (A)
                 (A) (A) (A) (A) (A) (A) (A) (A) (A) (A) (A) (A)
                 (A) (A) (A) (A) (A) (A) (A) (A) (A) (A) (A) (A)
                 (A) (A) (A) (A) (A) (A) (A) (A) (A) (A) (A) (A)
                 (A) (A) (A) (A) (A) (A) (A) (A) (A) (A) (A) (A)
                 (A) (A) (A) (A) (A) (A) (A) (A) (A) (A) (A) (A)
                 (A) (A) (A) (A) (A) (A) (A) (A) (A) (A) (A) (A)
       Virtual   (A) (A) (A) (A) (A) (A) (A) (A) (A) (A) (A) (A)
                 (A) (A) (A) (A) (A) (A) (A) (A) (A) (A) (A) (A)
                 (A) (A) (A) (A) (A) (A) (A) (A) (A) (A) (A) (A)
                 (A) (A) (A) (A) (A) (A) (A) (A) (A) (A) (A) (A)
                 (A) (A) (A) (A) (A) (A) (A) (A) (A) (A) (A) (A)
                 (A) (A) (A) (A) (A) (A) (A) (A) (A) (A) (A) (A)
                 (A) (A) (A) (A) (A) (A) (A) (A) (A) (A) (A) (A)
                 (A) (A) (A) (A) (A) (A) (A) (A) (A) (A) (A) (A)
                 (A) (A) (A) (A) (A) (A) (A) (A) (A) (A) (A) (A)
                 (A) (A) (A) (A) (A) (A) (A) (A) (A) (A) (A) (A)
                 (A) (A) (A) (A) (A) (A) (A) (A) (A) (A) (A) (A)
                 (A) (A) (A) (A) (A) (A) (A) (A) (A) (A) (A) (A)
                 (A) (A) (A) (A) (A) (A) (A) (A) (A) (A) (A) (A)
                 (A) (A) (A) (A) (A) (A) (A) (A) (A) (A) (A) (A)
                 (A) (A) (A) (A) (A) (A) (A) (A) (A) (A) (A) (A)
                 (A) (A) (A) (A) (A) (A) (A) (A) (A) (A) (A) (A)
                 (A) (A) (A) (A) (A) (A) (A) (A) (A) (A) (A) (A)
                 (A) (A) (A) (A) (A) (A) (A) (A) (A) (A) (A) (A)
                 (A) (A) (A) (A) (A) (A) (A) (A) (A) (A) (A) (A)
                 (A) (A) (A) (A) (A) (A) (A) (A) (A) (A) (A) (A)
                 (A) (A) (A) (A) (A) (A) (A) (A) (A) (A) (A) (A)
                 (A) (A) (A) (A) (A) (A) (A) (A) (A) (A) (A) (A)
                 (A) (A) (A) (A) (A) (A) (A) (A) (A) (A) (A) (A)
                 (A) (A) (A) (A) (A) (A) (A) (A) (A) (A) (A) (A)
                 (A) (A) (A) (A) (A) (A) (A) (A) (A) (A) (A) (A)
                 (A) (A) (A) (A) (A) (A) (A) (A) (A) (A) (A) (A)
                 (A) (A) (A) (A) (A) (A) (A) (A) (A) (A) (A) (A)
                 (A) (A) (A) (A) (A) (A) (A) (A) (A) (A) (A) (A)
                 (A) (A) (A) (A) (A) (A) (A) (A) (A) (A) (A) (A)
                 (A) (A) (A) (A) (A) (A) (A) (A) (A) (A) (A) (A)
                 (A) (A) (A) (A) (A) (A) (A) (A) (A) (A) (A) (A)
                 (A) (A) (A) (A) (A) (A) (A) (A) (A) (A) (A) (A)
                 (A) (A) (A) (A) (A) (A) (A) (A) (A) (A) (A) (A)
                 (A) (A) (A) (A) (A) (A) (A) (A) (A) (A) (A) (A)
                 (A) (A) (A) (A) (A) (A) (A) (A) (A) (A) (A) (A)
                 (A) (A) (A) (A) (A) (A) (A) (A) (A) (A) (A) (A)
                 (A) (A) (A) (A) (A) (A) (A) (A) (A) (A) (A) (A)
                 (A) (A) (A) (A) (A) (A) (A) (A) (A) (A) (A) (A)
                 (A) (A) (A) (A) (A) (A) (A) (A) (A) (A) (A) (A)
                 (A) (A) (A) (A) (A) (A) (A) (A) (A) (A) (A) (A)
                 (A) (A) (A) (A) (A) (A) (A) (A) (A) (A) (A) (A)
                 (A) (A) (A) (A) (A) (A) (A) (A) (A) (A) (A) (A)
                 (A) (A) (A) (A) (A) (A) (A) (A) (A) (A) (A) (A)
                 (A) (A) (A) (A) (A) (A) (A) (A) (A) (A) (A) (A)
                 (A) (A) (A) (A) (A) (A) (A) (A) (A) (A) (A) (A)
                 (A) (A) (A) (A) (A) (A) (A) (A) (A) (A) (A) (A)
                 (A) (A) (A) (A) (A) (A) (A) (A) (A) (A) (A) (A)
                 (A) (A) (A) (A) (A) (A) (A) (A) (A) (A) (A) (A)
                 (A) (A) (A) (A) (A) (A) (A) (A) (A) (A) (A) (A)
                 (A) (A) (A) (A) (A) (A) (A) (A) (A) (A) (A) (A)
                 (A) (A) (A) (A) (A) (A) (A) (A) (A) (A) (A) (A)
                 (A) (A) (A) (A) (A) (A) (A) (A) (A) (A) (A) (A)
                 (A) (A) (A) (A) (A) (A) (A) (A) (A) (A) (A) (A)
                 (A) (A) (A) (A) (A) (A) (A) (A) (A) (A) (A) (A)
                 (A) (A) (A) (A) (A) (A) (A) (A) (A) (A) (A) (A)
                 (A) (A) (A) (A) (A) (A) (A) (A) (A) (A) (A) (A)
                 (A) (A) (A) (A) (A) (A) (A) (A) (A) (A) (A) (A)
                 (A) (A) (A) (A) (A) (A) (A) (A) (A) (A) (A) (A)
                 (A) (A) (A) (A) (A) (A) (A) (A) (A) (A) (A) (A)
                 (A) (A) (A) (A) (A) (A) (A) (A) (A) (A) (A) (A)
                 (A) (A) (A) (A) (A) (A) (A) (A) (A) (A) (A) (A)
                 (A) (A) (A) (A) (A) (A) (A) (A) (A) (A) (A) (A)
                 (A) (A) (A) (A) (A) (A) (A) (A) (A) (A) (A) (A)
                 (A) (A) (A) (A) (A) (A) (A) (A) (A) (A) (A) (A)
                 (A) (A) (A) (A) (A) (A) (A) (A) (A) (A) (A) (A)
                 (A) (A) (A) (A) (A) (A) (A) (A) (A) (A) (A) (A)
                 (A) (A) (A) (A) (A) (A) (A) (A) (A) (A) (A) (A)
                 (A) (A) (A) (A) (A) (A) (A) (A) (A) (A) (A) (A)
                 (A) (A) (A) (A) (A) (A) (A) (A) (A) (A) (A) (A)
                 (A) (A) (A) (A) (A) (A) (A) (A) (A) (A) (A) (A)
                 (A) (A) (A) (A) (A) (A) (A) (A) (A) (A) (A) (A)
                 (A) (A) (A) (A) (A) (A) (A) (A) (A) (A) (A) (A)
                 (A) (A) (A) (A) (A) (A) (A) (A) (A) (A) (A) (A)
                 (A) (A) (A) (A) (A) (A) (A) (A) (A) (A) (A) (A)
                 (A) (A) (A) (A) (A) (A) (A) (A) (A) (A) (A) (A)
                 (A) (A) (A) (A) (A) (A) (A) (A) (A) (A) (A) (A)
                 (A) (A) (A) (A) (A) (A) (A) (A) (A) (A) (A) (A)
                 (A) (A) (A) (A) (A) (A) (A) (A) (A) (A) (A) (A)
                 (A) (A) (A) (A) (A) (A) (A) (A) (A) (A) (A) (A)
                 (A) (A) (A) (A) (A) (A) (A) (A) (A) (A) (A) (A)
                 (A) (A) (A) (A) (A) (A) (A) (A) (A) (A) (A) (A)
                 (A) (A) (A) (A) (A) (A) (A) (A) (A) (A) (A) (A)
                 (A) (A) (A) (A) (A) (A) (A) (A) (A) (A) (A) (A)
                 (A) (A) (A) (A) (A) (A) (A) (A) (A) (A) (A) (A)
                 (A) (A) (A) (A) (A) (A) (A) (A) (A) (A) (A) (A)
                 (A) (A) (A) (A) (A) (A) (A) (A) (A) (A) (A) (A)
                 (A) (A) (A) (A) (A) (A) (A) (A) (A) (A) (A) (A)
                 (A) (A) (A) (A) (A) (A) (A) (A) (A) (A) (A) (A)
                 (A) (A) (A) (A) (A) (A) (A) (A) (A) (A) (A) (A)
                 (A) (A) (A) (A) (A) (A) (A) (A) (A) (A) (A) (A)
                 (A) (A) (A) (A) (A) (A) (A) (A) (A) (A) (A) (A)
                 (A) (A) (A) (A) (A) (A) (A) (A) (A) (A) (A) (A)
                 (A) (A) (A) (A) (A) (A) (A) (A) (A) (A) (A) (A)
                 (A) (A) (A) (A) (A) (A) (A) (A) (A) (A) (A) (A)
                 (A) (A) (A) (A) (A) (A) (A) (A) (A) (A) (A) (A)
                 (A) (A) (A) (A) (A) (A) (A) (A) (A) (A) (A) (A)
                 (A) (A) (A) (A) (A) (A) (A) (A) (A) (A) (A) (A)
                 (A) (A) (A) (A) (A) (A) (A) (A) (A) (A) (A) (A)
                 (A) (A) (A) (A) (A) (A) (A) (A) (A) (A) (A) (A)
                 (A) (A) (A) (A) (A) (A) (A) (A) (A) (A) (A) (A)
                 (A) (A) (A) (A) (A) (A) (A) (A) (A) (A) (A) (A)
                 (A) (A) (A) (A) (A) (A) (A) (A) (A) (A) (A) (A)
                 (A) (A) (A) (A) (A) (A) (A) (A) (A) (A) (A) (A)
                 (A) (A) (A) (A) (A) (A) (A) (A) (A) (A) (A) (A)
                 (A) (A) (A) (A) (A) (A) (A) (A) (A) (A) (A) (A)
    20 initial guesses have been made.
 Convergence on wavefunction:    0.001000000000000
 Davidson Disk Diagonalization:  ConvIn= 1.00D-03 SkipCon=T Conv= 1.00D-03.
 Max sub-space:  2000 roots to seek:    20 dimension of matrix:       549360
 Iteration     1 Dimension    20 NMult     0 NNew     20
 CISAX will form    20 AO SS matrices at one time.
 NMat=    20 NSing=    20 JSym2X= 0.
 FoFJK:  IHMeth= 1 ICntrl=       0 DoSepK=T KAlg= 0 I1Cent=           0 FoldK=F
 IRaf=         1 NMat=      40 IRICut=       1 DoRegI=T DoRafI=F ISym2E= 0 IDoP0=3 IntGTp=3.
 FoFCou: FMM=T IPFlag=           0 FMFlag=      100000 FMFlg1=        2001
         NFxFlg=           0 DoJE=F BraDBF=F KetDBF=F FulRan=T
         wScrn=  0.000000 ICntrl=       500 IOpCl=  0 I1Cent=           0 NGrid=           0
         NMat0=   20 NMatS0=     20 NMatT0=    0 NMatD0=   20 NMtDS0=    0 NMtDT0=    0
 Symmetry not used in FoFCou.
 FMM levels:  10  Number of levels for PrismC:   9
 New state      1 was old state      7
 New state      2 was old state      6
 New state      3 was old state      1
 New state      4 was old state      2
 New state      5 was old state      3
 Excitation Energies [eV] at current iteration:
 Root      1 :     2.612978675849379
 Root      2 :     2.619423888641212
 Root      3 :     2.648043705410333
 Root      4 :     2.663954320197703
 Root      5 :     2.708147405064803
 Root      6 :     2.747524293019829
 Root      7 :     3.455450411803238
 Root      8 :     3.548973731811559
 Root      9 :     3.635099311499063
 Root     10 :     3.674340181541783
 Root     11 :     3.727465813758251
 Root     12 :     3.757797018492295
 Root     13 :     4.288683114013544
 Root     14 :     4.327575611495565
 Root     15 :     4.557863193576937
 Root     16 :     4.667228475333502
 Root     17 :     4.721496500088169
 Root     18 :     4.963245397240789
 Root     19 :     4.973131295724477
 Root     20 :     5.031199953453481
 Iteration     2 Dimension    30 NMult    20 NNew     10
 CISAX will form    10 AO SS matrices at one time.
 NMat=    10 NSing=    10 JSym2X= 0.
 New state      1 was old state      4
 Root      1 not converged, maximum delta is    0.145119783727613
 New state      2 was old state      5
 Root      2 not converged, maximum delta is    0.150181819241567
 New state      3 was old state      2
 Root      3 not converged, maximum delta is    0.405667715009181
 New state      4 was old state      1
 Root      4 not converged, maximum delta is    0.422731354748070
 New state      5 was old state      3
 Root      5 not converged, maximum delta is    0.009017279329325
 Excitation Energies [eV] at current iteration:
 Root      1 :     1.790714151505513   Change is   -0.873240168692190
 Root      2 :     1.817197982960496   Change is   -0.890949422104307
 Root      3 :     2.235599843307495   Change is   -0.383824045333717
 Root      4 :     2.241077698337786   Change is   -0.371900977511594
 Root      5 :     2.647019773647205   Change is   -0.001023931763128
 Iteration     3 Dimension    40 NMult    30 NNew     10
 CISAX will form    10 AO SS matrices at one time.
 NMat=    10 NSing=    10 JSym2X= 0.
 Root      1 not converged, maximum delta is    0.053469090866528
 Root      2 not converged, maximum delta is    0.054409808725826
 Root      3 not converged, maximum delta is    0.102946720919754
 Root      4 not converged, maximum delta is    0.102565513243312
 Root      5 has converged.
 Excitation Energies [eV] at current iteration:
 Root      1 :     1.684722085046513   Change is   -0.105992066459000
 Root      2 :     1.707985005571275   Change is   -0.109212977389221
 Root      3 :     2.195475513900026   Change is   -0.040124329407469
 Root      4 :     2.202113142608349   Change is   -0.038964555729436
 Root      5 :     2.647017355971153   Change is   -0.000002417676052
 Iteration     4 Dimension    48 NMult    40 NNew      8
 CISAX will form     8 AO SS matrices at one time.
 NMat=     8 NSing=     8 JSym2X= 0.
 Root      1 not converged, maximum delta is    0.010223556205660
 Root      2 not converged, maximum delta is    0.010384391044480
 Root      3 not converged, maximum delta is    0.015864250591608
 Root      4 not converged, maximum delta is    0.015708912108744
 Root      5 has converged.
 Excitation Energies [eV] at current iteration:
 Root      1 :     1.668033456946036   Change is   -0.016688628100476
 Root      2 :     1.691082832784165   Change is   -0.016902172787110
 Root      3 :     2.188374685509643   Change is   -0.007100828390383
 Root      4 :     2.195332277237091   Change is   -0.006780865371258
 Root      5 :     2.647017355966805   Change is   -0.000000000004348
 Iteration     5 Dimension    56 NMult    48 NNew      8
 CISAX will form     8 AO SS matrices at one time.
 NMat=     8 NSing=     8 JSym2X= 0.
 Root      1 not converged, maximum delta is    0.001669898722491
 Root      2 not converged, maximum delta is    0.001746374583588
 Root      3 not converged, maximum delta is    0.002374436055930
 Root      4 not converged, maximum delta is    0.002333114810305
 Root      5 has converged.
 Excitation Energies [eV] at current iteration:
 Root      1 :     1.666300267605737   Change is   -0.001733189340299
 Root      2 :     1.689262270046154   Change is   -0.001820562738011
 Root      3 :     2.187552369308213   Change is   -0.000822316201431
 Root      4 :     2.194559794319869   Change is   -0.000772482917222
 Root      5 :     2.647017355960532   Change is   -0.000000000006273
 Iteration     6 Dimension    64 NMult    56 NNew      8
 CISAX will form     8 AO SS matrices at one time.
 NMat=     8 NSing=     8 JSym2X= 0.
 Root      1 not converged, maximum delta is    0.001044262686292
 Root      2 not converged, maximum delta is    0.001067461912263
 Root      3 has converged.
 Root      4 has converged.
 Root      5 has converged.
 Excitation Energies [eV] at current iteration:
 Root      1 :     1.666052835165498   Change is   -0.000247432440240
 Root      2 :     1.689002559303208   Change is   -0.000259710742946
 Root      3 :     2.187428857306630   Change is   -0.000123512001583
 Root      4 :     2.194442119107895   Change is   -0.000117675211974
 Root      5 :     2.647017355954755   Change is   -0.000000000005777
 Iteration     7 Dimension    68 NMult    64 NNew      4
 CISAX will form     4 AO SS matrices at one time.
 NMat=     4 NSing=     4 JSym2X= 0.
 Root      1 has converged.
 Root      2 has converged.
 Root      3 has converged.
 Root      4 has converged.
 Root      5 has converged.
 Excitation Energies [eV] at current iteration:
 Root      1 :     1.666028730040477   Change is   -0.000024105125021
[...]
 Alpha virt. eigenvalues --    1.85859   1.86006   1.86367   1.86496   1.86561
 Alpha virt. eigenvalues --    1.86763   1.86780   1.86928   1.87019   1.87116
 Alpha virt. eigenvalues --    1.87434   1.87577   1.87647   1.87845   1.87865
 Alpha virt. eigenvalues --    1.88033   1.88110   1.88285   1.88526   1.88694
 Alpha virt. eigenvalues --    1.88794   1.89041   1.89136   1.89140   1.89627
 Alpha virt. eigenvalues --    1.89747   1.89797   1.90021   1.90102   1.90312
 Alpha virt. eigenvalues --    1.90721   1.90971   1.91316   1.91439   1.91502
 Alpha virt. eigenvalues --    1.91675   1.92132   1.92264   1.92581   1.92731
 Alpha virt. eigenvalues --    1.92972   1.93246   1.93348   1.93592   1.94290
 Alpha virt. eigenvalues --    1.94389   1.94691   1.94927   1.95498   1.95663
 Alpha virt. eigenvalues --    1.95693   1.95880   1.95952   1.96134   1.96169
 Alpha virt. eigenvalues --    1.96248   1.96557   1.96585   1.96890   1.97050
 Alpha virt. eigenvalues --    1.97439   1.97606   1.97833   1.97867   1.98135
 Alpha virt. eigenvalues --    1.98242   1.98404   1.98594   1.99104   1.99161
 Alpha virt. eigenvalues --    1.99776   2.00023   2.00652   2.00804   2.00954
 Alpha virt. eigenvalues --    2.01182   2.01414   2.01593   2.01667   2.01683
 Alpha virt. eigenvalues --    2.01699   2.01896   2.02762   2.02794   2.03207
 Alpha virt. eigenvalues --    2.03236   2.03364   2.03429   2.03468   2.03601
 Alpha virt. eigenvalues --    2.04008   2.04106   2.04952   2.05090   2.05508
 Alpha virt. eigenvalues --    2.05751   2.06066   2.06408   2.06831   2.07096
 Alpha virt. eigenvalues --    2.07155   2.07425   2.08602   2.08720   2.08957
 Alpha virt. eigenvalues --    2.09088   2.09548   2.09710   2.10810   2.11112
 Alpha virt. eigenvalues --    2.11157   2.11490   2.11505   2.11595   2.11708
 Alpha virt. eigenvalues --    2.11990   2.12433   2.12543   2.12790   2.12819
 Alpha virt. eigenvalues --    2.12906   2.12948   2.13697   2.13709   2.14148
 Alpha virt. eigenvalues --    2.14323   2.15321   2.15517   2.15887   2.16152
 Alpha virt. eigenvalues --    2.16524   2.16689   2.16718   2.17259   2.17398
 Alpha virt. eigenvalues --    2.17694   2.17737   2.18008   2.18069   2.18085
 Alpha virt. eigenvalues --    2.18271   2.18752   2.18815   2.19301   2.19606
 Alpha virt. eigenvalues --    2.19909   2.20006   2.20172   2.20314   2.20536
 Alpha virt. eigenvalues --    2.21184   2.21262   2.21655   2.21690   2.21857
 Alpha virt. eigenvalues --    2.21967   2.22668   2.22795   2.23305   2.23415
 Alpha virt. eigenvalues --    2.24391   2.24505   2.25000   2.25124   2.26243
 Alpha virt. eigenvalues --    2.26516   2.26768   2.27053   2.27091   2.27281
 Alpha virt. eigenvalues --    2.28109   2.28396   2.29256   2.29532   2.29693
 Alpha virt. eigenvalues --    2.29961   2.30410   2.30684   2.30873   2.31030
 Alpha virt. eigenvalues --    2.31125   2.31275   2.32122   2.32336   2.33094
 Alpha virt. eigenvalues --    2.33322   2.33435   2.33548   2.34141   2.34201
 Alpha virt. eigenvalues --    2.35297   2.35351   2.35761   2.36004   2.36375
 Alpha virt. eigenvalues --    2.36447   2.36532   2.36599   2.37668   2.37750
 Alpha virt. eigenvalues --    2.38268   2.38520   2.38806   2.38859   2.39584
 Alpha virt. eigenvalues --    2.39756   2.40183   2.40331   2.40441   2.40894
 Alpha virt. eigenvalues --    2.41220   2.41271   2.41703   2.41775   2.41972
 Alpha virt. eigenvalues --    2.42194   2.42917   2.42971   2.43080   2.43412
 Alpha virt. eigenvalues --    2.44091   2.44129   2.44705   2.44875   2.44902
 Alpha virt. eigenvalues --    2.45058   2.45525   2.45662   2.46295   2.46409
 Alpha virt. eigenvalues --    2.46442   2.46604   2.46756   2.46881   2.47230
 Alpha virt. eigenvalues --    2.47442   2.47695   2.47966   2.49319   2.49508
 Alpha virt. eigenvalues --    2.49966   2.50093   2.50573   2.50593   2.51068
 Alpha virt. eigenvalues --    2.51327   2.51726   2.51846   2.52388   2.52443
 Alpha virt. eigenvalues --    2.52775   2.53240   2.53907   2.54067   2.54161
 Alpha virt. eigenvalues --    2.54431   2.54768   2.54875   2.55508   2.55758
 Alpha virt. eigenvalues --    2.57851   2.58181   2.58635   2.58980   2.60142
 Alpha virt. eigenvalues --    2.60354   2.60570   2.60993   2.61701   2.61917
 Alpha virt. eigenvalues --    2.62497   2.62507   2.62922   2.63187   2.63904
 Alpha virt. eigenvalues --    2.64269   2.64304   2.64474   2.65059   2.65157
 Alpha virt. eigenvalues --    2.65743   2.65923   2.66783   2.66892   2.66898
 Alpha virt. eigenvalues --    2.67134   2.67897   2.68043   2.68826   2.68905
 Alpha virt. eigenvalues --    2.68976   2.69083   2.69396   2.69649   2.69980
 Alpha virt. eigenvalues --    2.70200   2.70952   2.71120   2.71947   2.72000
 Alpha virt. eigenvalues --    2.72535   2.72594   2.72730   2.72773   2.73298
 Alpha virt. eigenvalues --    2.73353   2.73405   2.73485   2.74476   2.74564
 Alpha virt. eigenvalues --    2.74932   2.75116   2.76576   2.76583   2.77121
 Alpha virt. eigenvalues --    2.77177   2.77436   2.77699   2.78193   2.78411
 Alpha virt. eigenvalues --    2.78674   2.78750   2.79104   2.79215   2.80312
 Alpha virt. eigenvalues --    2.80396   2.80518   2.80738   2.81059   2.81220
 Alpha virt. eigenvalues --    2.81891   2.82047   2.82324   2.82386   2.83681
 Alpha virt. eigenvalues --    2.83761   2.83941   2.83968   2.84521   2.84601
 Alpha virt. eigenvalues --    2.84881   2.84934   2.85665   2.85798   2.86704
 Alpha virt. eigenvalues --    2.86957   2.87190   2.87515   2.88148   2.88364
 Alpha virt. eigenvalues --    2.88483   2.88658   2.88909   2.88941   2.90468
 Alpha virt. eigenvalues --    2.90696   2.91111   2.91192   2.93112   2.93379
 Alpha virt. eigenvalues --    2.93826   2.94177   2.94570   2.94654   2.95315
 Alpha virt. eigenvalues --    2.95509   2.95839   2.96095   2.96428   2.96442
 Alpha virt. eigenvalues --    2.96880   2.97089   2.97742   2.98153   2.98187
 Alpha virt. eigenvalues --    2.98342   2.98389   2.98556   2.98635   2.98824
 Alpha virt. eigenvalues --    2.98869   2.98988   2.99616   2.99898   2.99952
 Alpha virt. eigenvalues --    3.00037   3.00193   3.00410   3.00471   3.01037
 Alpha virt. eigenvalues --    3.01938   3.02001   3.02010   3.02184   3.02641
 Alpha virt. eigenvalues --    3.02889   3.02928   3.03329   3.03448   3.03741
 Alpha virt. eigenvalues --    3.04095   3.04183   3.04409   3.04474   3.04560
 Alpha virt. eigenvalues --    3.04763   3.05310   3.05451   3.06094   3.06201
 Alpha virt. eigenvalues --    3.06755   3.06982   3.08042   3.08159   3.09355
 Alpha virt. eigenvalues --    3.09438   3.09667   3.10409   3.10456   3.10788
 Alpha virt. eigenvalues --    3.11350   3.11524   3.11878   3.11928   3.12234
 Alpha virt. eigenvalues --    3.12337   3.13231   3.13652   3.13690   3.13762
 Alpha virt. eigenvalues --    3.13980   3.14480   3.15972   3.16031   3.17224
 Alpha virt. eigenvalues --    3.17570   3.17985   3.18093   3.19119   3.19122
 Alpha virt. eigenvalues --    3.22181   3.22611   3.23907   3.24491   3.24597
 Alpha virt. eigenvalues --    3.25229   3.26470   3.26712   3.27444   3.27583
 Alpha virt. eigenvalues --    3.28964   3.29227   3.31435   3.31486   3.33245
 Alpha virt. eigenvalues --    3.33392   3.40251   3.40479   3.42814   3.42919
 Alpha virt. eigenvalues --    3.48605   3.48744   3.49994   3.50340   3.50897
 Alpha virt. eigenvalues --    3.51449   3.56529   3.57070   3.59087   3.59393
 Alpha virt. eigenvalues --    3.62568   3.62792   3.66196   3.66228   3.67049
 Alpha virt. eigenvalues --    3.67542   3.73145   3.74031   3.75947   3.76696
          Condensed to atoms (all electrons):
 Mulliken charges:
               1
     1  Mg   0.838104
     2  C   -0.003675
     3  C   -0.094187
     4  C   -0.045466
     5  C   -0.063672
     6  N   -0.256853
     7  C   -0.052749
     8  C   -0.013962
     9  C   -0.087032
    10  C    0.046309
    11  C    0.104757
    12  C    0.053493
    13  C   -0.071611
    14  H    0.035033
    15  N   -0.433264
    16  C    0.168591
    17  C   -0.176933
    18  C   -0.003627
    19  C    0.148817
    20  C    0.110095
    21  C    0.012668
    22  O   -0.249064
    23  C    0.062303
    24  N   -0.341180
    25  C    0.041441
    26  C   -0.028293
    27  C   -0.023988
    28  C    0.074876
    29  C    0.076112
    30  C    0.034970
    31  C   -0.004728
    32  N   -0.310211
    33  C    0.079840
    34  C   -0.170202
    35  C    0.007943
    36  C    0.082235
    37  C    0.127472
    38  C    0.045263
    39  O   -0.189217
    40  C   -0.005030
    41  C    0.213083
    42  O   -0.258967
    43  O   -0.304299
    44  C    0.158046
    45  H   -0.017396
    46  H   -0.016306
    47  H   -0.041184
    48  H    0.000847
    49  H   -0.003941
    50  H    0.025466
    51  H    0.016694
    52  H    0.016840
    53  H    0.011369
    54  H    0.042969
    55  H    0.018172
    56  H    0.018401
    57  H    0.005881
    58  H    0.027131
    59  H    0.040147
    60  H    0.037319
    61  H    0.036212
    62  H    0.031923
    63  H    0.017210
    64  H    0.009429
    65  H    0.023561
    66  H    0.012379
    67  H    0.004851
    68  H    0.006775
    69  H    0.004723
    70  H    0.009358
    71  H    0.020434
    72  H    0.027685
    73  H    0.046744
    74  H    0.009546
    75  H    0.046121
    76  H    0.035360
    77  H    0.043082
    78  H    0.046676
    79  H    0.052280
    80  Mg   0.837430
    81  C   -0.016968
    82  C   -0.087338
    83  C   -0.045570
    84  C   -0.064962
    85  N   -0.254537
    86  C   -0.050218
    87  C   -0.015086
    88  C   -0.090506
    89  C    0.045635
    90  C    0.114355
    91  C    0.062463
    92  C   -0.077602
    93  H    0.033888
    94  N   -0.423630
    95  C    0.162912
    96  C   -0.174031
    97  C   -0.007520
    98  C    0.152157
    99  C    0.098845
   100  C    0.015339
   101  O   -0.254156
   102  C    0.061523
   103  N   -0.350025
   104  C    0.037654
   105  C   -0.019811
   106  C   -0.034658
   107  C    0.088607
   108  C    0.073756
   109  C    0.034845
   110  C   -0.007604
   111  N   -0.323944
   112  C    0.077959
   113  C   -0.163567
   114  C    0.001984
   115  C    0.095862
   116  C    0.131586
   117  C    0.042014
   118  O   -0.188686
   119  C    0.001033
   120  C    0.211177
   121  O   -0.251313
   122  O   -0.305572
   123  C    0.152202
   124  H   -0.019026
   125  H   -0.015693
   126  H   -0.040909
   127  H   -0.000969
   128  H   -0.004047
   129  H    0.022222
   130  H    0.014582
   131  H    0.016326
   132  H    0.014207
   133  H    0.037331
   134  H    0.020701
   135  H    0.019786
   136  H    0.008866
   137  H    0.026946
   138  H    0.044141
   139  H    0.039569
   140  H    0.035788
   141  H    0.036300
   142  H    0.014277
   143  H    0.012106
   144  H    0.024882
   145  H    0.011751
   146  H    0.005454
   147  H    0.005947
   148  H    0.003383
   149  H    0.010948
   150  H    0.017643
   151  H    0.030226
   152  H    0.045523
   153  H    0.008212
   154  H    0.046580
   155  H    0.034777
   156  H    0.043630
   157  H    0.049403
   158  H    0.053214
 Sum of Mulliken charges =  -0.00000
 Mulliken charges with hydrogens summed into heavy atoms:
               1
     1  Mg   0.838104
     2  C   -0.003675
     3  C   -0.111583
     4  C   -0.061772
     5  C   -0.104856
     6  N   -0.256853
     7  C   -0.052749
     8  C   -0.013115
     9  C   -0.090973
    10  C    0.046309
    11  C    0.163757
    12  C    0.107831
    13  C   -0.000005
    15  N   -0.433264
    16  C    0.168591
    17  C   -0.176933
    18  C   -0.003627
    19  C    0.148817
    20  C    0.183254
    21  C    0.012668
    22  O   -0.249064
    23  C    0.167757
    24  N   -0.341180
    25  C    0.041441
    26  C   -0.011083
    27  C   -0.014560
    28  C    0.074876
    29  C    0.116904
    30  C    0.046468
    31  C    0.052749
    32  N   -0.310211
    33  C    0.079840
    34  C   -0.170202
    35  C    0.007943
    36  C    0.082235
    37  C    0.229883
    38  C    0.045263
    39  O   -0.189217
    40  C    0.030330
    41  C    0.213083
    42  O   -0.258967
    43  O   -0.304299
    44  C    0.300083
    80  Mg   0.837430
    81  C   -0.016968
    82  C   -0.106364
    83  C   -0.061263
    84  C   -0.105871
    85  N   -0.254537
    86  C   -0.050218
    87  C   -0.016055
    88  C   -0.094553
    89  C    0.045635
    90  C    0.167486
    91  C    0.114001
    92  C   -0.003227
    94  N   -0.423630
    95  C    0.162912
    96  C   -0.174031
    97  C   -0.007520
    98  C    0.152157
    99  C    0.178797
   100  C    0.015339
   101  O   -0.254156
   102  C    0.173180
   103  N   -0.350025
   104  C    0.037654
   105  C   -0.005534
   106  C   -0.022552
   107  C    0.088607
   108  C    0.115843
   109  C    0.044176
   110  C    0.051212
   111  N   -0.323944
   112  C    0.077959
   113  C   -0.163567
   114  C    0.001984
   115  C    0.095862
   116  C    0.231901
   117  C    0.042014
   118  O   -0.188686
   119  C    0.035810
   120  C    0.211177
   121  O   -0.251313
   122  O   -0.305572
   123  C    0.298448
 Electronic spatial extent (au):  <R**2>=         156942.0730
 Charge=             -0.0000 electrons
 Dipole moment (field-independent basis, Debye):
    X=              3.7354    Y=              3.0231    Z=              0.8002  Tot=              4.8716
 Quadrupole moment (field-independent basis, Debye-Ang):
   XX=           -530.8384   YY=           -464.4877   ZZ=           -522.2376
   XY=             10.0998   XZ=             61.6198   YZ=             22.0528
 Traceless Quadrupole moment (field-independent basis, Debye-Ang):
   XX=            -24.9838   YY=             41.3669   ZZ=            -16.3831
   XY=             10.0998   XZ=             61.6198   YZ=             22.0528
 Octapole moment (field-independent basis, Debye-Ang**2):
  XXX=            754.6602  YYY=            236.8172  ZZZ=            187.8262  XYY=           -198.2692
  XXY=           -103.5379  XXZ=           -153.0517  XZZ=             91.0175  YZZ=             80.7417
  YYZ=            -31.0593  XYZ=            277.4570
 Hexadecapole moment (field-independent basis, Debye-Ang**3):
 XXXX=        -163398.0247 YYYY=         -33204.5752 ZZZZ=         -22697.5987 XXXY=           1759.0580
 XXXZ=           4916.1040 YYYX=            440.9263 YYYZ=            383.2057 ZZZX=           1360.1744
 ZZZY=            504.2604 XXYY=         -28526.8931 XXZZ=         -31175.8736 YYZZ=          -9958.0712
 XXYZ=           1642.2735 YYXZ=          -1059.1355 ZZXY=           -353.4761
 N-N= 1.425806047374D+04 E-N=-3.799717171922D+04  KE= 4.028802318344D+03
 Leave Link  601 at Sat Sep 11 04:35:00 2021, MaxMem= 23488102400 cpu:              13.3 elap:               0.7
 (Enter /sw/apps/gaussian-16.0/g16/l9999.exe)
 1\1\GINC-BP1-COMPUTE00105\SP\RCAM-B3LYP TD-FC\def2SVP\C68H72Mg2N8O8\OF
 15641\11-Sep-2021\0\\#p cam-b3lyp/Def2SVP td=(nstates=5)\\TDDFT excite
 d states in gaussian\\0,1\Mg,0,0.,0.,0.\C,0,-0.217,-2.218,2.801\C,0,-1
 .255,2.442,2.026\C,0,-0.245,1.85,-2.564\C,0,0.146,-2.824,-2.037\N,0,-0
 .617,-0.009,2.126\C,0,-0.594,-0.908,3.105\C,0,-0.936,-0.309,4.502\C,0,
 -1.773,0.964,4.032\C,0,-1.155,1.168,2.66\C,0,-3.263,0.685,3.863\C,0,0.
 345,0.11,5.299\C,0,0.124,0.397,6.787\H,0,1.168,0.033,7.733\N,0,-0.185,
 1.961,-0.152\C,0,-0.703,2.8,0.777\C,0,-0.62,4.156,0.193\C,0,-0.187,4.0
 15,-1.225\C,0,-0.214,2.583,-1.38\C,0,-0.887,5.406,0.974\C,0,0.181,5.01
 3,-2.277\O,0,0.303,4.69,-3.508\C,0,0.31,6.414,-1.837\N,0,-0.265,-0.413
 ,-2.029\C,0,-0.279,0.569,-2.937\C,0,-0.196,0.024,-4.332\C,0,0.124,-1.5
 33,-4.18\C,0,0.086,-1.632,-2.635\C,0,-1.451,0.205,-5.197\C,0,1.373,-2.
 07,-4.923\C,0,2.626,-1.49,-4.306\N,0,0.15,-2.144,0.303\C,0,0.173,-3.13
 6,-0.688\C,0,0.173,-4.438,0.004\C,0,0.133,-4.111,1.358\C,0,0.083,-2.69
 5,1.502\C,0,0.149,-5.715,-0.623\C,0,0.096,-4.629,2.716\O,0,0.208,-5.74
 7,3.221\C,0,-0.255,-3.428,3.701\C,0,0.717,-3.482,4.848\O,0,1.931,-3.25
 5,4.669\O,0,0.038,-3.556,6.003\C,0,0.943,-3.583,7.183\H,0,-1.859,3.22,
 2.497\H,0,-0.218,2.453,-3.474\H,0,0.276,-3.747,-2.605\H,0,-1.554,-0.94
 9,5.132\H,0,-1.585,1.831,4.665\H,0,-3.484,-0.377,3.969\H,0,-3.511,1.02
 7,2.858\H,0,-3.852,1.301,4.543\H,0,0.669,1.096,4.966\H,0,1.13,-0.639,5
 .189\H,0,-0.844,0.026,7.125\H,0,0.062,1.477,6.921\H,0,-1.344,5.186,1.9
 38\H,0,-1.651,5.963,0.432\H,0,0.007,6.02,1.084\H,0,-0.635,6.744,-1.405
 \H,0,0.665,6.97,-2.704\H,0,1.048,6.466,-1.036\H,0,0.608,0.501,-4.891\H
 ,0,-0.692,-2.156,-4.547\H,0,-1.267,0.74,-6.129\H,0,-2.204,0.714,-4.596
 \H,0,-1.967,-0.72,-5.453\H,0,1.356,-1.759,-5.967\H,0,1.452,-3.157,-4.9
 02\H,0,2.714,-0.522,-4.798\H,0,3.487,-2.121,-4.529\H,0,2.495,-1.303,-3
 .24\H,0,0.867,-6.333,-0.084\H,0,0.404,-5.642,-1.68\H,0,-0.891,-5.999,-
 0.463\H,0,-1.283,-3.581,4.028\H,0,0.698,-4.478,7.755\H,0,0.833,-2.619,
 7.68\H,0,2.,-3.754,6.976\Mg,0,13.1303,1.18589,1.00394\C,0,14.78552,3.0
 6762,3.57267\C,0,11.94421,-0.85178,3.46882\C,0,12.0341,-0.74856,-1.259
 62\C,0,15.3244,2.63883,-1.28093\N,0,13.39914,1.20817,3.19927\C,0,13.99
 904,2.00711,4.06884\C,0,13.67647,1.69767,5.55537\C,0,13.27216,0.15161,
 5.3969\C,0,12.80768,0.16831,3.94203\C,0,14.45594,-0.79461,5.50952\C,0,
 12.47734,2.55235,6.09723\C,0,12.30641,2.52914,7.61776\H,0,11.84593,3.7
 4372,8.28502\N,0,11.75346,-0.24082,1.08979\C,0,11.38177,-0.9486,2.1770
 7\C,0,10.35004,-1.88845,1.71193\C,0,10.26073,-1.79103,0.22962\C,0,11.3
 8504,-0.91905,-0.04545\C,0,9.51027,-2.70493,2.65086\C,0,9.32677,-2.394
 4,-0.7753\O,0,9.57901,-2.36495,-2.03162\C,0,8.15512,-3.10234,-0.23907\
 N,0,13.74114,0.8106,-0.94757\C,0,13.05772,-0.03872,-1.73466\C,0,13.515
 17,0.06015,-3.1704\C,0,14.48472,1.33077,-3.22586\C,0,14.49068,1.71008,
 -1.7287\C,0,14.24786,-1.16317,-3.72088\C,0,14.14243,2.43234,-4.26608\C
 ,0,12.84957,3.11741,-3.88585\N,0,14.63985,2.73048,1.06334\C,0,15.45882
 ,3.16421,-0.00214\C,0,16.40768,4.15158,0.55211\C,0,16.08749,4.20717,1.
 91698\C,0,15.02821,3.30236,2.19762\C,0,17.43238,4.81994,-0.1755\C,0,16
 .41181,4.81771,3.18614\O,0,17.1644,5.72108,3.54845\C,0,15.66782,4.0142
 4,4.33823\C,0,15.00305,5.01254,5.24597\O,0,14.07216,5.72405,4.82908\O,
 0,15.42591,4.81112,6.50731\C,0,14.786,5.77022,7.4467\H,0,11.70654,-1.6
 8104,4.1357\H,0,11.62032,-1.31259,-2.09875\H,0,15.97519,3.20923,-1.947
 1\H,0,14.5168,1.79474,6.23227\H,0,12.44947,-0.11116,6.05682\H,0,15.394
 02,-0.26206,5.55985\H,0,14.42083,-1.4163,4.62447\H,0,14.31873,-1.47064
 ,6.35833\H,0,11.53453,2.07858,5.79492\H,0,12.54837,3.56716,5.75703\H,0
 ,13.18953,2.12286,8.12567\H,0,11.5073,1.82657,7.86644\H,0,9.91586,-2.6
 8966,3.67001\H,0,9.60388,-3.75017,2.33689\H,0,8.45575,-2.42191,2.62723
 \H,0,8.48659,-3.90717,0.41273\H,0,7.56125,-3.38611,-1.11008\H,0,7.5820
 5,-2.40765,0.38511\H,0,12.67538,0.22973,-3.83304\H,0,15.51574,1.04571,
 -3.48192\H,0,13.77392,-1.58442,-4.62752\H,0,14.30242,-1.90887,-2.9389\
 H,0,15.29755,-1.00332,-3.96131\H,0,13.97955,1.98632,-5.2503\H,0,14.921
 25,3.17956,-4.37603\H,0,12.08627,2.44625,-4.29082\H,0,12.79011,4.10361
 ,-4.34184\H,0,12.72269,3.14227,-2.7973\H,0,17.41053,5.85576,0.13612\H,
 0,17.28499,4.72379,-1.24918\H,0,18.30958,4.26616,0.16964\H,0,16.41886,
 3.42146,4.86179\H,0,15.59333,6.28864,7.97316\H,0,14.08979,5.16804,8.06
 023\H,0,14.24287,6.6045,7.01841\\Version=ES64L-G16RevA.03\State=1-A\HF
 =-4069.8123181\RMSD=7.189e-09\PG=C01 [X(C68H72Mg2N8O8)]\\@


 ALL OUR THINKING ABOUT NATURE MUST NECESSARILY MOVE IN CIRCLES OR SPIRALS;
 FOR WE CAN ONLY UNDERSTAND NATURE IF WE THINK ABOUT HER, AND WE CAN ONLY
 THINK BECAUSE OUR BRAIN IS BUILT IN ACCORDANCE WITH NATURE'S LAWS.

                                             -- TIMOTHY FERRIS, "GALAXIES"
 Job cpu time:       0 days 13 hours 58 minutes 26.9 seconds.
 Elapsed time:       0 days  0 hours 35 minutes 32.2 seconds.
 File lengths (MBytes):  RWF=  13225 Int=      0 D2E=      0 Chk=    574 Scr=      1
 Normal termination of Gaussian 16 at Sat Sep 11 04:35:01 2021.
