 Entering Gaussian System, Link 0=g16
 Initial command:
 /sw/apps/gaussian-16.0/g16/l1.exe "/tmp/Gau-181708.inp" -scrdir="/tmp/"
 Entering Link 1 = /sw/apps/gaussian-16.0/g16/l1.exe PID=    181709.
  
 Copyright (c) 1988,1990,1992,1993,1995,1998,2003,2009,2016,
            Gaussian, Inc.  All Rights Reserved.
  
 This is part of the Gaussian(R) 16 program.  It is based on
 the Gaussian(R) 09 system (copyright 2009, Gaussian, Inc.),
 the Gaussian(R) 03 system (copyright 2003, Gaussian, Inc.),
 the Gaussian(R) 98 system (copyright 1998, Gaussian, Inc.),
 the Gaussian(R) 94 system (copyright 1995, Gaussian, Inc.),
 the Gaussian 92(TM) system (copyright 1992, Gaussian, Inc.),
 the Gaussian 90(TM) system (copyright 1990, Gaussian, Inc.),
 the Gaussian 88(TM) system (copyright 1988, Gaussian, Inc.),
 the Gaussian 86(TM) system (copyright 1986, Carnegie Mellon
 University), and the Gaussian 82(TM) system (copyright 1983,
 Carnegie Mellon University). Gaussian is a federally registered
 trademark of Gaussian, Inc.
  
 This software contains proprietary and confidential information,
 including trade secrets, belonging to Gaussian, Inc.
  
 This software is provided under written license and may be
 used, copied, transmitted, or stored only in accord with that
 written license.
  
 The following legend is applicable only to US Government
 contracts under FAR:
  
                    RESTRICTED RIGHTS LEGEND
  
 Use, reproduction and disclosure by the US Government is
 subject to restrictions as set forth in subparagraphs (a)
 and (c) of the Commercial Computer Software - Restricted
 Rights clause in FAR 52.227-19.
  
 Gaussian, Inc.
 340 Quinnipiac St., Bldg. 40, Wallingford CT 06492
  
  
 ---------------------------------------------------------------
 Warning -- This program may not be used in any manner that
 competes with the business of Gaussian, Inc. or will provide
 assistance to any competitor of Gaussian, Inc.  The licensee
 of this program is prohibited from giving any competitor of
 Gaussian, Inc. access to this program.  By using this program,
 the user acknowledges that Gaussian, Inc. is engaged in the
 business of creating and licensing software in the field of
 computational chemistry and represents and warrants to the
 licensee that it is not a competitor of Gaussian, Inc. and that
 it will not use this program in any manner prohibited above.
 ---------------------------------------------------------------
  

 Cite this work as:
 Gaussian 16, Revision A.03,
 M. J. Frisch, G. W. Trucks, H. B. Schlegel, G. E. Scuseria, 
 M. A. Robb, J. R. Cheeseman, G. Scalmani, V. Barone, 
 G. A. Petersson, H. Nakatsuji, X. Li, M. Caricato, A. V. Marenich, 
 J. Bloino, B. G. Janesko, R. Gomperts, B. Mennucci, H. P. Hratchian, 
 J. V. Ortiz, A. F. Izmaylov, J. L. Sonnenberg, D. Williams-Young, 
 F. Ding, F. Lipparini, F. Egidi, J. Goings, B. Peng, A. Petrone, 
 T. Henderson, D. Ranasinghe, V. G. Zakrzewski, J. Gao, N. Rega, 
 G. Zheng, W. Liang, M. Hada, M. Ehara, K. Toyota, R. Fukuda, 
 J. Hasegawa, M. Ishida, T. Nakajima, Y. Honda, O. Kitao, H. Nakai, 
 T. Vreven, K. Throssell, J. A. Montgomery, Jr., J. E. Peralta, 
 F. Ogliaro, M. J. Bearpark, J. J. Heyd, E. N. Brothers, K. N. Kudin, 
 V. N. Staroverov, T. A. Keith, R. Kobayashi, J. Normand, 
 K. Raghavachari, A. P. Rendell, J. C. Burant, S. S. Iyengar, 
 J. Tomasi, M. Cossi, J. M. Millam, M. Klene, C. Adamo, R. Cammi, 
 J. W. Ochterski, R. L. Martin, K. Morokuma, O. Farkas, 
 J. B. Foresman, and D. J. Fox, Gaussian, Inc., Wallingford CT, 2016.
 
 ******************************************
 Gaussian 16:  ES64L-G16RevA.03 25-Dec-2016
                10-Sep-2021 
 ******************************************
 %nproc=24
 Will use up to   24 processors via shared memory.
 %mem=175gb
 -----------------------------------
 #p cam-b3lyp/Def2SVP td=(nstates=5)
 -----------------------------------
 1/38=1,172=1/1;
 2/12=2,17=6,18=5,40=1/2;
 3/5=43,7=101,11=9,25=1,30=1,74=-40/1,2,3,8;
 4//1;
 5/5=2,38=5/2;
 8/6=1,10=1,108=5/1;
 9/41=5,42=1,70=2/14;
 6/7=2,8=2,9=2,10=2/1;
 99/5=1,9=1/99;
 Leave Link    1 at Fri Sep 10 08:30:31 2021, MaxMem= 23488102400 cpu:               0.8 elap:               0.0
 (Enter /sw/apps/gaussian-16.0/g16/l101.exe)
 --------------------------------
 TDDFT excited states in gaussian
 --------------------------------
 Symbolic Z-matrix:
 Charge =  0 Multiplicity = 1
 Mg                    0.        0.        0. 
 C                    -0.217    -2.218     2.801 
 C                    -1.255     2.442     2.026 
 C                    -0.245     1.85     -2.564 
 C                     0.146    -2.824    -2.037 
 N                    -0.617    -0.009     2.126 
 C                    -0.594    -0.908     3.105 
 C                    -0.936    -0.309     4.502 
 C                    -1.773     0.964     4.032 
 C                    -1.155     1.168     2.66 
 C                    -3.263     0.685     3.863 
 C                     0.345     0.11      5.299 
 C                     0.124     0.397     6.787 
 H                     1.168     0.033     7.733 
 N                    -0.185     1.961    -0.152 
 C                    -0.703     2.8       0.777 
 C                    -0.62      4.156     0.193 
 C                    -0.187     4.015    -1.225 
 C                    -0.214     2.583    -1.38 
 C                    -0.887     5.406     0.974 
 C                     0.181     5.013    -2.277 
 O                     0.303     4.69     -3.508 
 C                     0.31      6.414    -1.837 
 N                    -0.265    -0.413    -2.029 
 C                    -0.279     0.569    -2.937 
 C                    -0.196     0.024    -4.332 
 C                     0.124    -1.533    -4.18 
 C                     0.086    -1.632    -2.635 
 C                    -1.451     0.205    -5.197 
 C                     1.373    -2.07     -4.923 
 C                     2.626    -1.49     -4.306 
 N                     0.15     -2.144     0.303 
 C                     0.173    -3.136    -0.688 
 C                     0.173    -4.438     0.004 
 C                     0.133    -4.111     1.358 
 C                     0.083    -2.695     1.502 
 C                     0.149    -5.715    -0.623 
 C                     0.096    -4.629     2.716 
 O                     0.208    -5.747     3.221 
 C                    -0.255    -3.428     3.701 
 C                     0.717    -3.482     4.848 
 O                     1.931    -3.255     4.669 
 O                     0.038    -3.556     6.003 
 C                     0.943    -3.583     7.183 
 H                    -1.859     3.22      2.497 
 H                    -0.218     2.453    -3.474 
 H                     0.276    -3.747    -2.605 
 H                    -1.554    -0.949     5.132 
 H                    -1.585     1.831     4.665 
 H                    -3.484    -0.377     3.969 
 H                    -3.511     1.027     2.858 
 H                    -3.852     1.301     4.543 
 H                     0.669     1.096     4.966 
 H                     1.13     -0.639     5.189 
 H                    -0.844     0.026     7.125 
 H                     0.062     1.477     6.921 
 H                    -1.344     5.186     1.938 
 H                    -1.651     5.963     0.432 
 H                     0.007     6.02      1.084 
 H                    -0.635     6.744    -1.405 
 H                     0.665     6.97     -2.704 
 H                     1.048     6.466    -1.036 
 H                     0.608     0.501    -4.891 
 H                    -0.692    -2.156    -4.547 
 H                    -1.267     0.74     -6.129 
 H                    -2.204     0.714    -4.596 
 H                    -1.967    -0.72     -5.453 
 H                     1.356    -1.759    -5.967 
 H                     1.452    -3.157    -4.902 
 H                     2.714    -0.522    -4.798 
 H                     3.487    -2.121    -4.529 
 H                     2.495    -1.303    -3.24 
 H                     0.867    -6.333    -0.084 
 H                     0.404    -5.642    -1.68 
 H                    -0.891    -5.999    -0.463 
 H                    -1.283    -3.581     4.028 
 H                     0.698    -4.478     7.755 
 H                     0.833    -2.619     7.68 
 H                     2.       -3.754     6.976 
 Mg                    10.51646   0.94942   0.79002 
 C                     13.28924  -1.32432   0.93452 
 C                     12.7744   3.48755   1.09694 
 C                     8.07479   2.94888   1.11835 
 C                     8.45462  -1.72951   1.63729 
 N                     12.71994   0.95442   0.9822 
 C                     13.67134   0.03311   0.96298 
 C                     15.11462   0.60031   0.89387 
 C                     14.83354   2.05043   1.52396 
 C                     13.35971   2.19738   1.15124 
 C                     14.9484   2.08088   3.03896 
 C                     15.64504   0.70698  -0.57898 
 C                     17.1492   0.95916  -0.70413 
 H                     17.86839   0.3418   -1.81503 
 N                     10.43358   2.92093   0.57832 
 C                     11.45033   3.79759   0.71606 
 C                     10.86912   5.12817   0.47965 
 C                     9.3937    4.97993   0.35367 
 C                     9.23799   3.58315   0.707 
 C                     11.70542   6.36386   0.31497 
 C                     8.30202   5.94005  -0.01048 
 O                     7.06595   5.65575   0.17426 
 C                     8.72609   7.25893  -0.50261 
 N                     8.58081   0.70517   1.50831 
 C                     7.70375   1.7242    1.49228 
 C                     6.30464   1.24456   1.79695 
 C                     6.38539  -0.35258   1.78279 
 C                     7.90225  -0.52723   1.55034 
 C                     5.71608   1.71233   3.12781 
 C                     5.40234  -1.09862   0.83954 
 C                     5.7555   -0.81496  -0.60276 
 N                     10.75903  -1.18361   1.03374 
 C                     9.77046  -2.1162    1.41726 
 C                     10.43904  -3.42593   1.55882 
 C                     11.78513  -3.15775   1.26792 
 C                     11.94779  -1.77442   0.98608 
 C                     9.8137   -4.64013   1.95979 
 C                     13.1073  -3.72835   1.14558 
 O                     13.56845  -4.86835   1.1843 
 C                     14.16207  -2.54331   1.04792 
 C                     15.09557  -2.84515  -0.09225 
 O                     14.67598  -2.87141  -1.26266 
 O                     16.36221  -2.83778   0.36155 
 C                     17.32604  -3.12128  -0.73503 
 H                     13.37164   4.34208   1.41628 
 H                     7.17925   3.57418   1.14027 
 H                     7.86367  -2.63284   1.80298 
 H                     15.84125   0.06786   1.49578 
 H                     15.429    2.81626   1.03376 
 H                     15.08455   1.0927    3.45262 
 H                     14.02398   2.51615   3.39537 
 H                     15.74242   2.76891   3.34305 
 H                     15.26141   1.63035  -1.03171 
 H                     15.37634  -0.16387  -1.14471 
 H                     17.67685   0.78222   0.24097 
 H                     17.30743   2.02161  -0.90459 
 H                     12.74398   6.19066   0.62286 
 H                     11.32932   7.10231   1.03128 
 H                     11.64288   6.78379  -0.69121 
 H                     9.34094   7.74505   0.25112 
 H                     7.80729   7.77109  -0.7948 
 H                     9.3622    7.11579  -1.38323 
 H                     5.6097    1.56809   1.03178 
 H                     6.16783  -0.78035   2.7725 
 H                     4.75933   2.25632   3.01479 
 H                     6.44941   2.33227   3.62624 
 H                     5.54423   0.92442   3.85915 
 H                     4.38364  -0.7319    0.98753 
 H                     5.38416  -2.17199   0.99617 
 H                     5.26647   0.14525  -0.79231 
 H                     5.36244  -1.59338  -1.25361 
 H                     6.8348   -0.66429  -0.72136 
 H                     10.19076  -5.41524   1.30593 
 H                     8.72958  -4.56578   1.90556 
 H                     10.16918  -4.71126   2.99121 
 H                     14.6859  -2.49144   2.00316 
 H                     17.92853  -3.97788  -0.41733 
 H                     17.85997  -2.16966  -0.91693 
 H                     16.92427  -3.48214  -1.67461 
 
 ITRead=  0  0  0  0  0  0  0  0  0  0  0  0  0  0  0  0  0  0  0  0
 ITRead=  0  0  0  0  0  0  0  0  0  0  0  0  0  0  0  0  0  0  0  0
 ITRead=  0  0  0  0  0  0  0  0  0  0  0  0  0  0  0  0  0  0  0  0
 ITRead=  0  0  0  0  0  0  0  0  0  0  0  0  0  0  0  0  0  0  0  0
 ITRead=  0  0  0  0  0  0  0  0  0  0  0  0  0  0  0  0  0  0  0  0
 ITRead=  0  0  0  0  0  0  0  0  0  0  0  0  0  0  0  0  0  0  0  0
 ITRead=  0  0  0  0  0  0  0  0  0  0  0  0  0  0  0  0  0  0  0  0
 ITRead=  0  0  0  0  0  0  0  0  0  0  0  0  0  0  0  0  0  0
 MicOpt= -1 -1 -1 -1 -1 -1 -1 -1 -1 -1 -1 -1 -1 -1 -1 -1 -1 -1 -1 -1
 MicOpt= -1 -1 -1 -1 -1 -1 -1 -1 -1 -1 -1 -1 -1 -1 -1 -1 -1 -1 -1 -1
 MicOpt= -1 -1 -1 -1 -1 -1 -1 -1 -1 -1 -1 -1 -1 -1 -1 -1 -1 -1 -1 -1
 MicOpt= -1 -1 -1 -1 -1 -1 -1 -1 -1 -1 -1 -1 -1 -1 -1 -1 -1 -1 -1 -1
 MicOpt= -1 -1 -1 -1 -1 -1 -1 -1 -1 -1 -1 -1 -1 -1 -1 -1 -1 -1 -1 -1
 MicOpt= -1 -1 -1 -1 -1 -1 -1 -1 -1 -1 -1 -1 -1 -1 -1 -1 -1 -1 -1 -1
 MicOpt= -1 -1 -1 -1 -1 -1 -1 -1 -1 -1 -1 -1 -1 -1 -1 -1 -1 -1 -1 -1
 MicOpt= -1 -1 -1 -1 -1 -1 -1 -1 -1 -1 -1 -1 -1 -1 -1 -1 -1 -1
 NAtoms=    158 NQM=      158 NQMF=       0 NMMI=      0 NMMIF=      0
                NMic=       0 NMicF=      0.
                    Isotopes and Nuclear Properties:
 (Nuclear quadrupole moments (NQMom) in fm**2, nuclear magnetic moments (NMagM)
  in nuclear magnetons)

  Atom         1           2           3           4           5           6           7           8           9          10
 IAtWgt=          24          12          12          12          12          14          12          12          12          12
 AtmWgt=  23.9850450  12.0000000  12.0000000  12.0000000  12.0000000  14.0030740  12.0000000  12.0000000  12.0000000  12.0000000
 NucSpn=           0           0           0           0           0           2           0           0           0           0
 AtZEff=  -0.0000000  -0.0000000  -0.0000000  -0.0000000  -0.0000000  -0.0000000  -0.0000000  -0.0000000  -0.0000000  -0.0000000
 NQMom=    0.0000000   0.0000000   0.0000000   0.0000000   0.0000000   2.0440000   0.0000000   0.0000000   0.0000000   0.0000000
 NMagM=    0.0000000   0.0000000   0.0000000   0.0000000   0.0000000   0.4037610   0.0000000   0.0000000   0.0000000   0.0000000
 AtZNuc=  12.0000000   6.0000000   6.0000000   6.0000000   6.0000000   7.0000000   6.0000000   6.0000000   6.0000000   6.0000000

  Atom        11          12          13          14          15          16          17          18          19          20
 IAtWgt=          12          12          12           1          14          12          12          12          12          12
 AtmWgt=  12.0000000  12.0000000  12.0000000   1.0078250  14.0030740  12.0000000  12.0000000  12.0000000  12.0000000  12.0000000
 NucSpn=           0           0           0           1           2           0           0           0           0           0
 AtZEff=  -0.0000000  -0.0000000  -0.0000000  -0.0000000  -0.0000000  -0.0000000  -0.0000000  -0.0000000  -0.0000000  -0.0000000
 NQMom=    0.0000000   0.0000000   0.0000000   0.0000000   2.0440000   0.0000000   0.0000000   0.0000000   0.0000000   0.0000000
 NMagM=    0.0000000   0.0000000   0.0000000   2.7928460   0.4037610   0.0000000   0.0000000   0.0000000   0.0000000   0.0000000
 AtZNuc=   6.0000000   6.0000000   6.0000000   1.0000000   7.0000000   6.0000000   6.0000000   6.0000000   6.0000000   6.0000000

  Atom        21          22          23          24          25          26          27          28          29          30
 IAtWgt=          12          16          12          14          12          12          12          12          12          12
 AtmWgt=  12.0000000  15.9949146  12.0000000  14.0030740  12.0000000  12.0000000  12.0000000  12.0000000  12.0000000  12.0000000
 NucSpn=           0           0           0           2           0           0           0           0           0           0
 AtZEff=  -0.0000000  -0.0000000  -0.0000000  -0.0000000  -0.0000000  -0.0000000  -0.0000000  -0.0000000  -0.0000000  -0.0000000
 NQMom=    0.0000000   0.0000000   0.0000000   2.0440000   0.0000000   0.0000000   0.0000000   0.0000000   0.0000000   0.0000000
 NMagM=    0.0000000   0.0000000   0.0000000   0.4037610   0.0000000   0.0000000   0.0000000   0.0000000   0.0000000   0.0000000
 AtZNuc=   6.0000000   8.0000000   6.0000000   7.0000000   6.0000000   6.0000000   6.0000000   6.0000000   6.0000000   6.0000000

  Atom        31          32          33          34          35          36          37          38          39          40
 IAtWgt=          12          14          12          12          12          12          12          12          16          12
 AtmWgt=  12.0000000  14.0030740  12.0000000  12.0000000  12.0000000  12.0000000  12.0000000  12.0000000  15.9949146  12.0000000
 NucSpn=           0           2           0           0           0           0           0           0           0           0
 AtZEff=  -0.0000000  -0.0000000  -0.0000000  -0.0000000  -0.0000000  -0.0000000  -0.0000000  -0.0000000  -0.0000000  -0.0000000
 NQMom=    0.0000000   2.0440000   0.0000000   0.0000000   0.0000000   0.0000000   0.0000000   0.0000000   0.0000000   0.0000000
 NMagM=    0.0000000   0.4037610   0.0000000   0.0000000   0.0000000   0.0000000   0.0000000   0.0000000   0.0000000   0.0000000
 AtZNuc=   6.0000000   7.0000000   6.0000000   6.0000000   6.0000000   6.0000000   6.0000000   6.0000000   8.0000000   6.0000000

  Atom        41          42          43          44          45          46          47          48          49          50
 IAtWgt=          12          16          16          12           1           1           1           1           1           1
 AtmWgt=  12.0000000  15.9949146  15.9949146  12.0000000   1.0078250   1.0078250   1.0078250   1.0078250   1.0078250   1.0078250
 NucSpn=           0           0           0           0           1           1           1           1           1           1
 AtZEff=  -0.0000000  -0.0000000  -0.0000000  -0.0000000  -0.0000000  -0.0000000  -0.0000000  -0.0000000  -0.0000000  -0.0000000
 NQMom=    0.0000000   0.0000000   0.0000000   0.0000000   0.0000000   0.0000000   0.0000000   0.0000000   0.0000000   0.0000000
 NMagM=    0.0000000   0.0000000   0.0000000   0.0000000   2.7928460   2.7928460   2.7928460   2.7928460   2.7928460   2.7928460
 AtZNuc=   6.0000000   8.0000000   8.0000000   6.0000000   1.0000000   1.0000000   1.0000000   1.0000000   1.0000000   1.0000000

  Atom        51          52          53          54          55          56          57          58          59          60
 IAtWgt=           1           1           1           1           1           1           1           1           1           1
 AtmWgt=   1.0078250   1.0078250   1.0078250   1.0078250   1.0078250   1.0078250   1.0078250   1.0078250   1.0078250   1.0078250
 NucSpn=           1           1           1           1           1           1           1           1           1           1
 AtZEff=  -0.0000000  -0.0000000  -0.0000000  -0.0000000  -0.0000000  -0.0000000  -0.0000000  -0.0000000  -0.0000000  -0.0000000
 NQMom=    0.0000000   0.0000000   0.0000000   0.0000000   0.0000000   0.0000000   0.0000000   0.0000000   0.0000000   0.0000000
 NMagM=    2.7928460   2.7928460   2.7928460   2.7928460   2.7928460   2.7928460   2.7928460   2.7928460   2.7928460   2.7928460
 AtZNuc=   1.0000000   1.0000000   1.0000000   1.0000000   1.0000000   1.0000000   1.0000000   1.0000000   1.0000000   1.0000000

  Atom        61          62          63          64          65          66          67          68          69          70
 IAtWgt=           1           1           1           1           1           1           1           1           1           1
 AtmWgt=   1.0078250   1.0078250   1.0078250   1.0078250   1.0078250   1.0078250   1.0078250   1.0078250   1.0078250   1.0078250
 NucSpn=           1           1           1           1           1           1           1           1           1           1
 AtZEff=  -0.0000000  -0.0000000  -0.0000000  -0.0000000  -0.0000000  -0.0000000  -0.0000000  -0.0000000  -0.0000000  -0.0000000
 NQMom=    0.0000000   0.0000000   0.0000000   0.0000000   0.0000000   0.0000000   0.0000000   0.0000000   0.0000000   0.0000000
 NMagM=    2.7928460   2.7928460   2.7928460   2.7928460   2.7928460   2.7928460   2.7928460   2.7928460   2.7928460   2.7928460
 AtZNuc=   1.0000000   1.0000000   1.0000000   1.0000000   1.0000000   1.0000000   1.0000000   1.0000000   1.0000000   1.0000000

  Atom        71          72          73          74          75          76          77          78          79          80
 IAtWgt=           1           1           1           1           1           1           1           1           1          24
 AtmWgt=   1.0078250   1.0078250   1.0078250   1.0078250   1.0078250   1.0078250   1.0078250   1.0078250   1.0078250  23.9850450
 NucSpn=           1           1           1           1           1           1           1           1           1           0
 AtZEff=  -0.0000000  -0.0000000  -0.0000000  -0.0000000  -0.0000000  -0.0000000  -0.0000000  -0.0000000  -0.0000000  -0.0000000
 NQMom=    0.0000000   0.0000000   0.0000000   0.0000000   0.0000000   0.0000000   0.0000000   0.0000000   0.0000000   0.0000000
 NMagM=    2.7928460   2.7928460   2.7928460   2.7928460   2.7928460   2.7928460   2.7928460   2.7928460   2.7928460   0.0000000
 AtZNuc=   1.0000000   1.0000000   1.0000000   1.0000000   1.0000000   1.0000000   1.0000000   1.0000000   1.0000000  12.0000000

  Atom        81          82          83          84          85          86          87          88          89          90
 IAtWgt=          12          12          12          12          14          12          12          12          12          12
 AtmWgt=  12.0000000  12.0000000  12.0000000  12.0000000  14.0030740  12.0000000  12.0000000  12.0000000  12.0000000  12.0000000
 NucSpn=           0           0           0           0           2           0           0           0           0           0
 AtZEff=  -0.0000000  -0.0000000  -0.0000000  -0.0000000  -0.0000000  -0.0000000  -0.0000000  -0.0000000  -0.0000000  -0.0000000
 NQMom=    0.0000000   0.0000000   0.0000000   0.0000000   2.0440000   0.0000000   0.0000000   0.0000000   0.0000000   0.0000000
 NMagM=    0.0000000   0.0000000   0.0000000   0.0000000   0.4037610   0.0000000   0.0000000   0.0000000   0.0000000   0.0000000
 AtZNuc=   6.0000000   6.0000000   6.0000000   6.0000000   7.0000000   6.0000000   6.0000000   6.0000000   6.0000000   6.0000000

  Atom        91          92          93          94          95          96          97          98          99         100
 IAtWgt=          12          12           1          14          12          12          12          12          12          12
 AtmWgt=  12.0000000  12.0000000   1.0078250  14.0030740  12.0000000  12.0000000  12.0000000  12.0000000  12.0000000  12.0000000
 NucSpn=           0           0           1           2           0           0           0           0           0           0
 AtZEff=  -0.0000000  -0.0000000  -0.0000000  -0.0000000  -0.0000000  -0.0000000  -0.0000000  -0.0000000  -0.0000000  -0.0000000
 NQMom=    0.0000000   0.0000000   0.0000000   2.0440000   0.0000000   0.0000000   0.0000000   0.0000000   0.0000000   0.0000000
 NMagM=    0.0000000   0.0000000   2.7928460   0.4037610   0.0000000   0.0000000   0.0000000   0.0000000   0.0000000   0.0000000
 AtZNuc=   6.0000000   6.0000000   1.0000000   7.0000000   6.0000000   6.0000000   6.0000000   6.0000000   6.0000000   6.0000000

  Atom       101         102         103         104         105         106         107         108         109         110
 IAtWgt=          16          12          14          12          12          12          12          12          12          12
 AtmWgt=  15.9949146  12.0000000  14.0030740  12.0000000  12.0000000  12.0000000  12.0000000  12.0000000  12.0000000  12.0000000
 NucSpn=           0           0           2           0           0           0           0           0           0           0
 AtZEff=  -0.0000000  -0.0000000  -0.0000000  -0.0000000  -0.0000000  -0.0000000  -0.0000000  -0.0000000  -0.0000000  -0.0000000
 NQMom=    0.0000000   0.0000000   2.0440000   0.0000000   0.0000000   0.0000000   0.0000000   0.0000000   0.0000000   0.0000000
 NMagM=    0.0000000   0.0000000   0.4037610   0.0000000   0.0000000   0.0000000   0.0000000   0.0000000   0.0000000   0.0000000
 AtZNuc=   8.0000000   6.0000000   7.0000000   6.0000000   6.0000000   6.0000000   6.0000000   6.0000000   6.0000000   6.0000000

  Atom       111         112         113         114         115         116         117         118         119         120
 IAtWgt=          14          12          12          12          12          12          12          16          12          12
 AtmWgt=  14.0030740  12.0000000  12.0000000  12.0000000  12.0000000  12.0000000  12.0000000  15.9949146  12.0000000  12.0000000
 NucSpn=           2           0           0           0           0           0           0           0           0           0
 AtZEff=  -0.0000000  -0.0000000  -0.0000000  -0.0000000  -0.0000000  -0.0000000  -0.0000000  -0.0000000  -0.0000000  -0.0000000
 NQMom=    2.0440000   0.0000000   0.0000000   0.0000000   0.0000000   0.0000000   0.0000000   0.0000000   0.0000000   0.0000000
 NMagM=    0.4037610   0.0000000   0.0000000   0.0000000   0.0000000   0.0000000   0.0000000   0.0000000   0.0000000   0.0000000
 AtZNuc=   7.0000000   6.0000000   6.0000000   6.0000000   6.0000000   6.0000000   6.0000000   8.0000000   6.0000000   6.0000000

  Atom       121         122         123         124         125         126         127         128         129         130
 IAtWgt=          16          16          12           1           1           1           1           1           1           1
 AtmWgt=  15.9949146  15.9949146  12.0000000   1.0078250   1.0078250   1.0078250   1.0078250   1.0078250   1.0078250   1.0078250
 NucSpn=           0           0           0           1           1           1           1           1           1           1
 AtZEff=  -0.0000000  -0.0000000  -0.0000000  -0.0000000  -0.0000000  -0.0000000  -0.0000000  -0.0000000  -0.0000000  -0.0000000
 NQMom=    0.0000000   0.0000000   0.0000000   0.0000000   0.0000000   0.0000000   0.0000000   0.0000000   0.0000000   0.0000000
 NMagM=    0.0000000   0.0000000   0.0000000   2.7928460   2.7928460   2.7928460   2.7928460   2.7928460   2.7928460   2.7928460
 AtZNuc=   8.0000000   8.0000000   6.0000000   1.0000000   1.0000000   1.0000000   1.0000000   1.0000000   1.0000000   1.0000000

  Atom       131         132         133         134         135         136         137         138         139         140
 IAtWgt=           1           1           1           1           1           1           1           1           1           1
 AtmWgt=   1.0078250   1.0078250   1.0078250   1.0078250   1.0078250   1.0078250   1.0078250   1.0078250   1.0078250   1.0078250
 NucSpn=           1           1           1           1           1           1           1           1           1           1
 AtZEff=  -0.0000000  -0.0000000  -0.0000000  -0.0000000  -0.0000000  -0.0000000  -0.0000000  -0.0000000  -0.0000000  -0.0000000
 NQMom=    0.0000000   0.0000000   0.0000000   0.0000000   0.0000000   0.0000000   0.0000000   0.0000000   0.0000000   0.0000000
 NMagM=    2.7928460   2.7928460   2.7928460   2.7928460   2.7928460   2.7928460   2.7928460   2.7928460   2.7928460   2.7928460
 AtZNuc=   1.0000000   1.0000000   1.0000000   1.0000000   1.0000000   1.0000000   1.0000000   1.0000000   1.0000000   1.0000000

  Atom       141         142         143         144         145         146         147         148         149         150
 IAtWgt=           1           1           1           1           1           1           1           1           1           1
 AtmWgt=   1.0078250   1.0078250   1.0078250   1.0078250   1.0078250   1.0078250   1.0078250   1.0078250   1.0078250   1.0078250
 NucSpn=           1           1           1           1           1           1           1           1           1           1
 AtZEff=  -0.0000000  -0.0000000  -0.0000000  -0.0000000  -0.0000000  -0.0000000  -0.0000000  -0.0000000  -0.0000000  -0.0000000
 NQMom=    0.0000000   0.0000000   0.0000000   0.0000000   0.0000000   0.0000000   0.0000000   0.0000000   0.0000000   0.0000000
 NMagM=    2.7928460   2.7928460   2.7928460   2.7928460   2.7928460   2.7928460   2.7928460   2.7928460   2.7928460   2.7928460
 AtZNuc=   1.0000000   1.0000000   1.0000000   1.0000000   1.0000000   1.0000000   1.0000000   1.0000000   1.0000000   1.0000000

  Atom       151         152         153         154         155         156         157         158
 IAtWgt=           1           1           1           1           1           1           1           1
 AtmWgt=   1.0078250   1.0078250   1.0078250   1.0078250   1.0078250   1.0078250   1.0078250   1.0078250
 NucSpn=           1           1           1           1           1           1           1           1
 AtZEff=  -0.0000000  -0.0000000  -0.0000000  -0.0000000  -0.0000000  -0.0000000  -0.0000000  -0.0000000
 NQMom=    0.0000000   0.0000000   0.0000000   0.0000000   0.0000000   0.0000000   0.0000000   0.0000000
 NMagM=    2.7928460   2.7928460   2.7928460   2.7928460   2.7928460   2.7928460   2.7928460   2.7928460
 AtZNuc=   1.0000000   1.0000000   1.0000000   1.0000000   1.0000000   1.0000000   1.0000000   1.0000000
 Leave Link  101 at Fri Sep 10 08:30:31 2021, MaxMem= 23488102400 cpu:               3.2 elap:               0.2
 (Enter /sw/apps/gaussian-16.0/g16/l202.exe)
 Stoichiometry    C68H72Mg2N8O8
 Framework group  C1[X(C68H72Mg2N8O8)]
 Deg. of freedom   468
 Full point group                 C1      NOp   1
 Largest Abelian subgroup         C1      NOp   1
 Largest concise Abelian subgroup C1      NOp   1
                         Standard orientation:                         
 ---------------------------------------------------------------------
 Center     Atomic      Atomic             Coordinates (Angstroms)
 Number     Number       Type             X           Y           Z
 ---------------------------------------------------------------------
      1         12           0        5.538135    0.342599    0.746904
      2          6           0        5.844904   -2.697936   -1.116764
      3          6           0        6.750061    1.971317   -1.995645
      4          6           0        5.705571    2.969430    2.515616
      5          6           0        5.444781   -1.608846    3.632871
      6          7           0        6.178576   -0.381130   -1.244753
      7          6           0        6.190282   -1.562819   -1.853560
      8          6           0        6.531633   -1.472654   -3.371033
      9          6           0        7.329265   -0.092156   -3.368031
     10          6           0        6.690961    0.554528   -2.151359
     11          6           0        8.824199   -0.252811   -3.111391
     12          6           0        5.248821   -1.391165   -4.265171
     13          6           0        5.478519   -1.628585   -5.760572
     14          1           0        4.455064   -2.326296   -6.524173
     15          7           0        5.669258    2.240213    0.213315
     16          6           0        6.174993    2.721979   -0.947469
     17          6           0        6.049542    4.193202   -0.867190
     18          6           0        5.604824    4.537374    0.511891
     19          6           0        5.668165    3.248035    1.151399
     20          6           0        6.291824    5.104396   -2.031139
     21          6           0        5.198842    5.825875    1.154600
     22          8           0        5.071896    5.943754    2.421314
     23          6           0        5.037512    6.984930    0.258160
     24          7           0        5.791616    0.662308    2.794138
     25          6           0        5.769490    1.897131    3.307660
     26          6           0        5.685619    1.864388    4.804935
     27          6           0        5.408813    0.341941    5.198998
     28          6           0        5.466475   -0.282555    3.783035
     29          6           0        6.925744    2.368541    5.555888
     30          6           0        4.166406    0.058372    6.080152
     31          6           0        2.905316    0.353786    5.299458
     32          7           0        5.448527   -1.777770    1.201932
     33          6           0        5.440970   -2.367476    2.474278
     34          6           0        5.483212   -3.827659    2.273902
     35          6           0        5.529443   -3.986552    0.890262
     36          6           0        5.543374   -2.706218    0.266689
     37          6           0        5.534226   -4.808916    3.302963
     38          6           0        5.595179   -4.939723   -0.205641
     39          8           0        5.518514   -6.166014   -0.294102
     40          6           0        5.924980   -4.142424   -1.544063
     41          6           0        4.967473   -4.616514   -2.603180
     42          8           0        3.745967   -4.376724   -2.514917
     43          8           0        5.660902   -5.064654   -3.660946
     44          6           0        4.770015   -5.522863   -4.760272
     45          1           0        7.338329    2.556238   -2.705399
     46          1           0        5.652514    3.848172    3.161708
     47          1           0        5.333101   -2.282737    4.484254
     48          1           0        7.173339   -2.272575   -3.740848
     49          1           0        7.125282    0.497638   -4.261483
     50          1           0        9.074504   -1.279414   -2.844268
     51          1           0        9.051917    0.421713   -2.285767
     52          1           0        9.404084    0.107622   -3.961448
     53          1           0        4.895073   -0.360562   -4.293133
     54          1           0        4.482840   -2.078551   -3.904476
     55          1           0        6.459708   -2.065377   -5.948691
     56          1           0        5.513265   -0.659706   -6.258835
     57          1           0        6.765119    4.578746   -2.859528
     58          1           0        7.034723    5.835840   -1.713648
     59          1           0        5.383088    5.616841   -2.347257
     60          1           0        5.978116    7.172772   -0.260038
     61          1           0        4.658315    7.795318    0.879716
     62          1           0        4.307274    6.736320   -0.512485
     63          1           0        4.863105    2.481548    5.164117
     64          1           0        6.236985   -0.092580    5.759352
     65          1           0        6.717317    3.186553    6.245902
     66          1           0        7.671534    2.660537    4.817088
     67          1           0        7.463292    1.603774    6.115880
     68          1           0        4.163613    0.710616    6.952801
     69          1           0        4.116562   -0.971005    6.435325
     70          1           0        2.786195    1.429108    5.427225
     71          1           0        2.058984   -0.186112    5.725420
     72          1           0        3.043053    0.165455    4.234542
     73          1           0        4.838897   -5.595235    3.009386
     74          1           0        5.265729   -4.383312    4.269593
     75          1           0        6.583109   -5.100638    3.251990
     76          1           0        6.960229   -4.369162   -1.796989
     77          1           0        5.045013   -6.552762   -4.988124
     78          1           0        4.859830   -4.786599   -5.559180
     79          1           0        3.715714   -5.642323   -4.508245
     80         12           0       -4.990488    0.658596   -0.334627
     81          6           0       -7.700090   -1.604267    0.310812
     82          6           0       -7.311569    2.869219   -1.500957
     83          6           0       -2.599352    2.491570   -1.329648
     84          6           0       -2.848948   -2.087725   -0.203299
     85          7           0       -7.191068    0.533665   -0.519352
     86          6           0       -8.117797   -0.351474   -0.184621
     87          6           0       -9.576318    0.163024   -0.317132
     88          6           0       -9.326946    1.314415   -1.408452
     89          6           0       -7.861745    1.623179   -1.107554
     90          6           0       -9.425852    0.817323   -2.841093
     91          6           0      -10.125604    0.755680    1.027879
     92          6           0      -11.637225    0.992184    1.056566
     93          1           0      -12.351965    0.775302    2.311387
     94          7           0       -4.962380    2.583718   -0.815928
     95          6           0       -6.000491    3.329507   -1.248838
     96          6           0       -5.457496    4.676134   -1.485254
     97          6           0       -3.980137    4.622911   -1.314118
     98          6           0       -3.783467    3.195050   -1.163732
     99          6           0       -6.328111    5.868239   -1.757947
    100          6           0       -2.918447    5.680679   -1.302233
    101          8           0       -1.673294    5.385783   -1.376091
    102          6           0       -3.382827    7.075591   -1.295785
    103          7           0       -3.041222    0.237429   -0.922268
    104          6           0       -2.191788    1.224269   -1.257711
    105          6           0       -0.777147    0.709435   -1.376558
    106          6           0       -0.815568   -0.786504   -0.812404
    107          6           0       -2.329723   -0.913837   -0.535776
    108          6           0       -0.186580    0.706369   -2.786388
    109          6           0        0.176497   -1.132976    0.331470
    110          6           0       -0.199970   -0.379697    1.586961
    111          7           0       -5.173573   -1.433703    0.172148
    112          6           0       -4.156393   -2.412504    0.135056
    113          6           0       -4.788322   -3.709377    0.453204
    114          6           0       -6.144192   -3.396166    0.632135
    115          6           0       -6.346663   -2.005774    0.419280
    116          6           0       -4.126543   -4.968856    0.496448
    117          6           0       -7.451998   -3.927362    0.942233
    118          8           0       -7.882229   -5.023564    1.298603
    119          6           0       -8.538906   -2.812168    0.623847
    120          6           0       -9.476577   -2.729087    1.797043
    121          8           0       -9.069377   -2.338113    2.905164
    122          8           0      -10.737881   -2.915060    1.367053
    123          6           0      -11.705876   -2.830674    2.492972
    124          1           0       -7.927751    3.543693   -2.096187
    125          1           0       -1.720561    3.096443   -1.564866
    126          1           0       -2.232405   -2.975400   -0.046499
    127          1           0      -10.281854   -0.564969   -0.699280
    128          1           0       -9.947924    2.184841   -1.213235
    129          1           0       -9.531116   -0.256367   -2.888634
    130          1           0       -8.509452    1.129404   -3.324680
    131          1           0      -10.234476    1.335180   -3.364807
    132          1           0       -9.771672    1.789150    1.134742
    133          1           0       -9.840111    0.141399    1.859614
    134          1           0      -12.149526    0.485138    0.229893
    135          1           0      -11.825841    2.053583    0.878024
    136          1           0       -7.358240    5.569715   -1.988423
    137          1           0       -5.963891    6.324918   -2.684579
    138          1           0       -6.287861    6.610954   -0.958319
    139          1           0       -4.002027    7.254129   -2.171672
    140          1           0       -2.481244    7.683284   -1.197118
    141          1           0       -4.024585    7.226631   -0.420599
    142          1           0       -0.099537    1.296790   -0.769140
    143          1           0       -0.575808   -1.522842   -1.593536
    144          1           0        0.754068    1.283241   -2.866827
    145          1           0       -0.930585    1.095080   -3.468951
    146          1           0        0.014210   -0.280097   -3.200828
    147          1           0        1.186660   -0.810639    0.067268
    148          1           0        0.224927   -2.193535    0.554752
    149          1           0        0.261244    0.600626    1.434217
    150          1           0        0.206436   -0.874332    2.466853
    151          1           0       -1.284137   -0.228475    1.645023
    152          1           0       -4.490059   -5.481492    1.377109
    153          1           0       -3.045447   -4.849227    0.522988
    154          1           0       -4.468605   -5.401440   -0.447543
    155          1           0       -9.053358   -3.107922   -0.291271
    156          1           0      -12.281843   -3.761234    2.489556
    157          1           0      -12.266885   -1.890462    2.334795
    158          1           0      -11.305048   -2.833735    3.499837
 ---------------------------------------------------------------------
 Rotational constants (GHZ):           0.0265679           0.0098572           0.0088510
 Leave Link  202 at Fri Sep 10 08:30:31 2021, MaxMem= 23488102400 cpu:               0.3 elap:               0.0
 (Enter /sw/apps/gaussian-16.0/g16/l301.exe)
 Standard basis: def2SVP (5D, 7F)
 Ernie: Thresh=  0.10000D-02 Tol=  0.10000D-05 Strict=F.
 There are  1658 symmetry adapted cartesian basis functions of A   symmetry.
 There are  1572 symmetry adapted basis functions of A   symmetry.
  1572 basis functions,  2678 primitive gaussians,  1658 cartesian basis functions
   312 alpha electrons      312 beta electrons
       nuclear repulsion energy     15058.2489720184 Hartrees.
 IExCor=20419 DFT=T Ex+Corr=CAM-B3LYP ExCW=0 ScaHFX=  1.000000
 ScaDFX=  1.000000  1.000000  1.000000  0.810000 ScalE2=  1.000000  1.000000
 IRadAn=      5 IRanWt=     -1 IRanGd=            0 ICorTp=0 IEmpDi=  4
 HFx  wShort=  0.000000 wLong=  0.330000 cFull=  0.190000 cShort=  0.000000 cLong=  0.460000
 DFx  wShort=  0.000000 wLong=  0.330000 cFull=  0.190000 cShort=  0.000000 cLong=  0.460000
 NAtoms=  158 NActive=  158 NUniq=  158 SFac= 1.00D+00 NAtFMM=   60 NAOKFM=T Big=T
 Integral buffers will be    131072 words long.
 Raffenetti 1 integral format.
 Two-electron integral symmetry is turned on.
 Leave Link  301 at Fri Sep 10 08:30:31 2021, MaxMem= 23488102400 cpu:               1.4 elap:               0.1
 (Enter /sw/apps/gaussian-16.0/g16/l302.exe)
 NPDir=0 NMtPBC=     1 NCelOv=     1 NCel=       1 NClECP=     1 NCelD=      1
         NCelK=      1 NCelE2=     1 NClLst=     1 CellRange=     0.0.
 One-electron integrals computed using PRISM.
 One-electron integral symmetry used in STVInt
   1 Symmetry operations used in ECPInt.
 ECPInt:  NShTT=  271216 NPrTT=  987664 LenC2=  139876 LenP2D=  300398.
 LDataN:  DoStor=T MaxTD1= 4 Len=   56
 NBasis=  1572 RedAO= T EigKep=  3.34D-04  NBF=  1572
 NBsUse=  1572 1.00D-06 EigRej= -1.00D+00 NBFU=  1572
 Precomputing XC quadrature grid using
 IXCGrd= 4 IRadAn=           5 IRanWt=          -1 IRanGd=           0 AccXCQ= 0.00D+00.
 Generated NRdTot=       0 NPtTot=           0 NUsed=           0 NTot=          32
 NSgBfM=  1381  1381  1381  1381  1381 MxSgAt=   158 MxSgA2=   158.
 Leave Link  302 at Fri Sep 10 08:30:36 2021, MaxMem= 23488102400 cpu:             127.2 elap:               5.3
 (Enter /sw/apps/gaussian-16.0/g16/l303.exe)
 DipDrv:  MaxL=1.
 Leave Link  303 at Fri Sep 10 08:30:37 2021, MaxMem= 23488102400 cpu:               8.9 elap:               0.4
 (Enter /sw/apps/gaussian-16.0/g16/l308.exe)
 Leave Link  308 at Fri Sep 10 08:30:38 2021, MaxMem= 23488102400 cpu:              15.2 elap:               0.7
 (Enter /sw/apps/gaussian-16.0/g16/l401.exe)
 ExpMin= 3.36D-02 ExpMax= 4.95D+03 ExpMxC= 7.45D+02 IAcc=3 IRadAn=         5 AccDes= 0.00D+00
 Harris functional with IExCor=20419 and IRadAn=       5 diagonalized for initial guess.
 HarFok:  IExCor=20419 AccDes= 0.00D+00 IRadAn=         5 IDoV= 1 UseB2=F ITyADJ=14
 ICtDFT=  3500011 ScaDFX=  1.000000  1.000000  1.000000  1.000000
 FoFCou: FMM=F IPFlag=           0 FMFlag=      100000 FMFlg1=        2001
         NFxFlg=           0 DoJE=T BraDBF=F KetDBF=T FulRan=T
         wScrn=  0.000000 ICntrl=       500 IOpCl=  0 I1Cent=   200000004 NGrid=           0
         NMat0=    1 NMatS0=      1 NMatT0=    0 NMatD0=    1 NMtDS0=    0 NMtDT0=    0
 Petite list used in FoFCou.
 Harris En= -3918.65861842678    
 JPrj=0 DoOrth=F DoCkMO=F.
 Leave Link  401 at Fri Sep 10 08:30:45 2021, MaxMem= 23488102400 cpu:             189.0 elap:               7.9
 (Enter /sw/apps/gaussian-16.0/g16/l502.exe)
 Integral symmetry usage will be decided dynamically.
 Closed shell SCF:
 Using DIIS extrapolation, IDIIS=  1040.
 NGot= 23488102400 LenX= 23482547354 LenY= 23479796732
 Requested convergence on RMS density matrix=1.00D-08 within 128 cycles.
 Requested convergence on MAX density matrix=1.00D-06.
 Requested convergence on             energy=1.00D-06.
 No special actions if energy rises.
 Fock matrices will be formed incrementally for  20 cycles.

 Cycle   1  Pass 1  IDiag  1:
 FoFJK:  IHMeth= 1 ICntrl=       0 DoSepK=T KAlg= 0 I1Cent=           0 FoldK=F
 IRaf=         1 NMat=       1 IRICut=       1 DoRegI=T DoRafI=F ISym2E= 0 IDoP0=0 IntGTp=1.
 FoFCou: FMM=T IPFlag=           0 FMFlag=      100000 FMFlg1=        2001
         NFxFlg=           0 DoJE=T BraDBF=F KetDBF=F FulRan=T
         wScrn=  0.000000 ICntrl=       500 IOpCl=  0 I1Cent=           0 NGrid=           0
         NMat0=    1 NMatS0=      1 NMatT0=    0 NMatD0=    1 NMtDS0=    0 NMtDT0=    0
 Symmetry not used in FoFCou.
 FMM levels:  10  Number of levels for PrismC:   9
 E= -4068.94967702870    
 DIIS: error= 2.02D-02 at cycle   1 NSaved=   1.
 NSaved= 1 IEnMin= 1 EnMin= -4068.94967702870     IErMin= 1 ErrMin= 2.02D-02
 ErrMax= 2.02D-02  0.00D+00 EMaxC= 1.00D-01 BMatC= 1.69D+00 BMatP= 1.69D+00
 IDIUse=3 WtCom= 7.98D-01 WtEn= 2.02D-01
 Coeff-Com:  0.100D+01
 Coeff-En:   0.100D+01
 Coeff:      0.100D+01
 Gap=     0.120 Goal=   None    Shift=    0.000
 GapD=    0.120 DampG=1.000 DampE=0.500 DampFc=0.5000 IDamp=-1.
 Damping current iteration by 5.00D-01
 RMSDP=1.57D-03 MaxDP=1.35D-01              OVMax= 2.01D-01

 Cycle   2  Pass 1  IDiag  1:
 RMSU=  7.71D-04    CP:  9.82D-01
 E= -4069.33825418952     Delta-E=       -0.388577160818 Rises=F Damp=T
 DIIS: error= 1.26D-02 at cycle   2 NSaved=   2.
 NSaved= 2 IEnMin= 2 EnMin= -4069.33825418952     IErMin= 2 ErrMin= 1.26D-02
 ErrMax= 1.26D-02  0.00D+00 EMaxC= 1.00D-01 BMatC= 3.07D-01 BMatP= 1.69D+00
 IDIUse=3 WtCom= 8.74D-01 WtEn= 1.26D-01
 Coeff-Com: -0.212D+00 0.121D+01
 Coeff-En:   0.000D+00 0.100D+01
 Coeff:     -0.186D+00 0.119D+01
 Gap=     0.135 Goal=   None    Shift=    0.000
 RMSDP=7.68D-04 MaxDP=9.41D-02 DE=-3.89D-01 OVMax= 1.91D-01

 Cycle   3  Pass 1  IDiag  1:
 RMSU=  7.36D-04    CP:  9.68D-01  1.24D+00
 E= -4069.62514352801     Delta-E=       -0.286889338498 Rises=F Damp=F
 DIIS: error= 1.59D-02 at cycle   3 NSaved=   3.
 NSaved= 3 IEnMin= 3 EnMin= -4069.62514352801     IErMin= 2 ErrMin= 1.26D-02
 ErrMax= 1.59D-02  0.00D+00 EMaxC= 1.00D-01 BMatC= 2.05D-01 BMatP= 3.07D-01
 IDIUse=3 WtCom= 8.41D-01 WtEn= 1.59D-01
 Coeff-Com: -0.268D+00 0.654D+00 0.614D+00
 Coeff-En:   0.000D+00 0.000D+00 0.100D+01
 Coeff:     -0.225D+00 0.550D+00 0.675D+00
 Gap=     0.122 Goal=   None    Shift=    0.000
 RMSDP=5.18D-04 MaxDP=4.74D-02 DE=-2.87D-01 OVMax= 1.49D-01

 Cycle   4  Pass 1  IDiag  1:
 RMSU=  2.71D-04    CP:  9.65D-01  1.55D+00  4.98D-01
 E= -4069.76327303061     Delta-E=       -0.138129502600 Rises=F Damp=F
 DIIS: error= 7.43D-03 at cycle   4 NSaved=   4.
 NSaved= 4 IEnMin= 4 EnMin= -4069.76327303061     IErMin= 4 ErrMin= 7.43D-03
 ErrMax= 7.43D-03  0.00D+00 EMaxC= 1.00D-01 BMatC= 5.24D-02 BMatP= 2.05D-01
 IDIUse=3 WtCom= 9.26D-01 WtEn= 7.43D-02
 Coeff-Com: -0.110D+00 0.228D+00 0.410D+00 0.471D+00
 Coeff-En:   0.000D+00 0.000D+00 0.228D+00 0.772D+00
 Coeff:     -0.102D+00 0.211D+00 0.397D+00 0.493D+00
 Gap=     0.121 Goal=   None    Shift=    0.000
 RMSDP=2.08D-04 MaxDP=2.04D-02 DE=-1.38D-01 OVMax= 6.86D-02

 Cycle   5  Pass 1  IDiag  1:
 RMSU=  7.89D-05    CP:  9.64D-01  1.49D+00  6.87D-01  5.39D-01
 E= -4069.81115230294     Delta-E=       -0.047879272326 Rises=F Damp=F
 DIIS: error= 7.29D-04 at cycle   5 NSaved=   5.
 NSaved= 5 IEnMin= 5 EnMin= -4069.81115230294     IErMin= 5 ErrMin= 7.29D-04
 ErrMax= 7.29D-04  0.00D+00 EMaxC= 1.00D-01 BMatC= 1.36D-03 BMatP= 5.24D-02
 IDIUse=3 WtCom= 9.93D-01 WtEn= 7.29D-03
 Coeff-Com: -0.382D-01 0.752D-01 0.174D+00 0.257D+00 0.532D+00
 Coeff-En:   0.000D+00 0.000D+00 0.000D+00 0.000D+00 0.100D+01
 Coeff:     -0.379D-01 0.746D-01 0.173D+00 0.255D+00 0.535D+00
 Gap=     0.120 Goal=   None    Shift=    0.000
 RMSDP=4.53D-05 MaxDP=4.21D-03 DE=-4.79D-02 OVMax= 1.93D-02

 Cycle   6  Pass 1  IDiag  1:
 RMSU=  3.25D-05    CP:  9.64D-01  1.49D+00  6.78D-01  6.17D-01  7.23D-01
 E= -4069.81238558294     Delta-E=       -0.001233280000 Rises=F Damp=F
 DIIS: error= 2.02D-04 at cycle   6 NSaved=   6.
 NSaved= 6 IEnMin= 6 EnMin= -4069.81238558294     IErMin= 6 ErrMin= 2.02D-04
 ErrMax= 2.02D-04  0.00D+00 EMaxC= 1.00D-01 BMatC= 1.98D-04 BMatP= 1.36D-03
 IDIUse=3 WtCom= 9.98D-01 WtEn= 2.02D-03
 Coeff-Com:  0.182D-02-0.587D-02 0.135D-01 0.432D-01 0.301D+00 0.646D+00
 Coeff-En:   0.000D+00 0.000D+00 0.000D+00 0.000D+00 0.113D+00 0.887D+00
 Coeff:      0.182D-02-0.586D-02 0.135D-01 0.432D-01 0.301D+00 0.647D+00
 Gap=     0.121 Goal=   None    Shift=    0.000
 RMSDP=1.75D-05 MaxDP=1.23D-03 DE=-1.23D-03 OVMax= 8.38D-03

 Cycle   7  Pass 1  IDiag  1:
 RMSU=  1.14D-05    CP:  9.64D-01  1.49D+00  6.84D-01  6.15D-01  8.35D-01
                    CP:  7.36D-01
 E= -4069.81260678723     Delta-E=       -0.000221204289 Rises=F Damp=F
 DIIS: error= 1.00D-04 at cycle   7 NSaved=   7.
 NSaved= 7 IEnMin= 7 EnMin= -4069.81260678723     IErMin= 7 ErrMin= 1.00D-04
 ErrMax= 1.00D-04  0.00D+00 EMaxC= 1.00D-01 BMatC= 2.65D-05 BMatP= 1.98D-04
 IDIUse=3 WtCom= 9.99D-01 WtEn= 1.00D-03
 Coeff-Com:  0.457D-02-0.101D-01-0.868D-02-0.259D-02 0.106D+00 0.345D+00
 Coeff-Com:  0.565D+00
 Coeff-En:   0.000D+00 0.000D+00 0.000D+00 0.000D+00 0.000D+00 0.000D+00
 Coeff-En:   0.100D+01
 Coeff:      0.457D-02-0.101D-01-0.867D-02-0.259D-02 0.106D+00 0.345D+00
 Coeff:      0.566D+00
 Gap=     0.121 Goal=   None    Shift=    0.000
 RMSDP=6.89D-06 MaxDP=1.08D-03 DE=-2.21D-04 OVMax= 3.37D-03

 Cycle   8  Pass 1  IDiag  1:
 RMSU=  4.85D-06    CP:  9.64D-01  1.50D+00  6.84D-01  6.20D-01  8.35D-01
                    CP:  8.59D-01  8.03D-01
 E= -4069.81263934670     Delta-E=       -0.000032559470 Rises=F Damp=F
 DIIS: error= 4.95D-05 at cycle   8 NSaved=   8.
 NSaved= 8 IEnMin= 8 EnMin= -4069.81263934670     IErMin= 8 ErrMin= 4.95D-05
 ErrMax= 4.95D-05  0.00D+00 EMaxC= 1.00D-01 BMatC= 4.85D-06 BMatP= 2.65D-05
 IDIUse=1 WtCom= 1.00D+00 WtEn= 0.00D+00
 Coeff-Com:  0.222D-02-0.442D-02-0.787D-02-0.120D-01-0.946D-02 0.353D-01
 Coeff-Com:  0.314D+00 0.682D+00
 Coeff:      0.222D-02-0.442D-02-0.787D-02-0.120D-01-0.946D-02 0.353D-01
 Coeff:      0.314D+00 0.682D+00
 Gap=     0.121 Goal=   None    Shift=    0.000
 RMSDP=3.38D-06 MaxDP=3.91D-04 DE=-3.26D-05 OVMax= 1.15D-03

 Cycle   9  Pass 1  IDiag  1:
 RMSU=  1.98D-06    CP:  9.64D-01  1.50D+00  6.85D-01  6.21D-01  8.52D-01
                    CP:  8.86D-01  9.91D-01  9.65D-01
 E= -4069.81264724948     Delta-E=       -0.000007902785 Rises=F Damp=F
 DIIS: error= 1.88D-05 at cycle   9 NSaved=   9.
 NSaved= 9 IEnMin= 9 EnMin= -4069.81264724948     IErMin= 9 ErrMin= 1.88D-05
 ErrMax= 1.88D-05  0.00D+00 EMaxC= 1.00D-01 BMatC= 7.60D-07 BMatP= 4.85D-06
 IDIUse=1 WtCom= 1.00D+00 WtEn= 0.00D+00
 Coeff-Com:  0.495D-03-0.828D-03-0.279D-02-0.609D-02-0.203D-01-0.390D-01
 Coeff-Com:  0.898D-01 0.345D+00 0.634D+00
 Coeff:      0.495D-03-0.828D-03-0.279D-02-0.609D-02-0.203D-01-0.390D-01
 Coeff:      0.898D-01 0.345D+00 0.634D+00
 Gap=     0.121 Goal=   None    Shift=    0.000
 RMSDP=1.45D-06 MaxDP=1.52D-04 DE=-7.90D-06 OVMax= 7.83D-04

 Cycle  10  Pass 1  IDiag  1:
 RMSU=  9.59D-07    CP:  9.64D-01  1.50D+00  6.85D-01  6.22D-01  8.55D-01
                    CP:  8.99D-01  1.04D+00  1.13D+00  1.05D+00
 E= -4069.81264893100     Delta-E=       -0.000001681514 Rises=F Damp=F
 DIIS: error= 8.40D-06 at cycle  10 NSaved=  10.
 NSaved=10 IEnMin=10 EnMin= -4069.81264893100     IErMin=10 ErrMin= 8.40D-06
 ErrMax= 8.40D-06  0.00D+00 EMaxC= 1.00D-01 BMatC= 1.60D-07 BMatP= 7.60D-07
 IDIUse=1 WtCom= 1.00D+00 WtEn= 0.00D+00
 Coeff-Com: -0.414D-03 0.871D-03 0.116D-02 0.982D-03-0.379D-02-0.305D-01
 Coeff-Com: -0.441D-01-0.627D-01 0.230D+00 0.909D+00
 Coeff:     -0.414D-03 0.871D-03 0.116D-02 0.982D-03-0.379D-02-0.305D-01
 Coeff:     -0.441D-01-0.627D-01 0.230D+00 0.909D+00
 Gap=     0.121 Goal=   None    Shift=    0.000
 RMSDP=1.22D-06 MaxDP=1.22D-04 DE=-1.68D-06 OVMax= 6.63D-04

 Cycle  11  Pass 1  IDiag  1:
 RMSU=  5.41D-07    CP:  9.64D-01  1.50D+00  6.85D-01  6.22D-01  8.57D-01
                    CP:  9.08D-01  1.08D+00  1.24D+00  1.38D+00  1.35D+00
 E= -4069.81264971141     Delta-E=       -0.000000780412 Rises=F Damp=F
 DIIS: error= 4.11D-06 at cycle  11 NSaved=  11.
 NSaved=11 IEnMin=11 EnMin= -4069.81264971141     IErMin=11 ErrMin= 4.11D-06
 ErrMax= 4.11D-06  0.00D+00 EMaxC= 1.00D-01 BMatC= 6.69D-08 BMatP= 1.60D-07
 IDIUse=1 WtCom= 1.00D+00 WtEn= 0.00D+00
 Coeff-Com: -0.340D-03 0.663D-03 0.135D-02 0.210D-02 0.410D-02-0.872D-02
 Coeff-Com: -0.415D-01-0.127D+00-0.407D-01 0.497D+00 0.713D+00
 Coeff:     -0.340D-03 0.663D-03 0.135D-02 0.210D-02 0.410D-02-0.872D-02
 Coeff:     -0.415D-01-0.127D+00-0.407D-01 0.497D+00 0.713D+00
 Gap=     0.121 Goal=   None    Shift=    0.000
 RMSDP=6.93D-07 MaxDP=7.02D-05 DE=-7.80D-07 OVMax= 4.08D-04

 Cycle  12  Pass 1  IDiag  1:
 RMSU=  2.71D-07    CP:  9.64D-01  1.50D+00  6.85D-01  6.22D-01  8.58D-01
                    CP:  9.10D-01  1.10D+00  1.30D+00  1.54D+00  1.74D+00
                    CP:  1.17D+00
 E= -4069.81264998014     Delta-E=       -0.000000268727 Rises=F Damp=F
 DIIS: error= 2.49D-06 at cycle  12 NSaved=  12.
 NSaved=12 IEnMin=12 EnMin= -4069.81264998014     IErMin=12 ErrMin= 2.49D-06
 ErrMax= 2.49D-06  0.00D+00 EMaxC= 1.00D-01 BMatC= 1.52D-08 BMatP= 6.69D-08
 IDIUse=1 WtCom= 1.00D+00 WtEn= 0.00D+00
 Coeff-Com: -0.182D-04 0.193D-04 0.248D-03 0.602D-03 0.339D-02 0.351D-02
 Coeff-Com:  0.413D-03-0.367D-01-0.746D-01-0.365D-01 0.255D+00 0.884D+00
 Coeff:     -0.182D-04 0.193D-04 0.248D-03 0.602D-03 0.339D-02 0.351D-02
 Coeff:      0.413D-03-0.367D-01-0.746D-01-0.365D-01 0.255D+00 0.884D+00
 Gap=     0.121 Goal=   None    Shift=    0.000
 RMSDP=4.26D-07 MaxDP=3.04D-05 DE=-2.69D-07 OVMax= 2.65D-04

 Cycle  13  Pass 1  IDiag  1:
 RMSU=  1.67D-07    CP:  9.64D-01  1.50D+00  6.85D-01  6.22D-01  8.58D-01
                    CP:  9.10D-01  1.10D+00  1.33D+00  1.64D+00  1.95D+00
                    CP:  1.57D+00  1.24D+00
 E= -4069.81265007164     Delta-E=       -0.000000091499 Rises=F Damp=F
 DIIS: error= 1.38D-06 at cycle  13 NSaved=  13.
 NSaved=13 IEnMin=13 EnMin= -4069.81265007164     IErMin=13 ErrMin= 1.38D-06
 ErrMax= 1.38D-06  0.00D+00 EMaxC= 1.00D-01 BMatC= 8.52D-09 BMatP= 1.52D-08
 IDIUse=1 WtCom= 1.00D+00 WtEn= 0.00D+00
 Coeff-Com:  0.118D-03-0.241D-03-0.357D-03-0.430D-03 0.685D-03 0.485D-02
 Coeff-Com:  0.180D-01 0.231D-01-0.322D-01-0.235D+00-0.168D+00 0.575D+00
 Coeff-Com:  0.814D+00
 Coeff:      0.118D-03-0.241D-03-0.357D-03-0.430D-03 0.685D-03 0.485D-02
 Coeff:      0.180D-01 0.231D-01-0.322D-01-0.235D+00-0.168D+00 0.575D+00
 Coeff:      0.814D+00
 Gap=     0.121 Goal=   None    Shift=    0.000
 RMSDP=3.53D-07 MaxDP=2.36D-05 DE=-9.15D-08 OVMax= 2.29D-04

 Cycle  14  Pass 1  IDiag  1:
 RMSU=  7.78D-08    CP:  9.64D-01  1.50D+00  6.85D-01  6.22D-01  8.59D-01
                    CP:  9.11D-01  1.11D+00  1.35D+00  1.71D+00  2.15D+00
                    CP:  1.83D+00  1.76D+00  1.14D+00
 E= -4069.81265011052     Delta-E=       -0.000000038886 Rises=F Damp=F
 DIIS: error= 6.82D-07 at cycle  14 NSaved=  14.
 NSaved=14 IEnMin=14 EnMin= -4069.81265011052     IErMin=14 ErrMin= 6.82D-07
 ErrMax= 6.82D-07  0.00D+00 EMaxC= 1.00D-01 BMatC= 1.26D-09 BMatP= 8.52D-09
 IDIUse=1 WtCom= 1.00D+00 WtEn= 0.00D+00
 Coeff-Com:  0.675D-04-0.133D-03-0.249D-03-0.384D-03-0.419D-03 0.121D-02
 Coeff-Com:  0.992D-02 0.196D-01 0.507D-02-0.101D+00-0.146D+00 0.802D-01
 Coeff-Com:  0.404D+00 0.728D+00
 Coeff:      0.675D-04-0.133D-03-0.249D-03-0.384D-03-0.419D-03 0.121D-02
 Coeff:      0.992D-02 0.196D-01 0.507D-02-0.101D+00-0.146D+00 0.802D-01
 Coeff:      0.404D+00 0.728D+00
 Gap=     0.121 Goal=   None    Shift=    0.000
 RMSDP=1.08D-07 MaxDP=7.25D-06 DE=-3.89D-08 OVMax= 6.46D-05

 Cycle  15  Pass 1  IDiag  1:
 RMSU=  3.82D-08    CP:  9.64D-01  1.50D+00  6.85D-01  6.22D-01  8.59D-01
                    CP:  9.11D-01  1.11D+00  1.35D+00  1.73D+00  2.19D+00
                    CP:  1.93D+00  1.91D+00  1.37D+00  1.05D+00
 E= -4069.81265011485     Delta-E=       -0.000000004326 Rises=F Damp=F
 DIIS: error= 3.19D-07 at cycle  15 NSaved=  15.
 NSaved=15 IEnMin=15 EnMin= -4069.81265011485     IErMin=15 ErrMin= 3.19D-07
 ErrMax= 3.19D-07  0.00D+00 EMaxC= 1.00D-01 BMatC= 2.25D-10 BMatP= 1.26D-09
 IDIUse=1 WtCom= 1.00D+00 WtEn= 0.00D+00
 Coeff-Com:  0.656D-05-0.113D-04-0.372D-04-0.870D-04-0.285D-03-0.513D-03
 Coeff-Com:  0.114D-02 0.297D-02 0.858D-02 0.218D-03-0.306D-01-0.716D-01
 Coeff-Com:  0.280D-01 0.305D+00 0.757D+00
 Coeff:      0.656D-05-0.113D-04-0.372D-04-0.870D-04-0.285D-03-0.513D-03
 Coeff:      0.114D-02 0.297D-02 0.858D-02 0.218D-03-0.306D-01-0.716D-01
 Coeff:      0.280D-01 0.305D+00 0.757D+00
 Gap=     0.121 Goal=   None    Shift=    0.000
 RMSDP=3.92D-08 MaxDP=2.91D-06 DE=-4.33D-09 OVMax= 3.07D-05

 Cycle  16  Pass 1  IDiag  1:
 RMSU=  1.88D-08    CP:  9.64D-01  1.50D+00  6.85D-01  6.22D-01  8.59D-01
                    CP:  9.11D-01  1.11D+00  1.36D+00  1.73D+00  2.21D+00
                    CP:  1.96D+00  1.96D+00  1.45D+00  1.25D+00  1.14D+00
 E= -4069.81265011567     Delta-E=       -0.000000000819 Rises=F Damp=F
 DIIS: error= 1.97D-07 at cycle  16 NSaved=  16.
 NSaved=16 IEnMin=16 EnMin= -4069.81265011567     IErMin=16 ErrMin= 1.97D-07
 ErrMax= 1.97D-07  0.00D+00 EMaxC= 1.00D-01 BMatC= 8.17D-11 BMatP= 2.25D-10
 IDIUse=1 WtCom= 1.00D+00 WtEn= 0.00D+00
 Coeff-Com: -0.134D-04 0.271D-04 0.432D-04 0.472D-04-0.363D-04-0.610D-03
 Coeff-Com: -0.171D-02-0.392D-02 0.381D-02 0.243D-01 0.205D-01-0.601D-01
 Coeff-Com: -0.814D-01-0.323D-01 0.393D+00 0.738D+00
 Coeff:     -0.134D-04 0.271D-04 0.432D-04 0.472D-04-0.363D-04-0.610D-03
 Coeff:     -0.171D-02-0.392D-02 0.381D-02 0.243D-01 0.205D-01-0.601D-01
 Coeff:     -0.814D-01-0.323D-01 0.393D+00 0.738D+00
 Gap=     0.121 Goal=   None    Shift=    0.000
 RMSDP=2.27D-08 MaxDP=1.74D-06 DE=-8.19D-10 OVMax= 1.44D-05

 Cycle  17  Pass 1  IDiag  1:
 RMSU=  1.05D-08    CP:  9.64D-01  1.50D+00  6.85D-01  6.22D-01  8.59D-01
                    CP:  9.11D-01  1.11D+00  1.36D+00  1.74D+00  2.21D+00
                    CP:  1.97D+00  1.99D+00  1.50D+00  1.35D+00  1.43D+00
                    CP:  1.22D+00
 E= -4069.81265011580     Delta-E=       -0.000000000138 Rises=F Damp=F
 DIIS: error= 8.64D-08 at cycle  17 NSaved=  17.
 NSaved=17 IEnMin=17 EnMin= -4069.81265011580     IErMin=17 ErrMin= 8.64D-08
 ErrMax= 8.64D-08  0.00D+00 EMaxC= 1.00D-01 BMatC= 1.74D-11 BMatP= 8.17D-11
 IDIUse=1 WtCom= 1.00D+00 WtEn= 0.00D+00
 Coeff-Com: -0.715D-05 0.139D-04 0.279D-04 0.405D-04 0.749D-04-0.127D-03
 Coeff-Com: -0.848D-03-0.269D-02-0.162D-03 0.944D-02 0.171D-01-0.664D-02
 Coeff-Com: -0.355D-01-0.971D-01-0.269D-01 0.288D+00 0.855D+00
 Coeff:     -0.715D-05 0.139D-04 0.279D-04 0.405D-04 0.749D-04-0.127D-03
 Coeff:     -0.848D-03-0.269D-02-0.162D-03 0.944D-02 0.171D-01-0.664D-02
 Coeff:     -0.355D-01-0.971D-01-0.269D-01 0.288D+00 0.855D+00
 Gap=     0.121 Goal=   None    Shift=    0.000
 RMSDP=1.33D-08 MaxDP=1.05D-06 DE=-1.38D-10 OVMax= 1.04D-05

 Cycle  18  Pass 1  IDiag  1:
 RMSU=  5.03D-09    CP:  9.64D-01  1.50D+00  6.85D-01  6.22D-01  8.59D-01
                    CP:  9.11D-01  1.11D+00  1.36D+00  1.74D+00  2.21D+00
                    CP:  1.97D+00  1.99D+00  1.51D+00  1.41D+00  1.59D+00
                    CP:  1.62D+00  1.38D+00
 E= -4069.81265011604     Delta-E=       -0.000000000233 Rises=F Damp=F
 DIIS: error= 6.88D-08 at cycle  18 NSaved=  18.
 NSaved=18 IEnMin=18 EnMin= -4069.81265011604     IErMin=18 ErrMin= 6.88D-08
 ErrMax= 6.88D-08  0.00D+00 EMaxC= 1.00D-01 BMatC= 7.40D-12 BMatP= 1.74D-11
 IDIUse=1 WtCom= 1.00D+00 WtEn= 0.00D+00
 Coeff-Com:  0.143D-05-0.318D-05-0.228D-05 0.136D-05 0.606D-04 0.161D-03
 Coeff-Com:  0.308D-03 0.659D-04-0.120D-02-0.509D-02 0.374D-03 0.177D-01
 Coeff-Com:  0.164D-01-0.354D-01-0.157D+00-0.173D+00 0.384D+00 0.953D+00
 Coeff:      0.143D-05-0.318D-05-0.228D-05 0.136D-05 0.606D-04 0.161D-03
 Coeff:      0.308D-03 0.659D-04-0.120D-02-0.509D-02 0.374D-03 0.177D-01
 Coeff:      0.164D-01-0.354D-01-0.157D+00-0.173D+00 0.384D+00 0.953D+00
 Gap=     0.121 Goal=   None    Shift=    0.000
 RMSDP=1.12D-08 MaxDP=8.01D-07 DE=-2.33D-10 OVMax= 7.05D-06

 Cycle  19  Pass 1  IDiag  1:
 RMSU=  3.00D-09    CP:  9.64D-01  1.50D+00  6.85D-01  6.22D-01  8.59D-01
                    CP:  9.11D-01  1.11D+00  1.36D+00  1.74D+00  2.21D+00
                    CP:  1.98D+00  2.00D+00  1.52D+00  1.45D+00  1.73D+00
                    CP:  1.92D+00  1.93D+00  1.30D+00
 E= -4069.81265011603     Delta-E=        0.000000000004 Rises=F Damp=F
 DIIS: error= 2.47D-08 at cycle  19 NSaved=  19.
 NSaved=19 IEnMin=18 EnMin= -4069.81265011604     IErMin=19 ErrMin= 2.47D-08
 ErrMax= 2.47D-08  0.00D+00 EMaxC= 1.00D-01 BMatC= 1.78D-12 BMatP= 7.40D-12
 IDIUse=1 WtCom= 1.00D+00 WtEn= 0.00D+00
 Coeff-Com:  0.292D-05-0.591D-05-0.971D-05-0.117D-04 0.163D-04 0.123D-03
 Coeff-Com:  0.452D-03 0.795D-03-0.554D-03-0.602D-02-0.500D-02 0.121D-01
 Coeff-Com:  0.214D-01 0.103D-01-0.769D-01-0.191D+00-0.185D-01 0.519D+00
 Coeff-Com:  0.734D+00
 Coeff:      0.292D-05-0.591D-05-0.971D-05-0.117D-04 0.163D-04 0.123D-03
 Coeff:      0.452D-03 0.795D-03-0.554D-03-0.602D-02-0.500D-02 0.121D-01
 Coeff:      0.214D-01 0.103D-01-0.769D-01-0.191D+00-0.185D-01 0.519D+00
 Coeff:      0.734D+00
 Gap=     0.121 Goal=   None    Shift=    0.000
 RMSDP=5.00D-09 MaxDP=3.99D-07 DE= 3.64D-12 OVMax= 3.96D-06

 SCF Done:  E(RCAM-B3LYP) =  -4069.81265012     A.U. after   19 cycles
            NFock= 19  Conv=0.50D-08     -V/T= 2.0102
 KE= 4.028794907379D+03 PE=-3.959782759567D+04 EE= 1.644097106615D+04
 Leave Link  502 at Fri Sep 10 08:42:01 2021, MaxMem= 23488102400 cpu:           15602.2 elap:             675.3
 (Enter /sw/apps/gaussian-16.0/g16/l801.exe)
 DoSCS=F DFT=T ScalE2(SS,OS)=  1.000000  1.000000
 ExpMin= 3.36D-02 ExpMax= 4.95D+03 ExpMxC= 7.45D+02 IAcc=3 IRadAn=         5 AccDes= 0.00D+00
 HarFok:  IExCor=  205 AccDes= 0.00D+00 IRadAn=         5 IDoV=-2 UseB2=F ITyADJ=14
 ICtDFT= 12500011 ScaDFX=  1.000000  1.000000  1.000000  1.000000
 GSVD:  LWork=       -9588 too small for GESVD, short by       45590 words or       45590 for optimal perf.
 Largest valence mixing into a core orbital is  2.02D-04
 Largest core mixing into a valence orbital is  5.24D-05
 Range of M.O.s used for correlation:    95  1572
 NBasis=  1572 NAE=   312 NBE=   312 NFC=    94 NFV=     0
 NROrb=   1478 NOA=   218 NOB=   218 NVA=  1260 NVB=  1260
 Leave Link  801 at Fri Sep 10 08:42:01 2021, MaxMem= 23488102400 cpu:               7.6 elap:               0.3
 (Enter /sw/apps/gaussian-16.0/g16/l914.exe)
 RHF ground state
 Two-electron integrals replicated using symmetry.
 MDV= 23488102400 DFT=T DoStab=F Mixed=T DoRPA=T DoScal=F NonHer=T
 Making orbital integer symmetry assigments:
 Orbital symmetries:
       Occupied  (A) (A) (A) (A) (A) (A) (A) (A) (A) (A) (A) (A)
                 (A) (A) (A) (A) (A) (A) (A) (A) (A) (A) (A) (A)
                 (A) (A) (A) (A) (A) (A) (A) (A) (A) (A) (A) (A)
                 (A) (A) (A) (A) (A) (A) (A) (A) (A) (A) (A) (A)
                 (A) (A) (A) (A) (A) (A) (A) (A) (A) (A) (A) (A)
                 (A) (A) (A) (A) (A) (A) (A) (A) (A) (A) (A) (A)
                 (A) (A) (A) (A) (A) (A) (A) (A) (A) (A) (A) (A)
                 (A) (A) (A) (A) (A) (A) (A) (A) (A) (A) (A) (A)
                 (A) (A) (A) (A) (A) (A) (A) (A) (A) (A) (A) (A)
                 (A) (A) (A) (A) (A) (A) (A) (A) (A) (A) (A) (A)
                 (A) (A) (A) (A) (A) (A) (A) (A) (A) (A) (A) (A)
                 (A) (A) (A) (A) (A) (A) (A) (A) (A) (A) (A) (A)
                 (A) (A) (A) (A) (A) (A) (A) (A) (A) (A) (A) (A)
                 (A) (A) (A) (A) (A) (A) (A) (A) (A) (A) (A) (A)
                 (A) (A) (A) (A) (A) (A) (A) (A) (A) (A) (A) (A)
                 (A) (A) (A) (A) (A) (A) (A) (A) (A) (A) (A) (A)
                 (A) (A) (A) (A) (A) (A) (A) (A) (A) (A) (A) (A)
                 (A) (A) (A) (A) (A) (A) (A) (A) (A) (A) (A) (A)
                 (A) (A) (A) (A) (A) (A) (A) (A) (A) (A) (A) (A)
                 (A) (A) (A) (A) (A) (A) (A) (A) (A) (A) (A) (A)
                 (A) (A) (A) (A) (A) (A) (A) (A) (A) (A) (A) (A)
                 (A) (A) (A) (A) (A) (A) (A) (A) (A) (A) (A) (A)
                 (A) (A) (A) (A) (A) (A) (A) (A) (A) (A) (A) (A)
                 (A) (A) (A) (A) (A) (A) (A) (A) (A) (A) (A) (A)
                 (A) (A) (A) (A) (A) (A) (A) (A) (A) (A) (A) (A)
                 (A) (A) (A) (A) (A) (A) (A) (A) (A) (A) (A) (A)
       Virtual   (A) (A) (A) (A) (A) (A) (A) (A) (A) (A) (A) (A)
                 (A) (A) (A) (A) (A) (A) (A) (A) (A) (A) (A) (A)
                 (A) (A) (A) (A) (A) (A) (A) (A) (A) (A) (A) (A)
                 (A) (A) (A) (A) (A) (A) (A) (A) (A) (A) (A) (A)
                 (A) (A) (A) (A) (A) (A) (A) (A) (A) (A) (A) (A)
                 (A) (A) (A) (A) (A) (A) (A) (A) (A) (A) (A) (A)
                 (A) (A) (A) (A) (A) (A) (A) (A) (A) (A) (A) (A)
                 (A) (A) (A) (A) (A) (A) (A) (A) (A) (A) (A) (A)
                 (A) (A) (A) (A) (A) (A) (A) (A) (A) (A) (A) (A)
                 (A) (A) (A) (A) (A) (A) (A) (A) (A) (A) (A) (A)
                 (A) (A) (A) (A) (A) (A) (A) (A) (A) (A) (A) (A)
                 (A) (A) (A) (A) (A) (A) (A) (A) (A) (A) (A) (A)
                 (A) (A) (A) (A) (A) (A) (A) (A) (A) (A) (A) (A)
                 (A) (A) (A) (A) (A) (A) (A) (A) (A) (A) (A) (A)
                 (A) (A) (A) (A) (A) (A) (A) (A) (A) (A) (A) (A)
                 (A) (A) (A) (A) (A) (A) (A) (A) (A) (A) (A) (A)
                 (A) (A) (A) (A) (A) (A) (A) (A) (A) (A) (A) (A)
                 (A) (A) (A) (A) (A) (A) (A) (A) (A) (A) (A) (A)
                 (A) (A) (A) (A) (A) (A) (A) (A) (A) (A) (A) (A)
                 (A) (A) (A) (A) (A) (A) (A) (A) (A) (A) (A) (A)
                 (A) (A) (A) (A) (A) (A) (A) (A) (A) (A) (A) (A)
                 (A) (A) (A) (A) (A) (A) (A) (A) (A) (A) (A) (A)
                 (A) (A) (A) (A) (A) (A) (A) (A) (A) (A) (A) (A)
                 (A) (A) (A) (A) (A) (A) (A) (A) (A) (A) (A) (A)
                 (A) (A) (A) (A) (A) (A) (A) (A) (A) (A) (A) (A)
                 (A) (A) (A) (A) (A) (A) (A) (A) (A) (A) (A) (A)
                 (A) (A) (A) (A) (A) (A) (A) (A) (A) (A) (A) (A)
                 (A) (A) (A) (A) (A) (A) (A) (A) (A) (A) (A) (A)
                 (A) (A) (A) (A) (A) (A) (A) (A) (A) (A) (A) (A)
                 (A) (A) (A) (A) (A) (A) (A) (A) (A) (A) (A) (A)
                 (A) (A) (A) (A) (A) (A) (A) (A) (A) (A) (A) (A)
                 (A) (A) (A) (A) (A) (A) (A) (A) (A) (A) (A) (A)
                 (A) (A) (A) (A) (A) (A) (A) (A) (A) (A) (A) (A)
                 (A) (A) (A) (A) (A) (A) (A) (A) (A) (A) (A) (A)
                 (A) (A) (A) (A) (A) (A) (A) (A) (A) (A) (A) (A)
                 (A) (A) (A) (A) (A) (A) (A) (A) (A) (A) (A) (A)
                 (A) (A) (A) (A) (A) (A) (A) (A) (A) (A) (A) (A)
                 (A) (A) (A) (A) (A) (A) (A) (A) (A) (A) (A) (A)
                 (A) (A) (A) (A) (A) (A) (A) (A) (A) (A) (A) (A)
                 (A) (A) (A) (A) (A) (A) (A) (A) (A) (A) (A) (A)
                 (A) (A) (A) (A) (A) (A) (A) (A) (A) (A) (A) (A)
                 (A) (A) (A) (A) (A) (A) (A) (A) (A) (A) (A) (A)
                 (A) (A) (A) (A) (A) (A) (A) (A) (A) (A) (A) (A)
                 (A) (A) (A) (A) (A) (A) (A) (A) (A) (A) (A) (A)
                 (A) (A) (A) (A) (A) (A) (A) (A) (A) (A) (A) (A)
                 (A) (A) (A) (A) (A) (A) (A) (A) (A) (A) (A) (A)
                 (A) (A) (A) (A) (A) (A) (A) (A) (A) (A) (A) (A)
                 (A) (A) (A) (A) (A) (A) (A) (A) (A) (A) (A) (A)
                 (A) (A) (A) (A) (A) (A) (A) (A) (A) (A) (A) (A)
                 (A) (A) (A) (A) (A) (A) (A) (A) (A) (A) (A) (A)
                 (A) (A) (A) (A) (A) (A) (A) (A) (A) (A) (A) (A)
                 (A) (A) (A) (A) (A) (A) (A) (A) (A) (A) (A) (A)
                 (A) (A) (A) (A) (A) (A) (A) (A) (A) (A) (A) (A)
                 (A) (A) (A) (A) (A) (A) (A) (A) (A) (A) (A) (A)
                 (A) (A) (A) (A) (A) (A) (A) (A) (A) (A) (A) (A)
                 (A) (A) (A) (A) (A) (A) (A) (A) (A) (A) (A) (A)
                 (A) (A) (A) (A) (A) (A) (A) (A) (A) (A) (A) (A)
                 (A) (A) (A) (A) (A) (A) (A) (A) (A) (A) (A) (A)
                 (A) (A) (A) (A) (A) (A) (A) (A) (A) (A) (A) (A)
                 (A) (A) (A) (A) (A) (A) (A) (A) (A) (A) (A) (A)
                 (A) (A) (A) (A) (A) (A) (A) (A) (A) (A) (A) (A)
                 (A) (A) (A) (A) (A) (A) (A) (A) (A) (A) (A) (A)
                 (A) (A) (A) (A) (A) (A) (A) (A) (A) (A) (A) (A)
                 (A) (A) (A) (A) (A) (A) (A) (A) (A) (A) (A) (A)
                 (A) (A) (A) (A) (A) (A) (A) (A) (A) (A) (A) (A)
                 (A) (A) (A) (A) (A) (A) (A) (A) (A) (A) (A) (A)
                 (A) (A) (A) (A) (A) (A) (A) (A) (A) (A) (A) (A)
                 (A) (A) (A) (A) (A) (A) (A) (A) (A) (A) (A) (A)
                 (A) (A) (A) (A) (A) (A) (A) (A) (A) (A) (A) (A)
                 (A) (A) (A) (A) (A) (A) (A) (A) (A) (A) (A) (A)
                 (A) (A) (A) (A) (A) (A) (A) (A) (A) (A) (A) (A)
                 (A) (A) (A) (A) (A) (A) (A) (A) (A) (A) (A) (A)
                 (A) (A) (A) (A) (A) (A) (A) (A) (A) (A) (A) (A)
                 (A) (A) (A) (A) (A) (A) (A) (A) (A) (A) (A) (A)
                 (A) (A) (A) (A) (A) (A) (A) (A) (A) (A) (A) (A)
                 (A) (A) (A) (A) (A) (A) (A) (A) (A) (A) (A) (A)
                 (A) (A) (A) (A) (A) (A) (A) (A) (A) (A) (A) (A)
                 (A) (A) (A) (A) (A) (A) (A) (A) (A) (A) (A) (A)
                 (A) (A) (A) (A) (A) (A) (A) (A) (A) (A) (A) (A)
                 (A) (A) (A) (A) (A) (A) (A) (A) (A) (A) (A) (A)
                 (A) (A) (A) (A) (A) (A) (A) (A) (A) (A) (A) (A)
                 (A) (A) (A) (A) (A) (A) (A) (A) (A) (A) (A) (A)
                 (A) (A) (A) (A) (A) (A) (A) (A) (A) (A) (A) (A)
                 (A) (A) (A) (A) (A) (A) (A) (A) (A) (A) (A) (A)
                 (A) (A) (A) (A) (A) (A) (A) (A) (A) (A) (A) (A)
                 (A) (A) (A) (A) (A) (A) (A) (A) (A) (A) (A) (A)
                 (A) (A) (A) (A) (A) (A) (A) (A) (A) (A) (A) (A)
                 (A) (A) (A) (A) (A) (A) (A) (A) (A) (A) (A) (A)
                 (A) (A) (A) (A) (A) (A) (A) (A) (A) (A) (A) (A)
                 (A) (A) (A) (A) (A) (A) (A) (A) (A) (A) (A) (A)
                 (A) (A) (A) (A) (A) (A) (A) (A) (A) (A) (A) (A)
                 (A) (A) (A) (A) (A) (A) (A) (A) (A) (A) (A) (A)
                 (A) (A) (A) (A) (A) (A) (A) (A) (A) (A) (A) (A)
                 (A) (A) (A) (A) (A) (A) (A) (A) (A) (A) (A) (A)
                 (A) (A) (A) (A) (A) (A) (A) (A) (A) (A) (A) (A)
                 (A) (A) (A) (A) (A) (A) (A) (A) (A) (A) (A) (A)
                 (A) (A) (A) (A) (A) (A) (A) (A) (A) (A) (A) (A)
                 (A) (A) (A) (A) (A) (A) (A) (A) (A) (A) (A) (A)
                 (A) (A) (A) (A) (A) (A) (A) (A) (A) (A) (A) (A)
                 (A) (A) (A) (A) (A) (A) (A) (A) (A) (A) (A) (A)
                 (A) (A) (A) (A) (A) (A) (A) (A) (A) (A) (A) (A)
                 (A) (A) (A) (A) (A) (A) (A) (A) (A) (A) (A) (A)
                 (A) (A) (A) (A) (A) (A) (A) (A) (A) (A) (A) (A)
                 (A) (A) (A) (A) (A) (A) (A) (A) (A) (A) (A) (A)
                 (A) (A) (A) (A) (A) (A) (A) (A) (A) (A) (A) (A)
    20 initial guesses have been made.
 Convergence on wavefunction:    0.001000000000000
 Davidson Disk Diagonalization:  ConvIn= 1.00D-03 SkipCon=T Conv= 1.00D-03.
 Max sub-space:  2000 roots to seek:    20 dimension of matrix:       549360
 Iteration     1 Dimension    20 NMult     0 NNew     20
 CISAX will form    20 AO SS matrices at one time.
 NMat=    20 NSing=    20 JSym2X= 0.
 FoFJK:  IHMeth= 1 ICntrl=       0 DoSepK=T KAlg= 0 I1Cent=           0 FoldK=F
 IRaf=         1 NMat=      40 IRICut=       1 DoRegI=T DoRafI=F ISym2E= 0 IDoP0=3 IntGTp=3.
 FoFCou: FMM=T IPFlag=           0 FMFlag=      100000 FMFlg1=        2001
         NFxFlg=           0 DoJE=F BraDBF=F KetDBF=F FulRan=T
         wScrn=  0.000000 ICntrl=       500 IOpCl=  0 I1Cent=           0 NGrid=           0
         NMat0=   20 NMatS0=     20 NMatT0=    0 NMatD0=   20 NMtDS0=    0 NMtDT0=    0
 Symmetry not used in FoFCou.
 FMM levels:  10  Number of levels for PrismC:   9
 New state      2 was old state      7
 New state      3 was old state      6
 New state      5 was old state      2
 Excitation Energies [eV] at current iteration:
 Root      1 :     2.484112969492852
 Root      2 :     2.610109613383282
 Root      3 :     2.618303925434078
 Root      4 :     2.622850343147725
 Root      5 :     2.638104988332817
 Root      6 :     2.735361834665281
 Root      7 :     3.283097137771834
 Root      8 :     3.424982505739959
 Root      9 :     3.624731987542532
 Root     10 :     3.678230520423096
 Root     11 :     3.744360894935817
 Root     12 :     3.753090747386141
 Root     13 :     4.296701430103542
 Root     14 :     4.314767882840742
 Root     15 :     4.387946843051515
 Root     16 :     4.500609665056107
 Root     17 :     4.718325464038072
 Root     18 :     4.754473326723020
 Root     19 :     4.844341883600252
 Root     20 :     4.876859625458954
 Iteration     2 Dimension    30 NMult    20 NNew     10
 CISAX will form    10 AO SS matrices at one time.
 NMat=    10 NSing=    10 JSym2X= 0.
 New state      1 was old state      5
 Root      1 not converged, maximum delta is    0.223609344753450
 New state      2 was old state      3
 Root      2 not converged, maximum delta is    0.085654875425590
 New state      3 was old state      2
 Root      3 not converged, maximum delta is    0.219918681395941
 New state      4 was old state      1
 Root      4 not converged, maximum delta is    0.025161493533501
 New state      5 was old state      6
 Root      5 not converged, maximum delta is    0.042228298669199
 Excitation Energies [eV] at current iteration:
 Root      1 :     1.777410887306156   Change is   -0.860694101026660
 Root      2 :     2.232147820756004   Change is   -0.386156104678074
 Root      3 :     2.239918528438992   Change is   -0.370191084944290
 Root      4 :     2.479001333037518   Change is   -0.005111636455334
 Root      5 :     2.561683755240793   Change is   -0.173678079424489
 Iteration     3 Dimension    40 NMult    30 NNew     10
 CISAX will form    10 AO SS matrices at one time.
 NMat=    10 NSing=    10 JSym2X= 0.
 Root      1 not converged, maximum delta is    0.054409134548769
 New state      2 was old state      5
 Root      2 not converged, maximum delta is    0.125416265830820
 New state      3 was old state      2
 Root      3 not converged, maximum delta is    0.184444450329657
 New state      4 was old state      3
 Root      4 not converged, maximum delta is    0.193756824918692
 New state      5 was old state      4
 Root      5 not converged, maximum delta is    0.002516963713060
 Excitation Energies [eV] at current iteration:
 Root      1 :     1.672239965492575   Change is   -0.105170921813581
 Root      2 :     1.788478764783293   Change is   -0.773204990457499
 Root      3 :     2.192763149971443   Change is   -0.039384670784561
 Root      4 :     2.204793932296441   Change is   -0.035124596142550
 Root      5 :     2.478987321382888   Change is   -0.000014011654630
 Iteration     4 Dimension    50 NMult    40 NNew     10
 CISAX will form    10 AO SS matrices at one time.
 NMat=    10 NSing=    10 JSym2X= 0.
 Root      1 not converged, maximum delta is    0.010977485007115
 Root      2 not converged, maximum delta is    0.041718914781434
 Root      3 not converged, maximum delta is    0.027490207380088
 Root      4 not converged, maximum delta is    0.027057876688741
 Root      5 has converged.
 Excitation Energies [eV] at current iteration:
 Root      1 :     1.655509195422250   Change is   -0.016730770070325
 Root      2 :     1.712000591210403   Change is   -0.076478173572890
 Root      3 :     2.184881690256612   Change is   -0.007881459714831
 Root      4 :     2.197709801351780   Change is   -0.007084130944662
 Root      5 :     2.478986654245863   Change is   -0.000000667137025
 Iteration     5 Dimension    58 NMult    50 NNew      8
 CISAX will form     8 AO SS matrices at one time.
 NMat=     8 NSing=     8 JSym2X= 0.
 Root      1 not converged, maximum delta is    0.001580718175453
 Root      2 not converged, maximum delta is    0.012959126663164
 Root      3 not converged, maximum delta is    0.002218522858812
 Root      4 not converged, maximum delta is    0.001939407748777
 Root      5 has converged.
 Excitation Energies [eV] at current iteration:
 Root      1 :     1.653750059163785   Change is   -0.001759136258465
 Root      2 :     1.698807348105267   Change is   -0.013193243105136
 Root      3 :     2.183981919695614   Change is   -0.000899770560997
 Root      4 :     2.196958515362669   Change is   -0.000751285989111
 Root      5 :     2.478986624443206   Change is   -0.000000029802657
 Iteration     6 Dimension    66 NMult    58 NNew      8
 CISAX will form     8 AO SS matrices at one time.
 NMat=     8 NSing=     8 JSym2X= 0.
 Root      1 has converged.
 Root      2 not converged, maximum delta is    0.001429610978639
 Root      3 not converged, maximum delta is    0.001121430059069
 Root      4 has converged.
 Root      5 has converged.
 Excitation Energies [eV] at current iteration:
 Root      1 :     1.653501190749495   Change is   -0.000248868414291
 Root      2 :     1.697525870318166   Change is   -0.001281477787101
 Root      3 :     2.183843358272508   Change is   -0.000138561423107
 Root      4 :     2.196844693972047   Change is   -0.000113821390621
 Root      5 :     2.478986616855501   Change is   -0.000000007587705
 Iteration     7 Dimension    70 NMult    66 NNew      4
 CISAX will form     4 AO SS matrices at one time.
 NMat=     4 NSing=     4 JSym2X= 0.
 Root      1 has converged.
 Root      2 has converged.
 Root      3 has converged.
 Root      4 has converged.
[...]
 Alpha virt. eigenvalues --    1.84449   1.84805   1.84856   1.84959   1.85122
 Alpha virt. eigenvalues --    1.85336   1.85429   1.85473   1.85643   1.85755
 Alpha virt. eigenvalues --    1.85983   1.86120   1.86400   1.86584   1.86658
 Alpha virt. eigenvalues --    1.86802   1.86858   1.87063   1.87133   1.87422
 Alpha virt. eigenvalues --    1.87545   1.87680   1.87805   1.87947   1.87967
 Alpha virt. eigenvalues --    1.88085   1.88231   1.88469   1.88588   1.88777
 Alpha virt. eigenvalues --    1.88835   1.89087   1.89149   1.89358   1.89703
 Alpha virt. eigenvalues --    1.89781   1.89832   1.90048   1.90186   1.90342
 Alpha virt. eigenvalues --    1.90768   1.91104   1.91351   1.91462   1.91669
 Alpha virt. eigenvalues --    1.91731   1.92208   1.92357   1.92636   1.92883
 Alpha virt. eigenvalues --    1.93071   1.93345   1.93381   1.93732   1.94327
 Alpha virt. eigenvalues --    1.94621   1.94751   1.95029   1.95503   1.95679
 Alpha virt. eigenvalues --    1.95921   1.95979   1.96162   1.96197   1.96271
 Alpha virt. eigenvalues --    1.96390   1.96716   1.96766   1.96945   1.97116
 Alpha virt. eigenvalues --    1.97478   1.97796   1.97858   1.98062   1.98228
 Alpha virt. eigenvalues --    1.98329   1.98571   1.98713   1.99172   1.99266
 Alpha virt. eigenvalues --    1.99813   2.00078   2.00698   2.00989   2.01091
 Alpha virt. eigenvalues --    2.01238   2.01448   2.01678   2.01711   2.01741
 Alpha virt. eigenvalues --    2.01896   2.01980   2.02799   2.02903   2.03260
 Alpha virt. eigenvalues --    2.03354   2.03441   2.03474   2.03538   2.03675
 Alpha virt. eigenvalues --    2.04048   2.04219   2.05024   2.05178   2.05574
 Alpha virt. eigenvalues --    2.05821   2.06131   2.06423   2.06922   2.07152
 Alpha virt. eigenvalues --    2.07229   2.07548   2.08687   2.08699   2.09011
 Alpha virt. eigenvalues --    2.09181   2.09608   2.09761   2.10830   2.11194
 Alpha virt. eigenvalues --    2.11367   2.11528   2.11588   2.11676   2.11759
 Alpha virt. eigenvalues --    2.11993   2.12477   2.12617   2.12834   2.12866
 Alpha virt. eigenvalues --    2.13009   2.13064   2.13739   2.13753   2.14166
 Alpha virt. eigenvalues --    2.14463   2.15397   2.15602   2.15923   2.16247
 Alpha virt. eigenvalues --    2.16596   2.16769   2.16779   2.17340   2.17469
 Alpha virt. eigenvalues --    2.17729   2.17884   2.18084   2.18162   2.18243
 Alpha virt. eigenvalues --    2.18373   2.18789   2.18854   2.19385   2.19672
 Alpha virt. eigenvalues --    2.19961   2.20056   2.20228   2.20424   2.20568
 Alpha virt. eigenvalues --    2.21252   2.21467   2.21718   2.21729   2.21918
 Alpha virt. eigenvalues --    2.22021   2.22695   2.22868   2.23328   2.23588
 Alpha virt. eigenvalues --    2.24493   2.24685   2.25054   2.25289   2.26274
 Alpha virt. eigenvalues --    2.26579   2.26809   2.27100   2.27178   2.27365
 Alpha virt. eigenvalues --    2.28143   2.28456   2.29299   2.29609   2.29740
 Alpha virt. eigenvalues --    2.30017   2.30438   2.30738   2.30925   2.31076
 Alpha virt. eigenvalues --    2.31190   2.31416   2.32198   2.32426   2.33132
 Alpha virt. eigenvalues --    2.33357   2.33453   2.33673   2.34145   2.34389
 Alpha virt. eigenvalues --    2.35349   2.35446   2.35807   2.36031   2.36461
 Alpha virt. eigenvalues --    2.36515   2.36643   2.36734   2.37687   2.38019
 Alpha virt. eigenvalues --    2.38346   2.38556   2.38843   2.38891   2.39625
 Alpha virt. eigenvalues --    2.39816   2.40186   2.40477   2.40673   2.40954
 Alpha virt. eigenvalues --    2.41248   2.41355   2.41710   2.41984   2.42079
 Alpha virt. eigenvalues --    2.42260   2.42993   2.43093   2.43212   2.43476
 Alpha virt. eigenvalues --    2.44129   2.44189   2.44759   2.44908   2.44946
 Alpha virt. eigenvalues --    2.45153   2.45572   2.45741   2.46369   2.46392
 Alpha virt. eigenvalues --    2.46481   2.46642   2.46813   2.46931   2.47255
 Alpha virt. eigenvalues --    2.47595   2.47733   2.48083   2.49383   2.49597
 Alpha virt. eigenvalues --    2.50116   2.50269   2.50613   2.50728   2.51099
 Alpha virt. eigenvalues --    2.51395   2.51747   2.51896   2.52432   2.52526
 Alpha virt. eigenvalues --    2.52818   2.53296   2.53942   2.54146   2.54257
 Alpha virt. eigenvalues --    2.54416   2.54822   2.55034   2.55580   2.55850
 Alpha virt. eigenvalues --    2.57904   2.58219   2.58656   2.59069   2.60180
 Alpha virt. eigenvalues --    2.60405   2.60612   2.61030   2.61743   2.61962
 Alpha virt. eigenvalues --    2.62525   2.62573   2.62952   2.63280   2.63939
 Alpha virt. eigenvalues --    2.64302   2.64332   2.64700   2.65080   2.65291
 Alpha virt. eigenvalues --    2.65784   2.65972   2.66839   2.66924   2.67098
 Alpha virt. eigenvalues --    2.67208   2.67937   2.68201   2.68867   2.68960
 Alpha virt. eigenvalues --    2.69014   2.69144   2.69413   2.69847   2.69996
 Alpha virt. eigenvalues --    2.70323   2.70981   2.71204   2.72033   2.72048
 Alpha virt. eigenvalues --    2.72610   2.72636   2.72777   2.72869   2.73314
 Alpha virt. eigenvalues --    2.73435   2.73532   2.73576   2.74518   2.74678
 Alpha virt. eigenvalues --    2.74977   2.75194   2.76604   2.76728   2.77200
 Alpha virt. eigenvalues --    2.77221   2.77499   2.77708   2.78286   2.78375
 Alpha virt. eigenvalues --    2.78701   2.78853   2.79133   2.79285   2.80343
 Alpha virt. eigenvalues --    2.80377   2.80564   2.80787   2.81109   2.81279
 Alpha virt. eigenvalues --    2.81930   2.82090   2.82343   2.82502   2.83723
 Alpha virt. eigenvalues --    2.83838   2.83973   2.84012   2.84557   2.84687
 Alpha virt. eigenvalues --    2.84915   2.85105   2.85736   2.85823   2.86862
 Alpha virt. eigenvalues --    2.87008   2.87311   2.87569   2.88249   2.88321
 Alpha virt. eigenvalues --    2.88507   2.88905   2.88950   2.89032   2.90482
 Alpha virt. eigenvalues --    2.90852   2.91206   2.91308   2.93158   2.93436
 Alpha virt. eigenvalues --    2.93910   2.94334   2.94567   2.94819   2.95342
 Alpha virt. eigenvalues --    2.95564   2.95905   2.96131   2.96344   2.96712
 Alpha virt. eigenvalues --    2.97025   2.97231   2.97774   2.98195   2.98277
 Alpha virt. eigenvalues --    2.98395   2.98452   2.98600   2.98712   2.98919
 Alpha virt. eigenvalues --    2.98946   2.99149   2.99694   3.00008   3.00052
 Alpha virt. eigenvalues --    3.00138   3.00268   3.00439   3.00699   3.01126
 Alpha virt. eigenvalues --    3.02017   3.02092   3.02190   3.02219   3.02714
 Alpha virt. eigenvalues --    3.02893   3.02980   3.03398   3.03433   3.03851
 Alpha virt. eigenvalues --    3.04197   3.04342   3.04452   3.04607   3.04779
 Alpha virt. eigenvalues --    3.04991   3.05368   3.05485   3.06112   3.06331
 Alpha virt. eigenvalues --    3.06802   3.07095   3.08113   3.08242   3.09379
 Alpha virt. eigenvalues --    3.09613   3.09735   3.10476   3.10513   3.10852
 Alpha virt. eigenvalues --    3.11382   3.11671   3.11918   3.12238   3.12256
 Alpha virt. eigenvalues --    3.12421   3.13322   3.13693   3.13742   3.13934
 Alpha virt. eigenvalues --    3.14044   3.14543   3.15981   3.16812   3.17273
 Alpha virt. eigenvalues --    3.17683   3.18069   3.18202   3.19168   3.19214
 Alpha virt. eigenvalues --    3.22217   3.22676   3.23966   3.24550   3.24644
 Alpha virt. eigenvalues --    3.25295   3.26499   3.26782   3.27515   3.27607
 Alpha virt. eigenvalues --    3.29002   3.29291   3.31493   3.31514   3.33308
 Alpha virt. eigenvalues --    3.33419   3.40316   3.40525   3.42884   3.42892
 Alpha virt. eigenvalues --    3.48636   3.48808   3.50017   3.50409   3.50946
 Alpha virt. eigenvalues --    3.51496   3.56571   3.57119   3.59181   3.59490
 Alpha virt. eigenvalues --    3.62626   3.62859   3.66160   3.66297   3.67092
 Alpha virt. eigenvalues --    3.67607   3.73185   3.74096   3.75987   3.76760
          Condensed to atoms (all electrons):
 Mulliken charges:
               1
     1  Mg   0.831081
     2  C   -0.002641
     3  C   -0.093694
     4  C   -0.045106
     5  C   -0.063583
     6  N   -0.256398
     7  C   -0.054563
     8  C   -0.013432
     9  C   -0.087034
    10  C    0.046072
    11  C    0.104716
    12  C    0.053116
    13  C   -0.071893
    14  H    0.035711
    15  N   -0.433911
    16  C    0.168573
    17  C   -0.175979
    18  C   -0.002597
    19  C    0.149065
    20  C    0.109815
    21  C    0.014546
    22  O   -0.249152
    23  C    0.061185
    24  N   -0.340367
    25  C    0.041496
    26  C   -0.028358
    27  C   -0.024044
    28  C    0.073898
    29  C    0.076089
    30  C    0.035103
    31  C   -0.006072
    32  N   -0.310483
    33  C    0.078933
    34  C   -0.170903
    35  C    0.008113
    36  C    0.080282
    37  C    0.127539
    38  C    0.045217
    39  O   -0.188668
    40  C   -0.005572
    41  C    0.213429
    42  O   -0.259828
    43  O   -0.304251
    44  C    0.157668
    45  H   -0.017143
    46  H   -0.016070
    47  H   -0.041560
    48  H    0.001020
    49  H   -0.003678
    50  H    0.025585
    51  H    0.016736
    52  H    0.016976
    53  H    0.011135
    54  H    0.042281
    55  H    0.018346
    56  H    0.018604
    57  H    0.005578
    58  H    0.026950
    59  H    0.042471
    60  H    0.036257
    61  H    0.036248
    62  H    0.035983
    63  H    0.017339
    64  H    0.009600
    65  H    0.023658
    66  H    0.012546
    67  H    0.004902
    68  H    0.006951
    69  H    0.004695
    70  H    0.010021
    71  H    0.019133
    72  H    0.028455
    73  H    0.046903
    74  H    0.009338
    75  H    0.046269
    76  H    0.035574
    77  H    0.043557
    78  H    0.046683
    79  H    0.052868
    80  Mg   0.837428
    81  C   -0.017325
    82  C   -0.088303
    83  C   -0.045486
    84  C   -0.064655
    85  N   -0.254603
    86  C   -0.049792
    87  C   -0.015119
    88  C   -0.090417
    89  C    0.045594
    90  C    0.114550
    91  C    0.062610
    92  C   -0.077642
    93  H    0.034470
    94  N   -0.423307
    95  C    0.162642
    96  C   -0.175249
    97  C   -0.008506
    98  C    0.152094
    99  C    0.099605
   100  C    0.015420
   101  O   -0.254764
   102  C    0.061424
   103  N   -0.350085
   104  C    0.037479
   105  C   -0.020628
   106  C   -0.037498
   107  C    0.087934
   108  C    0.073170
   109  C    0.033329
   110  C   -0.010694
   111  N   -0.324232
   112  C    0.078519
   113  C   -0.162452
   114  C    0.002044
   115  C    0.096474
   116  C    0.131082
   117  C    0.042486
   118  O   -0.187978
   119  C    0.000915
   120  C    0.211212
   121  O   -0.251166
   122  O   -0.305660
   123  C    0.152144
   124  H   -0.020457
   125  H   -0.016707
   126  H   -0.035886
   127  H   -0.000908
   128  H   -0.004769
   129  H    0.022315
   130  H    0.014317
   131  H    0.015690
   132  H    0.013880
   133  H    0.037628
   134  H    0.020624
   135  H    0.019361
   136  H    0.008423
   137  H    0.025155
   138  H    0.039237
   139  H    0.037746
   140  H    0.035013
   141  H    0.034273
   142  H    0.012803
   143  H    0.019941
   144  H    0.022773
   145  H    0.009750
   146  H    0.009912
   147  H    0.010149
   148  H    0.011835
   149  H    0.008721
   150  H    0.020272
   151  H    0.028632
   152  H    0.045639
   153  H    0.011882
   154  H    0.047224
   155  H    0.034730
   156  H    0.043698
   157  H    0.049289
   158  H    0.053431
 Sum of Mulliken charges =  -0.00000
 Mulliken charges with hydrogens summed into heavy atoms:
               1
     1  Mg   0.831081
     2  C   -0.002641
     3  C   -0.110838
     4  C   -0.061177
     5  C   -0.105144
     6  N   -0.256398
     7  C   -0.054563
     8  C   -0.012413
     9  C   -0.090712
    10  C    0.046072
    11  C    0.164013
    12  C    0.106532
    13  C    0.000768
    15  N   -0.433911
    16  C    0.168573
    17  C   -0.175979
    18  C   -0.002597
    19  C    0.149065
    20  C    0.184813
    21  C    0.014546
    22  O   -0.249152
    23  C    0.169672
    24  N   -0.340367
    25  C    0.041496
    26  C   -0.011019
    27  C   -0.014444
    28  C    0.073898
    29  C    0.117195
    30  C    0.046748
    31  C    0.051537
    32  N   -0.310483
    33  C    0.078933
    34  C   -0.170903
    35  C    0.008113
    36  C    0.080282
    37  C    0.230048
    38  C    0.045217
    39  O   -0.188668
    40  C    0.030002
    41  C    0.213429
    42  O   -0.259828
    43  O   -0.304251
    44  C    0.300777
    80  Mg   0.837428
    81  C   -0.017325
    82  C   -0.108759
    83  C   -0.062193
    84  C   -0.100541
    85  N   -0.254603
    86  C   -0.049792
    87  C   -0.016026
    88  C   -0.095187
    89  C    0.045594
    90  C    0.166872
    91  C    0.114119
    92  C   -0.003188
    94  N   -0.423307
    95  C    0.162642
    96  C   -0.175249
    97  C   -0.008506
    98  C    0.152094
    99  C    0.172420
   100  C    0.015420
   101  O   -0.254764
   102  C    0.168456
   103  N   -0.350085
   104  C    0.037479
   105  C   -0.007825
   106  C   -0.017557
   107  C    0.087934
   108  C    0.115605
   109  C    0.055313
   110  C    0.046930
   111  N   -0.324232
   112  C    0.078519
   113  C   -0.162452
   114  C    0.002044
   115  C    0.096474
   116  C    0.235826
   117  C    0.042486
   118  O   -0.187978
   119  C    0.035645
   120  C    0.211212
   121  O   -0.251166
   122  O   -0.305660
   123  C    0.298561
 Electronic spatial extent (au):  <R**2>=         123733.1331
 Charge=             -0.0000 electrons
 Dipole moment (field-independent basis, Debye):
    X=              1.0147    Y=              6.4700    Z=             -4.7780  Tot=              8.1068
 Quadrupole moment (field-independent basis, Debye-Ang):
   XX=           -447.5011   YY=           -544.1813   ZZ=           -480.6018
   XY=            -29.6418   XZ=              3.0738   YZ=             -9.5543
 Traceless Quadrupole moment (field-independent basis, Debye-Ang):
   XX=             43.2603   YY=            -53.4199   ZZ=             10.1596
   XY=            -29.6418   XZ=              3.0738   YZ=             -9.5543
 Octapole moment (field-independent basis, Debye-Ang**2):
  XXX=           -459.0558  YYY=            305.1344  ZZZ=              5.1587  XYY=           -118.9072
  XXY=            423.0535  XXZ=           -257.0072  XZZ=            202.4246  YZZ=           -110.6086
  YYZ=           -191.9232  XYZ=            -84.6077
 Hexadecapole moment (field-independent basis, Debye-Ang**3):
 XXXX=        -107186.6196 YYYY=         -33527.8529 ZZZZ=         -17759.1946 XXXY=          -1011.9092
 XXXZ=          -1130.4523 YYYX=           -605.1231 YYYZ=           -267.8260 ZZZX=            -35.6750
 ZZZY=            388.7838 XXYY=         -25894.9782 XXZZ=         -21435.8172 YYZZ=          -8232.0231
 XXYZ=           -776.6504 YYXZ=           -368.2973 ZZXY=           -521.3813
 N-N= 1.505824897202D+04 E-N=-3.959782758936D+04  KE= 4.028794907379D+03
 Leave Link  601 at Fri Sep 10 09:06:56 2021, MaxMem= 23488102400 cpu:              19.6 elap:               0.9
 (Enter /sw/apps/gaussian-16.0/g16/l9999.exe)
 1\1\GINC-BP1-COMPUTE00090\SP\RCAM-B3LYP TD-FC\def2SVP\C68H72Mg2N8O8\OF
 15641\10-Sep-2021\0\\#p cam-b3lyp/Def2SVP td=(nstates=5)\\TDDFT excite
 d states in gaussian\\0,1\Mg,0,0.,0.,0.\C,0,-0.217,-2.218,2.801\C,0,-1
 .255,2.442,2.026\C,0,-0.245,1.85,-2.564\C,0,0.146,-2.824,-2.037\N,0,-0
 .617,-0.009,2.126\C,0,-0.594,-0.908,3.105\C,0,-0.936,-0.309,4.502\C,0,
 -1.773,0.964,4.032\C,0,-1.155,1.168,2.66\C,0,-3.263,0.685,3.863\C,0,0.
 345,0.11,5.299\C,0,0.124,0.397,6.787\H,0,1.168,0.033,7.733\N,0,-0.185,
 1.961,-0.152\C,0,-0.703,2.8,0.777\C,0,-0.62,4.156,0.193\C,0,-0.187,4.0
 15,-1.225\C,0,-0.214,2.583,-1.38\C,0,-0.887,5.406,0.974\C,0,0.181,5.01
 3,-2.277\O,0,0.303,4.69,-3.508\C,0,0.31,6.414,-1.837\N,0,-0.265,-0.413
 ,-2.029\C,0,-0.279,0.569,-2.937\C,0,-0.196,0.024,-4.332\C,0,0.124,-1.5
 33,-4.18\C,0,0.086,-1.632,-2.635\C,0,-1.451,0.205,-5.197\C,0,1.373,-2.
 07,-4.923\C,0,2.626,-1.49,-4.306\N,0,0.15,-2.144,0.303\C,0,0.173,-3.13
 6,-0.688\C,0,0.173,-4.438,0.004\C,0,0.133,-4.111,1.358\C,0,0.083,-2.69
 5,1.502\C,0,0.149,-5.715,-0.623\C,0,0.096,-4.629,2.716\O,0,0.208,-5.74
 7,3.221\C,0,-0.255,-3.428,3.701\C,0,0.717,-3.482,4.848\O,0,1.931,-3.25
 5,4.669\O,0,0.038,-3.556,6.003\C,0,0.943,-3.583,7.183\H,0,-1.859,3.22,
 2.497\H,0,-0.218,2.453,-3.474\H,0,0.276,-3.747,-2.605\H,0,-1.554,-0.94
 9,5.132\H,0,-1.585,1.831,4.665\H,0,-3.484,-0.377,3.969\H,0,-3.511,1.02
 7,2.858\H,0,-3.852,1.301,4.543\H,0,0.669,1.096,4.966\H,0,1.13,-0.639,5
 .189\H,0,-0.844,0.026,7.125\H,0,0.062,1.477,6.921\H,0,-1.344,5.186,1.9
 38\H,0,-1.651,5.963,0.432\H,0,0.007,6.02,1.084\H,0,-0.635,6.744,-1.405
 \H,0,0.665,6.97,-2.704\H,0,1.048,6.466,-1.036\H,0,0.608,0.501,-4.891\H
 ,0,-0.692,-2.156,-4.547\H,0,-1.267,0.74,-6.129\H,0,-2.204,0.714,-4.596
 \H,0,-1.967,-0.72,-5.453\H,0,1.356,-1.759,-5.967\H,0,1.452,-3.157,-4.9
 02\H,0,2.714,-0.522,-4.798\H,0,3.487,-2.121,-4.529\H,0,2.495,-1.303,-3
 .24\H,0,0.867,-6.333,-0.084\H,0,0.404,-5.642,-1.68\H,0,-0.891,-5.999,-
 0.463\H,0,-1.283,-3.581,4.028\H,0,0.698,-4.478,7.755\H,0,0.833,-2.619,
 7.68\H,0,2.,-3.754,6.976\Mg,0,10.51646,0.94942,0.79002\C,0,13.28924,-1
 .32432,0.93452\C,0,12.7744,3.48755,1.09694\C,0,8.07479,2.94888,1.11835
 \C,0,8.45462,-1.72951,1.63729\N,0,12.71994,0.95442,0.9822\C,0,13.67134
 ,0.03311,0.96298\C,0,15.11462,0.60031,0.89387\C,0,14.83354,2.05043,1.5
 2396\C,0,13.35971,2.19738,1.15124\C,0,14.9484,2.08088,3.03896\C,0,15.6
 4504,0.70698,-0.57898\C,0,17.1492,0.95916,-0.70413\H,0,17.86839,0.3418
 ,-1.81503\N,0,10.43358,2.92093,0.57832\C,0,11.45033,3.79759,0.71606\C,
 0,10.86912,5.12817,0.47965\C,0,9.3937,4.97993,0.35367\C,0,9.23799,3.58
 315,0.707\C,0,11.70542,6.36386,0.31497\C,0,8.30202,5.94005,-0.01048\O,
 0,7.06595,5.65575,0.17426\C,0,8.72609,7.25893,-0.50261\N,0,8.58081,0.7
 0517,1.50831\C,0,7.70375,1.7242,1.49228\C,0,6.30464,1.24456,1.79695\C,
 0,6.38539,-0.35258,1.78279\C,0,7.90225,-0.52723,1.55034\C,0,5.71608,1.
 71233,3.12781\C,0,5.40234,-1.09862,0.83954\C,0,5.7555,-0.81496,-0.6027
 6\N,0,10.75903,-1.18361,1.03374\C,0,9.77046,-2.1162,1.41726\C,0,10.439
 04,-3.42593,1.55882\C,0,11.78513,-3.15775,1.26792\C,0,11.94779,-1.7744
 2,0.98608\C,0,9.8137,-4.64013,1.95979\C,0,13.1073,-3.72835,1.14558\O,0
 ,13.56845,-4.86835,1.1843\C,0,14.16207,-2.54331,1.04792\C,0,15.09557,-
 2.84515,-0.09225\O,0,14.67598,-2.87141,-1.26266\O,0,16.36221,-2.83778,
 0.36155\C,0,17.32604,-3.12128,-0.73503\H,0,13.37164,4.34208,1.41628\H,
 0,7.17925,3.57418,1.14027\H,0,7.86367,-2.63284,1.80298\H,0,15.84125,0.
 06786,1.49578\H,0,15.429,2.81626,1.03376\H,0,15.08455,1.0927,3.45262\H
 ,0,14.02398,2.51615,3.39537\H,0,15.74242,2.76891,3.34305\H,0,15.26141,
 1.63035,-1.03171\H,0,15.37634,-0.16387,-1.14471\H,0,17.67685,0.78222,0
 .24097\H,0,17.30743,2.02161,-0.90459\H,0,12.74398,6.19066,0.62286\H,0,
 11.32932,7.10231,1.03128\H,0,11.64288,6.78379,-0.69121\H,0,9.34094,7.7
 4505,0.25112\H,0,7.80729,7.77109,-0.7948\H,0,9.3622,7.11579,-1.38323\H
 ,0,5.6097,1.56809,1.03178\H,0,6.16783,-0.78035,2.7725\H,0,4.75933,2.25
 632,3.01479\H,0,6.44941,2.33227,3.62624\H,0,5.54423,0.92442,3.85915\H,
 0,4.38364,-0.7319,0.98753\H,0,5.38416,-2.17199,0.99617\H,0,5.26647,0.1
 4525,-0.79231\H,0,5.36244,-1.59338,-1.25361\H,0,6.8348,-0.66429,-0.721
 36\H,0,10.19076,-5.41524,1.30593\H,0,8.72958,-4.56578,1.90556\H,0,10.1
 6918,-4.71126,2.99121\H,0,14.6859,-2.49144,2.00316\H,0,17.92853,-3.977
 88,-0.41733\H,0,17.85997,-2.16966,-0.91693\H,0,16.92427,-3.48214,-1.67
 461\\Version=ES64L-G16RevA.03\State=1-A\HF=-4069.8126501\RMSD=5.002e-0
 9\PG=C01 [X(C68H72Mg2N8O8)]\\@


 TO BEHOLD HARMS OF OUR OWN HANDS DOING,
 WHERE NONE BESIDE US WROUGHT,
 CAUSES SHARP RUING...

                                         SOPHOCLES
 Job cpu time:       0 days 14 hours 18 minutes 24.0 seconds.
 Elapsed time:       0 days  0 hours 36 minutes 24.5 seconds.
 File lengths (MBytes):  RWF=  13225 Int=      0 D2E=      0 Chk=    574 Scr=      1
 Normal termination of Gaussian 16 at Fri Sep 10 09:06:57 2021.
