 Entering Gaussian System, Link 0=g16
 Initial command:
 /sw/apps/gaussian-16.0/g16/l1.exe "/tmp/Gau-198901.inp" -scrdir="/tmp/"
 Entering Link 1 = /sw/apps/gaussian-16.0/g16/l1.exe PID=    198902.
  
 Copyright (c) 1988,1990,1992,1993,1995,1998,2003,2009,2016,
            Gaussian, Inc.  All Rights Reserved.
  
 This is part of the Gaussian(R) 16 program.  It is based on
 the Gaussian(R) 09 system (copyright 2009, Gaussian, Inc.),
 the Gaussian(R) 03 system (copyright 2003, Gaussian, Inc.),
 the Gaussian(R) 98 system (copyright 1998, Gaussian, Inc.),
 the Gaussian(R) 94 system (copyright 1995, Gaussian, Inc.),
 the Gaussian 92(TM) system (copyright 1992, Gaussian, Inc.),
 the Gaussian 90(TM) system (copyright 1990, Gaussian, Inc.),
 the Gaussian 88(TM) system (copyright 1988, Gaussian, Inc.),
 the Gaussian 86(TM) system (copyright 1986, Carnegie Mellon
 University), and the Gaussian 82(TM) system (copyright 1983,
 Carnegie Mellon University). Gaussian is a federally registered
 trademark of Gaussian, Inc.
  
 This software contains proprietary and confidential information,
 including trade secrets, belonging to Gaussian, Inc.
  
 This software is provided under written license and may be
 used, copied, transmitted, or stored only in accord with that
 written license.
  
 The following legend is applicable only to US Government
 contracts under FAR:
  
                    RESTRICTED RIGHTS LEGEND
  
 Use, reproduction and disclosure by the US Government is
 subject to restrictions as set forth in subparagraphs (a)
 and (c) of the Commercial Computer Software - Restricted
 Rights clause in FAR 52.227-19.
  
 Gaussian, Inc.
 340 Quinnipiac St., Bldg. 40, Wallingford CT 06492
  
  
 ---------------------------------------------------------------
 Warning -- This program may not be used in any manner that
 competes with the business of Gaussian, Inc. or will provide
 assistance to any competitor of Gaussian, Inc.  The licensee
 of this program is prohibited from giving any competitor of
 Gaussian, Inc. access to this program.  By using this program,
 the user acknowledges that Gaussian, Inc. is engaged in the
 business of creating and licensing software in the field of
 computational chemistry and represents and warrants to the
 licensee that it is not a competitor of Gaussian, Inc. and that
 it will not use this program in any manner prohibited above.
 ---------------------------------------------------------------
  

 Cite this work as:
 Gaussian 16, Revision A.03,
 M. J. Frisch, G. W. Trucks, H. B. Schlegel, G. E. Scuseria, 
 M. A. Robb, J. R. Cheeseman, G. Scalmani, V. Barone, 
 G. A. Petersson, H. Nakatsuji, X. Li, M. Caricato, A. V. Marenich, 
 J. Bloino, B. G. Janesko, R. Gomperts, B. Mennucci, H. P. Hratchian, 
 J. V. Ortiz, A. F. Izmaylov, J. L. Sonnenberg, D. Williams-Young, 
 F. Ding, F. Lipparini, F. Egidi, J. Goings, B. Peng, A. Petrone, 
 T. Henderson, D. Ranasinghe, V. G. Zakrzewski, J. Gao, N. Rega, 
 G. Zheng, W. Liang, M. Hada, M. Ehara, K. Toyota, R. Fukuda, 
 J. Hasegawa, M. Ishida, T. Nakajima, Y. Honda, O. Kitao, H. Nakai, 
 T. Vreven, K. Throssell, J. A. Montgomery, Jr., J. E. Peralta, 
 F. Ogliaro, M. J. Bearpark, J. J. Heyd, E. N. Brothers, K. N. Kudin, 
 V. N. Staroverov, T. A. Keith, R. Kobayashi, J. Normand, 
 K. Raghavachari, A. P. Rendell, J. C. Burant, S. S. Iyengar, 
 J. Tomasi, M. Cossi, J. M. Millam, M. Klene, C. Adamo, R. Cammi, 
 J. W. Ochterski, R. L. Martin, K. Morokuma, O. Farkas, 
 J. B. Foresman, and D. J. Fox, Gaussian, Inc., Wallingford CT, 2016.
 
 ******************************************
 Gaussian 16:  ES64L-G16RevA.03 25-Dec-2016
                 8-Sep-2021 
 ******************************************
 %nproc=24
 Will use up to   24 processors via shared memory.
 %mem=175gb
 -----------------------------------
 #p cam-b3lyp/Def2SVP td=(nstates=5)
 -----------------------------------
 1/38=1,172=1/1;
 2/12=2,17=6,18=5,40=1/2;
 3/5=43,7=101,11=9,25=1,30=1,74=-40/1,2,3,8;
 4//1;
 5/5=2,38=5/2;
 8/6=1,10=1,108=5/1;
 9/41=5,42=1,70=2/14;
 6/7=2,8=2,9=2,10=2/1;
 99/5=1,9=1/99;
 Leave Link    1 at Wed Sep  8 16:08:03 2021, MaxMem= 23488102400 cpu:               0.5 elap:               0.0
 (Enter /sw/apps/gaussian-16.0/g16/l101.exe)
 --------------------------------
 TDDFT excited states in gaussian
 --------------------------------
 Symbolic Z-matrix:
 Charge =  0 Multiplicity = 1
 Mg                    0.        0.        0. 
 C                    -0.217    -2.218     2.801 
 C                    -1.255     2.442     2.026 
 C                    -0.245     1.85     -2.564 
 C                     0.146    -2.824    -2.037 
 N                    -0.617    -0.009     2.126 
 C                    -0.594    -0.908     3.105 
 C                    -0.936    -0.309     4.502 
 C                    -1.773     0.964     4.032 
 C                    -1.155     1.168     2.66 
 C                    -3.263     0.685     3.863 
 C                     0.345     0.11      5.299 
 C                     0.124     0.397     6.787 
 H                     1.168     0.033     7.733 
 N                    -0.185     1.961    -0.152 
 C                    -0.703     2.8       0.777 
 C                    -0.62      4.156     0.193 
 C                    -0.187     4.015    -1.225 
 C                    -0.214     2.583    -1.38 
 C                    -0.887     5.406     0.974 
 C                     0.181     5.013    -2.277 
 O                     0.303     4.69     -3.508 
 C                     0.31      6.414    -1.837 
 N                    -0.265    -0.413    -2.029 
 C                    -0.279     0.569    -2.937 
 C                    -0.196     0.024    -4.332 
 C                     0.124    -1.533    -4.18 
 C                     0.086    -1.632    -2.635 
 C                    -1.451     0.205    -5.197 
 C                     1.373    -2.07     -4.923 
 C                     2.626    -1.49     -4.306 
 N                     0.15     -2.144     0.303 
 C                     0.173    -3.136    -0.688 
 C                     0.173    -4.438     0.004 
 C                     0.133    -4.111     1.358 
 C                     0.083    -2.695     1.502 
 C                     0.149    -5.715    -0.623 
 C                     0.096    -4.629     2.716 
 O                     0.208    -5.747     3.221 
 C                    -0.255    -3.428     3.701 
 C                     0.717    -3.482     4.848 
 O                     1.931    -3.255     4.669 
 O                     0.038    -3.556     6.003 
 C                     0.943    -3.583     7.183 
 H                    -1.859     3.22      2.497 
 H                    -0.218     2.453    -3.474 
 H                     0.276    -3.747    -2.605 
 H                    -1.554    -0.949     5.132 
 H                    -1.585     1.831     4.665 
 H                    -3.484    -0.377     3.969 
 H                    -3.511     1.027     2.858 
 H                    -3.852     1.301     4.543 
 H                     0.669     1.096     4.966 
 H                     1.13     -0.639     5.189 
 H                    -0.844     0.026     7.125 
 H                     0.062     1.477     6.921 
 H                    -1.344     5.186     1.938 
 H                    -1.651     5.963     0.432 
 H                     0.007     6.02      1.084 
 H                    -0.635     6.744    -1.405 
 H                     0.665     6.97     -2.704 
 H                     1.048     6.466    -1.036 
 H                     0.608     0.501    -4.891 
 H                    -0.692    -2.156    -4.547 
 H                    -1.267     0.74     -6.129 
 H                    -2.204     0.714    -4.596 
 H                    -1.967    -0.72     -5.453 
 H                     1.356    -1.759    -5.967 
 H                     1.452    -3.157    -4.902 
 H                     2.714    -0.522    -4.798 
 H                     3.487    -2.121    -4.529 
 H                     2.495    -1.303    -3.24 
 H                     0.867    -6.333    -0.084 
 H                     0.404    -5.642    -1.68 
 H                    -0.891    -5.999    -0.463 
 H                    -1.283    -3.581     4.028 
 H                     0.698    -4.478     7.755 
 H                     0.833    -2.619     7.68 
 H                     2.       -3.754     6.976 
 Mg                    7.87451   0.70972   0.60498 
 C                     8.79402   3.1649    3.05562 
 C                     7.5987   -1.526     3.16624 
 C                     7.50284  -1.57707  -1.56294 
 C                     9.30789   2.78004  -1.80436 
 N                     8.18158   0.91296   2.78596 
 C                     8.46983   1.90909   3.60995 
 C                     8.32885   1.5595    5.11577 
 C                     8.51935  -0.03167   5.01208 
 C                     8.03828  -0.2425    3.57792 
 C                     9.97163  -0.47079   5.09813 
 C                     6.91565   1.93284   5.6863 
 C                     6.81086   1.90628   7.21275 
 H                     5.95467   2.8906    7.86888 
 N                     7.12489  -1.11919   0.78308 
 C                     7.07342  -1.87213   1.90188 
 C                     6.44816  -3.14271   1.50333 
 C                     6.28496  -3.14151   0.02411 
 C                     6.99916  -1.92811  -0.3189 
 C                     5.9976   -4.17455   2.49617 
 C                     5.61017  -4.08405  -0.92587 
 O                     5.79607  -4.0117   -2.19199 
 C                     4.79924  -5.15253  -0.32402 
 N                     8.52217   0.51156  -1.36063 
 C                     8.1774   -0.55898  -2.09752 
 C                     8.52293  -0.35344  -3.55311 
 C                     8.95275   1.18173  -3.68002 
 C                     8.86298   1.59331  -2.19411 
 C                     9.6387   -1.24126  -4.10376 
 C                     8.19705   2.03954  -4.73156 
 C                     6.75458   2.21466  -4.31443 
 N                     8.70822   2.70252   0.56355 
 C                     9.27699   3.3663   -0.5455 
 C                     9.81038   4.65392  -0.05564 
 C                     9.53321   4.63969   1.31966 
 C                     8.89171   3.41994   1.66632 
 C                     10.49371   5.62426  -0.84153 
 C                     9.64697   5.37459   2.55889 
 O                     10.02334   6.50462   2.86729 
 C                     9.28694   4.39821   3.76032 
 C                     8.32801   5.11557   4.67046 
 O                     7.18819   5.41812   4.27564 
 O                     8.83284   5.13209   5.91756 
 C                     7.91241   5.8234    6.85922 
 H                     7.70401  -2.35849   3.86249 
 H                     7.30167  -2.28531  -2.37003 
 H                     9.6819    3.5241   -2.51087 
 H                     9.09379   1.98472   5.75438 
 H                     7.87189  -0.55344   5.71202 
 H                     10.64788   0.37112   5.09621 
 H                     10.14211  -1.09499   4.23075 
 H                     10.11912  -1.11702   5.96817 
 H                     6.20578   1.1342    5.43531 
 H                     6.59681   2.88883   5.31879 
 H                     7.79634   1.87319   7.69305 
 H                     6.33541   0.96894   7.51168 
 H                     6.39916  -3.97229   3.49679 
 H                     6.46107  -5.12311   2.20414 
 H                     4.9129   -4.30061   2.50976 
 H                     5.42374  -5.75344   0.33277 
 H                     4.32635  -5.66789  -1.16227 
 H                     4.0291   -4.69428   0.30645 
 H                     7.66046  -0.5302   -4.184 
 H                     10.00803   1.28659  -3.97194 
 H                     9.3269   -1.84156  -4.97925 
 H                     9.98804  -1.88418  -3.3068 
 H                     10.54753  -0.71558  -4.39169 
 H                     8.18102   1.52775  -5.69695 
 H                     8.64133   3.01617  -4.89216 
 H                     6.28127   1.29479  -4.67065 
 H                     6.32163   3.09162  -4.79144 
 H                     6.66006   2.2325   -3.22245 
 H                     10.10031   6.59039  -0.55461 
 H                     10.36023   5.4398   -1.90545 
 H                     11.52328   5.44575  -0.51997 
 H                     10.21906   4.14383   4.26632 
 H                     8.48664   6.6222    7.33867 
 H                     7.50637   5.03109   7.51582 
 H                     7.08711   6.38227   6.4338 
 
 ITRead=  0  0  0  0  0  0  0  0  0  0  0  0  0  0  0  0  0  0  0  0
 ITRead=  0  0  0  0  0  0  0  0  0  0  0  0  0  0  0  0  0  0  0  0
 ITRead=  0  0  0  0  0  0  0  0  0  0  0  0  0  0  0  0  0  0  0  0
 ITRead=  0  0  0  0  0  0  0  0  0  0  0  0  0  0  0  0  0  0  0  0
 ITRead=  0  0  0  0  0  0  0  0  0  0  0  0  0  0  0  0  0  0  0  0
 ITRead=  0  0  0  0  0  0  0  0  0  0  0  0  0  0  0  0  0  0  0  0
 ITRead=  0  0  0  0  0  0  0  0  0  0  0  0  0  0  0  0  0  0  0  0
 ITRead=  0  0  0  0  0  0  0  0  0  0  0  0  0  0  0  0  0  0
 MicOpt= -1 -1 -1 -1 -1 -1 -1 -1 -1 -1 -1 -1 -1 -1 -1 -1 -1 -1 -1 -1
 MicOpt= -1 -1 -1 -1 -1 -1 -1 -1 -1 -1 -1 -1 -1 -1 -1 -1 -1 -1 -1 -1
 MicOpt= -1 -1 -1 -1 -1 -1 -1 -1 -1 -1 -1 -1 -1 -1 -1 -1 -1 -1 -1 -1
 MicOpt= -1 -1 -1 -1 -1 -1 -1 -1 -1 -1 -1 -1 -1 -1 -1 -1 -1 -1 -1 -1
 MicOpt= -1 -1 -1 -1 -1 -1 -1 -1 -1 -1 -1 -1 -1 -1 -1 -1 -1 -1 -1 -1
 MicOpt= -1 -1 -1 -1 -1 -1 -1 -1 -1 -1 -1 -1 -1 -1 -1 -1 -1 -1 -1 -1
 MicOpt= -1 -1 -1 -1 -1 -1 -1 -1 -1 -1 -1 -1 -1 -1 -1 -1 -1 -1 -1 -1
 MicOpt= -1 -1 -1 -1 -1 -1 -1 -1 -1 -1 -1 -1 -1 -1 -1 -1 -1 -1
 NAtoms=    158 NQM=      158 NQMF=       0 NMMI=      0 NMMIF=      0
                NMic=       0 NMicF=      0.
                    Isotopes and Nuclear Properties:
 (Nuclear quadrupole moments (NQMom) in fm**2, nuclear magnetic moments (NMagM)
  in nuclear magnetons)

  Atom         1           2           3           4           5           6           7           8           9          10
 IAtWgt=          24          12          12          12          12          14          12          12          12          12
 AtmWgt=  23.9850450  12.0000000  12.0000000  12.0000000  12.0000000  14.0030740  12.0000000  12.0000000  12.0000000  12.0000000
 NucSpn=           0           0           0           0           0           2           0           0           0           0
 AtZEff=  -0.0000000  -0.0000000  -0.0000000  -0.0000000  -0.0000000  -0.0000000  -0.0000000  -0.0000000  -0.0000000  -0.0000000
 NQMom=    0.0000000   0.0000000   0.0000000   0.0000000   0.0000000   2.0440000   0.0000000   0.0000000   0.0000000   0.0000000
 NMagM=    0.0000000   0.0000000   0.0000000   0.0000000   0.0000000   0.4037610   0.0000000   0.0000000   0.0000000   0.0000000
 AtZNuc=  12.0000000   6.0000000   6.0000000   6.0000000   6.0000000   7.0000000   6.0000000   6.0000000   6.0000000   6.0000000

  Atom        11          12          13          14          15          16          17          18          19          20
 IAtWgt=          12          12          12           1          14          12          12          12          12          12
 AtmWgt=  12.0000000  12.0000000  12.0000000   1.0078250  14.0030740  12.0000000  12.0000000  12.0000000  12.0000000  12.0000000
 NucSpn=           0           0           0           1           2           0           0           0           0           0
 AtZEff=  -0.0000000  -0.0000000  -0.0000000  -0.0000000  -0.0000000  -0.0000000  -0.0000000  -0.0000000  -0.0000000  -0.0000000
 NQMom=    0.0000000   0.0000000   0.0000000   0.0000000   2.0440000   0.0000000   0.0000000   0.0000000   0.0000000   0.0000000
 NMagM=    0.0000000   0.0000000   0.0000000   2.7928460   0.4037610   0.0000000   0.0000000   0.0000000   0.0000000   0.0000000
 AtZNuc=   6.0000000   6.0000000   6.0000000   1.0000000   7.0000000   6.0000000   6.0000000   6.0000000   6.0000000   6.0000000

  Atom        21          22          23          24          25          26          27          28          29          30
 IAtWgt=          12          16          12          14          12          12          12          12          12          12
 AtmWgt=  12.0000000  15.9949146  12.0000000  14.0030740  12.0000000  12.0000000  12.0000000  12.0000000  12.0000000  12.0000000
 NucSpn=           0           0           0           2           0           0           0           0           0           0
 AtZEff=  -0.0000000  -0.0000000  -0.0000000  -0.0000000  -0.0000000  -0.0000000  -0.0000000  -0.0000000  -0.0000000  -0.0000000
 NQMom=    0.0000000   0.0000000   0.0000000   2.0440000   0.0000000   0.0000000   0.0000000   0.0000000   0.0000000   0.0000000
 NMagM=    0.0000000   0.0000000   0.0000000   0.4037610   0.0000000   0.0000000   0.0000000   0.0000000   0.0000000   0.0000000
 AtZNuc=   6.0000000   8.0000000   6.0000000   7.0000000   6.0000000   6.0000000   6.0000000   6.0000000   6.0000000   6.0000000

  Atom        31          32          33          34          35          36          37          38          39          40
 IAtWgt=          12          14          12          12          12          12          12          12          16          12
 AtmWgt=  12.0000000  14.0030740  12.0000000  12.0000000  12.0000000  12.0000000  12.0000000  12.0000000  15.9949146  12.0000000
 NucSpn=           0           2           0           0           0           0           0           0           0           0
 AtZEff=  -0.0000000  -0.0000000  -0.0000000  -0.0000000  -0.0000000  -0.0000000  -0.0000000  -0.0000000  -0.0000000  -0.0000000
 NQMom=    0.0000000   2.0440000   0.0000000   0.0000000   0.0000000   0.0000000   0.0000000   0.0000000   0.0000000   0.0000000
 NMagM=    0.0000000   0.4037610   0.0000000   0.0000000   0.0000000   0.0000000   0.0000000   0.0000000   0.0000000   0.0000000
 AtZNuc=   6.0000000   7.0000000   6.0000000   6.0000000   6.0000000   6.0000000   6.0000000   6.0000000   8.0000000   6.0000000

  Atom        41          42          43          44          45          46          47          48          49          50
 IAtWgt=          12          16          16          12           1           1           1           1           1           1
 AtmWgt=  12.0000000  15.9949146  15.9949146  12.0000000   1.0078250   1.0078250   1.0078250   1.0078250   1.0078250   1.0078250
 NucSpn=           0           0           0           0           1           1           1           1           1           1
 AtZEff=  -0.0000000  -0.0000000  -0.0000000  -0.0000000  -0.0000000  -0.0000000  -0.0000000  -0.0000000  -0.0000000  -0.0000000
 NQMom=    0.0000000   0.0000000   0.0000000   0.0000000   0.0000000   0.0000000   0.0000000   0.0000000   0.0000000   0.0000000
 NMagM=    0.0000000   0.0000000   0.0000000   0.0000000   2.7928460   2.7928460   2.7928460   2.7928460   2.7928460   2.7928460
 AtZNuc=   6.0000000   8.0000000   8.0000000   6.0000000   1.0000000   1.0000000   1.0000000   1.0000000   1.0000000   1.0000000

  Atom        51          52          53          54          55          56          57          58          59          60
 IAtWgt=           1           1           1           1           1           1           1           1           1           1
 AtmWgt=   1.0078250   1.0078250   1.0078250   1.0078250   1.0078250   1.0078250   1.0078250   1.0078250   1.0078250   1.0078250
 NucSpn=           1           1           1           1           1           1           1           1           1           1
 AtZEff=  -0.0000000  -0.0000000  -0.0000000  -0.0000000  -0.0000000  -0.0000000  -0.0000000  -0.0000000  -0.0000000  -0.0000000
 NQMom=    0.0000000   0.0000000   0.0000000   0.0000000   0.0000000   0.0000000   0.0000000   0.0000000   0.0000000   0.0000000
 NMagM=    2.7928460   2.7928460   2.7928460   2.7928460   2.7928460   2.7928460   2.7928460   2.7928460   2.7928460   2.7928460
 AtZNuc=   1.0000000   1.0000000   1.0000000   1.0000000   1.0000000   1.0000000   1.0000000   1.0000000   1.0000000   1.0000000

  Atom        61          62          63          64          65          66          67          68          69          70
 IAtWgt=           1           1           1           1           1           1           1           1           1           1
 AtmWgt=   1.0078250   1.0078250   1.0078250   1.0078250   1.0078250   1.0078250   1.0078250   1.0078250   1.0078250   1.0078250
 NucSpn=           1           1           1           1           1           1           1           1           1           1
 AtZEff=  -0.0000000  -0.0000000  -0.0000000  -0.0000000  -0.0000000  -0.0000000  -0.0000000  -0.0000000  -0.0000000  -0.0000000
 NQMom=    0.0000000   0.0000000   0.0000000   0.0000000   0.0000000   0.0000000   0.0000000   0.0000000   0.0000000   0.0000000
 NMagM=    2.7928460   2.7928460   2.7928460   2.7928460   2.7928460   2.7928460   2.7928460   2.7928460   2.7928460   2.7928460
 AtZNuc=   1.0000000   1.0000000   1.0000000   1.0000000   1.0000000   1.0000000   1.0000000   1.0000000   1.0000000   1.0000000

  Atom        71          72          73          74          75          76          77          78          79          80
 IAtWgt=           1           1           1           1           1           1           1           1           1          24
 AtmWgt=   1.0078250   1.0078250   1.0078250   1.0078250   1.0078250   1.0078250   1.0078250   1.0078250   1.0078250  23.9850450
 NucSpn=           1           1           1           1           1           1           1           1           1           0
 AtZEff=  -0.0000000  -0.0000000  -0.0000000  -0.0000000  -0.0000000  -0.0000000  -0.0000000  -0.0000000  -0.0000000  -0.0000000
 NQMom=    0.0000000   0.0000000   0.0000000   0.0000000   0.0000000   0.0000000   0.0000000   0.0000000   0.0000000   0.0000000
 NMagM=    2.7928460   2.7928460   2.7928460   2.7928460   2.7928460   2.7928460   2.7928460   2.7928460   2.7928460   0.0000000
 AtZNuc=   1.0000000   1.0000000   1.0000000   1.0000000   1.0000000   1.0000000   1.0000000   1.0000000   1.0000000  12.0000000

  Atom        81          82          83          84          85          86          87          88          89          90
 IAtWgt=          12          12          12          12          14          12          12          12          12          12
 AtmWgt=  12.0000000  12.0000000  12.0000000  12.0000000  14.0030740  12.0000000  12.0000000  12.0000000  12.0000000  12.0000000
 NucSpn=           0           0           0           0           2           0           0           0           0           0
 AtZEff=  -0.0000000  -0.0000000  -0.0000000  -0.0000000  -0.0000000  -0.0000000  -0.0000000  -0.0000000  -0.0000000  -0.0000000
 NQMom=    0.0000000   0.0000000   0.0000000   0.0000000   2.0440000   0.0000000   0.0000000   0.0000000   0.0000000   0.0000000
 NMagM=    0.0000000   0.0000000   0.0000000   0.0000000   0.4037610   0.0000000   0.0000000   0.0000000   0.0000000   0.0000000
 AtZNuc=   6.0000000   6.0000000   6.0000000   6.0000000   7.0000000   6.0000000   6.0000000   6.0000000   6.0000000   6.0000000

  Atom        91          92          93          94          95          96          97          98          99         100
 IAtWgt=          12          12           1          14          12          12          12          12          12          12
 AtmWgt=  12.0000000  12.0000000   1.0078250  14.0030740  12.0000000  12.0000000  12.0000000  12.0000000  12.0000000  12.0000000
 NucSpn=           0           0           1           2           0           0           0           0           0           0
 AtZEff=  -0.0000000  -0.0000000  -0.0000000  -0.0000000  -0.0000000  -0.0000000  -0.0000000  -0.0000000  -0.0000000  -0.0000000
 NQMom=    0.0000000   0.0000000   0.0000000   2.0440000   0.0000000   0.0000000   0.0000000   0.0000000   0.0000000   0.0000000
 NMagM=    0.0000000   0.0000000   2.7928460   0.4037610   0.0000000   0.0000000   0.0000000   0.0000000   0.0000000   0.0000000
 AtZNuc=   6.0000000   6.0000000   1.0000000   7.0000000   6.0000000   6.0000000   6.0000000   6.0000000   6.0000000   6.0000000

  Atom       101         102         103         104         105         106         107         108         109         110
 IAtWgt=          16          12          14          12          12          12          12          12          12          12
 AtmWgt=  15.9949146  12.0000000  14.0030740  12.0000000  12.0000000  12.0000000  12.0000000  12.0000000  12.0000000  12.0000000
 NucSpn=           0           0           2           0           0           0           0           0           0           0
 AtZEff=  -0.0000000  -0.0000000  -0.0000000  -0.0000000  -0.0000000  -0.0000000  -0.0000000  -0.0000000  -0.0000000  -0.0000000
 NQMom=    0.0000000   0.0000000   2.0440000   0.0000000   0.0000000   0.0000000   0.0000000   0.0000000   0.0000000   0.0000000
 NMagM=    0.0000000   0.0000000   0.4037610   0.0000000   0.0000000   0.0000000   0.0000000   0.0000000   0.0000000   0.0000000
 AtZNuc=   8.0000000   6.0000000   7.0000000   6.0000000   6.0000000   6.0000000   6.0000000   6.0000000   6.0000000   6.0000000

  Atom       111         112         113         114         115         116         117         118         119         120
 IAtWgt=          14          12          12          12          12          12          12          16          12          12
 AtmWgt=  14.0030740  12.0000000  12.0000000  12.0000000  12.0000000  12.0000000  12.0000000  15.9949146  12.0000000  12.0000000
 NucSpn=           2           0           0           0           0           0           0           0           0           0
 AtZEff=  -0.0000000  -0.0000000  -0.0000000  -0.0000000  -0.0000000  -0.0000000  -0.0000000  -0.0000000  -0.0000000  -0.0000000
 NQMom=    2.0440000   0.0000000   0.0000000   0.0000000   0.0000000   0.0000000   0.0000000   0.0000000   0.0000000   0.0000000
 NMagM=    0.4037610   0.0000000   0.0000000   0.0000000   0.0000000   0.0000000   0.0000000   0.0000000   0.0000000   0.0000000
 AtZNuc=   7.0000000   6.0000000   6.0000000   6.0000000   6.0000000   6.0000000   6.0000000   8.0000000   6.0000000   6.0000000

  Atom       121         122         123         124         125         126         127         128         129         130
 IAtWgt=          16          16          12           1           1           1           1           1           1           1
 AtmWgt=  15.9949146  15.9949146  12.0000000   1.0078250   1.0078250   1.0078250   1.0078250   1.0078250   1.0078250   1.0078250
 NucSpn=           0           0           0           1           1           1           1           1           1           1
 AtZEff=  -0.0000000  -0.0000000  -0.0000000  -0.0000000  -0.0000000  -0.0000000  -0.0000000  -0.0000000  -0.0000000  -0.0000000
 NQMom=    0.0000000   0.0000000   0.0000000   0.0000000   0.0000000   0.0000000   0.0000000   0.0000000   0.0000000   0.0000000
 NMagM=    0.0000000   0.0000000   0.0000000   2.7928460   2.7928460   2.7928460   2.7928460   2.7928460   2.7928460   2.7928460
 AtZNuc=   8.0000000   8.0000000   6.0000000   1.0000000   1.0000000   1.0000000   1.0000000   1.0000000   1.0000000   1.0000000

  Atom       131         132         133         134         135         136         137         138         139         140
 IAtWgt=           1           1           1           1           1           1           1           1           1           1
 AtmWgt=   1.0078250   1.0078250   1.0078250   1.0078250   1.0078250   1.0078250   1.0078250   1.0078250   1.0078250   1.0078250
 NucSpn=           1           1           1           1           1           1           1           1           1           1
 AtZEff=  -0.0000000  -0.0000000  -0.0000000  -0.0000000  -0.0000000  -0.0000000  -0.0000000  -0.0000000  -0.0000000  -0.0000000
 NQMom=    0.0000000   0.0000000   0.0000000   0.0000000   0.0000000   0.0000000   0.0000000   0.0000000   0.0000000   0.0000000
 NMagM=    2.7928460   2.7928460   2.7928460   2.7928460   2.7928460   2.7928460   2.7928460   2.7928460   2.7928460   2.7928460
 AtZNuc=   1.0000000   1.0000000   1.0000000   1.0000000   1.0000000   1.0000000   1.0000000   1.0000000   1.0000000   1.0000000

  Atom       141         142         143         144         145         146         147         148         149         150
 IAtWgt=           1           1           1           1           1           1           1           1           1           1
 AtmWgt=   1.0078250   1.0078250   1.0078250   1.0078250   1.0078250   1.0078250   1.0078250   1.0078250   1.0078250   1.0078250
 NucSpn=           1           1           1           1           1           1           1           1           1           1
 AtZEff=  -0.0000000  -0.0000000  -0.0000000  -0.0000000  -0.0000000  -0.0000000  -0.0000000  -0.0000000  -0.0000000  -0.0000000
 NQMom=    0.0000000   0.0000000   0.0000000   0.0000000   0.0000000   0.0000000   0.0000000   0.0000000   0.0000000   0.0000000
 NMagM=    2.7928460   2.7928460   2.7928460   2.7928460   2.7928460   2.7928460   2.7928460   2.7928460   2.7928460   2.7928460
 AtZNuc=   1.0000000   1.0000000   1.0000000   1.0000000   1.0000000   1.0000000   1.0000000   1.0000000   1.0000000   1.0000000

  Atom       151         152         153         154         155         156         157         158
 IAtWgt=           1           1           1           1           1           1           1           1
 AtmWgt=   1.0078250   1.0078250   1.0078250   1.0078250   1.0078250   1.0078250   1.0078250   1.0078250
 NucSpn=           1           1           1           1           1           1           1           1
 AtZEff=  -0.0000000  -0.0000000  -0.0000000  -0.0000000  -0.0000000  -0.0000000  -0.0000000  -0.0000000
 NQMom=    0.0000000   0.0000000   0.0000000   0.0000000   0.0000000   0.0000000   0.0000000   0.0000000
 NMagM=    2.7928460   2.7928460   2.7928460   2.7928460   2.7928460   2.7928460   2.7928460   2.7928460
 AtZNuc=   1.0000000   1.0000000   1.0000000   1.0000000   1.0000000   1.0000000   1.0000000   1.0000000
 Leave Link  101 at Wed Sep  8 16:08:03 2021, MaxMem= 23488102400 cpu:               3.2 elap:               0.2
 (Enter /sw/apps/gaussian-16.0/g16/l202.exe)
 Stoichiometry    C68H72Mg2N8O8
 Framework group  C1[X(C68H72Mg2N8O8)]
 Deg. of freedom   468
 Full point group                 C1      NOp   1
 Largest Abelian subgroup         C1      NOp   1
 Largest concise Abelian subgroup C1      NOp   1
                         Standard orientation:                         
 ---------------------------------------------------------------------
 Center     Atomic      Atomic             Coordinates (Angstroms)
 Number     Number       Type             X           Y           Z
 ---------------------------------------------------------------------
      1         12           0        3.889533   -0.533272    1.224596
      2          6           0        4.650863    2.383756   -0.705051
      3          6           0        3.849333    1.480964    3.978557
      4          6           0        3.668464   -3.150592    3.001500
      5          6           0        5.093373   -2.429694   -1.439989
      6          7           0        4.220941    1.640988    1.476409
      7          6           0        4.445561    2.657026    0.649135
      8          6           0        4.367306    4.048965    1.344660
      9          6           0        4.681976    3.600283    2.841879
     10          6           0        4.189478    2.165442    2.774056
     11          6           0        6.170236    3.593488    3.175854
     12          6           0        2.945186    4.693460    1.226623
     13          6           0        2.869269    6.179630    1.588410
     14          1           0        1.955190    7.035096    0.846799
     15          7           0        3.303182   -0.764980    3.096855
     16          6           0        3.342831    0.167113    4.079157
     17          6           0        2.797874   -0.489874    5.286662
     18          6           0        2.615106   -1.934768    4.975258
     19          6           0        3.220631   -2.013920    3.670477
     20          6           0        2.463041    0.249623    6.545543
     21          6           0        2.002774   -3.066949    5.737719
     22          8           0        2.154777   -4.286114    5.384016
     23          6           0        1.284842   -2.713059    6.975612
     24          7           0        4.518411   -2.502775    0.936139
     25          6           0        4.245049   -3.453326    1.836533
     26          6           0        4.538180   -4.820432    1.293365
     27          6           0        4.842290   -4.622428   -0.261648
     28          6           0        4.745025   -3.078206   -0.326368
     29          6           0        5.707892   -5.565337    1.951317
     30          6           0        3.996087   -5.457064   -1.255500
     31          6           0        2.556051   -4.996816   -1.215940
     32          7           0        4.563161   -0.138809   -0.800662
     33          6           0        5.042326   -1.075938   -1.727412
     34          6           0        5.478334   -0.322533   -2.917516
     35          6           0        5.236318    1.010577   -2.591799
     36          6           0        4.708577    1.087206   -1.271228
     37          6           0        6.072317   -0.878891   -4.084599
     38          6           0        5.323776    2.389986   -3.042842
     39          8           0        5.605827    2.937206   -4.109842
     40          6           0        5.062321    3.342989   -1.794141
     41          6           0        4.069673    4.389688   -2.221203
     42          8           0        2.892252    4.080497   -2.495876
     43          8           0        4.590667    5.608332   -2.011405
     44          6           0        3.644882    6.693080   -2.386860
     45          1           0        4.042143    1.969447    4.935714
     46          1           0        3.507110   -4.088062    3.537739
     47          1           0        5.400934   -2.960473   -2.342836
     48          1           0        5.113530    4.768371    1.006978
     49          1           0        4.099073    4.167093    3.567601
     50          1           0        6.778268    3.774217    2.289538
     51          1           0        6.373096    2.601916    3.580976
     52          1           0        6.390012    4.296373    3.979862
     53          1           0        2.298191    4.280796    2.000682
     54          1           0        2.535848    4.544421    0.226845
     55          1           0        3.861298    6.629819    1.634431
     56          1           0        2.485858    6.264452    2.605269
     57          1           0        2.860050    1.263892    6.531869
     58          1           0        3.000928   -0.241709    7.356086
     59          1           0        1.393320    0.239721    6.755139
     60          1           0        1.969518   -2.207076    7.656603
     61          1           0        0.837911   -3.637803    7.338860
     62          1           0        0.502283   -1.992473    6.736222
     63          1           0        3.678532   -5.479416    1.408134
     64          1           0        5.872805   -4.875189   -0.512298
     65          1           0        5.432468   -6.536741    2.362682
     66          1           0        6.128192   -4.919379    2.721627
     67          1           0        6.571245   -5.722166    1.305219
     68          1           0        4.004662   -6.508637   -0.970778
     69          1           0        4.349593   -5.389166   -2.284420
     70          1           0        2.149098   -5.543294   -0.365891
     71          1           0        2.043405   -5.271612   -2.138378
     72          1           0        2.484054   -3.933886   -0.984677
     73          1           0        5.600754   -0.382923   -4.932899
     74          1           0        5.927805   -1.958231   -4.126359
     75          1           0        7.115493   -0.602885   -3.931428
     76          1           0        6.024500    3.777174   -1.524295
     77          1           0        4.157520    7.330882   -3.107029
     78          1           0        3.310783    7.149254   -1.454825
     79          1           0        2.770513    6.391634   -2.964743
     80         12           0       -3.642832   -0.745182   -1.244448
     81          6           0       -5.719590    1.475746    0.661752
     82          6           0       -2.794337    1.940283   -3.168740
     83          6           0       -2.163583   -2.747709   -3.211460
     84          6           0       -5.499384   -3.385596    0.069764
     85          7           0       -4.244338    1.381790   -1.164128
     86          6           0       -4.990689    2.122003   -0.358295
     87          6           0       -4.890994    3.650092   -0.612438
     88          6           0       -4.426968    3.608489   -2.149258
     89          6           0       -3.746305    2.241294   -2.162146
     90          6           0       -5.588925    3.572789   -3.127996
     91          6           0       -3.811439    4.337785    0.295119
     92          6           0       -3.874220    5.866510    0.323261
     93          1           0       -3.552971    6.553472    1.571194
     94          7           0       -2.258463   -0.401933   -2.624398
     95          6           0       -2.038849    0.753029   -3.287055
     96          6           0       -0.923974    0.482746   -4.208014
     97          6           0       -0.611875   -0.971306   -4.152749
     98          6           0       -1.703368   -1.443908   -3.324881
     99          6           0       -0.216433    1.565988   -4.969198
    100          6           0        0.480063   -1.801277   -4.756907
    101          8           0        0.421999   -3.081594   -4.773341
    102          6           0        1.574144   -1.069191   -5.411519
    103          7           0       -3.938410   -2.752619   -1.697423
    104          6           0       -3.120822   -3.396936   -2.548502
    105          6           0       -3.356032   -4.888031   -2.507388
    106          6           0       -4.338587   -5.134021   -1.269780
    107          6           0       -4.583073   -3.669167   -0.845736
    108          6           0       -3.963824   -5.500656   -3.768999
    109          6           0       -3.870326   -6.147743   -0.190079
    110          6           0       -2.669057   -5.599618    0.546056
    111          7           0       -5.183578   -0.969172    0.253541
    112          6           0       -5.841242   -2.161014    0.629154
    113          6           0       -6.889090   -1.791774    1.602864
    114          6           0       -6.782694   -0.396871    1.709644
    115          6           0       -5.755448    0.072502    0.847125
    116          6           0       -7.807732   -2.689219    2.216712
    117          6           0       -7.312909    0.786424    2.347920
    118          8           0       -8.135352    0.998772    3.237993
    119          6           0       -6.732892    2.065237    1.603211
    120          6           0       -6.240891    3.028250    2.648700
    121          8           0       -5.276154    2.733125    3.375882
    122          8           0       -6.846049    4.216993    2.472469
    123          6           0       -6.382413    5.208845    3.478996
    124          1           0       -2.639734    2.663834   -3.969656
    125          1           0       -1.611902   -3.494243   -3.787482
    126          1           0       -6.055452   -4.162202    0.599233
    127          1           0       -5.827099    4.187804   -0.521116
    128          1           0       -3.708141    4.394349   -2.366229
    129          1           0       -6.537275    3.461658   -2.623603
    130          1           0       -5.402815    2.725409   -3.774794
    131          1           0       -5.565366    4.455501   -3.773443
    132          1           0       -2.821465    4.198701   -0.158029
    133          1           0       -3.856166    3.955798    1.296481
    134          1           0       -4.813646    6.248233   -0.094734
    135          1           0       -3.104403    6.257811   -0.346279
    136          1           0       -0.773203    2.510598   -4.935730
    137          1           0       -0.233654    1.277848   -6.025858
    138          1           0        0.821555    1.692934   -4.654370
    139          1           0        1.168148   -0.447791   -6.206186
    140          1           0        2.301304   -1.829597   -5.702901
    141          1           0        2.026804   -0.389692   -4.680778
    142          1           0       -2.429589   -5.420975   -2.331900
    143          1           0       -5.310590   -5.533607   -1.594386
    144          1           0       -3.346111   -6.309691   -4.202537
    145          1           0       -4.117686   -4.710667   -4.492031
    146          1           0       -4.968288   -5.903044   -3.649205
    147          1           0       -3.547423   -7.079787   -0.660389
    148          1           0       -4.642469   -6.400471    0.528885
    149          1           0       -1.835594   -5.860521   -0.112993
    150          1           0       -2.566425   -6.075179    1.519375
    151          1           0       -2.710625   -4.505937    0.607762
    152          1           0       -7.860807   -2.413961    3.261657
    153          1           0       -7.495609   -3.724101    2.092748
    154          1           0       -8.712585   -2.462276    1.646608
    155          1           0       -7.539351    2.488930    1.003461
    156          1           0       -7.273943    5.588363    3.987754
    157          1           0       -5.772600    5.941444    2.917593
    158          1           0       -5.802219    4.839332    4.316416
 ---------------------------------------------------------------------
 Rotational constants (GHZ):           0.0221566           0.0150554           0.0138846
 Leave Link  202 at Wed Sep  8 16:08:03 2021, MaxMem= 23488102400 cpu:               0.2 elap:               0.0
 (Enter /sw/apps/gaussian-16.0/g16/l301.exe)
 Standard basis: def2SVP (5D, 7F)
 Ernie: Thresh=  0.10000D-02 Tol=  0.10000D-05 Strict=F.
 There are  1658 symmetry adapted cartesian basis functions of A   symmetry.
 There are  1572 symmetry adapted basis functions of A   symmetry.
  1572 basis functions,  2678 primitive gaussians,  1658 cartesian basis functions
   312 alpha electrons      312 beta electrons
       nuclear repulsion energy     15844.4911043021 Hartrees.
 IExCor=20419 DFT=T Ex+Corr=CAM-B3LYP ExCW=0 ScaHFX=  1.000000
 ScaDFX=  1.000000  1.000000  1.000000  0.810000 ScalE2=  1.000000  1.000000
 IRadAn=      5 IRanWt=     -1 IRanGd=            0 ICorTp=0 IEmpDi=  4
 HFx  wShort=  0.000000 wLong=  0.330000 cFull=  0.190000 cShort=  0.000000 cLong=  0.460000
 DFx  wShort=  0.000000 wLong=  0.330000 cFull=  0.190000 cShort=  0.000000 cLong=  0.460000
 NAtoms=  158 NActive=  158 NUniq=  158 SFac= 1.00D+00 NAtFMM=   60 NAOKFM=T Big=T
 Integral buffers will be    131072 words long.
 Raffenetti 1 integral format.
 Two-electron integral symmetry is turned on.
 Leave Link  301 at Wed Sep  8 16:08:03 2021, MaxMem= 23488102400 cpu:               1.3 elap:               0.1
 (Enter /sw/apps/gaussian-16.0/g16/l302.exe)
 NPDir=0 NMtPBC=     1 NCelOv=     1 NCel=       1 NClECP=     1 NCelD=      1
         NCelK=      1 NCelE2=     1 NClLst=     1 CellRange=     0.0.
 One-electron integrals computed using PRISM.
 One-electron integral symmetry used in STVInt
   1 Symmetry operations used in ECPInt.
 ECPInt:  NShTT=  271216 NPrTT=  987664 LenC2=  161324 LenP2D=  336689.
 LDataN:  DoStor=T MaxTD1= 4 Len=   56
 NBasis=  1572 RedAO= T EigKep=  3.34D-04  NBF=  1572
 NBsUse=  1572 1.00D-06 EigRej= -1.00D+00 NBFU=  1572
 Precomputing XC quadrature grid using
 IXCGrd= 4 IRadAn=           5 IRanWt=          -1 IRanGd=           0 AccXCQ= 0.00D+00.
 Generated NRdTot=       0 NPtTot=           0 NUsed=           0 NTot=          32
 NSgBfM=  1249  1235  1235  1235  1249 MxSgAt=   158 MxSgA2=   158.
 Leave Link  302 at Wed Sep  8 16:08:08 2021, MaxMem= 23488102400 cpu:             123.6 elap:               5.2
 (Enter /sw/apps/gaussian-16.0/g16/l303.exe)
 DipDrv:  MaxL=1.
 Leave Link  303 at Wed Sep  8 16:08:09 2021, MaxMem= 23488102400 cpu:               8.7 elap:               0.4
 (Enter /sw/apps/gaussian-16.0/g16/l308.exe)
 Leave Link  308 at Wed Sep  8 16:08:09 2021, MaxMem= 23488102400 cpu:              12.8 elap:               0.6
 (Enter /sw/apps/gaussian-16.0/g16/l401.exe)
 ExpMin= 3.36D-02 ExpMax= 4.95D+03 ExpMxC= 7.45D+02 IAcc=3 IRadAn=         5 AccDes= 0.00D+00
 Harris functional with IExCor=20419 and IRadAn=       5 diagonalized for initial guess.
 HarFok:  IExCor=20419 AccDes= 0.00D+00 IRadAn=         5 IDoV= 1 UseB2=F ITyADJ=14
 ICtDFT=  3500011 ScaDFX=  1.000000  1.000000  1.000000  1.000000
 FoFCou: FMM=F IPFlag=           0 FMFlag=      100000 FMFlg1=        2001
         NFxFlg=           0 DoJE=T BraDBF=F KetDBF=T FulRan=T
         wScrn=  0.000000 ICntrl=       500 IOpCl=  0 I1Cent=   200000004 NGrid=           0
         NMat0=    1 NMatS0=      1 NMatT0=    0 NMatD0=    1 NMtDS0=    0 NMtDT0=    0
 Petite list used in FoFCou.
 Harris En= -3918.65952112174    
 JPrj=0 DoOrth=F DoCkMO=F.
 Leave Link  401 at Wed Sep  8 16:08:17 2021, MaxMem= 23488102400 cpu:             189.0 elap:               7.9
 (Enter /sw/apps/gaussian-16.0/g16/l502.exe)
 Integral symmetry usage will be decided dynamically.
 Closed shell SCF:
 Using DIIS extrapolation, IDIIS=  1040.
 NGot= 23488102400 LenX= 23482547354 LenY= 23479796732
 Requested convergence on RMS density matrix=1.00D-08 within 128 cycles.
 Requested convergence on MAX density matrix=1.00D-06.
 Requested convergence on             energy=1.00D-06.
 No special actions if energy rises.
 Fock matrices will be formed incrementally for  20 cycles.

 Cycle   1  Pass 1  IDiag  1:
 FoFJK:  IHMeth= 1 ICntrl=       0 DoSepK=T KAlg= 0 I1Cent=           0 FoldK=F
 IRaf=         1 NMat=       1 IRICut=       1 DoRegI=T DoRafI=F ISym2E= 0 IDoP0=0 IntGTp=1.
 FoFCou: FMM=T IPFlag=           0 FMFlag=      100000 FMFlg1=        2001
         NFxFlg=           0 DoJE=T BraDBF=F KetDBF=F FulRan=T
         wScrn=  0.000000 ICntrl=       500 IOpCl=  0 I1Cent=           0 NGrid=           0
         NMat0=    1 NMatS0=      1 NMatT0=    0 NMatD0=    1 NMtDS0=    0 NMtDT0=    0
 Symmetry not used in FoFCou.
 FMM levels:  10  Number of levels for PrismC:   9
 E= -4068.95342870167    
 DIIS: error= 2.02D-02 at cycle   1 NSaved=   1.
 NSaved= 1 IEnMin= 1 EnMin= -4068.95342870167     IErMin= 1 ErrMin= 2.02D-02
 ErrMax= 2.02D-02  0.00D+00 EMaxC= 1.00D-01 BMatC= 1.69D+00 BMatP= 1.69D+00
 IDIUse=3 WtCom= 7.98D-01 WtEn= 2.02D-01
 Coeff-Com:  0.100D+01
 Coeff-En:   0.100D+01
 Coeff:      0.100D+01
 Gap=     0.121 Goal=   None    Shift=    0.000
 GapD=    0.121 DampG=1.000 DampE=0.500 DampFc=0.5000 IDamp=-1.
 Damping current iteration by 5.00D-01
 RMSDP=1.57D-03 MaxDP=1.36D-01              OVMax= 1.94D-01

 Cycle   2  Pass 1  IDiag  1:
 RMSU=  7.71D-04    CP:  9.82D-01
 E= -4069.34191396706     Delta-E=       -0.388485265390 Rises=F Damp=T
 DIIS: error= 1.25D-02 at cycle   2 NSaved=   2.
 NSaved= 2 IEnMin= 2 EnMin= -4069.34191396706     IErMin= 2 ErrMin= 1.25D-02
 ErrMax= 1.25D-02  0.00D+00 EMaxC= 1.00D-01 BMatC= 3.06D-01 BMatP= 1.69D+00
 IDIUse=3 WtCom= 8.75D-01 WtEn= 1.25D-01
 Coeff-Com: -0.213D+00 0.121D+01
 Coeff-En:   0.000D+00 0.100D+01
 Coeff:     -0.186D+00 0.119D+01
 Gap=     0.133 Goal=   None    Shift=    0.000
 RMSDP=7.66D-04 MaxDP=9.39D-02 DE=-3.88D-01 OVMax= 1.91D-01

 Cycle   3  Pass 1  IDiag  1:
 RMSU=  7.33D-04    CP:  9.68D-01  1.24D+00
 E= -4069.63124629860     Delta-E=       -0.289332331537 Rises=F Damp=F
 DIIS: error= 1.52D-02 at cycle   3 NSaved=   3.
 NSaved= 3 IEnMin= 3 EnMin= -4069.63124629860     IErMin= 2 ErrMin= 1.25D-02
 ErrMax= 1.52D-02  0.00D+00 EMaxC= 1.00D-01 BMatC= 2.01D-01 BMatP= 3.06D-01
 IDIUse=3 WtCom= 8.48D-01 WtEn= 1.52D-01
 Coeff-Com: -0.267D+00 0.651D+00 0.616D+00
 Coeff-En:   0.000D+00 0.000D+00 0.100D+01
 Coeff:     -0.227D+00 0.552D+00 0.675D+00
 Gap=     0.121 Goal=   None    Shift=    0.000
 RMSDP=5.07D-04 MaxDP=4.98D-02 DE=-2.89D-01 OVMax= 1.40D-01

 Cycle   4  Pass 1  IDiag  1:
 RMSU=  2.64D-04    CP:  9.65D-01  1.54D+00  5.07D-01
 E= -4069.76978209558     Delta-E=       -0.138535796985 Rises=F Damp=F
 DIIS: error= 6.82D-03 at cycle   4 NSaved=   4.
 NSaved= 4 IEnMin= 4 EnMin= -4069.76978209558     IErMin= 4 ErrMin= 6.82D-03
 ErrMax= 6.82D-03  0.00D+00 EMaxC= 1.00D-01 BMatC= 4.87D-02 BMatP= 2.01D-01
 IDIUse=3 WtCom= 9.32D-01 WtEn= 6.82D-02
 Coeff-Com: -0.109D+00 0.226D+00 0.406D+00 0.477D+00
 Coeff-En:   0.000D+00 0.000D+00 0.214D+00 0.786D+00
 Coeff:     -0.102D+00 0.211D+00 0.393D+00 0.498D+00
 Gap=     0.120 Goal=   None    Shift=    0.000
 RMSDP=1.96D-04 MaxDP=1.92D-02 DE=-1.39D-01 OVMax= 6.13D-02

 Cycle   5  Pass 1  IDiag  1:
 RMSU=  7.42D-05    CP:  9.64D-01  1.49D+00  6.87D-01  5.56D-01
 E= -4069.81392945933     Delta-E=       -0.044147363744 Rises=F Damp=F
 DIIS: error= 7.21D-04 at cycle   5 NSaved=   5.
 NSaved= 5 IEnMin= 5 EnMin= -4069.81392945933     IErMin= 5 ErrMin= 7.21D-04
 ErrMax= 7.21D-04  0.00D+00 EMaxC= 1.00D-01 BMatC= 1.06D-03 BMatP= 4.87D-02
 IDIUse=3 WtCom= 9.93D-01 WtEn= 7.21D-03
 Coeff-Com: -0.352D-01 0.690D-01 0.161D+00 0.244D+00 0.561D+00
 Coeff-En:   0.000D+00 0.000D+00 0.000D+00 0.000D+00 0.100D+01
 Coeff:     -0.350D-01 0.685D-01 0.159D+00 0.243D+00 0.564D+00
 Gap=     0.119 Goal=   None    Shift=    0.000
 RMSDP=3.90D-05 MaxDP=4.09D-03 DE=-4.41D-02 OVMax= 1.60D-02

 Cycle   6  Pass 1  IDiag  1:
 RMSU=  2.94D-05    CP:  9.64D-01  1.50D+00  6.80D-01  6.23D-01  7.68D-01
 E= -4069.81483570142     Delta-E=       -0.000906242094 Rises=F Damp=F
 DIIS: error= 2.25D-04 at cycle   6 NSaved=   6.
 NSaved= 6 IEnMin= 6 EnMin= -4069.81483570142     IErMin= 6 ErrMin= 2.25D-04
 ErrMax= 2.25D-04  0.00D+00 EMaxC= 1.00D-01 BMatC= 1.68D-04 BMatP= 1.06D-03
 IDIUse=3 WtCom= 9.98D-01 WtEn= 2.25D-03
 Coeff-Com:  0.230D-02-0.670D-02 0.989D-02 0.377D-01 0.310D+00 0.647D+00
 Coeff-En:   0.000D+00 0.000D+00 0.000D+00 0.000D+00 0.110D+00 0.890D+00
 Coeff:      0.229D-02-0.669D-02 0.987D-02 0.376D-01 0.310D+00 0.647D+00
 Gap=     0.120 Goal=   None    Shift=    0.000
 RMSDP=1.56D-05 MaxDP=1.18D-03 DE=-9.06D-04 OVMax= 8.20D-03

 Cycle   7  Pass 1  IDiag  1:
 RMSU=  1.06D-05    CP:  9.64D-01  1.50D+00  6.86D-01  6.23D-01  8.68D-01
                    CP:  7.46D-01
 E= -4069.81501529304     Delta-E=       -0.000179591621 Rises=F Damp=F
 DIIS: error= 7.71D-05 at cycle   7 NSaved=   7.
 NSaved= 7 IEnMin= 7 EnMin= -4069.81501529304     IErMin= 7 ErrMin= 7.71D-05
 ErrMax= 7.71D-05  0.00D+00 EMaxC= 1.00D-01 BMatC= 2.05D-05 BMatP= 1.68D-04
 IDIUse=1 WtCom= 1.00D+00 WtEn= 0.00D+00
 Coeff-Com:  0.438D-02-0.960D-02-0.887D-02-0.386D-02 0.105D+00 0.335D+00
 Coeff-Com:  0.578D+00
 Coeff:      0.438D-02-0.960D-02-0.887D-02-0.386D-02 0.105D+00 0.335D+00
 Coeff:      0.578D+00
 Gap=     0.120 Goal=   None    Shift=    0.000
 RMSDP=6.29D-06 MaxDP=1.07D-03 DE=-1.80D-04 OVMax= 3.40D-03

 Cycle   8  Pass 1  IDiag  1:
 RMSU=  4.56D-06    CP:  9.64D-01  1.50D+00  6.87D-01  6.27D-01  8.74D-01
                    CP:  8.65D-01  8.00D-01
 E= -4069.81503990410     Delta-E=       -0.000024611061 Rises=F Damp=F
 DIIS: error= 4.35D-05 at cycle   8 NSaved=   8.
 NSaved= 8 IEnMin= 8 EnMin= -4069.81503990410     IErMin= 8 ErrMin= 4.35D-05
 ErrMax= 4.35D-05  0.00D+00 EMaxC= 1.00D-01 BMatC= 4.39D-06 BMatP= 2.05D-05
 IDIUse=1 WtCom= 1.00D+00 WtEn= 0.00D+00
 Coeff-Com:  0.216D-02-0.429D-02-0.768D-02-0.119D-01-0.117D-01 0.422D-01
 Coeff-Com:  0.337D+00 0.654D+00
 Coeff:      0.216D-02-0.429D-02-0.768D-02-0.119D-01-0.117D-01 0.422D-01
 Coeff:      0.337D+00 0.654D+00
 Gap=     0.120 Goal=   None    Shift=    0.000
 RMSDP=3.32D-06 MaxDP=5.61D-04 DE=-2.46D-05 OVMax= 1.51D-03

 Cycle   9  Pass 1  IDiag  1:
 RMSU=  1.94D-06    CP:  9.64D-01  1.50D+00  6.87D-01  6.28D-01  8.90D-01
                    CP:  8.91D-01  1.00D+00  8.89D-01
 E= -4069.81504669968     Delta-E=       -0.000006795581 Rises=F Damp=F
 DIIS: error= 1.75D-05 at cycle   9 NSaved=   9.
 NSaved= 9 IEnMin= 9 EnMin= -4069.81504669968     IErMin= 9 ErrMin= 1.75D-05
 ErrMax= 1.75D-05  0.00D+00 EMaxC= 1.00D-01 BMatC= 7.38D-07 BMatP= 4.39D-06
 IDIUse=1 WtCom= 1.00D+00 WtEn= 0.00D+00
 Coeff-Com:  0.542D-03-0.931D-03-0.290D-02-0.620D-02-0.227D-01-0.316D-01
 Coeff-Com:  0.106D+00 0.359D+00 0.599D+00
 Coeff:      0.542D-03-0.931D-03-0.290D-02-0.620D-02-0.227D-01-0.316D-01
 Coeff:      0.106D+00 0.359D+00 0.599D+00
 Gap=     0.120 Goal=   None    Shift=    0.000
 RMSDP=1.30D-06 MaxDP=1.28D-04 DE=-6.80D-06 OVMax= 6.57D-04

 Cycle  10  Pass 1  IDiag  1:
 RMSU=  9.10D-07    CP:  9.64D-01  1.50D+00  6.87D-01  6.29D-01  8.93D-01
                    CP:  9.02D-01  1.04D+00  1.05D+00  9.51D-01
 E= -4069.81504810842     Delta-E=       -0.000001408738 Rises=F Damp=F
 DIIS: error= 7.48D-06 at cycle  10 NSaved=  10.
 NSaved=10 IEnMin=10 EnMin= -4069.81504810842     IErMin=10 ErrMin= 7.48D-06
 ErrMax= 7.48D-06  0.00D+00 EMaxC= 1.00D-01 BMatC= 1.22D-07 BMatP= 7.38D-07
 IDIUse=1 WtCom= 1.00D+00 WtEn= 0.00D+00
 Coeff-Com: -0.338D-03 0.722D-03 0.860D-03 0.587D-03-0.568D-02-0.283D-01
 Coeff-Com: -0.398D-01-0.282D-01 0.231D+00 0.869D+00
 Coeff:     -0.338D-03 0.722D-03 0.860D-03 0.587D-03-0.568D-02-0.283D-01
 Coeff:     -0.398D-01-0.282D-01 0.231D+00 0.869D+00
 Gap=     0.120 Goal=   None    Shift=    0.000
 RMSDP=1.04D-06 MaxDP=1.48D-04 DE=-1.41D-06 OVMax= 5.67D-04

 Cycle  11  Pass 1  IDiag  1:
 RMSU=  5.17D-07    CP:  9.64D-01  1.50D+00  6.87D-01  6.29D-01  8.96D-01
                    CP:  9.11D-01  1.08D+00  1.13D+00  1.24D+00  1.24D+00
 E= -4069.81504865133     Delta-E=       -0.000000542906 Rises=F Damp=F
 DIIS: error= 3.95D-06 at cycle  11 NSaved=  11.
 NSaved=11 IEnMin=11 EnMin= -4069.81504865133     IErMin=11 ErrMin= 3.95D-06
 ErrMax= 3.95D-06  0.00D+00 EMaxC= 1.00D-01 BMatC= 6.00D-08 BMatP= 1.22D-07
 IDIUse=1 WtCom= 1.00D+00 WtEn= 0.00D+00
 Coeff-Com: -0.333D-03 0.655D-03 0.125D-02 0.194D-02 0.280D-02-0.105D-01
 Coeff-Com: -0.477D-01-0.110D+00-0.221D-01 0.533D+00 0.652D+00
 Coeff:     -0.333D-03 0.655D-03 0.125D-02 0.194D-02 0.280D-02-0.105D-01
 Coeff:     -0.477D-01-0.110D+00-0.221D-01 0.533D+00 0.652D+00
 Gap=     0.120 Goal=   None    Shift=    0.000
 RMSDP=5.70D-07 MaxDP=4.70D-05 DE=-5.43D-07 OVMax= 3.01D-04

 Cycle  12  Pass 1  IDiag  1:
 RMSU=  2.52D-07    CP:  9.64D-01  1.50D+00  6.87D-01  6.29D-01  8.97D-01
                    CP:  9.13D-01  1.10D+00  1.18D+00  1.35D+00  1.59D+00
                    CP:  1.05D+00
 E= -4069.81504884588     Delta-E=       -0.000000194548 Rises=F Damp=F
 DIIS: error= 3.24D-06 at cycle  12 NSaved=  12.
 NSaved=12 IEnMin=12 EnMin= -4069.81504884588     IErMin=12 ErrMin= 3.24D-06
 ErrMax= 3.24D-06  0.00D+00 EMaxC= 1.00D-01 BMatC= 1.08D-08 BMatP= 6.00D-08
 IDIUse=1 WtCom= 1.00D+00 WtEn= 0.00D+00
 Coeff-Com: -0.626D-04 0.110D-03 0.374D-03 0.790D-03 0.315D-02 0.165D-02
 Coeff-Com: -0.852D-02-0.447D-01-0.714D-01 0.552D-01 0.268D+00 0.796D+00
 Coeff:     -0.626D-04 0.110D-03 0.374D-03 0.790D-03 0.315D-02 0.165D-02
 Coeff:     -0.852D-02-0.447D-01-0.714D-01 0.552D-01 0.268D+00 0.796D+00
 Gap=     0.120 Goal=   None    Shift=    0.000
 RMSDP=3.26D-07 MaxDP=2.24D-05 DE=-1.95D-07 OVMax= 2.04D-04

 Cycle  13  Pass 1  IDiag  1:
 RMSU=  1.50D-07    CP:  9.64D-01  1.50D+00  6.87D-01  6.29D-01  8.97D-01
                    CP:  9.13D-01  1.11D+00  1.20D+00  1.43D+00  1.74D+00
                    CP:  1.38D+00  1.15D+00
 E= -4069.81504890511     Delta-E=       -0.000000059237 Rises=F Damp=F
 DIIS: error= 2.13D-06 at cycle  13 NSaved=  13.
 NSaved=13 IEnMin=13 EnMin= -4069.81504890511     IErMin=13 ErrMin= 2.13D-06
 ErrMax= 2.13D-06  0.00D+00 EMaxC= 1.00D-01 BMatC= 6.92D-09 BMatP= 1.08D-08
 IDIUse=1 WtCom= 1.00D+00 WtEn= 0.00D+00
 Coeff-Com:  0.100D-03-0.206D-03-0.289D-03-0.319D-03 0.758D-03 0.480D-02
 Coeff-Com:  0.162D-01 0.184D-01-0.394D-01-0.196D+00-0.174D+00 0.539D+00
 Coeff-Com:  0.831D+00
 Coeff:      0.100D-03-0.206D-03-0.289D-03-0.319D-03 0.758D-03 0.480D-02
 Coeff:      0.162D-01 0.184D-01-0.394D-01-0.196D+00-0.174D+00 0.539D+00
 Coeff:      0.831D+00
 Gap=     0.120 Goal=   None    Shift=    0.000
 RMSDP=2.86D-07 MaxDP=1.77D-05 DE=-5.92D-08 OVMax= 1.53D-04

 Cycle  14  Pass 1  IDiag  1:
 RMSU=  7.07D-08    CP:  9.64D-01  1.50D+00  6.87D-01  6.29D-01  8.97D-01
                    CP:  9.13D-01  1.11D+00  1.22D+00  1.48D+00  1.92D+00
                    CP:  1.59D+00  1.66D+00  1.18D+00
 E= -4069.81504893524     Delta-E=       -0.000000030126 Rises=F Damp=F
 DIIS: error= 9.37D-07 at cycle  14 NSaved=  14.
 NSaved=14 IEnMin=14 EnMin= -4069.81504893524     IErMin=14 ErrMin= 9.37D-07
 ErrMax= 9.37D-07  0.00D+00 EMaxC= 1.00D-01 BMatC= 8.44D-10 BMatP= 6.92D-09
 IDIUse=1 WtCom= 1.00D+00 WtEn= 0.00D+00
 Coeff-Com:  0.675D-04-0.134D-03-0.240D-03-0.361D-03-0.397D-03 0.171D-02
 Coeff-Com:  0.106D-01 0.198D-01-0.246D-02-0.991D-01-0.160D+00 0.915D-01
 Coeff-Com:  0.374D+00 0.765D+00
 Coeff:      0.675D-04-0.134D-03-0.240D-03-0.361D-03-0.397D-03 0.171D-02
 Coeff:      0.106D-01 0.198D-01-0.246D-02-0.991D-01-0.160D+00 0.915D-01
 Coeff:      0.374D+00 0.765D+00
 Gap=     0.120 Goal=   None    Shift=    0.000
 RMSDP=1.02D-07 MaxDP=6.16D-06 DE=-3.01D-08 OVMax= 5.55D-05

 Cycle  15  Pass 1  IDiag  1:
 RMSU=  3.22D-08    CP:  9.64D-01  1.50D+00  6.87D-01  6.29D-01  8.97D-01
                    CP:  9.13D-01  1.11D+00  1.22D+00  1.50D+00  1.97D+00
                    CP:  1.69D+00  1.84D+00  1.41D+00  1.08D+00
 E= -4069.81504893877     Delta-E=       -0.000000003532 Rises=F Damp=F
 DIIS: error= 3.67D-07 at cycle  15 NSaved=  15.
 NSaved=15 IEnMin=15 EnMin= -4069.81504893877     IErMin=15 ErrMin= 3.67D-07
 ErrMax= 3.67D-07  0.00D+00 EMaxC= 1.00D-01 BMatC= 1.86D-10 BMatP= 8.44D-10
 IDIUse=1 WtCom= 1.00D+00 WtEn= 0.00D+00
 Coeff-Com:  0.133D-04-0.249D-04-0.577D-04-0.111D-03-0.329D-03-0.173D-03
 Coeff-Com:  0.206D-02 0.551D-02 0.529D-02-0.675D-02-0.454D-01-0.446D-01
 Coeff-Com:  0.118D-01 0.360D+00 0.713D+00
 Coeff:      0.133D-04-0.249D-04-0.577D-04-0.111D-03-0.329D-03-0.173D-03
 Coeff:      0.206D-02 0.551D-02 0.529D-02-0.675D-02-0.454D-01-0.446D-01
 Coeff:      0.118D-01 0.360D+00 0.713D+00
 Gap=     0.120 Goal=   None    Shift=    0.000
 RMSDP=3.17D-08 MaxDP=2.67D-06 DE=-3.53D-09 OVMax= 1.61D-05

 Cycle  16  Pass 1  IDiag  1:
 RMSU=  1.50D-08    CP:  9.64D-01  1.50D+00  6.87D-01  6.29D-01  8.97D-01
                    CP:  9.13D-01  1.11D+00  1.22D+00  1.50D+00  1.98D+00
                    CP:  1.71D+00  1.89D+00  1.49D+00  1.25D+00  1.10D+00
 E= -4069.81504893946     Delta-E=       -0.000000000684 Rises=F Damp=F
 DIIS: error= 1.46D-07 at cycle  16 NSaved=  16.
 NSaved=16 IEnMin=16 EnMin= -4069.81504893946     IErMin=16 ErrMin= 1.46D-07
 ErrMax= 1.46D-07  0.00D+00 EMaxC= 1.00D-01 BMatC= 4.49D-11 BMatP= 1.86D-10
 IDIUse=1 WtCom= 1.00D+00 WtEn= 0.00D+00
 Coeff-Com: -0.883D-05 0.182D-04 0.275D-04 0.265D-04-0.746D-04-0.486D-03
 Coeff-Com: -0.137D-02-0.207D-02 0.270D-02 0.199D-01 0.109D-01-0.383D-01
 Coeff-Com: -0.880D-01 0.902D-02 0.338D+00 0.749D+00
 Coeff:     -0.883D-05 0.182D-04 0.275D-04 0.265D-04-0.746D-04-0.486D-03
 Coeff:     -0.137D-02-0.207D-02 0.270D-02 0.199D-01 0.109D-01-0.383D-01
 Coeff:     -0.880D-01 0.902D-02 0.338D+00 0.749D+00
 Gap=     0.120 Goal=   None    Shift=    0.000
 RMSDP=1.76D-08 MaxDP=9.46D-07 DE=-6.84D-10 OVMax= 1.15D-05

 Cycle  17  Pass 1  IDiag  1:
 RMSU=  8.54D-09    CP:  9.64D-01  1.50D+00  6.87D-01  6.29D-01  8.97D-01
                    CP:  9.13D-01  1.11D+00  1.23D+00  1.50D+00  1.99D+00
                    CP:  1.72D+00  1.91D+00  1.52D+00  1.32D+00  1.32D+00
                    CP:  1.16D+00
 E= -4069.81504893984     Delta-E=       -0.000000000382 Rises=F Damp=F
 DIIS: error= 7.10D-08 at cycle  17 NSaved=  17.
 NSaved=17 IEnMin=17 EnMin= -4069.81504893984     IErMin=17 ErrMin= 7.10D-08
 ErrMax= 7.10D-08  0.00D+00 EMaxC= 1.00D-01 BMatC= 1.14D-11 BMatP= 4.49D-11
 IDIUse=1 WtCom= 1.00D+00 WtEn= 0.00D+00
 Coeff-Com: -0.669D-05 0.132D-04 0.251D-04 0.346D-04 0.391D-04-0.181D-03
 Coeff-Com: -0.101D-02-0.216D-02 0.450D-04 0.112D-01 0.133D-01-0.408D-02
 Coeff-Com: -0.457D-01-0.685D-01-0.145D-01 0.346D+00 0.765D+00
 Coeff:     -0.669D-05 0.132D-04 0.251D-04 0.346D-04 0.391D-04-0.181D-03
 Coeff:     -0.101D-02-0.216D-02 0.450D-04 0.112D-01 0.133D-01-0.408D-02
 Coeff:     -0.457D-01-0.685D-01-0.145D-01 0.346D+00 0.765D+00
 Gap=     0.120 Goal=   None    Shift=    0.000
 RMSDP=8.84D-09 MaxDP=4.74D-07 DE=-3.82D-10 OVMax= 5.56D-06

 SCF Done:  E(RCAM-B3LYP) =  -4069.81504894     A.U. after   17 cycles
            NFock= 17  Conv=0.88D-08     -V/T= 2.0102
 KE= 4.028792161538D+03 PE=-4.117062209929D+04 EE= 1.722752378450D+04
 Leave Link  502 at Wed Sep  8 16:18:52 2021, MaxMem= 23488102400 cpu:           14683.3 elap:             635.3
 (Enter /sw/apps/gaussian-16.0/g16/l801.exe)
 DoSCS=F DFT=T ScalE2(SS,OS)=  1.000000  1.000000
 ExpMin= 3.36D-02 ExpMax= 4.95D+03 ExpMxC= 7.45D+02 IAcc=3 IRadAn=         5 AccDes= 0.00D+00
 HarFok:  IExCor=  205 AccDes= 0.00D+00 IRadAn=         5 IDoV=-2 UseB2=F ITyADJ=14
 ICtDFT= 12500011 ScaDFX=  1.000000  1.000000  1.000000  1.000000
 GSVD:  LWork=       -9588 too small for GESVD, short by       45590 words or       45590 for optimal perf.
 Largest valence mixing into a core orbital is  2.03D-04
 Largest core mixing into a valence orbital is  5.22D-05
 Range of M.O.s used for correlation:    95  1572
 NBasis=  1572 NAE=   312 NBE=   312 NFC=    94 NFV=     0
 NROrb=   1478 NOA=   218 NOB=   218 NVA=  1260 NVB=  1260
 Leave Link  801 at Wed Sep  8 16:18:53 2021, MaxMem= 23488102400 cpu:               7.7 elap:               0.3
 (Enter /sw/apps/gaussian-16.0/g16/l914.exe)
 RHF ground state
 Two-electron integrals replicated using symmetry.
 MDV= 23488102400 DFT=T DoStab=F Mixed=T DoRPA=T DoScal=F NonHer=T
 Making orbital integer symmetry assigments:
 Orbital symmetries:
       Occupied  (A) (A) (A) (A) (A) (A) (A) (A) (A) (A) (A) (A)
                 (A) (A) (A) (A) (A) (A) (A) (A) (A) (A) (A) (A)
                 (A) (A) (A) (A) (A) (A) (A) (A) (A) (A) (A) (A)
                 (A) (A) (A) (A) (A) (A) (A) (A) (A) (A) (A) (A)
                 (A) (A) (A) (A) (A) (A) (A) (A) (A) (A) (A) (A)
                 (A) (A) (A) (A) (A) (A) (A) (A) (A) (A) (A) (A)
                 (A) (A) (A) (A) (A) (A) (A) (A) (A) (A) (A) (A)
                 (A) (A) (A) (A) (A) (A) (A) (A) (A) (A) (A) (A)
                 (A) (A) (A) (A) (A) (A) (A) (A) (A) (A) (A) (A)
                 (A) (A) (A) (A) (A) (A) (A) (A) (A) (A) (A) (A)
                 (A) (A) (A) (A) (A) (A) (A) (A) (A) (A) (A) (A)
                 (A) (A) (A) (A) (A) (A) (A) (A) (A) (A) (A) (A)
                 (A) (A) (A) (A) (A) (A) (A) (A) (A) (A) (A) (A)
                 (A) (A) (A) (A) (A) (A) (A) (A) (A) (A) (A) (A)
                 (A) (A) (A) (A) (A) (A) (A) (A) (A) (A) (A) (A)
                 (A) (A) (A) (A) (A) (A) (A) (A) (A) (A) (A) (A)
                 (A) (A) (A) (A) (A) (A) (A) (A) (A) (A) (A) (A)
                 (A) (A) (A) (A) (A) (A) (A) (A) (A) (A) (A) (A)
                 (A) (A) (A) (A) (A) (A) (A) (A) (A) (A) (A) (A)
                 (A) (A) (A) (A) (A) (A) (A) (A) (A) (A) (A) (A)
                 (A) (A) (A) (A) (A) (A) (A) (A) (A) (A) (A) (A)
                 (A) (A) (A) (A) (A) (A) (A) (A) (A) (A) (A) (A)
                 (A) (A) (A) (A) (A) (A) (A) (A) (A) (A) (A) (A)
                 (A) (A) (A) (A) (A) (A) (A) (A) (A) (A) (A) (A)
                 (A) (A) (A) (A) (A) (A) (A) (A) (A) (A) (A) (A)
                 (A) (A) (A) (A) (A) (A) (A) (A) (A) (A) (A) (A)
       Virtual   (A) (A) (A) (A) (A) (A) (A) (A) (A) (A) (A) (A)
                 (A) (A) (A) (A) (A) (A) (A) (A) (A) (A) (A) (A)
                 (A) (A) (A) (A) (A) (A) (A) (A) (A) (A) (A) (A)
                 (A) (A) (A) (A) (A) (A) (A) (A) (A) (A) (A) (A)
                 (A) (A) (A) (A) (A) (A) (A) (A) (A) (A) (A) (A)
                 (A) (A) (A) (A) (A) (A) (A) (A) (A) (A) (A) (A)
                 (A) (A) (A) (A) (A) (A) (A) (A) (A) (A) (A) (A)
                 (A) (A) (A) (A) (A) (A) (A) (A) (A) (A) (A) (A)
                 (A) (A) (A) (A) (A) (A) (A) (A) (A) (A) (A) (A)
                 (A) (A) (A) (A) (A) (A) (A) (A) (A) (A) (A) (A)
                 (A) (A) (A) (A) (A) (A) (A) (A) (A) (A) (A) (A)
                 (A) (A) (A) (A) (A) (A) (A) (A) (A) (A) (A) (A)
                 (A) (A) (A) (A) (A) (A) (A) (A) (A) (A) (A) (A)
                 (A) (A) (A) (A) (A) (A) (A) (A) (A) (A) (A) (A)
                 (A) (A) (A) (A) (A) (A) (A) (A) (A) (A) (A) (A)
                 (A) (A) (A) (A) (A) (A) (A) (A) (A) (A) (A) (A)
                 (A) (A) (A) (A) (A) (A) (A) (A) (A) (A) (A) (A)
                 (A) (A) (A) (A) (A) (A) (A) (A) (A) (A) (A) (A)
                 (A) (A) (A) (A) (A) (A) (A) (A) (A) (A) (A) (A)
                 (A) (A) (A) (A) (A) (A) (A) (A) (A) (A) (A) (A)
                 (A) (A) (A) (A) (A) (A) (A) (A) (A) (A) (A) (A)
                 (A) (A) (A) (A) (A) (A) (A) (A) (A) (A) (A) (A)
                 (A) (A) (A) (A) (A) (A) (A) (A) (A) (A) (A) (A)
                 (A) (A) (A) (A) (A) (A) (A) (A) (A) (A) (A) (A)
                 (A) (A) (A) (A) (A) (A) (A) (A) (A) (A) (A) (A)
                 (A) (A) (A) (A) (A) (A) (A) (A) (A) (A) (A) (A)
                 (A) (A) (A) (A) (A) (A) (A) (A) (A) (A) (A) (A)
                 (A) (A) (A) (A) (A) (A) (A) (A) (A) (A) (A) (A)
                 (A) (A) (A) (A) (A) (A) (A) (A) (A) (A) (A) (A)
                 (A) (A) (A) (A) (A) (A) (A) (A) (A) (A) (A) (A)
                 (A) (A) (A) (A) (A) (A) (A) (A) (A) (A) (A) (A)
                 (A) (A) (A) (A) (A) (A) (A) (A) (A) (A) (A) (A)
                 (A) (A) (A) (A) (A) (A) (A) (A) (A) (A) (A) (A)
                 (A) (A) (A) (A) (A) (A) (A) (A) (A) (A) (A) (A)
                 (A) (A) (A) (A) (A) (A) (A) (A) (A) (A) (A) (A)
                 (A) (A) (A) (A) (A) (A) (A) (A) (A) (A) (A) (A)
                 (A) (A) (A) (A) (A) (A) (A) (A) (A) (A) (A) (A)
                 (A) (A) (A) (A) (A) (A) (A) (A) (A) (A) (A) (A)
                 (A) (A) (A) (A) (A) (A) (A) (A) (A) (A) (A) (A)
                 (A) (A) (A) (A) (A) (A) (A) (A) (A) (A) (A) (A)
                 (A) (A) (A) (A) (A) (A) (A) (A) (A) (A) (A) (A)
                 (A) (A) (A) (A) (A) (A) (A) (A) (A) (A) (A) (A)
                 (A) (A) (A) (A) (A) (A) (A) (A) (A) (A) (A) (A)
                 (A) (A) (A) (A) (A) (A) (A) (A) (A) (A) (A) (A)
                 (A) (A) (A) (A) (A) (A) (A) (A) (A) (A) (A) (A)
                 (A) (A) (A) (A) (A) (A) (A) (A) (A) (A) (A) (A)
                 (A) (A) (A) (A) (A) (A) (A) (A) (A) (A) (A) (A)
                 (A) (A) (A) (A) (A) (A) (A) (A) (A) (A) (A) (A)
                 (A) (A) (A) (A) (A) (A) (A) (A) (A) (A) (A) (A)
                 (A) (A) (A) (A) (A) (A) (A) (A) (A) (A) (A) (A)
                 (A) (A) (A) (A) (A) (A) (A) (A) (A) (A) (A) (A)
                 (A) (A) (A) (A) (A) (A) (A) (A) (A) (A) (A) (A)
                 (A) (A) (A) (A) (A) (A) (A) (A) (A) (A) (A) (A)
                 (A) (A) (A) (A) (A) (A) (A) (A) (A) (A) (A) (A)
                 (A) (A) (A) (A) (A) (A) (A) (A) (A) (A) (A) (A)
                 (A) (A) (A) (A) (A) (A) (A) (A) (A) (A) (A) (A)
                 (A) (A) (A) (A) (A) (A) (A) (A) (A) (A) (A) (A)
                 (A) (A) (A) (A) (A) (A) (A) (A) (A) (A) (A) (A)
                 (A) (A) (A) (A) (A) (A) (A) (A) (A) (A) (A) (A)
                 (A) (A) (A) (A) (A) (A) (A) (A) (A) (A) (A) (A)
                 (A) (A) (A) (A) (A) (A) (A) (A) (A) (A) (A) (A)
                 (A) (A) (A) (A) (A) (A) (A) (A) (A) (A) (A) (A)
                 (A) (A) (A) (A) (A) (A) (A) (A) (A) (A) (A) (A)
                 (A) (A) (A) (A) (A) (A) (A) (A) (A) (A) (A) (A)
                 (A) (A) (A) (A) (A) (A) (A) (A) (A) (A) (A) (A)
                 (A) (A) (A) (A) (A) (A) (A) (A) (A) (A) (A) (A)
                 (A) (A) (A) (A) (A) (A) (A) (A) (A) (A) (A) (A)
                 (A) (A) (A) (A) (A) (A) (A) (A) (A) (A) (A) (A)
                 (A) (A) (A) (A) (A) (A) (A) (A) (A) (A) (A) (A)
                 (A) (A) (A) (A) (A) (A) (A) (A) (A) (A) (A) (A)
                 (A) (A) (A) (A) (A) (A) (A) (A) (A) (A) (A) (A)
                 (A) (A) (A) (A) (A) (A) (A) (A) (A) (A) (A) (A)
                 (A) (A) (A) (A) (A) (A) (A) (A) (A) (A) (A) (A)
                 (A) (A) (A) (A) (A) (A) (A) (A) (A) (A) (A) (A)
                 (A) (A) (A) (A) (A) (A) (A) (A) (A) (A) (A) (A)
                 (A) (A) (A) (A) (A) (A) (A) (A) (A) (A) (A) (A)
                 (A) (A) (A) (A) (A) (A) (A) (A) (A) (A) (A) (A)
                 (A) (A) (A) (A) (A) (A) (A) (A) (A) (A) (A) (A)
                 (A) (A) (A) (A) (A) (A) (A) (A) (A) (A) (A) (A)
                 (A) (A) (A) (A) (A) (A) (A) (A) (A) (A) (A) (A)
                 (A) (A) (A) (A) (A) (A) (A) (A) (A) (A) (A) (A)
                 (A) (A) (A) (A) (A) (A) (A) (A) (A) (A) (A) (A)
                 (A) (A) (A) (A) (A) (A) (A) (A) (A) (A) (A) (A)
                 (A) (A) (A) (A) (A) (A) (A) (A) (A) (A) (A) (A)
                 (A) (A) (A) (A) (A) (A) (A) (A) (A) (A) (A) (A)
                 (A) (A) (A) (A) (A) (A) (A) (A) (A) (A) (A) (A)
                 (A) (A) (A) (A) (A) (A) (A) (A) (A) (A) (A) (A)
                 (A) (A) (A) (A) (A) (A) (A) (A) (A) (A) (A) (A)
                 (A) (A) (A) (A) (A) (A) (A) (A) (A) (A) (A) (A)
                 (A) (A) (A) (A) (A) (A) (A) (A) (A) (A) (A) (A)
                 (A) (A) (A) (A) (A) (A) (A) (A) (A) (A) (A) (A)
                 (A) (A) (A) (A) (A) (A) (A) (A) (A) (A) (A) (A)
                 (A) (A) (A) (A) (A) (A) (A) (A) (A) (A) (A) (A)
                 (A) (A) (A) (A) (A) (A) (A) (A) (A) (A) (A) (A)
                 (A) (A) (A) (A) (A) (A) (A) (A) (A) (A) (A) (A)
                 (A) (A) (A) (A) (A) (A) (A) (A) (A) (A) (A) (A)
                 (A) (A) (A) (A) (A) (A) (A) (A) (A) (A) (A) (A)
                 (A) (A) (A) (A) (A) (A) (A) (A) (A) (A) (A) (A)
                 (A) (A) (A) (A) (A) (A) (A) (A) (A) (A) (A) (A)
                 (A) (A) (A) (A) (A) (A) (A) (A) (A) (A) (A) (A)
                 (A) (A) (A) (A) (A) (A) (A) (A) (A) (A) (A) (A)
                 (A) (A) (A) (A) (A) (A) (A) (A) (A) (A) (A) (A)
                 (A) (A) (A) (A) (A) (A) (A) (A) (A) (A) (A) (A)
                 (A) (A) (A) (A) (A) (A) (A) (A) (A) (A) (A) (A)
                 (A) (A) (A) (A) (A) (A) (A) (A) (A) (A) (A) (A)
    20 initial guesses have been made.
 Convergence on wavefunction:    0.001000000000000
 Davidson Disk Diagonalization:  ConvIn= 1.00D-03 SkipCon=T Conv= 1.00D-03.
 Max sub-space:  2000 roots to seek:    20 dimension of matrix:       549360
 Iteration     1 Dimension    20 NMult     0 NNew     20
 CISAX will form    20 AO SS matrices at one time.
 NMat=    20 NSing=    20 JSym2X= 0.
 FoFJK:  IHMeth= 1 ICntrl=       0 DoSepK=T KAlg= 0 I1Cent=           0 FoldK=F
 IRaf=         1 NMat=      40 IRICut=       1 DoRegI=T DoRafI=F ISym2E= 0 IDoP0=3 IntGTp=3.
 FoFCou: FMM=T IPFlag=           0 FMFlag=      100000 FMFlg1=        2001
         NFxFlg=           0 DoJE=F BraDBF=F KetDBF=F FulRan=T
         wScrn=  0.000000 ICntrl=       500 IOpCl=  0 I1Cent=           0 NGrid=           0
         NMat0=   20 NMatS0=     20 NMatT0=    0 NMatD0=   20 NMtDS0=    0 NMtDT0=    0
 Symmetry not used in FoFCou.
 FMM levels:  10  Number of levels for PrismC:   9
 New state      2 was old state      4
 New state      4 was old state      7
 New state      5 was old state      6
 Excitation Energies [eV] at current iteration:
 Root      1 :     2.289382134726337
 Root      2 :     2.466517378987626
 Root      3 :     2.585024589709271
 Root      4 :     2.612294782638930
 Root      5 :     2.633711308327450
 Root      6 :     2.772864913038347
 Root      7 :     3.096843604107891
 Root      8 :     3.263014399966954
 Root      9 :     3.646759337499600
 Root     10 :     3.685895220451957
 Root     11 :     3.715892823270206
 Root     12 :     3.759588940405408
 Root     13 :     4.200531831997160
 Root     14 :     4.242824963361271
 Root     15 :     4.312078061494109
 Root     16 :     4.364645399541360
 Root     17 :     4.373240253080988
 Root     18 :     4.632800263678832
 Root     19 :     4.695311171171909
 Root     20 :     4.923279053483699
 Iteration     2 Dimension    30 NMult    20 NNew     10
 CISAX will form    10 AO SS matrices at one time.
 NMat=    10 NSing=    10 JSym2X= 0.
 New state      1 was old state      3
 Root      1 not converged, maximum delta is    0.189829596987561
 New state      2 was old state      4
 Root      2 not converged, maximum delta is    0.077128190258412
 New state      3 was old state      5
 Root      3 not converged, maximum delta is    0.149871111819391
 New state      4 was old state      1
 Root      4 not converged, maximum delta is    0.011435091938348
 New state      5 was old state      2
 Root      5 not converged, maximum delta is    0.025780007979729
 Excitation Energies [eV] at current iteration:
 Root      1 :     1.752136703708125   Change is   -0.832887886001146
 Root      2 :     2.231163502246677   Change is   -0.381131280392253
 Root      3 :     2.246528339029911   Change is   -0.387182969297539
 Root      4 :     2.286994686635561   Change is   -0.002387448090776
 Root      5 :     2.461254379563591   Change is   -0.005262999424036
 Iteration     3 Dimension    40 NMult    30 NNew     10
 CISAX will form    10 AO SS matrices at one time.
 NMat=    10 NSing=    10 JSym2X= 0.
 Root      1 not converged, maximum delta is    0.051354308370341
 Root      2 not converged, maximum delta is    0.395700298098351
 Root      3 not converged, maximum delta is    0.659023240593970
 No map to state      4
 New state      5 was old state      4
 Root      5 not converged, maximum delta is    0.003883267296929
 Excitation Energies [eV] at current iteration:
 Root      1 :     1.650944641361820   Change is   -0.101192062346305
 Root      2 :     2.141476837541350   Change is   -0.089686664705327
 Root      3 :     2.194846727267546   Change is   -0.051681611762365
 Root      4 :     2.214759363983397
 Root      5 :     2.286982163073750   Change is   -0.000012523561811
 Iteration     4 Dimension    50 NMult    40 NNew     10
 CISAX will form    10 AO SS matrices at one time.
 NMat=    10 NSing=    10 JSym2X= 0.
 Root      1 not converged, maximum delta is    0.010147301536642
 Root      2 not converged, maximum delta is    0.229901964064306
 Root      3 not converged, maximum delta is    0.148928473664245
 Root      4 not converged, maximum delta is    0.135401624448111
 Root      5 not converged, maximum delta is    0.002470821228162
 Excitation Energies [eV] at current iteration:
 Root      1 :     1.634661225244072   Change is   -0.016283416117748
 Root      2 :     1.787916763004203   Change is   -0.353560074537148
 Root      3 :     2.184991586717813   Change is   -0.009855140549733
 Root      4 :     2.200185754169305   Change is   -0.014573609814092
 Root      5 :     2.286973885463401   Change is   -0.000008277610348
 Iteration     5 Dimension    60 NMult    50 NNew     10
 CISAX will form    10 AO SS matrices at one time.
 NMat=    10 NSing=    10 JSym2X= 0.
 Root      1 not converged, maximum delta is    0.001333529061978
 Root      2 not converged, maximum delta is    0.038416286222612
 Root      3 not converged, maximum delta is    0.003865526406269
 Root      4 not converged, maximum delta is    0.003853476582671
 Root      5 has converged.
 Excitation Energies [eV] at current iteration:
 Root      1 :     1.633048544462377   Change is   -0.001612680781695
 Root      2 :     1.719253926049918   Change is   -0.068662836954284
 Root      3 :     2.184137472967660   Change is   -0.000854113750152
 Root      4 :     2.199178980485041   Change is   -0.001006773684264
 Root      5 :     2.286973394220348   Change is   -0.000000491243053
 Iteration     6 Dimension    68 NMult    60 NNew      8
 CISAX will form     8 AO SS matrices at one time.
 NMat=     8 NSing=     8 JSym2X= 0.
 Root      1 has converged.
 Root      2 not converged, maximum delta is    0.004688402358967
 Root      3 has converged.
 Root      4 has converged.
 Root      5 has converged.
 Excitation Energies [eV] at current iteration:
 Root      1 :     1.632820302619371   Change is   -0.000228241843005
 Root      2 :     1.713705137582058   Change is   -0.005548788467861
 Root      3 :     2.184008457649638   Change is   -0.000129015318023
 Root      4 :     2.199055830394092   Change is   -0.000123150090949
 Root      5 :     2.286973367975571   Change is   -0.000000026244776
 Iteration     7 Dimension    70 NMult    68 NNew      2
 CISAX will form     2 AO SS matrices at one time.
 NMat=     2 NSing=     2 JSym2X= 0.
 Root      1 has converged.
 Root      2 not converged, maximum delta is    0.002470829420522
 Root      3 has converged.
 Root      4 has converged.
 Root      5 has converged.
 Excitation Energies [eV] at current iteration:
 Root      1 :     1.632820268532072   Change is   -0.000000034087300
 Root      2 :     1.712830318491480   Change is   -0.000874819090577
 Root      3 :     2.184007766193272   Change is   -0.000000691456366
 Root      4 :     2.199051443435816   Change is   -0.000004386958276
 Root      5 :     2.286973364119610   Change is   -0.000000003855962
 Iteration     8 Dimension    72 NMult    70 NNew      2
 CISAX will form     2 AO SS matrices at one time.
 NMat=     2 NSing=     2 JSym2X= 0.
 Root      1 has converged.
 Root      2 has converged.
 Root      3 has converged.
 Root      4 has converged.
 Root      5 has converged.
 Excitation Energies [eV] at current iteration:
 Root      1 :     1.632820220594074   Change is   -0.000000047937998
 Root      2 :     1.712733313589048   Change is   -0.000097004902433
 Root      3 :     2.184007634091304   Change is   -0.000000132101968
 Root      4 :     2.199050415902415   Change is   -0.000001027533401
 Root      5 :     2.286973363309100   Change is   -0.000000000810510
 Convergence achieved on expansion vectors.
 ***********************************************************************
 Excited states from <AA,BB:AA,BB> singles matrix:
 ***********************************************************************
 
 1PDM for each excited state written to RWF  633
 Ground to excited state transition densities written to RWF  633
 Ground to excited state transition electric dipole moments (Au):
       state          X           Y           Z        Dip. S.      Osc.
         1         1.0778     -0.2172      0.5109      1.4698      0.0588
         2        -1.9361     -0.5304      3.3475     15.2353      0.6393
         3        -0.1529      0.0318      0.1416      0.0444      0.0024
         4        -0.1410      1.7486      0.1701      3.1063      0.1674
         5         0.0038      0.0058      0.0008      0.0000      0.0000
 Ground to excited state transition velocity dipole moments (Au):
       state          X           Y           Z        Dip. S.      Osc.
         1        -0.0630      0.0132     -0.0292      0.0050      0.0555
         2         0.1159      0.0323     -0.2053      0.0566      0.5999
         3         0.0115     -0.0025     -0.0103      0.0002      0.0020
         4         0.0107     -0.1337     -0.0129      0.0182      0.1498
         5        -0.0003     -0.0005      0.0000      0.0000      0.0000
 Ground to excited state transition magnetic dipole moments (Au):
       state          X           Y           Z
         1        -0.0785      2.3526      0.2215
[...]
 Alpha virt. eigenvalues --    1.86163   1.86236   1.86532   1.86680   1.86759
 Alpha virt. eigenvalues --    1.86874   1.86882   1.87153   1.87220   1.87504
 Alpha virt. eigenvalues --    1.87561   1.87657   1.87914   1.87971   1.88002
 Alpha virt. eigenvalues --    1.88187   1.88370   1.88581   1.88630   1.88850
 Alpha virt. eigenvalues --    1.88970   1.89263   1.89281   1.89307   1.89715
 Alpha virt. eigenvalues --    1.89870   1.90027   1.90175   1.90401   1.90629
 Alpha virt. eigenvalues --    1.90939   1.91130   1.91347   1.91544   1.91657
 Alpha virt. eigenvalues --    1.91861   1.92198   1.92436   1.92645   1.92885
 Alpha virt. eigenvalues --    1.93071   1.93462   1.93507   1.93815   1.94475
 Alpha virt. eigenvalues --    1.94571   1.94776   1.95169   1.95583   1.95731
 Alpha virt. eigenvalues --    1.95899   1.96019   1.96031   1.96281   1.96366
 Alpha virt. eigenvalues --    1.96442   1.96727   1.96758   1.96981   1.97282
 Alpha virt. eigenvalues --    1.97690   1.97794   1.97994   1.98013   1.98223
 Alpha virt. eigenvalues --    1.98396   1.98513   1.98563   1.99156   1.99362
 Alpha virt. eigenvalues --    1.99816   2.00216   2.00755   2.00963   2.01013
 Alpha virt. eigenvalues --    2.01390   2.01397   2.01690   2.01764   2.01881
 Alpha virt. eigenvalues --    2.01903   2.02058   2.02799   2.02993   2.03327
 Alpha virt. eigenvalues --    2.03341   2.03418   2.03477   2.03650   2.03781
 Alpha virt. eigenvalues --    2.04061   2.04326   2.05036   2.05325   2.05594
 Alpha virt. eigenvalues --    2.05995   2.06144   2.06651   2.06796   2.07193
 Alpha virt. eigenvalues --    2.07222   2.07592   2.08689   2.08960   2.09071
 Alpha virt. eigenvalues --    2.09276   2.09580   2.09922   2.10942   2.11252
 Alpha virt. eigenvalues --    2.11372   2.11549   2.11711   2.11737   2.11790
 Alpha virt. eigenvalues --    2.12268   2.12580   2.12710   2.12861   2.12936
 Alpha virt. eigenvalues --    2.13111   2.13160   2.13756   2.13846   2.14272
 Alpha virt. eigenvalues --    2.14461   2.15401   2.15750   2.15921   2.16295
 Alpha virt. eigenvalues --    2.16650   2.16816   2.16925   2.17427   2.17498
 Alpha virt. eigenvalues --    2.17759   2.17929   2.18126   2.18193   2.18293
 Alpha virt. eigenvalues --    2.18320   2.18840   2.18935   2.19462   2.19659
 Alpha virt. eigenvalues --    2.20070   2.20090   2.20222   2.20474   2.20788
 Alpha virt. eigenvalues --    2.21349   2.21470   2.21623   2.21734   2.22050
 Alpha virt. eigenvalues --    2.22373   2.22757   2.23018   2.23411   2.23589
 Alpha virt. eigenvalues --    2.24476   2.24728   2.25264   2.25602   2.26242
 Alpha virt. eigenvalues --    2.26675   2.26840   2.27063   2.27294   2.27457
 Alpha virt. eigenvalues --    2.28182   2.28599   2.29364   2.29737   2.29789
 Alpha virt. eigenvalues --    2.30138   2.30541   2.30805   2.30964   2.30983
 Alpha virt. eigenvalues --    2.31207   2.31449   2.32217   2.32600   2.33117
 Alpha virt. eigenvalues --    2.33514   2.33595   2.33708   2.34280   2.34369
 Alpha virt. eigenvalues --    2.35266   2.35463   2.35810   2.36202   2.36555
 Alpha virt. eigenvalues --    2.36645   2.36715   2.36773   2.37761   2.38068
 Alpha virt. eigenvalues --    2.38399   2.38786   2.38945   2.39034   2.39631
 Alpha virt. eigenvalues --    2.39950   2.40332   2.40475   2.40491   2.41047
 Alpha virt. eigenvalues --    2.41253   2.41421   2.41903   2.41949   2.41988
 Alpha virt. eigenvalues --    2.42338   2.43078   2.43098   2.43189   2.43347
 Alpha virt. eigenvalues --    2.44180   2.44327   2.44786   2.44918   2.45117
 Alpha virt. eigenvalues --    2.45227   2.45677   2.45859   2.46352   2.46426
 Alpha virt. eigenvalues --    2.46726   2.46804   2.46873   2.47168   2.47306
 Alpha virt. eigenvalues --    2.47644   2.47764   2.48162   2.49434   2.49791
 Alpha virt. eigenvalues --    2.50195   2.50273   2.50809   2.50901   2.51156
 Alpha virt. eigenvalues --    2.51505   2.51879   2.52013   2.52429   2.52578
 Alpha virt. eigenvalues --    2.52824   2.53431   2.53981   2.54254   2.54285
 Alpha virt. eigenvalues --    2.54685   2.54853   2.55047   2.55595   2.55949
 Alpha virt. eigenvalues --    2.57919   2.58421   2.58713   2.59166   2.60118
 Alpha virt. eigenvalues --    2.60492   2.60609   2.61165   2.61778   2.62144
 Alpha virt. eigenvalues --    2.62545   2.62700   2.62970   2.63344   2.63955
 Alpha virt. eigenvalues --    2.64429   2.64536   2.64614   2.65139   2.65313
 Alpha virt. eigenvalues --    2.65780   2.66089   2.66901   2.67011   2.67092
 Alpha virt. eigenvalues --    2.67333   2.67992   2.68208   2.68837   2.69035
 Alpha virt. eigenvalues --    2.69107   2.69240   2.69552   2.69814   2.70069
 Alpha virt. eigenvalues --    2.70386   2.71037   2.71268   2.71976   2.72091
 Alpha virt. eigenvalues --    2.72564   2.72664   2.72709   2.72905   2.73239
 Alpha virt. eigenvalues --    2.73481   2.73521   2.73570   2.74533   2.74739
 Alpha virt. eigenvalues --    2.74955   2.75288   2.76687   2.76733   2.77172
 Alpha virt. eigenvalues --    2.77278   2.77493   2.77898   2.78270   2.78573
 Alpha virt. eigenvalues --    2.78653   2.78918   2.79153   2.79364   2.80289
 Alpha virt. eigenvalues --    2.80536   2.80665   2.80956   2.81032   2.81426
 Alpha virt. eigenvalues --    2.81911   2.82236   2.82393   2.82543   2.83627
 Alpha virt. eigenvalues --    2.83845   2.84061   2.84251   2.84586   2.84838
 Alpha virt. eigenvalues --    2.84983   2.85099   2.85762   2.86104   2.86871
 Alpha virt. eigenvalues --    2.86958   2.87293   2.87532   2.88222   2.88561
 Alpha virt. eigenvalues --    2.88709   2.88819   2.88975   2.89202   2.90565
 Alpha virt. eigenvalues --    2.90855   2.91256   2.91353   2.93143   2.93567
 Alpha virt. eigenvalues --    2.93997   2.94271   2.94707   2.94853   2.95349
 Alpha virt. eigenvalues --    2.95641   2.95881   2.95988   2.96582   2.96596
 Alpha virt. eigenvalues --    2.96954   2.97087   2.97718   2.98255   2.98357
 Alpha virt. eigenvalues --    2.98443   2.98519   2.98601   2.98872   2.98931
 Alpha virt. eigenvalues --    2.98977   2.99182   2.99819   2.99868   3.00123
 Alpha virt. eigenvalues --    3.00154   3.00381   3.00433   3.00967   3.01270
 Alpha virt. eigenvalues --    3.01987   3.02090   3.02232   3.02332   3.02609
 Alpha virt. eigenvalues --    3.02940   3.03125   3.03451   3.03845   3.03983
 Alpha virt. eigenvalues --    3.04290   3.04357   3.04490   3.04627   3.04836
 Alpha virt. eigenvalues --    3.05033   3.05418   3.05728   3.06175   3.06363
 Alpha virt. eigenvalues --    3.06807   3.07163   3.08299   3.08407   3.09385
 Alpha virt. eigenvalues --    3.09655   3.09755   3.10478   3.10568   3.10963
 Alpha virt. eigenvalues --    3.11453   3.11664   3.11879   3.12102   3.12445
 Alpha virt. eigenvalues --    3.12603   3.13283   3.13784   3.13853   3.13878
 Alpha virt. eigenvalues --    3.13962   3.14547   3.16147   3.16316   3.17225
 Alpha virt. eigenvalues --    3.17737   3.18191   3.18208   3.19204   3.19343
 Alpha virt. eigenvalues --    3.22022   3.22682   3.23918   3.24511   3.24660
 Alpha virt. eigenvalues --    3.25363   3.26504   3.26891   3.27600   3.27607
 Alpha virt. eigenvalues --    3.28782   3.29277   3.31509   3.31603   3.33421
 Alpha virt. eigenvalues --    3.33435   3.40271   3.40365   3.42876   3.43109
 Alpha virt. eigenvalues --    3.48564   3.48897   3.50042   3.50522   3.51074
 Alpha virt. eigenvalues --    3.51493   3.56564   3.57245   3.59156   3.59558
 Alpha virt. eigenvalues --    3.62729   3.62787   3.66260   3.66510   3.66937
 Alpha virt. eigenvalues --    3.67583   3.73050   3.74097   3.75912   3.76780
          Condensed to atoms (all electrons):
 Mulliken charges:
               1
     1  Mg   0.839366
     2  C   -0.004128
     3  C   -0.093285
     4  C   -0.045342
     5  C   -0.060958
     6  N   -0.257127
     7  C   -0.052769
     8  C   -0.014266
     9  C   -0.087295
    10  C    0.046942
    11  C    0.104714
    12  C    0.053123
    13  C   -0.071315
    14  H    0.033290
    15  N   -0.433553
    16  C    0.169667
    17  C   -0.175609
    18  C   -0.002950
    19  C    0.149214
    20  C    0.109800
    21  C    0.013254
    22  O   -0.249317
    23  C    0.061624
    24  N   -0.341494
    25  C    0.042332
    26  C   -0.028230
    27  C   -0.024029
    28  C    0.075084
    29  C    0.076287
    30  C    0.034354
    31  C   -0.006651
    32  N   -0.309249
    33  C    0.078591
    34  C   -0.174603
    35  C    0.004666
    36  C    0.081734
    37  C    0.127686
    38  C    0.040767
    39  O   -0.190709
    40  C   -0.004423
    41  C    0.214013
    42  O   -0.262134
    43  O   -0.303287
    44  C    0.158341
    45  H   -0.017124
    46  H   -0.016187
    47  H   -0.040027
    48  H    0.000304
    49  H   -0.003309
    50  H    0.025265
    51  H    0.016866
    52  H    0.016980
    53  H    0.013378
    54  H    0.041779
    55  H    0.018057
    56  H    0.019426
    57  H    0.006096
    58  H    0.026947
    59  H    0.043320
    60  H    0.037103
    61  H    0.036078
    62  H    0.034715
    63  H    0.017317
    64  H    0.008798
    65  H    0.023182
    66  H    0.011947
    67  H    0.004864
    68  H    0.004645
    69  H    0.006993
    70  H    0.004739
    71  H    0.030411
    72  H    0.028201
    73  H    0.043493
    74  H    0.011893
    75  H    0.046261
    76  H    0.035781
    77  H    0.043466
    78  H    0.047502
    79  H    0.050460
    80  Mg   0.835831
    81  C   -0.017146
    82  C   -0.082284
    83  C   -0.046576
    84  C   -0.065012
    85  N   -0.254456
    86  C   -0.051207
    87  C   -0.015057
    88  C   -0.090774
    89  C    0.044936
    90  C    0.114404
    91  C    0.061573
    92  C   -0.076841
    93  H    0.031151
    94  N   -0.424264
    95  C    0.163289
    96  C   -0.169857
    97  C   -0.008602
    98  C    0.151741
    99  C    0.097905
   100  C    0.016487
   101  O   -0.258219
   102  C    0.057331
   103  N   -0.350226
   104  C    0.038486
   105  C   -0.019784
   106  C   -0.034316
   107  C    0.088209
   108  C    0.074053
   109  C    0.034938
   110  C   -0.007808
   111  N   -0.323672
   112  C    0.077064
   113  C   -0.164480
   114  C    0.001515
   115  C    0.094974
   116  C    0.131815
   117  C    0.041071
   118  O   -0.190191
   119  C    0.001167
   120  C    0.211304
   121  O   -0.252669
   122  O   -0.305270
   123  C    0.152619
   124  H   -0.018481
   125  H   -0.016781
   126  H   -0.041532
   127  H   -0.001678
   128  H   -0.002863
   129  H    0.021820
   130  H    0.014637
   131  H    0.015988
   132  H    0.016933
   133  H    0.035992
   134  H    0.020535
   135  H    0.020110
   136  H    0.009195
   137  H    0.022844
   138  H    0.060419
   139  H    0.039581
   140  H    0.030587
   141  H    0.046377
   142  H    0.013272
   143  H    0.011606
   144  H    0.023858
   145  H    0.011786
   146  H    0.005351
   147  H    0.004908
   148  H    0.003263
   149  H    0.010278
   150  H    0.019322
   151  H    0.030240
   152  H    0.044482
   153  H    0.007918
   154  H    0.046003
   155  H    0.034478
   156  H    0.043378
   157  H    0.049301
   158  H    0.051980
 Sum of Mulliken charges =  -0.00000
 Mulliken charges with hydrogens summed into heavy atoms:
               1
     1  Mg   0.839366
     2  C   -0.004128
     3  C   -0.110409
     4  C   -0.061529
     5  C   -0.100984
     6  N   -0.257127
     7  C   -0.052769
     8  C   -0.013962
     9  C   -0.090603
    10  C    0.046942
    11  C    0.163825
    12  C    0.108280
    13  C   -0.000544
    15  N   -0.433553
    16  C    0.169667
    17  C   -0.175609
    18  C   -0.002950
    19  C    0.149214
    20  C    0.186163
    21  C    0.013254
    22  O   -0.249317
    23  C    0.169520
    24  N   -0.341494
    25  C    0.042332
    26  C   -0.010913
    27  C   -0.015231
    28  C    0.075084
    29  C    0.116280
    30  C    0.045993
    31  C    0.056699
    32  N   -0.309249
    33  C    0.078591
    34  C   -0.174603
    35  C    0.004666
    36  C    0.081734
    37  C    0.229333
    38  C    0.040767
    39  O   -0.190709
    40  C    0.031358
    41  C    0.214013
    42  O   -0.262134
    43  O   -0.303287
    44  C    0.299768
    80  Mg   0.835831
    81  C   -0.017146
    82  C   -0.100765
    83  C   -0.063357
    84  C   -0.106544
    85  N   -0.254456
    86  C   -0.051207
    87  C   -0.016735
    88  C   -0.093636
    89  C    0.044936
    90  C    0.166849
    91  C    0.114498
    92  C   -0.005046
    94  N   -0.424264
    95  C    0.163289
    96  C   -0.169857
    97  C   -0.008602
    98  C    0.151741
    99  C    0.190363
   100  C    0.016487
   101  O   -0.258219
   102  C    0.173875
   103  N   -0.350226
   104  C    0.038486
   105  C   -0.006512
   106  C   -0.022710
   107  C    0.088209
   108  C    0.115049
   109  C    0.043109
   110  C    0.052032
   111  N   -0.323672
   112  C    0.077064
   113  C   -0.164480
   114  C    0.001515
   115  C    0.094974
   116  C    0.230219
   117  C    0.041071
   118  O   -0.190191
   119  C    0.035645
   120  C    0.211304
   121  O   -0.252669
   122  O   -0.305270
   123  C    0.297278
 Electronic spatial extent (au):  <R**2>=          90812.8445
 Charge=             -0.0000 electrons
 Dipole moment (field-independent basis, Debye):
    X=              2.2996    Y=              3.1645    Z=              0.7753  Tot=              3.9878
 Quadrupole moment (field-independent basis, Debye-Ang):
   XX=           -531.2963   YY=           -463.3585   ZZ=           -515.8388
   XY=              1.5084   XZ=             42.8621   YZ=             15.7495
 Traceless Quadrupole moment (field-independent basis, Debye-Ang):
   XX=            -27.7984   YY=             40.1394   ZZ=            -12.3409
   XY=              1.5084   XZ=             42.8621   YZ=             15.7495
 Octapole moment (field-independent basis, Debye-Ang**2):
  XXX=            251.6860  YYY=            221.1711  ZZZ=            163.4158  XYY=           -122.1704
  XXY=            -99.2141  XXZ=            -93.9527  XZZ=             35.0480  YZZ=            161.6101
  YYZ=            -22.6039  XYZ=            151.7944
 Hexadecapole moment (field-independent basis, Debye-Ang**3):
 XXXX=         -64447.4795 YYYY=         -33049.3994 ZZZZ=         -25987.4138 XXXY=            -44.3862
 XXXZ=           1667.8197 YYYX=            130.4374 YYYZ=            324.7890 ZZZX=            541.7878
 ZZZY=            227.2433 XXYY=         -14773.0180 XXZZ=         -15659.2039 YYZZ=         -10612.4016
 XXYZ=            592.9868 YYXZ=           -356.7978 ZZXY=           -105.2493
 N-N= 1.584449110430D+04 E-N=-4.117062212748D+04  KE= 4.028792161538D+03
 Leave Link  601 at Wed Sep  8 16:45:10 2021, MaxMem= 23488102400 cpu:              17.3 elap:               0.9
 (Enter /sw/apps/gaussian-16.0/g16/l9999.exe)
 1\1\GINC-BP1-COMPUTE00139\SP\RCAM-B3LYP TD-FC\def2SVP\C68H72Mg2N8O8\OF
 15641\08-Sep-2021\0\\#p cam-b3lyp/Def2SVP td=(nstates=5)\\TDDFT excite
 d states in gaussian\\0,1\Mg,0,0.,0.,0.\C,0,-0.217,-2.218,2.801\C,0,-1
 .255,2.442,2.026\C,0,-0.245,1.85,-2.564\C,0,0.146,-2.824,-2.037\N,0,-0
 .617,-0.009,2.126\C,0,-0.594,-0.908,3.105\C,0,-0.936,-0.309,4.502\C,0,
 -1.773,0.964,4.032\C,0,-1.155,1.168,2.66\C,0,-3.263,0.685,3.863\C,0,0.
 345,0.11,5.299\C,0,0.124,0.397,6.787\H,0,1.168,0.033,7.733\N,0,-0.185,
 1.961,-0.152\C,0,-0.703,2.8,0.777\C,0,-0.62,4.156,0.193\C,0,-0.187,4.0
 15,-1.225\C,0,-0.214,2.583,-1.38\C,0,-0.887,5.406,0.974\C,0,0.181,5.01
 3,-2.277\O,0,0.303,4.69,-3.508\C,0,0.31,6.414,-1.837\N,0,-0.265,-0.413
 ,-2.029\C,0,-0.279,0.569,-2.937\C,0,-0.196,0.024,-4.332\C,0,0.124,-1.5
 33,-4.18\C,0,0.086,-1.632,-2.635\C,0,-1.451,0.205,-5.197\C,0,1.373,-2.
 07,-4.923\C,0,2.626,-1.49,-4.306\N,0,0.15,-2.144,0.303\C,0,0.173,-3.13
 6,-0.688\C,0,0.173,-4.438,0.004\C,0,0.133,-4.111,1.358\C,0,0.083,-2.69
 5,1.502\C,0,0.149,-5.715,-0.623\C,0,0.096,-4.629,2.716\O,0,0.208,-5.74
 7,3.221\C,0,-0.255,-3.428,3.701\C,0,0.717,-3.482,4.848\O,0,1.931,-3.25
 5,4.669\O,0,0.038,-3.556,6.003\C,0,0.943,-3.583,7.183\H,0,-1.859,3.22,
 2.497\H,0,-0.218,2.453,-3.474\H,0,0.276,-3.747,-2.605\H,0,-1.554,-0.94
 9,5.132\H,0,-1.585,1.831,4.665\H,0,-3.484,-0.377,3.969\H,0,-3.511,1.02
 7,2.858\H,0,-3.852,1.301,4.543\H,0,0.669,1.096,4.966\H,0,1.13,-0.639,5
 .189\H,0,-0.844,0.026,7.125\H,0,0.062,1.477,6.921\H,0,-1.344,5.186,1.9
 38\H,0,-1.651,5.963,0.432\H,0,0.007,6.02,1.084\H,0,-0.635,6.744,-1.405
 \H,0,0.665,6.97,-2.704\H,0,1.048,6.466,-1.036\H,0,0.608,0.501,-4.891\H
 ,0,-0.692,-2.156,-4.547\H,0,-1.267,0.74,-6.129\H,0,-2.204,0.714,-4.596
 \H,0,-1.967,-0.72,-5.453\H,0,1.356,-1.759,-5.967\H,0,1.452,-3.157,-4.9
 02\H,0,2.714,-0.522,-4.798\H,0,3.487,-2.121,-4.529\H,0,2.495,-1.303,-3
 .24\H,0,0.867,-6.333,-0.084\H,0,0.404,-5.642,-1.68\H,0,-0.891,-5.999,-
 0.463\H,0,-1.283,-3.581,4.028\H,0,0.698,-4.478,7.755\H,0,0.833,-2.619,
 7.68\H,0,2.,-3.754,6.976\Mg,0,7.87451,0.70972,0.60498\C,0,8.79402,3.16
 49,3.05562\C,0,7.5987,-1.526,3.16624\C,0,7.50284,-1.57707,-1.56294\C,0
 ,9.30789,2.78004,-1.80436\N,0,8.18158,0.91296,2.78596\C,0,8.46983,1.90
 909,3.60995\C,0,8.32885,1.5595,5.11577\C,0,8.51935,-0.03167,5.01208\C,
 0,8.03828,-0.2425,3.57792\C,0,9.97163,-0.47079,5.09813\C,0,6.91565,1.9
 3284,5.6863\C,0,6.81086,1.90628,7.21275\H,0,5.95467,2.8906,7.86888\N,0
 ,7.12489,-1.11919,0.78308\C,0,7.07342,-1.87213,1.90188\C,0,6.44816,-3.
 14271,1.50333\C,0,6.28496,-3.14151,0.02411\C,0,6.99916,-1.92811,-0.318
 9\C,0,5.9976,-4.17455,2.49617\C,0,5.61017,-4.08405,-0.92587\O,0,5.7960
 7,-4.0117,-2.19199\C,0,4.79924,-5.15253,-0.32402\N,0,8.52217,0.51156,-
 1.36063\C,0,8.1774,-0.55898,-2.09752\C,0,8.52293,-0.35344,-3.55311\C,0
 ,8.95275,1.18173,-3.68002\C,0,8.86298,1.59331,-2.19411\C,0,9.6387,-1.2
 4126,-4.10376\C,0,8.19705,2.03954,-4.73156\C,0,6.75458,2.21466,-4.3144
 3\N,0,8.70822,2.70252,0.56355\C,0,9.27699,3.3663,-0.5455\C,0,9.81038,4
 .65392,-0.05564\C,0,9.53321,4.63969,1.31966\C,0,8.89171,3.41994,1.6663
 2\C,0,10.49371,5.62426,-0.84153\C,0,9.64697,5.37459,2.55889\O,0,10.023
 34,6.50462,2.86729\C,0,9.28694,4.39821,3.76032\C,0,8.32801,5.11557,4.6
 7046\O,0,7.18819,5.41812,4.27564\O,0,8.83284,5.13209,5.91756\C,0,7.912
 41,5.8234,6.85922\H,0,7.70401,-2.35849,3.86249\H,0,7.30167,-2.28531,-2
 .37003\H,0,9.6819,3.5241,-2.51087\H,0,9.09379,1.98472,5.75438\H,0,7.87
 189,-0.55344,5.71202\H,0,10.64788,0.37112,5.09621\H,0,10.14211,-1.0949
 9,4.23075\H,0,10.11912,-1.11702,5.96817\H,0,6.20578,1.1342,5.43531\H,0
 ,6.59681,2.88883,5.31879\H,0,7.79634,1.87319,7.69305\H,0,6.33541,0.968
 94,7.51168\H,0,6.39916,-3.97229,3.49679\H,0,6.46107,-5.12311,2.20414\H
 ,0,4.9129,-4.30061,2.50976\H,0,5.42374,-5.75344,0.33277\H,0,4.32635,-5
 .66789,-1.16227\H,0,4.0291,-4.69428,0.30645\H,0,7.66046,-0.5302,-4.184
 \H,0,10.00803,1.28659,-3.97194\H,0,9.3269,-1.84156,-4.97925\H,0,9.9880
 4,-1.88418,-3.3068\H,0,10.54753,-0.71558,-4.39169\H,0,8.18102,1.52775,
 -5.69695\H,0,8.64133,3.01617,-4.89216\H,0,6.28127,1.29479,-4.67065\H,0
 ,6.32163,3.09162,-4.79144\H,0,6.66006,2.2325,-3.22245\H,0,10.10031,6.5
 9039,-0.55461\H,0,10.36023,5.4398,-1.90545\H,0,11.52328,5.44575,-0.519
 97\H,0,10.21906,4.14383,4.26632\H,0,8.48664,6.6222,7.33867\H,0,7.50637
 ,5.03109,7.51582\H,0,7.08711,6.38227,6.4338\\Version=ES64L-G16RevA.03\
 State=1-A\HF=-4069.8150489\RMSD=8.837e-09\PG=C01 [X(C68H72Mg2N8O8)]\\@


 MATERIAL COPIED FROM ONE SCHOLARLY BOOK WITHOUT CREDIT COMPRISES PLAGIARISM.
 MATERIAL COPIED FROM TWO SCHOLARLY BOOKS COMPRISES AN ESSAY.
 MATERIAL COPIED FROM THREE SCHOLARLY BOOKS COMPRISES A DISSERTATION.
 MATERIAL COPIED FROM FOUR SCHOLARLY BOOKS COMPRISES A FIFTH SCHOLARLY BOOK.

                               -- C&EN, 25 FEB 1980
 Job cpu time:       0 days 14 hours 35 minutes 10.8 seconds.
 Elapsed time:       0 days  0 hours 37 minutes  6.3 seconds.
 File lengths (MBytes):  RWF=  13225 Int=      0 D2E=      0 Chk=    574 Scr=      1
 Normal termination of Gaussian 16 at Wed Sep  8 16:45:11 2021.
