 Entering Gaussian System, Link 0=g16
 Initial command:
 /sw/apps/gaussian-16.0/g16/l1.exe "/tmp/Gau-100877.inp" -scrdir="/tmp/"
 Entering Link 1 = /sw/apps/gaussian-16.0/g16/l1.exe PID=    100878.
  
 Copyright (c) 1988,1990,1992,1993,1995,1998,2003,2009,2016,
            Gaussian, Inc.  All Rights Reserved.
  
 This is part of the Gaussian(R) 16 program.  It is based on
 the Gaussian(R) 09 system (copyright 2009, Gaussian, Inc.),
 the Gaussian(R) 03 system (copyright 2003, Gaussian, Inc.),
 the Gaussian(R) 98 system (copyright 1998, Gaussian, Inc.),
 the Gaussian(R) 94 system (copyright 1995, Gaussian, Inc.),
 the Gaussian 92(TM) system (copyright 1992, Gaussian, Inc.),
 the Gaussian 90(TM) system (copyright 1990, Gaussian, Inc.),
 the Gaussian 88(TM) system (copyright 1988, Gaussian, Inc.),
 the Gaussian 86(TM) system (copyright 1986, Carnegie Mellon
 University), and the Gaussian 82(TM) system (copyright 1983,
 Carnegie Mellon University). Gaussian is a federally registered
 trademark of Gaussian, Inc.
  
 This software contains proprietary and confidential information,
 including trade secrets, belonging to Gaussian, Inc.
  
 This software is provided under written license and may be
 used, copied, transmitted, or stored only in accord with that
 written license.
  
 The following legend is applicable only to US Government
 contracts under FAR:
  
                    RESTRICTED RIGHTS LEGEND
  
 Use, reproduction and disclosure by the US Government is
 subject to restrictions as set forth in subparagraphs (a)
 and (c) of the Commercial Computer Software - Restricted
 Rights clause in FAR 52.227-19.
  
 Gaussian, Inc.
 340 Quinnipiac St., Bldg. 40, Wallingford CT 06492
  
  
 ---------------------------------------------------------------
 Warning -- This program may not be used in any manner that
 competes with the business of Gaussian, Inc. or will provide
 assistance to any competitor of Gaussian, Inc.  The licensee
 of this program is prohibited from giving any competitor of
 Gaussian, Inc. access to this program.  By using this program,
 the user acknowledges that Gaussian, Inc. is engaged in the
 business of creating and licensing software in the field of
 computational chemistry and represents and warrants to the
 licensee that it is not a competitor of Gaussian, Inc. and that
 it will not use this program in any manner prohibited above.
 ---------------------------------------------------------------
  

 Cite this work as:
 Gaussian 16, Revision A.03,
 M. J. Frisch, G. W. Trucks, H. B. Schlegel, G. E. Scuseria, 
 M. A. Robb, J. R. Cheeseman, G. Scalmani, V. Barone, 
 G. A. Petersson, H. Nakatsuji, X. Li, M. Caricato, A. V. Marenich, 
 J. Bloino, B. G. Janesko, R. Gomperts, B. Mennucci, H. P. Hratchian, 
 J. V. Ortiz, A. F. Izmaylov, J. L. Sonnenberg, D. Williams-Young, 
 F. Ding, F. Lipparini, F. Egidi, J. Goings, B. Peng, A. Petrone, 
 T. Henderson, D. Ranasinghe, V. G. Zakrzewski, J. Gao, N. Rega, 
 G. Zheng, W. Liang, M. Hada, M. Ehara, K. Toyota, R. Fukuda, 
 J. Hasegawa, M. Ishida, T. Nakajima, Y. Honda, O. Kitao, H. Nakai, 
 T. Vreven, K. Throssell, J. A. Montgomery, Jr., J. E. Peralta, 
 F. Ogliaro, M. J. Bearpark, J. J. Heyd, E. N. Brothers, K. N. Kudin, 
 V. N. Staroverov, T. A. Keith, R. Kobayashi, J. Normand, 
 K. Raghavachari, A. P. Rendell, J. C. Burant, S. S. Iyengar, 
 J. Tomasi, M. Cossi, J. M. Millam, M. Klene, C. Adamo, R. Cammi, 
 J. W. Ochterski, R. L. Martin, K. Morokuma, O. Farkas, 
 J. B. Foresman, and D. J. Fox, Gaussian, Inc., Wallingford CT, 2016.
 
 ******************************************
 Gaussian 16:  ES64L-G16RevA.03 25-Dec-2016
                12-Sep-2021 
 ******************************************
 %nproc=24
 Will use up to   24 processors via shared memory.
 %mem=175gb
 -----------------------------------
 #p cam-b3lyp/Def2SVP td=(nstates=5)
 -----------------------------------
 1/38=1,172=1/1;
 2/12=2,17=6,18=5,40=1/2;
 3/5=43,7=101,11=9,25=1,30=1,74=-40/1,2,3,8;
 4//1;
 5/5=2,38=5/2;
 8/6=1,10=1,108=5/1;
 9/41=5,42=1,70=2/14;
 6/7=2,8=2,9=2,10=2/1;
 99/5=1,9=1/99;
 Leave Link    1 at Sun Sep 12 16:49:31 2021, MaxMem= 23488102400 cpu:               0.6 elap:               0.0
 (Enter /sw/apps/gaussian-16.0/g16/l101.exe)
 --------------------------------
 TDDFT excited states in gaussian
 --------------------------------
 Symbolic Z-matrix:
 Charge =  0 Multiplicity = 1
 Mg                    0.        0.        0. 
 C                    -0.217    -2.218     2.801 
 C                    -1.255     2.442     2.026 
 C                    -0.245     1.85     -2.564 
 C                     0.146    -2.824    -2.037 
 N                    -0.617    -0.009     2.126 
 C                    -0.594    -0.908     3.105 
 C                    -0.936    -0.309     4.502 
 C                    -1.773     0.964     4.032 
 C                    -1.155     1.168     2.66 
 C                    -3.263     0.685     3.863 
 C                     0.345     0.11      5.299 
 C                     0.124     0.397     6.787 
 H                     1.168     0.033     7.733 
 N                    -0.185     1.961    -0.152 
 C                    -0.703     2.8       0.777 
 C                    -0.62      4.156     0.193 
 C                    -0.187     4.015    -1.225 
 C                    -0.214     2.583    -1.38 
 C                    -0.887     5.406     0.974 
 C                     0.181     5.013    -2.277 
 O                     0.303     4.69     -3.508 
 C                     0.31      6.414    -1.837 
 N                    -0.265    -0.413    -2.029 
 C                    -0.279     0.569    -2.937 
 C                    -0.196     0.024    -4.332 
 C                     0.124    -1.533    -4.18 
 C                     0.086    -1.632    -2.635 
 C                    -1.451     0.205    -5.197 
 C                     1.373    -2.07     -4.923 
 C                     2.626    -1.49     -4.306 
 N                     0.15     -2.144     0.303 
 C                     0.173    -3.136    -0.688 
 C                     0.173    -4.438     0.004 
 C                     0.133    -4.111     1.358 
 C                     0.083    -2.695     1.502 
 C                     0.149    -5.715    -0.623 
 C                     0.096    -4.629     2.716 
 O                     0.208    -5.747     3.221 
 C                    -0.255    -3.428     3.701 
 C                     0.717    -3.482     4.848 
 O                     1.931    -3.255     4.669 
 O                     0.038    -3.556     6.003 
 C                     0.943    -3.583     7.183 
 H                    -1.859     3.22      2.497 
 H                    -0.218     2.453    -3.474 
 H                     0.276    -3.747    -2.605 
 H                    -1.554    -0.949     5.132 
 H                    -1.585     1.831     4.665 
 H                    -3.484    -0.377     3.969 
 H                    -3.511     1.027     2.858 
 H                    -3.852     1.301     4.543 
 H                     0.669     1.096     4.966 
 H                     1.13     -0.639     5.189 
 H                    -0.844     0.026     7.125 
 H                     0.062     1.477     6.921 
 H                    -1.344     5.186     1.938 
 H                    -1.651     5.963     0.432 
 H                     0.007     6.02      1.084 
 H                    -0.635     6.744    -1.405 
 H                     0.665     6.97     -2.704 
 H                     1.048     6.466    -1.036 
 H                     0.608     0.501    -4.891 
 H                    -0.692    -2.156    -4.547 
 H                    -1.267     0.74     -6.129 
 H                    -2.204     0.714    -4.596 
 H                    -1.967    -0.72     -5.453 
 H                     1.356    -1.759    -5.967 
 H                     1.452    -3.157    -4.902 
 H                     2.714    -0.522    -4.798 
 H                     3.487    -2.121    -4.529 
 H                     2.495    -1.303    -3.24 
 H                     0.867    -6.333    -0.084 
 H                     0.404    -5.642    -1.68 
 H                    -0.891    -5.999    -0.463 
 H                    -1.283    -3.581     4.028 
 H                     0.698    -4.478     7.755 
 H                     0.833    -2.619     7.68 
 H                     2.       -3.754     6.976 
 Mg                    31.53921   2.84696   2.39413 
 C                     30.93748   4.66331   5.43023 
 C                     30.53358   5.63361   0.7036 
 C                     31.6271   1.13703  -0.27717 
 C                     31.39042  -0.08034   4.27946 
 N                     30.84894   4.83027   3.08857 
 C                     30.71992   5.42655   4.26422 
 C                     30.4144   6.94638   4.18448 
 C                     29.75738   6.98304   2.71961 
 C                     30.44473   5.76156   2.1128 
 C                     28.25836   6.73359   2.72595 
 C                     31.71474   7.82185   4.25288 
 C                     31.47354   9.31408   4.49123 
 H                     32.43419   10.05302   5.30584 
 N                     31.61454   3.42933   0.49841 
 C                     31.18229   4.6022   -0.01033 
 C                     31.44391   4.53431  -1.45639 
 C                     31.91444   3.16099  -1.78399 
 C                     31.71269   2.50211  -0.50913 
 C                     31.31926   5.72453  -2.36262 
 C                     32.44467   2.53981  -3.04065 
 O                     32.56922   1.27008  -3.16351 
 C                     32.72573   3.45508  -4.15634 
 N                     31.30267   0.81732   2.01081 
 C                     31.44154   0.32806   0.76611 
 C                     31.5017  -1.1808    0.77666 
 C                     31.61777  -1.59538   2.31686 
 C                     31.51008  -0.19721   2.96409 
 C                     30.30903  -1.89854   0.14518 
 C                     32.81429  -2.50314   2.7131 
 C                     34.11208  -1.7436    2.55737 
 N                     31.40854   2.35408   4.49366 
 C                     31.33264   1.06447   5.06397 
 C                     31.14155   1.24203   6.51806 
 C                     31.09612   2.63359   6.69121 
 C                     31.22792   3.27752   5.43126 
 C                     30.98704   0.19572   7.47068 
 C                     30.95598   3.70404   7.65204 
 O                     30.89926   3.76775   8.87942 
 C                     30.7202   5.0636    6.86312 
 C                     31.63644   6.10408   7.44656 
 O                     32.8703   5.99145   7.33924 
 O                     30.90607   7.16294   7.84121 
 C                     31.77169   8.2265    8.41685 
 H                     30.02257   6.36985   0.08255 
 H                     31.76312   0.50028  -1.15439 
 H                     31.43291  -0.94255   4.94839 
 H                     29.70446   7.30618   4.91953 
 H                     30.03924   7.88511   2.18277 
 H                     27.90048   6.45476   3.70591 
 H                     28.09068   5.93119   2.01949 
 H                     27.72979   7.60329   2.32525 
 H                     32.17198   7.86233   3.25586 
 H                     32.39109   7.44224   4.99388 
 H                     30.44905   9.51775   4.82572 
 H                     31.55161   9.83545   3.5341 
 H                     30.79627   6.55292  -1.86901 
 H                     30.65408   5.43363  -3.18285 
 H                     32.27841   6.03853  -2.77987 
 H                     31.81693   3.98944  -4.4228 
 H                     33.18049   2.83762  -4.9334 
 H                     33.44599   4.20832  -3.81799 
 H                     32.37868  -1.53655   0.24992 
 H                     30.73919  -2.16562   2.65265 
 H                     30.59615  -2.58423  -0.67425 
 H                     29.61083  -1.15245  -0.21037 
 H                     29.69801  -2.47556   0.83721 
 H                     32.87563  -3.3633    2.04189 
 H                     32.74758  -2.88843   3.72507 
 H                     34.33517  -1.85211   1.49175 
 H                     34.89247  -2.18869   3.17132 
 H                     33.96925  -0.67527   2.75714 
 H                     31.59416   0.46118   8.32592 
 H                     31.2817  -0.76609   7.05613 
 H                     29.91009   0.25279   7.65011 
 H                     29.66945   5.33185   6.9794 
 H                     31.39047   8.44052   9.42012 
 H                     31.75431   9.05502   7.68405 
 H                     32.80273   7.97157   8.63231 
 
 ITRead=  0  0  0  0  0  0  0  0  0  0  0  0  0  0  0  0  0  0  0  0
 ITRead=  0  0  0  0  0  0  0  0  0  0  0  0  0  0  0  0  0  0  0  0
 ITRead=  0  0  0  0  0  0  0  0  0  0  0  0  0  0  0  0  0  0  0  0
 ITRead=  0  0  0  0  0  0  0  0  0  0  0  0  0  0  0  0  0  0  0  0
 ITRead=  0  0  0  0  0  0  0  0  0  0  0  0  0  0  0  0  0  0  0  0
 ITRead=  0  0  0  0  0  0  0  0  0  0  0  0  0  0  0  0  0  0  0  0
 ITRead=  0  0  0  0  0  0  0  0  0  0  0  0  0  0  0  0  0  0  0  0
 ITRead=  0  0  0  0  0  0  0  0  0  0  0  0  0  0  0  0  0  0
 MicOpt= -1 -1 -1 -1 -1 -1 -1 -1 -1 -1 -1 -1 -1 -1 -1 -1 -1 -1 -1 -1
 MicOpt= -1 -1 -1 -1 -1 -1 -1 -1 -1 -1 -1 -1 -1 -1 -1 -1 -1 -1 -1 -1
 MicOpt= -1 -1 -1 -1 -1 -1 -1 -1 -1 -1 -1 -1 -1 -1 -1 -1 -1 -1 -1 -1
 MicOpt= -1 -1 -1 -1 -1 -1 -1 -1 -1 -1 -1 -1 -1 -1 -1 -1 -1 -1 -1 -1
 MicOpt= -1 -1 -1 -1 -1 -1 -1 -1 -1 -1 -1 -1 -1 -1 -1 -1 -1 -1 -1 -1
 MicOpt= -1 -1 -1 -1 -1 -1 -1 -1 -1 -1 -1 -1 -1 -1 -1 -1 -1 -1 -1 -1
 MicOpt= -1 -1 -1 -1 -1 -1 -1 -1 -1 -1 -1 -1 -1 -1 -1 -1 -1 -1 -1 -1
 MicOpt= -1 -1 -1 -1 -1 -1 -1 -1 -1 -1 -1 -1 -1 -1 -1 -1 -1 -1
 NAtoms=    158 NQM=      158 NQMF=       0 NMMI=      0 NMMIF=      0
                NMic=       0 NMicF=      0.
                    Isotopes and Nuclear Properties:
 (Nuclear quadrupole moments (NQMom) in fm**2, nuclear magnetic moments (NMagM)
  in nuclear magnetons)

  Atom         1           2           3           4           5           6           7           8           9          10
 IAtWgt=          24          12          12          12          12          14          12          12          12          12
 AtmWgt=  23.9850450  12.0000000  12.0000000  12.0000000  12.0000000  14.0030740  12.0000000  12.0000000  12.0000000  12.0000000
 NucSpn=           0           0           0           0           0           2           0           0           0           0
 AtZEff=  -0.0000000  -0.0000000  -0.0000000  -0.0000000  -0.0000000  -0.0000000  -0.0000000  -0.0000000  -0.0000000  -0.0000000
 NQMom=    0.0000000   0.0000000   0.0000000   0.0000000   0.0000000   2.0440000   0.0000000   0.0000000   0.0000000   0.0000000
 NMagM=    0.0000000   0.0000000   0.0000000   0.0000000   0.0000000   0.4037610   0.0000000   0.0000000   0.0000000   0.0000000
 AtZNuc=  12.0000000   6.0000000   6.0000000   6.0000000   6.0000000   7.0000000   6.0000000   6.0000000   6.0000000   6.0000000

  Atom        11          12          13          14          15          16          17          18          19          20
 IAtWgt=          12          12          12           1          14          12          12          12          12          12
 AtmWgt=  12.0000000  12.0000000  12.0000000   1.0078250  14.0030740  12.0000000  12.0000000  12.0000000  12.0000000  12.0000000
 NucSpn=           0           0           0           1           2           0           0           0           0           0
 AtZEff=  -0.0000000  -0.0000000  -0.0000000  -0.0000000  -0.0000000  -0.0000000  -0.0000000  -0.0000000  -0.0000000  -0.0000000
 NQMom=    0.0000000   0.0000000   0.0000000   0.0000000   2.0440000   0.0000000   0.0000000   0.0000000   0.0000000   0.0000000
 NMagM=    0.0000000   0.0000000   0.0000000   2.7928460   0.4037610   0.0000000   0.0000000   0.0000000   0.0000000   0.0000000
 AtZNuc=   6.0000000   6.0000000   6.0000000   1.0000000   7.0000000   6.0000000   6.0000000   6.0000000   6.0000000   6.0000000

  Atom        21          22          23          24          25          26          27          28          29          30
 IAtWgt=          12          16          12          14          12          12          12          12          12          12
 AtmWgt=  12.0000000  15.9949146  12.0000000  14.0030740  12.0000000  12.0000000  12.0000000  12.0000000  12.0000000  12.0000000
 NucSpn=           0           0           0           2           0           0           0           0           0           0
 AtZEff=  -0.0000000  -0.0000000  -0.0000000  -0.0000000  -0.0000000  -0.0000000  -0.0000000  -0.0000000  -0.0000000  -0.0000000
 NQMom=    0.0000000   0.0000000   0.0000000   2.0440000   0.0000000   0.0000000   0.0000000   0.0000000   0.0000000   0.0000000
 NMagM=    0.0000000   0.0000000   0.0000000   0.4037610   0.0000000   0.0000000   0.0000000   0.0000000   0.0000000   0.0000000
 AtZNuc=   6.0000000   8.0000000   6.0000000   7.0000000   6.0000000   6.0000000   6.0000000   6.0000000   6.0000000   6.0000000

  Atom        31          32          33          34          35          36          37          38          39          40
 IAtWgt=          12          14          12          12          12          12          12          12          16          12
 AtmWgt=  12.0000000  14.0030740  12.0000000  12.0000000  12.0000000  12.0000000  12.0000000  12.0000000  15.9949146  12.0000000
 NucSpn=           0           2           0           0           0           0           0           0           0           0
 AtZEff=  -0.0000000  -0.0000000  -0.0000000  -0.0000000  -0.0000000  -0.0000000  -0.0000000  -0.0000000  -0.0000000  -0.0000000
 NQMom=    0.0000000   2.0440000   0.0000000   0.0000000   0.0000000   0.0000000   0.0000000   0.0000000   0.0000000   0.0000000
 NMagM=    0.0000000   0.4037610   0.0000000   0.0000000   0.0000000   0.0000000   0.0000000   0.0000000   0.0000000   0.0000000
 AtZNuc=   6.0000000   7.0000000   6.0000000   6.0000000   6.0000000   6.0000000   6.0000000   6.0000000   8.0000000   6.0000000

  Atom        41          42          43          44          45          46          47          48          49          50
 IAtWgt=          12          16          16          12           1           1           1           1           1           1
 AtmWgt=  12.0000000  15.9949146  15.9949146  12.0000000   1.0078250   1.0078250   1.0078250   1.0078250   1.0078250   1.0078250
 NucSpn=           0           0           0           0           1           1           1           1           1           1
 AtZEff=  -0.0000000  -0.0000000  -0.0000000  -0.0000000  -0.0000000  -0.0000000  -0.0000000  -0.0000000  -0.0000000  -0.0000000
 NQMom=    0.0000000   0.0000000   0.0000000   0.0000000   0.0000000   0.0000000   0.0000000   0.0000000   0.0000000   0.0000000
 NMagM=    0.0000000   0.0000000   0.0000000   0.0000000   2.7928460   2.7928460   2.7928460   2.7928460   2.7928460   2.7928460
 AtZNuc=   6.0000000   8.0000000   8.0000000   6.0000000   1.0000000   1.0000000   1.0000000   1.0000000   1.0000000   1.0000000

  Atom        51          52          53          54          55          56          57          58          59          60
 IAtWgt=           1           1           1           1           1           1           1           1           1           1
 AtmWgt=   1.0078250   1.0078250   1.0078250   1.0078250   1.0078250   1.0078250   1.0078250   1.0078250   1.0078250   1.0078250
 NucSpn=           1           1           1           1           1           1           1           1           1           1
 AtZEff=  -0.0000000  -0.0000000  -0.0000000  -0.0000000  -0.0000000  -0.0000000  -0.0000000  -0.0000000  -0.0000000  -0.0000000
 NQMom=    0.0000000   0.0000000   0.0000000   0.0000000   0.0000000   0.0000000   0.0000000   0.0000000   0.0000000   0.0000000
 NMagM=    2.7928460   2.7928460   2.7928460   2.7928460   2.7928460   2.7928460   2.7928460   2.7928460   2.7928460   2.7928460
 AtZNuc=   1.0000000   1.0000000   1.0000000   1.0000000   1.0000000   1.0000000   1.0000000   1.0000000   1.0000000   1.0000000

  Atom        61          62          63          64          65          66          67          68          69          70
 IAtWgt=           1           1           1           1           1           1           1           1           1           1
 AtmWgt=   1.0078250   1.0078250   1.0078250   1.0078250   1.0078250   1.0078250   1.0078250   1.0078250   1.0078250   1.0078250
 NucSpn=           1           1           1           1           1           1           1           1           1           1
 AtZEff=  -0.0000000  -0.0000000  -0.0000000  -0.0000000  -0.0000000  -0.0000000  -0.0000000  -0.0000000  -0.0000000  -0.0000000
 NQMom=    0.0000000   0.0000000   0.0000000   0.0000000   0.0000000   0.0000000   0.0000000   0.0000000   0.0000000   0.0000000
 NMagM=    2.7928460   2.7928460   2.7928460   2.7928460   2.7928460   2.7928460   2.7928460   2.7928460   2.7928460   2.7928460
 AtZNuc=   1.0000000   1.0000000   1.0000000   1.0000000   1.0000000   1.0000000   1.0000000   1.0000000   1.0000000   1.0000000

  Atom        71          72          73          74          75          76          77          78          79          80
 IAtWgt=           1           1           1           1           1           1           1           1           1          24
 AtmWgt=   1.0078250   1.0078250   1.0078250   1.0078250   1.0078250   1.0078250   1.0078250   1.0078250   1.0078250  23.9850450
 NucSpn=           1           1           1           1           1           1           1           1           1           0
 AtZEff=  -0.0000000  -0.0000000  -0.0000000  -0.0000000  -0.0000000  -0.0000000  -0.0000000  -0.0000000  -0.0000000  -0.0000000
 NQMom=    0.0000000   0.0000000   0.0000000   0.0000000   0.0000000   0.0000000   0.0000000   0.0000000   0.0000000   0.0000000
 NMagM=    2.7928460   2.7928460   2.7928460   2.7928460   2.7928460   2.7928460   2.7928460   2.7928460   2.7928460   0.0000000
 AtZNuc=   1.0000000   1.0000000   1.0000000   1.0000000   1.0000000   1.0000000   1.0000000   1.0000000   1.0000000  12.0000000

  Atom        81          82          83          84          85          86          87          88          89          90
 IAtWgt=          12          12          12          12          14          12          12          12          12          12
 AtmWgt=  12.0000000  12.0000000  12.0000000  12.0000000  14.0030740  12.0000000  12.0000000  12.0000000  12.0000000  12.0000000
 NucSpn=           0           0           0           0           2           0           0           0           0           0
 AtZEff=  -0.0000000  -0.0000000  -0.0000000  -0.0000000  -0.0000000  -0.0000000  -0.0000000  -0.0000000  -0.0000000  -0.0000000
 NQMom=    0.0000000   0.0000000   0.0000000   0.0000000   2.0440000   0.0000000   0.0000000   0.0000000   0.0000000   0.0000000
 NMagM=    0.0000000   0.0000000   0.0000000   0.0000000   0.4037610   0.0000000   0.0000000   0.0000000   0.0000000   0.0000000
 AtZNuc=   6.0000000   6.0000000   6.0000000   6.0000000   7.0000000   6.0000000   6.0000000   6.0000000   6.0000000   6.0000000

  Atom        91          92          93          94          95          96          97          98          99         100
 IAtWgt=          12          12           1          14          12          12          12          12          12          12
 AtmWgt=  12.0000000  12.0000000   1.0078250  14.0030740  12.0000000  12.0000000  12.0000000  12.0000000  12.0000000  12.0000000
 NucSpn=           0           0           1           2           0           0           0           0           0           0
 AtZEff=  -0.0000000  -0.0000000  -0.0000000  -0.0000000  -0.0000000  -0.0000000  -0.0000000  -0.0000000  -0.0000000  -0.0000000
 NQMom=    0.0000000   0.0000000   0.0000000   2.0440000   0.0000000   0.0000000   0.0000000   0.0000000   0.0000000   0.0000000
 NMagM=    0.0000000   0.0000000   2.7928460   0.4037610   0.0000000   0.0000000   0.0000000   0.0000000   0.0000000   0.0000000
 AtZNuc=   6.0000000   6.0000000   1.0000000   7.0000000   6.0000000   6.0000000   6.0000000   6.0000000   6.0000000   6.0000000

  Atom       101         102         103         104         105         106         107         108         109         110
 IAtWgt=          16          12          14          12          12          12          12          12          12          12
 AtmWgt=  15.9949146  12.0000000  14.0030740  12.0000000  12.0000000  12.0000000  12.0000000  12.0000000  12.0000000  12.0000000
 NucSpn=           0           0           2           0           0           0           0           0           0           0
 AtZEff=  -0.0000000  -0.0000000  -0.0000000  -0.0000000  -0.0000000  -0.0000000  -0.0000000  -0.0000000  -0.0000000  -0.0000000
 NQMom=    0.0000000   0.0000000   2.0440000   0.0000000   0.0000000   0.0000000   0.0000000   0.0000000   0.0000000   0.0000000
 NMagM=    0.0000000   0.0000000   0.4037610   0.0000000   0.0000000   0.0000000   0.0000000   0.0000000   0.0000000   0.0000000
 AtZNuc=   8.0000000   6.0000000   7.0000000   6.0000000   6.0000000   6.0000000   6.0000000   6.0000000   6.0000000   6.0000000

  Atom       111         112         113         114         115         116         117         118         119         120
 IAtWgt=          14          12          12          12          12          12          12          16          12          12
 AtmWgt=  14.0030740  12.0000000  12.0000000  12.0000000  12.0000000  12.0000000  12.0000000  15.9949146  12.0000000  12.0000000
 NucSpn=           2           0           0           0           0           0           0           0           0           0
 AtZEff=  -0.0000000  -0.0000000  -0.0000000  -0.0000000  -0.0000000  -0.0000000  -0.0000000  -0.0000000  -0.0000000  -0.0000000
 NQMom=    2.0440000   0.0000000   0.0000000   0.0000000   0.0000000   0.0000000   0.0000000   0.0000000   0.0000000   0.0000000
 NMagM=    0.4037610   0.0000000   0.0000000   0.0000000   0.0000000   0.0000000   0.0000000   0.0000000   0.0000000   0.0000000
 AtZNuc=   7.0000000   6.0000000   6.0000000   6.0000000   6.0000000   6.0000000   6.0000000   8.0000000   6.0000000   6.0000000

  Atom       121         122         123         124         125         126         127         128         129         130
 IAtWgt=          16          16          12           1           1           1           1           1           1           1
 AtmWgt=  15.9949146  15.9949146  12.0000000   1.0078250   1.0078250   1.0078250   1.0078250   1.0078250   1.0078250   1.0078250
 NucSpn=           0           0           0           1           1           1           1           1           1           1
 AtZEff=  -0.0000000  -0.0000000  -0.0000000  -0.0000000  -0.0000000  -0.0000000  -0.0000000  -0.0000000  -0.0000000  -0.0000000
 NQMom=    0.0000000   0.0000000   0.0000000   0.0000000   0.0000000   0.0000000   0.0000000   0.0000000   0.0000000   0.0000000
 NMagM=    0.0000000   0.0000000   0.0000000   2.7928460   2.7928460   2.7928460   2.7928460   2.7928460   2.7928460   2.7928460
 AtZNuc=   8.0000000   8.0000000   6.0000000   1.0000000   1.0000000   1.0000000   1.0000000   1.0000000   1.0000000   1.0000000

  Atom       131         132         133         134         135         136         137         138         139         140
 IAtWgt=           1           1           1           1           1           1           1           1           1           1
 AtmWgt=   1.0078250   1.0078250   1.0078250   1.0078250   1.0078250   1.0078250   1.0078250   1.0078250   1.0078250   1.0078250
 NucSpn=           1           1           1           1           1           1           1           1           1           1
 AtZEff=  -0.0000000  -0.0000000  -0.0000000  -0.0000000  -0.0000000  -0.0000000  -0.0000000  -0.0000000  -0.0000000  -0.0000000
 NQMom=    0.0000000   0.0000000   0.0000000   0.0000000   0.0000000   0.0000000   0.0000000   0.0000000   0.0000000   0.0000000
 NMagM=    2.7928460   2.7928460   2.7928460   2.7928460   2.7928460   2.7928460   2.7928460   2.7928460   2.7928460   2.7928460
 AtZNuc=   1.0000000   1.0000000   1.0000000   1.0000000   1.0000000   1.0000000   1.0000000   1.0000000   1.0000000   1.0000000

  Atom       141         142         143         144         145         146         147         148         149         150
 IAtWgt=           1           1           1           1           1           1           1           1           1           1
 AtmWgt=   1.0078250   1.0078250   1.0078250   1.0078250   1.0078250   1.0078250   1.0078250   1.0078250   1.0078250   1.0078250
 NucSpn=           1           1           1           1           1           1           1           1           1           1
 AtZEff=  -0.0000000  -0.0000000  -0.0000000  -0.0000000  -0.0000000  -0.0000000  -0.0000000  -0.0000000  -0.0000000  -0.0000000
 NQMom=    0.0000000   0.0000000   0.0000000   0.0000000   0.0000000   0.0000000   0.0000000   0.0000000   0.0000000   0.0000000
 NMagM=    2.7928460   2.7928460   2.7928460   2.7928460   2.7928460   2.7928460   2.7928460   2.7928460   2.7928460   2.7928460
 AtZNuc=   1.0000000   1.0000000   1.0000000   1.0000000   1.0000000   1.0000000   1.0000000   1.0000000   1.0000000   1.0000000

  Atom       151         152         153         154         155         156         157         158
 IAtWgt=           1           1           1           1           1           1           1           1
 AtmWgt=   1.0078250   1.0078250   1.0078250   1.0078250   1.0078250   1.0078250   1.0078250   1.0078250
 NucSpn=           1           1           1           1           1           1           1           1
 AtZEff=  -0.0000000  -0.0000000  -0.0000000  -0.0000000  -0.0000000  -0.0000000  -0.0000000  -0.0000000
 NQMom=    0.0000000   0.0000000   0.0000000   0.0000000   0.0000000   0.0000000   0.0000000   0.0000000
 NMagM=    2.7928460   2.7928460   2.7928460   2.7928460   2.7928460   2.7928460   2.7928460   2.7928460
 AtZNuc=   1.0000000   1.0000000   1.0000000   1.0000000   1.0000000   1.0000000   1.0000000   1.0000000
 Leave Link  101 at Sun Sep 12 16:49:31 2021, MaxMem= 23488102400 cpu:               3.3 elap:               0.2
 (Enter /sw/apps/gaussian-16.0/g16/l202.exe)
 Stoichiometry    C68H72Mg2N8O8
 Framework group  C1[X(C68H72Mg2N8O8)]
 Deg. of freedom   468
 Full point group                 C1      NOp   1
 Largest Abelian subgroup         C1      NOp   1
 Largest concise Abelian subgroup C1      NOp   1
                         Standard orientation:                         
 ---------------------------------------------------------------------
 Center     Atomic      Atomic             Coordinates (Angstroms)
 Number     Number       Type             X           Y           Z
 ---------------------------------------------------------------------
      1         12           0      -15.787858    0.669666    0.378358
      2          6           0      -16.057449   -2.152173   -1.807222
      3          6           0      -16.595061   -1.429099    2.944810
      4          6           0      -16.001619    3.219193    2.252081
      5          6           0      -16.124636    2.695925   -2.437049
      6          7           0      -16.243740   -1.495871    0.435515
      7          6           0      -16.254612   -2.475605   -0.462914
      8          6           0      -16.420304   -3.890521    0.167905
      9          6           0      -17.134253   -3.475988    1.531883
     10          6           0      -16.599071   -2.061236    1.665975
     11          6           0      -18.655071   -3.418279    1.430478
     12          6           0      -15.043880   -4.589065    0.431006
     13          6           0      -15.119697   -6.087622    0.737491
     14          1           0      -14.059003   -6.956559    0.250433
     15          7           0      -15.751920    0.818751    2.347960
     16          6           0      -16.098117   -0.140985    3.239219
     17          6           0      -15.899566    0.455169    4.577822
     18          6           0      -15.591501    1.900285    4.391192
     19          6           0      -15.797822    2.044807    2.972770
     20          6           0      -15.959786   -0.336243    5.848172
     21          6           0      -15.187137    2.982051    5.342194
     22          8           0      -15.194708    4.216841    5.010819
     23          6           0      -14.862498    2.560605    6.716980
     24          7           0      -16.247907    2.671409    0.005513
     25          6           0      -16.213157    3.581463    0.985094
     26          6           0      -16.297477    4.975697    0.438339
     27          6           0      -16.152267    4.838791   -1.145935
     28          6           0      -16.087997    3.294630   -1.244456
     29          6           0      -17.582678    5.747349    0.768224
     30          6           0      -15.032981    5.668337   -1.823779
     31          6           0      -13.678604    5.148160   -1.396958
     32          7           0      -15.868857    0.366391   -1.769317
     33          6           0      -16.035413    1.350798   -2.754140
     34          6           0      -16.137485    0.653327   -4.049202
     35          6           0      -16.039197   -0.698094   -3.723865
     36          6           0      -15.911821   -0.837383   -2.312247
     37          6           0      -16.357314    1.269666   -5.312624
     38          6           0      -16.036890   -2.058052   -4.238031
     39          8           0      -16.020173   -2.559778   -5.362969
     40          6           0      -16.171065   -3.059348   -3.007084
     41          6           0      -15.130496   -4.132271   -3.178438
     42          8           0      -13.914696   -3.863455   -3.095175
     43          8           0      -15.726767   -5.334351   -3.175604
     44          6           0      -14.746956   -6.444945   -3.312368
     45          1           0      -17.067248   -1.938725    3.786986
     46          1           0      -15.970925    4.132110    2.850478
     47          1           0      -16.146036    3.266713   -3.367208
     48          1           0      -17.061220   -4.567742   -0.396917
     49          1           0      -16.799720   -4.088598    2.368854
     50          1           0      -18.990885   -3.546189    0.401503
     51          1           0      -18.934361   -2.432257    1.802298
     52          1           0      -19.116072   -4.136153    2.109383
     53          1           0      -14.631667   -4.227646    1.373088
     54          1           0      -14.362505   -4.426025   -0.404740
     55          1           0      -16.097100   -6.497782    0.481829
     56          1           0      -15.044405   -6.219713    1.816881
     57          1           0      -16.367381   -1.332385    5.680501
     58          1           0      -16.690825    0.151408    6.492755
     59          1           0      -14.994209   -0.376926    6.352491
     60          1           0      -15.727881    2.062341    7.154466
     61          1           0      -14.509328    3.454425    7.230016
     62          1           0      -14.066648    1.816184    6.679444
     63          1           0      -15.486283    5.594830    0.819212
     64          1           0      -17.060538    5.141446   -1.667583
     65          1           0      -17.406101    6.693335    1.280704
     66          1           0      -18.224470    5.095631    1.360389
     67          1           0      -18.221156    5.959600   -0.088929
     68          1           0      -15.090006    6.710017   -1.509779
     69          1           0      -15.080870    5.647055   -2.912588
     70          1           0      -13.513912    5.650741   -0.444529
     71          1           0      -12.916406    5.430132   -2.124115
     72          1           0      -13.708044    4.076496   -1.199082
     73          1           0      -15.679216    0.781289   -6.012367
     74          1           0      -16.173870    2.342914   -5.266907
     75          1           0      -17.408883    1.032235   -5.472887
     76          1           0      -17.183092   -3.461707   -3.039172
     77          1           0      -15.052681   -7.038410   -4.174091
     78          1           0      -14.706150   -6.943227   -2.343630
     79          1           0      -13.735445   -6.161962   -3.605804
     80         12           0       15.957501    0.610801   -0.509065
     81          6           0       15.798009   -2.450954    1.356230
     82          6           0       15.164642    2.238732    2.381578
     83          6           0       15.647414    3.271666   -2.209381
     84          6           0       15.604868   -1.296847   -3.404272
     85          7           0       15.557861   -0.121186    1.539525
     86          6           0       15.586510   -1.299750    2.143277
     87          6           0       15.456584   -1.234055    3.688718
     88          6           0       14.702563    0.178876    3.806788
     89          6           0       15.195229    0.827555    2.514821
     90          6           0       13.189167    0.061225    3.735257
     91          6           0       16.852236   -1.201980    4.405054
     92          6           0       16.806142   -1.448953    5.914563
     93          1           0       17.904177   -2.186746    6.532989
     94          7           0       15.961202    2.510197    0.066146
     95          6           0       15.633493    2.992479    1.283229
     96          6           0       15.778355    4.453424    1.189432
     97          6           0       16.058975    4.806893   -0.228679
     98          6           0       15.875465    3.516975   -0.863130
     99          6           0       15.728109    5.354774    2.388790
    100          6           0       16.418790    6.095527   -0.904075
    101          8           0       16.383978    6.220024   -2.179265
    102          6           0       16.722656    7.233968   -0.024817
    103          7           0       15.456689    0.964289   -2.495660
    104          6           0       15.445291    2.213041   -2.994083
    105          6           0       15.328427    2.198420   -4.499579
    106          6           0       15.507863    0.668563   -4.929587
    107          6           0       15.612990    0.023076   -3.530417
    108          6           0       14.016556    2.736684   -5.070232
    109          6           0       16.615343    0.356015   -5.972898
    110          6           0       17.978383    0.610772   -5.370709
    111          7           0       15.924481   -1.495405   -0.989519
    112          6           0       15.739753   -2.077011   -2.262986
    113          6           0       15.678212   -3.540174   -2.068595
    114          6           0       15.809385   -3.708336   -0.681873
    115          6           0       15.922960   -2.438501   -0.054090
    116          6           0       15.472302   -4.507446   -3.092367
    117          6           0       15.866928   -4.670802    0.394717
    118          8           0       15.908429   -5.898658    0.460938
    119          6           0       15.735132   -3.893638    1.774948
    120          6           0       16.807616   -4.402443    2.698741
    121          8           0       18.008462   -4.205571    2.442179
    122          8           0       16.237655   -4.843608    3.834915
    123          6           0       17.262144   -5.348214    4.787603
    124          1           0       14.699396    2.824782    3.174658
    125          1           0       15.642874    4.152893   -2.855048
    126          1           0       15.594834   -1.965713   -4.267519
    127          1           0       14.849763   -2.017144    4.127250
    128          1           0       15.048206    0.740019    4.671092
    129          1           0       12.873999   -0.943897    3.497464
    130          1           0       12.876948    0.748950    2.960271
    131          1           0       12.738398    0.426987    4.662268
    132          1           0       17.236557   -0.173903    4.394522
    133          1           0       17.531928   -1.893519    3.946331
    134          1           0       15.840033   -1.856513    6.236235
    135          1           0       16.874362   -0.485749    6.426035
    136          1           0       15.343731    4.828823    3.271416
    137          1           0       14.974904    6.122365    2.180581
    138          1           0       16.684228    5.842998    2.589127
    139          1           0       15.865802    7.436080    0.613471
    140          1           0       17.043408    8.038788   -0.689098
    141          1           0       17.549302    6.953599    0.637508
    142          1           0       16.116460    2.786034   -4.954355
    143          1           0       14.595455    0.266041   -5.393612
    144          1           0       14.160158    3.571081   -5.782437
    145          1           0       13.386593    3.044282   -4.246170
    146          1           0       13.394509    1.998468   -5.573519
    147          1           0       16.525741    1.025053   -6.832270
    148          1           0       16.578385   -0.660280   -6.350735
    149          1           0       18.108272    1.689253   -5.501466
    150          1           0       18.744085    0.053199   -5.906303
    151          1           0       17.977088    0.407096   -4.293606
    152          1           0       16.167591   -5.314354   -2.902702
    153          1           0       15.620691   -4.077838   -4.080886
    154          1           0       14.425626   -4.765040   -2.909642
    155          1           0       14.734567   -4.085140    2.164499
    156          1           0       16.983460   -6.375514    5.041914
    157          1           0       17.288394   -4.614000    5.614635
    158          1           0       18.269131   -5.488924    4.412592
 ---------------------------------------------------------------------
 Rotational constants (GHZ):           0.0202533           0.0016351           0.0016218
 Leave Link  202 at Sun Sep 12 16:49:31 2021, MaxMem= 23488102400 cpu:               0.2 elap:               0.0
 (Enter /sw/apps/gaussian-16.0/g16/l301.exe)
 Standard basis: def2SVP (5D, 7F)
 Ernie: Thresh=  0.10000D-02 Tol=  0.10000D-05 Strict=F.
 There are  1658 symmetry adapted cartesian basis functions of A   symmetry.
 There are  1572 symmetry adapted basis functions of A   symmetry.
  1572 basis functions,  2678 primitive gaussians,  1658 cartesian basis functions
   312 alpha electrons      312 beta electrons
       nuclear repulsion energy     12306.1608567903 Hartrees.
 IExCor=20419 DFT=T Ex+Corr=CAM-B3LYP ExCW=0 ScaHFX=  1.000000
 ScaDFX=  1.000000  1.000000  1.000000  0.810000 ScalE2=  1.000000  1.000000
 IRadAn=      5 IRanWt=     -1 IRanGd=            0 ICorTp=0 IEmpDi=  4
 HFx  wShort=  0.000000 wLong=  0.330000 cFull=  0.190000 cShort=  0.000000 cLong=  0.460000
 DFx  wShort=  0.000000 wLong=  0.330000 cFull=  0.190000 cShort=  0.000000 cLong=  0.460000
 NAtoms=  158 NActive=  158 NUniq=  158 SFac= 1.00D+00 NAtFMM=   60 NAOKFM=T Big=T
 Integral buffers will be    131072 words long.
 Raffenetti 1 integral format.
 Two-electron integral symmetry is turned on.
 Leave Link  301 at Sun Sep 12 16:49:31 2021, MaxMem= 23488102400 cpu:               2.0 elap:               0.1
 (Enter /sw/apps/gaussian-16.0/g16/l302.exe)
 NPDir=0 NMtPBC=     1 NCelOv=     1 NCel=       1 NClECP=     1 NCelD=      1
         NCelK=      1 NCelE2=     1 NClLst=     1 CellRange=     0.0.
 One-electron integrals computed using PRISM.
 One-electron integral symmetry used in STVInt
   1 Symmetry operations used in ECPInt.
 ECPInt:  NShTT=  271216 NPrTT=  987664 LenC2=  103957 LenP2D=  239866.
 LDataN:  DoStor=T MaxTD1= 4 Len=   56
 NBasis=  1572 RedAO= T EigKep=  3.36D-04  NBF=  1572
 NBsUse=  1572 1.00D-06 EigRej= -1.00D+00 NBFU=  1572
 Precomputing XC quadrature grid using
 IXCGrd= 4 IRadAn=           5 IRanWt=          -1 IRanGd=           0 AccXCQ= 0.00D+00.
 Generated NRdTot=       0 NPtTot=           0 NUsed=           0 NTot=          32
 NSgBfM=   812   812   812   812   812 MxSgAt=   158 MxSgA2=    79.
 Leave Link  302 at Sun Sep 12 16:49:35 2021, MaxMem= 23488102400 cpu:             101.7 elap:               4.3
 (Enter /sw/apps/gaussian-16.0/g16/l303.exe)
 DipDrv:  MaxL=1.
 Leave Link  303 at Sun Sep 12 16:49:36 2021, MaxMem= 23488102400 cpu:               8.7 elap:               0.4
 (Enter /sw/apps/gaussian-16.0/g16/l308.exe)
 Leave Link  308 at Sun Sep 12 16:49:36 2021, MaxMem= 23488102400 cpu:              13.0 elap:               0.6
 (Enter /sw/apps/gaussian-16.0/g16/l401.exe)
 ExpMin= 3.36D-02 ExpMax= 4.95D+03 ExpMxC= 7.45D+02 IAcc=3 IRadAn=         5 AccDes= 0.00D+00
 Harris functional with IExCor=20419 and IRadAn=       5 diagonalized for initial guess.
 HarFok:  IExCor=20419 AccDes= 0.00D+00 IRadAn=         5 IDoV= 1 UseB2=F ITyADJ=14
 ICtDFT=  3500011 ScaDFX=  1.000000  1.000000  1.000000  1.000000
 FoFCou: FMM=F IPFlag=           0 FMFlag=      100000 FMFlg1=        2001
         NFxFlg=           0 DoJE=T BraDBF=F KetDBF=T FulRan=T
         wScrn=  0.000000 ICntrl=       500 IOpCl=  0 I1Cent=   200000004 NGrid=           0
         NMat0=    1 NMatS0=      1 NMatT0=    0 NMatD0=    1 NMtDS0=    0 NMtDT0=    0
 Petite list used in FoFCou.
 Harris En= -3918.65801558497    
 JPrj=0 DoOrth=F DoCkMO=F.
 Leave Link  401 at Sun Sep 12 16:49:43 2021, MaxMem= 23488102400 cpu:             154.2 elap:               6.5
 (Enter /sw/apps/gaussian-16.0/g16/l502.exe)
 Integral symmetry usage will be decided dynamically.
 Closed shell SCF:
 Using DIIS extrapolation, IDIIS=  1040.
 NGot= 23488102400 LenX= 23482547354 LenY= 23479796732
 Requested convergence on RMS density matrix=1.00D-08 within 128 cycles.
 Requested convergence on MAX density matrix=1.00D-06.
 Requested convergence on             energy=1.00D-06.
 No special actions if energy rises.
 Fock matrices will be formed incrementally for  20 cycles.

 Cycle   1  Pass 1  IDiag  1:
 FoFJK:  IHMeth= 1 ICntrl=       0 DoSepK=T KAlg= 0 I1Cent=           0 FoldK=F
 IRaf=         1 NMat=       1 IRICut=       1 DoRegI=T DoRafI=F ISym2E= 0 IDoP0=0 IntGTp=1.
 FoFCou: FMM=T IPFlag=           0 FMFlag=      100000 FMFlg1=        2001
         NFxFlg=           0 DoJE=T BraDBF=F KetDBF=F FulRan=T
         wScrn=  0.000000 ICntrl=       500 IOpCl=  0 I1Cent=           0 NGrid=           0
         NMat0=    1 NMatS0=      1 NMatT0=    0 NMatD0=    1 NMtDS0=    0 NMtDT0=    0
 Symmetry not used in FoFCou.
 FMM levels:  10  Number of levels for PrismC:   9
 E= -4068.94928987886    
 DIIS: error= 2.04D-02 at cycle   1 NSaved=   1.
 NSaved= 1 IEnMin= 1 EnMin= -4068.94928987886     IErMin= 1 ErrMin= 2.04D-02
 ErrMax= 2.04D-02  0.00D+00 EMaxC= 1.00D-01 BMatC= 1.69D+00 BMatP= 1.69D+00
 IDIUse=3 WtCom= 7.96D-01 WtEn= 2.04D-01
 Coeff-Com:  0.100D+01
 Coeff-En:   0.100D+01
 Coeff:      0.100D+01
 Gap=     0.120 Goal=   None    Shift=    0.000
 GapD=    0.120 DampG=1.000 DampE=0.500 DampFc=0.5000 IDamp=-1.
 Damping current iteration by 5.00D-01
 RMSDP=1.57D-03 MaxDP=1.35D-01              OVMax= 2.03D-01

 Cycle   2  Pass 1  IDiag  1:
 RMSU=  7.69D-04    CP:  9.82D-01
 E= -4069.33819952300     Delta-E=       -0.388909644138 Rises=F Damp=T
 DIIS: error= 1.27D-02 at cycle   2 NSaved=   2.
 NSaved= 2 IEnMin= 2 EnMin= -4069.33819952300     IErMin= 2 ErrMin= 1.27D-02
 ErrMax= 1.27D-02  0.00D+00 EMaxC= 1.00D-01 BMatC= 3.07D-01 BMatP= 1.69D+00
 IDIUse=3 WtCom= 8.73D-01 WtEn= 1.27D-01
 Coeff-Com: -0.213D+00 0.121D+01
 Coeff-En:   0.000D+00 0.100D+01
 Coeff:     -0.186D+00 0.119D+01
 Gap=     0.138 Goal=   None    Shift=    0.000
 RMSDP=7.65D-04 MaxDP=9.43D-02 DE=-3.89D-01 OVMax= 1.88D-01

 Cycle   3  Pass 1  IDiag  1:
 RMSU=  7.32D-04    CP:  9.68D-01  1.24D+00
 E= -4069.62796549619     Delta-E=       -0.289765973193 Rises=F Damp=F
 DIIS: error= 1.58D-02 at cycle   3 NSaved=   3.
 NSaved= 3 IEnMin= 3 EnMin= -4069.62796549619     IErMin= 2 ErrMin= 1.27D-02
 ErrMax= 1.58D-02  0.00D+00 EMaxC= 1.00D-01 BMatC= 2.02D-01 BMatP= 3.07D-01
 IDIUse=3 WtCom= 8.42D-01 WtEn= 1.58D-01
 Coeff-Com: -0.267D+00 0.652D+00 0.616D+00
 Coeff-En:   0.000D+00 0.000D+00 0.100D+01
 Coeff:     -0.225D+00 0.549D+00 0.676D+00
 Gap=     0.125 Goal=   None    Shift=    0.000
 RMSDP=5.08D-04 MaxDP=4.89D-02 DE=-2.90D-01 OVMax= 1.43D-01

 Cycle   4  Pass 1  IDiag  1:
 RMSU=  2.65D-04    CP:  9.65D-01  1.55D+00  5.06D-01
 E= -4069.76508725373     Delta-E=       -0.137121757538 Rises=F Damp=F
 DIIS: error= 7.31D-03 at cycle   4 NSaved=   4.
 NSaved= 4 IEnMin= 4 EnMin= -4069.76508725373     IErMin= 4 ErrMin= 7.31D-03
 ErrMax= 7.31D-03  0.00D+00 EMaxC= 1.00D-01 BMatC= 5.04D-02 BMatP= 2.02D-01
 IDIUse=3 WtCom= 9.27D-01 WtEn= 7.31D-02
 Coeff-Com: -0.109D+00 0.226D+00 0.409D+00 0.474D+00
 Coeff-En:   0.000D+00 0.000D+00 0.221D+00 0.779D+00
 Coeff:     -0.101D+00 0.209D+00 0.395D+00 0.497D+00
 Gap=     0.123 Goal=   None    Shift=    0.000
 RMSDP=2.00D-04 MaxDP=2.09D-02 DE=-1.37D-01 OVMax= 6.18D-02

 Cycle   5  Pass 1  IDiag  1:
 RMSU=  7.58D-05    CP:  9.64D-01  1.49D+00  6.89D-01  5.50D-01
 E= -4069.81054585790     Delta-E=       -0.045458604171 Rises=F Damp=F
 DIIS: error= 7.88D-04 at cycle   5 NSaved=   5.
 NSaved= 5 IEnMin= 5 EnMin= -4069.81054585790     IErMin= 5 ErrMin= 7.88D-04
 ErrMax= 7.88D-04  0.00D+00 EMaxC= 1.00D-01 BMatC= 1.16D-03 BMatP= 5.04D-02
 IDIUse=3 WtCom= 9.92D-01 WtEn= 7.88D-03
 Coeff-Com: -0.357D-01 0.701D-01 0.165D+00 0.249D+00 0.551D+00
 Coeff-En:   0.000D+00 0.000D+00 0.000D+00 0.000D+00 0.100D+01
 Coeff:     -0.355D-01 0.696D-01 0.164D+00 0.247D+00 0.555D+00
 Gap=     0.123 Goal=   None    Shift=    0.000
 RMSDP=4.07D-05 MaxDP=4.17D-03 DE=-4.55D-02 OVMax= 1.65D-02

 Cycle   6  Pass 1  IDiag  1:
 RMSU=  3.02D-05    CP:  9.64D-01  1.49D+00  6.81D-01  6.21D-01  7.59D-01
 E= -4069.81155205550     Delta-E=       -0.001006197601 Rises=F Damp=F
 DIIS: error= 2.19D-04 at cycle   6 NSaved=   6.
 NSaved= 6 IEnMin= 6 EnMin= -4069.81155205550     IErMin= 6 ErrMin= 2.19D-04
 ErrMax= 2.19D-04  0.00D+00 EMaxC= 1.00D-01 BMatC= 1.76D-04 BMatP= 1.16D-03
 IDIUse=3 WtCom= 9.98D-01 WtEn= 2.19D-03
 Coeff-Com:  0.231D-02-0.678D-02 0.108D-01 0.398D-01 0.306D+00 0.648D+00
 Coeff-En:   0.000D+00 0.000D+00 0.000D+00 0.000D+00 0.103D+00 0.897D+00
 Coeff:      0.231D-02-0.677D-02 0.108D-01 0.397D-01 0.306D+00 0.648D+00
 Gap=     0.123 Goal=   None    Shift=    0.000
 RMSDP=1.58D-05 MaxDP=1.24D-03 DE=-1.01D-03 OVMax= 7.26D-03

 Cycle   7  Pass 1  IDiag  1:
 RMSU=  1.06D-05    CP:  9.64D-01  1.50D+00  6.87D-01  6.21D-01  8.60D-01
                    CP:  7.50D-01
 E= -4069.81174048119     Delta-E=       -0.000188425693 Rises=F Damp=F
 DIIS: error= 8.40D-05 at cycle   7 NSaved=   7.
 NSaved= 7 IEnMin= 7 EnMin= -4069.81174048119     IErMin= 7 ErrMin= 8.40D-05
 ErrMax= 8.40D-05  0.00D+00 EMaxC= 1.00D-01 BMatC= 2.07D-05 BMatP= 1.76D-04
 IDIUse=1 WtCom= 1.00D+00 WtEn= 0.00D+00
 Coeff-Com:  0.445D-02-0.974D-02-0.898D-02-0.384D-02 0.102D+00 0.329D+00
 Coeff-Com:  0.587D+00
 Coeff:      0.445D-02-0.974D-02-0.898D-02-0.384D-02 0.102D+00 0.329D+00
 Coeff:      0.587D+00
 Gap=     0.123 Goal=   None    Shift=    0.000
 RMSDP=6.49D-06 MaxDP=1.11D-03 DE=-1.88D-04 OVMax= 3.42D-03

 Cycle   8  Pass 1  IDiag  1:
 RMSU=  4.66D-06    CP:  9.64D-01  1.50D+00  6.88D-01  6.26D-01  8.64D-01
                    CP:  8.76D-01  8.24D-01
 E= -4069.81176612919     Delta-E=       -0.000025648000 Rises=F Damp=F
 DIIS: error= 5.02D-05 at cycle   8 NSaved=   8.
 NSaved= 8 IEnMin= 8 EnMin= -4069.81176612919     IErMin= 8 ErrMin= 5.02D-05
 ErrMax= 5.02D-05  0.00D+00 EMaxC= 1.00D-01 BMatC= 4.81D-06 BMatP= 2.07D-05
 IDIUse=1 WtCom= 1.00D+00 WtEn= 0.00D+00
 Coeff-Com:  0.215D-02-0.425D-02-0.774D-02-0.121D-01-0.117D-01 0.334D-01
 Coeff-Com:  0.344D+00 0.656D+00
 Coeff:      0.215D-02-0.425D-02-0.774D-02-0.121D-01-0.117D-01 0.334D-01
 Coeff:      0.344D+00 0.656D+00
 Gap=     0.123 Goal=   None    Shift=    0.000
 RMSDP=3.26D-06 MaxDP=3.57D-04 DE=-2.56D-05 OVMax= 1.12D-03

 Cycle   9  Pass 1  IDiag  1:
 RMSU=  1.91D-06    CP:  9.64D-01  1.50D+00  6.88D-01  6.27D-01  8.81D-01
                    CP:  9.01D-01  1.02D+00  9.40D-01
 E= -4069.81177380930     Delta-E=       -0.000007680102 Rises=F Damp=F
 DIIS: error= 1.93D-05 at cycle   9 NSaved=   9.
 NSaved= 9 IEnMin= 9 EnMin= -4069.81177380930     IErMin= 9 ErrMin= 1.93D-05
 ErrMax= 1.93D-05  0.00D+00 EMaxC= 1.00D-01 BMatC= 6.85D-07 BMatP= 4.81D-06
 IDIUse=1 WtCom= 1.00D+00 WtEn= 0.00D+00
 Coeff-Com:  0.462D-03-0.766D-03-0.266D-02-0.598D-02-0.212D-01-0.385D-01
 Coeff-Com:  0.104D+00 0.326D+00 0.639D+00
 Coeff:      0.462D-03-0.766D-03-0.266D-02-0.598D-02-0.212D-01-0.385D-01
 Coeff:      0.104D+00 0.326D+00 0.639D+00
 Gap=     0.123 Goal=   None    Shift=    0.000
 RMSDP=1.41D-06 MaxDP=1.51D-04 DE=-7.68D-06 OVMax= 7.47D-04

 Cycle  10  Pass 1  IDiag  1:
 RMSU=  9.36D-07    CP:  9.64D-01  1.50D+00  6.88D-01  6.28D-01  8.84D-01
                    CP:  9.15D-01  1.07D+00  1.11D+00  1.05D+00
 E= -4069.81177539009     Delta-E=       -0.000001580791 Rises=F Damp=F
 DIIS: error= 1.03D-05 at cycle  10 NSaved=  10.
 NSaved=10 IEnMin=10 EnMin= -4069.81177539009     IErMin=10 ErrMin= 1.03D-05
 ErrMax= 1.03D-05  0.00D+00 EMaxC= 1.00D-01 BMatC= 1.71D-07 BMatP= 6.85D-07
 IDIUse=1 WtCom= 1.00D+00 WtEn= 0.00D+00
 Coeff-Com: -0.427D-03 0.894D-03 0.123D-02 0.112D-02-0.376D-02-0.309D-01
 Coeff-Com: -0.466D-01-0.764D-01 0.255D+00 0.900D+00
 Coeff:     -0.427D-03 0.894D-03 0.123D-02 0.112D-02-0.376D-02-0.309D-01
 Coeff:     -0.466D-01-0.764D-01 0.255D+00 0.900D+00
 Gap=     0.123 Goal=   None    Shift=    0.000
 RMSDP=1.22D-06 MaxDP=1.25D-04 DE=-1.58D-06 OVMax= 6.06D-04

 Cycle  11  Pass 1  IDiag  1:
 RMSU=  5.14D-07    CP:  9.64D-01  1.50D+00  6.88D-01  6.28D-01  8.86D-01
                    CP:  9.25D-01  1.12D+00  1.22D+00  1.39D+00  1.37D+00
 E= -4069.81177617528     Delta-E=       -0.000000785192 Rises=F Damp=F
 DIIS: error= 3.95D-06 at cycle  11 NSaved=  11.
 NSaved=11 IEnMin=11 EnMin= -4069.81177617528     IErMin=11 ErrMin= 3.95D-06
 ErrMax= 3.95D-06  0.00D+00 EMaxC= 1.00D-01 BMatC= 6.09D-08 BMatP= 1.71D-07
 IDIUse=1 WtCom= 1.00D+00 WtEn= 0.00D+00
 Coeff-Com: -0.326D-03 0.634D-03 0.132D-02 0.212D-02 0.441D-02-0.833D-02
 Coeff-Com: -0.436D-01-0.132D+00-0.233D-01 0.465D+00 0.735D+00
 Coeff:     -0.326D-03 0.634D-03 0.132D-02 0.212D-02 0.441D-02-0.833D-02
 Coeff:     -0.436D-01-0.132D+00-0.233D-01 0.465D+00 0.735D+00
 Gap=     0.123 Goal=   None    Shift=    0.000
 RMSDP=6.85D-07 MaxDP=5.77D-05 DE=-7.85D-07 OVMax= 3.70D-04

 Cycle  12  Pass 1  IDiag  1:
 RMSU=  2.62D-07    CP:  9.64D-01  1.50D+00  6.88D-01  6.28D-01  8.87D-01
                    CP:  9.28D-01  1.14D+00  1.28D+00  1.56D+00  1.76D+00
                    CP:  1.20D+00
 E= -4069.81177643703     Delta-E=       -0.000000261753 Rises=F Damp=F
 DIIS: error= 2.36D-06 at cycle  12 NSaved=  12.
 NSaved=12 IEnMin=12 EnMin= -4069.81177643703     IErMin=12 ErrMin= 2.36D-06
 ErrMax= 2.36D-06  0.00D+00 EMaxC= 1.00D-01 BMatC= 1.47D-08 BMatP= 6.09D-08
 IDIUse=1 WtCom= 1.00D+00 WtEn= 0.00D+00
 Coeff-Com:  0.728D-06-0.180D-04 0.176D-03 0.506D-03 0.329D-02 0.407D-02
 Coeff-Com:  0.288D-02-0.346D-01-0.680D-01-0.763D-01 0.250D+00 0.918D+00
 Coeff:      0.728D-06-0.180D-04 0.176D-03 0.506D-03 0.329D-02 0.407D-02
 Coeff:      0.288D-02-0.346D-01-0.680D-01-0.763D-01 0.250D+00 0.918D+00
 Gap=     0.123 Goal=   None    Shift=    0.000
 RMSDP=4.37D-07 MaxDP=3.12D-05 DE=-2.62D-07 OVMax= 2.48D-04

 Cycle  13  Pass 1  IDiag  1:
 RMSU=  1.65D-07    CP:  9.64D-01  1.50D+00  6.88D-01  6.28D-01  8.88D-01
                    CP:  9.28D-01  1.14D+00  1.31D+00  1.67D+00  1.99D+00
                    CP:  1.61D+00  1.27D+00
 E= -4069.81177652879     Delta-E=       -0.000000091759 Rises=F Damp=F
 DIIS: error= 1.23D-06 at cycle  13 NSaved=  13.
 NSaved=13 IEnMin=13 EnMin= -4069.81177652879     IErMin=13 ErrMin= 1.23D-06
 ErrMax= 1.23D-06  0.00D+00 EMaxC= 1.00D-01 BMatC= 8.09D-09 BMatP= 1.47D-08
 IDIUse=1 WtCom= 1.00D+00 WtEn= 0.00D+00
 Coeff-Com:  0.120D-03-0.245D-03-0.370D-03-0.458D-03 0.567D-03 0.508D-02
 Coeff-Com:  0.197D-01 0.228D-01-0.340D-01-0.241D+00-0.156D+00 0.599D+00
 Coeff-Com:  0.785D+00
 Coeff:      0.120D-03-0.245D-03-0.370D-03-0.458D-03 0.567D-03 0.508D-02
 Coeff:      0.197D-01 0.228D-01-0.340D-01-0.241D+00-0.156D+00 0.599D+00
 Coeff:      0.785D+00
 Gap=     0.123 Goal=   None    Shift=    0.000
 RMSDP=3.39D-07 MaxDP=2.29D-05 DE=-9.18D-08 OVMax= 1.95D-04

 Cycle  14  Pass 1  IDiag  1:
 RMSU=  7.59D-08    CP:  9.64D-01  1.50D+00  6.88D-01  6.28D-01  8.88D-01
                    CP:  9.29D-01  1.15D+00  1.33D+00  1.74D+00  2.18D+00
                    CP:  1.88D+00  1.79D+00  1.09D+00
 E= -4069.81177656453     Delta-E=       -0.000000035740 Rises=F Damp=F
 DIIS: error= 6.24D-07 at cycle  14 NSaved=  14.
 NSaved=14 IEnMin=14 EnMin= -4069.81177656453     IErMin=14 ErrMin= 6.24D-07
 ErrMax= 6.24D-07  0.00D+00 EMaxC= 1.00D-01 BMatC= 1.25D-09 BMatP= 8.09D-09
 IDIUse=1 WtCom= 1.00D+00 WtEn= 0.00D+00
 Coeff-Com:  0.661D-04-0.130D-03-0.246D-03-0.386D-03-0.484D-03 0.129D-02
 Coeff-Com:  0.107D-01 0.191D-01 0.366D-02-0.994D-01-0.142D+00 0.939D-01
 Coeff-Com:  0.404D+00 0.710D+00
 Coeff:      0.661D-04-0.130D-03-0.246D-03-0.386D-03-0.484D-03 0.129D-02
 Coeff:      0.107D-01 0.191D-01 0.366D-02-0.994D-01-0.142D+00 0.939D-01
 Coeff:      0.404D+00 0.710D+00
 Gap=     0.123 Goal=   None    Shift=    0.000
 RMSDP=1.01D-07 MaxDP=6.67D-06 DE=-3.57D-08 OVMax= 5.46D-05

 Cycle  15  Pass 1  IDiag  1:
 RMSU=  3.82D-08    CP:  9.64D-01  1.50D+00  6.88D-01  6.28D-01  8.88D-01
                    CP:  9.28D-01  1.15D+00  1.34D+00  1.76D+00  2.22D+00
                    CP:  1.98D+00  1.93D+00  1.33D+00  1.03D+00
 E= -4069.81177656834     Delta-E=       -0.000000003807 Rises=F Damp=F
 DIIS: error= 3.44D-07 at cycle  15 NSaved=  15.
 NSaved=15 IEnMin=15 EnMin= -4069.81177656834     IErMin=15 ErrMin= 3.44D-07
 ErrMax= 3.44D-07  0.00D+00 EMaxC= 1.00D-01 BMatC= 2.25D-10 BMatP= 1.25D-09
 IDIUse=1 WtCom= 1.00D+00 WtEn= 0.00D+00
 Coeff-Com:  0.513D-05-0.848D-05-0.318D-04-0.806D-04-0.299D-03-0.516D-03
 Coeff-Com:  0.111D-02 0.249D-02 0.875D-02 0.194D-02-0.306D-01-0.730D-01
 Coeff-Com:  0.284D-01 0.297D+00 0.765D+00
 Coeff:      0.513D-05-0.848D-05-0.318D-04-0.806D-04-0.299D-03-0.516D-03
 Coeff:      0.111D-02 0.249D-02 0.875D-02 0.194D-02-0.306D-01-0.730D-01
 Coeff:      0.284D-01 0.297D+00 0.765D+00
 Gap=     0.123 Goal=   None    Shift=    0.000
 RMSDP=4.07D-08 MaxDP=2.72D-06 DE=-3.81D-09 OVMax= 2.66D-05

 Cycle  16  Pass 1  IDiag  1:
 RMSU=  1.86D-08    CP:  9.64D-01  1.50D+00  6.88D-01  6.28D-01  8.88D-01
                    CP:  9.29D-01  1.15D+00  1.34D+00  1.76D+00  2.24D+00
                    CP:  2.01D+00  1.99D+00  1.40D+00  1.24D+00  1.14D+00
 E= -4069.81177656913     Delta-E=       -0.000000000791 Rises=F Damp=F
 DIIS: error= 1.71D-07 at cycle  16 NSaved=  16.
 NSaved=16 IEnMin=16 EnMin= -4069.81177656913     IErMin=16 ErrMin= 1.71D-07
 ErrMax= 1.71D-07  0.00D+00 EMaxC= 1.00D-01 BMatC= 8.11D-11 BMatP= 2.25D-10
 IDIUse=1 WtCom= 1.00D+00 WtEn= 0.00D+00
 Coeff-Com: -0.142D-04 0.288D-04 0.471D-04 0.539D-04-0.264D-04-0.633D-03
 Coeff-Com: -0.199D-02-0.426D-02 0.454D-02 0.256D-01 0.206D-01-0.646D-01
 Coeff-Com: -0.834D-01-0.370D-01 0.397D+00 0.744D+00
 Coeff:     -0.142D-04 0.288D-04 0.471D-04 0.539D-04-0.264D-04-0.633D-03
 Coeff:     -0.199D-02-0.426D-02 0.454D-02 0.256D-01 0.206D-01-0.646D-01
 Coeff:     -0.834D-01-0.370D-01 0.397D+00 0.744D+00
 Gap=     0.123 Goal=   None    Shift=    0.000
 RMSDP=2.29D-08 MaxDP=1.59D-06 DE=-7.91D-10 OVMax= 1.32D-05

 Cycle  17  Pass 1  IDiag  1:
 RMSU=  1.04D-08    CP:  9.64D-01  1.50D+00  6.88D-01  6.28D-01  8.88D-01
                    CP:  9.29D-01  1.15D+00  1.34D+00  1.77D+00  2.24D+00
                    CP:  2.02D+00  2.01D+00  1.45D+00  1.34D+00  1.44D+00
                    CP:  1.25D+00
 E= -4069.81177656954     Delta-E=       -0.000000000411 Rises=F Damp=F
 DIIS: error= 9.70D-08 at cycle  17 NSaved=  17.
 NSaved=17 IEnMin=17 EnMin= -4069.81177656954     IErMin=17 ErrMin= 9.70D-08
 ErrMax= 9.70D-08  0.00D+00 EMaxC= 1.00D-01 BMatC= 1.78D-11 BMatP= 8.11D-11
 IDIUse=1 WtCom= 1.00D+00 WtEn= 0.00D+00
 Coeff-Com: -0.719D-05 0.140D-04 0.285D-04 0.425D-04 0.840D-04-0.122D-03
 Coeff-Com: -0.964D-03-0.280D-02 0.139D-03 0.922D-02 0.175D-01-0.725D-02
 Coeff-Com: -0.370D-01-0.102D+00-0.320D-01 0.295D+00 0.859D+00
 Coeff:     -0.719D-05 0.140D-04 0.285D-04 0.425D-04 0.840D-04-0.122D-03
 Coeff:     -0.964D-03-0.280D-02 0.139D-03 0.922D-02 0.175D-01-0.725D-02
 Coeff:     -0.370D-01-0.102D+00-0.320D-01 0.295D+00 0.859D+00
 Gap=     0.123 Goal=   None    Shift=    0.000
 RMSDP=1.38D-08 MaxDP=1.08D-06 DE=-4.11D-10 OVMax= 8.80D-06

 Cycle  18  Pass 1  IDiag  1:
 RMSU=  4.86D-09    CP:  9.64D-01  1.50D+00  6.88D-01  6.28D-01  8.88D-01
                    CP:  9.29D-01  1.15D+00  1.34D+00  1.77D+00  2.24D+00
                    CP:  2.02D+00  2.02D+00  1.47D+00  1.41D+00  1.61D+00
                    CP:  1.66D+00  1.39D+00
 E= -4069.81177656949     Delta-E=        0.000000000053 Rises=F Damp=F
 DIIS: error= 5.02D-08 at cycle  18 NSaved=  18.
 NSaved=18 IEnMin=17 EnMin= -4069.81177656954     IErMin=18 ErrMin= 5.02D-08
 ErrMax= 5.02D-08  0.00D+00 EMaxC= 1.00D-01 BMatC= 6.84D-12 BMatP= 1.78D-11
 IDIUse=1 WtCom= 1.00D+00 WtEn= 0.00D+00
 Coeff-Com:  0.207D-05-0.445D-05-0.465D-05-0.183D-05 0.590D-04 0.184D-03
 Coeff-Com:  0.407D-03 0.232D-03-0.129D-02-0.622D-02-0.155D-03 0.203D-01
 Coeff-Com:  0.186D-01-0.325D-01-0.163D+00-0.191D+00 0.347D+00 0.101D+01
 Coeff:      0.207D-05-0.445D-05-0.465D-05-0.183D-05 0.590D-04 0.184D-03
 Coeff:      0.407D-03 0.232D-03-0.129D-02-0.622D-02-0.155D-03 0.203D-01
 Coeff:      0.186D-01-0.325D-01-0.163D+00-0.191D+00 0.347D+00 0.101D+01
 Gap=     0.123 Goal=   None    Shift=    0.000
 RMSDP=1.18D-08 MaxDP=8.11D-07 DE= 5.28D-11 OVMax= 6.92D-06

 Cycle  19  Pass 1  IDiag  1:
 RMSU=  2.78D-09    CP:  9.64D-01  1.50D+00  6.88D-01  6.28D-01  8.88D-01
                    CP:  9.29D-01  1.15D+00  1.34D+00  1.77D+00  2.24D+00
                    CP:  2.03D+00  2.02D+00  1.48D+00  1.46D+00  1.77D+00
                    CP:  1.99D+00  1.94D+00  1.38D+00
 E= -4069.81177656950     Delta-E=       -0.000000000011 Rises=F Damp=F
 DIIS: error= 3.72D-08 at cycle  19 NSaved=  19.
 NSaved=19 IEnMin=17 EnMin= -4069.81177656954     IErMin=19 ErrMin= 3.72D-08
 ErrMax= 3.72D-08  0.00D+00 EMaxC= 1.00D-01 BMatC= 1.42D-12 BMatP= 6.84D-12
 IDIUse=1 WtCom= 1.00D+00 WtEn= 0.00D+00
 Coeff-Com:  0.288D-05-0.580D-05-0.986D-05-0.123D-04 0.107D-04 0.119D-03
 Coeff-Com:  0.474D-03 0.794D-03-0.597D-03-0.593D-02-0.481D-02 0.120D-01
 Coeff-Com:  0.201D-01 0.113D-01-0.687D-01-0.177D+00-0.349D-01 0.491D+00
 Coeff-Com:  0.756D+00
 Coeff:      0.288D-05-0.580D-05-0.986D-05-0.123D-04 0.107D-04 0.119D-03
 Coeff:      0.474D-03 0.794D-03-0.597D-03-0.593D-02-0.481D-02 0.120D-01
 Coeff:      0.201D-01 0.113D-01-0.687D-01-0.177D+00-0.349D-01 0.491D+00
 Coeff:      0.756D+00
 Gap=     0.123 Goal=   None    Shift=    0.000
 RMSDP=4.55D-09 MaxDP=3.27D-07 DE=-1.09D-11 OVMax= 2.84D-06

 SCF Done:  E(RCAM-B3LYP) =  -4069.81177657     A.U. after   19 cycles
            NFock= 19  Conv=0.46D-08     -V/T= 2.0102
 KE= 4.028802024757D+03 PE=-3.409314917668D+04 EE= 1.368837451856D+04
 Leave Link  502 at Sun Sep 12 16:58:03 2021, MaxMem= 23488102400 cpu:           11417.3 elap:             500.2
 (Enter /sw/apps/gaussian-16.0/g16/l801.exe)
 DoSCS=F DFT=T ScalE2(SS,OS)=  1.000000  1.000000
 ExpMin= 3.36D-02 ExpMax= 4.95D+03 ExpMxC= 7.45D+02 IAcc=3 IRadAn=         5 AccDes= 0.00D+00
 HarFok:  IExCor=  205 AccDes= 0.00D+00 IRadAn=         5 IDoV=-2 UseB2=F ITyADJ=14
 ICtDFT= 12500011 ScaDFX=  1.000000  1.000000  1.000000  1.000000
 GSVD:  LWork=       -9588 too small for GESVD, short by       45590 words or       45590 for optimal perf.
 Largest valence mixing into a core orbital is  2.03D-04
 Largest core mixing into a valence orbital is  5.24D-05
 Range of M.O.s used for correlation:    95  1572
 NBasis=  1572 NAE=   312 NBE=   312 NFC=    94 NFV=     0
 NROrb=   1478 NOA=   218 NOB=   218 NVA=  1260 NVB=  1260
 Leave Link  801 at Sun Sep 12 16:58:03 2021, MaxMem= 23488102400 cpu:               8.4 elap:               0.4
 (Enter /sw/apps/gaussian-16.0/g16/l914.exe)
 RHF ground state
 Two-electron integrals replicated using symmetry.
 MDV= 23488102400 DFT=T DoStab=F Mixed=T DoRPA=T DoScal=F NonHer=T
 Making orbital integer symmetry assigments:
 Orbital symmetries:
       Occupied  (A) (A) (A) (A) (A) (A) (A) (A) (A) (A) (A) (A)
                 (A) (A) (A) (A) (A) (A) (A) (A) (A) (A) (A) (A)
                 (A) (A) (A) (A) (A) (A) (A) (A) (A) (A) (A) (A)
                 (A) (A) (A) (A) (A) (A) (A) (A) (A) (A) (A) (A)
                 (A) (A) (A) (A) (A) (A) (A) (A) (A) (A) (A) (A)
                 (A) (A) (A) (A) (A) (A) (A) (A) (A) (A) (A) (A)
                 (A) (A) (A) (A) (A) (A) (A) (A) (A) (A) (A) (A)
                 (A) (A) (A) (A) (A) (A) (A) (A) (A) (A) (A) (A)
                 (A) (A) (A) (A) (A) (A) (A) (A) (A) (A) (A) (A)
                 (A) (A) (A) (A) (A) (A) (A) (A) (A) (A) (A) (A)
                 (A) (A) (A) (A) (A) (A) (A) (A) (A) (A) (A) (A)
                 (A) (A) (A) (A) (A) (A) (A) (A) (A) (A) (A) (A)
                 (A) (A) (A) (A) (A) (A) (A) (A) (A) (A) (A) (A)
                 (A) (A) (A) (A) (A) (A) (A) (A) (A) (A) (A) (A)
                 (A) (A) (A) (A) (A) (A) (A) (A) (A) (A) (A) (A)
                 (A) (A) (A) (A) (A) (A) (A) (A) (A) (A) (A) (A)
                 (A) (A) (A) (A) (A) (A) (A) (A) (A) (A) (A) (A)
                 (A) (A) (A) (A) (A) (A) (A) (A) (A) (A) (A) (A)
                 (A) (A) (A) (A) (A) (A) (A) (A) (A) (A) (A) (A)
                 (A) (A) (A) (A) (A) (A) (A) (A) (A) (A) (A) (A)
                 (A) (A) (A) (A) (A) (A) (A) (A) (A) (A) (A) (A)
                 (A) (A) (A) (A) (A) (A) (A) (A) (A) (A) (A) (A)
                 (A) (A) (A) (A) (A) (A) (A) (A) (A) (A) (A) (A)
                 (A) (A) (A) (A) (A) (A) (A) (A) (A) (A) (A) (A)
                 (A) (A) (A) (A) (A) (A) (A) (A) (A) (A) (A) (A)
                 (A) (A) (A) (A) (A) (A) (A) (A) (A) (A) (A) (A)
       Virtual   (A) (A) (A) (A) (A) (A) (A) (A) (A) (A) (A) (A)
                 (A) (A) (A) (A) (A) (A) (A) (A) (A) (A) (A) (A)
                 (A) (A) (A) (A) (A) (A) (A) (A) (A) (A) (A) (A)
                 (A) (A) (A) (A) (A) (A) (A) (A) (A) (A) (A) (A)
                 (A) (A) (A) (A) (A) (A) (A) (A) (A) (A) (A) (A)
                 (A) (A) (A) (A) (A) (A) (A) (A) (A) (A) (A) (A)
                 (A) (A) (A) (A) (A) (A) (A) (A) (A) (A) (A) (A)
                 (A) (A) (A) (A) (A) (A) (A) (A) (A) (A) (A) (A)
                 (A) (A) (A) (A) (A) (A) (A) (A) (A) (A) (A) (A)
                 (A) (A) (A) (A) (A) (A) (A) (A) (A) (A) (A) (A)
                 (A) (A) (A) (A) (A) (A) (A) (A) (A) (A) (A) (A)
                 (A) (A) (A) (A) (A) (A) (A) (A) (A) (A) (A) (A)
                 (A) (A) (A) (A) (A) (A) (A) (A) (A) (A) (A) (A)
                 (A) (A) (A) (A) (A) (A) (A) (A) (A) (A) (A) (A)
                 (A) (A) (A) (A) (A) (A) (A) (A) (A) (A) (A) (A)
                 (A) (A) (A) (A) (A) (A) (A) (A) (A) (A) (A) (A)
                 (A) (A) (A) (A) (A) (A) (A) (A) (A) (A) (A) (A)
                 (A) (A) (A) (A) (A) (A) (A) (A) (A) (A) (A) (A)
                 (A) (A) (A) (A) (A) (A) (A) (A) (A) (A) (A) (A)
                 (A) (A) (A) (A) (A) (A) (A) (A) (A) (A) (A) (A)
                 (A) (A) (A) (A) (A) (A) (A) (A) (A) (A) (A) (A)
                 (A) (A) (A) (A) (A) (A) (A) (A) (A) (A) (A) (A)
                 (A) (A) (A) (A) (A) (A) (A) (A) (A) (A) (A) (A)
                 (A) (A) (A) (A) (A) (A) (A) (A) (A) (A) (A) (A)
                 (A) (A) (A) (A) (A) (A) (A) (A) (A) (A) (A) (A)
                 (A) (A) (A) (A) (A) (A) (A) (A) (A) (A) (A) (A)
                 (A) (A) (A) (A) (A) (A) (A) (A) (A) (A) (A) (A)
                 (A) (A) (A) (A) (A) (A) (A) (A) (A) (A) (A) (A)
                 (A) (A) (A) (A) (A) (A) (A) (A) (A) (A) (A) (A)
                 (A) (A) (A) (A) (A) (A) (A) (A) (A) (A) (A) (A)
                 (A) (A) (A) (A) (A) (A) (A) (A) (A) (A) (A) (A)
                 (A) (A) (A) (A) (A) (A) (A) (A) (A) (A) (A) (A)
                 (A) (A) (A) (A) (A) (A) (A) (A) (A) (A) (A) (A)
                 (A) (A) (A) (A) (A) (A) (A) (A) (A) (A) (A) (A)
                 (A) (A) (A) (A) (A) (A) (A) (A) (A) (A) (A) (A)
                 (A) (A) (A) (A) (A) (A) (A) (A) (A) (A) (A) (A)
                 (A) (A) (A) (A) (A) (A) (A) (A) (A) (A) (A) (A)
                 (A) (A) (A) (A) (A) (A) (A) (A) (A) (A) (A) (A)
                 (A) (A) (A) (A) (A) (A) (A) (A) (A) (A) (A) (A)
                 (A) (A) (A) (A) (A) (A) (A) (A) (A) (A) (A) (A)
                 (A) (A) (A) (A) (A) (A) (A) (A) (A) (A) (A) (A)
                 (A) (A) (A) (A) (A) (A) (A) (A) (A) (A) (A) (A)
                 (A) (A) (A) (A) (A) (A) (A) (A) (A) (A) (A) (A)
                 (A) (A) (A) (A) (A) (A) (A) (A) (A) (A) (A) (A)
                 (A) (A) (A) (A) (A) (A) (A) (A) (A) (A) (A) (A)
                 (A) (A) (A) (A) (A) (A) (A) (A) (A) (A) (A) (A)
                 (A) (A) (A) (A) (A) (A) (A) (A) (A) (A) (A) (A)
                 (A) (A) (A) (A) (A) (A) (A) (A) (A) (A) (A) (A)
                 (A) (A) (A) (A) (A) (A) (A) (A) (A) (A) (A) (A)
                 (A) (A) (A) (A) (A) (A) (A) (A) (A) (A) (A) (A)
                 (A) (A) (A) (A) (A) (A) (A) (A) (A) (A) (A) (A)
                 (A) (A) (A) (A) (A) (A) (A) (A) (A) (A) (A) (A)
                 (A) (A) (A) (A) (A) (A) (A) (A) (A) (A) (A) (A)
                 (A) (A) (A) (A) (A) (A) (A) (A) (A) (A) (A) (A)
                 (A) (A) (A) (A) (A) (A) (A) (A) (A) (A) (A) (A)
                 (A) (A) (A) (A) (A) (A) (A) (A) (A) (A) (A) (A)
                 (A) (A) (A) (A) (A) (A) (A) (A) (A) (A) (A) (A)
                 (A) (A) (A) (A) (A) (A) (A) (A) (A) (A) (A) (A)
                 (A) (A) (A) (A) (A) (A) (A) (A) (A) (A) (A) (A)
                 (A) (A) (A) (A) (A) (A) (A) (A) (A) (A) (A) (A)
                 (A) (A) (A) (A) (A) (A) (A) (A) (A) (A) (A) (A)
                 (A) (A) (A) (A) (A) (A) (A) (A) (A) (A) (A) (A)
                 (A) (A) (A) (A) (A) (A) (A) (A) (A) (A) (A) (A)
                 (A) (A) (A) (A) (A) (A) (A) (A) (A) (A) (A) (A)
                 (A) (A) (A) (A) (A) (A) (A) (A) (A) (A) (A) (A)
                 (A) (A) (A) (A) (A) (A) (A) (A) (A) (A) (A) (A)
                 (A) (A) (A) (A) (A) (A) (A) (A) (A) (A) (A) (A)
                 (A) (A) (A) (A) (A) (A) (A) (A) (A) (A) (A) (A)
                 (A) (A) (A) (A) (A) (A) (A) (A) (A) (A) (A) (A)
                 (A) (A) (A) (A) (A) (A) (A) (A) (A) (A) (A) (A)
                 (A) (A) (A) (A) (A) (A) (A) (A) (A) (A) (A) (A)
                 (A) (A) (A) (A) (A) (A) (A) (A) (A) (A) (A) (A)
                 (A) (A) (A) (A) (A) (A) (A) (A) (A) (A) (A) (A)
                 (A) (A) (A) (A) (A) (A) (A) (A) (A) (A) (A) (A)
                 (A) (A) (A) (A) (A) (A) (A) (A) (A) (A) (A) (A)
                 (A) (A) (A) (A) (A) (A) (A) (A) (A) (A) (A) (A)
                 (A) (A) (A) (A) (A) (A) (A) (A) (A) (A) (A) (A)
                 (A) (A) (A) (A) (A) (A) (A) (A) (A) (A) (A) (A)
                 (A) (A) (A) (A) (A) (A) (A) (A) (A) (A) (A) (A)
                 (A) (A) (A) (A) (A) (A) (A) (A) (A) (A) (A) (A)
                 (A) (A) (A) (A) (A) (A) (A) (A) (A) (A) (A) (A)
                 (A) (A) (A) (A) (A) (A) (A) (A) (A) (A) (A) (A)
                 (A) (A) (A) (A) (A) (A) (A) (A) (A) (A) (A) (A)
                 (A) (A) (A) (A) (A) (A) (A) (A) (A) (A) (A) (A)
                 (A) (A) (A) (A) (A) (A) (A) (A) (A) (A) (A) (A)
                 (A) (A) (A) (A) (A) (A) (A) (A) (A) (A) (A) (A)
                 (A) (A) (A) (A) (A) (A) (A) (A) (A) (A) (A) (A)
                 (A) (A) (A) (A) (A) (A) (A) (A) (A) (A) (A) (A)
                 (A) (A) (A) (A) (A) (A) (A) (A) (A) (A) (A) (A)
                 (A) (A) (A) (A) (A) (A) (A) (A) (A) (A) (A) (A)
                 (A) (A) (A) (A) (A) (A) (A) (A) (A) (A) (A) (A)
                 (A) (A) (A) (A) (A) (A) (A) (A) (A) (A) (A) (A)
                 (A) (A) (A) (A) (A) (A) (A) (A) (A) (A) (A) (A)
                 (A) (A) (A) (A) (A) (A) (A) (A) (A) (A) (A) (A)
                 (A) (A) (A) (A) (A) (A) (A) (A) (A) (A) (A) (A)
                 (A) (A) (A) (A) (A) (A) (A) (A) (A) (A) (A) (A)
                 (A) (A) (A) (A) (A) (A) (A) (A) (A) (A) (A) (A)
                 (A) (A) (A) (A) (A) (A) (A) (A) (A) (A) (A) (A)
                 (A) (A) (A) (A) (A) (A) (A) (A) (A) (A) (A) (A)
                 (A) (A) (A) (A) (A) (A) (A) (A) (A) (A) (A) (A)
                 (A) (A) (A) (A) (A) (A) (A) (A) (A) (A) (A) (A)
                 (A) (A) (A) (A) (A) (A) (A) (A) (A) (A) (A) (A)
                 (A) (A) (A) (A) (A) (A) (A) (A) (A) (A) (A) (A)
                 (A) (A) (A) (A) (A) (A) (A) (A) (A) (A) (A) (A)
                 (A) (A) (A) (A) (A) (A) (A) (A) (A) (A) (A) (A)
    20 initial guesses have been made.
 Convergence on wavefunction:    0.001000000000000
 Davidson Disk Diagonalization:  ConvIn= 1.00D-03 SkipCon=T Conv= 1.00D-03.
 Max sub-space:  2000 roots to seek:    20 dimension of matrix:       549360
 Iteration     1 Dimension    20 NMult     0 NNew     20
 CISAX will form    20 AO SS matrices at one time.
 NMat=    20 NSing=    20 JSym2X= 0.
 FoFJK:  IHMeth= 1 ICntrl=       0 DoSepK=T KAlg= 0 I1Cent=           0 FoldK=F
 IRaf=         1 NMat=      40 IRICut=       1 DoRegI=T DoRafI=F ISym2E= 0 IDoP0=3 IntGTp=3.
 FoFCou: FMM=T IPFlag=           0 FMFlag=      100000 FMFlg1=        2001
         NFxFlg=           0 DoJE=F BraDBF=F KetDBF=F FulRan=T
         wScrn=  0.000000 ICntrl=       500 IOpCl=  0 I1Cent=           0 NGrid=           0
         NMat0=   20 NMatS0=     20 NMatT0=    0 NMatD0=   20 NMtDS0=    0 NMtDT0=    0
 Symmetry not used in FoFCou.
 FMM levels:  10  Number of levels for PrismC:   9
 New state      1 was old state      8
 New state      2 was old state      5
 New state      3 was old state      1
 New state      5 was old state      2
 Excitation Energies [eV] at current iteration:
 Root      1 :     2.614459544502551
 Root      2 :     2.619206191543233
 Root      3 :     2.680847516999401
 Root      4 :     2.689749810052026
 Root      5 :     3.065652202416537
 Root      6 :     3.067443759272412
 Root      7 :     3.628865545567031
 Root      8 :     3.669072939127995
 Root      9 :     3.735717846627033
 Root     10 :     3.759317108137833
 Root     11 :     3.861290662575124
 Root     12 :     3.868910278773094
 Root     13 :     4.304355494831546
 Root     14 :     4.305607127138757
 Root     15 :     4.978230231850350
 Root     16 :     5.000018966943890
 Root     17 :     5.272351303298261
 Root     18 :     5.294255617740827
 Root     19 :     5.304476993317961
 Root     20 :     5.328357783654309
 Iteration     2 Dimension    30 NMult    20 NNew     10
 CISAX will form    10 AO SS matrices at one time.
 NMat=    10 NSing=    10 JSym2X= 0.
 New state      1 was old state      3
 Root      1 not converged, maximum delta is    0.190745867887090
 New state      2 was old state      4
 Root      2 not converged, maximum delta is    0.191959804206347
 New state      3 was old state      2
 Root      3 not converged, maximum delta is    0.067240271022684
 New state      4 was old state      1
 Root      4 not converged, maximum delta is    0.089758284717210
 Root      5 has converged.
 Excitation Energies [eV] at current iteration:
 Root      1 :     1.801524823845521   Change is   -0.879322693153881
 Root      2 :     1.807200581645891   Change is   -0.882549228406135
 Root      3 :     2.235836393996737   Change is   -0.383369797546496
 Root      4 :     2.239080493457284   Change is   -0.375379051045267
 Root      5 :     3.065646039906543   Change is   -0.000006162509994
 Iteration     3 Dimension    38 NMult    30 NNew      8
 CISAX will form     8 AO SS matrices at one time.
 NMat=     8 NSing=     8 JSym2X= 0.
 Root      1 not converged, maximum delta is    0.071947071097966
 Root      2 not converged, maximum delta is    0.073115414126465
 Root      3 not converged, maximum delta is    0.043931098076660
 Root      4 not converged, maximum delta is    0.042575470084463
 Root      5 has converged.
 Excitation Energies [eV] at current iteration:
 Root      1 :     1.694287167452024   Change is   -0.107237656393497
 Root      2 :     1.698804819283867   Change is   -0.108395762362025
 Root      3 :     2.194390058430310   Change is   -0.041446335566427
 Root      4 :     2.200174030561765   Change is   -0.038906462895519
 Root      5 :     3.065646039906570   Change is    0.000000000000027
 Iteration     4 Dimension    46 NMult    38 NNew      8
 CISAX will form     8 AO SS matrices at one time.
 NMat=     8 NSing=     8 JSym2X= 0.
 Root      1 not converged, maximum delta is    0.013390296487240
 Root      2 not converged, maximum delta is    0.013664235407808
 Root      3 not converged, maximum delta is    0.009723237835364
 Root      4 not converged, maximum delta is    0.008907813606805
 Root      5 has converged.
 Excitation Energies [eV] at current iteration:
 Root      1 :     1.677580873462170   Change is   -0.016706293989854
 Root      2 :     1.681917551490816   Change is   -0.016887267793051
 Root      3 :     2.187089459074345   Change is   -0.007300599355965
 Root      4 :     2.193396162332997   Change is   -0.006777868228768
 Root      5 :     3.065646039906516   Change is   -0.000000000000054
 Iteration     5 Dimension    54 NMult    46 NNew      8
 CISAX will form     8 AO SS matrices at one time.
 NMat=     8 NSing=     8 JSym2X= 0.
 Root      1 not converged, maximum delta is    0.002228287407923
 Root      2 not converged, maximum delta is    0.002226035081622
 Root      3 not converged, maximum delta is    0.002501013873387
 Root      4 not converged, maximum delta is    0.002389231265146
 Root      5 has converged.
 Excitation Energies [eV] at current iteration:
 Root      1 :     1.675801687330749   Change is   -0.001779186131421
 Root      2 :     1.680145529310521   Change is   -0.001772022180295
 Root      3 :     2.186243856236527   Change is   -0.000845602837818
 Root      4 :     2.192619310521407   Change is   -0.000776851811591
 Root      5 :     3.065646039906463   Change is   -0.000000000000054
 Iteration     6 Dimension    62 NMult    54 NNew      8
 CISAX will form     8 AO SS matrices at one time.
 NMat=     8 NSing=     8 JSym2X= 0.
 Root      1 not converged, maximum delta is    0.001400115880071
 Root      2 not converged, maximum delta is    0.001422147736018
 Root      3 not converged, maximum delta is    0.001068871855253
 Root      4 not converged, maximum delta is    0.001016266048346
 Root      5 has converged.
 Excitation Energies [eV] at current iteration:
 Root      1 :     1.675547982217461   Change is   -0.000253705113288
 Root      2 :     1.679890694394925   Change is   -0.000254834915596
 Root      3 :     2.186115745914948   Change is   -0.000128110321579
 Root      4 :     2.192501504806242   Change is   -0.000117805715165
 Root      5 :     3.065646039906650   Change is    0.000000000000188
 Iteration     7 Dimension    70 NMult    62 NNew      8
 CISAX will form     8 AO SS matrices at one time.
 NMat=     8 NSing=     8 JSym2X= 0.
 Root      1 has converged.
 Root      2 has converged.
 Root      3 has converged.
 Root      4 has converged.
 Root      5 has converged.
 Excitation Energies [eV] at current iteration:
 Root      1 :     1.675523832140137   Change is   -0.000024150077324
 Root      2 :     1.679867025341312   Change is   -0.000023669053612
[...]
 Alpha virt. eigenvalues --    1.84481   1.84488   1.84741   1.84848   1.85079
 Alpha virt. eigenvalues --    1.85140   1.85301   1.85312   1.85442   1.85519
 Alpha virt. eigenvalues --    1.85854   1.85905   1.86337   1.86397   1.86593
 Alpha virt. eigenvalues --    1.86606   1.86780   1.86821   1.86996   1.87077
 Alpha virt. eigenvalues --    1.87435   1.87483   1.87719   1.87724   1.87905
 Alpha virt. eigenvalues --    1.87968   1.88078   1.88132   1.88527   1.88574
 Alpha virt. eigenvalues --    1.88861   1.88891   1.89027   1.89163   1.89613
 Alpha virt. eigenvalues --    1.89663   1.89783   1.89831   1.90142   1.90156
 Alpha virt. eigenvalues --    1.90790   1.90847   1.91381   1.91387   1.91478
 Alpha virt. eigenvalues --    1.91542   1.92134   1.92192   1.92612   1.92665
 Alpha virt. eigenvalues --    1.93019   1.93103   1.93374   1.93456   1.94262
 Alpha virt. eigenvalues --    1.94320   1.94725   1.94769   1.95511   1.95547
 Alpha virt. eigenvalues --    1.95764   1.95766   1.96001   1.96034   1.96124
 Alpha virt. eigenvalues --    1.96189   1.96434   1.96632   1.96888   1.96937
 Alpha virt. eigenvalues --    1.97487   1.97494   1.97753   1.97873   1.98118
 Alpha virt. eigenvalues --    1.98208   1.98299   1.98715   1.99024   1.99174
 Alpha virt. eigenvalues --    1.99861   1.99882   2.00677   2.00697   2.01035
 Alpha virt. eigenvalues --    2.01047   2.01460   2.01520   2.01557   2.01710
 Alpha virt. eigenvalues --    2.01758   2.01774   2.02661   2.02823   2.03094
 Alpha virt. eigenvalues --    2.03272   2.03329   2.03442   2.03470   2.03523
 Alpha virt. eigenvalues --    2.03976   2.04073   2.04928   2.04995   2.05551
 Alpha virt. eigenvalues --    2.05581   2.06116   2.06237   2.06942   2.06981
 Alpha virt. eigenvalues --    2.07221   2.07297   2.08506   2.08621   2.08954
 Alpha virt. eigenvalues --    2.09019   2.09561   2.09628   2.10814   2.10986
 Alpha virt. eigenvalues --    2.11220   2.11357   2.11480   2.11577   2.11765
 Alpha virt. eigenvalues --    2.11814   2.12413   2.12503   2.12751   2.12818
 Alpha virt. eigenvalues --    2.12841   2.12872   2.13577   2.13806   2.14172
 Alpha virt. eigenvalues --    2.14204   2.15356   2.15373   2.15963   2.16029
 Alpha virt. eigenvalues --    2.16542   2.16558   2.16791   2.17121   2.17453
 Alpha virt. eigenvalues --    2.17600   2.17741   2.17881   2.17954   2.18105
 Alpha virt. eigenvalues --    2.18362   2.18619   2.18906   2.19181   2.19678
 Alpha virt. eigenvalues --    2.19766   2.20076   2.20190   2.20248   2.20385
 Alpha virt. eigenvalues --    2.21124   2.21185   2.21706   2.21711   2.21781
 Alpha virt. eigenvalues --    2.21822   2.22649   2.22716   2.23290   2.23349
 Alpha virt. eigenvalues --    2.24367   2.24430   2.24954   2.24993   2.26336
 Alpha virt. eigenvalues --    2.26386   2.26815   2.26955   2.27139   2.27148
 Alpha virt. eigenvalues --    2.28174   2.28260   2.29304   2.29384   2.29771
 Alpha virt. eigenvalues --    2.29825   2.30492   2.30566   2.30769   2.31118
 Alpha virt. eigenvalues --    2.31148   2.31219   2.32155   2.32187   2.33171
 Alpha virt. eigenvalues --    2.33179   2.33429   2.33497   2.34087   2.34174
 Alpha virt. eigenvalues --    2.35243   2.35408   2.35833   2.35854   2.36278
 Alpha virt. eigenvalues --    2.36386   2.36396   2.36659   2.37624   2.37692
 Alpha virt. eigenvalues --    2.38291   2.38328   2.38725   2.38893   2.39612
 Alpha virt. eigenvalues --    2.39646   2.40213   2.40216   2.40521   2.40770
 Alpha virt. eigenvalues --    2.41155   2.41305   2.41639   2.41720   2.42070
 Alpha virt. eigenvalues --    2.42075   2.42768   2.42976   2.43008   2.43572
 Alpha virt. eigenvalues --    2.43919   2.44204   2.44748   2.44765   2.44930
 Alpha virt. eigenvalues --    2.44938   2.45513   2.45581   2.46227   2.46334
 Alpha virt. eigenvalues --    2.46438   2.46512   2.46739   2.46834   2.47287
 Alpha virt. eigenvalues --    2.47319   2.47747   2.47828   2.49336   2.49342
 Alpha virt. eigenvalues --    2.49835   2.50101   2.50397   2.50581   2.51155
 Alpha virt. eigenvalues --    2.51204   2.51550   2.51920   2.52333   2.52474
 Alpha virt. eigenvalues --    2.52843   2.53100   2.53909   2.53951   2.54181
 Alpha virt. eigenvalues --    2.54223   2.54744   2.54821   2.55551   2.55604
 Alpha virt. eigenvalues --    2.57897   2.58015   2.58676   2.58840   2.60233
 Alpha virt. eigenvalues --    2.60241   2.60646   2.60857   2.61743   2.61756
 Alpha virt. eigenvalues --    2.62364   2.62566   2.62988   2.63059   2.63969
 Alpha virt. eigenvalues --    2.64151   2.64275   2.64362   2.65032   2.65111
 Alpha virt. eigenvalues --    2.65792   2.65820   2.66754   2.66809   2.66942
 Alpha virt. eigenvalues --    2.66988   2.67912   2.67940   2.68751   2.68890
 Alpha virt. eigenvalues --    2.68960   2.69057   2.69421   2.69524   2.70030
 Alpha virt. eigenvalues --    2.70068   2.70996   2.71012   2.71822   2.72086
 Alpha virt. eigenvalues --    2.72419   2.72662   2.72686   2.72863   2.73217
 Alpha virt. eigenvalues --    2.73306   2.73393   2.73567   2.74435   2.74543
 Alpha virt. eigenvalues --    2.74981   2.75007   2.76448   2.76622   2.76991
 Alpha virt. eigenvalues --    2.77264   2.77487   2.77531   2.78220   2.78223
 Alpha virt. eigenvalues --    2.78616   2.78762   2.79080   2.79166   2.80191
 Alpha virt. eigenvalues --    2.80376   2.80612   2.80622   2.81074   2.81147
 Alpha virt. eigenvalues --    2.81911   2.81966   2.82259   2.82372   2.83772
 Alpha virt. eigenvalues --    2.83784   2.83798   2.83826   2.84451   2.84576
 Alpha virt. eigenvalues --    2.84809   2.84913   2.85616   2.85698   2.86581
 Alpha virt. eigenvalues --    2.87027   2.87094   2.87641   2.88161   2.88185
 Alpha virt. eigenvalues --    2.88538   2.88539   2.88793   2.88965   2.90529
 Alpha virt. eigenvalues --    2.90580   2.90990   2.91218   2.93187   2.93241
 Alpha virt. eigenvalues --    2.93691   2.94230   2.94496   2.94587   2.95391
 Alpha virt. eigenvalues --    2.95401   2.95756   2.96236   2.96295   2.96471
 Alpha virt. eigenvalues --    2.96789   2.97211   2.97850   2.97953   2.98239
 Alpha virt. eigenvalues --    2.98275   2.98396   2.98492   2.98633   2.98698
 Alpha virt. eigenvalues --    2.98842   2.98913   2.99615   2.99722   2.99934
 Alpha virt. eigenvalues --    3.00064   3.00252   3.00257   3.00494   3.00911
 Alpha virt. eigenvalues --    3.01822   3.02019   3.02034   3.02064   3.02740
 Alpha virt. eigenvalues --    3.02767   3.03011   3.03236   3.03358   3.03626
 Alpha virt. eigenvalues --    3.03971   3.04200   3.04350   3.04481   3.04578
 Alpha virt. eigenvalues --    3.04646   3.05272   3.05325   3.06084   3.06144
 Alpha virt. eigenvalues --    3.06837   3.06855   3.07842   3.08175   3.09278
 Alpha virt. eigenvalues --    3.09434   3.09726   3.10348   3.10475   3.10655
 Alpha virt. eigenvalues --    3.11360   3.11401   3.11820   3.11977   3.12205
 Alpha virt. eigenvalues --    3.12220   3.13316   3.13565   3.13608   3.13670
 Alpha virt. eigenvalues --    3.14127   3.14389   3.15909   3.15950   3.17296
 Alpha virt. eigenvalues --    3.17436   3.17799   3.18109   3.18950   3.19159
 Alpha virt. eigenvalues --    3.22341   3.22511   3.23980   3.24354   3.24708
 Alpha virt. eigenvalues --    3.25107   3.26538   3.26573   3.27311   3.27654
 Alpha virt. eigenvalues --    3.29136   3.29137   3.31295   3.31558   3.33101
 Alpha virt. eigenvalues --    3.33452   3.40174   3.40668   3.42736   3.42849
 Alpha virt. eigenvalues --    3.48612   3.48693   3.50056   3.50198   3.50753
 Alpha virt. eigenvalues --    3.51509   3.56584   3.56922   3.59133   3.59257
 Alpha virt. eigenvalues --    3.62431   3.62872   3.66035   3.66218   3.67223
 Alpha virt. eigenvalues --    3.67456   3.73308   3.73934   3.76093   3.76593
          Condensed to atoms (all electrons):
 Mulliken charges:
               1
     1  Mg   0.838679
     2  C   -0.002961
     3  C   -0.094114
     4  C   -0.045878
     5  C   -0.063949
     6  N   -0.256785
     7  C   -0.052430
     8  C   -0.014049
     9  C   -0.086989
    10  C    0.046323
    11  C    0.104814
    12  C    0.053470
    13  C   -0.071837
    14  H    0.036202
    15  N   -0.433125
    16  C    0.168414
    17  C   -0.177160
    18  C   -0.004015
    19  C    0.148706
    20  C    0.110181
    21  C    0.012269
    22  O   -0.249662
    23  C    0.062483
    24  N   -0.341123
    25  C    0.041242
    26  C   -0.028178
    27  C   -0.023971
    28  C    0.074826
    29  C    0.076185
    30  C    0.035134
    31  C   -0.004501
    32  N   -0.310458
    33  C    0.080399
    34  C   -0.169715
    35  C    0.008377
    36  C    0.082997
    37  C    0.127312
    38  C    0.046120
    39  O   -0.188409
    40  C   -0.005320
    41  C    0.212887
    42  O   -0.257097
    43  O   -0.304801
    44  C    0.157677
    45  H   -0.017593
    46  H   -0.016870
    47  H   -0.041502
    48  H    0.000958
    49  H   -0.004012
    50  H    0.025480
    51  H    0.016431
    52  H    0.016675
    53  H    0.011202
    54  H    0.044132
    55  H    0.017878
    56  H    0.017960
    57  H    0.005896
    58  H    0.026812
    59  H    0.039540
    60  H    0.037356
    61  H    0.035600
    62  H    0.031497
    63  H    0.016522
    64  H    0.009460
    65  H    0.023180
    66  H    0.012553
    67  H    0.004750
    68  H    0.006339
    69  H    0.004735
    70  H    0.008750
    71  H    0.018129
    72  H    0.029006
    73  H    0.047582
    74  H    0.009099
    75  H    0.046016
    76  H    0.035164
    77  H    0.042970
    78  H    0.046421
    79  H    0.053711
    80  Mg   0.837819
    81  C   -0.016847
    82  C   -0.087793
    83  C   -0.045484
    84  C   -0.064851
    85  N   -0.254576
    86  C   -0.049818
    87  C   -0.015113
    88  C   -0.090488
    89  C    0.045759
    90  C    0.114368
    91  C    0.062523
    92  C   -0.077884
    93  H    0.034874
    94  N   -0.423493
    95  C    0.162933
    96  C   -0.174609
    97  C   -0.007789
    98  C    0.152114
    99  C    0.099362
   100  C    0.015595
   101  O   -0.253144
   102  C    0.061181
   103  N   -0.350049
   104  C    0.037545
   105  C   -0.019858
   106  C   -0.034814
   107  C    0.088903
   108  C    0.073627
   109  C    0.034735
   110  C   -0.007690
   111  N   -0.324101
   112  C    0.078437
   113  C   -0.163119
   114  C    0.002247
   115  C    0.096193
   116  C    0.131492
   117  C    0.042373
   118  O   -0.187900
   119  C    0.000912
   120  C    0.211276
   121  O   -0.251026
   122  O   -0.305638
   123  C    0.152040
   124  H   -0.019650
   125  H   -0.015534
   126  H   -0.040420
   127  H   -0.000667
   128  H   -0.004334
   129  H    0.022463
   130  H    0.014469
   131  H    0.016276
   132  H    0.013924
   133  H    0.037676
   134  H    0.020771
   135  H    0.019592
   136  H    0.008757
   137  H    0.026182
   138  H    0.039796
   139  H    0.038273
   140  H    0.036424
   141  H    0.033888
   142  H    0.014412
   143  H    0.012480
   144  H    0.025181
   145  H    0.011669
   146  H    0.005746
   147  H    0.006307
   148  H    0.003665
   149  H    0.010943
   150  H    0.017935
   151  H    0.030076
   152  H    0.045992
   153  H    0.008538
   154  H    0.046978
   155  H    0.035020
   156  H    0.043886
   157  H    0.049483
   158  H    0.053578
 Sum of Mulliken charges =  -0.00000
 Mulliken charges with hydrogens summed into heavy atoms:
               1
     1  Mg   0.838679
     2  C   -0.002961
     3  C   -0.111707
     4  C   -0.062748
     5  C   -0.105450
     6  N   -0.256785
     7  C   -0.052430
     8  C   -0.013091
     9  C   -0.091001
    10  C    0.046323
    11  C    0.163400
    12  C    0.108804
    13  C    0.000204
    15  N   -0.433125
    16  C    0.168414
    17  C   -0.177160
    18  C   -0.004015
    19  C    0.148706
    20  C    0.182429
    21  C    0.012269
    22  O   -0.249662
    23  C    0.166936
    24  N   -0.341123
    25  C    0.041242
    26  C   -0.011656
    27  C   -0.014511
    28  C    0.074826
    29  C    0.116668
    30  C    0.046209
    31  C    0.051384
    32  N   -0.310458
    33  C    0.080399
    34  C   -0.169715
    35  C    0.008377
    36  C    0.082997
    37  C    0.230009
    38  C    0.046120
    39  O   -0.188409
    40  C    0.029844
    41  C    0.212887
    42  O   -0.257097
    43  O   -0.304801
    44  C    0.300779
    80  Mg   0.837819
    81  C   -0.016847
    82  C   -0.107442
    83  C   -0.061019
    84  C   -0.105271
    85  N   -0.254576
    86  C   -0.049818
    87  C   -0.015780
    88  C   -0.094822
    89  C    0.045759
    90  C    0.167577
    91  C    0.114123
    92  C   -0.002646
    94  N   -0.423493
    95  C    0.162933
    96  C   -0.174609
    97  C   -0.007789
    98  C    0.152114
    99  C    0.174098
   100  C    0.015595
   101  O   -0.253144
   102  C    0.169766
   103  N   -0.350049
   104  C    0.037545
   105  C   -0.005447
   106  C   -0.022334
   107  C    0.088903
   108  C    0.116223
   109  C    0.044707
   110  C    0.051263
   111  N   -0.324101
   112  C    0.078437
   113  C   -0.163119
   114  C    0.002247
   115  C    0.096193
   116  C    0.233000
   117  C    0.042373
   118  O   -0.187900
   119  C    0.035932
   120  C    0.211276
   121  O   -0.251026
   122  O   -0.305638
   123  C    0.298987
 Electronic spatial extent (au):  <R**2>=         614487.8747
 Charge=             -0.0000 electrons
 Dipole moment (field-independent basis, Debye):
    X=             -3.8126    Y=              1.9855    Z=              6.5801  Tot=              7.8597
 Quadrupole moment (field-independent basis, Debye-Ang):
   XX=           -517.2009   YY=           -518.0997   ZZ=           -480.7466
   XY=             72.7873   XZ=            -22.3222   YZ=            -17.2349
 Traceless Quadrupole moment (field-independent basis, Debye-Ang):
   XX=            -11.8518   YY=            -12.7507   ZZ=             24.6025
   XY=             72.7873   XZ=            -22.3222   YZ=            -17.2349
 Octapole moment (field-independent basis, Debye-Ang**2):
  XXX=          -2896.2787  YYY=            -57.5547  ZZZ=            219.6201  XYY=           -713.3561
  XXY=            539.9974  XXZ=           1611.0064  XZZ=            719.2348  YZZ=           -104.1702
  YYZ=             28.3164  XYZ=            774.6396
 Hexadecapole moment (field-independent basis, Debye-Ang**3):
 XXXX=        -787325.6638 YYYY=         -36400.1442 ZZZZ=         -29660.5384 XXXY=          21040.5976
 XXXZ=          -4784.8742 YYYX=           3785.9040 YYYZ=            492.2177 ZZZX=          -2858.8447
 ZZZY=           -927.3885 XXYY=        -137450.5627 XXZZ=        -126728.4852 YYZZ=         -11190.5076
 XXYZ=          -4832.6881 YYXZ=           4583.3165 ZZXY=          -1745.9688
 N-N= 1.230616085679D+04 E-N=-3.409314916841D+04  KE= 4.028802024757D+03
 Leave Link  601 at Sun Sep 12 17:15:50 2021, MaxMem= 23488102400 cpu:              13.5 elap:               0.7
 (Enter /sw/apps/gaussian-16.0/g16/l9999.exe)
 1\1\GINC-BP1-COMPUTE00082\SP\RCAM-B3LYP TD-FC\def2SVP\C68H72Mg2N8O8\OF
 15641\12-Sep-2021\0\\#p cam-b3lyp/Def2SVP td=(nstates=5)\\TDDFT excite
 d states in gaussian\\0,1\Mg,0,0.,0.,0.\C,0,-0.217,-2.218,2.801\C,0,-1
 .255,2.442,2.026\C,0,-0.245,1.85,-2.564\C,0,0.146,-2.824,-2.037\N,0,-0
 .617,-0.009,2.126\C,0,-0.594,-0.908,3.105\C,0,-0.936,-0.309,4.502\C,0,
 -1.773,0.964,4.032\C,0,-1.155,1.168,2.66\C,0,-3.263,0.685,3.863\C,0,0.
 345,0.11,5.299\C,0,0.124,0.397,6.787\H,0,1.168,0.033,7.733\N,0,-0.185,
 1.961,-0.152\C,0,-0.703,2.8,0.777\C,0,-0.62,4.156,0.193\C,0,-0.187,4.0
 15,-1.225\C,0,-0.214,2.583,-1.38\C,0,-0.887,5.406,0.974\C,0,0.181,5.01
 3,-2.277\O,0,0.303,4.69,-3.508\C,0,0.31,6.414,-1.837\N,0,-0.265,-0.413
 ,-2.029\C,0,-0.279,0.569,-2.937\C,0,-0.196,0.024,-4.332\C,0,0.124,-1.5
 33,-4.18\C,0,0.086,-1.632,-2.635\C,0,-1.451,0.205,-5.197\C,0,1.373,-2.
 07,-4.923\C,0,2.626,-1.49,-4.306\N,0,0.15,-2.144,0.303\C,0,0.173,-3.13
 6,-0.688\C,0,0.173,-4.438,0.004\C,0,0.133,-4.111,1.358\C,0,0.083,-2.69
 5,1.502\C,0,0.149,-5.715,-0.623\C,0,0.096,-4.629,2.716\O,0,0.208,-5.74
 7,3.221\C,0,-0.255,-3.428,3.701\C,0,0.717,-3.482,4.848\O,0,1.931,-3.25
 5,4.669\O,0,0.038,-3.556,6.003\C,0,0.943,-3.583,7.183\H,0,-1.859,3.22,
 2.497\H,0,-0.218,2.453,-3.474\H,0,0.276,-3.747,-2.605\H,0,-1.554,-0.94
 9,5.132\H,0,-1.585,1.831,4.665\H,0,-3.484,-0.377,3.969\H,0,-3.511,1.02
 7,2.858\H,0,-3.852,1.301,4.543\H,0,0.669,1.096,4.966\H,0,1.13,-0.639,5
 .189\H,0,-0.844,0.026,7.125\H,0,0.062,1.477,6.921\H,0,-1.344,5.186,1.9
 38\H,0,-1.651,5.963,0.432\H,0,0.007,6.02,1.084\H,0,-0.635,6.744,-1.405
 \H,0,0.665,6.97,-2.704\H,0,1.048,6.466,-1.036\H,0,0.608,0.501,-4.891\H
 ,0,-0.692,-2.156,-4.547\H,0,-1.267,0.74,-6.129\H,0,-2.204,0.714,-4.596
 \H,0,-1.967,-0.72,-5.453\H,0,1.356,-1.759,-5.967\H,0,1.452,-3.157,-4.9
 02\H,0,2.714,-0.522,-4.798\H,0,3.487,-2.121,-4.529\H,0,2.495,-1.303,-3
 .24\H,0,0.867,-6.333,-0.084\H,0,0.404,-5.642,-1.68\H,0,-0.891,-5.999,-
 0.463\H,0,-1.283,-3.581,4.028\H,0,0.698,-4.478,7.755\H,0,0.833,-2.619,
 7.68\H,0,2.,-3.754,6.976\Mg,0,31.53921,2.84696,2.39413\C,0,30.93748,4.
 66331,5.43023\C,0,30.53358,5.63361,0.7036\C,0,31.6271,1.13703,-0.27717
 \C,0,31.39042,-0.08034,4.27946\N,0,30.84894,4.83027,3.08857\C,0,30.719
 92,5.42655,4.26422\C,0,30.4144,6.94638,4.18448\C,0,29.75738,6.98304,2.
 71961\C,0,30.44473,5.76156,2.1128\C,0,28.25836,6.73359,2.72595\C,0,31.
 71474,7.82185,4.25288\C,0,31.47354,9.31408,4.49123\H,0,32.43419,10.053
 02,5.30584\N,0,31.61454,3.42933,0.49841\C,0,31.18229,4.6022,-0.01033\C
 ,0,31.44391,4.53431,-1.45639\C,0,31.91444,3.16099,-1.78399\C,0,31.7126
 9,2.50211,-0.50913\C,0,31.31926,5.72453,-2.36262\C,0,32.44467,2.53981,
 -3.04065\O,0,32.56922,1.27008,-3.16351\C,0,32.72573,3.45508,-4.15634\N
 ,0,31.30267,0.81732,2.01081\C,0,31.44154,0.32806,0.76611\C,0,31.5017,-
 1.1808,0.77666\C,0,31.61777,-1.59538,2.31686\C,0,31.51008,-0.19721,2.9
 6409\C,0,30.30903,-1.89854,0.14518\C,0,32.81429,-2.50314,2.7131\C,0,34
 .11208,-1.7436,2.55737\N,0,31.40854,2.35408,4.49366\C,0,31.33264,1.064
 47,5.06397\C,0,31.14155,1.24203,6.51806\C,0,31.09612,2.63359,6.69121\C
 ,0,31.22792,3.27752,5.43126\C,0,30.98704,0.19572,7.47068\C,0,30.95598,
 3.70404,7.65204\O,0,30.89926,3.76775,8.87942\C,0,30.7202,5.0636,6.8631
 2\C,0,31.63644,6.10408,7.44656\O,0,32.8703,5.99145,7.33924\O,0,30.9060
 7,7.16294,7.84121\C,0,31.77169,8.2265,8.41685\H,0,30.02257,6.36985,0.0
 8255\H,0,31.76312,0.50028,-1.15439\H,0,31.43291,-0.94255,4.94839\H,0,2
 9.70446,7.30618,4.91953\H,0,30.03924,7.88511,2.18277\H,0,27.90048,6.45
 476,3.70591\H,0,28.09068,5.93119,2.01949\H,0,27.72979,7.60329,2.32525\
 H,0,32.17198,7.86233,3.25586\H,0,32.39109,7.44224,4.99388\H,0,30.44905
 ,9.51775,4.82572\H,0,31.55161,9.83545,3.5341\H,0,30.79627,6.55292,-1.8
 6901\H,0,30.65408,5.43363,-3.18285\H,0,32.27841,6.03853,-2.77987\H,0,3
 1.81693,3.98944,-4.4228\H,0,33.18049,2.83762,-4.9334\H,0,33.44599,4.20
 832,-3.81799\H,0,32.37868,-1.53655,0.24992\H,0,30.73919,-2.16562,2.652
 65\H,0,30.59615,-2.58423,-0.67425\H,0,29.61083,-1.15245,-0.21037\H,0,2
 9.69801,-2.47556,0.83721\H,0,32.87563,-3.3633,2.04189\H,0,32.74758,-2.
 88843,3.72507\H,0,34.33517,-1.85211,1.49175\H,0,34.89247,-2.18869,3.17
 132\H,0,33.96925,-0.67527,2.75714\H,0,31.59416,0.46118,8.32592\H,0,31.
 2817,-0.76609,7.05613\H,0,29.91009,0.25279,7.65011\H,0,29.66945,5.3318
 5,6.9794\H,0,31.39047,8.44052,9.42012\H,0,31.75431,9.05502,7.68405\H,0
 ,32.80273,7.97157,8.63231\\Version=ES64L-G16RevA.03\State=1-A\HF=-4069
 .8117766\RMSD=4.554e-09\PG=C01 [X(C68H72Mg2N8O8)]\\@


 I WISH TO HAVE NO CONNECTION WITH ANY SHIP THAT DOES NOT SAIL FAST,
 FOR I INTEND TO GO IN HARM'S WAY.
     -- JOHN PAUL JONES, USN 1747-1792
 Job cpu time:       0 days 10 hours 17 minutes 15.6 seconds.
 Elapsed time:       0 days  0 hours 26 minutes 18.5 seconds.
 File lengths (MBytes):  RWF=  13225 Int=      0 D2E=      0 Chk=    574 Scr=      1
 Normal termination of Gaussian 16 at Sun Sep 12 17:15:51 2021.
