 Entering Gaussian System, Link 0=g16
 Initial command:
 /sw/apps/gaussian-16.0/g16/l1.exe "/tmp/Gau-39822.inp" -scrdir="/tmp/"
 Entering Link 1 = /sw/apps/gaussian-16.0/g16/l1.exe PID=     39823.
  
 Copyright (c) 1988,1990,1992,1993,1995,1998,2003,2009,2016,
            Gaussian, Inc.  All Rights Reserved.
  
 This is part of the Gaussian(R) 16 program.  It is based on
 the Gaussian(R) 09 system (copyright 2009, Gaussian, Inc.),
 the Gaussian(R) 03 system (copyright 2003, Gaussian, Inc.),
 the Gaussian(R) 98 system (copyright 1998, Gaussian, Inc.),
 the Gaussian(R) 94 system (copyright 1995, Gaussian, Inc.),
 the Gaussian 92(TM) system (copyright 1992, Gaussian, Inc.),
 the Gaussian 90(TM) system (copyright 1990, Gaussian, Inc.),
 the Gaussian 88(TM) system (copyright 1988, Gaussian, Inc.),
 the Gaussian 86(TM) system (copyright 1986, Carnegie Mellon
 University), and the Gaussian 82(TM) system (copyright 1983,
 Carnegie Mellon University). Gaussian is a federally registered
 trademark of Gaussian, Inc.
  
 This software contains proprietary and confidential information,
 including trade secrets, belonging to Gaussian, Inc.
  
 This software is provided under written license and may be
 used, copied, transmitted, or stored only in accord with that
 written license.
  
 The following legend is applicable only to US Government
 contracts under FAR:
  
                    RESTRICTED RIGHTS LEGEND
  
 Use, reproduction and disclosure by the US Government is
 subject to restrictions as set forth in subparagraphs (a)
 and (c) of the Commercial Computer Software - Restricted
 Rights clause in FAR 52.227-19.
  
 Gaussian, Inc.
 340 Quinnipiac St., Bldg. 40, Wallingford CT 06492
  
  
 ---------------------------------------------------------------
 Warning -- This program may not be used in any manner that
 competes with the business of Gaussian, Inc. or will provide
 assistance to any competitor of Gaussian, Inc.  The licensee
 of this program is prohibited from giving any competitor of
 Gaussian, Inc. access to this program.  By using this program,
 the user acknowledges that Gaussian, Inc. is engaged in the
 business of creating and licensing software in the field of
 computational chemistry and represents and warrants to the
 licensee that it is not a competitor of Gaussian, Inc. and that
 it will not use this program in any manner prohibited above.
 ---------------------------------------------------------------
  

 Cite this work as:
 Gaussian 16, Revision A.03,
 M. J. Frisch, G. W. Trucks, H. B. Schlegel, G. E. Scuseria, 
 M. A. Robb, J. R. Cheeseman, G. Scalmani, V. Barone, 
 G. A. Petersson, H. Nakatsuji, X. Li, M. Caricato, A. V. Marenich, 
 J. Bloino, B. G. Janesko, R. Gomperts, B. Mennucci, H. P. Hratchian, 
 J. V. Ortiz, A. F. Izmaylov, J. L. Sonnenberg, D. Williams-Young, 
 F. Ding, F. Lipparini, F. Egidi, J. Goings, B. Peng, A. Petrone, 
 T. Henderson, D. Ranasinghe, V. G. Zakrzewski, J. Gao, N. Rega, 
 G. Zheng, W. Liang, M. Hada, M. Ehara, K. Toyota, R. Fukuda, 
 J. Hasegawa, M. Ishida, T. Nakajima, Y. Honda, O. Kitao, H. Nakai, 
 T. Vreven, K. Throssell, J. A. Montgomery, Jr., J. E. Peralta, 
 F. Ogliaro, M. J. Bearpark, J. J. Heyd, E. N. Brothers, K. N. Kudin, 
 V. N. Staroverov, T. A. Keith, R. Kobayashi, J. Normand, 
 K. Raghavachari, A. P. Rendell, J. C. Burant, S. S. Iyengar, 
 J. Tomasi, M. Cossi, J. M. Millam, M. Klene, C. Adamo, R. Cammi, 
 J. W. Ochterski, R. L. Martin, K. Morokuma, O. Farkas, 
 J. B. Foresman, and D. J. Fox, Gaussian, Inc., Wallingford CT, 2016.
 
 ******************************************
 Gaussian 16:  ES64L-G16RevA.03 25-Dec-2016
                12-Sep-2021 
 ******************************************
 %nproc=24
 Will use up to   24 processors via shared memory.
 %mem=175gb
 -----------------------------------
 #p cam-b3lyp/Def2SVP td=(nstates=5)
 -----------------------------------
 1/38=1,172=1/1;
 2/12=2,17=6,18=5,40=1/2;
 3/5=43,7=101,11=9,25=1,30=1,74=-40/1,2,3,8;
 4//1;
 5/5=2,38=5/2;
 8/6=1,10=1,108=5/1;
 9/41=5,42=1,70=2/14;
 6/7=2,8=2,9=2,10=2/1;
 99/5=1,9=1/99;
 Leave Link    1 at Sun Sep 12 17:03:44 2021, MaxMem= 23488102400 cpu:               0.7 elap:               0.0
 (Enter /sw/apps/gaussian-16.0/g16/l101.exe)
 --------------------------------
 TDDFT excited states in gaussian
 --------------------------------
 Symbolic Z-matrix:
 Charge =  0 Multiplicity = 1
 Mg                    0.        0.        0. 
 C                    -0.217    -2.218     2.801 
 C                    -1.255     2.442     2.026 
 C                    -0.245     1.85     -2.564 
 C                     0.146    -2.824    -2.037 
 N                    -0.617    -0.009     2.126 
 C                    -0.594    -0.908     3.105 
 C                    -0.936    -0.309     4.502 
 C                    -1.773     0.964     4.032 
 C                    -1.155     1.168     2.66 
 C                    -3.263     0.685     3.863 
 C                     0.345     0.11      5.299 
 C                     0.124     0.397     6.787 
 H                     1.168     0.033     7.733 
 N                    -0.185     1.961    -0.152 
 C                    -0.703     2.8       0.777 
 C                    -0.62      4.156     0.193 
 C                    -0.187     4.015    -1.225 
 C                    -0.214     2.583    -1.38 
 C                    -0.887     5.406     0.974 
 C                     0.181     5.013    -2.277 
 O                     0.303     4.69     -3.508 
 C                     0.31      6.414    -1.837 
 N                    -0.265    -0.413    -2.029 
 C                    -0.279     0.569    -2.937 
 C                    -0.196     0.024    -4.332 
 C                     0.124    -1.533    -4.18 
 C                     0.086    -1.632    -2.635 
 C                    -1.451     0.205    -5.197 
 C                     1.373    -2.07     -4.923 
 C                     2.626    -1.49     -4.306 
 N                     0.15     -2.144     0.303 
 C                     0.173    -3.136    -0.688 
 C                     0.173    -4.438     0.004 
 C                     0.133    -4.111     1.358 
 C                     0.083    -2.695     1.502 
 C                     0.149    -5.715    -0.623 
 C                     0.096    -4.629     2.716 
 O                     0.208    -5.747     3.221 
 C                    -0.255    -3.428     3.701 
 C                     0.717    -3.482     4.848 
 O                     1.931    -3.255     4.669 
 O                     0.038    -3.556     6.003 
 C                     0.943    -3.583     7.183 
 H                    -1.859     3.22      2.497 
 H                    -0.218     2.453    -3.474 
 H                     0.276    -3.747    -2.605 
 H                    -1.554    -0.949     5.132 
 H                    -1.585     1.831     4.665 
 H                    -3.484    -0.377     3.969 
 H                    -3.511     1.027     2.858 
 H                    -3.852     1.301     4.543 
 H                     0.669     1.096     4.966 
 H                     1.13     -0.639     5.189 
 H                    -0.844     0.026     7.125 
 H                     0.062     1.477     6.921 
 H                    -1.344     5.186     1.938 
 H                    -1.651     5.963     0.432 
 H                     0.007     6.02      1.084 
 H                    -0.635     6.744    -1.405 
 H                     0.665     6.97     -2.704 
 H                     1.048     6.466    -1.036 
 H                     0.608     0.501    -4.891 
 H                    -0.692    -2.156    -4.547 
 H                    -1.267     0.74     -6.129 
 H                    -2.204     0.714    -4.596 
 H                    -1.967    -0.72     -5.453 
 H                     1.356    -1.759    -5.967 
 H                     1.452    -3.157    -4.902 
 H                     2.714    -0.522    -4.798 
 H                     3.487    -2.121    -4.529 
 H                     2.495    -1.303    -3.24 
 H                     0.867    -6.333    -0.084 
 H                     0.404    -5.642    -1.68 
 H                    -0.891    -5.999    -0.463 
 H                    -1.283    -3.581     4.028 
 H                     0.698    -4.478     7.755 
 H                     0.833    -2.619     7.68 
 H                     2.       -3.754     6.976 
 Mg                    31.52886   2.84312   2.40427 
 C                     29.29327   0.26875   3.52403 
 C                     28.83414   4.93187   2.30331 
 C                     33.37879   4.99992   0.9924 
 C                     33.76233   0.32169   1.51001 
 N                     29.39163   2.52496   2.87679 
 C                     28.66907   1.52187   3.35226 
 C                     27.21425   1.90285   3.73688 
 C                     27.04302   3.1869    2.78779 
 C                     28.5082   3.60213   2.67165 
 C                     26.53208   2.84433   1.39821 
 C                     27.07753   2.2863    5.25223 
 C                     25.63894   2.36929   5.76732 
 H                     25.36481   1.9459    7.13775 
 N                     31.29233   4.80319   2.20249 
 C                     30.12904   5.4873    2.20815 
 C                     30.49115   6.89842   2.00377 
 C                     31.94873   6.9712    1.71243 
 C                     32.26609   5.56157   1.60151 
 C                     29.51039   8.02256   2.1706 
 C                     32.89713   8.11981   1.54676 
 O                     34.07237   7.95802   1.0615 
 C                     32.37668   9.45332   1.88199 
 N                     33.21921   2.6822    1.20463 
 C                     33.86227   3.7784    0.76559 
 C                     35.19716   3.42063   0.15694 
 C                     35.42448   1.87485   0.49819 
 C                     34.08214   1.57028   1.19872 
 C                     35.31817   3.63154  -1.35212 
 C                     36.74213   1.5024    1.23151 
 C                     36.73197   2.0715    2.63201 
 N                     31.63618   0.69973   2.65418 
 C                     32.64688  -0.1648    2.1797 
 C                     32.22296  -1.54445   2.49479 
 C                     30.97438  -1.38702   3.11508 
 C                     30.63427  -0.00809   3.16373 
 C                     32.93815  -2.73022   2.16528 
 C                     29.86192  -2.07456   3.73023 
 O                     29.6294  -3.24026   4.04774 
 C                     28.66631  -1.04256   3.90875 
 C                     28.13767  -1.18202   5.31004 
 O                     28.84613  -0.87832   6.28598 
 O                     26.81841  -1.44158   5.2595 
 C                     26.24622  -1.57748   6.62549 
 H                     28.02462   5.60466   2.01884 
 H                     34.10337   5.71011   0.58732 
 H                     34.44812  -0.51336   1.35171 
 H                     26.46887   1.15624   3.49038 
 H                     26.46372   3.96545   3.27731 
 H                     26.48058   1.77741   1.23958 
 H                     27.23216   3.29614   0.70771 
 H                     25.57155   3.33551   1.21806 
 H                     27.38571   3.33117   5.3864 
 H                     27.64357   1.61451   5.8678 
 H                     24.92532   1.90933   5.07297 
 H                     25.342    3.42039   5.79957 
 H                     28.47916   7.65218   2.22336 
 H                     29.54024   8.6125    1.24813 
 H                     29.75403   8.67246   3.01377 
 H                     31.50603   9.66642   1.26635 
 H                     33.22674   10.13152   1.78551 
 H                     32.03184   9.443     2.92198 
 H                     35.99452   4.00046   0.6054 
 H                     35.45179   1.25658  -0.41111 
 H                     36.15129   4.30292  -1.63358 
 H                     34.37702   4.01889  -1.71918 
 H                     35.43748   2.72144  -1.93751 
 H                     37.5989   1.9492    0.72115 
 H                     36.92002   0.43347   1.28387 
 H                     37.06414   3.10307   2.48162 
 H                     37.42065   1.52453   3.27278 
 H                     35.71295   2.10867   3.03434 
 H                     32.89793  -3.37034   3.03656 
 H                     33.96468  -2.50918   1.88043 
 H                     32.34504  -3.08689   1.31894 
 H                     27.91066  -1.28395   3.16022 
 H                     25.75364  -2.55374   6.66988 
 H                     25.60957  -0.68489   6.77287 
 H                     26.94026  -1.6529    7.45439 
 
 ITRead=  0  0  0  0  0  0  0  0  0  0  0  0  0  0  0  0  0  0  0  0
 ITRead=  0  0  0  0  0  0  0  0  0  0  0  0  0  0  0  0  0  0  0  0
 ITRead=  0  0  0  0  0  0  0  0  0  0  0  0  0  0  0  0  0  0  0  0
 ITRead=  0  0  0  0  0  0  0  0  0  0  0  0  0  0  0  0  0  0  0  0
 ITRead=  0  0  0  0  0  0  0  0  0  0  0  0  0  0  0  0  0  0  0  0
 ITRead=  0  0  0  0  0  0  0  0  0  0  0  0  0  0  0  0  0  0  0  0
 ITRead=  0  0  0  0  0  0  0  0  0  0  0  0  0  0  0  0  0  0  0  0
 ITRead=  0  0  0  0  0  0  0  0  0  0  0  0  0  0  0  0  0  0
 MicOpt= -1 -1 -1 -1 -1 -1 -1 -1 -1 -1 -1 -1 -1 -1 -1 -1 -1 -1 -1 -1
 MicOpt= -1 -1 -1 -1 -1 -1 -1 -1 -1 -1 -1 -1 -1 -1 -1 -1 -1 -1 -1 -1
 MicOpt= -1 -1 -1 -1 -1 -1 -1 -1 -1 -1 -1 -1 -1 -1 -1 -1 -1 -1 -1 -1
 MicOpt= -1 -1 -1 -1 -1 -1 -1 -1 -1 -1 -1 -1 -1 -1 -1 -1 -1 -1 -1 -1
 MicOpt= -1 -1 -1 -1 -1 -1 -1 -1 -1 -1 -1 -1 -1 -1 -1 -1 -1 -1 -1 -1
 MicOpt= -1 -1 -1 -1 -1 -1 -1 -1 -1 -1 -1 -1 -1 -1 -1 -1 -1 -1 -1 -1
 MicOpt= -1 -1 -1 -1 -1 -1 -1 -1 -1 -1 -1 -1 -1 -1 -1 -1 -1 -1 -1 -1
 MicOpt= -1 -1 -1 -1 -1 -1 -1 -1 -1 -1 -1 -1 -1 -1 -1 -1 -1 -1
 NAtoms=    158 NQM=      158 NQMF=       0 NMMI=      0 NMMIF=      0
                NMic=       0 NMicF=      0.
                    Isotopes and Nuclear Properties:
 (Nuclear quadrupole moments (NQMom) in fm**2, nuclear magnetic moments (NMagM)
  in nuclear magnetons)

  Atom         1           2           3           4           5           6           7           8           9          10
 IAtWgt=          24          12          12          12          12          14          12          12          12          12
 AtmWgt=  23.9850450  12.0000000  12.0000000  12.0000000  12.0000000  14.0030740  12.0000000  12.0000000  12.0000000  12.0000000
 NucSpn=           0           0           0           0           0           2           0           0           0           0
 AtZEff=  -0.0000000  -0.0000000  -0.0000000  -0.0000000  -0.0000000  -0.0000000  -0.0000000  -0.0000000  -0.0000000  -0.0000000
 NQMom=    0.0000000   0.0000000   0.0000000   0.0000000   0.0000000   2.0440000   0.0000000   0.0000000   0.0000000   0.0000000
 NMagM=    0.0000000   0.0000000   0.0000000   0.0000000   0.0000000   0.4037610   0.0000000   0.0000000   0.0000000   0.0000000
 AtZNuc=  12.0000000   6.0000000   6.0000000   6.0000000   6.0000000   7.0000000   6.0000000   6.0000000   6.0000000   6.0000000

  Atom        11          12          13          14          15          16          17          18          19          20
 IAtWgt=          12          12          12           1          14          12          12          12          12          12
 AtmWgt=  12.0000000  12.0000000  12.0000000   1.0078250  14.0030740  12.0000000  12.0000000  12.0000000  12.0000000  12.0000000
 NucSpn=           0           0           0           1           2           0           0           0           0           0
 AtZEff=  -0.0000000  -0.0000000  -0.0000000  -0.0000000  -0.0000000  -0.0000000  -0.0000000  -0.0000000  -0.0000000  -0.0000000
 NQMom=    0.0000000   0.0000000   0.0000000   0.0000000   2.0440000   0.0000000   0.0000000   0.0000000   0.0000000   0.0000000
 NMagM=    0.0000000   0.0000000   0.0000000   2.7928460   0.4037610   0.0000000   0.0000000   0.0000000   0.0000000   0.0000000
 AtZNuc=   6.0000000   6.0000000   6.0000000   1.0000000   7.0000000   6.0000000   6.0000000   6.0000000   6.0000000   6.0000000

  Atom        21          22          23          24          25          26          27          28          29          30
 IAtWgt=          12          16          12          14          12          12          12          12          12          12
 AtmWgt=  12.0000000  15.9949146  12.0000000  14.0030740  12.0000000  12.0000000  12.0000000  12.0000000  12.0000000  12.0000000
 NucSpn=           0           0           0           2           0           0           0           0           0           0
 AtZEff=  -0.0000000  -0.0000000  -0.0000000  -0.0000000  -0.0000000  -0.0000000  -0.0000000  -0.0000000  -0.0000000  -0.0000000
 NQMom=    0.0000000   0.0000000   0.0000000   2.0440000   0.0000000   0.0000000   0.0000000   0.0000000   0.0000000   0.0000000
 NMagM=    0.0000000   0.0000000   0.0000000   0.4037610   0.0000000   0.0000000   0.0000000   0.0000000   0.0000000   0.0000000
 AtZNuc=   6.0000000   8.0000000   6.0000000   7.0000000   6.0000000   6.0000000   6.0000000   6.0000000   6.0000000   6.0000000

  Atom        31          32          33          34          35          36          37          38          39          40
 IAtWgt=          12          14          12          12          12          12          12          12          16          12
 AtmWgt=  12.0000000  14.0030740  12.0000000  12.0000000  12.0000000  12.0000000  12.0000000  12.0000000  15.9949146  12.0000000
 NucSpn=           0           2           0           0           0           0           0           0           0           0
 AtZEff=  -0.0000000  -0.0000000  -0.0000000  -0.0000000  -0.0000000  -0.0000000  -0.0000000  -0.0000000  -0.0000000  -0.0000000
 NQMom=    0.0000000   2.0440000   0.0000000   0.0000000   0.0000000   0.0000000   0.0000000   0.0000000   0.0000000   0.0000000
 NMagM=    0.0000000   0.4037610   0.0000000   0.0000000   0.0000000   0.0000000   0.0000000   0.0000000   0.0000000   0.0000000
 AtZNuc=   6.0000000   7.0000000   6.0000000   6.0000000   6.0000000   6.0000000   6.0000000   6.0000000   8.0000000   6.0000000

  Atom        41          42          43          44          45          46          47          48          49          50
 IAtWgt=          12          16          16          12           1           1           1           1           1           1
 AtmWgt=  12.0000000  15.9949146  15.9949146  12.0000000   1.0078250   1.0078250   1.0078250   1.0078250   1.0078250   1.0078250
 NucSpn=           0           0           0           0           1           1           1           1           1           1
 AtZEff=  -0.0000000  -0.0000000  -0.0000000  -0.0000000  -0.0000000  -0.0000000  -0.0000000  -0.0000000  -0.0000000  -0.0000000
 NQMom=    0.0000000   0.0000000   0.0000000   0.0000000   0.0000000   0.0000000   0.0000000   0.0000000   0.0000000   0.0000000
 NMagM=    0.0000000   0.0000000   0.0000000   0.0000000   2.7928460   2.7928460   2.7928460   2.7928460   2.7928460   2.7928460
 AtZNuc=   6.0000000   8.0000000   8.0000000   6.0000000   1.0000000   1.0000000   1.0000000   1.0000000   1.0000000   1.0000000

  Atom        51          52          53          54          55          56          57          58          59          60
 IAtWgt=           1           1           1           1           1           1           1           1           1           1
 AtmWgt=   1.0078250   1.0078250   1.0078250   1.0078250   1.0078250   1.0078250   1.0078250   1.0078250   1.0078250   1.0078250
 NucSpn=           1           1           1           1           1           1           1           1           1           1
 AtZEff=  -0.0000000  -0.0000000  -0.0000000  -0.0000000  -0.0000000  -0.0000000  -0.0000000  -0.0000000  -0.0000000  -0.0000000
 NQMom=    0.0000000   0.0000000   0.0000000   0.0000000   0.0000000   0.0000000   0.0000000   0.0000000   0.0000000   0.0000000
 NMagM=    2.7928460   2.7928460   2.7928460   2.7928460   2.7928460   2.7928460   2.7928460   2.7928460   2.7928460   2.7928460
 AtZNuc=   1.0000000   1.0000000   1.0000000   1.0000000   1.0000000   1.0000000   1.0000000   1.0000000   1.0000000   1.0000000

  Atom        61          62          63          64          65          66          67          68          69          70
 IAtWgt=           1           1           1           1           1           1           1           1           1           1
 AtmWgt=   1.0078250   1.0078250   1.0078250   1.0078250   1.0078250   1.0078250   1.0078250   1.0078250   1.0078250   1.0078250
 NucSpn=           1           1           1           1           1           1           1           1           1           1
 AtZEff=  -0.0000000  -0.0000000  -0.0000000  -0.0000000  -0.0000000  -0.0000000  -0.0000000  -0.0000000  -0.0000000  -0.0000000
 NQMom=    0.0000000   0.0000000   0.0000000   0.0000000   0.0000000   0.0000000   0.0000000   0.0000000   0.0000000   0.0000000
 NMagM=    2.7928460   2.7928460   2.7928460   2.7928460   2.7928460   2.7928460   2.7928460   2.7928460   2.7928460   2.7928460
 AtZNuc=   1.0000000   1.0000000   1.0000000   1.0000000   1.0000000   1.0000000   1.0000000   1.0000000   1.0000000   1.0000000

  Atom        71          72          73          74          75          76          77          78          79          80
 IAtWgt=           1           1           1           1           1           1           1           1           1          24
 AtmWgt=   1.0078250   1.0078250   1.0078250   1.0078250   1.0078250   1.0078250   1.0078250   1.0078250   1.0078250  23.9850450
 NucSpn=           1           1           1           1           1           1           1           1           1           0
 AtZEff=  -0.0000000  -0.0000000  -0.0000000  -0.0000000  -0.0000000  -0.0000000  -0.0000000  -0.0000000  -0.0000000  -0.0000000
 NQMom=    0.0000000   0.0000000   0.0000000   0.0000000   0.0000000   0.0000000   0.0000000   0.0000000   0.0000000   0.0000000
 NMagM=    2.7928460   2.7928460   2.7928460   2.7928460   2.7928460   2.7928460   2.7928460   2.7928460   2.7928460   0.0000000
 AtZNuc=   1.0000000   1.0000000   1.0000000   1.0000000   1.0000000   1.0000000   1.0000000   1.0000000   1.0000000  12.0000000

  Atom        81          82          83          84          85          86          87          88          89          90
 IAtWgt=          12          12          12          12          14          12          12          12          12          12
 AtmWgt=  12.0000000  12.0000000  12.0000000  12.0000000  14.0030740  12.0000000  12.0000000  12.0000000  12.0000000  12.0000000
 NucSpn=           0           0           0           0           2           0           0           0           0           0
 AtZEff=  -0.0000000  -0.0000000  -0.0000000  -0.0000000  -0.0000000  -0.0000000  -0.0000000  -0.0000000  -0.0000000  -0.0000000
 NQMom=    0.0000000   0.0000000   0.0000000   0.0000000   2.0440000   0.0000000   0.0000000   0.0000000   0.0000000   0.0000000
 NMagM=    0.0000000   0.0000000   0.0000000   0.0000000   0.4037610   0.0000000   0.0000000   0.0000000   0.0000000   0.0000000
 AtZNuc=   6.0000000   6.0000000   6.0000000   6.0000000   7.0000000   6.0000000   6.0000000   6.0000000   6.0000000   6.0000000

  Atom        91          92          93          94          95          96          97          98          99         100
 IAtWgt=          12          12           1          14          12          12          12          12          12          12
 AtmWgt=  12.0000000  12.0000000   1.0078250  14.0030740  12.0000000  12.0000000  12.0000000  12.0000000  12.0000000  12.0000000
 NucSpn=           0           0           1           2           0           0           0           0           0           0
 AtZEff=  -0.0000000  -0.0000000  -0.0000000  -0.0000000  -0.0000000  -0.0000000  -0.0000000  -0.0000000  -0.0000000  -0.0000000
 NQMom=    0.0000000   0.0000000   0.0000000   2.0440000   0.0000000   0.0000000   0.0000000   0.0000000   0.0000000   0.0000000
 NMagM=    0.0000000   0.0000000   2.7928460   0.4037610   0.0000000   0.0000000   0.0000000   0.0000000   0.0000000   0.0000000
 AtZNuc=   6.0000000   6.0000000   1.0000000   7.0000000   6.0000000   6.0000000   6.0000000   6.0000000   6.0000000   6.0000000

  Atom       101         102         103         104         105         106         107         108         109         110
 IAtWgt=          16          12          14          12          12          12          12          12          12          12
 AtmWgt=  15.9949146  12.0000000  14.0030740  12.0000000  12.0000000  12.0000000  12.0000000  12.0000000  12.0000000  12.0000000
 NucSpn=           0           0           2           0           0           0           0           0           0           0
 AtZEff=  -0.0000000  -0.0000000  -0.0000000  -0.0000000  -0.0000000  -0.0000000  -0.0000000  -0.0000000  -0.0000000  -0.0000000
 NQMom=    0.0000000   0.0000000   2.0440000   0.0000000   0.0000000   0.0000000   0.0000000   0.0000000   0.0000000   0.0000000
 NMagM=    0.0000000   0.0000000   0.4037610   0.0000000   0.0000000   0.0000000   0.0000000   0.0000000   0.0000000   0.0000000
 AtZNuc=   8.0000000   6.0000000   7.0000000   6.0000000   6.0000000   6.0000000   6.0000000   6.0000000   6.0000000   6.0000000

  Atom       111         112         113         114         115         116         117         118         119         120
 IAtWgt=          14          12          12          12          12          12          12          16          12          12
 AtmWgt=  14.0030740  12.0000000  12.0000000  12.0000000  12.0000000  12.0000000  12.0000000  15.9949146  12.0000000  12.0000000
 NucSpn=           2           0           0           0           0           0           0           0           0           0
 AtZEff=  -0.0000000  -0.0000000  -0.0000000  -0.0000000  -0.0000000  -0.0000000  -0.0000000  -0.0000000  -0.0000000  -0.0000000
 NQMom=    2.0440000   0.0000000   0.0000000   0.0000000   0.0000000   0.0000000   0.0000000   0.0000000   0.0000000   0.0000000
 NMagM=    0.4037610   0.0000000   0.0000000   0.0000000   0.0000000   0.0000000   0.0000000   0.0000000   0.0000000   0.0000000
 AtZNuc=   7.0000000   6.0000000   6.0000000   6.0000000   6.0000000   6.0000000   6.0000000   8.0000000   6.0000000   6.0000000

  Atom       121         122         123         124         125         126         127         128         129         130
 IAtWgt=          16          16          12           1           1           1           1           1           1           1
 AtmWgt=  15.9949146  15.9949146  12.0000000   1.0078250   1.0078250   1.0078250   1.0078250   1.0078250   1.0078250   1.0078250
 NucSpn=           0           0           0           1           1           1           1           1           1           1
 AtZEff=  -0.0000000  -0.0000000  -0.0000000  -0.0000000  -0.0000000  -0.0000000  -0.0000000  -0.0000000  -0.0000000  -0.0000000
 NQMom=    0.0000000   0.0000000   0.0000000   0.0000000   0.0000000   0.0000000   0.0000000   0.0000000   0.0000000   0.0000000
 NMagM=    0.0000000   0.0000000   0.0000000   2.7928460   2.7928460   2.7928460   2.7928460   2.7928460   2.7928460   2.7928460
 AtZNuc=   8.0000000   8.0000000   6.0000000   1.0000000   1.0000000   1.0000000   1.0000000   1.0000000   1.0000000   1.0000000

  Atom       131         132         133         134         135         136         137         138         139         140
 IAtWgt=           1           1           1           1           1           1           1           1           1           1
 AtmWgt=   1.0078250   1.0078250   1.0078250   1.0078250   1.0078250   1.0078250   1.0078250   1.0078250   1.0078250   1.0078250
 NucSpn=           1           1           1           1           1           1           1           1           1           1
 AtZEff=  -0.0000000  -0.0000000  -0.0000000  -0.0000000  -0.0000000  -0.0000000  -0.0000000  -0.0000000  -0.0000000  -0.0000000
 NQMom=    0.0000000   0.0000000   0.0000000   0.0000000   0.0000000   0.0000000   0.0000000   0.0000000   0.0000000   0.0000000
 NMagM=    2.7928460   2.7928460   2.7928460   2.7928460   2.7928460   2.7928460   2.7928460   2.7928460   2.7928460   2.7928460
 AtZNuc=   1.0000000   1.0000000   1.0000000   1.0000000   1.0000000   1.0000000   1.0000000   1.0000000   1.0000000   1.0000000

  Atom       141         142         143         144         145         146         147         148         149         150
 IAtWgt=           1           1           1           1           1           1           1           1           1           1
 AtmWgt=   1.0078250   1.0078250   1.0078250   1.0078250   1.0078250   1.0078250   1.0078250   1.0078250   1.0078250   1.0078250
 NucSpn=           1           1           1           1           1           1           1           1           1           1
 AtZEff=  -0.0000000  -0.0000000  -0.0000000  -0.0000000  -0.0000000  -0.0000000  -0.0000000  -0.0000000  -0.0000000  -0.0000000
 NQMom=    0.0000000   0.0000000   0.0000000   0.0000000   0.0000000   0.0000000   0.0000000   0.0000000   0.0000000   0.0000000
 NMagM=    2.7928460   2.7928460   2.7928460   2.7928460   2.7928460   2.7928460   2.7928460   2.7928460   2.7928460   2.7928460
 AtZNuc=   1.0000000   1.0000000   1.0000000   1.0000000   1.0000000   1.0000000   1.0000000   1.0000000   1.0000000   1.0000000

  Atom       151         152         153         154         155         156         157         158
 IAtWgt=           1           1           1           1           1           1           1           1
 AtmWgt=   1.0078250   1.0078250   1.0078250   1.0078250   1.0078250   1.0078250   1.0078250   1.0078250
 NucSpn=           1           1           1           1           1           1           1           1
 AtZEff=  -0.0000000  -0.0000000  -0.0000000  -0.0000000  -0.0000000  -0.0000000  -0.0000000  -0.0000000
 NQMom=    0.0000000   0.0000000   0.0000000   0.0000000   0.0000000   0.0000000   0.0000000   0.0000000
 NMagM=    2.7928460   2.7928460   2.7928460   2.7928460   2.7928460   2.7928460   2.7928460   2.7928460
 AtZNuc=   1.0000000   1.0000000   1.0000000   1.0000000   1.0000000   1.0000000   1.0000000   1.0000000
 Leave Link  101 at Sun Sep 12 17:03:44 2021, MaxMem= 23488102400 cpu:               3.5 elap:               0.2
 (Enter /sw/apps/gaussian-16.0/g16/l202.exe)
 Stoichiometry    C68H72Mg2N8O8
 Framework group  C1[X(C68H72Mg2N8O8)]
 Deg. of freedom   468
 Full point group                 C1      NOp   1
 Largest Abelian subgroup         C1      NOp   1
 Largest concise Abelian subgroup C1      NOp   1
                         Standard orientation:                         
 ---------------------------------------------------------------------
 Center     Atomic      Atomic             Coordinates (Angstroms)
 Number     Number       Type             X           Y           Z
 ---------------------------------------------------------------------
      1         12           0       15.513170    0.820894    0.452288
      2          6           0       15.783483   -2.566178   -0.673274
      3          6           0       16.429772    1.781839   -2.690878
      4          6           0       15.723398    3.792446    1.539626
      5          6           0       15.734920   -0.399134    3.709283
      6          7           0       16.014649   -0.338518   -1.365659
      7          6           0       16.022180   -1.629750   -1.681624
      8          6           0       16.233196   -1.892350   -3.202771
      9          6           0       16.973791   -0.535184   -3.592152
     10          6           0       16.413417    0.367283   -2.507044
     11          6           0       18.489951   -0.603142   -3.440021
     12          6           0       14.878690   -2.047177   -3.972883
     13          6           0       14.993145   -2.625025   -5.386511
     14          1           0       13.938146   -3.501586   -5.872273
     15          7           0       15.525503    2.542090   -0.517342
     16          6           0       15.914384    2.746936   -1.798784
     17          6           0       15.738600    4.193227   -2.051816
     18          6           0       15.396242    4.843477   -0.756417
     19          6           0       15.562541    3.741929    0.156991
     20          6           0       15.848089    4.809746   -3.412576
     21          6           0       14.994713    6.239130   -0.397168
     22          8           0       14.968355    6.648982    0.813576
     23          6           0       14.714697    7.151864   -1.520355
     24          7           0       15.922251    1.617391    2.337992
     25          6           0       15.894395    2.937676    2.550256
     26          6           0       15.935868    3.256133    4.015454
     27          6           0       15.752274    1.864028    4.775777
     28          6           0       15.717103    0.925473    3.544458
     29          6           0       17.213150    3.945656    4.514574
     30          6           0       14.598954    1.772355    5.806248
     31          6           0       13.267094    1.852486    5.094331
     32          7           0       15.544393   -1.134467    1.393900
     33          6           0       15.665039   -1.408711    2.763903
     34          6           0       15.747608   -2.874044    2.905503
     35          6           0       15.685530   -3.352736    1.598274
     36          6           0       15.597848   -2.254754    0.695479
     37          6           0       15.921781   -3.584882    4.125670
     38          6           0       15.697689   -4.535343    0.752610
     39          8           0       15.661955   -5.749293    0.958864
     40          6           0       15.884364   -4.068878   -0.758479
     41          6           0       14.861881   -4.796333   -1.588327
     42          8           0       13.643411   -4.565326   -1.449288
     43          8           0       15.482521   -5.467481   -2.570624
     44          6           0       14.522435   -6.187709   -3.449066
     45          1           0       16.934076    2.194457   -3.566871
     46          1           0       15.689608    4.797259    1.965826
     47          1           0       15.720387   -0.856052    4.700478
     48          1           0       16.872919   -2.744671   -3.432397
     49          1           0       16.673793   -0.175761   -4.576295
     50          1           0       18.801397   -1.533379   -2.965067
     51          1           0       18.758576    0.250629   -2.817599
     52          1           0       18.983088   -0.441810   -4.398960
     53          1           0       14.483840   -1.058781   -4.207888
     54          1           0       14.172580   -2.644710   -3.395225
     55          1           0       15.971753   -3.075427   -5.554960
     56          1           0       14.948716   -1.799888   -6.097408
     57          1           0       16.271497    4.113068   -4.135010
     58          1           0       16.585528    5.609030   -3.341601
     59          1           0       14.897012    5.216529   -3.756541
     60          1           0       15.601206    7.230173   -2.150051
     61          1           0       14.356775    8.078404   -1.072845
     62          1           0       13.933554    6.715558   -2.143575
     63          1           0       15.122358    3.924974    4.293446
     64          1           0       16.640259    1.588864    5.345375
     65          1           0       17.030642    4.898876    5.011330
     66          1           0       17.883364    4.069715    3.664448
     67          1           0       17.824602    3.344049    5.186595
     68          1           0       14.642789    2.611227    6.500019
     69          1           0       14.618891    0.854517    6.393979
     70          1           0       13.117007    2.925309    4.978757
     71          1           0       12.480597    1.412125    5.708103
     72          1           0       13.323624    1.421789    4.094436
     73          1           0       15.235832   -4.430989    4.086355
     74          1           0       15.717645   -2.949131    4.986920
     75          1           0       16.973462   -3.860812    4.050264
     76          1           0       16.903242   -4.329366   -1.043359
     77          1           0       14.817702   -7.237003   -3.454929
     78          1           0       14.517093   -5.658252   -4.401984
     79          1           0       13.498039   -6.264230   -3.082874
     80         12           0      -16.226559    0.368729   -0.111615
     81          6           0      -13.827090   -2.285824    0.162246
     82          6           0      -13.733037    2.285228   -1.432206
     83          6           0      -18.188764    2.856915    0.049896
     84          6           0      -18.168938   -1.332611    2.228963
     85          7           0      -14.097281   -0.057737   -0.531800
     86          6           0      -13.312111   -1.120780   -0.443484
     87          6           0      -11.920804   -0.949942   -1.110312
     88          6           0      -11.817811    0.651307   -1.044955
     89          6           0      -13.306635    0.991907   -1.037717
     90          6           0      -11.204576    1.162647    0.248034
     91          6           0      -11.900445   -1.466853   -2.591663
     92          6           0      -10.504898   -1.616646   -3.201381
     93          1           0      -10.266272   -2.716498   -4.131901
     94          7           0      -16.160258    2.119217   -1.044316
     95          6           0      -15.066499    2.738554   -1.535637
     96          6           0      -15.545030    4.006677   -2.107500
     97          6           0      -16.985614    4.160629   -1.767306
     98          6           0      -17.166128    3.037035   -0.870071
     99          6           0      -14.681654    4.893273   -2.957171
    100          6           0      -18.025138    5.161835   -2.171275
    101          8           0      -19.153179    5.241975   -1.567998
    102          6           0      -17.647610    6.107157   -3.232092
    103          7           0      -17.828965    0.822246    1.132947
    104          6           0      -18.545549    1.946084    0.955654
    105          6           0      -19.807832    1.924568    1.784245
    106          6           0      -19.910344    0.441006    2.372545
    107          6           0      -18.584837   -0.138064    1.831167
    108          6           0      -19.867368    2.932184    2.932092
    109          6           0      -21.225388   -0.337263    2.093916
    110          6           0      -21.341792   -0.642178    0.617821
    111          7           0      -16.150134   -1.554638    0.869666
    112          6           0      -17.050737   -2.056219    1.834751
    113          6           0      -16.519505   -3.356811    2.291565
    114          6           0      -15.325306   -3.512134    1.571663
    115          6           0      -15.116051   -2.378376    0.740824
    116          6           0      -17.104520   -4.191774    3.284902
    117          6           0      -14.188760   -4.372510    1.333537
    118          8           0      -13.867586   -5.505783    1.688888
    119          6           0      -13.103920   -3.558838    0.504419
    120          6           0      -12.639872   -4.428176   -0.631994
    121          8           0      -13.423993   -4.751293   -1.541586
    122          8           0      -11.301563   -4.553790   -0.572641
    123          6           0      -10.792662   -5.398525   -1.685854
    124          1           0      -12.974617    3.039739   -1.642934
    125          1           0      -18.952841    3.637590    0.064399
    126          1           0      -18.765946   -1.970110    2.884593
    127          1           0      -11.098113   -1.397971   -0.566043
    128          1           0      -11.339102    1.052938   -1.934274
    129          1           0      -11.047176    0.367367    0.961399
    130          1           0      -11.905460    1.888483    0.639133
    131          1           0      -10.284893    1.715510    0.036245
    132          1           0      -12.309762   -0.688321   -3.248226
    133          1           0      -12.434425   -2.393029   -2.679378
    134          1           0       -9.716277   -1.579424   -2.440046
    135          1           0      -10.307658   -0.747980   -3.834263
    136          1           0      -13.625085    4.604781   -2.895256
    137          1           0      -14.716419    5.894036   -2.513171
    138          1           0      -15.028244    4.953108   -3.991077
    139          1           0      -16.768697    6.666820   -2.921053
    140          1           0      -18.549914    6.683987   -3.444179
    141          1           0      -17.358980    5.537103   -4.122222
    142          1           0      -20.677651    2.119519    1.169012
    143          1           0      -19.832567    0.431467    3.469673
    144          1           0      -20.742381    3.606889    2.875655
    145          1           0      -18.947517    3.501751    2.934342
    146          1           0      -19.871529    2.496136    3.929611
    147          1           0      -22.091186    0.277017    2.353160
    148          1           0      -21.307106   -1.262149    2.655079
    149          1           0      -21.758637    0.282242    0.206995
    150          1           0      -22.010498   -1.484466    0.452212
    151          1           0      -20.353270   -0.787041    0.166721
    152          1           0      -17.052128   -5.205280    2.909988
    153          1           0      -18.130409   -3.898139    3.497254
    154          1           0      -16.437127   -3.990023    4.127023
    155          1           0      -12.290658   -3.308088    1.186549
    156          1           0      -10.215749   -6.210633   -1.232708
    157          1           0      -10.249210   -4.709490   -2.359391
    158          1           0      -11.519897   -5.954057   -2.266344
 ---------------------------------------------------------------------
 Rotational constants (GHZ):           0.0248985           0.0016891           0.0016510
 Leave Link  202 at Sun Sep 12 17:03:44 2021, MaxMem= 23488102400 cpu:               0.1 elap:               0.0
 (Enter /sw/apps/gaussian-16.0/g16/l301.exe)
 Standard basis: def2SVP (5D, 7F)
 Ernie: Thresh=  0.10000D-02 Tol=  0.10000D-05 Strict=F.
 There are  1658 symmetry adapted cartesian basis functions of A   symmetry.
 There are  1572 symmetry adapted basis functions of A   symmetry.
  1572 basis functions,  2678 primitive gaussians,  1658 cartesian basis functions
   312 alpha electrons      312 beta electrons
       nuclear repulsion energy     12351.5080835172 Hartrees.
 IExCor=20419 DFT=T Ex+Corr=CAM-B3LYP ExCW=0 ScaHFX=  1.000000
 ScaDFX=  1.000000  1.000000  1.000000  0.810000 ScalE2=  1.000000  1.000000
 IRadAn=      5 IRanWt=     -1 IRanGd=            0 ICorTp=0 IEmpDi=  4
 HFx  wShort=  0.000000 wLong=  0.330000 cFull=  0.190000 cShort=  0.000000 cLong=  0.460000
 DFx  wShort=  0.000000 wLong=  0.330000 cFull=  0.190000 cShort=  0.000000 cLong=  0.460000
 NAtoms=  158 NActive=  158 NUniq=  158 SFac= 1.00D+00 NAtFMM=   60 NAOKFM=T Big=T
 Integral buffers will be    131072 words long.
 Raffenetti 1 integral format.
 Two-electron integral symmetry is turned on.
 Leave Link  301 at Sun Sep 12 17:03:44 2021, MaxMem= 23488102400 cpu:               1.3 elap:               0.1
 (Enter /sw/apps/gaussian-16.0/g16/l302.exe)
 NPDir=0 NMtPBC=     1 NCelOv=     1 NCel=       1 NClECP=     1 NCelD=      1
         NCelK=      1 NCelE2=     1 NClLst=     1 CellRange=     0.0.
 One-electron integrals computed using PRISM.
 One-electron integral symmetry used in STVInt
   1 Symmetry operations used in ECPInt.
 ECPInt:  NShTT=  271216 NPrTT=  987664 LenC2=  103957 LenP2D=  239866.
 LDataN:  DoStor=T MaxTD1= 4 Len=   56
 NBasis=  1572 RedAO= T EigKep=  3.36D-04  NBF=  1572
 NBsUse=  1572 1.00D-06 EigRej= -1.00D+00 NBFU=  1572
 Precomputing XC quadrature grid using
 IXCGrd= 4 IRadAn=           5 IRanWt=          -1 IRanGd=           0 AccXCQ= 0.00D+00.
 Generated NRdTot=       0 NPtTot=           0 NUsed=           0 NTot=          32
 NSgBfM=   812   812   812   812   812 MxSgAt=   158 MxSgA2=    79.
 Leave Link  302 at Sun Sep 12 17:03:48 2021, MaxMem= 23488102400 cpu:             101.7 elap:               4.2
 (Enter /sw/apps/gaussian-16.0/g16/l303.exe)
 DipDrv:  MaxL=1.
 Leave Link  303 at Sun Sep 12 17:03:49 2021, MaxMem= 23488102400 cpu:               7.6 elap:               0.4
 (Enter /sw/apps/gaussian-16.0/g16/l308.exe)
 Leave Link  308 at Sun Sep 12 17:03:49 2021, MaxMem= 23488102400 cpu:              13.6 elap:               0.6
 (Enter /sw/apps/gaussian-16.0/g16/l401.exe)
 ExpMin= 3.36D-02 ExpMax= 4.95D+03 ExpMxC= 7.45D+02 IAcc=3 IRadAn=         5 AccDes= 0.00D+00
 Harris functional with IExCor=20419 and IRadAn=       5 diagonalized for initial guess.
 HarFok:  IExCor=20419 AccDes= 0.00D+00 IRadAn=         5 IDoV= 1 UseB2=F ITyADJ=14
 ICtDFT=  3500011 ScaDFX=  1.000000  1.000000  1.000000  1.000000
 FoFCou: FMM=F IPFlag=           0 FMFlag=      100000 FMFlg1=        2001
         NFxFlg=           0 DoJE=T BraDBF=F KetDBF=T FulRan=T
         wScrn=  0.000000 ICntrl=       500 IOpCl=  0 I1Cent=   200000004 NGrid=           0
         NMat0=    1 NMatS0=      1 NMatT0=    0 NMatD0=    1 NMtDS0=    0 NMtDT0=    0
 Petite list used in FoFCou.
 Harris En= -3918.65801609738    
 JPrj=0 DoOrth=F DoCkMO=F.
 Leave Link  401 at Sun Sep 12 17:03:56 2021, MaxMem= 23488102400 cpu:             160.2 elap:               6.7
 (Enter /sw/apps/gaussian-16.0/g16/l502.exe)
 Integral symmetry usage will be decided dynamically.
 Closed shell SCF:
 Using DIIS extrapolation, IDIIS=  1040.
 NGot= 23488102400 LenX= 23482547354 LenY= 23479796732
 Requested convergence on RMS density matrix=1.00D-08 within 128 cycles.
 Requested convergence on MAX density matrix=1.00D-06.
 Requested convergence on             energy=1.00D-06.
 No special actions if energy rises.
 Fock matrices will be formed incrementally for  20 cycles.

 Cycle   1  Pass 1  IDiag  1:
 FoFJK:  IHMeth= 1 ICntrl=       0 DoSepK=T KAlg= 0 I1Cent=           0 FoldK=F
 IRaf=         1 NMat=       1 IRICut=       1 DoRegI=T DoRafI=F ISym2E= 0 IDoP0=0 IntGTp=1.
 FoFCou: FMM=T IPFlag=           0 FMFlag=      100000 FMFlg1=        2001
         NFxFlg=           0 DoJE=T BraDBF=F KetDBF=F FulRan=T
         wScrn=  0.000000 ICntrl=       500 IOpCl=  0 I1Cent=           0 NGrid=           0
         NMat0=    1 NMatS0=      1 NMatT0=    0 NMatD0=    1 NMtDS0=    0 NMtDT0=    0
 Symmetry not used in FoFCou.
 FMM levels:  10  Number of levels for PrismC:   9
 E= -4068.94929180236    
 DIIS: error= 2.04D-02 at cycle   1 NSaved=   1.
 NSaved= 1 IEnMin= 1 EnMin= -4068.94929180236     IErMin= 1 ErrMin= 2.04D-02
 ErrMax= 2.04D-02  0.00D+00 EMaxC= 1.00D-01 BMatC= 1.69D+00 BMatP= 1.69D+00
 IDIUse=3 WtCom= 7.96D-01 WtEn= 2.04D-01
 Coeff-Com:  0.100D+01
 Coeff-En:   0.100D+01
 Coeff:      0.100D+01
 Gap=     0.120 Goal=   None    Shift=    0.000
 GapD=    0.120 DampG=1.000 DampE=0.500 DampFc=0.5000 IDamp=-1.
 Damping current iteration by 5.00D-01
 RMSDP=1.57D-03 MaxDP=1.35D-01              OVMax= 2.03D-01

 Cycle   2  Pass 1  IDiag  1:
 RMSU=  7.69D-04    CP:  9.82D-01
 E= -4069.33821342946     Delta-E=       -0.388921627102 Rises=F Damp=T
 DIIS: error= 1.27D-02 at cycle   2 NSaved=   2.
 NSaved= 2 IEnMin= 2 EnMin= -4069.33821342946     IErMin= 2 ErrMin= 1.27D-02
 ErrMax= 1.27D-02  0.00D+00 EMaxC= 1.00D-01 BMatC= 3.07D-01 BMatP= 1.69D+00
 IDIUse=3 WtCom= 8.73D-01 WtEn= 1.27D-01
 Coeff-Com: -0.213D+00 0.121D+01
 Coeff-En:   0.000D+00 0.100D+01
 Coeff:     -0.186D+00 0.119D+01
 Gap=     0.137 Goal=   None    Shift=    0.000
 RMSDP=7.65D-04 MaxDP=9.44D-02 DE=-3.89D-01 OVMax= 1.88D-01

 Cycle   3  Pass 1  IDiag  1:
 RMSU=  7.32D-04    CP:  9.68D-01  1.24D+00
 E= -4069.62801674831     Delta-E=       -0.289803318850 Rises=F Damp=F
 DIIS: error= 1.57D-02 at cycle   3 NSaved=   3.
 NSaved= 3 IEnMin= 3 EnMin= -4069.62801674831     IErMin= 2 ErrMin= 1.27D-02
 ErrMax= 1.57D-02  0.00D+00 EMaxC= 1.00D-01 BMatC= 2.02D-01 BMatP= 3.07D-01
 IDIUse=3 WtCom= 8.43D-01 WtEn= 1.57D-01
 Coeff-Com: -0.267D+00 0.652D+00 0.616D+00
 Coeff-En:   0.000D+00 0.000D+00 0.100D+01
 Coeff:     -0.225D+00 0.549D+00 0.676D+00
 Gap=     0.125 Goal=   None    Shift=    0.000
 RMSDP=5.08D-04 MaxDP=4.75D-02 DE=-2.90D-01 OVMax= 1.42D-01

 Cycle   4  Pass 1  IDiag  1:
 RMSU=  2.65D-04    CP:  9.65D-01  1.55D+00  5.06D-01
 E= -4069.76512491909     Delta-E=       -0.137108170777 Rises=F Damp=F
 DIIS: error= 7.30D-03 at cycle   4 NSaved=   4.
 NSaved= 4 IEnMin= 4 EnMin= -4069.76512491909     IErMin= 4 ErrMin= 7.30D-03
 ErrMax= 7.30D-03  0.00D+00 EMaxC= 1.00D-01 BMatC= 5.03D-02 BMatP= 2.02D-01
 IDIUse=3 WtCom= 9.27D-01 WtEn= 7.30D-02
 Coeff-Com: -0.109D+00 0.226D+00 0.409D+00 0.474D+00
 Coeff-En:   0.000D+00 0.000D+00 0.221D+00 0.779D+00
 Coeff:     -0.101D+00 0.209D+00 0.395D+00 0.497D+00
 Gap=     0.123 Goal=   None    Shift=    0.000
 RMSDP=2.00D-04 MaxDP=1.96D-02 DE=-1.37D-01 OVMax= 6.17D-02

 Cycle   5  Pass 1  IDiag  1:
 RMSU=  7.58D-05    CP:  9.64D-01  1.49D+00  6.89D-01  5.50D-01
 E= -4069.81054112158     Delta-E=       -0.045416202491 Rises=F Damp=F
 DIIS: error= 7.85D-04 at cycle   5 NSaved=   5.
 NSaved= 5 IEnMin= 5 EnMin= -4069.81054112158     IErMin= 5 ErrMin= 7.85D-04
 ErrMax= 7.85D-04  0.00D+00 EMaxC= 1.00D-01 BMatC= 1.16D-03 BMatP= 5.03D-02
 IDIUse=3 WtCom= 9.92D-01 WtEn= 7.85D-03
 Coeff-Com: -0.357D-01 0.701D-01 0.165D+00 0.249D+00 0.551D+00
 Coeff-En:   0.000D+00 0.000D+00 0.000D+00 0.000D+00 0.100D+01
 Coeff:     -0.355D-01 0.696D-01 0.164D+00 0.247D+00 0.555D+00
 Gap=     0.123 Goal=   None    Shift=    0.000
 RMSDP=4.07D-05 MaxDP=4.17D-03 DE=-4.54D-02 OVMax= 1.64D-02

 Cycle   6  Pass 1  IDiag  1:
 RMSU=  3.02D-05    CP:  9.64D-01  1.49D+00  6.81D-01  6.21D-01  7.59D-01
 E= -4069.81154597789     Delta-E=       -0.001004856305 Rises=F Damp=F
 DIIS: error= 2.18D-04 at cycle   6 NSaved=   6.
 NSaved= 6 IEnMin= 6 EnMin= -4069.81154597789     IErMin= 6 ErrMin= 2.18D-04
 ErrMax= 2.18D-04  0.00D+00 EMaxC= 1.00D-01 BMatC= 1.76D-04 BMatP= 1.16D-03
 IDIUse=3 WtCom= 9.98D-01 WtEn= 2.18D-03
 Coeff-Com:  0.231D-02-0.677D-02 0.109D-01 0.398D-01 0.306D+00 0.647D+00
 Coeff-En:   0.000D+00 0.000D+00 0.000D+00 0.000D+00 0.103D+00 0.897D+00
 Coeff:      0.230D-02-0.675D-02 0.108D-01 0.397D-01 0.306D+00 0.648D+00
 Gap=     0.123 Goal=   None    Shift=    0.000
 RMSDP=1.58D-05 MaxDP=1.23D-03 DE=-1.00D-03 OVMax= 7.24D-03

 Cycle   7  Pass 1  IDiag  1:
 RMSU=  1.07D-05    CP:  9.64D-01  1.50D+00  6.87D-01  6.21D-01  8.60D-01
                    CP:  7.49D-01
 E= -4069.81173468389     Delta-E=       -0.000188706006 Rises=F Damp=F
 DIIS: error= 8.36D-05 at cycle   7 NSaved=   7.
 NSaved= 7 IEnMin= 7 EnMin= -4069.81173468389     IErMin= 7 ErrMin= 8.36D-05
 ErrMax= 8.36D-05  0.00D+00 EMaxC= 1.00D-01 BMatC= 2.07D-05 BMatP= 1.76D-04
 IDIUse=1 WtCom= 1.00D+00 WtEn= 0.00D+00
 Coeff-Com:  0.445D-02-0.974D-02-0.898D-02-0.382D-02 0.102D+00 0.329D+00
 Coeff-Com:  0.587D+00
 Coeff:      0.445D-02-0.974D-02-0.898D-02-0.382D-02 0.102D+00 0.329D+00
 Coeff:      0.587D+00
 Gap=     0.123 Goal=   None    Shift=    0.000
 RMSDP=6.50D-06 MaxDP=1.11D-03 DE=-1.89D-04 OVMax= 3.41D-03

 Cycle   8  Pass 1  IDiag  1:
 RMSU=  4.67D-06    CP:  9.64D-01  1.50D+00  6.88D-01  6.26D-01  8.64D-01
                    CP:  8.75D-01  8.23D-01
 E= -4069.81176041524     Delta-E=       -0.000025731351 Rises=F Damp=F
 DIIS: error= 5.00D-05 at cycle   8 NSaved=   8.
 NSaved= 8 IEnMin= 8 EnMin= -4069.81176041524     IErMin= 8 ErrMin= 5.00D-05
 ErrMax= 5.00D-05  0.00D+00 EMaxC= 1.00D-01 BMatC= 4.82D-06 BMatP= 2.07D-05
 IDIUse=1 WtCom= 1.00D+00 WtEn= 0.00D+00
 Coeff-Com:  0.215D-02-0.426D-02-0.775D-02-0.121D-01-0.117D-01 0.335D-01
 Coeff-Com:  0.344D+00 0.656D+00
 Coeff:      0.215D-02-0.426D-02-0.775D-02-0.121D-01-0.117D-01 0.335D-01
 Coeff:      0.344D+00 0.656D+00
 Gap=     0.123 Goal=   None    Shift=    0.000
 RMSDP=3.27D-06 MaxDP=3.52D-04 DE=-2.57D-05 OVMax= 1.11D-03

 Cycle   9  Pass 1  IDiag  1:
 RMSU=  1.91D-06    CP:  9.64D-01  1.50D+00  6.88D-01  6.27D-01  8.81D-01
                    CP:  9.01D-01  1.02D+00  9.40D-01
 E= -4069.81176811839     Delta-E=       -0.000007703147 Rises=F Damp=F
 DIIS: error= 1.95D-05 at cycle   9 NSaved=   9.
 NSaved= 9 IEnMin= 9 EnMin= -4069.81176811839     IErMin= 9 ErrMin= 1.95D-05
 ErrMax= 1.95D-05  0.00D+00 EMaxC= 1.00D-01 BMatC= 6.87D-07 BMatP= 4.82D-06
 IDIUse=1 WtCom= 1.00D+00 WtEn= 0.00D+00
 Coeff-Com:  0.462D-03-0.767D-03-0.266D-02-0.599D-02-0.213D-01-0.386D-01
 Coeff-Com:  0.104D+00 0.326D+00 0.639D+00
 Coeff:      0.462D-03-0.767D-03-0.266D-02-0.599D-02-0.213D-01-0.386D-01
 Coeff:      0.104D+00 0.326D+00 0.639D+00
 Gap=     0.123 Goal=   None    Shift=    0.000
 RMSDP=1.42D-06 MaxDP=1.49D-04 DE=-7.70D-06 OVMax= 7.45D-04

 Cycle  10  Pass 1  IDiag  1:
 RMSU=  9.37D-07    CP:  9.64D-01  1.50D+00  6.88D-01  6.28D-01  8.84D-01
                    CP:  9.15D-01  1.07D+00  1.11D+00  1.05D+00
 E= -4069.81176970387     Delta-E=       -0.000001585478 Rises=F Damp=F
 DIIS: error= 1.02D-05 at cycle  10 NSaved=  10.
 NSaved=10 IEnMin=10 EnMin= -4069.81176970387     IErMin=10 ErrMin= 1.02D-05
 ErrMax= 1.02D-05  0.00D+00 EMaxC= 1.00D-01 BMatC= 1.72D-07 BMatP= 6.87D-07
 IDIUse=1 WtCom= 1.00D+00 WtEn= 0.00D+00
 Coeff-Com: -0.427D-03 0.895D-03 0.124D-02 0.113D-02-0.375D-02-0.310D-01
 Coeff-Com: -0.465D-01-0.767D-01 0.255D+00 0.900D+00
 Coeff:     -0.427D-03 0.895D-03 0.124D-02 0.113D-02-0.375D-02-0.310D-01
 Coeff:     -0.465D-01-0.767D-01 0.255D+00 0.900D+00
 Gap=     0.123 Goal=   None    Shift=    0.000
 RMSDP=1.22D-06 MaxDP=1.25D-04 DE=-1.59D-06 OVMax= 6.08D-04

 Cycle  11  Pass 1  IDiag  1:
 RMSU=  5.15D-07    CP:  9.64D-01  1.50D+00  6.88D-01  6.28D-01  8.87D-01
                    CP:  9.25D-01  1.11D+00  1.22D+00  1.39D+00  1.37D+00
 E= -4069.81177049261     Delta-E=       -0.000000788743 Rises=F Damp=F
 DIIS: error= 3.99D-06 at cycle  11 NSaved=  11.
 NSaved=11 IEnMin=11 EnMin= -4069.81177049261     IErMin=11 ErrMin= 3.99D-06
 ErrMax= 3.99D-06  0.00D+00 EMaxC= 1.00D-01 BMatC= 6.12D-08 BMatP= 1.72D-07
 IDIUse=1 WtCom= 1.00D+00 WtEn= 0.00D+00
 Coeff-Com: -0.327D-03 0.636D-03 0.133D-02 0.212D-02 0.443D-02-0.835D-02
 Coeff-Com: -0.435D-01-0.132D+00-0.235D-01 0.465D+00 0.735D+00
 Coeff:     -0.327D-03 0.636D-03 0.133D-02 0.212D-02 0.443D-02-0.835D-02
 Coeff:     -0.435D-01-0.132D+00-0.235D-01 0.465D+00 0.735D+00
 Gap=     0.123 Goal=   None    Shift=    0.000
 RMSDP=6.87D-07 MaxDP=5.82D-05 DE=-7.89D-07 OVMax= 3.72D-04

 Cycle  12  Pass 1  IDiag  1:
 RMSU=  2.63D-07    CP:  9.64D-01  1.50D+00  6.88D-01  6.28D-01  8.88D-01
                    CP:  9.27D-01  1.14D+00  1.28D+00  1.56D+00  1.76D+00
                    CP:  1.20D+00
 E= -4069.81177075544     Delta-E=       -0.000000262833 Rises=F Damp=F
 DIIS: error= 2.35D-06 at cycle  12 NSaved=  12.
 NSaved=12 IEnMin=12 EnMin= -4069.81177075544     IErMin=12 ErrMin= 2.35D-06
 ErrMax= 2.35D-06  0.00D+00 EMaxC= 1.00D-01 BMatC= 1.48D-08 BMatP= 6.12D-08
 IDIUse=1 WtCom= 1.00D+00 WtEn= 0.00D+00
 Coeff-Com:  0.693D-06-0.179D-04 0.177D-03 0.507D-03 0.330D-02 0.407D-02
 Coeff-Com:  0.292D-02-0.347D-01-0.680D-01-0.765D-01 0.250D+00 0.919D+00
 Coeff:      0.693D-06-0.179D-04 0.177D-03 0.507D-03 0.330D-02 0.407D-02
 Coeff:      0.292D-02-0.347D-01-0.680D-01-0.765D-01 0.250D+00 0.919D+00
 Gap=     0.123 Goal=   None    Shift=    0.000
 RMSDP=4.39D-07 MaxDP=2.99D-05 DE=-2.63D-07 OVMax= 2.49D-04

 Cycle  13  Pass 1  IDiag  1:
 RMSU=  1.65D-07    CP:  9.64D-01  1.50D+00  6.88D-01  6.28D-01  8.88D-01
                    CP:  9.28D-01  1.14D+00  1.31D+00  1.67D+00  1.99D+00
                    CP:  1.62D+00  1.27D+00
 E= -4069.81177084797     Delta-E=       -0.000000092525 Rises=F Damp=F
 DIIS: error= 1.25D-06 at cycle  13 NSaved=  13.
 NSaved=13 IEnMin=13 EnMin= -4069.81177084797     IErMin=13 ErrMin= 1.25D-06
 ErrMax= 1.25D-06  0.00D+00 EMaxC= 1.00D-01 BMatC= 8.14D-09 BMatP= 1.48D-08
 IDIUse=1 WtCom= 1.00D+00 WtEn= 0.00D+00
 Coeff-Com:  0.120D-03-0.245D-03-0.371D-03-0.459D-03 0.570D-03 0.508D-02
 Coeff-Com:  0.197D-01 0.228D-01-0.339D-01-0.241D+00-0.156D+00 0.599D+00
 Coeff-Com:  0.785D+00
 Coeff:      0.120D-03-0.245D-03-0.371D-03-0.459D-03 0.570D-03 0.508D-02
 Coeff:      0.197D-01 0.228D-01-0.339D-01-0.241D+00-0.156D+00 0.599D+00
 Coeff:      0.785D+00
 Gap=     0.123 Goal=   None    Shift=    0.000
 RMSDP=3.40D-07 MaxDP=2.06D-05 DE=-9.25D-08 OVMax= 1.97D-04

 Cycle  14  Pass 1  IDiag  1:
 RMSU=  7.61D-08    CP:  9.64D-01  1.50D+00  6.88D-01  6.28D-01  8.88D-01
                    CP:  9.28D-01  1.15D+00  1.33D+00  1.74D+00  2.18D+00
                    CP:  1.88D+00  1.79D+00  1.09D+00
 E= -4069.81177088372     Delta-E=       -0.000000035754 Rises=F Damp=F
 DIIS: error= 6.35D-07 at cycle  14 NSaved=  14.
 NSaved=14 IEnMin=14 EnMin= -4069.81177088372     IErMin=14 ErrMin= 6.35D-07
 ErrMax= 6.35D-07  0.00D+00 EMaxC= 1.00D-01 BMatC= 1.25D-09 BMatP= 8.14D-09
 IDIUse=1 WtCom= 1.00D+00 WtEn= 0.00D+00
 Coeff-Com:  0.663D-04-0.131D-03-0.246D-03-0.387D-03-0.485D-03 0.129D-02
 Coeff-Com:  0.108D-01 0.192D-01 0.373D-02-0.995D-01-0.142D+00 0.939D-01
 Coeff-Com:  0.404D+00 0.710D+00
 Coeff:      0.663D-04-0.131D-03-0.246D-03-0.387D-03-0.485D-03 0.129D-02
 Coeff:      0.108D-01 0.192D-01 0.373D-02-0.995D-01-0.142D+00 0.939D-01
 Coeff:      0.404D+00 0.710D+00
 Gap=     0.123 Goal=   None    Shift=    0.000
 RMSDP=1.01D-07 MaxDP=6.84D-06 DE=-3.58D-08 OVMax= 5.42D-05

 Cycle  15  Pass 1  IDiag  1:
 RMSU=  3.83D-08    CP:  9.64D-01  1.50D+00  6.88D-01  6.28D-01  8.88D-01
                    CP:  9.28D-01  1.15D+00  1.34D+00  1.76D+00  2.22D+00
                    CP:  1.98D+00  1.93D+00  1.32D+00  1.03D+00
 E= -4069.81177088747     Delta-E=       -0.000000003747 Rises=F Damp=F
 DIIS: error= 3.37D-07 at cycle  15 NSaved=  15.
 NSaved=15 IEnMin=15 EnMin= -4069.81177088747     IErMin=15 ErrMin= 3.37D-07
 ErrMax= 3.37D-07  0.00D+00 EMaxC= 1.00D-01 BMatC= 2.25D-10 BMatP= 1.25D-09
 IDIUse=1 WtCom= 1.00D+00 WtEn= 0.00D+00
 Coeff-Com:  0.514D-05-0.849D-05-0.319D-04-0.807D-04-0.299D-03-0.517D-03
 Coeff-Com:  0.111D-02 0.248D-02 0.876D-02 0.193D-02-0.306D-01-0.730D-01
 Coeff-Com:  0.288D-01 0.297D+00 0.765D+00
 Coeff:      0.514D-05-0.849D-05-0.319D-04-0.807D-04-0.299D-03-0.517D-03
 Coeff:      0.111D-02 0.248D-02 0.876D-02 0.193D-02-0.306D-01-0.730D-01
 Coeff:      0.288D-01 0.297D+00 0.765D+00
 Gap=     0.123 Goal=   None    Shift=    0.000
 RMSDP=4.06D-08 MaxDP=2.68D-06 DE=-3.75D-09 OVMax= 2.69D-05

 Cycle  16  Pass 1  IDiag  1:
 RMSU=  1.87D-08    CP:  9.64D-01  1.50D+00  6.88D-01  6.28D-01  8.88D-01
                    CP:  9.28D-01  1.15D+00  1.34D+00  1.77D+00  2.24D+00
                    CP:  2.01D+00  1.99D+00  1.40D+00  1.24D+00  1.14D+00
 E= -4069.81177088868     Delta-E=       -0.000000001208 Rises=F Damp=F
 DIIS: error= 1.64D-07 at cycle  16 NSaved=  16.
 NSaved=16 IEnMin=16 EnMin= -4069.81177088868     IErMin=16 ErrMin= 1.64D-07
 ErrMax= 1.64D-07  0.00D+00 EMaxC= 1.00D-01 BMatC= 8.17D-11 BMatP= 2.25D-10
 IDIUse=1 WtCom= 1.00D+00 WtEn= 0.00D+00
 Coeff-Com: -0.142D-04 0.288D-04 0.471D-04 0.540D-04-0.264D-04-0.634D-03
 Coeff-Com: -0.199D-02-0.427D-02 0.453D-02 0.256D-01 0.207D-01-0.647D-01
 Coeff-Com: -0.832D-01-0.374D-01 0.398D+00 0.743D+00
 Coeff:     -0.142D-04 0.288D-04 0.471D-04 0.540D-04-0.264D-04-0.634D-03
 Coeff:     -0.199D-02-0.427D-02 0.453D-02 0.256D-01 0.207D-01-0.647D-01
 Coeff:     -0.832D-01-0.374D-01 0.398D+00 0.743D+00
 Gap=     0.123 Goal=   None    Shift=    0.000
 RMSDP=2.29D-08 MaxDP=1.47D-06 DE=-1.21D-09 OVMax= 1.30D-05

 Cycle  17  Pass 1  IDiag  1:
 RMSU=  1.04D-08    CP:  9.64D-01  1.50D+00  6.88D-01  6.28D-01  8.88D-01
                    CP:  9.28D-01  1.15D+00  1.34D+00  1.77D+00  2.24D+00
                    CP:  2.02D+00  2.01D+00  1.45D+00  1.34D+00  1.44D+00
                    CP:  1.25D+00
 E= -4069.81177088883     Delta-E=       -0.000000000153 Rises=F Damp=F
 DIIS: error= 9.40D-08 at cycle  17 NSaved=  17.
 NSaved=17 IEnMin=17 EnMin= -4069.81177088883     IErMin=17 ErrMin= 9.40D-08
 ErrMax= 9.40D-08  0.00D+00 EMaxC= 1.00D-01 BMatC= 1.78D-11 BMatP= 8.17D-11
 IDIUse=1 WtCom= 1.00D+00 WtEn= 0.00D+00
 Coeff-Com: -0.718D-05 0.140D-04 0.285D-04 0.425D-04 0.842D-04-0.122D-03
 Coeff-Com: -0.960D-03-0.280D-02 0.133D-03 0.919D-02 0.174D-01-0.722D-02
 Coeff-Com: -0.367D-01-0.102D+00-0.314D-01 0.294D+00 0.860D+00
 Coeff:     -0.718D-05 0.140D-04 0.285D-04 0.425D-04 0.842D-04-0.122D-03
 Coeff:     -0.960D-03-0.280D-02 0.133D-03 0.919D-02 0.174D-01-0.722D-02
 Coeff:     -0.367D-01-0.102D+00-0.314D-01 0.294D+00 0.860D+00
 Gap=     0.123 Goal=   None    Shift=    0.000
 RMSDP=1.37D-08 MaxDP=8.79D-07 DE=-1.53D-10 OVMax= 8.91D-06

 Cycle  18  Pass 1  IDiag  1:
 RMSU=  4.87D-09    CP:  9.64D-01  1.50D+00  6.88D-01  6.28D-01  8.88D-01
                    CP:  9.28D-01  1.15D+00  1.34D+00  1.77D+00  2.24D+00
                    CP:  2.03D+00  2.02D+00  1.47D+00  1.41D+00  1.61D+00
                    CP:  1.66D+00  1.39D+00
 E= -4069.81177088886     Delta-E=       -0.000000000029 Rises=F Damp=F
 DIIS: error= 5.12D-08 at cycle  18 NSaved=  18.
 NSaved=18 IEnMin=18 EnMin= -4069.81177088886     IErMin=18 ErrMin= 5.12D-08
 ErrMax= 5.12D-08  0.00D+00 EMaxC= 1.00D-01 BMatC= 6.91D-12 BMatP= 1.78D-11
 IDIUse=1 WtCom= 1.00D+00 WtEn= 0.00D+00
 Coeff-Com:  0.208D-05-0.446D-05-0.467D-05-0.185D-05 0.591D-04 0.184D-03
 Coeff-Com:  0.408D-03 0.234D-03-0.129D-02-0.623D-02-0.165D-03 0.203D-01
 Coeff-Com:  0.186D-01-0.325D-01-0.163D+00-0.193D+00 0.349D+00 0.101D+01
 Coeff:      0.208D-05-0.446D-05-0.467D-05-0.185D-05 0.591D-04 0.184D-03
 Coeff:      0.408D-03 0.234D-03-0.129D-02-0.623D-02-0.165D-03 0.203D-01
 Coeff:      0.186D-01-0.325D-01-0.163D+00-0.193D+00 0.349D+00 0.101D+01
 Gap=     0.123 Goal=   None    Shift=    0.000
 RMSDP=1.18D-08 MaxDP=7.02D-07 DE=-2.91D-11 OVMax= 6.79D-06

 Cycle  19  Pass 1  IDiag  1:
 RMSU=  2.79D-09    CP:  9.64D-01  1.50D+00  6.88D-01  6.28D-01  8.88D-01
                    CP:  9.28D-01  1.15D+00  1.34D+00  1.77D+00  2.24D+00
                    CP:  2.03D+00  2.02D+00  1.48D+00  1.46D+00  1.77D+00
                    CP:  1.99D+00  1.94D+00  1.38D+00
 E= -4069.81177088867     Delta-E=        0.000000000189 Rises=F Damp=F
 DIIS: error= 3.33D-08 at cycle  19 NSaved=  19.
 NSaved=19 IEnMin=18 EnMin= -4069.81177088886     IErMin=19 ErrMin= 3.33D-08
 ErrMax= 3.33D-08  0.00D+00 EMaxC= 1.00D-01 BMatC= 1.40D-12 BMatP= 6.91D-12
 IDIUse=1 WtCom= 1.00D+00 WtEn= 0.00D+00
 Coeff-Com:  0.286D-05-0.577D-05-0.981D-05-0.123D-04 0.107D-04 0.118D-03
 Coeff-Com:  0.472D-03 0.788D-03-0.587D-03-0.589D-02-0.478D-02 0.119D-01
 Coeff-Com:  0.199D-01 0.114D-01-0.678D-01-0.176D+00-0.332D-01 0.487D+00
 Coeff-Com:  0.757D+00
 Coeff:      0.286D-05-0.577D-05-0.981D-05-0.123D-04 0.107D-04 0.118D-03
 Coeff:      0.472D-03 0.788D-03-0.587D-03-0.589D-02-0.478D-02 0.119D-01
 Coeff:      0.199D-01 0.114D-01-0.678D-01-0.176D+00-0.332D-01 0.487D+00
 Coeff:      0.757D+00
 Gap=     0.123 Goal=   None    Shift=    0.000
 RMSDP=4.48D-09 MaxDP=2.93D-07 DE= 1.89D-10 OVMax= 2.92D-06

 SCF Done:  E(RCAM-B3LYP) =  -4069.81177089     A.U. after   19 cycles
            NFock= 19  Conv=0.45D-08     -V/T= 2.0102
 KE= 4.028802071083D+03 PE=-3.418380148880D+04 EE= 1.373367956331D+04
 Leave Link  502 at Sun Sep 12 17:12:18 2021, MaxMem= 23488102400 cpu:           11454.1 elap:             501.9
 (Enter /sw/apps/gaussian-16.0/g16/l801.exe)
 DoSCS=F DFT=T ScalE2(SS,OS)=  1.000000  1.000000
 ExpMin= 3.36D-02 ExpMax= 4.95D+03 ExpMxC= 7.45D+02 IAcc=3 IRadAn=         5 AccDes= 0.00D+00
 HarFok:  IExCor=  205 AccDes= 0.00D+00 IRadAn=         5 IDoV=-2 UseB2=F ITyADJ=14
 ICtDFT= 12500011 ScaDFX=  1.000000  1.000000  1.000000  1.000000
 GSVD:  LWork=       -9588 too small for GESVD, short by       45590 words or       45590 for optimal perf.
 Largest valence mixing into a core orbital is  2.03D-04
 Largest core mixing into a valence orbital is  5.24D-05
 Range of M.O.s used for correlation:    95  1572
 NBasis=  1572 NAE=   312 NBE=   312 NFC=    94 NFV=     0
 NROrb=   1478 NOA=   218 NOB=   218 NVA=  1260 NVB=  1260
 Leave Link  801 at Sun Sep 12 17:12:19 2021, MaxMem= 23488102400 cpu:               9.1 elap:               0.4
 (Enter /sw/apps/gaussian-16.0/g16/l914.exe)
 RHF ground state
 Two-electron integrals replicated using symmetry.
 MDV= 23488102400 DFT=T DoStab=F Mixed=T DoRPA=T DoScal=F NonHer=T
 Making orbital integer symmetry assigments:
 Orbital symmetries:
       Occupied  (A) (A) (A) (A) (A) (A) (A) (A) (A) (A) (A) (A)
                 (A) (A) (A) (A) (A) (A) (A) (A) (A) (A) (A) (A)
                 (A) (A) (A) (A) (A) (A) (A) (A) (A) (A) (A) (A)
                 (A) (A) (A) (A) (A) (A) (A) (A) (A) (A) (A) (A)
                 (A) (A) (A) (A) (A) (A) (A) (A) (A) (A) (A) (A)
                 (A) (A) (A) (A) (A) (A) (A) (A) (A) (A) (A) (A)
                 (A) (A) (A) (A) (A) (A) (A) (A) (A) (A) (A) (A)
                 (A) (A) (A) (A) (A) (A) (A) (A) (A) (A) (A) (A)
                 (A) (A) (A) (A) (A) (A) (A) (A) (A) (A) (A) (A)
                 (A) (A) (A) (A) (A) (A) (A) (A) (A) (A) (A) (A)
                 (A) (A) (A) (A) (A) (A) (A) (A) (A) (A) (A) (A)
                 (A) (A) (A) (A) (A) (A) (A) (A) (A) (A) (A) (A)
                 (A) (A) (A) (A) (A) (A) (A) (A) (A) (A) (A) (A)
                 (A) (A) (A) (A) (A) (A) (A) (A) (A) (A) (A) (A)
                 (A) (A) (A) (A) (A) (A) (A) (A) (A) (A) (A) (A)
                 (A) (A) (A) (A) (A) (A) (A) (A) (A) (A) (A) (A)
                 (A) (A) (A) (A) (A) (A) (A) (A) (A) (A) (A) (A)
                 (A) (A) (A) (A) (A) (A) (A) (A) (A) (A) (A) (A)
                 (A) (A) (A) (A) (A) (A) (A) (A) (A) (A) (A) (A)
                 (A) (A) (A) (A) (A) (A) (A) (A) (A) (A) (A) (A)
                 (A) (A) (A) (A) (A) (A) (A) (A) (A) (A) (A) (A)
                 (A) (A) (A) (A) (A) (A) (A) (A) (A) (A) (A) (A)
                 (A) (A) (A) (A) (A) (A) (A) (A) (A) (A) (A) (A)
                 (A) (A) (A) (A) (A) (A) (A) (A) (A) (A) (A) (A)
                 (A) (A) (A) (A) (A) (A) (A) (A) (A) (A) (A) (A)
                 (A) (A) (A) (A) (A) (A) (A) (A) (A) (A) (A) (A)
       Virtual   (A) (A) (A) (A) (A) (A) (A) (A) (A) (A) (A) (A)
                 (A) (A) (A) (A) (A) (A) (A) (A) (A) (A) (A) (A)
                 (A) (A) (A) (A) (A) (A) (A) (A) (A) (A) (A) (A)
                 (A) (A) (A) (A) (A) (A) (A) (A) (A) (A) (A) (A)
                 (A) (A) (A) (A) (A) (A) (A) (A) (A) (A) (A) (A)
                 (A) (A) (A) (A) (A) (A) (A) (A) (A) (A) (A) (A)
                 (A) (A) (A) (A) (A) (A) (A) (A) (A) (A) (A) (A)
                 (A) (A) (A) (A) (A) (A) (A) (A) (A) (A) (A) (A)
                 (A) (A) (A) (A) (A) (A) (A) (A) (A) (A) (A) (A)
                 (A) (A) (A) (A) (A) (A) (A) (A) (A) (A) (A) (A)
                 (A) (A) (A) (A) (A) (A) (A) (A) (A) (A) (A) (A)
                 (A) (A) (A) (A) (A) (A) (A) (A) (A) (A) (A) (A)
                 (A) (A) (A) (A) (A) (A) (A) (A) (A) (A) (A) (A)
                 (A) (A) (A) (A) (A) (A) (A) (A) (A) (A) (A) (A)
                 (A) (A) (A) (A) (A) (A) (A) (A) (A) (A) (A) (A)
                 (A) (A) (A) (A) (A) (A) (A) (A) (A) (A) (A) (A)
                 (A) (A) (A) (A) (A) (A) (A) (A) (A) (A) (A) (A)
                 (A) (A) (A) (A) (A) (A) (A) (A) (A) (A) (A) (A)
                 (A) (A) (A) (A) (A) (A) (A) (A) (A) (A) (A) (A)
                 (A) (A) (A) (A) (A) (A) (A) (A) (A) (A) (A) (A)
                 (A) (A) (A) (A) (A) (A) (A) (A) (A) (A) (A) (A)
                 (A) (A) (A) (A) (A) (A) (A) (A) (A) (A) (A) (A)
                 (A) (A) (A) (A) (A) (A) (A) (A) (A) (A) (A) (A)
                 (A) (A) (A) (A) (A) (A) (A) (A) (A) (A) (A) (A)
                 (A) (A) (A) (A) (A) (A) (A) (A) (A) (A) (A) (A)
                 (A) (A) (A) (A) (A) (A) (A) (A) (A) (A) (A) (A)
                 (A) (A) (A) (A) (A) (A) (A) (A) (A) (A) (A) (A)
                 (A) (A) (A) (A) (A) (A) (A) (A) (A) (A) (A) (A)
                 (A) (A) (A) (A) (A) (A) (A) (A) (A) (A) (A) (A)
                 (A) (A) (A) (A) (A) (A) (A) (A) (A) (A) (A) (A)
                 (A) (A) (A) (A) (A) (A) (A) (A) (A) (A) (A) (A)
                 (A) (A) (A) (A) (A) (A) (A) (A) (A) (A) (A) (A)
                 (A) (A) (A) (A) (A) (A) (A) (A) (A) (A) (A) (A)
                 (A) (A) (A) (A) (A) (A) (A) (A) (A) (A) (A) (A)
                 (A) (A) (A) (A) (A) (A) (A) (A) (A) (A) (A) (A)
                 (A) (A) (A) (A) (A) (A) (A) (A) (A) (A) (A) (A)
                 (A) (A) (A) (A) (A) (A) (A) (A) (A) (A) (A) (A)
                 (A) (A) (A) (A) (A) (A) (A) (A) (A) (A) (A) (A)
                 (A) (A) (A) (A) (A) (A) (A) (A) (A) (A) (A) (A)
                 (A) (A) (A) (A) (A) (A) (A) (A) (A) (A) (A) (A)
                 (A) (A) (A) (A) (A) (A) (A) (A) (A) (A) (A) (A)
                 (A) (A) (A) (A) (A) (A) (A) (A) (A) (A) (A) (A)
                 (A) (A) (A) (A) (A) (A) (A) (A) (A) (A) (A) (A)
                 (A) (A) (A) (A) (A) (A) (A) (A) (A) (A) (A) (A)
                 (A) (A) (A) (A) (A) (A) (A) (A) (A) (A) (A) (A)
                 (A) (A) (A) (A) (A) (A) (A) (A) (A) (A) (A) (A)
                 (A) (A) (A) (A) (A) (A) (A) (A) (A) (A) (A) (A)
                 (A) (A) (A) (A) (A) (A) (A) (A) (A) (A) (A) (A)
                 (A) (A) (A) (A) (A) (A) (A) (A) (A) (A) (A) (A)
                 (A) (A) (A) (A) (A) (A) (A) (A) (A) (A) (A) (A)
                 (A) (A) (A) (A) (A) (A) (A) (A) (A) (A) (A) (A)
                 (A) (A) (A) (A) (A) (A) (A) (A) (A) (A) (A) (A)
                 (A) (A) (A) (A) (A) (A) (A) (A) (A) (A) (A) (A)
                 (A) (A) (A) (A) (A) (A) (A) (A) (A) (A) (A) (A)
                 (A) (A) (A) (A) (A) (A) (A) (A) (A) (A) (A) (A)
                 (A) (A) (A) (A) (A) (A) (A) (A) (A) (A) (A) (A)
                 (A) (A) (A) (A) (A) (A) (A) (A) (A) (A) (A) (A)
                 (A) (A) (A) (A) (A) (A) (A) (A) (A) (A) (A) (A)
                 (A) (A) (A) (A) (A) (A) (A) (A) (A) (A) (A) (A)
                 (A) (A) (A) (A) (A) (A) (A) (A) (A) (A) (A) (A)
                 (A) (A) (A) (A) (A) (A) (A) (A) (A) (A) (A) (A)
                 (A) (A) (A) (A) (A) (A) (A) (A) (A) (A) (A) (A)
                 (A) (A) (A) (A) (A) (A) (A) (A) (A) (A) (A) (A)
                 (A) (A) (A) (A) (A) (A) (A) (A) (A) (A) (A) (A)
                 (A) (A) (A) (A) (A) (A) (A) (A) (A) (A) (A) (A)
                 (A) (A) (A) (A) (A) (A) (A) (A) (A) (A) (A) (A)
                 (A) (A) (A) (A) (A) (A) (A) (A) (A) (A) (A) (A)
                 (A) (A) (A) (A) (A) (A) (A) (A) (A) (A) (A) (A)
                 (A) (A) (A) (A) (A) (A) (A) (A) (A) (A) (A) (A)
                 (A) (A) (A) (A) (A) (A) (A) (A) (A) (A) (A) (A)
                 (A) (A) (A) (A) (A) (A) (A) (A) (A) (A) (A) (A)
                 (A) (A) (A) (A) (A) (A) (A) (A) (A) (A) (A) (A)
                 (A) (A) (A) (A) (A) (A) (A) (A) (A) (A) (A) (A)
                 (A) (A) (A) (A) (A) (A) (A) (A) (A) (A) (A) (A)
                 (A) (A) (A) (A) (A) (A) (A) (A) (A) (A) (A) (A)
                 (A) (A) (A) (A) (A) (A) (A) (A) (A) (A) (A) (A)
                 (A) (A) (A) (A) (A) (A) (A) (A) (A) (A) (A) (A)
                 (A) (A) (A) (A) (A) (A) (A) (A) (A) (A) (A) (A)
                 (A) (A) (A) (A) (A) (A) (A) (A) (A) (A) (A) (A)
                 (A) (A) (A) (A) (A) (A) (A) (A) (A) (A) (A) (A)
                 (A) (A) (A) (A) (A) (A) (A) (A) (A) (A) (A) (A)
                 (A) (A) (A) (A) (A) (A) (A) (A) (A) (A) (A) (A)
                 (A) (A) (A) (A) (A) (A) (A) (A) (A) (A) (A) (A)
                 (A) (A) (A) (A) (A) (A) (A) (A) (A) (A) (A) (A)
                 (A) (A) (A) (A) (A) (A) (A) (A) (A) (A) (A) (A)
                 (A) (A) (A) (A) (A) (A) (A) (A) (A) (A) (A) (A)
                 (A) (A) (A) (A) (A) (A) (A) (A) (A) (A) (A) (A)
                 (A) (A) (A) (A) (A) (A) (A) (A) (A) (A) (A) (A)
                 (A) (A) (A) (A) (A) (A) (A) (A) (A) (A) (A) (A)
                 (A) (A) (A) (A) (A) (A) (A) (A) (A) (A) (A) (A)
                 (A) (A) (A) (A) (A) (A) (A) (A) (A) (A) (A) (A)
                 (A) (A) (A) (A) (A) (A) (A) (A) (A) (A) (A) (A)
                 (A) (A) (A) (A) (A) (A) (A) (A) (A) (A) (A) (A)
                 (A) (A) (A) (A) (A) (A) (A) (A) (A) (A) (A) (A)
                 (A) (A) (A) (A) (A) (A) (A) (A) (A) (A) (A) (A)
                 (A) (A) (A) (A) (A) (A) (A) (A) (A) (A) (A) (A)
                 (A) (A) (A) (A) (A) (A) (A) (A) (A) (A) (A) (A)
                 (A) (A) (A) (A) (A) (A) (A) (A) (A) (A) (A) (A)
                 (A) (A) (A) (A) (A) (A) (A) (A) (A) (A) (A) (A)
                 (A) (A) (A) (A) (A) (A) (A) (A) (A) (A) (A) (A)
                 (A) (A) (A) (A) (A) (A) (A) (A) (A) (A) (A) (A)
                 (A) (A) (A) (A) (A) (A) (A) (A) (A) (A) (A) (A)
                 (A) (A) (A) (A) (A) (A) (A) (A) (A) (A) (A) (A)
                 (A) (A) (A) (A) (A) (A) (A) (A) (A) (A) (A) (A)
                 (A) (A) (A) (A) (A) (A) (A) (A) (A) (A) (A) (A)
    20 initial guesses have been made.
 Convergence on wavefunction:    0.001000000000000
 Davidson Disk Diagonalization:  ConvIn= 1.00D-03 SkipCon=T Conv= 1.00D-03.
 Max sub-space:  2000 roots to seek:    20 dimension of matrix:       549360
 Iteration     1 Dimension    20 NMult     0 NNew     20
 CISAX will form    20 AO SS matrices at one time.
 NMat=    20 NSing=    20 JSym2X= 0.
 FoFJK:  IHMeth= 1 ICntrl=       0 DoSepK=T KAlg= 0 I1Cent=           0 FoldK=F
 IRaf=         1 NMat=      40 IRICut=       1 DoRegI=T DoRafI=F ISym2E= 0 IDoP0=3 IntGTp=3.
 FoFCou: FMM=T IPFlag=           0 FMFlag=      100000 FMFlg1=        2001
         NFxFlg=           0 DoJE=F BraDBF=F KetDBF=F FulRan=T
         wScrn=  0.000000 ICntrl=       500 IOpCl=  0 I1Cent=           0 NGrid=           0
         NMat0=   20 NMatS0=     20 NMatT0=    0 NMatD0=   20 NMtDS0=    0 NMtDT0=    0
 Symmetry not used in FoFCou.
 FMM levels:  10  Number of levels for PrismC:   9
 New state      1 was old state      7
 New state      2 was old state      6
 New state      3 was old state      2
 New state      4 was old state      3
 New state      5 was old state      1
 Excitation Energies [eV] at current iteration:
 Root      1 :     2.614418217521798
 Root      2 :     2.619419642542086
 Root      3 :     2.680322493596070
 Root      4 :     2.690289257129609
 Root      5 :     3.061251332797613
 Root      6 :     3.069616951299954
 Root      7 :     3.628485649703573
 Root      8 :     3.668955107952671
 Root      9 :     3.735942145430759
 Root     10 :     3.759423849490030
 Root     11 :     3.854149713152323
 Root     12 :     3.872909725066831
 Root     13 :     4.303999033068150
 Root     14 :     4.305598006027433
 Root     15 :     4.972039893569381
 Root     16 :     5.008192574521856
 Root     17 :     5.264840591236751
 Root     18 :     5.298002084135111
 Root     19 :     5.300135193928035
 Root     20 :     5.332453273870471
 Iteration     2 Dimension    30 NMult    20 NNew     10
 CISAX will form    10 AO SS matrices at one time.
 NMat=    10 NSing=    10 JSym2X= 0.
 New state      1 was old state      3
 Root      1 not converged, maximum delta is    0.186804459301402
 New state      2 was old state      4
 Root      2 not converged, maximum delta is    0.188195554224660
 New state      3 was old state      2
 Root      3 not converged, maximum delta is    0.067354669999875
 New state      4 was old state      1
 Root      4 not converged, maximum delta is    0.089919937833193
 Root      5 not converged, maximum delta is    0.003247600468320
 Excitation Energies [eV] at current iteration:
 Root      1 :     1.801305937371301   Change is   -0.879016556224769
 Root      2 :     1.807427165447003   Change is   -0.882862091682606
 Root      3 :     2.235880860347356   Change is   -0.383538782194730
 Root      4 :     2.239078849273095   Change is   -0.375339368248703
 Root      5 :     3.061174947620104   Change is   -0.000076385177509
 Iteration     3 Dimension    40 NMult    30 NNew     10
 CISAX will form    10 AO SS matrices at one time.
 NMat=    10 NSing=    10 JSym2X= 0.
 Root      1 not converged, maximum delta is    0.069126243128493
 Root      2 not converged, maximum delta is    0.070290832519116
 Root      3 not converged, maximum delta is    0.044055249615102
 Root      4 not converged, maximum delta is    0.042580648114850
 Root      5 has converged.
 Excitation Energies [eV] at current iteration:
 Root      1 :     1.694060843545557   Change is   -0.107245093825744
 Root      2 :     1.699036600240760   Change is   -0.108390565206243
 Root      3 :     2.194359292338810   Change is   -0.041521568008547
 Root      4 :     2.200183625115310   Change is   -0.038895224157785
 Root      5 :     3.061174924539293   Change is   -0.000000023080811
 Iteration     4 Dimension    48 NMult    40 NNew      8
 CISAX will form     8 AO SS matrices at one time.
 NMat=     8 NSing=     8 JSym2X= 0.
 Root      1 not converged, maximum delta is    0.012990381688114
 Root      2 not converged, maximum delta is    0.013245390255430
 Root      3 not converged, maximum delta is    0.009752531735780
 Root      4 not converged, maximum delta is    0.008908492079167
 Root      5 has converged.
 Excitation Energies [eV] at current iteration:
 Root      1 :     1.677346167023531   Change is   -0.016714676522025
 Root      2 :     1.682159319210809   Change is   -0.016877281029951
 Root      3 :     2.187049200667025   Change is   -0.007310091671784
 Root      4 :     2.193406580225983   Change is   -0.006777044889327
 Root      5 :     3.061174924539266   Change is   -0.000000000000027
 Iteration     5 Dimension    56 NMult    48 NNew      8
 CISAX will form     8 AO SS matrices at one time.
 NMat=     8 NSing=     8 JSym2X= 0.
 Root      1 not converged, maximum delta is    0.002157913986963
 Root      2 not converged, maximum delta is    0.002160565108541
 Root      3 not converged, maximum delta is    0.002503768763485
 Root      4 not converged, maximum delta is    0.002387830055538
 Root      5 has converged.
 Excitation Energies [eV] at current iteration:
 Root      1 :     1.675567913184587   Change is   -0.001778253838945
 Root      2 :     1.680386432132364   Change is   -0.001772887078445
 Root      3 :     2.186201888638879   Change is   -0.000847312028146
 Root      4 :     2.192630108866639   Change is   -0.000776471359344
 Root      5 :     3.061174924539293   Change is    0.000000000000027
 Iteration     6 Dimension    64 NMult    56 NNew      8
 CISAX will form     8 AO SS matrices at one time.
 NMat=     8 NSing=     8 JSym2X= 0.
 Root      1 not converged, maximum delta is    0.001352671923145
 Root      2 not converged, maximum delta is    0.001372654799355
 Root      3 not converged, maximum delta is    0.001071873747320
 Root      4 not converged, maximum delta is    0.001015692316837
 Root      5 has converged.
 Excitation Energies [eV] at current iteration:
 Root      1 :     1.675314105348290   Change is   -0.000253807836296
 Root      2 :     1.680131409236408   Change is   -0.000255022895956
 Root      3 :     2.186073435621150   Change is   -0.000128453017730
 Root      4 :     2.192512292703711   Change is   -0.000117816162928
 Root      5 :     3.061174924539374   Change is    0.000000000000081
 Iteration     7 Dimension    72 NMult    64 NNew      8
 CISAX will form     8 AO SS matrices at one time.
 NMat=     8 NSing=     8 JSym2X= 0.
 Root      1 has converged.
 Root      2 has converged.
 Root      3 has converged.
 Root      4 has converged.
 Root      5 has converged.
 Excitation Energies [eV] at current iteration:
 Root      1 :     1.675289863175130   Change is   -0.000024242173161
[...]
 Alpha virt. eigenvalues --    1.83480   1.83780   1.83848   1.84044   1.84162
 Alpha virt. eigenvalues --    1.84471   1.84482   1.84744   1.84831   1.85082
 Alpha virt. eigenvalues --    1.85123   1.85295   1.85303   1.85444   1.85500
 Alpha virt. eigenvalues --    1.85857   1.85888   1.86338   1.86380   1.86575
 Alpha virt. eigenvalues --    1.86609   1.86779   1.86804   1.87001   1.87060
 Alpha virt. eigenvalues --    1.87439   1.87466   1.87701   1.87730   1.87888
 Alpha virt. eigenvalues --    1.87969   1.88060   1.88135   1.88530   1.88556
 Alpha virt. eigenvalues --    1.88844   1.88895   1.89029   1.89146   1.89616
 Alpha virt. eigenvalues --    1.89646   1.89766   1.89833   1.90139   1.90146
 Alpha virt. eigenvalues --    1.90773   1.90851   1.91370   1.91381   1.91461
 Alpha virt. eigenvalues --    1.91549   1.92140   1.92175   1.92619   1.92646
 Alpha virt. eigenvalues --    1.93003   1.93105   1.93358   1.93456   1.94264
 Alpha virt. eigenvalues --    1.94303   1.94708   1.94769   1.95495   1.95545
 Alpha virt. eigenvalues --    1.95748   1.95770   1.96003   1.96016   1.96130
 Alpha virt. eigenvalues --    1.96172   1.96438   1.96615   1.96891   1.96919
 Alpha virt. eigenvalues --    1.97470   1.97498   1.97758   1.97856   1.98123
 Alpha virt. eigenvalues --    1.98191   1.98308   1.98697   1.99026   1.99157
 Alpha virt. eigenvalues --    1.99842   1.99888   2.00679   2.00680   2.01017
 Alpha virt. eigenvalues --    2.01052   2.01459   2.01501   2.01564   2.01693
 Alpha virt. eigenvalues --    2.01740   2.01781   2.02665   2.02806   2.03094
 Alpha virt. eigenvalues --    2.03256   2.03334   2.03424   2.03476   2.03505
 Alpha virt. eigenvalues --    2.03980   2.04056   2.04929   2.04978   2.05533
 Alpha virt. eigenvalues --    2.05583   2.06098   2.06240   2.06924   2.06990
 Alpha virt. eigenvalues --    2.07205   2.07301   2.08504   2.08604   2.08958
 Alpha virt. eigenvalues --    2.09001   2.09566   2.09609   2.10798   2.10984
 Alpha virt. eigenvalues --    2.11203   2.11359   2.11488   2.11559   2.11747
 Alpha virt. eigenvalues --    2.11818   2.12420   2.12485   2.12753   2.12822
 Alpha virt. eigenvalues --    2.12824   2.12855   2.13586   2.13787   2.14157
 Alpha virt. eigenvalues --    2.14202   2.15355   2.15358   2.15946   2.16034
 Alpha virt. eigenvalues --    2.16541   2.16544   2.16775   2.17124   2.17436
 Alpha virt. eigenvalues --    2.17599   2.17724   2.17886   2.17954   2.18089
 Alpha virt. eigenvalues --    2.18344   2.18627   2.18888   2.19189   2.19660
 Alpha virt. eigenvalues --    2.19772   2.20057   2.20195   2.20232   2.20391
 Alpha virt. eigenvalues --    2.21121   2.21169   2.21689   2.21715   2.21764
 Alpha virt. eigenvalues --    2.21828   2.22652   2.22699   2.23291   2.23333
 Alpha virt. eigenvalues --    2.24368   2.24413   2.24953   2.24977   2.26318
 Alpha virt. eigenvalues --    2.26392   2.26798   2.26959   2.27121   2.27154
 Alpha virt. eigenvalues --    2.28156   2.28265   2.29286   2.29386   2.29754
 Alpha virt. eigenvalues --    2.29829   2.30473   2.30574   2.30781   2.31101
 Alpha virt. eigenvalues --    2.31149   2.31201   2.32138   2.32188   2.33153
 Alpha virt. eigenvalues --    2.33185   2.33432   2.33480   2.34090   2.34158
 Alpha virt. eigenvalues --    2.35251   2.35390   2.35815   2.35859   2.36282
 Alpha virt. eigenvalues --    2.36370   2.36395   2.36641   2.37623   2.37677
 Alpha virt. eigenvalues --    2.38274   2.38328   2.38733   2.38875   2.39615
 Alpha virt. eigenvalues --    2.39628   2.40199   2.40213   2.40503   2.40778
 Alpha virt. eigenvalues --    2.41162   2.41286   2.41640   2.41703   2.42058
 Alpha virt. eigenvalues --    2.42077   2.42767   2.42960   2.43025   2.43553
 Alpha virt. eigenvalues --    2.43923   2.44186   2.44748   2.44751   2.44921
 Alpha virt. eigenvalues --    2.44934   2.45515   2.45564   2.46230   2.46317
 Alpha virt. eigenvalues --    2.46440   2.46495   2.46745   2.46816   2.47271
 Alpha virt. eigenvalues --    2.47321   2.47730   2.47829   2.49326   2.49335
 Alpha virt. eigenvalues --    2.49834   2.50084   2.50398   2.50564   2.51137
 Alpha virt. eigenvalues --    2.51211   2.51553   2.51902   2.52342   2.52455
 Alpha virt. eigenvalues --    2.52825   2.53105   2.53910   2.53934   2.54164
 Alpha virt. eigenvalues --    2.54222   2.54747   2.54804   2.55534   2.55606
 Alpha virt. eigenvalues --    2.57879   2.58016   2.58659   2.58841   2.60223
 Alpha virt. eigenvalues --    2.60241   2.60628   2.60863   2.61725   2.61758
 Alpha virt. eigenvalues --    2.62368   2.62548   2.62971   2.63062   2.63951
 Alpha virt. eigenvalues --    2.64156   2.64259   2.64360   2.65034   2.65094
 Alpha virt. eigenvalues --    2.65798   2.65802   2.66754   2.66792   2.66925
 Alpha virt. eigenvalues --    2.66991   2.67915   2.67923   2.68753   2.68872
 Alpha virt. eigenvalues --    2.68969   2.69039   2.69405   2.69527   2.70013
 Alpha virt. eigenvalues --    2.70070   2.70995   2.71002   2.71828   2.72069
 Alpha virt. eigenvalues --    2.72428   2.72669   2.72670   2.72844   2.73216
 Alpha virt. eigenvalues --    2.73289   2.73405   2.73548   2.74438   2.74526
 Alpha virt. eigenvalues --    2.74986   2.74990   2.76449   2.76605   2.76996
 Alpha virt. eigenvalues --    2.77247   2.77470   2.77534   2.78202   2.78223
 Alpha virt. eigenvalues --    2.78618   2.78744   2.79086   2.79148   2.80192
 Alpha virt. eigenvalues --    2.80358   2.80604   2.80620   2.81078   2.81130
 Alpha virt. eigenvalues --    2.81918   2.81948   2.82261   2.82356   2.83766
 Alpha virt. eigenvalues --    2.83773   2.83781   2.83834   2.84452   2.84559
 Alpha virt. eigenvalues --    2.84809   2.84897   2.85618   2.85680   2.86586
 Alpha virt. eigenvalues --    2.87010   2.87105   2.87623   2.88162   2.88167
 Alpha virt. eigenvalues --    2.88523   2.88541   2.88795   2.88948   2.90511
 Alpha virt. eigenvalues --    2.90584   2.90992   2.91202   2.93169   2.93245
 Alpha virt. eigenvalues --    2.93694   2.94213   2.94494   2.94570   2.95382
 Alpha virt. eigenvalues --    2.95399   2.95772   2.96218   2.96297   2.96454
 Alpha virt. eigenvalues --    2.96801   2.97192   2.97831   2.97954   2.98221
 Alpha virt. eigenvalues --    2.98284   2.98380   2.98496   2.98617   2.98701
 Alpha virt. eigenvalues --    2.98844   2.98896   2.99598   2.99721   2.99944
 Alpha virt. eigenvalues --    3.00046   3.00234   3.00258   3.00476   3.00916
 Alpha virt. eigenvalues --    3.01823   3.02003   3.02041   3.02046   3.02748
 Alpha virt. eigenvalues --    3.02749   3.02993   3.03238   3.03340   3.03632
 Alpha virt. eigenvalues --    3.03975   3.04184   3.04354   3.04466   3.04561
 Alpha virt. eigenvalues --    3.04648   3.05272   3.05310   3.06085   3.06127
 Alpha virt. eigenvalues --    3.06818   3.06858   3.07842   3.08158   3.09276
 Alpha virt. eigenvalues --    3.09416   3.09707   3.10359   3.10457   3.10661
 Alpha virt. eigenvalues --    3.11344   3.11398   3.11817   3.11958   3.12189
 Alpha virt. eigenvalues --    3.12227   3.13297   3.13571   3.13607   3.13654
 Alpha virt. eigenvalues --    3.14109   3.14402   3.15906   3.15935   3.17279
 Alpha virt. eigenvalues --    3.17439   3.17797   3.18091   3.18951   3.19142
 Alpha virt. eigenvalues --    3.22322   3.22523   3.23963   3.24359   3.24692
 Alpha virt. eigenvalues --    3.25115   3.26521   3.26576   3.27314   3.27637
 Alpha virt. eigenvalues --    3.29118   3.29148   3.31298   3.31541   3.33104
 Alpha virt. eigenvalues --    3.33434   3.40190   3.40649   3.42736   3.42832
 Alpha virt. eigenvalues --    3.48617   3.48677   3.50039   3.50200   3.50755
 Alpha virt. eigenvalues --    3.51491   3.56567   3.56923   3.59116   3.59257
 Alpha virt. eigenvalues --    3.62435   3.62855   3.66033   3.66201   3.67204
 Alpha virt. eigenvalues --    3.67470   3.73290   3.73946   3.76075   3.76604
          Condensed to atoms (all electrons):
 Mulliken charges:
               1
     1  Mg   0.838761
     2  C   -0.002970
     3  C   -0.094117
     4  C   -0.045885
     5  C   -0.063954
     6  N   -0.256779
     7  C   -0.052460
     8  C   -0.014010
     9  C   -0.086998
    10  C    0.046298
    11  C    0.104806
    12  C    0.053467
    13  C   -0.071802
    14  H    0.036125
    15  N   -0.433144
    16  C    0.168389
    17  C   -0.177173
    18  C   -0.004038
    19  C    0.148708
    20  C    0.110178
    21  C    0.012252
    22  O   -0.249651
    23  C    0.062495
    24  N   -0.341153
    25  C    0.041240
    26  C   -0.028163
    27  C   -0.024001
    28  C    0.074844
    29  C    0.076168
    30  C    0.035127
    31  C   -0.004495
    32  N   -0.310488
    33  C    0.080423
    34  C   -0.169694
    35  C    0.008391
    36  C    0.082957
    37  C    0.127309
    38  C    0.046126
    39  O   -0.188368
    40  C   -0.005323
    41  C    0.212880
    42  O   -0.257129
    43  O   -0.304783
    44  C    0.157688
    45  H   -0.017597
    46  H   -0.016856
    47  H   -0.041462
    48  H    0.000972
    49  H   -0.004042
    50  H    0.025498
    51  H    0.016449
    52  H    0.016677
    53  H    0.011163
    54  H    0.044114
    55  H    0.017910
    56  H    0.017932
    57  H    0.005884
    58  H    0.026830
    59  H    0.039485
    60  H    0.037371
    61  H    0.035600
    62  H    0.031441
    63  H    0.016517
    64  H    0.009497
    65  H    0.023199
    66  H    0.012559
    67  H    0.004781
    68  H    0.006370
    69  H    0.004770
    70  H    0.008737
    71  H    0.018140
    72  H    0.028965
    73  H    0.047608
    74  H    0.009125
    75  H    0.046048
    76  H    0.035188
    77  H    0.043000
    78  H    0.046391
    79  H    0.053682
    80  Mg   0.837808
    81  C   -0.016841
    82  C   -0.087793
    83  C   -0.045528
    84  C   -0.064895
    85  N   -0.254570
    86  C   -0.049810
    87  C   -0.015111
    88  C   -0.090491
    89  C    0.045753
    90  C    0.114370
    91  C    0.062539
    92  C   -0.077937
    93  H    0.034950
    94  N   -0.423494
    95  C    0.162930
    96  C   -0.174623
    97  C   -0.007822
    98  C    0.152115
    99  C    0.099363
   100  C    0.015560
   101  O   -0.253209
   102  C    0.061207
   103  N   -0.350058
   104  C    0.037515
   105  C   -0.019835
   106  C   -0.034807
   107  C    0.088923
   108  C    0.073665
   109  C    0.034734
   110  C   -0.007679
   111  N   -0.324101
   112  C    0.078450
   113  C   -0.163133
   114  C    0.002263
   115  C    0.096201
   116  C    0.131489
   117  C    0.042392
   118  O   -0.187784
   119  C    0.000931
   120  C    0.211271
   121  O   -0.251047
   122  O   -0.305596
   123  C    0.152006
   124  H   -0.019638
   125  H   -0.015594
   126  H   -0.040463
   127  H   -0.000555
   128  H   -0.004309
   129  H    0.022513
   130  H    0.014392
   131  H    0.016347
   132  H    0.013874
   133  H    0.037677
   134  H    0.020888
   135  H    0.019572
   136  H    0.008779
   137  H    0.026136
   138  H    0.039777
   139  H    0.038250
   140  H    0.036376
   141  H    0.033891
   142  H    0.014387
   143  H    0.012413
   144  H    0.025123
   145  H    0.011643
   146  H    0.005666
   147  H    0.006248
   148  H    0.003656
   149  H    0.010923
   150  H    0.017931
   151  H    0.030117
   152  H    0.046032
   153  H    0.008493
   154  H    0.046972
   155  H    0.035103
   156  H    0.044028
   157  H    0.049521
   158  H    0.053560
 Sum of Mulliken charges =  -0.00000
 Mulliken charges with hydrogens summed into heavy atoms:
               1
     1  Mg   0.838761
     2  C   -0.002970
     3  C   -0.111714
     4  C   -0.062741
     5  C   -0.105415
     6  N   -0.256779
     7  C   -0.052460
     8  C   -0.013038
     9  C   -0.091040
    10  C    0.046298
    11  C    0.163431
    12  C    0.108744
    13  C    0.000165
    15  N   -0.433144
    16  C    0.168389
    17  C   -0.177173
    18  C   -0.004038
    19  C    0.148708
    20  C    0.182377
    21  C    0.012252
    22  O   -0.249651
    23  C    0.166907
    24  N   -0.341153
    25  C    0.041240
    26  C   -0.011646
    27  C   -0.014505
    28  C    0.074844
    29  C    0.116708
    30  C    0.046266
    31  C    0.051346
    32  N   -0.310488
    33  C    0.080423
    34  C   -0.169694
    35  C    0.008391
    36  C    0.082957
    37  C    0.230090
    38  C    0.046126
    39  O   -0.188368
    40  C    0.029864
    41  C    0.212880
    42  O   -0.257129
    43  O   -0.304783
    44  C    0.300762
    80  Mg   0.837808
    81  C   -0.016841
    82  C   -0.107431
    83  C   -0.061122
    84  C   -0.105358
    85  N   -0.254570
    86  C   -0.049810
    87  C   -0.015666
    88  C   -0.094800
    89  C    0.045753
    90  C    0.167622
    91  C    0.114089
    92  C   -0.002526
    94  N   -0.423494
    95  C    0.162930
    96  C   -0.174623
    97  C   -0.007822
    98  C    0.152115
    99  C    0.174055
   100  C    0.015560
   101  O   -0.253209
   102  C    0.169725
   103  N   -0.350058
   104  C    0.037515
   105  C   -0.005448
   106  C   -0.022394
   107  C    0.088923
   108  C    0.116097
   109  C    0.044638
   110  C    0.051292
   111  N   -0.324101
   112  C    0.078450
   113  C   -0.163133
   114  C    0.002263
   115  C    0.096201
   116  C    0.232985
   117  C    0.042392
   118  O   -0.187784
   119  C    0.036034
   120  C    0.211271
   121  O   -0.251047
   122  O   -0.305596
   123  C    0.299116
 Electronic spatial extent (au):  <R**2>=         595559.3040
 Charge=             -0.0000 electrons
 Dipole moment (field-independent basis, Debye):
    X=              4.3892    Y=              6.4060    Z=             -3.9208  Tot=              8.6991
 Quadrupole moment (field-independent basis, Debye-Ang):
   XX=           -502.1441   YY=           -564.6115   ZZ=           -459.8539
   XY=             -0.6760   XZ=            -59.5410   YZ=             -3.5874
 Traceless Quadrupole moment (field-independent basis, Debye-Ang):
   XX=              6.7258   YY=            -55.7417   ZZ=             49.0159
   XY=             -0.6760   XZ=            -59.5410   YZ=             -3.5874
 Octapole moment (field-independent basis, Debye-Ang**2):
  XXX=           2136.3496  YYY=             73.0724  ZZZ=             19.8750  XYY=             19.7813
  XXY=            827.9130  XXZ=           -333.2919  XZZ=            464.2767  YZZ=             20.4800
  YYZ=           -294.7952  XYZ=             57.1053
 Hexadecapole moment (field-independent basis, Debye-Ang**3):
 XXXX=        -746165.2388 YYYY=         -37273.9945 ZZZZ=         -18368.4169 XXXY=          12588.4422
 XXXZ=         -27050.5140 YYYX=          -1603.0485 YYYZ=            177.2609 ZZZX=            690.8052
 ZZZY=            107.6039 XXYY=        -149014.7397 XXZZ=        -117443.6868 YYZZ=          -8397.1712
 XXYZ=          -1700.3985 YYXZ=          -1864.4005 ZZXY=           -594.3592
 N-N= 1.235150808352D+04 E-N=-3.418380147977D+04  KE= 4.028802071083D+03
 Leave Link  601 at Sun Sep 12 17:31:14 2021, MaxMem= 23488102400 cpu:              18.5 elap:               0.9
 (Enter /sw/apps/gaussian-16.0/g16/l9999.exe)
 1\1\GINC-BP1-COMPUTE00099\SP\RCAM-B3LYP TD-FC\def2SVP\C68H72Mg2N8O8\OF
 15641\12-Sep-2021\0\\#p cam-b3lyp/Def2SVP td=(nstates=5)\\TDDFT excite
 d states in gaussian\\0,1\Mg,0,0.,0.,0.\C,0,-0.217,-2.218,2.801\C,0,-1
 .255,2.442,2.026\C,0,-0.245,1.85,-2.564\C,0,0.146,-2.824,-2.037\N,0,-0
 .617,-0.009,2.126\C,0,-0.594,-0.908,3.105\C,0,-0.936,-0.309,4.502\C,0,
 -1.773,0.964,4.032\C,0,-1.155,1.168,2.66\C,0,-3.263,0.685,3.863\C,0,0.
 345,0.11,5.299\C,0,0.124,0.397,6.787\H,0,1.168,0.033,7.733\N,0,-0.185,
 1.961,-0.152\C,0,-0.703,2.8,0.777\C,0,-0.62,4.156,0.193\C,0,-0.187,4.0
 15,-1.225\C,0,-0.214,2.583,-1.38\C,0,-0.887,5.406,0.974\C,0,0.181,5.01
 3,-2.277\O,0,0.303,4.69,-3.508\C,0,0.31,6.414,-1.837\N,0,-0.265,-0.413
 ,-2.029\C,0,-0.279,0.569,-2.937\C,0,-0.196,0.024,-4.332\C,0,0.124,-1.5
 33,-4.18\C,0,0.086,-1.632,-2.635\C,0,-1.451,0.205,-5.197\C,0,1.373,-2.
 07,-4.923\C,0,2.626,-1.49,-4.306\N,0,0.15,-2.144,0.303\C,0,0.173,-3.13
 6,-0.688\C,0,0.173,-4.438,0.004\C,0,0.133,-4.111,1.358\C,0,0.083,-2.69
 5,1.502\C,0,0.149,-5.715,-0.623\C,0,0.096,-4.629,2.716\O,0,0.208,-5.74
 7,3.221\C,0,-0.255,-3.428,3.701\C,0,0.717,-3.482,4.848\O,0,1.931,-3.25
 5,4.669\O,0,0.038,-3.556,6.003\C,0,0.943,-3.583,7.183\H,0,-1.859,3.22,
 2.497\H,0,-0.218,2.453,-3.474\H,0,0.276,-3.747,-2.605\H,0,-1.554,-0.94
 9,5.132\H,0,-1.585,1.831,4.665\H,0,-3.484,-0.377,3.969\H,0,-3.511,1.02
 7,2.858\H,0,-3.852,1.301,4.543\H,0,0.669,1.096,4.966\H,0,1.13,-0.639,5
 .189\H,0,-0.844,0.026,7.125\H,0,0.062,1.477,6.921\H,0,-1.344,5.186,1.9
 38\H,0,-1.651,5.963,0.432\H,0,0.007,6.02,1.084\H,0,-0.635,6.744,-1.405
 \H,0,0.665,6.97,-2.704\H,0,1.048,6.466,-1.036\H,0,0.608,0.501,-4.891\H
 ,0,-0.692,-2.156,-4.547\H,0,-1.267,0.74,-6.129\H,0,-2.204,0.714,-4.596
 \H,0,-1.967,-0.72,-5.453\H,0,1.356,-1.759,-5.967\H,0,1.452,-3.157,-4.9
 02\H,0,2.714,-0.522,-4.798\H,0,3.487,-2.121,-4.529\H,0,2.495,-1.303,-3
 .24\H,0,0.867,-6.333,-0.084\H,0,0.404,-5.642,-1.68\H,0,-0.891,-5.999,-
 0.463\H,0,-1.283,-3.581,4.028\H,0,0.698,-4.478,7.755\H,0,0.833,-2.619,
 7.68\H,0,2.,-3.754,6.976\Mg,0,31.52886,2.84312,2.40427\C,0,29.29327,0.
 26875,3.52403\C,0,28.83414,4.93187,2.30331\C,0,33.37879,4.99992,0.9924
 \C,0,33.76233,0.32169,1.51001\N,0,29.39163,2.52496,2.87679\C,0,28.6690
 7,1.52187,3.35226\C,0,27.21425,1.90285,3.73688\C,0,27.04302,3.1869,2.7
 8779\C,0,28.5082,3.60213,2.67165\C,0,26.53208,2.84433,1.39821\C,0,27.0
 7753,2.2863,5.25223\C,0,25.63894,2.36929,5.76732\H,0,25.36481,1.9459,7
 .13775\N,0,31.29233,4.80319,2.20249\C,0,30.12904,5.4873,2.20815\C,0,30
 .49115,6.89842,2.00377\C,0,31.94873,6.9712,1.71243\C,0,32.26609,5.5615
 7,1.60151\C,0,29.51039,8.02256,2.1706\C,0,32.89713,8.11981,1.54676\O,0
 ,34.07237,7.95802,1.0615\C,0,32.37668,9.45332,1.88199\N,0,33.21921,2.6
 822,1.20463\C,0,33.86227,3.7784,0.76559\C,0,35.19716,3.42063,0.15694\C
 ,0,35.42448,1.87485,0.49819\C,0,34.08214,1.57028,1.19872\C,0,35.31817,
 3.63154,-1.35212\C,0,36.74213,1.5024,1.23151\C,0,36.73197,2.0715,2.632
 01\N,0,31.63618,0.69973,2.65418\C,0,32.64688,-0.1648,2.1797\C,0,32.222
 96,-1.54445,2.49479\C,0,30.97438,-1.38702,3.11508\C,0,30.63427,-0.0080
 9,3.16373\C,0,32.93815,-2.73022,2.16528\C,0,29.86192,-2.07456,3.73023\
 O,0,29.6294,-3.24026,4.04774\C,0,28.66631,-1.04256,3.90875\C,0,28.1376
 7,-1.18202,5.31004\O,0,28.84613,-0.87832,6.28598\O,0,26.81841,-1.44158
 ,5.2595\C,0,26.24622,-1.57748,6.62549\H,0,28.02462,5.60466,2.01884\H,0
 ,34.10337,5.71011,0.58732\H,0,34.44812,-0.51336,1.35171\H,0,26.46887,1
 .15624,3.49038\H,0,26.46372,3.96545,3.27731\H,0,26.48058,1.77741,1.239
 58\H,0,27.23216,3.29614,0.70771\H,0,25.57155,3.33551,1.21806\H,0,27.38
 571,3.33117,5.3864\H,0,27.64357,1.61451,5.8678\H,0,24.92532,1.90933,5.
 07297\H,0,25.342,3.42039,5.79957\H,0,28.47916,7.65218,2.22336\H,0,29.5
 4024,8.6125,1.24813\H,0,29.75403,8.67246,3.01377\H,0,31.50603,9.66642,
 1.26635\H,0,33.22674,10.13152,1.78551\H,0,32.03184,9.443,2.92198\H,0,3
 5.99452,4.00046,0.6054\H,0,35.45179,1.25658,-0.41111\H,0,36.15129,4.30
 292,-1.63358\H,0,34.37702,4.01889,-1.71918\H,0,35.43748,2.72144,-1.937
 51\H,0,37.5989,1.9492,0.72115\H,0,36.92002,0.43347,1.28387\H,0,37.0641
 4,3.10307,2.48162\H,0,37.42065,1.52453,3.27278\H,0,35.71295,2.10867,3.
 03434\H,0,32.89793,-3.37034,3.03656\H,0,33.96468,-2.50918,1.88043\H,0,
 32.34504,-3.08689,1.31894\H,0,27.91066,-1.28395,3.16022\H,0,25.75364,-
 2.55374,6.66988\H,0,25.60957,-0.68489,6.77287\H,0,26.94026,-1.6529,7.4
 5439\\Version=ES64L-G16RevA.03\State=1-A\HF=-4069.8117709\RMSD=4.476e-
 09\PG=C01 [X(C68H72Mg2N8O8)]\\@


 OF ALL THE WONDERS OF THE UNIVERSE, THE GREATEST IS MAN.

                                    -- ARISTOTLE
 Job cpu time:       0 days 10 hours 44 minutes 49.3 seconds.
 Elapsed time:       0 days  0 hours 27 minutes 28.0 seconds.
 File lengths (MBytes):  RWF=  13225 Int=      0 D2E=      0 Chk=    574 Scr=      1
 Normal termination of Gaussian 16 at Sun Sep 12 17:31:16 2021.
