 Entering Gaussian System, Link 0=g16
 Initial command:
 /sw/apps/gaussian-16.0/g16/l1.exe "/tmp/Gau-227587.inp" -scrdir="/tmp/"
 Entering Link 1 = /sw/apps/gaussian-16.0/g16/l1.exe PID=    227588.
  
 Copyright (c) 1988,1990,1992,1993,1995,1998,2003,2009,2016,
            Gaussian, Inc.  All Rights Reserved.
  
 This is part of the Gaussian(R) 16 program.  It is based on
 the Gaussian(R) 09 system (copyright 2009, Gaussian, Inc.),
 the Gaussian(R) 03 system (copyright 2003, Gaussian, Inc.),
 the Gaussian(R) 98 system (copyright 1998, Gaussian, Inc.),
 the Gaussian(R) 94 system (copyright 1995, Gaussian, Inc.),
 the Gaussian 92(TM) system (copyright 1992, Gaussian, Inc.),
 the Gaussian 90(TM) system (copyright 1990, Gaussian, Inc.),
 the Gaussian 88(TM) system (copyright 1988, Gaussian, Inc.),
 the Gaussian 86(TM) system (copyright 1986, Carnegie Mellon
 University), and the Gaussian 82(TM) system (copyright 1983,
 Carnegie Mellon University). Gaussian is a federally registered
 trademark of Gaussian, Inc.
  
 This software contains proprietary and confidential information,
 including trade secrets, belonging to Gaussian, Inc.
  
 This software is provided under written license and may be
 used, copied, transmitted, or stored only in accord with that
 written license.
  
 The following legend is applicable only to US Government
 contracts under FAR:
  
                    RESTRICTED RIGHTS LEGEND
  
 Use, reproduction and disclosure by the US Government is
 subject to restrictions as set forth in subparagraphs (a)
 and (c) of the Commercial Computer Software - Restricted
 Rights clause in FAR 52.227-19.
  
 Gaussian, Inc.
 340 Quinnipiac St., Bldg. 40, Wallingford CT 06492
  
  
 ---------------------------------------------------------------
 Warning -- This program may not be used in any manner that
 competes with the business of Gaussian, Inc. or will provide
 assistance to any competitor of Gaussian, Inc.  The licensee
 of this program is prohibited from giving any competitor of
 Gaussian, Inc. access to this program.  By using this program,
 the user acknowledges that Gaussian, Inc. is engaged in the
 business of creating and licensing software in the field of
 computational chemistry and represents and warrants to the
 licensee that it is not a competitor of Gaussian, Inc. and that
 it will not use this program in any manner prohibited above.
 ---------------------------------------------------------------
  

 Cite this work as:
 Gaussian 16, Revision A.03,
 M. J. Frisch, G. W. Trucks, H. B. Schlegel, G. E. Scuseria, 
 M. A. Robb, J. R. Cheeseman, G. Scalmani, V. Barone, 
 G. A. Petersson, H. Nakatsuji, X. Li, M. Caricato, A. V. Marenich, 
 J. Bloino, B. G. Janesko, R. Gomperts, B. Mennucci, H. P. Hratchian, 
 J. V. Ortiz, A. F. Izmaylov, J. L. Sonnenberg, D. Williams-Young, 
 F. Ding, F. Lipparini, F. Egidi, J. Goings, B. Peng, A. Petrone, 
 T. Henderson, D. Ranasinghe, V. G. Zakrzewski, J. Gao, N. Rega, 
 G. Zheng, W. Liang, M. Hada, M. Ehara, K. Toyota, R. Fukuda, 
 J. Hasegawa, M. Ishida, T. Nakajima, Y. Honda, O. Kitao, H. Nakai, 
 T. Vreven, K. Throssell, J. A. Montgomery, Jr., J. E. Peralta, 
 F. Ogliaro, M. J. Bearpark, J. J. Heyd, E. N. Brothers, K. N. Kudin, 
 V. N. Staroverov, T. A. Keith, R. Kobayashi, J. Normand, 
 K. Raghavachari, A. P. Rendell, J. C. Burant, S. S. Iyengar, 
 J. Tomasi, M. Cossi, J. M. Millam, M. Klene, C. Adamo, R. Cammi, 
 J. W. Ochterski, R. L. Martin, K. Morokuma, O. Farkas, 
 J. B. Foresman, and D. J. Fox, Gaussian, Inc., Wallingford CT, 2016.
 
 ******************************************
 Gaussian 16:  ES64L-G16RevA.03 25-Dec-2016
                 9-Sep-2021 
 ******************************************
 %nproc=24
 Will use up to   24 processors via shared memory.
 %mem=175gb
 -----------------------------------
 #p cam-b3lyp/Def2SVP td=(nstates=5)
 -----------------------------------
 1/38=1,172=1/1;
 2/12=2,17=6,18=5,40=1/2;
 3/5=43,7=101,11=9,25=1,30=1,74=-40/1,2,3,8;
 4//1;
 5/5=2,38=5/2;
 8/6=1,10=1,108=5/1;
 9/41=5,42=1,70=2/14;
 6/7=2,8=2,9=2,10=2/1;
 99/5=1,9=1/99;
 Leave Link    1 at Thu Sep  9 06:29:46 2021, MaxMem= 23488102400 cpu:               0.6 elap:               0.0
 (Enter /sw/apps/gaussian-16.0/g16/l101.exe)
 --------------------------------
 TDDFT excited states in gaussian
 --------------------------------
 Symbolic Z-matrix:
 Charge =  0 Multiplicity = 1
 Mg                    0.        0.        0. 
 C                    -0.217    -2.218     2.801 
 C                    -1.255     2.442     2.026 
 C                    -0.245     1.85     -2.564 
 C                     0.146    -2.824    -2.037 
 N                    -0.617    -0.009     2.126 
 C                    -0.594    -0.908     3.105 
 C                    -0.936    -0.309     4.502 
 C                    -1.773     0.964     4.032 
 C                    -1.155     1.168     2.66 
 C                    -3.263     0.685     3.863 
 C                     0.345     0.11      5.299 
 C                     0.124     0.397     6.787 
 H                     1.168     0.033     7.733 
 N                    -0.185     1.961    -0.152 
 C                    -0.703     2.8       0.777 
 C                    -0.62      4.156     0.193 
 C                    -0.187     4.015    -1.225 
 C                    -0.214     2.583    -1.38 
 C                    -0.887     5.406     0.974 
 C                     0.181     5.013    -2.277 
 O                     0.303     4.69     -3.508 
 C                     0.31      6.414    -1.837 
 N                    -0.265    -0.413    -2.029 
 C                    -0.279     0.569    -2.937 
 C                    -0.196     0.024    -4.332 
 C                     0.124    -1.533    -4.18 
 C                     0.086    -1.632    -2.635 
 C                    -1.451     0.205    -5.197 
 C                     1.373    -2.07     -4.923 
 C                     2.626    -1.49     -4.306 
 N                     0.15     -2.144     0.303 
 C                     0.173    -3.136    -0.688 
 C                     0.173    -4.438     0.004 
 C                     0.133    -4.111     1.358 
 C                     0.083    -2.695     1.502 
 C                     0.149    -5.715    -0.623 
 C                     0.096    -4.629     2.716 
 O                     0.208    -5.747     3.221 
 C                    -0.255    -3.428     3.701 
 C                     0.717    -3.482     4.848 
 O                     1.931    -3.255     4.669 
 O                     0.038    -3.556     6.003 
 C                     0.943    -3.583     7.183 
 H                    -1.859     3.22      2.497 
 H                    -0.218     2.453    -3.474 
 H                     0.276    -3.747    -2.605 
 H                    -1.554    -0.949     5.132 
 H                    -1.585     1.831     4.665 
 H                    -3.484    -0.377     3.969 
 H                    -3.511     1.027     2.858 
 H                    -3.852     1.301     4.543 
 H                     0.669     1.096     4.966 
 H                     1.13     -0.639     5.189 
 H                    -0.844     0.026     7.125 
 H                     0.062     1.477     6.921 
 H                    -1.344     5.186     1.938 
 H                    -1.651     5.963     0.432 
 H                     0.007     6.02      1.084 
 H                    -0.635     6.744    -1.405 
 H                     0.665     6.97     -2.704 
 H                     1.048     6.466    -1.036 
 H                     0.608     0.501    -4.891 
 H                    -0.692    -2.156    -4.547 
 H                    -1.267     0.74     -6.129 
 H                    -2.204     0.714    -4.596 
 H                    -1.967    -0.72     -5.453 
 H                     1.356    -1.759    -5.967 
 H                     1.452    -3.157    -4.902 
 H                     2.714    -0.522    -4.798 
 H                     3.487    -2.121    -4.529 
 H                     2.495    -1.303    -3.24 
 H                     0.867    -6.333    -0.084 
 H                     0.404    -5.642    -1.68 
 H                    -0.891    -5.999    -0.463 
 H                    -1.283    -3.581     4.028 
 H                     0.698    -4.478     7.755 
 H                     0.833    -2.619     7.68 
 H                     2.       -3.754     6.976 
 Mg                    7.88995   0.71371   0.6059 
 C                     7.35577  -1.49127   3.38651 
 C                     6.92362   3.27372   2.64236 
 C                     7.91626   2.61337  -1.93536 
 C                     7.70127  -2.08089  -1.46783 
 N                     7.24688   0.75934   2.72171 
 C                     7.14184  -0.13188   3.6959 
 C                     6.86624   0.47644   5.09717 
 C                     6.19527   1.85908   4.63135 
 C                     6.85166   1.99929   3.25942 
 C                     4.69167   1.76184   4.43375 
 C                     8.18459   0.72338   5.9114 
 C                     7.97595   1.02437   7.39721 
 H                     8.95952   0.52392   8.35356 
 N                     7.95778   2.69332   0.48294 
 C                     7.54413   3.58094   1.41154 
 C                     7.78966   4.91141   0.83386 
 C                     8.22906   4.73632  -0.57717 
 C                     8.02699   3.31071  -0.74121 
 C                     7.67986   6.17798   1.63209 
 C                     8.73389   5.69558  -1.61214 
 O                     8.83156   5.36442  -2.84649 
 C                     9.02203   7.06253  -1.15398 
 N                     7.60865   0.35831  -1.42312 
 C                     7.725     1.35181  -2.32163 
 C                     7.75483   0.81153  -3.73146 
 C                     7.87812  -0.77581  -3.58072 
 C                     7.80522  -0.89033  -2.04223 
 C                     6.54158   1.14745  -4.5984 
 C                     9.06005  -1.46306  -4.31789 
 C                     10.37124  -1.04709  -3.69088 
 N                     7.77065  -1.42537   0.88548 
 C                     7.67455  -2.41289  -0.11933 
 C                     7.50182  -3.71215   0.56224 
 C                     7.48622  -3.38504   1.92651 
 C                     7.6182   -1.97881   2.08337 
 C                     7.33591  -4.97221  -0.07873 
 C                     7.37744  -3.90846   3.26923 
 O                     7.33446  -5.03519   3.76154 
 C                     7.16114  -2.69242   4.26967 
 C                     8.10404  -2.87055   5.428 
 O                     9.33423  -2.80673   5.25717 
 O                     7.39921  -2.86943   6.57411 
 C                     8.29189  -3.03226   7.75243 
 H                     6.4213    4.11276   3.12461 
 H                     8.03051   3.211    -2.8427 
 H                     7.73314  -3.01017  -2.04062 
 H                     6.17117  -0.08685   5.70821 
 H                     6.48981   2.67951   5.28059 
 H                     4.33818   0.74556   4.52526 
 H                     4.50069   2.14063   3.43821 
 H                     4.17671   2.44149   5.11874 
 H                     8.63242   1.67205   5.58859 
 H                     8.86062  -0.10216   5.80139 
 H                     6.95922   0.78039   7.72839 
 H                     8.05482   2.10389   7.54699 
 H                     7.17871   6.00592   2.59263 
 H                     7.00066   6.84194   1.08646 
 H                     8.64087   6.68129   1.75778 
 H                     8.12153   7.49768  -0.72712 
 H                     9.45635   7.57394  -2.0152 
 H                     9.76072   7.01237  -0.34624 
 H                     8.61907   1.18165  -4.26923 
 H                     6.99167  -1.29277  -3.97668 
 H                     6.8065    1.67413  -5.53461 
 H                     5.85501   1.74096  -4.00942 
 H                     5.9261    0.29525  -4.88149 
 H                     9.09722  -1.13702  -5.36023 
 H                     8.99584  -2.54604  -4.3213 
 H                     10.58129  -0.08714  -4.17199 
 H                     11.14868  -1.77646  -3.90917 
 H                     10.25202  -0.85879  -2.61758 
 H                     7.95689  -5.67804   0.45669 
 H                     7.6069   -4.92163  -1.13124 
 H                     6.2622   -5.12269   0.06192 
 H                     6.11724  -2.70948   4.58519 
 H                     7.92525  -3.89712   8.31392 
 H                     8.2838   -2.05497   8.27067 
 H                     9.31971  -3.32112   7.56643 
 
 ITRead=  0  0  0  0  0  0  0  0  0  0  0  0  0  0  0  0  0  0  0  0
 ITRead=  0  0  0  0  0  0  0  0  0  0  0  0  0  0  0  0  0  0  0  0
 ITRead=  0  0  0  0  0  0  0  0  0  0  0  0  0  0  0  0  0  0  0  0
 ITRead=  0  0  0  0  0  0  0  0  0  0  0  0  0  0  0  0  0  0  0  0
 ITRead=  0  0  0  0  0  0  0  0  0  0  0  0  0  0  0  0  0  0  0  0
 ITRead=  0  0  0  0  0  0  0  0  0  0  0  0  0  0  0  0  0  0  0  0
 ITRead=  0  0  0  0  0  0  0  0  0  0  0  0  0  0  0  0  0  0  0  0
 ITRead=  0  0  0  0  0  0  0  0  0  0  0  0  0  0  0  0  0  0
 MicOpt= -1 -1 -1 -1 -1 -1 -1 -1 -1 -1 -1 -1 -1 -1 -1 -1 -1 -1 -1 -1
 MicOpt= -1 -1 -1 -1 -1 -1 -1 -1 -1 -1 -1 -1 -1 -1 -1 -1 -1 -1 -1 -1
 MicOpt= -1 -1 -1 -1 -1 -1 -1 -1 -1 -1 -1 -1 -1 -1 -1 -1 -1 -1 -1 -1
 MicOpt= -1 -1 -1 -1 -1 -1 -1 -1 -1 -1 -1 -1 -1 -1 -1 -1 -1 -1 -1 -1
 MicOpt= -1 -1 -1 -1 -1 -1 -1 -1 -1 -1 -1 -1 -1 -1 -1 -1 -1 -1 -1 -1
 MicOpt= -1 -1 -1 -1 -1 -1 -1 -1 -1 -1 -1 -1 -1 -1 -1 -1 -1 -1 -1 -1
 MicOpt= -1 -1 -1 -1 -1 -1 -1 -1 -1 -1 -1 -1 -1 -1 -1 -1 -1 -1 -1 -1
 MicOpt= -1 -1 -1 -1 -1 -1 -1 -1 -1 -1 -1 -1 -1 -1 -1 -1 -1 -1
 NAtoms=    158 NQM=      158 NQMF=       0 NMMI=      0 NMMIF=      0
                NMic=       0 NMicF=      0.
                    Isotopes and Nuclear Properties:
 (Nuclear quadrupole moments (NQMom) in fm**2, nuclear magnetic moments (NMagM)
  in nuclear magnetons)

  Atom         1           2           3           4           5           6           7           8           9          10
 IAtWgt=          24          12          12          12          12          14          12          12          12          12
 AtmWgt=  23.9850450  12.0000000  12.0000000  12.0000000  12.0000000  14.0030740  12.0000000  12.0000000  12.0000000  12.0000000
 NucSpn=           0           0           0           0           0           2           0           0           0           0
 AtZEff=  -0.0000000  -0.0000000  -0.0000000  -0.0000000  -0.0000000  -0.0000000  -0.0000000  -0.0000000  -0.0000000  -0.0000000
 NQMom=    0.0000000   0.0000000   0.0000000   0.0000000   0.0000000   2.0440000   0.0000000   0.0000000   0.0000000   0.0000000
 NMagM=    0.0000000   0.0000000   0.0000000   0.0000000   0.0000000   0.4037610   0.0000000   0.0000000   0.0000000   0.0000000
 AtZNuc=  12.0000000   6.0000000   6.0000000   6.0000000   6.0000000   7.0000000   6.0000000   6.0000000   6.0000000   6.0000000

  Atom        11          12          13          14          15          16          17          18          19          20
 IAtWgt=          12          12          12           1          14          12          12          12          12          12
 AtmWgt=  12.0000000  12.0000000  12.0000000   1.0078250  14.0030740  12.0000000  12.0000000  12.0000000  12.0000000  12.0000000
 NucSpn=           0           0           0           1           2           0           0           0           0           0
 AtZEff=  -0.0000000  -0.0000000  -0.0000000  -0.0000000  -0.0000000  -0.0000000  -0.0000000  -0.0000000  -0.0000000  -0.0000000
 NQMom=    0.0000000   0.0000000   0.0000000   0.0000000   2.0440000   0.0000000   0.0000000   0.0000000   0.0000000   0.0000000
 NMagM=    0.0000000   0.0000000   0.0000000   2.7928460   0.4037610   0.0000000   0.0000000   0.0000000   0.0000000   0.0000000
 AtZNuc=   6.0000000   6.0000000   6.0000000   1.0000000   7.0000000   6.0000000   6.0000000   6.0000000   6.0000000   6.0000000

  Atom        21          22          23          24          25          26          27          28          29          30
 IAtWgt=          12          16          12          14          12          12          12          12          12          12
 AtmWgt=  12.0000000  15.9949146  12.0000000  14.0030740  12.0000000  12.0000000  12.0000000  12.0000000  12.0000000  12.0000000
 NucSpn=           0           0           0           2           0           0           0           0           0           0
 AtZEff=  -0.0000000  -0.0000000  -0.0000000  -0.0000000  -0.0000000  -0.0000000  -0.0000000  -0.0000000  -0.0000000  -0.0000000
 NQMom=    0.0000000   0.0000000   0.0000000   2.0440000   0.0000000   0.0000000   0.0000000   0.0000000   0.0000000   0.0000000
 NMagM=    0.0000000   0.0000000   0.0000000   0.4037610   0.0000000   0.0000000   0.0000000   0.0000000   0.0000000   0.0000000
 AtZNuc=   6.0000000   8.0000000   6.0000000   7.0000000   6.0000000   6.0000000   6.0000000   6.0000000   6.0000000   6.0000000

  Atom        31          32          33          34          35          36          37          38          39          40
 IAtWgt=          12          14          12          12          12          12          12          12          16          12
 AtmWgt=  12.0000000  14.0030740  12.0000000  12.0000000  12.0000000  12.0000000  12.0000000  12.0000000  15.9949146  12.0000000
 NucSpn=           0           2           0           0           0           0           0           0           0           0
 AtZEff=  -0.0000000  -0.0000000  -0.0000000  -0.0000000  -0.0000000  -0.0000000  -0.0000000  -0.0000000  -0.0000000  -0.0000000
 NQMom=    0.0000000   2.0440000   0.0000000   0.0000000   0.0000000   0.0000000   0.0000000   0.0000000   0.0000000   0.0000000
 NMagM=    0.0000000   0.4037610   0.0000000   0.0000000   0.0000000   0.0000000   0.0000000   0.0000000   0.0000000   0.0000000
 AtZNuc=   6.0000000   7.0000000   6.0000000   6.0000000   6.0000000   6.0000000   6.0000000   6.0000000   8.0000000   6.0000000

  Atom        41          42          43          44          45          46          47          48          49          50
 IAtWgt=          12          16          16          12           1           1           1           1           1           1
 AtmWgt=  12.0000000  15.9949146  15.9949146  12.0000000   1.0078250   1.0078250   1.0078250   1.0078250   1.0078250   1.0078250
 NucSpn=           0           0           0           0           1           1           1           1           1           1
 AtZEff=  -0.0000000  -0.0000000  -0.0000000  -0.0000000  -0.0000000  -0.0000000  -0.0000000  -0.0000000  -0.0000000  -0.0000000
 NQMom=    0.0000000   0.0000000   0.0000000   0.0000000   0.0000000   0.0000000   0.0000000   0.0000000   0.0000000   0.0000000
 NMagM=    0.0000000   0.0000000   0.0000000   0.0000000   2.7928460   2.7928460   2.7928460   2.7928460   2.7928460   2.7928460
 AtZNuc=   6.0000000   8.0000000   8.0000000   6.0000000   1.0000000   1.0000000   1.0000000   1.0000000   1.0000000   1.0000000

  Atom        51          52          53          54          55          56          57          58          59          60
 IAtWgt=           1           1           1           1           1           1           1           1           1           1
 AtmWgt=   1.0078250   1.0078250   1.0078250   1.0078250   1.0078250   1.0078250   1.0078250   1.0078250   1.0078250   1.0078250
 NucSpn=           1           1           1           1           1           1           1           1           1           1
 AtZEff=  -0.0000000  -0.0000000  -0.0000000  -0.0000000  -0.0000000  -0.0000000  -0.0000000  -0.0000000  -0.0000000  -0.0000000
 NQMom=    0.0000000   0.0000000   0.0000000   0.0000000   0.0000000   0.0000000   0.0000000   0.0000000   0.0000000   0.0000000
 NMagM=    2.7928460   2.7928460   2.7928460   2.7928460   2.7928460   2.7928460   2.7928460   2.7928460   2.7928460   2.7928460
 AtZNuc=   1.0000000   1.0000000   1.0000000   1.0000000   1.0000000   1.0000000   1.0000000   1.0000000   1.0000000   1.0000000

  Atom        61          62          63          64          65          66          67          68          69          70
 IAtWgt=           1           1           1           1           1           1           1           1           1           1
 AtmWgt=   1.0078250   1.0078250   1.0078250   1.0078250   1.0078250   1.0078250   1.0078250   1.0078250   1.0078250   1.0078250
 NucSpn=           1           1           1           1           1           1           1           1           1           1
 AtZEff=  -0.0000000  -0.0000000  -0.0000000  -0.0000000  -0.0000000  -0.0000000  -0.0000000  -0.0000000  -0.0000000  -0.0000000
 NQMom=    0.0000000   0.0000000   0.0000000   0.0000000   0.0000000   0.0000000   0.0000000   0.0000000   0.0000000   0.0000000
 NMagM=    2.7928460   2.7928460   2.7928460   2.7928460   2.7928460   2.7928460   2.7928460   2.7928460   2.7928460   2.7928460
 AtZNuc=   1.0000000   1.0000000   1.0000000   1.0000000   1.0000000   1.0000000   1.0000000   1.0000000   1.0000000   1.0000000

  Atom        71          72          73          74          75          76          77          78          79          80
 IAtWgt=           1           1           1           1           1           1           1           1           1          24
 AtmWgt=   1.0078250   1.0078250   1.0078250   1.0078250   1.0078250   1.0078250   1.0078250   1.0078250   1.0078250  23.9850450
 NucSpn=           1           1           1           1           1           1           1           1           1           0
 AtZEff=  -0.0000000  -0.0000000  -0.0000000  -0.0000000  -0.0000000  -0.0000000  -0.0000000  -0.0000000  -0.0000000  -0.0000000
 NQMom=    0.0000000   0.0000000   0.0000000   0.0000000   0.0000000   0.0000000   0.0000000   0.0000000   0.0000000   0.0000000
 NMagM=    2.7928460   2.7928460   2.7928460   2.7928460   2.7928460   2.7928460   2.7928460   2.7928460   2.7928460   0.0000000
 AtZNuc=   1.0000000   1.0000000   1.0000000   1.0000000   1.0000000   1.0000000   1.0000000   1.0000000   1.0000000  12.0000000

  Atom        81          82          83          84          85          86          87          88          89          90
 IAtWgt=          12          12          12          12          14          12          12          12          12          12
 AtmWgt=  12.0000000  12.0000000  12.0000000  12.0000000  14.0030740  12.0000000  12.0000000  12.0000000  12.0000000  12.0000000
 NucSpn=           0           0           0           0           2           0           0           0           0           0
 AtZEff=  -0.0000000  -0.0000000  -0.0000000  -0.0000000  -0.0000000  -0.0000000  -0.0000000  -0.0000000  -0.0000000  -0.0000000
 NQMom=    0.0000000   0.0000000   0.0000000   0.0000000   2.0440000   0.0000000   0.0000000   0.0000000   0.0000000   0.0000000
 NMagM=    0.0000000   0.0000000   0.0000000   0.0000000   0.4037610   0.0000000   0.0000000   0.0000000   0.0000000   0.0000000
 AtZNuc=   6.0000000   6.0000000   6.0000000   6.0000000   7.0000000   6.0000000   6.0000000   6.0000000   6.0000000   6.0000000

  Atom        91          92          93          94          95          96          97          98          99         100
 IAtWgt=          12          12           1          14          12          12          12          12          12          12
 AtmWgt=  12.0000000  12.0000000   1.0078250  14.0030740  12.0000000  12.0000000  12.0000000  12.0000000  12.0000000  12.0000000
 NucSpn=           0           0           1           2           0           0           0           0           0           0
 AtZEff=  -0.0000000  -0.0000000  -0.0000000  -0.0000000  -0.0000000  -0.0000000  -0.0000000  -0.0000000  -0.0000000  -0.0000000
 NQMom=    0.0000000   0.0000000   0.0000000   2.0440000   0.0000000   0.0000000   0.0000000   0.0000000   0.0000000   0.0000000
 NMagM=    0.0000000   0.0000000   2.7928460   0.4037610   0.0000000   0.0000000   0.0000000   0.0000000   0.0000000   0.0000000
 AtZNuc=   6.0000000   6.0000000   1.0000000   7.0000000   6.0000000   6.0000000   6.0000000   6.0000000   6.0000000   6.0000000

  Atom       101         102         103         104         105         106         107         108         109         110
 IAtWgt=          16          12          14          12          12          12          12          12          12          12
 AtmWgt=  15.9949146  12.0000000  14.0030740  12.0000000  12.0000000  12.0000000  12.0000000  12.0000000  12.0000000  12.0000000
 NucSpn=           0           0           2           0           0           0           0           0           0           0
 AtZEff=  -0.0000000  -0.0000000  -0.0000000  -0.0000000  -0.0000000  -0.0000000  -0.0000000  -0.0000000  -0.0000000  -0.0000000
 NQMom=    0.0000000   0.0000000   2.0440000   0.0000000   0.0000000   0.0000000   0.0000000   0.0000000   0.0000000   0.0000000
 NMagM=    0.0000000   0.0000000   0.4037610   0.0000000   0.0000000   0.0000000   0.0000000   0.0000000   0.0000000   0.0000000
 AtZNuc=   8.0000000   6.0000000   7.0000000   6.0000000   6.0000000   6.0000000   6.0000000   6.0000000   6.0000000   6.0000000

  Atom       111         112         113         114         115         116         117         118         119         120
 IAtWgt=          14          12          12          12          12          12          12          16          12          12
 AtmWgt=  14.0030740  12.0000000  12.0000000  12.0000000  12.0000000  12.0000000  12.0000000  15.9949146  12.0000000  12.0000000
 NucSpn=           2           0           0           0           0           0           0           0           0           0
 AtZEff=  -0.0000000  -0.0000000  -0.0000000  -0.0000000  -0.0000000  -0.0000000  -0.0000000  -0.0000000  -0.0000000  -0.0000000
 NQMom=    2.0440000   0.0000000   0.0000000   0.0000000   0.0000000   0.0000000   0.0000000   0.0000000   0.0000000   0.0000000
 NMagM=    0.4037610   0.0000000   0.0000000   0.0000000   0.0000000   0.0000000   0.0000000   0.0000000   0.0000000   0.0000000
 AtZNuc=   7.0000000   6.0000000   6.0000000   6.0000000   6.0000000   6.0000000   6.0000000   8.0000000   6.0000000   6.0000000

  Atom       121         122         123         124         125         126         127         128         129         130
 IAtWgt=          16          16          12           1           1           1           1           1           1           1
 AtmWgt=  15.9949146  15.9949146  12.0000000   1.0078250   1.0078250   1.0078250   1.0078250   1.0078250   1.0078250   1.0078250
 NucSpn=           0           0           0           1           1           1           1           1           1           1
 AtZEff=  -0.0000000  -0.0000000  -0.0000000  -0.0000000  -0.0000000  -0.0000000  -0.0000000  -0.0000000  -0.0000000  -0.0000000
 NQMom=    0.0000000   0.0000000   0.0000000   0.0000000   0.0000000   0.0000000   0.0000000   0.0000000   0.0000000   0.0000000
 NMagM=    0.0000000   0.0000000   0.0000000   2.7928460   2.7928460   2.7928460   2.7928460   2.7928460   2.7928460   2.7928460
 AtZNuc=   8.0000000   8.0000000   6.0000000   1.0000000   1.0000000   1.0000000   1.0000000   1.0000000   1.0000000   1.0000000

  Atom       131         132         133         134         135         136         137         138         139         140
 IAtWgt=           1           1           1           1           1           1           1           1           1           1
 AtmWgt=   1.0078250   1.0078250   1.0078250   1.0078250   1.0078250   1.0078250   1.0078250   1.0078250   1.0078250   1.0078250
 NucSpn=           1           1           1           1           1           1           1           1           1           1
 AtZEff=  -0.0000000  -0.0000000  -0.0000000  -0.0000000  -0.0000000  -0.0000000  -0.0000000  -0.0000000  -0.0000000  -0.0000000
 NQMom=    0.0000000   0.0000000   0.0000000   0.0000000   0.0000000   0.0000000   0.0000000   0.0000000   0.0000000   0.0000000
 NMagM=    2.7928460   2.7928460   2.7928460   2.7928460   2.7928460   2.7928460   2.7928460   2.7928460   2.7928460   2.7928460
 AtZNuc=   1.0000000   1.0000000   1.0000000   1.0000000   1.0000000   1.0000000   1.0000000   1.0000000   1.0000000   1.0000000

  Atom       141         142         143         144         145         146         147         148         149         150
 IAtWgt=           1           1           1           1           1           1           1           1           1           1
 AtmWgt=   1.0078250   1.0078250   1.0078250   1.0078250   1.0078250   1.0078250   1.0078250   1.0078250   1.0078250   1.0078250
 NucSpn=           1           1           1           1           1           1           1           1           1           1
 AtZEff=  -0.0000000  -0.0000000  -0.0000000  -0.0000000  -0.0000000  -0.0000000  -0.0000000  -0.0000000  -0.0000000  -0.0000000
 NQMom=    0.0000000   0.0000000   0.0000000   0.0000000   0.0000000   0.0000000   0.0000000   0.0000000   0.0000000   0.0000000
 NMagM=    2.7928460   2.7928460   2.7928460   2.7928460   2.7928460   2.7928460   2.7928460   2.7928460   2.7928460   2.7928460
 AtZNuc=   1.0000000   1.0000000   1.0000000   1.0000000   1.0000000   1.0000000   1.0000000   1.0000000   1.0000000   1.0000000

  Atom       151         152         153         154         155         156         157         158
 IAtWgt=           1           1           1           1           1           1           1           1
 AtmWgt=   1.0078250   1.0078250   1.0078250   1.0078250   1.0078250   1.0078250   1.0078250   1.0078250
 NucSpn=           1           1           1           1           1           1           1           1
 AtZEff=  -0.0000000  -0.0000000  -0.0000000  -0.0000000  -0.0000000  -0.0000000  -0.0000000  -0.0000000
 NQMom=    0.0000000   0.0000000   0.0000000   0.0000000   0.0000000   0.0000000   0.0000000   0.0000000
 NMagM=    2.7928460   2.7928460   2.7928460   2.7928460   2.7928460   2.7928460   2.7928460   2.7928460
 AtZNuc=   1.0000000   1.0000000   1.0000000   1.0000000   1.0000000   1.0000000   1.0000000   1.0000000
 Leave Link  101 at Thu Sep  9 06:29:47 2021, MaxMem= 23488102400 cpu:               3.5 elap:               0.2
 (Enter /sw/apps/gaussian-16.0/g16/l202.exe)
 Stoichiometry    C68H72Mg2N8O8
 Framework group  C1[X(C68H72Mg2N8O8)]
 Deg. of freedom   468
 Full point group                 C1      NOp   1
 Largest Abelian subgroup         C1      NOp   1
 Largest concise Abelian subgroup C1      NOp   1
                         Standard orientation:                         
 ---------------------------------------------------------------------
 Center     Atomic      Atomic             Coordinates (Angstroms)
 Number     Number       Type             X           Y           Z
 ---------------------------------------------------------------------
      1         12           0       -3.770481   -1.134043    0.035688
      2          6           0       -4.308609    2.397687    0.258206
      3          6           0       -4.631978   -0.907482   -3.258178
      4          6           0       -3.743720   -4.303141   -0.077115
      5          6           0       -4.063097   -1.248288    3.506565
      6          7           0       -4.372279    0.583366   -1.224863
      7          6           0       -4.481414    1.894271   -1.033055
      8          6           0       -4.722503    2.693213   -2.348708
      9          6           0       -5.359034    1.531315   -3.235736
     10          6           0       -4.723354    0.331158   -2.556428
     11          6           0       -6.874840    1.424757   -3.103525
     12          6           0       -3.389282    3.225972   -2.973545
     13          6           0       -3.557638    4.282805   -4.069042
     14          1           0       -2.576656    5.353121   -4.166225
     15          7           0       -3.656890   -2.360132   -1.509191
     16          6           0       -4.037657   -2.096237   -2.782243
     17          6           0       -3.752749   -3.323958   -3.555682
     18          6           0       -3.352410   -4.386354   -2.591764
     19          6           0       -3.596760   -3.724674   -1.335639
     20          6           0       -3.823799   -3.389818   -5.050461
     21          6           0       -2.842116   -5.780847   -2.773763
     22          8           0       -2.775930   -6.612734   -1.805178
     23          6           0       -2.500377   -6.180836   -4.150812
     24          7           0       -4.104001   -2.609062    1.474687
     25          6           0       -3.973078   -3.906304    1.176345
     26          6           0       -3.979806   -4.754472    2.413481
     27          6           0       -3.898744   -3.740979    3.644746
     28          6           0       -3.944448   -2.408467    2.856969
     29          6           0       -5.196718   -5.673491    2.588234
     30          6           0       -2.748840   -3.958503    4.660041
     31          6           0       -1.419700   -3.666322    4.000408
     32          7           0       -3.945725    0.315647    1.641532
     33          6           0       -4.077695    0.044869    3.011181
     34          6           0       -4.271901    1.338975    3.690623
     35          6           0       -4.255883    2.277266    2.660479
     36          6           0       -4.090116    1.609075    1.413750
     37          6           0       -4.491896    1.523842    5.084130
     38          6           0       -4.364915    3.686680    2.320594
     39          8           0       -4.421365    4.733032    2.968246
     40          6           0       -4.525513    3.810238    0.741110
     41          6           0       -3.567836    4.869814    0.268391
     42          8           0       -2.334265    4.694268    0.338036
     43          8           0       -4.245076    5.813197   -0.403856
     44          6           0       -3.349388    6.879757   -0.925724
     45          1           0       -5.109027   -0.996493   -4.236157
     46          1           0       -3.629705   -5.389004   -0.058662
     47          1           0       -4.076972   -1.197899    4.596850
     48          1           0       -5.427537    3.519499   -2.255960
     49          1           0       -5.039030    1.591586   -4.275778
     50          1           0       -7.253728    2.082344   -2.321257
     51          1           0       -7.072615    0.382255   -2.853388
     52          1           0       -7.360680    1.599864   -4.063772
     53          1           0       -2.921106    2.430606   -3.553430
     54          1           0       -2.727328    3.612885   -2.198018
     55          1           0       -4.569165    4.689792   -4.078153
     56          1           0       -3.454687    3.791269   -5.036509
     57          1           0       -4.304574   -2.505986   -5.467883
     58          1           0       -4.496980   -4.209302   -5.301425
     59          1           0       -2.846609   -3.565870   -5.500392
     60          1           0       -3.382538   -6.081940   -4.783710
     61          1           0       -2.069083   -7.178445   -4.075904
     62          1           0       -1.759470   -5.485725   -4.546828
     63          1           0       -3.115304   -5.416622    2.438356
     64          1           0       -4.801339   -3.766676    4.255757
     65          1           0       -4.937919   -6.727234    2.694793
     66          1           0       -5.861227   -5.517969    1.738804
     67          1           0       -5.848046   -5.415734    3.422950
     68          1           0       -2.723155   -4.997449    4.986962
     69          1           0       -2.835360   -3.333219    5.548739
     70          1           0       -1.188230   -4.602678    3.493959
     71          1           0       -0.665247   -3.432215    4.752210
     72          1           0       -1.516121   -2.896698    3.234335
     73          1           0       -3.873439    2.370861    5.380843
     74          1           0       -4.233473    0.627869    5.648093
     75          1           0       -5.562199    1.729287    5.094081
     76          1           0       -5.563365    4.082614    0.551910
     77          1           0       -3.724627    7.829309   -0.543911
     78          1           0       -3.309847    6.749444   -2.007325
     79          1           0       -2.331430    6.888492   -0.534539
     80         12           0        4.139126   -0.386812    0.122711
     81          6           0        3.289365    3.095088    0.305347
     82          6           0        3.580890   -0.193467   -3.236695
     83          6           0        4.441687   -3.542533   -0.008738
     84          6           0        3.519989   -0.574916    3.547186
     85          7           0        3.519792    1.289808   -1.180226
     86          6           0        3.285253    2.582036   -1.008499
     87          6           0        3.111229    3.384746   -2.325669
     88          6           0        2.655440    2.179111   -3.283574
     89          6           0        3.319400    1.017422   -2.547141
     90          6           0        1.153604    1.947167   -3.285985
     91          6           0        4.455374    4.030023   -2.814430
     92          6           0        4.301345    5.078302   -3.918578
     93          1           0        5.201967    6.227800   -3.917527
     94          7           0        4.505574   -1.578620   -1.421273
     95          6           0        4.235316   -1.333496   -2.720560
     96          6           0        4.677036   -2.528672   -3.455808
     97          6           0        5.078566   -3.565907   -2.467046
     98          6           0        4.662097   -2.929454   -1.233521
     99          6           0        4.763956   -2.576668   -4.953663
    100          6           0        5.718315   -4.913749   -2.609315
    101          8           0        5.759201   -5.745872   -1.635288
    102          6           0        6.212277   -5.266937   -3.948250
    103          7           0        3.798222   -1.895041    1.512455
    104          6           0        4.059773   -3.180207    1.216080
    105          6           0        4.001138   -4.047593    2.450834
    106          6           0        3.883161   -3.034310    3.682462
    107          6           0        3.800580   -1.701437    2.906568
    108          6           0        2.848959   -5.050557    2.505129
    109          6           0        4.944031   -3.169302    4.808972
    110          6           0        6.305879   -2.773341    4.285546
    111          7           0        3.698335    1.018901    1.703134
    112          6           0        3.449259    0.724537    3.061583
    113          6           0        3.084688    1.994472    3.722494
    114          6           0        3.124886    2.943196    2.689641
    115          6           0        3.469107    2.305830    1.467028
    116          6           0        2.726928    2.146876    5.091764
    117          6           0        2.944015    4.337120    2.353547
    118          8           0        2.732996    5.365214    2.995598
    119          6           0        2.918907    4.476080    0.770360
    120          6           0        3.829063    5.611373    0.389250
    121          8           0        5.053949    5.534206    0.590054
    122          8           0        3.137634    6.503726   -0.342862
    123          6           0        4.000556    7.643052   -0.754115
    124          1           0        3.213645   -0.298681   -4.257939
    125          1           0        4.641141   -4.616144    0.023799
    126          1           0        3.408145   -0.532980    4.632727
    127          1           0        2.341554    4.146618   -2.295019
    128          1           0        3.073768    2.287254   -4.280910
    129          1           0        0.650620    2.556699   -2.550029
    130          1           0        1.017806    0.896775   -3.063970
    131          1           0        0.750615    2.097196   -4.291674
    132          1           0        5.040338    3.273803   -3.353579
    133          1           0        4.998019    4.450443   -1.990161
    134          1           0        3.260866    5.405399   -4.034153
    135          1           0        4.543536    4.611538   -4.876436
    136          1           0        4.246790   -1.725811   -5.414069
    137          1           0        4.190785   -3.451468   -5.279344
    138          1           0        5.790680   -2.673031   -5.313123
    139          1           0        5.390011   -5.226876   -4.658699
    140          1           0        6.715244   -6.228649   -3.829894
    141          1           0        6.938416   -4.509655   -4.264271
    142          1           0        4.909085   -4.628118    2.559093
    143          1           0        2.926868   -3.148403    4.213793
    144          1           0        3.186464   -6.096623    2.631220
    145          1           0        2.262864   -4.946374    1.601708
    146          1           0        2.110210   -4.863607    3.282626
    147          1           0        5.025546   -4.210801    5.129584
    148          1           0        4.716456   -2.578092    5.689689
    149          1           0        6.656817   -3.686317    3.795230
    150          1           0        6.962854   -2.487675    5.104584
    151          1           0        6.221331   -1.997429    3.515834
    152          1           0        3.236162    3.031658    5.449993
    153          1           0        2.997779    1.268329    5.673627
    154          1           0        1.643449    2.259666    4.998857
    155          1           0        1.885886    4.662430    0.474200
    156          1           0        3.509603    8.557349   -0.406688
    157          1           0        4.142938    7.531258   -1.845427
    158          1           0        4.971906    7.732045   -0.281875
 ---------------------------------------------------------------------
 Rotational constants (GHZ):           0.0203067           0.0179162           0.0143143
 Leave Link  202 at Thu Sep  9 06:29:47 2021, MaxMem= 23488102400 cpu:               0.2 elap:               0.0
 (Enter /sw/apps/gaussian-16.0/g16/l301.exe)
 Standard basis: def2SVP (5D, 7F)
 Ernie: Thresh=  0.10000D-02 Tol=  0.10000D-05 Strict=F.
 There are  1658 symmetry adapted cartesian basis functions of A   symmetry.
 There are  1572 symmetry adapted basis functions of A   symmetry.
  1572 basis functions,  2678 primitive gaussians,  1658 cartesian basis functions
   312 alpha electrons      312 beta electrons
       nuclear repulsion energy     15987.0803704107 Hartrees.
 IExCor=20419 DFT=T Ex+Corr=CAM-B3LYP ExCW=0 ScaHFX=  1.000000
 ScaDFX=  1.000000  1.000000  1.000000  0.810000 ScalE2=  1.000000  1.000000
 IRadAn=      5 IRanWt=     -1 IRanGd=            0 ICorTp=0 IEmpDi=  4
 HFx  wShort=  0.000000 wLong=  0.330000 cFull=  0.190000 cShort=  0.000000 cLong=  0.460000
 DFx  wShort=  0.000000 wLong=  0.330000 cFull=  0.190000 cShort=  0.000000 cLong=  0.460000
 NAtoms=  158 NActive=  158 NUniq=  158 SFac= 1.00D+00 NAtFMM=   60 NAOKFM=T Big=T
 Integral buffers will be    131072 words long.
 Raffenetti 1 integral format.
 Two-electron integral symmetry is turned on.
 Leave Link  301 at Thu Sep  9 06:29:47 2021, MaxMem= 23488102400 cpu:               1.3 elap:               0.1
 (Enter /sw/apps/gaussian-16.0/g16/l302.exe)
 NPDir=0 NMtPBC=     1 NCelOv=     1 NCel=       1 NClECP=     1 NCelD=      1
         NCelK=      1 NCelE2=     1 NClLst=     1 CellRange=     0.0.
 One-electron integrals computed using PRISM.
 One-electron integral symmetry used in STVInt
   1 Symmetry operations used in ECPInt.
 ECPInt:  NShTT=  271216 NPrTT=  987664 LenC2=  164681 LenP2D=  345397.
 LDataN:  DoStor=T MaxTD1= 4 Len=   56
 NBasis=  1572 RedAO= T EigKep=  3.35D-04  NBF=  1572
 NBsUse=  1572 1.00D-06 EigRej= -1.00D+00 NBFU=  1572
 Precomputing XC quadrature grid using
 IXCGrd= 4 IRadAn=           5 IRanWt=          -1 IRanGd=           0 AccXCQ= 0.00D+00.
 Generated NRdTot=       0 NPtTot=           0 NUsed=           0 NTot=          32
 NSgBfM=  1192  1183  1183  1183  1192 MxSgAt=   158 MxSgA2=   158.
 Leave Link  302 at Thu Sep  9 06:29:53 2021, MaxMem= 23488102400 cpu:             139.9 elap:               5.9
 (Enter /sw/apps/gaussian-16.0/g16/l303.exe)
 DipDrv:  MaxL=1.
 Leave Link  303 at Thu Sep  9 06:29:53 2021, MaxMem= 23488102400 cpu:              10.4 elap:               0.5
 (Enter /sw/apps/gaussian-16.0/g16/l308.exe)
 Leave Link  308 at Thu Sep  9 06:29:54 2021, MaxMem= 23488102400 cpu:              15.0 elap:               0.7
 (Enter /sw/apps/gaussian-16.0/g16/l401.exe)
 ExpMin= 3.36D-02 ExpMax= 4.95D+03 ExpMxC= 7.45D+02 IAcc=3 IRadAn=         5 AccDes= 0.00D+00
 Harris functional with IExCor=20419 and IRadAn=       5 diagonalized for initial guess.
 HarFok:  IExCor=20419 AccDes= 0.00D+00 IRadAn=         5 IDoV= 1 UseB2=F ITyADJ=14
 ICtDFT=  3500011 ScaDFX=  1.000000  1.000000  1.000000  1.000000
 FoFCou: FMM=F IPFlag=           0 FMFlag=      100000 FMFlg1=        2001
         NFxFlg=           0 DoJE=T BraDBF=F KetDBF=T FulRan=T
         wScrn=  0.000000 ICntrl=       500 IOpCl=  0 I1Cent=   200000004 NGrid=           0
         NMat0=    1 NMatS0=      1 NMatT0=    0 NMatD0=    1 NMtDS0=    0 NMtDT0=    0
 Petite list used in FoFCou.
 Harris En= -3918.65822813679    
 JPrj=0 DoOrth=F DoCkMO=F.
 Leave Link  401 at Thu Sep  9 06:30:02 2021, MaxMem= 23488102400 cpu:             208.8 elap:               8.7
 (Enter /sw/apps/gaussian-16.0/g16/l502.exe)
 Integral symmetry usage will be decided dynamically.
 Closed shell SCF:
 Using DIIS extrapolation, IDIIS=  1040.
 NGot= 23488102400 LenX= 23482547354 LenY= 23479796732
 Requested convergence on RMS density matrix=1.00D-08 within 128 cycles.
 Requested convergence on MAX density matrix=1.00D-06.
 Requested convergence on             energy=1.00D-06.
 No special actions if energy rises.
 Fock matrices will be formed incrementally for  20 cycles.

 Cycle   1  Pass 1  IDiag  1:
 FoFJK:  IHMeth= 1 ICntrl=       0 DoSepK=T KAlg= 0 I1Cent=           0 FoldK=F
 IRaf=         1 NMat=       1 IRICut=       1 DoRegI=T DoRafI=F ISym2E= 0 IDoP0=0 IntGTp=1.
 FoFCou: FMM=T IPFlag=           0 FMFlag=      100000 FMFlg1=        2001
         NFxFlg=           0 DoJE=T BraDBF=F KetDBF=F FulRan=T
         wScrn=  0.000000 ICntrl=       500 IOpCl=  0 I1Cent=           0 NGrid=           0
         NMat0=    1 NMatS0=      1 NMatT0=    0 NMatD0=    1 NMtDS0=    0 NMtDT0=    0
 Symmetry not used in FoFCou.
 FMM levels:  10  Number of levels for PrismC:   9
 E= -4068.94740781324    
 DIIS: error= 2.03D-02 at cycle   1 NSaved=   1.
 NSaved= 1 IEnMin= 1 EnMin= -4068.94740781324     IErMin= 1 ErrMin= 2.03D-02
 ErrMax= 2.03D-02  0.00D+00 EMaxC= 1.00D-01 BMatC= 1.69D+00 BMatP= 1.69D+00
 IDIUse=3 WtCom= 7.97D-01 WtEn= 2.03D-01
 Coeff-Com:  0.100D+01
 Coeff-En:   0.100D+01
 Coeff:      0.100D+01
 Gap=     0.120 Goal=   None    Shift=    0.000
 GapD=    0.120 DampG=1.000 DampE=0.500 DampFc=0.5000 IDamp=-1.
 Damping current iteration by 5.00D-01
 RMSDP=1.58D-03 MaxDP=1.40D-01              OVMax= 2.13D-01

 Cycle   2  Pass 1  IDiag  1:
 RMSU=  7.72D-04    CP:  9.82D-01
 E= -4069.33534068038     Delta-E=       -0.387932867139 Rises=F Damp=T
 DIIS: error= 1.26D-02 at cycle   2 NSaved=   2.
 NSaved= 2 IEnMin= 2 EnMin= -4069.33534068038     IErMin= 2 ErrMin= 1.26D-02
 ErrMax= 1.26D-02  0.00D+00 EMaxC= 1.00D-01 BMatC= 3.08D-01 BMatP= 1.69D+00
 IDIUse=3 WtCom= 8.74D-01 WtEn= 1.26D-01
 Coeff-Com: -0.211D+00 0.121D+01
 Coeff-En:   0.000D+00 0.100D+01
 Coeff:     -0.184D+00 0.118D+01
 Gap=     0.134 Goal=   None    Shift=    0.000
 RMSDP=7.75D-04 MaxDP=9.74D-02 DE=-3.88D-01 OVMax= 1.98D-01

 Cycle   3  Pass 1  IDiag  1:
 RMSU=  7.46D-04    CP:  9.68D-01  1.22D+00
 E= -4069.61777478239     Delta-E=       -0.282434102013 Rises=F Damp=F
 DIIS: error= 1.55D-02 at cycle   3 NSaved=   3.
 NSaved= 3 IEnMin= 3 EnMin= -4069.61777478239     IErMin= 2 ErrMin= 1.26D-02
 ErrMax= 1.55D-02  0.00D+00 EMaxC= 1.00D-01 BMatC= 2.08D-01 BMatP= 3.08D-01
 IDIUse=3 WtCom= 8.45D-01 WtEn= 1.55D-01
 Coeff-Com: -0.268D+00 0.656D+00 0.612D+00
 Coeff-En:   0.000D+00 0.000D+00 0.100D+01
 Coeff:     -0.226D+00 0.554D+00 0.672D+00
 Gap=     0.120 Goal=   None    Shift=    0.000
 RMSDP=5.34D-04 MaxDP=4.91D-02 DE=-2.82D-01 OVMax= 1.68D-01

 Cycle   4  Pass 1  IDiag  1:
 RMSU=  2.77D-04    CP:  9.65D-01  1.55D+00  4.88D-01
 E= -4069.75891414172     Delta-E=       -0.141139359330 Rises=F Damp=F
 DIIS: error= 6.90D-03 at cycle   4 NSaved=   4.
 NSaved= 4 IEnMin= 4 EnMin= -4069.75891414172     IErMin= 4 ErrMin= 6.90D-03
 ErrMax= 6.90D-03  0.00D+00 EMaxC= 1.00D-01 BMatC= 5.33D-02 BMatP= 2.08D-01
 IDIUse=3 WtCom= 9.31D-01 WtEn= 6.90D-02
 Coeff-Com: -0.111D+00 0.232D+00 0.411D+00 0.468D+00
 Coeff-En:   0.000D+00 0.000D+00 0.234D+00 0.766D+00
 Coeff:     -0.104D+00 0.216D+00 0.399D+00 0.489D+00
 Gap=     0.119 Goal=   None    Shift=    0.000
 RMSDP=2.20D-04 MaxDP=1.84D-02 DE=-1.41D-01 OVMax= 8.14D-02

 Cycle   5  Pass 1  IDiag  1:
 RMSU=  8.53D-05    CP:  9.64D-01  1.48D+00  6.84D-01  5.27D-01
 E= -4069.80941779958     Delta-E=       -0.050503657854 Rises=F Damp=F
 DIIS: error= 6.49D-04 at cycle   5 NSaved=   5.
 NSaved= 5 IEnMin= 5 EnMin= -4069.80941779958     IErMin= 5 ErrMin= 6.49D-04
 ErrMax= 6.49D-04  0.00D+00 EMaxC= 1.00D-01 BMatC= 1.63D-03 BMatP= 5.33D-02
 IDIUse=3 WtCom= 9.94D-01 WtEn= 6.49D-03
 Coeff-Com: -0.416D-01 0.823D-01 0.184D+00 0.266D+00 0.509D+00
 Coeff-En:   0.000D+00 0.000D+00 0.000D+00 0.000D+00 0.100D+01
 Coeff:     -0.413D-01 0.817D-01 0.183D+00 0.264D+00 0.512D+00
 Gap=     0.119 Goal=   None    Shift=    0.000
 RMSDP=5.22D-05 MaxDP=4.96D-03 DE=-5.05D-02 OVMax= 2.48D-02

 Cycle   6  Pass 1  IDiag  1:
 RMSU=  3.58D-05    CP:  9.64D-01  1.49D+00  6.72D-01  6.13D-01  6.76D-01
 E= -4069.81102240219     Delta-E=       -0.001604602614 Rises=F Damp=F
 DIIS: error= 2.24D-04 at cycle   6 NSaved=   6.
 NSaved= 6 IEnMin= 6 EnMin= -4069.81102240219     IErMin= 6 ErrMin= 2.24D-04
 ErrMax= 2.24D-04  0.00D+00 EMaxC= 1.00D-01 BMatC= 2.46D-04 BMatP= 1.63D-03
 IDIUse=3 WtCom= 9.98D-01 WtEn= 2.24D-03
 Coeff-Com:  0.123D-02-0.479D-02 0.164D-01 0.463D-01 0.300D+00 0.641D+00
 Coeff-En:   0.000D+00 0.000D+00 0.000D+00 0.000D+00 0.129D+00 0.871D+00
 Coeff:      0.123D-02-0.478D-02 0.164D-01 0.462D-01 0.300D+00 0.641D+00
 Gap=     0.119 Goal=   None    Shift=    0.000
 RMSDP=1.97D-05 MaxDP=1.49D-03 DE=-1.60D-03 OVMax= 9.30D-03

 Cycle   7  Pass 1  IDiag  1:
 RMSU=  1.22D-05    CP:  9.64D-01  1.49D+00  6.79D-01  6.09D-01  8.02D-01
                    CP:  7.34D-01
 E= -4069.81131036531     Delta-E=       -0.000287963114 Rises=F Damp=F
 DIIS: error= 1.38D-04 at cycle   7 NSaved=   7.
 NSaved= 7 IEnMin= 7 EnMin= -4069.81131036531     IErMin= 7 ErrMin= 1.38D-04
 ErrMax= 1.38D-04  0.00D+00 EMaxC= 1.00D-01 BMatC= 3.30D-05 BMatP= 2.46D-04
 IDIUse=3 WtCom= 9.99D-01 WtEn= 1.38D-03
 Coeff-Com:  0.480D-02-0.106D-01-0.885D-02-0.275D-02 0.110D+00 0.348D+00
 Coeff-Com:  0.559D+00
 Coeff-En:   0.000D+00 0.000D+00 0.000D+00 0.000D+00 0.000D+00 0.000D+00
 Coeff-En:   0.100D+01
 Coeff:      0.479D-02-0.106D-01-0.883D-02-0.275D-02 0.110D+00 0.348D+00
 Coeff:      0.559D+00
 Gap=     0.119 Goal=   None    Shift=    0.000
 RMSDP=7.12D-06 MaxDP=1.11D-03 DE=-2.88D-04 OVMax= 3.52D-03

 Cycle   8  Pass 1  IDiag  1:
 RMSU=  5.15D-06    CP:  9.64D-01  1.49D+00  6.80D-01  6.14D-01  8.01D-01
                    CP:  8.44D-01  8.11D-01
 E= -4069.81134960603     Delta-E=       -0.000039240724 Rises=F Damp=F
 DIIS: error= 6.08D-05 at cycle   8 NSaved=   8.
 NSaved= 8 IEnMin= 8 EnMin= -4069.81134960603     IErMin= 8 ErrMin= 6.08D-05
 ErrMax= 6.08D-05  0.00D+00 EMaxC= 1.00D-01 BMatC= 5.06D-06 BMatP= 3.30D-05
 IDIUse=1 WtCom= 1.00D+00 WtEn= 0.00D+00
 Coeff-Com:  0.232D-02-0.463D-02-0.798D-02-0.120D-01-0.503D-02 0.331D-01
 Coeff-Com:  0.290D+00 0.704D+00
 Coeff:      0.232D-02-0.463D-02-0.798D-02-0.120D-01-0.503D-02 0.331D-01
 Coeff:      0.290D+00 0.704D+00
 Gap=     0.119 Goal=   None    Shift=    0.000
 RMSDP=3.59D-06 MaxDP=4.53D-04 DE=-3.92D-05 OVMax= 1.27D-03

 Cycle   9  Pass 1  IDiag  1:
 RMSU=  2.13D-06    CP:  9.64D-01  1.49D+00  6.80D-01  6.16D-01  8.17D-01
                    CP:  8.74D-01  9.91D-01  9.93D-01
 E= -4069.81135793175     Delta-E=       -0.000008325718 Rises=F Damp=F
 DIIS: error= 2.14D-05 at cycle   9 NSaved=   9.
 NSaved= 9 IEnMin= 9 EnMin= -4069.81135793175     IErMin= 9 ErrMin= 2.14D-05
 ErrMax= 2.14D-05  0.00D+00 EMaxC= 1.00D-01 BMatC= 9.62D-07 BMatP= 5.06D-06
 IDIUse=1 WtCom= 1.00D+00 WtEn= 0.00D+00
 Coeff-Com:  0.539D-03-0.909D-03-0.293D-02-0.629D-02-0.182D-01-0.418D-01
 Coeff-Com:  0.803D-01 0.368D+00 0.622D+00
 Coeff:      0.539D-03-0.909D-03-0.293D-02-0.629D-02-0.182D-01-0.418D-01
 Coeff:      0.803D-01 0.368D+00 0.622D+00
 Gap=     0.119 Goal=   None    Shift=    0.000
 RMSDP=1.58D-06 MaxDP=1.42D-04 DE=-8.33D-06 OVMax= 8.23D-04

 Cycle  10  Pass 1  IDiag  1:
 RMSU=  1.05D-06    CP:  9.64D-01  1.49D+00  6.80D-01  6.16D-01  8.20D-01
                    CP:  8.84D-01  1.04D+00  1.16D+00  1.03D+00
 E= -4069.81135997883     Delta-E=       -0.000002047083 Rises=F Damp=F
 DIIS: error= 9.39D-06 at cycle  10 NSaved=  10.
 NSaved=10 IEnMin=10 EnMin= -4069.81135997883     IErMin=10 ErrMin= 9.39D-06
 ErrMax= 9.39D-06  0.00D+00 EMaxC= 1.00D-01 BMatC= 2.02D-07 BMatP= 9.62D-07
 IDIUse=1 WtCom= 1.00D+00 WtEn= 0.00D+00
 Coeff-Com: -0.419D-03 0.891D-03 0.112D-02 0.771D-03-0.390D-02-0.326D-01
 Coeff-Com: -0.412D-01-0.504D-01 0.224D+00 0.901D+00
 Coeff:     -0.419D-03 0.891D-03 0.112D-02 0.771D-03-0.390D-02-0.326D-01
 Coeff:     -0.412D-01-0.504D-01 0.224D+00 0.901D+00
 Gap=     0.119 Goal=   None    Shift=    0.000
 RMSDP=1.32D-06 MaxDP=1.26D-04 DE=-2.05D-06 OVMax= 7.01D-04

 Cycle  11  Pass 1  IDiag  1:
 RMSU=  6.20D-07    CP:  9.64D-01  1.49D+00  6.80D-01  6.16D-01  8.22D-01
                    CP:  8.93D-01  1.08D+00  1.27D+00  1.37D+00  1.31D+00
 E= -4069.81136091042     Delta-E=       -0.000000931588 Rises=F Damp=F
 DIIS: error= 4.73D-06 at cycle  11 NSaved=  11.
 NSaved=11 IEnMin=11 EnMin= -4069.81136091042     IErMin=11 ErrMin= 4.73D-06
 ErrMax= 4.73D-06  0.00D+00 EMaxC= 1.00D-01 BMatC= 9.99D-08 BMatP= 2.02D-07
 IDIUse=1 WtCom= 1.00D+00 WtEn= 0.00D+00
 Coeff-Com: -0.381D-03 0.748D-03 0.146D-02 0.214D-02 0.392D-02-0.104D-01
 Coeff-Com: -0.413D-01-0.131D+00-0.458D-01 0.543D+00 0.678D+00
 Coeff:     -0.381D-03 0.748D-03 0.146D-02 0.214D-02 0.392D-02-0.104D-01
 Coeff:     -0.413D-01-0.131D+00-0.458D-01 0.543D+00 0.678D+00
 Gap=     0.119 Goal=   None    Shift=    0.000
 RMSDP=7.82D-07 MaxDP=7.66D-05 DE=-9.32D-07 OVMax= 4.53D-04

 Cycle  12  Pass 1  IDiag  1:
 RMSU=  3.06D-07    CP:  9.64D-01  1.49D+00  6.80D-01  6.17D-01  8.24D-01
                    CP:  8.96D-01  1.10D+00  1.35D+00  1.52D+00  1.72D+00
                    CP:  1.13D+00
 E= -4069.81136126273     Delta-E=       -0.000000352313 Rises=F Damp=F
 DIIS: error= 3.04D-06 at cycle  12 NSaved=  12.
 NSaved=12 IEnMin=12 EnMin= -4069.81136126273     IErMin=12 ErrMin= 3.04D-06
 ErrMax= 3.04D-06  0.00D+00 EMaxC= 1.00D-01 BMatC= 2.36D-08 BMatP= 9.99D-08
 IDIUse=1 WtCom= 1.00D+00 WtEn= 0.00D+00
 Coeff-Com: -0.533D-04 0.860D-04 0.390D-03 0.791D-03 0.399D-02 0.289D-02
 Coeff-Com: -0.274D-02-0.480D-01-0.873D-01 0.174D-01 0.271D+00 0.841D+00
 Coeff:     -0.533D-04 0.860D-04 0.390D-03 0.791D-03 0.399D-02 0.289D-02
 Coeff:     -0.274D-02-0.480D-01-0.873D-01 0.174D-01 0.271D+00 0.841D+00
 Gap=     0.119 Goal=   None    Shift=    0.000
 RMSDP=4.77D-07 MaxDP=3.61D-05 DE=-3.52D-07 OVMax= 2.79D-04

 Cycle  13  Pass 1  IDiag  1:
 RMSU=  1.80D-07    CP:  9.64D-01  1.49D+00  6.80D-01  6.17D-01  8.24D-01
                    CP:  8.96D-01  1.11D+00  1.37D+00  1.63D+00  1.94D+00
                    CP:  1.52D+00  1.21D+00
 E= -4069.81136138414     Delta-E=       -0.000000121403 Rises=F Damp=F
 DIIS: error= 1.67D-06 at cycle  13 NSaved=  13.
 NSaved=13 IEnMin=13 EnMin= -4069.81136138414     IErMin=13 ErrMin= 1.67D-06
 ErrMax= 1.67D-06  0.00D+00 EMaxC= 1.00D-01 BMatC= 1.14D-08 BMatP= 2.36D-08
 IDIUse=1 WtCom= 1.00D+00 WtEn= 0.00D+00
 Coeff-Com:  0.121D-03-0.249D-03-0.348D-03-0.407D-03 0.107D-02 0.491D-02
 Coeff-Com:  0.171D-01 0.229D-01-0.354D-01-0.225D+00-0.178D+00 0.523D+00
 Coeff-Com:  0.870D+00
 Coeff:      0.121D-03-0.249D-03-0.348D-03-0.407D-03 0.107D-02 0.491D-02
 Coeff:      0.171D-01 0.229D-01-0.354D-01-0.225D+00-0.178D+00 0.523D+00
 Coeff:      0.870D+00
 Gap=     0.119 Goal=   None    Shift=    0.000
 RMSDP=4.19D-07 MaxDP=3.15D-05 DE=-1.21D-07 OVMax= 2.74D-04

 Cycle  14  Pass 1  IDiag  1:
 RMSU=  8.83D-08    CP:  9.64D-01  1.49D+00  6.80D-01  6.17D-01  8.24D-01
                    CP:  8.96D-01  1.11D+00  1.40D+00  1.72D+00  2.15D+00
                    CP:  1.79D+00  1.75D+00  1.22D+00
 E= -4069.81136143989     Delta-E=       -0.000000055756 Rises=F Damp=F
 DIIS: error= 9.28D-07 at cycle  14 NSaved=  14.
 NSaved=14 IEnMin=14 EnMin= -4069.81136143989     IErMin=14 ErrMin= 9.28D-07
 ErrMax= 9.28D-07  0.00D+00 EMaxC= 1.00D-01 BMatC= 1.78D-09 BMatP= 1.14D-08
 IDIUse=1 WtCom= 1.00D+00 WtEn= 0.00D+00
 Coeff-Com:  0.756D-04-0.150D-03-0.273D-03-0.415D-03-0.332D-03 0.125D-02
 Coeff-Com:  0.984D-02 0.220D-01 0.597D-02-0.106D+00-0.155D+00 0.466D-01
 Coeff-Com:  0.428D+00 0.748D+00
 Coeff:      0.756D-04-0.150D-03-0.273D-03-0.415D-03-0.332D-03 0.125D-02
 Coeff:      0.984D-02 0.220D-01 0.597D-02-0.106D+00-0.155D+00 0.466D-01
 Coeff:      0.428D+00 0.748D+00
 Gap=     0.119 Goal=   None    Shift=    0.000
 RMSDP=1.39D-07 MaxDP=1.03D-05 DE=-5.58D-08 OVMax= 8.09D-05

 Cycle  15  Pass 1  IDiag  1:
 RMSU=  4.32D-08    CP:  9.64D-01  1.49D+00  6.80D-01  6.17D-01  8.24D-01
                    CP:  8.96D-01  1.11D+00  1.41D+00  1.74D+00  2.21D+00
                    CP:  1.91D+00  1.92D+00  1.48D+00  1.06D+00
 E= -4069.81136144629     Delta-E=       -0.000000006399 Rises=F Damp=F
 DIIS: error= 4.49D-07 at cycle  15 NSaved=  15.
 NSaved=15 IEnMin=15 EnMin= -4069.81136144629     IErMin=15 ErrMin= 4.49D-07
 ErrMax= 4.49D-07  0.00D+00 EMaxC= 1.00D-01 BMatC= 2.88D-10 BMatP= 1.78D-09
 IDIUse=1 WtCom= 1.00D+00 WtEn= 0.00D+00
 Coeff-Com:  0.112D-04-0.203D-04-0.540D-04-0.113D-03-0.297D-03-0.490D-03
 Coeff-Com:  0.146D-02 0.447D-02 0.928D-02-0.581D-02-0.337D-01-0.720D-01
 Coeff-Com:  0.487D-01 0.320D+00 0.729D+00
 Coeff:      0.112D-04-0.203D-04-0.540D-04-0.113D-03-0.297D-03-0.490D-03
 Coeff:      0.146D-02 0.447D-02 0.928D-02-0.581D-02-0.337D-01-0.720D-01
 Coeff:      0.487D-01 0.320D+00 0.729D+00
 Gap=     0.119 Goal=   None    Shift=    0.000
 RMSDP=3.91D-08 MaxDP=2.90D-06 DE=-6.40D-09 OVMax= 3.07D-05

 Cycle  16  Pass 1  IDiag  1:
 RMSU=  2.07D-08    CP:  9.64D-01  1.49D+00  6.80D-01  6.17D-01  8.24D-01
                    CP:  8.96D-01  1.12D+00  1.41D+00  1.74D+00  2.22D+00
                    CP:  1.93D+00  1.96D+00  1.55D+00  1.25D+00  1.12D+00
 E= -4069.81136144694     Delta-E=       -0.000000000648 Rises=F Damp=F
 DIIS: error= 1.96D-07 at cycle  16 NSaved=  16.
 NSaved=16 IEnMin=16 EnMin= -4069.81136144694     IErMin=16 ErrMin= 1.96D-07
 ErrMax= 1.96D-07  0.00D+00 EMaxC= 1.00D-01 BMatC= 1.07D-10 BMatP= 2.88D-10
 IDIUse=1 WtCom= 1.00D+00 WtEn= 0.00D+00
 Coeff-Com: -0.133D-04 0.272D-04 0.415D-04 0.423D-04-0.624D-04-0.625D-03
 Coeff-Com: -0.159D-02-0.382D-02 0.398D-02 0.228D-01 0.225D-01-0.555D-01
 Coeff-Com: -0.782D-01-0.365D-01 0.378D+00 0.749D+00
 Coeff:     -0.133D-04 0.272D-04 0.415D-04 0.423D-04-0.624D-04-0.625D-03
 Coeff:     -0.159D-02-0.382D-02 0.398D-02 0.228D-01 0.225D-01-0.555D-01
 Coeff:     -0.782D-01-0.365D-01 0.378D+00 0.749D+00
 Gap=     0.119 Goal=   None    Shift=    0.000
 RMSDP=2.61D-08 MaxDP=1.99D-06 DE=-6.48D-10 OVMax= 1.54D-05

 Cycle  17  Pass 1  IDiag  1:
 RMSU=  1.16D-08    CP:  9.64D-01  1.49D+00  6.80D-01  6.17D-01  8.24D-01
                    CP:  8.96D-01  1.12D+00  1.41D+00  1.75D+00  2.22D+00
                    CP:  1.94D+00  1.99D+00  1.60D+00  1.34D+00  1.40D+00
                    CP:  1.21D+00
 E= -4069.81136144716     Delta-E=       -0.000000000218 Rises=F Damp=F
 DIIS: error= 8.55D-08 at cycle  17 NSaved=  17.
 NSaved=17 IEnMin=17 EnMin= -4069.81136144716     IErMin=17 ErrMin= 8.55D-08
 ErrMax= 8.55D-08  0.00D+00 EMaxC= 1.00D-01 BMatC= 2.19D-11 BMatP= 1.07D-10
 IDIUse=1 WtCom= 1.00D+00 WtEn= 0.00D+00
 Coeff-Com: -0.842D-05 0.165D-04 0.316D-04 0.442D-04 0.657D-04-0.156D-03
 Coeff-Com: -0.897D-03-0.299D-02-0.157D-03 0.103D-01 0.189D-01-0.721D-02
 Coeff-Com: -0.381D-01-0.981D-01-0.131D-01 0.298D+00 0.833D+00
 Coeff:     -0.842D-05 0.165D-04 0.316D-04 0.442D-04 0.657D-04-0.156D-03
 Coeff:     -0.897D-03-0.299D-02-0.157D-03 0.103D-01 0.189D-01-0.721D-02
 Coeff:     -0.381D-01-0.981D-01-0.131D-01 0.298D+00 0.833D+00
 Gap=     0.119 Goal=   None    Shift=    0.000
 RMSDP=1.41D-08 MaxDP=1.17D-06 DE=-2.18D-10 OVMax= 1.03D-05

 Cycle  18  Pass 1  IDiag  1:
 RMSU=  5.71D-09    CP:  9.64D-01  1.49D+00  6.80D-01  6.17D-01  8.24D-01
                    CP:  8.96D-01  1.12D+00  1.41D+00  1.75D+00  2.22D+00
                    CP:  1.94D+00  2.00D+00  1.62D+00  1.39D+00  1.56D+00
                    CP:  1.59D+00  1.35D+00
 E= -4069.81136144746     Delta-E=       -0.000000000298 Rises=F Damp=F
 DIIS: error= 6.57D-08 at cycle  18 NSaved=  18.
 NSaved=18 IEnMin=18 EnMin= -4069.81136144746     IErMin=18 ErrMin= 6.57D-08
 ErrMax= 6.57D-08  0.00D+00 EMaxC= 1.00D-01 BMatC= 9.25D-12 BMatP= 2.19D-11
 IDIUse=1 WtCom= 1.00D+00 WtEn= 0.00D+00
 Coeff-Com:  0.475D-06-0.131D-05 0.126D-05 0.618D-05 0.670D-04 0.141D-03
 Coeff-Com:  0.193D-03-0.206D-03-0.119D-02-0.350D-02 0.172D-02 0.140D-01
 Coeff-Com:  0.125D-01-0.373D-01-0.139D+00-0.146D+00 0.403D+00 0.895D+00
 Coeff:      0.475D-06-0.131D-05 0.126D-05 0.618D-05 0.670D-04 0.141D-03
 Coeff:      0.193D-03-0.206D-03-0.119D-02-0.350D-02 0.172D-02 0.140D-01
 Coeff:      0.125D-01-0.373D-01-0.139D+00-0.146D+00 0.403D+00 0.895D+00
 Gap=     0.119 Goal=   None    Shift=    0.000
 RMSDP=1.12D-08 MaxDP=8.22D-07 DE=-2.98D-10 OVMax= 6.67D-06

 Cycle  19  Pass 1  IDiag  1:
 RMSU=  3.20D-09    CP:  9.64D-01  1.49D+00  6.80D-01  6.17D-01  8.24D-01
                    CP:  8.96D-01  1.12D+00  1.41D+00  1.75D+00  2.22D+00
                    CP:  1.95D+00  2.00D+00  1.63D+00  1.43D+00  1.68D+00
                    CP:  1.85D+00  1.87D+00  1.24D+00
 E= -4069.81136144767     Delta-E=       -0.000000000211 Rises=F Damp=F
 DIIS: error= 2.77D-08 at cycle  19 NSaved=  19.
 NSaved=19 IEnMin=19 EnMin= -4069.81136144767     IErMin=19 ErrMin= 2.77D-08
 ErrMax= 2.77D-08  0.00D+00 EMaxC= 1.00D-01 BMatC= 2.38D-12 BMatP= 9.25D-12
 IDIUse=1 WtCom= 1.00D+00 WtEn= 0.00D+00
 Coeff-Com:  0.308D-05-0.625D-05-0.990D-05-0.114D-04 0.232D-04 0.134D-03
 Coeff-Com:  0.438D-03 0.853D-03-0.600D-03-0.601D-02-0.546D-02 0.104D-01
 Coeff-Com:  0.222D-01 0.115D-01-0.770D-01-0.197D+00-0.280D-01 0.503D+00
 Coeff-Com:  0.766D+00
 Coeff:      0.308D-05-0.625D-05-0.990D-05-0.114D-04 0.232D-04 0.134D-03
 Coeff:      0.438D-03 0.853D-03-0.600D-03-0.601D-02-0.546D-02 0.104D-01
 Coeff:      0.222D-01 0.115D-01-0.770D-01-0.197D+00-0.280D-01 0.503D+00
 Coeff:      0.766D+00
 Gap=     0.119 Goal=   None    Shift=    0.000
 RMSDP=6.19D-09 MaxDP=5.32D-07 DE=-2.11D-10 OVMax= 4.38D-06

 SCF Done:  E(RCAM-B3LYP) =  -4069.81136145     A.U. after   19 cycles
            NFock= 19  Conv=0.62D-08     -V/T= 2.0102
 KE= 4.028795110792D+03 PE=-4.145557462931D+04 EE= 1.736988778666D+04
 Leave Link  502 at Thu Sep  9 06:43:04 2021, MaxMem= 23488102400 cpu:           18052.8 elap:             781.8
 (Enter /sw/apps/gaussian-16.0/g16/l801.exe)
 DoSCS=F DFT=T ScalE2(SS,OS)=  1.000000  1.000000
 ExpMin= 3.36D-02 ExpMax= 4.95D+03 ExpMxC= 7.45D+02 IAcc=3 IRadAn=         5 AccDes= 0.00D+00
 HarFok:  IExCor=  205 AccDes= 0.00D+00 IRadAn=         5 IDoV=-2 UseB2=F ITyADJ=14
 ICtDFT= 12500011 ScaDFX=  1.000000  1.000000  1.000000  1.000000
 GSVD:  LWork=       -9588 too small for GESVD, short by       45590 words or       45590 for optimal perf.
 Largest valence mixing into a core orbital is  2.03D-04
 Largest core mixing into a valence orbital is  5.24D-05
 Range of M.O.s used for correlation:    95  1572
 NBasis=  1572 NAE=   312 NBE=   312 NFC=    94 NFV=     0
 NROrb=   1478 NOA=   218 NOB=   218 NVA=  1260 NVB=  1260
 Leave Link  801 at Thu Sep  9 06:43:05 2021, MaxMem= 23488102400 cpu:               8.1 elap:               0.4
 (Enter /sw/apps/gaussian-16.0/g16/l914.exe)
 RHF ground state
 Two-electron integrals replicated using symmetry.
 MDV= 23488102400 DFT=T DoStab=F Mixed=T DoRPA=T DoScal=F NonHer=T
 Making orbital integer symmetry assigments:
 Orbital symmetries:
       Occupied  (A) (A) (A) (A) (A) (A) (A) (A) (A) (A) (A) (A)
                 (A) (A) (A) (A) (A) (A) (A) (A) (A) (A) (A) (A)
                 (A) (A) (A) (A) (A) (A) (A) (A) (A) (A) (A) (A)
                 (A) (A) (A) (A) (A) (A) (A) (A) (A) (A) (A) (A)
                 (A) (A) (A) (A) (A) (A) (A) (A) (A) (A) (A) (A)
                 (A) (A) (A) (A) (A) (A) (A) (A) (A) (A) (A) (A)
                 (A) (A) (A) (A) (A) (A) (A) (A) (A) (A) (A) (A)
                 (A) (A) (A) (A) (A) (A) (A) (A) (A) (A) (A) (A)
                 (A) (A) (A) (A) (A) (A) (A) (A) (A) (A) (A) (A)
                 (A) (A) (A) (A) (A) (A) (A) (A) (A) (A) (A) (A)
                 (A) (A) (A) (A) (A) (A) (A) (A) (A) (A) (A) (A)
                 (A) (A) (A) (A) (A) (A) (A) (A) (A) (A) (A) (A)
                 (A) (A) (A) (A) (A) (A) (A) (A) (A) (A) (A) (A)
                 (A) (A) (A) (A) (A) (A) (A) (A) (A) (A) (A) (A)
                 (A) (A) (A) (A) (A) (A) (A) (A) (A) (A) (A) (A)
                 (A) (A) (A) (A) (A) (A) (A) (A) (A) (A) (A) (A)
                 (A) (A) (A) (A) (A) (A) (A) (A) (A) (A) (A) (A)
                 (A) (A) (A) (A) (A) (A) (A) (A) (A) (A) (A) (A)
                 (A) (A) (A) (A) (A) (A) (A) (A) (A) (A) (A) (A)
                 (A) (A) (A) (A) (A) (A) (A) (A) (A) (A) (A) (A)
                 (A) (A) (A) (A) (A) (A) (A) (A) (A) (A) (A) (A)
                 (A) (A) (A) (A) (A) (A) (A) (A) (A) (A) (A) (A)
                 (A) (A) (A) (A) (A) (A) (A) (A) (A) (A) (A) (A)
                 (A) (A) (A) (A) (A) (A) (A) (A) (A) (A) (A) (A)
                 (A) (A) (A) (A) (A) (A) (A) (A) (A) (A) (A) (A)
                 (A) (A) (A) (A) (A) (A) (A) (A) (A) (A) (A) (A)
       Virtual   (A) (A) (A) (A) (A) (A) (A) (A) (A) (A) (A) (A)
                 (A) (A) (A) (A) (A) (A) (A) (A) (A) (A) (A) (A)
                 (A) (A) (A) (A) (A) (A) (A) (A) (A) (A) (A) (A)
                 (A) (A) (A) (A) (A) (A) (A) (A) (A) (A) (A) (A)
                 (A) (A) (A) (A) (A) (A) (A) (A) (A) (A) (A) (A)
                 (A) (A) (A) (A) (A) (A) (A) (A) (A) (A) (A) (A)
                 (A) (A) (A) (A) (A) (A) (A) (A) (A) (A) (A) (A)
                 (A) (A) (A) (A) (A) (A) (A) (A) (A) (A) (A) (A)
                 (A) (A) (A) (A) (A) (A) (A) (A) (A) (A) (A) (A)
                 (A) (A) (A) (A) (A) (A) (A) (A) (A) (A) (A) (A)
                 (A) (A) (A) (A) (A) (A) (A) (A) (A) (A) (A) (A)
                 (A) (A) (A) (A) (A) (A) (A) (A) (A) (A) (A) (A)
                 (A) (A) (A) (A) (A) (A) (A) (A) (A) (A) (A) (A)
                 (A) (A) (A) (A) (A) (A) (A) (A) (A) (A) (A) (A)
                 (A) (A) (A) (A) (A) (A) (A) (A) (A) (A) (A) (A)
                 (A) (A) (A) (A) (A) (A) (A) (A) (A) (A) (A) (A)
                 (A) (A) (A) (A) (A) (A) (A) (A) (A) (A) (A) (A)
                 (A) (A) (A) (A) (A) (A) (A) (A) (A) (A) (A) (A)
                 (A) (A) (A) (A) (A) (A) (A) (A) (A) (A) (A) (A)
                 (A) (A) (A) (A) (A) (A) (A) (A) (A) (A) (A) (A)
                 (A) (A) (A) (A) (A) (A) (A) (A) (A) (A) (A) (A)
                 (A) (A) (A) (A) (A) (A) (A) (A) (A) (A) (A) (A)
                 (A) (A) (A) (A) (A) (A) (A) (A) (A) (A) (A) (A)
                 (A) (A) (A) (A) (A) (A) (A) (A) (A) (A) (A) (A)
                 (A) (A) (A) (A) (A) (A) (A) (A) (A) (A) (A) (A)
                 (A) (A) (A) (A) (A) (A) (A) (A) (A) (A) (A) (A)
                 (A) (A) (A) (A) (A) (A) (A) (A) (A) (A) (A) (A)
                 (A) (A) (A) (A) (A) (A) (A) (A) (A) (A) (A) (A)
                 (A) (A) (A) (A) (A) (A) (A) (A) (A) (A) (A) (A)
                 (A) (A) (A) (A) (A) (A) (A) (A) (A) (A) (A) (A)
                 (A) (A) (A) (A) (A) (A) (A) (A) (A) (A) (A) (A)
                 (A) (A) (A) (A) (A) (A) (A) (A) (A) (A) (A) (A)
                 (A) (A) (A) (A) (A) (A) (A) (A) (A) (A) (A) (A)
                 (A) (A) (A) (A) (A) (A) (A) (A) (A) (A) (A) (A)
                 (A) (A) (A) (A) (A) (A) (A) (A) (A) (A) (A) (A)
                 (A) (A) (A) (A) (A) (A) (A) (A) (A) (A) (A) (A)
                 (A) (A) (A) (A) (A) (A) (A) (A) (A) (A) (A) (A)
                 (A) (A) (A) (A) (A) (A) (A) (A) (A) (A) (A) (A)
                 (A) (A) (A) (A) (A) (A) (A) (A) (A) (A) (A) (A)
                 (A) (A) (A) (A) (A) (A) (A) (A) (A) (A) (A) (A)
                 (A) (A) (A) (A) (A) (A) (A) (A) (A) (A) (A) (A)
                 (A) (A) (A) (A) (A) (A) (A) (A) (A) (A) (A) (A)
                 (A) (A) (A) (A) (A) (A) (A) (A) (A) (A) (A) (A)
                 (A) (A) (A) (A) (A) (A) (A) (A) (A) (A) (A) (A)
                 (A) (A) (A) (A) (A) (A) (A) (A) (A) (A) (A) (A)
                 (A) (A) (A) (A) (A) (A) (A) (A) (A) (A) (A) (A)
                 (A) (A) (A) (A) (A) (A) (A) (A) (A) (A) (A) (A)
                 (A) (A) (A) (A) (A) (A) (A) (A) (A) (A) (A) (A)
                 (A) (A) (A) (A) (A) (A) (A) (A) (A) (A) (A) (A)
                 (A) (A) (A) (A) (A) (A) (A) (A) (A) (A) (A) (A)
                 (A) (A) (A) (A) (A) (A) (A) (A) (A) (A) (A) (A)
                 (A) (A) (A) (A) (A) (A) (A) (A) (A) (A) (A) (A)
                 (A) (A) (A) (A) (A) (A) (A) (A) (A) (A) (A) (A)
                 (A) (A) (A) (A) (A) (A) (A) (A) (A) (A) (A) (A)
                 (A) (A) (A) (A) (A) (A) (A) (A) (A) (A) (A) (A)
                 (A) (A) (A) (A) (A) (A) (A) (A) (A) (A) (A) (A)
                 (A) (A) (A) (A) (A) (A) (A) (A) (A) (A) (A) (A)
                 (A) (A) (A) (A) (A) (A) (A) (A) (A) (A) (A) (A)
                 (A) (A) (A) (A) (A) (A) (A) (A) (A) (A) (A) (A)
                 (A) (A) (A) (A) (A) (A) (A) (A) (A) (A) (A) (A)
                 (A) (A) (A) (A) (A) (A) (A) (A) (A) (A) (A) (A)
                 (A) (A) (A) (A) (A) (A) (A) (A) (A) (A) (A) (A)
                 (A) (A) (A) (A) (A) (A) (A) (A) (A) (A) (A) (A)
                 (A) (A) (A) (A) (A) (A) (A) (A) (A) (A) (A) (A)
                 (A) (A) (A) (A) (A) (A) (A) (A) (A) (A) (A) (A)
                 (A) (A) (A) (A) (A) (A) (A) (A) (A) (A) (A) (A)
                 (A) (A) (A) (A) (A) (A) (A) (A) (A) (A) (A) (A)
                 (A) (A) (A) (A) (A) (A) (A) (A) (A) (A) (A) (A)
                 (A) (A) (A) (A) (A) (A) (A) (A) (A) (A) (A) (A)
                 (A) (A) (A) (A) (A) (A) (A) (A) (A) (A) (A) (A)
                 (A) (A) (A) (A) (A) (A) (A) (A) (A) (A) (A) (A)
                 (A) (A) (A) (A) (A) (A) (A) (A) (A) (A) (A) (A)
                 (A) (A) (A) (A) (A) (A) (A) (A) (A) (A) (A) (A)
                 (A) (A) (A) (A) (A) (A) (A) (A) (A) (A) (A) (A)
                 (A) (A) (A) (A) (A) (A) (A) (A) (A) (A) (A) (A)
                 (A) (A) (A) (A) (A) (A) (A) (A) (A) (A) (A) (A)
                 (A) (A) (A) (A) (A) (A) (A) (A) (A) (A) (A) (A)
                 (A) (A) (A) (A) (A) (A) (A) (A) (A) (A) (A) (A)
                 (A) (A) (A) (A) (A) (A) (A) (A) (A) (A) (A) (A)
                 (A) (A) (A) (A) (A) (A) (A) (A) (A) (A) (A) (A)
                 (A) (A) (A) (A) (A) (A) (A) (A) (A) (A) (A) (A)
                 (A) (A) (A) (A) (A) (A) (A) (A) (A) (A) (A) (A)
                 (A) (A) (A) (A) (A) (A) (A) (A) (A) (A) (A) (A)
                 (A) (A) (A) (A) (A) (A) (A) (A) (A) (A) (A) (A)
                 (A) (A) (A) (A) (A) (A) (A) (A) (A) (A) (A) (A)
                 (A) (A) (A) (A) (A) (A) (A) (A) (A) (A) (A) (A)
                 (A) (A) (A) (A) (A) (A) (A) (A) (A) (A) (A) (A)
                 (A) (A) (A) (A) (A) (A) (A) (A) (A) (A) (A) (A)
                 (A) (A) (A) (A) (A) (A) (A) (A) (A) (A) (A) (A)
                 (A) (A) (A) (A) (A) (A) (A) (A) (A) (A) (A) (A)
                 (A) (A) (A) (A) (A) (A) (A) (A) (A) (A) (A) (A)
                 (A) (A) (A) (A) (A) (A) (A) (A) (A) (A) (A) (A)
                 (A) (A) (A) (A) (A) (A) (A) (A) (A) (A) (A) (A)
                 (A) (A) (A) (A) (A) (A) (A) (A) (A) (A) (A) (A)
                 (A) (A) (A) (A) (A) (A) (A) (A) (A) (A) (A) (A)
                 (A) (A) (A) (A) (A) (A) (A) (A) (A) (A) (A) (A)
                 (A) (A) (A) (A) (A) (A) (A) (A) (A) (A) (A) (A)
                 (A) (A) (A) (A) (A) (A) (A) (A) (A) (A) (A) (A)
                 (A) (A) (A) (A) (A) (A) (A) (A) (A) (A) (A) (A)
                 (A) (A) (A) (A) (A) (A) (A) (A) (A) (A) (A) (A)
                 (A) (A) (A) (A) (A) (A) (A) (A) (A) (A) (A) (A)
                 (A) (A) (A) (A) (A) (A) (A) (A) (A) (A) (A) (A)
                 (A) (A) (A) (A) (A) (A) (A) (A) (A) (A) (A) (A)
                 (A) (A) (A) (A) (A) (A) (A) (A) (A) (A) (A) (A)
                 (A) (A) (A) (A) (A) (A) (A) (A) (A) (A) (A) (A)
    20 initial guesses have been made.
 Convergence on wavefunction:    0.001000000000000
 Davidson Disk Diagonalization:  ConvIn= 1.00D-03 SkipCon=T Conv= 1.00D-03.
 Max sub-space:  2000 roots to seek:    20 dimension of matrix:       549360
 Iteration     1 Dimension    20 NMult     0 NNew     20
 CISAX will form    20 AO SS matrices at one time.
 NMat=    20 NSing=    20 JSym2X= 0.
 FoFJK:  IHMeth= 1 ICntrl=       0 DoSepK=T KAlg= 0 I1Cent=           0 FoldK=F
 IRaf=         1 NMat=      40 IRICut=       1 DoRegI=T DoRafI=F ISym2E= 0 IDoP0=3 IntGTp=3.
 FoFCou: FMM=T IPFlag=           0 FMFlag=      100000 FMFlg1=        2001
         NFxFlg=           0 DoJE=F BraDBF=F KetDBF=F FulRan=T
         wScrn=  0.000000 ICntrl=       500 IOpCl=  0 I1Cent=           0 NGrid=           0
         NMat0=   20 NMatS0=     20 NMatT0=    0 NMatD0=   20 NMtDS0=    0 NMtDT0=    0
 Symmetry not used in FoFCou.
 FMM levels:  10  Number of levels for PrismC:   9
 New state      2 was old state      4
 New state      3 was old state      2
 New state      4 was old state      7
 New state      5 was old state      6
 Excitation Energies [eV] at current iteration:
 Root      1 :     2.232629259827562
 Root      2 :     2.458889456880233
 Root      3 :     2.580821150090622
 Root      4 :     2.614663835916529
 Root      5 :     2.626179694192261
 Root      6 :     2.781205145801303
 Root      7 :     3.006431381720447
 Root      8 :     3.252049207768224
 Root      9 :     3.608449796284646
 Root     10 :     3.663598761243763
 Root     11 :     3.746352176819162
 Root     12 :     3.758569676318273
 Root     13 :     4.130769063120711
 Root     14 :     4.226131601415296
 Root     15 :     4.381575636217965
 Root     16 :     4.389937357389580
 Root     17 :     4.410274542809374
 Root     18 :     4.537942436433206
 Root     19 :     4.628250100628699
 Root     20 :     4.648486062953743
 Iteration     2 Dimension    30 NMult    20 NNew     10
 CISAX will form    10 AO SS matrices at one time.
 NMat=    10 NSing=    10 JSym2X= 0.
 New state      1 was old state      3
 Root      1 not converged, maximum delta is    0.220461671149678
 New state      2 was old state      4
 Root      2 not converged, maximum delta is    0.164106349083481
 New state      3 was old state      1
 Root      3 not converged, maximum delta is    0.008585229021004
 New state      4 was old state      5
 Root      4 not converged, maximum delta is    0.121244576690310
 New state      5 was old state      2
 Root      5 not converged, maximum delta is    0.009753478168251
 Excitation Energies [eV] at current iteration:
 Root      1 :     1.758423855278131   Change is   -0.822397294812491
 Root      2 :     2.224769484307061   Change is   -0.389894351609467
 Root      3 :     2.231357201307763   Change is   -0.001272058519799
 Root      4 :     2.245887778995665   Change is   -0.380291915196597
 Root      5 :     2.456993645127259   Change is   -0.001895811752974
 Iteration     3 Dimension    40 NMult    30 NNew     10
 CISAX will form    10 AO SS matrices at one time.
 NMat=    10 NSing=    10 JSym2X= 0.
 Root      1 not converged, maximum delta is    0.051751633095802
 New state      2 was old state      4
 Root      2 not converged, maximum delta is    0.461987380231613
 New state      3 was old state      2
 Root      3 not converged, maximum delta is    0.040929385037716
 No map to state      4
 New state      5 was old state      3
 Root      5 not converged, maximum delta is    0.010757720114192
 Excitation Energies [eV] at current iteration:
 Root      1 :     1.655872643796336   Change is   -0.102551211481794
 Root      2 :     1.913462798519536   Change is   -0.332424980476128
 Root      3 :     2.185441457425541   Change is   -0.039328026881520
 Root      4 :     2.208077981733202
 Root      5 :     2.231353114897779   Change is   -0.000004086409985
 Iteration     4 Dimension    50 NMult    40 NNew     10
 CISAX will form    10 AO SS matrices at one time.
 NMat=    10 NSing=    10 JSym2X= 0.
 Root      1 not converged, maximum delta is    0.010892963370846
 Root      2 not converged, maximum delta is    0.037367981079227
 Root      3 not converged, maximum delta is    0.019846929786810
 Root      4 not converged, maximum delta is    0.019154193917344
 Root      5 has converged.
 Excitation Energies [eV] at current iteration:
 Root      1 :     1.639633369828626   Change is   -0.016239273967711
 Root      2 :     1.736617983960423   Change is   -0.176844814559113
 Root      3 :     2.178352513261562   Change is   -0.007088944163979
 Root      4 :     2.199266454036767   Change is   -0.008811527696435
 Root      5 :     2.231351866120236   Change is   -0.000001248777543
 Iteration     5 Dimension    58 NMult    50 NNew      8
 CISAX will form     8 AO SS matrices at one time.
 NMat=     8 NSing=     8 JSym2X= 0.
 Root      1 not converged, maximum delta is    0.001314132702233
 Root      2 not converged, maximum delta is    0.009570126976607
 Root      3 not converged, maximum delta is    0.003478241207802
 Root      4 not converged, maximum delta is    0.003404731185733
 Root      5 has converged.
 Excitation Energies [eV] at current iteration:
 Root      1 :     1.637976098714914   Change is   -0.001657271113712
 Root      2 :     1.715036251242084   Change is   -0.021581732718339
 Root      3 :     2.177540689005841   Change is   -0.000811824255721
 Root      4 :     2.198342853801964   Change is   -0.000923600234802
 Root      5 :     2.231351831806423   Change is   -0.000000034313813
 Iteration     6 Dimension    66 NMult    58 NNew      8
 CISAX will form     8 AO SS matrices at one time.
 NMat=     8 NSing=     8 JSym2X= 0.
 Root      1 has converged.
 Root      2 not converged, maximum delta is    0.004227168938161
 Root      3 has converged.
 Root      4 has converged.
 Root      5 has converged.
 Excitation Energies [eV] at current iteration:
 Root      1 :     1.637748199244718   Change is   -0.000227899470196
 Root      2 :     1.712878056853181   Change is   -0.002158194388904
 Root      3 :     2.177414616611532   Change is   -0.000126072394309
 Root      4 :     2.198217042971795   Change is   -0.000125810830169
 Root      5 :     2.231351822437976   Change is   -0.000000009368447
 Iteration     7 Dimension    68 NMult    66 NNew      2
 CISAX will form     2 AO SS matrices at one time.
 NMat=     2 NSing=     2 JSym2X= 0.
 Root      1 has converged.
 Root      2 has converged.
 Root      3 has converged.
 Root      4 has converged.
 Root      5 has converged.
 Excitation Energies [eV] at current iteration:
 Root      1 :     1.637748103783000   Change is   -0.000000095461719
[...]
 Alpha virt. eigenvalues --    1.83724   1.83866   1.83967   1.84182   1.84401
 Alpha virt. eigenvalues --    1.84544   1.84687   1.84798   1.85114   1.85184
 Alpha virt. eigenvalues --    1.85256   1.85339   1.85444   1.85553   1.85759
 Alpha virt. eigenvalues --    1.85857   1.86147   1.86290   1.86535   1.86629
 Alpha virt. eigenvalues --    1.86746   1.86861   1.86971   1.87139   1.87291
 Alpha virt. eigenvalues --    1.87340   1.87643   1.87716   1.87844   1.87936
 Alpha virt. eigenvalues --    1.88038   1.88281   1.88419   1.88480   1.88717
 Alpha virt. eigenvalues --    1.88819   1.89126   1.89249   1.89470   1.89696
 Alpha virt. eigenvalues --    1.89799   1.90006   1.90105   1.90129   1.90480
 Alpha virt. eigenvalues --    1.90818   1.91157   1.91284   1.91589   1.91708
 Alpha virt. eigenvalues --    1.91885   1.92098   1.92464   1.92591   1.92872
 Alpha virt. eigenvalues --    1.92957   1.93266   1.93432   1.93775   1.94253
 Alpha virt. eigenvalues --    1.94536   1.94627   1.95065   1.95507   1.95696
 Alpha virt. eigenvalues --    1.95862   1.95918   1.96016   1.96131   1.96373
 Alpha virt. eigenvalues --    1.96462   1.96539   1.96752   1.96843   1.97202
 Alpha virt. eigenvalues --    1.97373   1.97731   1.97836   1.98076   1.98121
 Alpha virt. eigenvalues --    1.98486   1.98625   1.98665   1.99091   1.99406
 Alpha virt. eigenvalues --    1.99739   2.00260   2.00590   2.00911   2.01107
 Alpha virt. eigenvalues --    2.01348   2.01403   2.01682   2.01718   2.01780
 Alpha virt. eigenvalues --    2.01960   2.02207   2.02728   2.02969   2.03167
 Alpha virt. eigenvalues --    2.03363   2.03418   2.03584   2.03710   2.03814
 Alpha virt. eigenvalues --    2.04067   2.04367   2.04894   2.05216   2.05458
 Alpha virt. eigenvalues --    2.05919   2.06040   2.06576   2.06907   2.07140
 Alpha virt. eigenvalues --    2.07366   2.07660   2.08531   2.08823   2.08929
 Alpha virt. eigenvalues --    2.09260   2.09570   2.09872   2.10776   2.11125
 Alpha virt. eigenvalues --    2.11273   2.11428   2.11633   2.11668   2.11798
 Alpha virt. eigenvalues --    2.12145   2.12423   2.12713   2.12740   2.12817
 Alpha virt. eigenvalues --    2.13039   2.13306   2.13914   2.13968   2.14128
 Alpha virt. eigenvalues --    2.14844   2.15268   2.15647   2.15872   2.16415
 Alpha virt. eigenvalues --    2.16516   2.16675   2.16929   2.17394   2.17506
 Alpha virt. eigenvalues --    2.17660   2.17899   2.18049   2.18241   2.18268
 Alpha virt. eigenvalues --    2.18361   2.18775   2.19131   2.19535   2.19654
 Alpha virt. eigenvalues --    2.19969   2.20155   2.20182   2.20558   2.20725
 Alpha virt. eigenvalues --    2.21035   2.21613   2.21699   2.21818   2.22084
 Alpha virt. eigenvalues --    2.22181   2.22653   2.22989   2.23285   2.23874
 Alpha virt. eigenvalues --    2.24351   2.24654   2.24946   2.25293   2.26238
 Alpha virt. eigenvalues --    2.26715   2.26732   2.27040   2.27276   2.27493
 Alpha virt. eigenvalues --    2.28073   2.28641   2.29220   2.29635   2.29725
 Alpha virt. eigenvalues --    2.30174   2.30372   2.30879   2.31054   2.31130
 Alpha virt. eigenvalues --    2.31272   2.31447   2.32078   2.32487   2.33090
 Alpha virt. eigenvalues --    2.33414   2.33509   2.33769   2.34116   2.34437
 Alpha virt. eigenvalues --    2.35330   2.35629   2.35748   2.36276   2.36304
 Alpha virt. eigenvalues --    2.36562   2.36611   2.36687   2.37760   2.37904
 Alpha virt. eigenvalues --    2.38206   2.38597   2.38770   2.38998   2.39552
 Alpha virt. eigenvalues --    2.39915   2.40155   2.40395   2.40488   2.41073
 Alpha virt. eigenvalues --    2.41150   2.41448   2.41614   2.41960   2.41994
 Alpha virt. eigenvalues --    2.42441   2.42871   2.43090   2.43302   2.43519
 Alpha virt. eigenvalues --    2.44109   2.44226   2.44673   2.44819   2.45095
 Alpha virt. eigenvalues --    2.45338   2.45513   2.45824   2.46260   2.46419
 Alpha virt. eigenvalues --    2.46515   2.46740   2.46763   2.47083   2.47212
 Alpha virt. eigenvalues --    2.47637   2.47673   2.48154   2.49287   2.49594
 Alpha virt. eigenvalues --    2.49999   2.50105   2.50517   2.50644   2.51086
 Alpha virt. eigenvalues --    2.51567   2.51803   2.51857   2.52342   2.52622
 Alpha virt. eigenvalues --    2.52732   2.53457   2.53870   2.54096   2.54197
 Alpha virt. eigenvalues --    2.54483   2.54770   2.55135   2.55475   2.55953
 Alpha virt. eigenvalues --    2.57799   2.58341   2.58576   2.59233   2.60166
 Alpha virt. eigenvalues --    2.60494   2.60611   2.61175   2.61638   2.62071
 Alpha virt. eigenvalues --    2.62421   2.62682   2.62887   2.63426   2.63843
 Alpha virt. eigenvalues --    2.64155   2.64436   2.64692   2.64999   2.65375
 Alpha virt. eigenvalues --    2.65722   2.66078   2.66689   2.66814   2.67034
 Alpha virt. eigenvalues --    2.67312   2.67827   2.68234   2.68773   2.68945
 Alpha virt. eigenvalues --    2.69043   2.69283   2.69298   2.69824   2.69938
 Alpha virt. eigenvalues --    2.70383   2.70913   2.71302   2.72004   2.72125
 Alpha virt. eigenvalues --    2.72610   2.72730   2.72796   2.72993   2.73205
 Alpha virt. eigenvalues --    2.73497   2.73505   2.73759   2.74464   2.74784
 Alpha virt. eigenvalues --    2.74908   2.75312   2.76525   2.76743   2.77195
 Alpha virt. eigenvalues --    2.77356   2.77391   2.77827   2.78146   2.78499
 Alpha virt. eigenvalues --    2.78654   2.78925   2.79063   2.79383   2.80286
 Alpha virt. eigenvalues --    2.80439   2.80525   2.80952   2.81092   2.81425
 Alpha virt. eigenvalues --    2.81866   2.82273   2.82290   2.82606   2.83696
 Alpha virt. eigenvalues --    2.83733   2.84042   2.84243   2.84491   2.84754
 Alpha virt. eigenvalues --    2.84825   2.85161   2.85608   2.85894   2.86897
 Alpha virt. eigenvalues --    2.86946   2.87419   2.87574   2.88119   2.88429
 Alpha virt. eigenvalues --    2.88450   2.88844   2.88893   2.89120   2.90391
 Alpha virt. eigenvalues --    2.90865   2.91132   2.91349   2.93082   2.93563
 Alpha virt. eigenvalues --    2.94005   2.94158   2.94499   2.94766   2.95224
 Alpha virt. eigenvalues --    2.95647   2.96092   2.96137   2.96333   2.96640
 Alpha virt. eigenvalues --    2.97091   2.97185   2.97747   2.98130   2.98205
 Alpha virt. eigenvalues --    2.98327   2.98549   2.98623   2.98831   2.98862
 Alpha virt. eigenvalues --    2.99066   2.99162   2.99502   2.99955   3.00001
 Alpha virt. eigenvalues --    3.00164   3.00301   3.00413   3.00522   3.01263
 Alpha virt. eigenvalues --    3.01901   3.01981   3.02115   3.02329   3.02691
 Alpha virt. eigenvalues --    3.02913   3.03058   3.03236   3.03512   3.03858
 Alpha virt. eigenvalues --    3.04217   3.04396   3.04451   3.04553   3.04825
 Alpha virt. eigenvalues --    3.05021   3.05245   3.05548   3.06081   3.06503
 Alpha virt. eigenvalues --    3.06832   3.07218   3.08018   3.08213   3.09431
 Alpha virt. eigenvalues --    3.09636   3.09789   3.10349   3.10596   3.11018
 Alpha virt. eigenvalues --    3.11275   3.11753   3.11846   3.11978   3.12503
 Alpha virt. eigenvalues --    3.12621   3.13296   3.13572   3.13875   3.13899
 Alpha virt. eigenvalues --    3.14119   3.14780   3.15834   3.16236   3.17238
 Alpha virt. eigenvalues --    3.17810   3.18032   3.18096   3.19079   3.19261
 Alpha virt. eigenvalues --    3.22273   3.22898   3.23898   3.24668   3.24730
 Alpha virt. eigenvalues --    3.25530   3.26454   3.26907   3.27564   3.27653
 Alpha virt. eigenvalues --    3.29105   3.29533   3.31471   3.31638   3.33359
 Alpha virt. eigenvalues --    3.33418   3.40538   3.40639   3.42774   3.43015
 Alpha virt. eigenvalues --    3.48636   3.49006   3.49960   3.50511   3.51069
 Alpha virt. eigenvalues --    3.51414   3.56502   3.57244   3.59037   3.59560
 Alpha virt. eigenvalues --    3.62776   3.62829   3.66163   3.66298   3.67186
 Alpha virt. eigenvalues --    3.67843   3.73303   3.74364   3.76112   3.77037
          Condensed to atoms (all electrons):
 Mulliken charges:
               1
     1  Mg   0.838671
     2  C   -0.003439
     3  C   -0.095217
     4  C   -0.045298
     5  C   -0.064008
     6  N   -0.256551
     7  C   -0.053386
     8  C   -0.013380
     9  C   -0.086845
    10  C    0.045933
    11  C    0.104787
    12  C    0.050530
    13  C   -0.071135
    14  H    0.034288
    15  N   -0.433275
    16  C    0.168297
    17  C   -0.177848
    18  C   -0.003692
    19  C    0.149062
    20  C    0.110372
    21  C    0.013255
    22  O   -0.248725
    23  C    0.062465
    24  N   -0.340944
    25  C    0.041052
    26  C   -0.028675
    27  C   -0.024031
    28  C    0.074739
    29  C    0.076042
    30  C    0.035932
    31  C   -0.010326
    32  N   -0.310719
    33  C    0.080775
    34  C   -0.169716
    35  C    0.009197
    36  C    0.083343
    37  C    0.126983
    38  C    0.047262
    39  O   -0.186061
    40  C   -0.006122
    41  C    0.214551
    42  O   -0.257986
    43  O   -0.304930
    44  C    0.156339
    45  H   -0.017900
    46  H   -0.016452
    47  H   -0.041550
    48  H    0.001573
    49  H   -0.004983
    50  H    0.025870
    51  H    0.016845
    52  H    0.016620
    53  H    0.010517
    54  H    0.044456
    55  H    0.019332
    56  H    0.016990
    57  H    0.005244
    58  H    0.027201
    59  H    0.038021
    60  H    0.036982
    61  H    0.036620
    62  H    0.030529
    63  H    0.016901
    64  H    0.009925
    65  H    0.023546
    66  H    0.012773
    67  H    0.004891
    68  H    0.006429
    69  H    0.004514
    70  H    0.012004
    71  H    0.017005
    72  H    0.031482
    73  H    0.048943
    74  H    0.008637
    75  H    0.046361
    76  H    0.035339
    77  H    0.044174
    78  H    0.044816
    79  H    0.056167
    80  Mg   0.836385
    81  C   -0.014750
    82  C   -0.088234
    83  C   -0.045409
    84  C   -0.065791
    85  N   -0.254443
    86  C   -0.048277
    87  C   -0.014872
    88  C   -0.091773
    89  C    0.045415
    90  C    0.110882
    91  C    0.062760
    92  C   -0.076895
    93  H    0.033979
    94  N   -0.423337
    95  C    0.162457
    96  C   -0.176196
    97  C   -0.008238
    98  C    0.151473
    99  C    0.100134
   100  C    0.015044
   101  O   -0.253512
   102  C    0.061539
   103  N   -0.350386
   104  C    0.037313
   105  C   -0.020453
   106  C   -0.034894
   107  C    0.089704
   108  C    0.073092
   109  C    0.034632
   110  C   -0.007320
   111  N   -0.324929
   112  C    0.079527
   113  C   -0.162453
   114  C    0.005425
   115  C    0.095203
   116  C    0.130585
   117  C    0.047393
   118  O   -0.185333
   119  C   -0.002361
   120  C    0.209964
   121  O   -0.252613
   122  O   -0.304280
   123  C    0.152430
   124  H   -0.022194
   125  H   -0.015903
   126  H   -0.041522
   127  H    0.001746
   128  H   -0.006251
   129  H    0.032008
   130  H    0.013397
   131  H    0.011750
   132  H    0.013273
   133  H    0.037826
   134  H    0.019748
   135  H    0.018477
   136  H    0.007199
   137  H    0.023721
   138  H    0.038935
   139  H    0.037120
   140  H    0.035749
   141  H    0.033427
   142  H    0.013766
   143  H    0.011545
   144  H    0.024355
   145  H    0.013862
   146  H    0.004839
   147  H    0.005470
   148  H    0.002886
   149  H    0.010798
   150  H    0.017379
   151  H    0.030609
   152  H    0.045800
   153  H    0.006490
   154  H    0.050684
   155  H    0.049021
   156  H    0.043096
   157  H    0.047975
   158  H    0.052944
 Sum of Mulliken charges =  -0.00000
 Mulliken charges with hydrogens summed into heavy atoms:
               1
     1  Mg   0.838671
     2  C   -0.003439
     3  C   -0.113117
     4  C   -0.061751
     5  C   -0.105558
     6  N   -0.256551
     7  C   -0.053386
     8  C   -0.011807
     9  C   -0.091827
    10  C    0.045933
    11  C    0.164123
    12  C    0.105503
    13  C   -0.000525
    15  N   -0.433275
    16  C    0.168297
    17  C   -0.177848
    18  C   -0.003692
    19  C    0.149062
    20  C    0.180838
    21  C    0.013255
    22  O   -0.248725
    23  C    0.166597
    24  N   -0.340944
    25  C    0.041052
    26  C   -0.011774
    27  C   -0.014105
    28  C    0.074739
    29  C    0.117252
    30  C    0.046875
    31  C    0.050164
    32  N   -0.310719
    33  C    0.080775
    34  C   -0.169716
    35  C    0.009197
    36  C    0.083343
    37  C    0.230924
    38  C    0.047262
    39  O   -0.186061
    40  C    0.029218
    41  C    0.214551
    42  O   -0.257986
    43  O   -0.304930
    44  C    0.301496
    80  Mg   0.836385
    81  C   -0.014750
    82  C   -0.110428
    83  C   -0.061313
    84  C   -0.107312
    85  N   -0.254443
    86  C   -0.048277
    87  C   -0.013127
    88  C   -0.098024
    89  C    0.045415
    90  C    0.168037
    91  C    0.113859
    92  C   -0.004691
    94  N   -0.423337
    95  C    0.162457
    96  C   -0.176196
    97  C   -0.008238
    98  C    0.151473
    99  C    0.169990
   100  C    0.015044
   101  O   -0.253512
   102  C    0.167835
   103  N   -0.350386
   104  C    0.037313
   105  C   -0.006687
   106  C   -0.023349
   107  C    0.089704
   108  C    0.116149
   109  C    0.042989
   110  C    0.051466
   111  N   -0.324929
   112  C    0.079527
   113  C   -0.162453
   114  C    0.005425
   115  C    0.095203
   116  C    0.233558
   117  C    0.047393
   118  O   -0.185333
   119  C    0.046660
   120  C    0.209964
   121  O   -0.252613
   122  O   -0.304280
   123  C    0.296444
 Electronic spatial extent (au):  <R**2>=          86816.1088
 Charge=             -0.0000 electrons
 Dipole moment (field-independent basis, Debye):
    X=             -3.5781    Y=             -2.2829    Z=             -7.3670  Tot=              8.5022
 Quadrupole moment (field-independent basis, Debye-Ang):
   XX=           -515.0316   YY=           -550.6829   ZZ=           -449.7332
   XY=              3.0881   XZ=              2.2613   YZ=            -47.8876
 Traceless Quadrupole moment (field-independent basis, Debye-Ang):
   XX=             -9.8824   YY=            -45.5336   ZZ=             55.4160
   XY=              3.0881   XZ=              2.2613   YZ=            -47.8876
 Octapole moment (field-independent basis, Debye-Ang**2):
  XXX=           -170.8106  YYY=            424.0658  ZZZ=            -75.5163  XYY=            -43.6889
  XXY=            -14.5546  XXZ=           -147.6594  XZZ=              9.8847  YZZ=           -219.2048
  YYZ=           -200.4785  XYZ=             14.0484
 Hexadecapole moment (field-independent basis, Debye-Ang**3):
 XXXX=         -51698.1321 YYYY=         -42216.6236 ZZZZ=         -23814.4667 XXXY=            -23.0086
 XXXZ=            -29.9258 YYYX=            703.9344 YYYZ=          -1614.8830 ZZZX=             79.1174
 ZZZY=            255.0382 XXYY=         -16479.3565 XXZZ=         -11609.1670 YYZZ=         -10937.6905
 XXYZ=           -559.3281 YYXZ=            -99.2604 ZZXY=            -38.5025
 N-N= 1.598708037041D+04 E-N=-4.145557461801D+04  KE= 4.028795110792D+03
 Leave Link  601 at Thu Sep  9 07:10:07 2021, MaxMem= 23488102400 cpu:              15.9 elap:               0.8
 (Enter /sw/apps/gaussian-16.0/g16/l9999.exe)
 1\1\GINC-BP1-COMPUTE00107\SP\RCAM-B3LYP TD-FC\def2SVP\C68H72Mg2N8O8\OF
 15641\09-Sep-2021\0\\#p cam-b3lyp/Def2SVP td=(nstates=5)\\TDDFT excite
 d states in gaussian\\0,1\Mg,0,0.,0.,0.\C,0,-0.217,-2.218,2.801\C,0,-1
 .255,2.442,2.026\C,0,-0.245,1.85,-2.564\C,0,0.146,-2.824,-2.037\N,0,-0
 .617,-0.009,2.126\C,0,-0.594,-0.908,3.105\C,0,-0.936,-0.309,4.502\C,0,
 -1.773,0.964,4.032\C,0,-1.155,1.168,2.66\C,0,-3.263,0.685,3.863\C,0,0.
 345,0.11,5.299\C,0,0.124,0.397,6.787\H,0,1.168,0.033,7.733\N,0,-0.185,
 1.961,-0.152\C,0,-0.703,2.8,0.777\C,0,-0.62,4.156,0.193\C,0,-0.187,4.0
 15,-1.225\C,0,-0.214,2.583,-1.38\C,0,-0.887,5.406,0.974\C,0,0.181,5.01
 3,-2.277\O,0,0.303,4.69,-3.508\C,0,0.31,6.414,-1.837\N,0,-0.265,-0.413
 ,-2.029\C,0,-0.279,0.569,-2.937\C,0,-0.196,0.024,-4.332\C,0,0.124,-1.5
 33,-4.18\C,0,0.086,-1.632,-2.635\C,0,-1.451,0.205,-5.197\C,0,1.373,-2.
 07,-4.923\C,0,2.626,-1.49,-4.306\N,0,0.15,-2.144,0.303\C,0,0.173,-3.13
 6,-0.688\C,0,0.173,-4.438,0.004\C,0,0.133,-4.111,1.358\C,0,0.083,-2.69
 5,1.502\C,0,0.149,-5.715,-0.623\C,0,0.096,-4.629,2.716\O,0,0.208,-5.74
 7,3.221\C,0,-0.255,-3.428,3.701\C,0,0.717,-3.482,4.848\O,0,1.931,-3.25
 5,4.669\O,0,0.038,-3.556,6.003\C,0,0.943,-3.583,7.183\H,0,-1.859,3.22,
 2.497\H,0,-0.218,2.453,-3.474\H,0,0.276,-3.747,-2.605\H,0,-1.554,-0.94
 9,5.132\H,0,-1.585,1.831,4.665\H,0,-3.484,-0.377,3.969\H,0,-3.511,1.02
 7,2.858\H,0,-3.852,1.301,4.543\H,0,0.669,1.096,4.966\H,0,1.13,-0.639,5
 .189\H,0,-0.844,0.026,7.125\H,0,0.062,1.477,6.921\H,0,-1.344,5.186,1.9
 38\H,0,-1.651,5.963,0.432\H,0,0.007,6.02,1.084\H,0,-0.635,6.744,-1.405
 \H,0,0.665,6.97,-2.704\H,0,1.048,6.466,-1.036\H,0,0.608,0.501,-4.891\H
 ,0,-0.692,-2.156,-4.547\H,0,-1.267,0.74,-6.129\H,0,-2.204,0.714,-4.596
 \H,0,-1.967,-0.72,-5.453\H,0,1.356,-1.759,-5.967\H,0,1.452,-3.157,-4.9
 02\H,0,2.714,-0.522,-4.798\H,0,3.487,-2.121,-4.529\H,0,2.495,-1.303,-3
 .24\H,0,0.867,-6.333,-0.084\H,0,0.404,-5.642,-1.68\H,0,-0.891,-5.999,-
 0.463\H,0,-1.283,-3.581,4.028\H,0,0.698,-4.478,7.755\H,0,0.833,-2.619,
 7.68\H,0,2.,-3.754,6.976\Mg,0,7.88995,0.71371,0.6059\C,0,7.35577,-1.49
 127,3.38651\C,0,6.92362,3.27372,2.64236\C,0,7.91626,2.61337,-1.93536\C
 ,0,7.70127,-2.08089,-1.46783\N,0,7.24688,0.75934,2.72171\C,0,7.14184,-
 0.13188,3.6959\C,0,6.86624,0.47644,5.09717\C,0,6.19527,1.85908,4.63135
 \C,0,6.85166,1.99929,3.25942\C,0,4.69167,1.76184,4.43375\C,0,8.18459,0
 .72338,5.9114\C,0,7.97595,1.02437,7.39721\H,0,8.95952,0.52392,8.35356\
 N,0,7.95778,2.69332,0.48294\C,0,7.54413,3.58094,1.41154\C,0,7.78966,4.
 91141,0.83386\C,0,8.22906,4.73632,-0.57717\C,0,8.02699,3.31071,-0.7412
 1\C,0,7.67986,6.17798,1.63209\C,0,8.73389,5.69558,-1.61214\O,0,8.83156
 ,5.36442,-2.84649\C,0,9.02203,7.06253,-1.15398\N,0,7.60865,0.35831,-1.
 42312\C,0,7.725,1.35181,-2.32163\C,0,7.75483,0.81153,-3.73146\C,0,7.87
 812,-0.77581,-3.58072\C,0,7.80522,-0.89033,-2.04223\C,0,6.54158,1.1474
 5,-4.5984\C,0,9.06005,-1.46306,-4.31789\C,0,10.37124,-1.04709,-3.69088
 \N,0,7.77065,-1.42537,0.88548\C,0,7.67455,-2.41289,-0.11933\C,0,7.5018
 2,-3.71215,0.56224\C,0,7.48622,-3.38504,1.92651\C,0,7.6182,-1.97881,2.
 08337\C,0,7.33591,-4.97221,-0.07873\C,0,7.37744,-3.90846,3.26923\O,0,7
 .33446,-5.03519,3.76154\C,0,7.16114,-2.69242,4.26967\C,0,8.10404,-2.87
 055,5.428\O,0,9.33423,-2.80673,5.25717\O,0,7.39921,-2.86943,6.57411\C,
 0,8.29189,-3.03226,7.75243\H,0,6.4213,4.11276,3.12461\H,0,8.03051,3.21
 1,-2.8427\H,0,7.73314,-3.01017,-2.04062\H,0,6.17117,-0.08685,5.70821\H
 ,0,6.48981,2.67951,5.28059\H,0,4.33818,0.74556,4.52526\H,0,4.50069,2.1
 4063,3.43821\H,0,4.17671,2.44149,5.11874\H,0,8.63242,1.67205,5.58859\H
 ,0,8.86062,-0.10216,5.80139\H,0,6.95922,0.78039,7.72839\H,0,8.05482,2.
 10389,7.54699\H,0,7.17871,6.00592,2.59263\H,0,7.00066,6.84194,1.08646\
 H,0,8.64087,6.68129,1.75778\H,0,8.12153,7.49768,-0.72712\H,0,9.45635,7
 .57394,-2.0152\H,0,9.76072,7.01237,-0.34624\H,0,8.61907,1.18165,-4.269
 23\H,0,6.99167,-1.29277,-3.97668\H,0,6.8065,1.67413,-5.53461\H,0,5.855
 01,1.74096,-4.00942\H,0,5.9261,0.29525,-4.88149\H,0,9.09722,-1.13702,-
 5.36023\H,0,8.99584,-2.54604,-4.3213\H,0,10.58129,-0.08714,-4.17199\H,
 0,11.14868,-1.77646,-3.90917\H,0,10.25202,-0.85879,-2.61758\H,0,7.9568
 9,-5.67804,0.45669\H,0,7.6069,-4.92163,-1.13124\H,0,6.2622,-5.12269,0.
 06192\H,0,6.11724,-2.70948,4.58519\H,0,7.92525,-3.89712,8.31392\H,0,8.
 2838,-2.05497,8.27067\H,0,9.31971,-3.32112,7.56643\\Version=ES64L-G16R
 evA.03\State=1-A\HF=-4069.8113614\RMSD=6.188e-09\PG=C01 [X(C68H72Mg2N8
 O8)]\\@


 ONLY A FOOL KNOWS EVERYTHING.

               -- THE CHEMIST ANALYST, SEPTEMBER 1946
 Job cpu time:       0 days 15 hours 50 minutes 30.0 seconds.
 Elapsed time:       0 days  0 hours 40 minutes 20.6 seconds.
 File lengths (MBytes):  RWF=  13225 Int=      0 D2E=      0 Chk=    574 Scr=      1
 Normal termination of Gaussian 16 at Thu Sep  9 07:10:08 2021.
