 Entering Gaussian System, Link 0=g16
 Initial command:
 /sw/apps/gaussian-16.0/g16/l1.exe "/tmp/Gau-64773.inp" -scrdir="/tmp/"
 Entering Link 1 = /sw/apps/gaussian-16.0/g16/l1.exe PID=     64774.
  
 Copyright (c) 1988,1990,1992,1993,1995,1998,2003,2009,2016,
            Gaussian, Inc.  All Rights Reserved.
  
 This is part of the Gaussian(R) 16 program.  It is based on
 the Gaussian(R) 09 system (copyright 2009, Gaussian, Inc.),
 the Gaussian(R) 03 system (copyright 2003, Gaussian, Inc.),
 the Gaussian(R) 98 system (copyright 1998, Gaussian, Inc.),
 the Gaussian(R) 94 system (copyright 1995, Gaussian, Inc.),
 the Gaussian 92(TM) system (copyright 1992, Gaussian, Inc.),
 the Gaussian 90(TM) system (copyright 1990, Gaussian, Inc.),
 the Gaussian 88(TM) system (copyright 1988, Gaussian, Inc.),
 the Gaussian 86(TM) system (copyright 1986, Carnegie Mellon
 University), and the Gaussian 82(TM) system (copyright 1983,
 Carnegie Mellon University). Gaussian is a federally registered
 trademark of Gaussian, Inc.
  
 This software contains proprietary and confidential information,
 including trade secrets, belonging to Gaussian, Inc.
  
 This software is provided under written license and may be
 used, copied, transmitted, or stored only in accord with that
 written license.
  
 The following legend is applicable only to US Government
 contracts under FAR:
  
                    RESTRICTED RIGHTS LEGEND
  
 Use, reproduction and disclosure by the US Government is
 subject to restrictions as set forth in subparagraphs (a)
 and (c) of the Commercial Computer Software - Restricted
 Rights clause in FAR 52.227-19.
  
 Gaussian, Inc.
 340 Quinnipiac St., Bldg. 40, Wallingford CT 06492
  
  
 ---------------------------------------------------------------
 Warning -- This program may not be used in any manner that
 competes with the business of Gaussian, Inc. or will provide
 assistance to any competitor of Gaussian, Inc.  The licensee
 of this program is prohibited from giving any competitor of
 Gaussian, Inc. access to this program.  By using this program,
 the user acknowledges that Gaussian, Inc. is engaged in the
 business of creating and licensing software in the field of
 computational chemistry and represents and warrants to the
 licensee that it is not a competitor of Gaussian, Inc. and that
 it will not use this program in any manner prohibited above.
 ---------------------------------------------------------------
  

 Cite this work as:
 Gaussian 16, Revision A.03,
 M. J. Frisch, G. W. Trucks, H. B. Schlegel, G. E. Scuseria, 
 M. A. Robb, J. R. Cheeseman, G. Scalmani, V. Barone, 
 G. A. Petersson, H. Nakatsuji, X. Li, M. Caricato, A. V. Marenich, 
 J. Bloino, B. G. Janesko, R. Gomperts, B. Mennucci, H. P. Hratchian, 
 J. V. Ortiz, A. F. Izmaylov, J. L. Sonnenberg, D. Williams-Young, 
 F. Ding, F. Lipparini, F. Egidi, J. Goings, B. Peng, A. Petrone, 
 T. Henderson, D. Ranasinghe, V. G. Zakrzewski, J. Gao, N. Rega, 
 G. Zheng, W. Liang, M. Hada, M. Ehara, K. Toyota, R. Fukuda, 
 J. Hasegawa, M. Ishida, T. Nakajima, Y. Honda, O. Kitao, H. Nakai, 
 T. Vreven, K. Throssell, J. A. Montgomery, Jr., J. E. Peralta, 
 F. Ogliaro, M. J. Bearpark, J. J. Heyd, E. N. Brothers, K. N. Kudin, 
 V. N. Staroverov, T. A. Keith, R. Kobayashi, J. Normand, 
 K. Raghavachari, A. P. Rendell, J. C. Burant, S. S. Iyengar, 
 J. Tomasi, M. Cossi, J. M. Millam, M. Klene, C. Adamo, R. Cammi, 
 J. W. Ochterski, R. L. Martin, K. Morokuma, O. Farkas, 
 J. B. Foresman, and D. J. Fox, Gaussian, Inc., Wallingford CT, 2016.
 
 ******************************************
 Gaussian 16:  ES64L-G16RevA.03 25-Dec-2016
                 3-Sep-2021 
 ******************************************
 %nproc=24
 Will use up to   24 processors via shared memory.
 %mem=175gb
 -----------------------------------
 #p cam-b3lyp/Def2SVP td=(nstates=5)
 -----------------------------------
 1/38=1,172=1/1;
 2/12=2,17=6,18=5,40=1/2;
 3/5=43,7=101,11=9,25=1,30=1,74=-40/1,2,3,8;
 4//1;
 5/5=2,38=5/2;
 8/6=1,10=1,108=5/1;
 9/41=5,42=1,70=2/14;
 6/7=2,8=2,9=2,10=2/1;
 99/5=1,9=1/99;
 Leave Link    1 at Fri Sep  3 23:50:32 2021, MaxMem= 23488102400 cpu:               0.5 elap:               0.0
 (Enter /sw/apps/gaussian-16.0/g16/l101.exe)
 --------------------------------
 TDDFT excited states in gaussian
 --------------------------------
 Symbolic Z-matrix:
 Charge =  0 Multiplicity = 1
 Mg                    0.        0.        0. 
 C                    -0.217    -2.218     2.801 
 C                    -1.255     2.442     2.026 
 C                    -0.245     1.85     -2.564 
 C                     0.146    -2.824    -2.037 
 N                    -0.617    -0.009     2.126 
 C                    -0.594    -0.908     3.105 
 C                    -0.936    -0.309     4.502 
 C                    -1.773     0.964     4.032 
 C                    -1.155     1.168     2.66 
 C                    -3.263     0.685     3.863 
 C                     0.345     0.11      5.299 
 C                     0.124     0.397     6.787 
 H                     1.168     0.033     7.733 
 N                    -0.185     1.961    -0.152 
 C                    -0.703     2.8       0.777 
 C                    -0.62      4.156     0.193 
 C                    -0.187     4.015    -1.225 
 C                    -0.214     2.583    -1.38 
 C                    -0.887     5.406     0.974 
 C                     0.181     5.013    -2.277 
 O                     0.303     4.69     -3.508 
 C                     0.31      6.414    -1.837 
 N                    -0.265    -0.413    -2.029 
 C                    -0.279     0.569    -2.937 
 C                    -0.196     0.024    -4.332 
 C                     0.124    -1.533    -4.18 
 C                     0.086    -1.632    -2.635 
 C                    -1.451     0.205    -5.197 
 C                     1.373    -2.07     -4.923 
 C                     2.626    -1.49     -4.306 
 N                     0.15     -2.144     0.303 
 C                     0.173    -3.136    -0.688 
 C                     0.173    -4.438     0.004 
 C                     0.133    -4.111     1.358 
 C                     0.083    -2.695     1.502 
 C                     0.149    -5.715    -0.623 
 C                     0.096    -4.629     2.716 
 O                     0.208    -5.747     3.221 
 C                    -0.255    -3.428     3.701 
 C                     0.717    -3.482     4.848 
 O                     1.931    -3.255     4.669 
 O                     0.038    -3.556     6.003 
 C                     0.943    -3.583     7.183 
 H                    -1.859     3.22      2.497 
 H                    -0.218     2.453    -3.474 
 H                     0.276    -3.747    -2.605 
 H                    -1.554    -0.949     5.132 
 H                    -1.585     1.831     4.665 
 H                    -3.484    -0.377     3.969 
 H                    -3.511     1.027     2.858 
 H                    -3.852     1.301     4.543 
 H                     0.669     1.096     4.966 
 H                     1.13     -0.639     5.189 
 H                    -0.844     0.026     7.125 
 H                     0.062     1.477     6.921 
 H                    -1.344     5.186     1.938 
 H                    -1.651     5.963     0.432 
 H                     0.007     6.02      1.084 
 H                    -0.635     6.744    -1.405 
 H                     0.665     6.97     -2.704 
 H                     1.048     6.466    -1.036 
 H                     0.608     0.501    -4.891 
 H                    -0.692    -2.156    -4.547 
 H                    -1.267     0.74     -6.129 
 H                    -2.204     0.714    -4.596 
 H                    -1.967    -0.72     -5.453 
 H                     1.356    -1.759    -5.967 
 H                     1.452    -3.157    -4.902 
 H                     2.714    -0.522    -4.798 
 H                     3.487    -2.121    -4.529 
 H                     2.495    -1.303    -3.24 
 H                     0.867    -6.333    -0.084 
 H                     0.404    -5.642    -1.68 
 H                    -0.891    -5.999    -0.463 
 H                    -1.283    -3.581     4.028 
 H                     0.698    -4.478     7.755 
 H                     0.833    -2.619     7.68 
 H                     2.       -3.754     6.976 
 Mg                    8.9414    0.80012   0.68524 
 C                     9.13183  -2.55251  -0.58074 
 C                     7.95268  -0.53947   3.66224 
 C                     8.3306    3.7456    1.69442 
 C                     8.825     1.89408  -2.62163 
 N                     8.62136  -1.29018   1.33368 
 C                     8.78456  -2.48444   0.78462 
 C                     8.64159  -3.67211   1.77385 
 C                     7.72774  -2.95359   2.88177 
 C                     8.14679  -1.5046    2.64198 
 C                     6.23863  -3.07253   2.60295 
 C                     10.02109  -4.12207   2.37093 
 C                     9.99792  -5.4667    3.10113 
 H                     11.17185  -6.33013   3.00709 
 N                     8.72163   1.50709   2.52656 
 C                     8.33506   0.81938   3.6215 
 C                     8.30926   1.79581   4.72154 
 C                     8.55259   3.14944   4.15303 
 C                     8.52306   2.84924   2.7356 
 C                     8.14955   1.39707   6.15991 
 C                     8.76269   4.494     4.78087 
 O                     8.71881   5.57346   4.09118 
 C                     8.92839   4.51681   6.24153 
 N                     8.41093   2.54871  -0.30641 
 C                     8.25627   3.70394   0.36399 
 C                     8.14802   4.87445  -0.58396 
 C                     8.50608   4.29124  -2.02938 
 C                     8.67994   2.80051  -1.66481 
 C                     6.78474   5.56368  -0.63697 
 C                     9.64664   4.9989   -2.81105 
 C                     10.9683   4.77278  -2.11284 
 N                     9.15574  -0.10994  -1.26256 
 C                     9.04515   0.52652  -2.51825 
 C                     9.15356  -0.52491  -3.55033 
 C                     9.29778  -1.71242  -2.81718 
 C                     9.26021  -1.42401  -1.42617 
 C                     9.06581  -0.32245  -4.95654 
 C                     9.46259  -3.14562  -2.90363 
 O                     9.64647  -3.94515  -3.82052 
 C                     9.23561  -3.76845  -1.459 
 C                     10.35627  -4.73459  -1.18841 
 O                     11.52707  -4.32984  -1.07874 
 O                     9.83693  -5.93921  -0.88919 
 C                     10.90931  -6.92885  -0.60208 
 H                     7.41916  -0.83876   4.56483 
 H                     8.22613   4.79292   1.98714 
 H                     8.89641   2.16562  -3.67702 
 H                     8.12826  -4.5379    1.37299 
 H                     8.00219  -3.26883   3.88509 
 H                     6.04358  -3.52059   1.63997 
 H                     5.85164  -2.06247   2.63564 
 H                     5.74458  -3.61105   3.41674 
 H                     10.28316  -3.45941   3.20576 
 H                     10.77852  -4.13629   1.61151 
 H                     9.08452  -6.03547   2.88862 
 H                     9.95148  -5.27699   4.17625 
 H                     7.82543   0.35332   6.25439 
 H                     7.31296   1.97873   6.56198 
 H                     9.04152   1.60271   6.75554 
 H                     8.05125   4.07826   6.71137 
 H                     9.15598   5.55436   6.49365 
 H                     9.77935   3.87965   6.50708 
 H                     8.86413   5.64601  -0.32907 
 H                     7.64862   4.34892  -2.71588 
 H                     6.83313   6.64499  -0.40784 
 H                     6.11991   5.05857   0.05108 
 H                     6.25491   5.46709  -1.58309 
 H                     9.48326   6.07931  -2.82388 
 H                     9.72978   4.67349  -3.84264 
 H                     10.97229   5.54366  -1.33644 
 H                     11.79587   4.90693  -2.80651 
 H                     10.98634   3.79872  -1.61032 
 H                     9.84953  -0.91747  -5.40626 
 H                     9.1672    0.72983  -5.21382 
 H                     8.0555   -0.69551  -5.14463 
 H                     8.26256  -4.26112  -1.46384 
 H                     10.75107  -7.7761   -1.27648 
 H                     10.84655  -7.13079   0.48375 
 H                     11.92735  -6.65018  -0.84783 
 
 ITRead=  0  0  0  0  0  0  0  0  0  0  0  0  0  0  0  0  0  0  0  0
 ITRead=  0  0  0  0  0  0  0  0  0  0  0  0  0  0  0  0  0  0  0  0
 ITRead=  0  0  0  0  0  0  0  0  0  0  0  0  0  0  0  0  0  0  0  0
 ITRead=  0  0  0  0  0  0  0  0  0  0  0  0  0  0  0  0  0  0  0  0
 ITRead=  0  0  0  0  0  0  0  0  0  0  0  0  0  0  0  0  0  0  0  0
 ITRead=  0  0  0  0  0  0  0  0  0  0  0  0  0  0  0  0  0  0  0  0
 ITRead=  0  0  0  0  0  0  0  0  0  0  0  0  0  0  0  0  0  0  0  0
 ITRead=  0  0  0  0  0  0  0  0  0  0  0  0  0  0  0  0  0  0
 MicOpt= -1 -1 -1 -1 -1 -1 -1 -1 -1 -1 -1 -1 -1 -1 -1 -1 -1 -1 -1 -1
 MicOpt= -1 -1 -1 -1 -1 -1 -1 -1 -1 -1 -1 -1 -1 -1 -1 -1 -1 -1 -1 -1
 MicOpt= -1 -1 -1 -1 -1 -1 -1 -1 -1 -1 -1 -1 -1 -1 -1 -1 -1 -1 -1 -1
 MicOpt= -1 -1 -1 -1 -1 -1 -1 -1 -1 -1 -1 -1 -1 -1 -1 -1 -1 -1 -1 -1
 MicOpt= -1 -1 -1 -1 -1 -1 -1 -1 -1 -1 -1 -1 -1 -1 -1 -1 -1 -1 -1 -1
 MicOpt= -1 -1 -1 -1 -1 -1 -1 -1 -1 -1 -1 -1 -1 -1 -1 -1 -1 -1 -1 -1
 MicOpt= -1 -1 -1 -1 -1 -1 -1 -1 -1 -1 -1 -1 -1 -1 -1 -1 -1 -1 -1 -1
 MicOpt= -1 -1 -1 -1 -1 -1 -1 -1 -1 -1 -1 -1 -1 -1 -1 -1 -1 -1
 NAtoms=    158 NQM=      158 NQMF=       0 NMMI=      0 NMMIF=      0
                NMic=       0 NMicF=      0.
                    Isotopes and Nuclear Properties:
 (Nuclear quadrupole moments (NQMom) in fm**2, nuclear magnetic moments (NMagM)
  in nuclear magnetons)

  Atom         1           2           3           4           5           6           7           8           9          10
 IAtWgt=          24          12          12          12          12          14          12          12          12          12
 AtmWgt=  23.9850450  12.0000000  12.0000000  12.0000000  12.0000000  14.0030740  12.0000000  12.0000000  12.0000000  12.0000000
 NucSpn=           0           0           0           0           0           2           0           0           0           0
 AtZEff=  -0.0000000  -0.0000000  -0.0000000  -0.0000000  -0.0000000  -0.0000000  -0.0000000  -0.0000000  -0.0000000  -0.0000000
 NQMom=    0.0000000   0.0000000   0.0000000   0.0000000   0.0000000   2.0440000   0.0000000   0.0000000   0.0000000   0.0000000
 NMagM=    0.0000000   0.0000000   0.0000000   0.0000000   0.0000000   0.4037610   0.0000000   0.0000000   0.0000000   0.0000000
 AtZNuc=  12.0000000   6.0000000   6.0000000   6.0000000   6.0000000   7.0000000   6.0000000   6.0000000   6.0000000   6.0000000

  Atom        11          12          13          14          15          16          17          18          19          20
 IAtWgt=          12          12          12           1          14          12          12          12          12          12
 AtmWgt=  12.0000000  12.0000000  12.0000000   1.0078250  14.0030740  12.0000000  12.0000000  12.0000000  12.0000000  12.0000000
 NucSpn=           0           0           0           1           2           0           0           0           0           0
 AtZEff=  -0.0000000  -0.0000000  -0.0000000  -0.0000000  -0.0000000  -0.0000000  -0.0000000  -0.0000000  -0.0000000  -0.0000000
 NQMom=    0.0000000   0.0000000   0.0000000   0.0000000   2.0440000   0.0000000   0.0000000   0.0000000   0.0000000   0.0000000
 NMagM=    0.0000000   0.0000000   0.0000000   2.7928460   0.4037610   0.0000000   0.0000000   0.0000000   0.0000000   0.0000000
 AtZNuc=   6.0000000   6.0000000   6.0000000   1.0000000   7.0000000   6.0000000   6.0000000   6.0000000   6.0000000   6.0000000

  Atom        21          22          23          24          25          26          27          28          29          30
 IAtWgt=          12          16          12          14          12          12          12          12          12          12
 AtmWgt=  12.0000000  15.9949146  12.0000000  14.0030740  12.0000000  12.0000000  12.0000000  12.0000000  12.0000000  12.0000000
 NucSpn=           0           0           0           2           0           0           0           0           0           0
 AtZEff=  -0.0000000  -0.0000000  -0.0000000  -0.0000000  -0.0000000  -0.0000000  -0.0000000  -0.0000000  -0.0000000  -0.0000000
 NQMom=    0.0000000   0.0000000   0.0000000   2.0440000   0.0000000   0.0000000   0.0000000   0.0000000   0.0000000   0.0000000
 NMagM=    0.0000000   0.0000000   0.0000000   0.4037610   0.0000000   0.0000000   0.0000000   0.0000000   0.0000000   0.0000000
 AtZNuc=   6.0000000   8.0000000   6.0000000   7.0000000   6.0000000   6.0000000   6.0000000   6.0000000   6.0000000   6.0000000

  Atom        31          32          33          34          35          36          37          38          39          40
 IAtWgt=          12          14          12          12          12          12          12          12          16          12
 AtmWgt=  12.0000000  14.0030740  12.0000000  12.0000000  12.0000000  12.0000000  12.0000000  12.0000000  15.9949146  12.0000000
 NucSpn=           0           2           0           0           0           0           0           0           0           0
 AtZEff=  -0.0000000  -0.0000000  -0.0000000  -0.0000000  -0.0000000  -0.0000000  -0.0000000  -0.0000000  -0.0000000  -0.0000000
 NQMom=    0.0000000   2.0440000   0.0000000   0.0000000   0.0000000   0.0000000   0.0000000   0.0000000   0.0000000   0.0000000
 NMagM=    0.0000000   0.4037610   0.0000000   0.0000000   0.0000000   0.0000000   0.0000000   0.0000000   0.0000000   0.0000000
 AtZNuc=   6.0000000   7.0000000   6.0000000   6.0000000   6.0000000   6.0000000   6.0000000   6.0000000   8.0000000   6.0000000

  Atom        41          42          43          44          45          46          47          48          49          50
 IAtWgt=          12          16          16          12           1           1           1           1           1           1
 AtmWgt=  12.0000000  15.9949146  15.9949146  12.0000000   1.0078250   1.0078250   1.0078250   1.0078250   1.0078250   1.0078250
 NucSpn=           0           0           0           0           1           1           1           1           1           1
 AtZEff=  -0.0000000  -0.0000000  -0.0000000  -0.0000000  -0.0000000  -0.0000000  -0.0000000  -0.0000000  -0.0000000  -0.0000000
 NQMom=    0.0000000   0.0000000   0.0000000   0.0000000   0.0000000   0.0000000   0.0000000   0.0000000   0.0000000   0.0000000
 NMagM=    0.0000000   0.0000000   0.0000000   0.0000000   2.7928460   2.7928460   2.7928460   2.7928460   2.7928460   2.7928460
 AtZNuc=   6.0000000   8.0000000   8.0000000   6.0000000   1.0000000   1.0000000   1.0000000   1.0000000   1.0000000   1.0000000

  Atom        51          52          53          54          55          56          57          58          59          60
 IAtWgt=           1           1           1           1           1           1           1           1           1           1
 AtmWgt=   1.0078250   1.0078250   1.0078250   1.0078250   1.0078250   1.0078250   1.0078250   1.0078250   1.0078250   1.0078250
 NucSpn=           1           1           1           1           1           1           1           1           1           1
 AtZEff=  -0.0000000  -0.0000000  -0.0000000  -0.0000000  -0.0000000  -0.0000000  -0.0000000  -0.0000000  -0.0000000  -0.0000000
 NQMom=    0.0000000   0.0000000   0.0000000   0.0000000   0.0000000   0.0000000   0.0000000   0.0000000   0.0000000   0.0000000
 NMagM=    2.7928460   2.7928460   2.7928460   2.7928460   2.7928460   2.7928460   2.7928460   2.7928460   2.7928460   2.7928460
 AtZNuc=   1.0000000   1.0000000   1.0000000   1.0000000   1.0000000   1.0000000   1.0000000   1.0000000   1.0000000   1.0000000

  Atom        61          62          63          64          65          66          67          68          69          70
 IAtWgt=           1           1           1           1           1           1           1           1           1           1
 AtmWgt=   1.0078250   1.0078250   1.0078250   1.0078250   1.0078250   1.0078250   1.0078250   1.0078250   1.0078250   1.0078250
 NucSpn=           1           1           1           1           1           1           1           1           1           1
 AtZEff=  -0.0000000  -0.0000000  -0.0000000  -0.0000000  -0.0000000  -0.0000000  -0.0000000  -0.0000000  -0.0000000  -0.0000000
 NQMom=    0.0000000   0.0000000   0.0000000   0.0000000   0.0000000   0.0000000   0.0000000   0.0000000   0.0000000   0.0000000
 NMagM=    2.7928460   2.7928460   2.7928460   2.7928460   2.7928460   2.7928460   2.7928460   2.7928460   2.7928460   2.7928460
 AtZNuc=   1.0000000   1.0000000   1.0000000   1.0000000   1.0000000   1.0000000   1.0000000   1.0000000   1.0000000   1.0000000

  Atom        71          72          73          74          75          76          77          78          79          80
 IAtWgt=           1           1           1           1           1           1           1           1           1          24
 AtmWgt=   1.0078250   1.0078250   1.0078250   1.0078250   1.0078250   1.0078250   1.0078250   1.0078250   1.0078250  23.9850450
 NucSpn=           1           1           1           1           1           1           1           1           1           0
 AtZEff=  -0.0000000  -0.0000000  -0.0000000  -0.0000000  -0.0000000  -0.0000000  -0.0000000  -0.0000000  -0.0000000  -0.0000000
 NQMom=    0.0000000   0.0000000   0.0000000   0.0000000   0.0000000   0.0000000   0.0000000   0.0000000   0.0000000   0.0000000
 NMagM=    2.7928460   2.7928460   2.7928460   2.7928460   2.7928460   2.7928460   2.7928460   2.7928460   2.7928460   0.0000000
 AtZNuc=   1.0000000   1.0000000   1.0000000   1.0000000   1.0000000   1.0000000   1.0000000   1.0000000   1.0000000  12.0000000

  Atom        81          82          83          84          85          86          87          88          89          90
 IAtWgt=          12          12          12          12          14          12          12          12          12          12
 AtmWgt=  12.0000000  12.0000000  12.0000000  12.0000000  14.0030740  12.0000000  12.0000000  12.0000000  12.0000000  12.0000000
 NucSpn=           0           0           0           0           2           0           0           0           0           0
 AtZEff=  -0.0000000  -0.0000000  -0.0000000  -0.0000000  -0.0000000  -0.0000000  -0.0000000  -0.0000000  -0.0000000  -0.0000000
 NQMom=    0.0000000   0.0000000   0.0000000   0.0000000   2.0440000   0.0000000   0.0000000   0.0000000   0.0000000   0.0000000
 NMagM=    0.0000000   0.0000000   0.0000000   0.0000000   0.4037610   0.0000000   0.0000000   0.0000000   0.0000000   0.0000000
 AtZNuc=   6.0000000   6.0000000   6.0000000   6.0000000   7.0000000   6.0000000   6.0000000   6.0000000   6.0000000   6.0000000

  Atom        91          92          93          94          95          96          97          98          99         100
 IAtWgt=          12          12           1          14          12          12          12          12          12          12
 AtmWgt=  12.0000000  12.0000000   1.0078250  14.0030740  12.0000000  12.0000000  12.0000000  12.0000000  12.0000000  12.0000000
 NucSpn=           0           0           1           2           0           0           0           0           0           0
 AtZEff=  -0.0000000  -0.0000000  -0.0000000  -0.0000000  -0.0000000  -0.0000000  -0.0000000  -0.0000000  -0.0000000  -0.0000000
 NQMom=    0.0000000   0.0000000   0.0000000   2.0440000   0.0000000   0.0000000   0.0000000   0.0000000   0.0000000   0.0000000
 NMagM=    0.0000000   0.0000000   2.7928460   0.4037610   0.0000000   0.0000000   0.0000000   0.0000000   0.0000000   0.0000000
 AtZNuc=   6.0000000   6.0000000   1.0000000   7.0000000   6.0000000   6.0000000   6.0000000   6.0000000   6.0000000   6.0000000

  Atom       101         102         103         104         105         106         107         108         109         110
 IAtWgt=          16          12          14          12          12          12          12          12          12          12
 AtmWgt=  15.9949146  12.0000000  14.0030740  12.0000000  12.0000000  12.0000000  12.0000000  12.0000000  12.0000000  12.0000000
 NucSpn=           0           0           2           0           0           0           0           0           0           0
 AtZEff=  -0.0000000  -0.0000000  -0.0000000  -0.0000000  -0.0000000  -0.0000000  -0.0000000  -0.0000000  -0.0000000  -0.0000000
 NQMom=    0.0000000   0.0000000   2.0440000   0.0000000   0.0000000   0.0000000   0.0000000   0.0000000   0.0000000   0.0000000
 NMagM=    0.0000000   0.0000000   0.4037610   0.0000000   0.0000000   0.0000000   0.0000000   0.0000000   0.0000000   0.0000000
 AtZNuc=   8.0000000   6.0000000   7.0000000   6.0000000   6.0000000   6.0000000   6.0000000   6.0000000   6.0000000   6.0000000

  Atom       111         112         113         114         115         116         117         118         119         120
 IAtWgt=          14          12          12          12          12          12          12          16          12          12
 AtmWgt=  14.0030740  12.0000000  12.0000000  12.0000000  12.0000000  12.0000000  12.0000000  15.9949146  12.0000000  12.0000000
 NucSpn=           2           0           0           0           0           0           0           0           0           0
 AtZEff=  -0.0000000  -0.0000000  -0.0000000  -0.0000000  -0.0000000  -0.0000000  -0.0000000  -0.0000000  -0.0000000  -0.0000000
 NQMom=    2.0440000   0.0000000   0.0000000   0.0000000   0.0000000   0.0000000   0.0000000   0.0000000   0.0000000   0.0000000
 NMagM=    0.4037610   0.0000000   0.0000000   0.0000000   0.0000000   0.0000000   0.0000000   0.0000000   0.0000000   0.0000000
 AtZNuc=   7.0000000   6.0000000   6.0000000   6.0000000   6.0000000   6.0000000   6.0000000   8.0000000   6.0000000   6.0000000

  Atom       121         122         123         124         125         126         127         128         129         130
 IAtWgt=          16          16          12           1           1           1           1           1           1           1
 AtmWgt=  15.9949146  15.9949146  12.0000000   1.0078250   1.0078250   1.0078250   1.0078250   1.0078250   1.0078250   1.0078250
 NucSpn=           0           0           0           1           1           1           1           1           1           1
 AtZEff=  -0.0000000  -0.0000000  -0.0000000  -0.0000000  -0.0000000  -0.0000000  -0.0000000  -0.0000000  -0.0000000  -0.0000000
 NQMom=    0.0000000   0.0000000   0.0000000   0.0000000   0.0000000   0.0000000   0.0000000   0.0000000   0.0000000   0.0000000
 NMagM=    0.0000000   0.0000000   0.0000000   2.7928460   2.7928460   2.7928460   2.7928460   2.7928460   2.7928460   2.7928460
 AtZNuc=   8.0000000   8.0000000   6.0000000   1.0000000   1.0000000   1.0000000   1.0000000   1.0000000   1.0000000   1.0000000

  Atom       131         132         133         134         135         136         137         138         139         140
 IAtWgt=           1           1           1           1           1           1           1           1           1           1
 AtmWgt=   1.0078250   1.0078250   1.0078250   1.0078250   1.0078250   1.0078250   1.0078250   1.0078250   1.0078250   1.0078250
 NucSpn=           1           1           1           1           1           1           1           1           1           1
 AtZEff=  -0.0000000  -0.0000000  -0.0000000  -0.0000000  -0.0000000  -0.0000000  -0.0000000  -0.0000000  -0.0000000  -0.0000000
 NQMom=    0.0000000   0.0000000   0.0000000   0.0000000   0.0000000   0.0000000   0.0000000   0.0000000   0.0000000   0.0000000
 NMagM=    2.7928460   2.7928460   2.7928460   2.7928460   2.7928460   2.7928460   2.7928460   2.7928460   2.7928460   2.7928460
 AtZNuc=   1.0000000   1.0000000   1.0000000   1.0000000   1.0000000   1.0000000   1.0000000   1.0000000   1.0000000   1.0000000

  Atom       141         142         143         144         145         146         147         148         149         150
 IAtWgt=           1           1           1           1           1           1           1           1           1           1
 AtmWgt=   1.0078250   1.0078250   1.0078250   1.0078250   1.0078250   1.0078250   1.0078250   1.0078250   1.0078250   1.0078250
 NucSpn=           1           1           1           1           1           1           1           1           1           1
 AtZEff=  -0.0000000  -0.0000000  -0.0000000  -0.0000000  -0.0000000  -0.0000000  -0.0000000  -0.0000000  -0.0000000  -0.0000000
 NQMom=    0.0000000   0.0000000   0.0000000   0.0000000   0.0000000   0.0000000   0.0000000   0.0000000   0.0000000   0.0000000
 NMagM=    2.7928460   2.7928460   2.7928460   2.7928460   2.7928460   2.7928460   2.7928460   2.7928460   2.7928460   2.7928460
 AtZNuc=   1.0000000   1.0000000   1.0000000   1.0000000   1.0000000   1.0000000   1.0000000   1.0000000   1.0000000   1.0000000

  Atom       151         152         153         154         155         156         157         158
 IAtWgt=           1           1           1           1           1           1           1           1
 AtmWgt=   1.0078250   1.0078250   1.0078250   1.0078250   1.0078250   1.0078250   1.0078250   1.0078250
 NucSpn=           1           1           1           1           1           1           1           1
 AtZEff=  -0.0000000  -0.0000000  -0.0000000  -0.0000000  -0.0000000  -0.0000000  -0.0000000  -0.0000000
 NQMom=    0.0000000   0.0000000   0.0000000   0.0000000   0.0000000   0.0000000   0.0000000   0.0000000
 NMagM=    2.7928460   2.7928460   2.7928460   2.7928460   2.7928460   2.7928460   2.7928460   2.7928460
 AtZNuc=   1.0000000   1.0000000   1.0000000   1.0000000   1.0000000   1.0000000   1.0000000   1.0000000
 Leave Link  101 at Fri Sep  3 23:50:33 2021, MaxMem= 23488102400 cpu:               2.9 elap:               0.2
 (Enter /sw/apps/gaussian-16.0/g16/l202.exe)
 Stoichiometry    C68H72Mg2N8O8
 Framework group  C1[X(C68H72Mg2N8O8)]
 Deg. of freedom   468
 Full point group                 C1      NOp   1
 Largest Abelian subgroup         C1      NOp   1
 Largest concise Abelian subgroup C1      NOp   1
                         Standard orientation:                         
 ---------------------------------------------------------------------
 Center     Atomic      Atomic             Coordinates (Angstroms)
 Number     Number       Type             X           Y           Z
 ---------------------------------------------------------------------
      1         12           0       -4.340878    0.463894   -0.920281
      2          6           0       -4.785495   -2.621201    0.839467
      3          6           0       -5.834271    2.016465    1.725917
      4          6           0       -4.371809    3.127897   -2.640384
      5          6           0       -3.942486   -1.420752   -3.824598
      6          7           0       -5.161175   -0.311807    0.983936
      7          6           0       -5.215797   -1.506989    1.563357
      8          6           0       -5.703530   -1.454964    3.042135
      9          6           0       -6.515661   -0.083887    2.991253
     10          6           0       -5.771424    0.597284    1.856334
     11          6           0       -7.976455   -0.255657    2.587423
     12          6           0       -4.514447   -1.379124    4.058040
     13          6           0       -4.884512   -1.652815    5.518690
     14          1           0       -3.930418   -2.355924    6.362901
     15          7           0       -4.548566    2.347376   -0.361523
     16          6           0       -5.170669    2.797061    0.754747
     17          6           0       -5.057878    4.271049    0.718458
     18          6           0       -4.486513    4.651273   -0.603308
     19          6           0       -4.470310    3.376056   -1.273336
     20          6           0       -5.423880    5.152942    1.872607
     21          6           0       -4.037661    5.958470   -1.175933
     22          8           0       -3.790369    6.106333   -2.421548
     23          6           0       -3.979443    7.098759   -0.243520
     24          7           0       -4.399407    0.826819   -2.975153
     25          6           0       -4.344350    2.073086   -3.457615
     26          6           0       -4.115593    2.075089   -4.940047
     27          6           0       -3.781473    0.565158   -5.337823
     28          6           0       -3.967423   -0.091741   -3.947796
     29          6           0       -5.283936    2.581957   -5.796826
     30          6           0       -2.455943    0.315655   -6.100146
     31          6           0       -1.280388    0.607664   -5.194663
     32          7           0       -4.179105   -1.644515   -1.409653
     33          6           0       -4.040551   -2.205239   -2.687568
     34          6           0       -4.082298   -3.669956   -2.523468
     35          6           0       -4.260019   -3.860543   -1.154550
     36          6           0       -4.351462   -2.594845   -0.508067
     37          6           0       -4.020294   -4.628259   -3.573346
     38          6           0       -4.418613   -4.838882   -0.090803
     39          8           0       -4.334346   -6.065908   -0.021533
     40          6           0       -4.887059   -4.075779    1.226033
     41          6           0       -4.030200   -4.562753    2.362676
     42          8           0       -2.809228   -4.307192    2.398473
     43          8           0       -4.816602   -5.042482    3.338368
     44          6           0       -4.030147   -5.515244    4.508897
     45          1           0       -6.496269    2.578512    2.387584
     46          1           0       -4.268346    4.021539   -3.259366
     47          1           0       -3.739897   -2.073951   -4.675328
     48          1           0       -6.367164   -2.270253    3.330783
     49          1           0       -6.407034    0.487874    3.912672
     50          1           0       -8.185888   -1.278745    2.275412
     51          1           0       -8.132304    0.434698    1.758198
     52          1           0       -8.640659    0.078903    3.384718
     53          1           0       -4.178985   -0.345468    4.142194
     54          1           0       -3.707973   -2.049463    3.758758
     55          1           0       -5.873322   -2.104843    5.601363
     56          1           0       -4.980351   -0.695882    6.031812
     57          1           0       -5.967966    4.603398    2.639756
     58          1           0       -6.142370    5.882889    1.500238
     59          1           0       -4.556976    5.668399    2.286265
     60          1           0       -4.968211    7.264179    0.184877
     61          1           0       -3.552851    7.927213   -0.807907
     62          1           0       -3.323898    6.841123    0.588846
     63          1           0       -3.270583    2.709486   -5.204477
     64          1           0       -4.545621    0.134025   -5.985030
     65          1           0       -5.020778    3.417642   -6.445735
     66          1           0       -6.101567    2.848731   -5.127794
     67          1           0       -5.754435    1.823972   -6.422531
     68          1           0       -2.377534    0.987412   -6.954278
     69          1           0       -2.358106   -0.704815   -6.470713
     70          1           0       -1.163967    1.686877   -5.287275
     71          1           0       -0.389619    0.087150   -5.547945
     72          1           0       -1.517948    0.393803   -4.152399
     73          1           0       -3.346093   -5.413065   -3.230560
     74          1           0       -3.665305   -4.177935   -4.500058
     75          1           0       -5.065162   -4.932936   -3.630611
     76          1           0       -5.938770   -4.319894    1.372434
     77          1           0       -4.311994   -6.553076    4.686947
     78          1           0       -4.206741   -4.798260    5.310865
     79          1           0       -2.954896   -5.617020    4.357845
     80         12           0        4.474307    0.801706    0.878823
     81          6           0        4.852358   -1.857764   -1.500965
     82          6           0        3.227487   -1.517026    3.047583
     83          6           0        3.710863    3.183654    2.830964
     84          6           0        4.658292    3.031883   -1.792908
     85          7           0        4.133748   -1.374969    0.682969
     86          6           0        4.372841   -2.288074   -0.246241
     87          6           0        4.157720   -3.752702    0.220842
     88          6           0        3.126693   -3.473700    1.420017
     89          6           0        3.538626   -2.045022    1.769109
     90          6           0        1.674321   -3.456365    0.973193
     91          6           0        5.481236   -4.413942    0.743388
     92          6           0        5.413557   -5.931901    0.924986
     93          1           0        6.607736   -6.721334    0.636544
     94          7           0        4.062931    0.789448    2.820262
     95          6           0        3.585359   -0.244429    3.544347
     96          6           0        3.433732    0.261949    4.917212
     97          6           0        3.704606    1.725268    4.910032
     98          6           0        3.818776    1.965218    3.485430
     99          6           0        3.142892   -0.632699    6.087010
    100          6           0        3.826383    2.742881    6.003558
    101          8           0        3.828595    4.000454    5.755894
    102          6           0        3.848940    2.226637    7.379962
    103          7           0        4.008564    2.800872    0.549041
    104          6           0        3.766946    3.633104    1.577109
    105          6           0        3.728409    5.071036    1.117450
    106          6           0        4.236517    5.051144   -0.398799
    107          6           0        4.403272    3.527625   -0.589842
    108          6           0        2.363504    5.755503    1.187586
    109          6           0        5.433548    5.975787   -0.752097
    110          6           0        6.685307    5.486817   -0.059695
    111          7           0        4.894595    0.664063   -1.236002
    112          6           0        4.894070    1.717754   -2.176111
    113          6           0        5.122767    1.115278   -3.505460
    114          6           0        5.218294   -0.260485   -3.247318
    115          6           0        5.040151   -0.500566   -1.858028
    116          6           0        5.168081    1.819840   -4.741444
    117          6           0        5.418728   -1.565251   -3.835630
    118          8           0        5.706407   -1.976817   -4.958841
    119          6           0        5.064725   -2.669523   -2.748590
    120          6           0        6.172487   -3.687044   -2.742328
    121          8           0        7.318954   -3.370990   -2.378536
    122          8           0        5.650204   -4.908348   -2.956788
    123          6           0        6.708778   -5.952939   -2.948544
    124          1           0        2.614774   -2.116536    3.721422
    125          1           0        3.557985    4.052831    3.474888
    126          1           0        4.826554    3.669552   -2.663395
    127          1           0        3.702791   -4.402625   -0.517012
    128          1           0        3.308501   -4.139002    2.260058
    129          1           0        1.582535   -3.517429   -0.101041
    130          1           0        1.266300   -2.521764    1.335260
    131          1           0        1.114189   -4.246656    1.481165
    132          1           0        5.647962   -4.107469    1.784069
    133          1           0        6.308983   -4.162441    0.109194
    134          1           0        4.536421   -6.367418    0.431107
    135          1           0        5.259202   -6.148052    1.984931
    136          1           0        2.831609   -1.632792    5.760955
    137          1           0        2.259985   -0.224056    6.590356
    138          1           0        3.968593   -0.674901    6.800529
    139          1           0        2.939057    1.661922    7.568805
    140          1           0        4.030622    3.095793    8.015123
    141          1           0        4.682382    1.521764    7.475619
    142          1           0        4.401142    5.683170    1.705505
    143          1           0        3.448832    5.371010   -1.096713
    144          1           0        2.368245    6.676914    1.800001
    145          1           0        1.644993    5.045294    1.574746
    146          1           0        1.930072    6.021132    0.224897
    147          1           0        5.251083    6.988607   -0.384610
    148          1           0        5.622849    6.049104   -1.817823
    149          1           0        6.598781    5.919868    0.941329
    150          1           0        7.573560    5.851083   -0.571909
    151          1           0        6.673502    4.396266    0.050779
    152          1           0        6.003268    1.417127   -5.298937
    153          1           0        5.273377    2.891335   -4.584671
    154          1           0        4.188311    1.559175   -5.150568
    155          1           0        4.106572   -3.109197   -3.028238
    156          1           0        6.633400   -6.491690   -3.898151
    157          1           0        6.544805   -6.537139   -2.023575
    158          1           0        7.740228   -5.621455   -2.974736
 ---------------------------------------------------------------------
 Rotational constants (GHZ):           0.0205107           0.0138463           0.0129977
 Leave Link  202 at Fri Sep  3 23:50:33 2021, MaxMem= 23488102400 cpu:               0.2 elap:               0.0
 (Enter /sw/apps/gaussian-16.0/g16/l301.exe)
 Standard basis: def2SVP (5D, 7F)
 Ernie: Thresh=  0.10000D-02 Tol=  0.10000D-05 Strict=F.
 There are  1658 symmetry adapted cartesian basis functions of A   symmetry.
 There are  1572 symmetry adapted basis functions of A   symmetry.
  1572 basis functions,  2678 primitive gaussians,  1658 cartesian basis functions
   312 alpha electrons      312 beta electrons
       nuclear repulsion energy     15491.8264192000 Hartrees.
 IExCor=20419 DFT=T Ex+Corr=CAM-B3LYP ExCW=0 ScaHFX=  1.000000
 ScaDFX=  1.000000  1.000000  1.000000  0.810000 ScalE2=  1.000000  1.000000
 IRadAn=      5 IRanWt=     -1 IRanGd=            0 ICorTp=0 IEmpDi=  4
 HFx  wShort=  0.000000 wLong=  0.330000 cFull=  0.190000 cShort=  0.000000 cLong=  0.460000
 DFx  wShort=  0.000000 wLong=  0.330000 cFull=  0.190000 cShort=  0.000000 cLong=  0.460000
 NAtoms=  158 NActive=  158 NUniq=  158 SFac= 1.00D+00 NAtFMM=   60 NAOKFM=T Big=T
 Integral buffers will be    131072 words long.
 Raffenetti 1 integral format.
 Two-electron integral symmetry is turned on.
 Leave Link  301 at Fri Sep  3 23:50:33 2021, MaxMem= 23488102400 cpu:               1.8 elap:               0.1
 (Enter /sw/apps/gaussian-16.0/g16/l302.exe)
 NPDir=0 NMtPBC=     1 NCelOv=     1 NCel=       1 NClECP=     1 NCelD=      1
         NCelK=      1 NCelE2=     1 NClLst=     1 CellRange=     0.0.
 One-electron integrals computed using PRISM.
 One-electron integral symmetry used in STVInt
   1 Symmetry operations used in ECPInt.
 ECPInt:  NShTT=  271216 NPrTT=  987664 LenC2=  154092 LenP2D=  320565.
 LDataN:  DoStor=T MaxTD1= 4 Len=   56
 NBasis=  1572 RedAO= T EigKep=  3.36D-04  NBF=  1572
 NBsUse=  1572 1.00D-06 EigRej= -1.00D+00 NBFU=  1572
 Precomputing XC quadrature grid using
 IXCGrd= 4 IRadAn=           5 IRanWt=          -1 IRanGd=           0 AccXCQ= 0.00D+00.
 Generated NRdTot=       0 NPtTot=           0 NUsed=           0 NTot=          32
 NSgBfM=  1251  1243  1245  1249  1251 MxSgAt=   158 MxSgA2=   158.
 Leave Link  302 at Fri Sep  3 23:50:38 2021, MaxMem= 23488102400 cpu:             132.5 elap:               5.6
 (Enter /sw/apps/gaussian-16.0/g16/l303.exe)
 DipDrv:  MaxL=1.
 Leave Link  303 at Fri Sep  3 23:50:39 2021, MaxMem= 23488102400 cpu:              10.1 elap:               0.5
 (Enter /sw/apps/gaussian-16.0/g16/l308.exe)
 Leave Link  308 at Fri Sep  3 23:50:40 2021, MaxMem= 23488102400 cpu:              16.4 elap:               0.8
 (Enter /sw/apps/gaussian-16.0/g16/l401.exe)
 ExpMin= 3.36D-02 ExpMax= 4.95D+03 ExpMxC= 7.45D+02 IAcc=3 IRadAn=         5 AccDes= 0.00D+00
 Harris functional with IExCor=20419 and IRadAn=       5 diagonalized for initial guess.
 HarFok:  IExCor=20419 AccDes= 0.00D+00 IRadAn=         5 IDoV= 1 UseB2=F ITyADJ=14
 ICtDFT=  3500011 ScaDFX=  1.000000  1.000000  1.000000  1.000000
 FoFCou: FMM=F IPFlag=           0 FMFlag=      100000 FMFlg1=        2001
         NFxFlg=           0 DoJE=T BraDBF=F KetDBF=T FulRan=T
         wScrn=  0.000000 ICntrl=       500 IOpCl=  0 I1Cent=   200000004 NGrid=           0
         NMat0=    1 NMatS0=      1 NMatT0=    0 NMatD0=    1 NMtDS0=    0 NMtDT0=    0
 Petite list used in FoFCou.
 Harris En= -3918.65827086404    
 JPrj=0 DoOrth=F DoCkMO=F.
 Leave Link  401 at Fri Sep  3 23:50:48 2021, MaxMem= 23488102400 cpu:             192.3 elap:               8.0
 (Enter /sw/apps/gaussian-16.0/g16/l502.exe)
 Integral symmetry usage will be decided dynamically.
 Closed shell SCF:
 Using DIIS extrapolation, IDIIS=  1040.
 NGot= 23488102400 LenX= 23482547354 LenY= 23479796732
 Requested convergence on RMS density matrix=1.00D-08 within 128 cycles.
 Requested convergence on MAX density matrix=1.00D-06.
 Requested convergence on             energy=1.00D-06.
 No special actions if energy rises.
 Fock matrices will be formed incrementally for  20 cycles.

 Cycle   1  Pass 1  IDiag  1:
 FoFJK:  IHMeth= 1 ICntrl=       0 DoSepK=T KAlg= 0 I1Cent=           0 FoldK=F
 IRaf=         1 NMat=       1 IRICut=       1 DoRegI=T DoRafI=F ISym2E= 0 IDoP0=0 IntGTp=1.
 FoFCou: FMM=T IPFlag=           0 FMFlag=      100000 FMFlg1=        2001
         NFxFlg=           0 DoJE=T BraDBF=F KetDBF=F FulRan=T
         wScrn=  0.000000 ICntrl=       500 IOpCl=  0 I1Cent=           0 NGrid=           0
         NMat0=    1 NMatS0=      1 NMatT0=    0 NMatD0=    1 NMtDS0=    0 NMtDT0=    0
 Symmetry not used in FoFCou.
 FMM levels:  10  Number of levels for PrismC:   9
 E= -4068.95136094941    
 DIIS: error= 2.04D-02 at cycle   1 NSaved=   1.
 NSaved= 1 IEnMin= 1 EnMin= -4068.95136094941     IErMin= 1 ErrMin= 2.04D-02
 ErrMax= 2.04D-02  0.00D+00 EMaxC= 1.00D-01 BMatC= 1.69D+00 BMatP= 1.69D+00
 IDIUse=3 WtCom= 7.96D-01 WtEn= 2.04D-01
 Coeff-Com:  0.100D+01
 Coeff-En:   0.100D+01
 Coeff:      0.100D+01
 Gap=     0.120 Goal=   None    Shift=    0.000
 GapD=    0.120 DampG=1.000 DampE=0.500 DampFc=0.5000 IDamp=-1.
 Damping current iteration by 5.00D-01
 RMSDP=1.57D-03 MaxDP=1.36D-01              OVMax= 1.99D-01

 Cycle   2  Pass 1  IDiag  1:
 RMSU=  7.70D-04    CP:  9.82D-01
 E= -4069.34021606325     Delta-E=       -0.388855113833 Rises=F Damp=T
 DIIS: error= 1.27D-02 at cycle   2 NSaved=   2.
 NSaved= 2 IEnMin= 2 EnMin= -4069.34021606325     IErMin= 2 ErrMin= 1.27D-02
 ErrMax= 1.27D-02  0.00D+00 EMaxC= 1.00D-01 BMatC= 3.06D-01 BMatP= 1.69D+00
 IDIUse=3 WtCom= 8.73D-01 WtEn= 1.27D-01
 Coeff-Com: -0.214D+00 0.121D+01
 Coeff-En:   0.000D+00 0.100D+01
 Coeff:     -0.187D+00 0.119D+01
 Gap=     0.133 Goal=   None    Shift=    0.000
 RMSDP=7.65D-04 MaxDP=9.44D-02 DE=-3.89D-01 OVMax= 1.89D-01

 Cycle   3  Pass 1  IDiag  1:
 RMSU=  7.32D-04    CP:  9.68D-01  1.24D+00
 E= -4069.63049402088     Delta-E=       -0.290277957629 Rises=F Damp=F
 DIIS: error= 1.53D-02 at cycle   3 NSaved=   3.
 NSaved= 3 IEnMin= 3 EnMin= -4069.63049402088     IErMin= 2 ErrMin= 1.27D-02
 ErrMax= 1.53D-02  0.00D+00 EMaxC= 1.00D-01 BMatC= 2.00D-01 BMatP= 3.06D-01
 IDIUse=3 WtCom= 8.47D-01 WtEn= 1.53D-01
 Coeff-Com: -0.267D+00 0.650D+00 0.617D+00
 Coeff-En:   0.000D+00 0.000D+00 0.100D+01
 Coeff:     -0.226D+00 0.551D+00 0.676D+00
 Gap=     0.119 Goal=   None    Shift=    0.000
 RMSDP=5.06D-04 MaxDP=4.69D-02 DE=-2.90D-01 OVMax= 1.37D-01

 Cycle   4  Pass 1  IDiag  1:
 RMSU=  2.64D-04    CP:  9.65D-01  1.55D+00  5.07D-01
 E= -4069.76769728419     Delta-E=       -0.137203263319 Rises=F Damp=F
 DIIS: error= 6.89D-03 at cycle   4 NSaved=   4.
 NSaved= 4 IEnMin= 4 EnMin= -4069.76769728419     IErMin= 4 ErrMin= 6.89D-03
 ErrMax= 6.89D-03  0.00D+00 EMaxC= 1.00D-01 BMatC= 4.85D-02 BMatP= 2.00D-01
 IDIUse=3 WtCom= 9.31D-01 WtEn= 6.89D-02
 Coeff-Com: -0.109D+00 0.226D+00 0.407D+00 0.476D+00
 Coeff-En:   0.000D+00 0.000D+00 0.216D+00 0.784D+00
 Coeff:     -0.101D+00 0.210D+00 0.394D+00 0.497D+00
 Gap=     0.119 Goal=   None    Shift=    0.000
 RMSDP=1.98D-04 MaxDP=1.91D-02 DE=-1.37D-01 OVMax= 5.95D-02

 Cycle   5  Pass 1  IDiag  1:
 RMSU=  7.56D-05    CP:  9.64D-01  1.49D+00  6.89D-01  5.53D-01
 E= -4069.81176707631     Delta-E=       -0.044069792119 Rises=F Damp=F
 DIIS: error= 7.24D-04 at cycle   5 NSaved=   5.
 NSaved= 5 IEnMin= 5 EnMin= -4069.81176707631     IErMin= 5 ErrMin= 7.24D-04
 ErrMax= 7.24D-04  0.00D+00 EMaxC= 1.00D-01 BMatC= 1.14D-03 BMatP= 4.85D-02
 IDIUse=3 WtCom= 9.93D-01 WtEn= 7.24D-03
 Coeff-Com: -0.366D-01 0.719D-01 0.166D+00 0.250D+00 0.548D+00
 Coeff-En:   0.000D+00 0.000D+00 0.000D+00 0.000D+00 0.100D+01
 Coeff:     -0.363D-01 0.714D-01 0.165D+00 0.248D+00 0.552D+00
 Gap=     0.119 Goal=   None    Shift=    0.000
 RMSDP=4.20D-05 MaxDP=4.58D-03 DE=-4.41D-02 OVMax= 1.79D-02

 Cycle   6  Pass 1  IDiag  1:
 RMSU=  3.12D-05    CP:  9.64D-01  1.49D+00  6.81D-01  6.25D-01  7.45D-01
 E= -4069.81276200374     Delta-E=       -0.000994927432 Rises=F Damp=F
 DIIS: error= 1.94D-04 at cycle   6 NSaved=   6.
 NSaved= 6 IEnMin= 6 EnMin= -4069.81276200374     IErMin= 6 ErrMin= 1.94D-04
 ErrMax= 1.94D-04  0.00D+00 EMaxC= 1.00D-01 BMatC= 1.90D-04 BMatP= 1.14D-03
 IDIUse=3 WtCom= 9.98D-01 WtEn= 1.94D-03
 Coeff-Com:  0.177D-02-0.570D-02 0.128D-01 0.422D-01 0.314D+00 0.635D+00
 Coeff-En:   0.000D+00 0.000D+00 0.000D+00 0.000D+00 0.129D+00 0.871D+00
 Coeff:      0.176D-02-0.569D-02 0.127D-01 0.421D-01 0.314D+00 0.635D+00
 Gap=     0.119 Goal=   None    Shift=    0.000
 RMSDP=1.70D-05 MaxDP=1.24D-03 DE=-9.95D-04 OVMax= 7.65D-03

 Cycle   7  Pass 1  IDiag  1:
 RMSU=  1.10D-05    CP:  9.64D-01  1.50D+00  6.87D-01  6.23D-01  8.55D-01
                    CP:  7.24D-01
 E= -4069.81297000609     Delta-E=       -0.000208002344 Rises=F Damp=F
 DIIS: error= 9.96D-05 at cycle   7 NSaved=   7.
 NSaved= 7 IEnMin= 7 EnMin= -4069.81297000609     IErMin= 7 ErrMin= 9.96D-05
 ErrMax= 9.96D-05  0.00D+00 EMaxC= 1.00D-01 BMatC= 2.43D-05 BMatP= 1.90D-04
 IDIUse=1 WtCom= 1.00D+00 WtEn= 0.00D+00
 Coeff-Com:  0.445D-02-0.979D-02-0.855D-02-0.287D-02 0.111D+00 0.338D+00
 Coeff-Com:  0.568D+00
 Coeff:      0.445D-02-0.979D-02-0.855D-02-0.287D-02 0.111D+00 0.338D+00
 Coeff:      0.568D+00
 Gap=     0.119 Goal=   None    Shift=    0.000
 RMSDP=6.73D-06 MaxDP=1.24D-03 DE=-2.08D-04 OVMax= 3.65D-03

 Cycle   8  Pass 1  IDiag  1:
 RMSU=  4.71D-06    CP:  9.64D-01  1.50D+00  6.87D-01  6.28D-01  8.56D-01
                    CP:  8.51D-01  8.03D-01
 E= -4069.81299977891     Delta-E=       -0.000029772826 Rises=F Damp=F
 DIIS: error= 5.26D-05 at cycle   8 NSaved=   8.
 NSaved= 8 IEnMin= 8 EnMin= -4069.81299977891     IErMin= 8 ErrMin= 5.26D-05
 ErrMax= 5.26D-05  0.00D+00 EMaxC= 1.00D-01 BMatC= 4.76D-06 BMatP= 2.43D-05
 IDIUse=1 WtCom= 1.00D+00 WtEn= 0.00D+00
 Coeff-Com:  0.222D-02-0.441D-02-0.786D-02-0.122D-01-0.105D-01 0.352D-01
 Coeff-Com:  0.323D+00 0.674D+00
 Coeff:      0.222D-02-0.441D-02-0.786D-02-0.122D-01-0.105D-01 0.352D-01
 Coeff:      0.323D+00 0.674D+00
 Gap=     0.119 Goal=   None    Shift=    0.000
 RMSDP=3.33D-06 MaxDP=4.24D-04 DE=-2.98D-05 OVMax= 1.20D-03

 Cycle   9  Pass 1  IDiag  1:
 RMSU=  1.92D-06    CP:  9.64D-01  1.50D+00  6.88D-01  6.29D-01  8.74D-01
                    CP:  8.78D-01  9.97D-01  9.57D-01
 E= -4069.81300737471     Delta-E=       -0.000007595798 Rises=F Damp=F
 DIIS: error= 2.13D-05 at cycle   9 NSaved=   9.
 NSaved= 9 IEnMin= 9 EnMin= -4069.81300737471     IErMin= 9 ErrMin= 2.13D-05
 ErrMax= 2.13D-05  0.00D+00 EMaxC= 1.00D-01 BMatC= 7.18D-07 BMatP= 4.76D-06
 IDIUse=1 WtCom= 1.00D+00 WtEn= 0.00D+00
 Coeff-Com:  0.510D-03-0.861D-03-0.280D-02-0.619D-02-0.216D-01-0.377D-01
 Coeff-Com:  0.964D-01 0.340D+00 0.632D+00
 Coeff:      0.510D-03-0.861D-03-0.280D-02-0.619D-02-0.216D-01-0.377D-01
 Coeff:      0.964D-01 0.340D+00 0.632D+00
 Gap=     0.119 Goal=   None    Shift=    0.000
 RMSDP=1.39D-06 MaxDP=1.49D-04 DE=-7.60D-06 OVMax= 7.37D-04

 Cycle  10  Pass 1  IDiag  1:
 RMSU=  9.29D-07    CP:  9.64D-01  1.50D+00  6.88D-01  6.30D-01  8.77D-01
                    CP:  8.90D-01  1.04D+00  1.12D+00  1.05D+00
 E= -4069.81300894114     Delta-E=       -0.000001566423 Rises=F Damp=F
 DIIS: error= 1.03D-05 at cycle  10 NSaved=  10.
 NSaved=10 IEnMin=10 EnMin= -4069.81300894114     IErMin=10 ErrMin= 1.03D-05
 ErrMax= 1.03D-05  0.00D+00 EMaxC= 1.00D-01 BMatC= 1.57D-07 BMatP= 7.18D-07
 IDIUse=1 WtCom= 1.00D+00 WtEn= 0.00D+00
 Coeff-Com: -0.412D-03 0.866D-03 0.116D-02 0.103D-02-0.399D-02-0.301D-01
 Coeff-Com: -0.433D-01-0.684D-01 0.233D+00 0.910D+00
 Coeff:     -0.412D-03 0.866D-03 0.116D-02 0.103D-02-0.399D-02-0.301D-01
 Coeff:     -0.433D-01-0.684D-01 0.233D+00 0.910D+00
 Gap=     0.119 Goal=   None    Shift=    0.000
 RMSDP=1.19D-06 MaxDP=1.18D-04 DE=-1.57D-06 OVMax= 5.97D-04

 Cycle  11  Pass 1  IDiag  1:
 RMSU=  5.08D-07    CP:  9.64D-01  1.50D+00  6.88D-01  6.30D-01  8.79D-01
                    CP:  9.00D-01  1.08D+00  1.23D+00  1.37D+00  1.36D+00
 E= -4069.81300967683     Delta-E=       -0.000000735690 Rises=F Damp=F
 DIIS: error= 4.19D-06 at cycle  11 NSaved=  11.
 NSaved=11 IEnMin=11 EnMin= -4069.81300967683     IErMin=11 ErrMin= 4.19D-06
 ErrMax= 4.19D-06  0.00D+00 EMaxC= 1.00D-01 BMatC= 5.97D-08 BMatP= 1.57D-07
 IDIUse=1 WtCom= 1.00D+00 WtEn= 0.00D+00
 Coeff-Com: -0.329D-03 0.641D-03 0.131D-02 0.209D-02 0.431D-02-0.837D-02
 Coeff-Com: -0.402D-01-0.127D+00-0.363D-01 0.474D+00 0.730D+00
 Coeff:     -0.329D-03 0.641D-03 0.131D-02 0.209D-02 0.431D-02-0.837D-02
 Coeff:     -0.402D-01-0.127D+00-0.363D-01 0.474D+00 0.730D+00
 Gap=     0.119 Goal=   None    Shift=    0.000
 RMSDP=6.61D-07 MaxDP=5.81D-05 DE=-7.36D-07 OVMax= 3.48D-04

 Cycle  12  Pass 1  IDiag  1:
 RMSU=  2.58D-07    CP:  9.64D-01  1.50D+00  6.88D-01  6.30D-01  8.80D-01
                    CP:  9.02D-01  1.10D+00  1.29D+00  1.53D+00  1.74D+00
                    CP:  1.20D+00
 E= -4069.81300992283     Delta-E=       -0.000000246000 Rises=F Damp=F
 DIIS: error= 2.50D-06 at cycle  12 NSaved=  12.
 NSaved=12 IEnMin=12 EnMin= -4069.81300992283     IErMin=12 ErrMin= 2.50D-06
 ErrMax= 2.50D-06  0.00D+00 EMaxC= 1.00D-01 BMatC= 1.41D-08 BMatP= 5.97D-08
 IDIUse=1 WtCom= 1.00D+00 WtEn= 0.00D+00
 Coeff-Com: -0.106D-04 0.513D-05 0.207D-03 0.540D-03 0.333D-02 0.333D-02
 Coeff-Com:  0.206D-02-0.342D-01-0.688D-01-0.568D-01 0.248D+00 0.902D+00
 Coeff:     -0.106D-04 0.513D-05 0.207D-03 0.540D-03 0.333D-02 0.333D-02
 Coeff:      0.206D-02-0.342D-01-0.688D-01-0.568D-01 0.248D+00 0.902D+00
 Gap=     0.119 Goal=   None    Shift=    0.000
 RMSDP=4.11D-07 MaxDP=2.73D-05 DE=-2.46D-07 OVMax= 2.38D-04

 Cycle  13  Pass 1  IDiag  1:
 RMSU=  1.63D-07    CP:  9.64D-01  1.50D+00  6.88D-01  6.30D-01  8.81D-01
                    CP:  9.02D-01  1.11D+00  1.31D+00  1.63D+00  1.96D+00
                    CP:  1.60D+00  1.25D+00
 E= -4069.81301000648     Delta-E=       -0.000000083655 Rises=F Damp=F
 DIIS: error= 1.34D-06 at cycle  13 NSaved=  13.
 NSaved=13 IEnMin=13 EnMin= -4069.81301000648     IErMin=13 ErrMin= 1.34D-06
 ErrMax= 1.34D-06  0.00D+00 EMaxC= 1.00D-01 BMatC= 8.14D-09 BMatP= 1.41D-08
 IDIUse=1 WtCom= 1.00D+00 WtEn= 0.00D+00
 Coeff-Com:  0.117D-03-0.239D-03-0.357D-03-0.440D-03 0.652D-03 0.465D-02
 Coeff-Com:  0.184D-01 0.228D-01-0.317D-01-0.235D+00-0.163D+00 0.601D+00
 Coeff-Com:  0.784D+00
 Coeff:      0.117D-03-0.239D-03-0.357D-03-0.440D-03 0.652D-03 0.465D-02
 Coeff:      0.184D-01 0.228D-01-0.317D-01-0.235D+00-0.163D+00 0.601D+00
 Coeff:      0.784D+00
 Gap=     0.119 Goal=   None    Shift=    0.000
 RMSDP=3.29D-07 MaxDP=2.03D-05 DE=-8.37D-08 OVMax= 1.83D-04

 Cycle  14  Pass 1  IDiag  1:
 RMSU=  7.53D-08    CP:  9.64D-01  1.50D+00  6.88D-01  6.30D-01  8.81D-01
                    CP:  9.03D-01  1.12D+00  1.34D+00  1.70D+00  2.15D+00
                    CP:  1.86D+00  1.77D+00  1.09D+00
 E= -4069.81301004161     Delta-E=       -0.000000035125 Rises=F Damp=F
 DIIS: error= 6.71D-07 at cycle  14 NSaved=  14.
 NSaved=14 IEnMin=14 EnMin= -4069.81301004161     IErMin=14 ErrMin= 6.71D-07
 ErrMax= 6.71D-07  0.00D+00 EMaxC= 1.00D-01 BMatC= 1.25D-09 BMatP= 8.14D-09
 IDIUse=1 WtCom= 1.00D+00 WtEn= 0.00D+00
 Coeff-Com:  0.679D-04-0.134D-03-0.248D-03-0.390D-03-0.453D-03 0.119D-02
 Coeff-Com:  0.103D-01 0.196D-01 0.435D-02-0.101D+00-0.148D+00 0.979D-01
 Coeff-Com:  0.406D+00 0.712D+00
 Coeff:      0.679D-04-0.134D-03-0.248D-03-0.390D-03-0.453D-03 0.119D-02
 Coeff:      0.103D-01 0.196D-01 0.435D-02-0.101D+00-0.148D+00 0.979D-01
 Coeff:      0.406D+00 0.712D+00
 Gap=     0.119 Goal=   None    Shift=    0.000
 RMSDP=1.02D-07 MaxDP=6.30D-06 DE=-3.51D-08 OVMax= 5.70D-05

 Cycle  15  Pass 1  IDiag  1:
 RMSU=  3.84D-08    CP:  9.64D-01  1.50D+00  6.88D-01  6.30D-01  8.81D-01
                    CP:  9.03D-01  1.12D+00  1.34D+00  1.72D+00  2.19D+00
                    CP:  1.97D+00  1.92D+00  1.33D+00  1.02D+00
 E= -4069.81301004552     Delta-E=       -0.000000003911 Rises=F Damp=F
 DIIS: error= 3.70D-07 at cycle  15 NSaved=  15.
 NSaved=15 IEnMin=15 EnMin= -4069.81301004552     IErMin=15 ErrMin= 3.70D-07
 ErrMax= 3.70D-07  0.00D+00 EMaxC= 1.00D-01 BMatC= 2.36D-10 BMatP= 1.25D-09
 IDIUse=1 WtCom= 1.00D+00 WtEn= 0.00D+00
 Coeff-Com:  0.785D-05-0.139D-04-0.406D-04-0.926D-04-0.300D-03-0.467D-03
 Coeff-Com:  0.140D-02 0.324D-02 0.834D-02-0.122D-02-0.352D-01-0.691D-01
 Coeff-Com:  0.357D-01 0.311D+00 0.747D+00
 Coeff:      0.785D-05-0.139D-04-0.406D-04-0.926D-04-0.300D-03-0.467D-03
 Coeff:      0.140D-02 0.324D-02 0.834D-02-0.122D-02-0.352D-01-0.691D-01
 Coeff:      0.357D-01 0.311D+00 0.747D+00
 Gap=     0.119 Goal=   None    Shift=    0.000
 RMSDP=4.02D-08 MaxDP=2.38D-06 DE=-3.91D-09 OVMax= 2.41D-05

 Cycle  16  Pass 1  IDiag  1:
 RMSU=  1.88D-08    CP:  9.64D-01  1.50D+00  6.88D-01  6.30D-01  8.81D-01
                    CP:  9.03D-01  1.12D+00  1.34D+00  1.72D+00  2.20D+00
                    CP:  1.99D+00  1.98D+00  1.41D+00  1.23D+00  1.11D+00
 E= -4069.81301004613     Delta-E=       -0.000000000618 Rises=F Damp=F
 DIIS: error= 1.92D-07 at cycle  16 NSaved=  16.
 NSaved=16 IEnMin=16 EnMin= -4069.81301004613     IErMin=16 ErrMin= 1.92D-07
 ErrMax= 1.92D-07  0.00D+00 EMaxC= 1.00D-01 BMatC= 8.57D-11 BMatP= 2.36D-10
 IDIUse=1 WtCom= 1.00D+00 WtEn= 0.00D+00
 Coeff-Com: -0.132D-04 0.268D-04 0.427D-04 0.471D-04-0.376D-04-0.613D-03
 Coeff-Com: -0.168D-02-0.391D-02 0.409D-02 0.245D-01 0.190D-01-0.645D-01
 Coeff-Com: -0.797D-01-0.222D-01 0.405D+00 0.719D+00
 Coeff:     -0.132D-04 0.268D-04 0.427D-04 0.471D-04-0.376D-04-0.613D-03
 Coeff:     -0.168D-02-0.391D-02 0.409D-02 0.245D-01 0.190D-01-0.645D-01
 Coeff:     -0.797D-01-0.222D-01 0.405D+00 0.719D+00
 Gap=     0.119 Goal=   None    Shift=    0.000
 RMSDP=2.23D-08 MaxDP=1.51D-06 DE=-6.18D-10 OVMax= 1.46D-05

 Cycle  17  Pass 1  IDiag  1:
 RMSU=  1.09D-08    CP:  9.64D-01  1.50D+00  6.88D-01  6.30D-01  8.81D-01
                    CP:  9.03D-01  1.12D+00  1.34D+00  1.72D+00  2.21D+00
                    CP:  2.00D+00  2.00D+00  1.45D+00  1.32D+00  1.40D+00
                    CP:  1.17D+00
 E= -4069.81301004660     Delta-E=       -0.000000000466 Rises=F Damp=F
 DIIS: error= 1.15D-07 at cycle  17 NSaved=  17.
 NSaved=17 IEnMin=17 EnMin= -4069.81301004660     IErMin=17 ErrMin= 1.15D-07
 ErrMax= 1.15D-07  0.00D+00 EMaxC= 1.00D-01 BMatC= 2.10D-11 BMatP= 8.57D-11
 IDIUse=1 WtCom= 1.00D+00 WtEn= 0.00D+00
 Coeff-Com: -0.832D-05 0.163D-04 0.317D-04 0.457D-04 0.774D-04-0.179D-03
 Coeff-Com: -0.102D-02-0.307D-02 0.249D-03 0.115D-01 0.190D-01-0.131D-01
 Coeff-Com: -0.433D-01-0.996D-01-0.615D-04 0.334D+00 0.795D+00
 Coeff:     -0.832D-05 0.163D-04 0.317D-04 0.457D-04 0.774D-04-0.179D-03
 Coeff:     -0.102D-02-0.307D-02 0.249D-03 0.115D-01 0.190D-01-0.131D-01
 Coeff:     -0.433D-01-0.996D-01-0.615D-04 0.334D+00 0.795D+00
 Gap=     0.119 Goal=   None    Shift=    0.000
 RMSDP=1.33D-08 MaxDP=9.18D-07 DE=-4.66D-10 OVMax= 7.96D-06

 Cycle  18  Pass 1  IDiag  1:
 RMSU=  5.49D-09    CP:  9.64D-01  1.50D+00  6.88D-01  6.30D-01  8.81D-01
                    CP:  9.03D-01  1.12D+00  1.34D+00  1.73D+00  2.21D+00
                    CP:  2.01D+00  2.01D+00  1.47D+00  1.39D+00  1.56D+00
                    CP:  1.57D+00  1.30D+00
 E= -4069.81301004676     Delta-E=       -0.000000000156 Rises=F Damp=F
 DIIS: error= 6.88D-08 at cycle  18 NSaved=  18.
 NSaved=18 IEnMin=18 EnMin= -4069.81301004676     IErMin=18 ErrMin= 6.88D-08
 ErrMax= 6.88D-08  0.00D+00 EMaxC= 1.00D-01 BMatC= 8.27D-12 BMatP= 2.10D-11
 IDIUse=1 WtCom= 1.00D+00 WtEn= 0.00D+00
 Coeff-Com:  0.226D-07-0.393D-06 0.279D-05 0.808D-05 0.685D-04 0.114D-03
 Coeff-Com:  0.124D-03-0.447D-03-0.103D-02-0.294D-02 0.372D-02 0.154D-01
 Coeff-Com:  0.798D-02-0.487D-01-0.142D+00-0.920D-01 0.420D+00 0.840D+00
 Coeff:      0.226D-07-0.393D-06 0.279D-05 0.808D-05 0.685D-04 0.114D-03
 Coeff:      0.124D-03-0.447D-03-0.103D-02-0.294D-02 0.372D-02 0.154D-01
 Coeff:      0.798D-02-0.487D-01-0.142D+00-0.920D-01 0.420D+00 0.840D+00
 Gap=     0.119 Goal=   None    Shift=    0.000
 RMSDP=1.00D-08 MaxDP=6.72D-07 DE=-1.56D-10 OVMax= 6.85D-06

 Cycle  19  Pass 1  IDiag  1:
 RMSU=  3.18D-09    CP:  9.64D-01  1.50D+00  6.88D-01  6.30D-01  8.81D-01
                    CP:  9.03D-01  1.12D+00  1.34D+00  1.73D+00  2.21D+00
                    CP:  2.01D+00  2.02D+00  1.48D+00  1.42D+00  1.69D+00
                    CP:  1.82D+00  1.79D+00  1.16D+00
 E= -4069.81301004659     Delta-E=        0.000000000167 Rises=F Damp=F
 DIIS: error= 3.47D-08 at cycle  19 NSaved=  19.
 NSaved=19 IEnMin=18 EnMin= -4069.81301004676     IErMin=19 ErrMin= 3.47D-08
 ErrMax= 3.47D-08  0.00D+00 EMaxC= 1.00D-01 BMatC= 2.86D-12 BMatP= 8.27D-12
 IDIUse=1 WtCom= 1.00D+00 WtEn= 0.00D+00
 Coeff-Com:  0.329D-05-0.668D-05-0.107D-04-0.130D-04 0.206D-04 0.143D-03
 Coeff-Com:  0.519D-03 0.870D-03-0.705D-03-0.695D-02-0.523D-02 0.154D-01
 Coeff-Com:  0.239D-01 0.694D-02-0.958D-01-0.208D+00-0.413D-01 0.539D+00
 Coeff-Com:  0.772D+00
 Coeff:      0.329D-05-0.668D-05-0.107D-04-0.130D-04 0.206D-04 0.143D-03
 Coeff:      0.519D-03 0.870D-03-0.705D-03-0.695D-02-0.523D-02 0.154D-01
 Coeff:      0.239D-01 0.694D-02-0.958D-01-0.208D+00-0.413D-01 0.539D+00
 Coeff:      0.772D+00
 Gap=     0.119 Goal=   None    Shift=    0.000
 RMSDP=6.91D-09 MaxDP=4.39D-07 DE= 1.67D-10 OVMax= 3.81D-06

 SCF Done:  E(RCAM-B3LYP) =  -4069.81301005     A.U. after   19 cycles
            NFock= 19  Conv=0.69D-08     -V/T= 2.0102
 KE= 4.028800525123D+03 PE=-4.046479488406D+04 EE= 1.687435492969D+04
 Leave Link  502 at Sat Sep  4 00:01:50 2021, MaxMem= 23488102400 cpu:           15249.8 elap:             662.1
 (Enter /sw/apps/gaussian-16.0/g16/l801.exe)
 DoSCS=F DFT=T ScalE2(SS,OS)=  1.000000  1.000000
 ExpMin= 3.36D-02 ExpMax= 4.95D+03 ExpMxC= 7.45D+02 IAcc=3 IRadAn=         5 AccDes= 0.00D+00
 HarFok:  IExCor=  205 AccDes= 0.00D+00 IRadAn=         5 IDoV=-2 UseB2=F ITyADJ=14
 ICtDFT= 12500011 ScaDFX=  1.000000  1.000000  1.000000  1.000000
 GSVD:  LWork=       -9588 too small for GESVD, short by       45590 words or       45590 for optimal perf.
 Largest valence mixing into a core orbital is  2.03D-04
 Largest core mixing into a valence orbital is  5.24D-05
 Range of M.O.s used for correlation:    95  1572
 NBasis=  1572 NAE=   312 NBE=   312 NFC=    94 NFV=     0
 NROrb=   1478 NOA=   218 NOB=   218 NVA=  1260 NVB=  1260
 Leave Link  801 at Sat Sep  4 00:01:51 2021, MaxMem= 23488102400 cpu:               8.2 elap:               0.4
 (Enter /sw/apps/gaussian-16.0/g16/l914.exe)
 RHF ground state
 Two-electron integrals replicated using symmetry.
 MDV= 23488102400 DFT=T DoStab=F Mixed=T DoRPA=T DoScal=F NonHer=T
 Making orbital integer symmetry assigments:
 Orbital symmetries:
       Occupied  (A) (A) (A) (A) (A) (A) (A) (A) (A) (A) (A) (A)
                 (A) (A) (A) (A) (A) (A) (A) (A) (A) (A) (A) (A)
                 (A) (A) (A) (A) (A) (A) (A) (A) (A) (A) (A) (A)
                 (A) (A) (A) (A) (A) (A) (A) (A) (A) (A) (A) (A)
                 (A) (A) (A) (A) (A) (A) (A) (A) (A) (A) (A) (A)
                 (A) (A) (A) (A) (A) (A) (A) (A) (A) (A) (A) (A)
                 (A) (A) (A) (A) (A) (A) (A) (A) (A) (A) (A) (A)
                 (A) (A) (A) (A) (A) (A) (A) (A) (A) (A) (A) (A)
                 (A) (A) (A) (A) (A) (A) (A) (A) (A) (A) (A) (A)
                 (A) (A) (A) (A) (A) (A) (A) (A) (A) (A) (A) (A)
                 (A) (A) (A) (A) (A) (A) (A) (A) (A) (A) (A) (A)
                 (A) (A) (A) (A) (A) (A) (A) (A) (A) (A) (A) (A)
                 (A) (A) (A) (A) (A) (A) (A) (A) (A) (A) (A) (A)
                 (A) (A) (A) (A) (A) (A) (A) (A) (A) (A) (A) (A)
                 (A) (A) (A) (A) (A) (A) (A) (A) (A) (A) (A) (A)
                 (A) (A) (A) (A) (A) (A) (A) (A) (A) (A) (A) (A)
                 (A) (A) (A) (A) (A) (A) (A) (A) (A) (A) (A) (A)
                 (A) (A) (A) (A) (A) (A) (A) (A) (A) (A) (A) (A)
                 (A) (A) (A) (A) (A) (A) (A) (A) (A) (A) (A) (A)
                 (A) (A) (A) (A) (A) (A) (A) (A) (A) (A) (A) (A)
                 (A) (A) (A) (A) (A) (A) (A) (A) (A) (A) (A) (A)
                 (A) (A) (A) (A) (A) (A) (A) (A) (A) (A) (A) (A)
                 (A) (A) (A) (A) (A) (A) (A) (A) (A) (A) (A) (A)
                 (A) (A) (A) (A) (A) (A) (A) (A) (A) (A) (A) (A)
                 (A) (A) (A) (A) (A) (A) (A) (A) (A) (A) (A) (A)
                 (A) (A) (A) (A) (A) (A) (A) (A) (A) (A) (A) (A)
       Virtual   (A) (A) (A) (A) (A) (A) (A) (A) (A) (A) (A) (A)
                 (A) (A) (A) (A) (A) (A) (A) (A) (A) (A) (A) (A)
                 (A) (A) (A) (A) (A) (A) (A) (A) (A) (A) (A) (A)
                 (A) (A) (A) (A) (A) (A) (A) (A) (A) (A) (A) (A)
                 (A) (A) (A) (A) (A) (A) (A) (A) (A) (A) (A) (A)
                 (A) (A) (A) (A) (A) (A) (A) (A) (A) (A) (A) (A)
                 (A) (A) (A) (A) (A) (A) (A) (A) (A) (A) (A) (A)
                 (A) (A) (A) (A) (A) (A) (A) (A) (A) (A) (A) (A)
                 (A) (A) (A) (A) (A) (A) (A) (A) (A) (A) (A) (A)
                 (A) (A) (A) (A) (A) (A) (A) (A) (A) (A) (A) (A)
                 (A) (A) (A) (A) (A) (A) (A) (A) (A) (A) (A) (A)
                 (A) (A) (A) (A) (A) (A) (A) (A) (A) (A) (A) (A)
                 (A) (A) (A) (A) (A) (A) (A) (A) (A) (A) (A) (A)
                 (A) (A) (A) (A) (A) (A) (A) (A) (A) (A) (A) (A)
                 (A) (A) (A) (A) (A) (A) (A) (A) (A) (A) (A) (A)
                 (A) (A) (A) (A) (A) (A) (A) (A) (A) (A) (A) (A)
                 (A) (A) (A) (A) (A) (A) (A) (A) (A) (A) (A) (A)
                 (A) (A) (A) (A) (A) (A) (A) (A) (A) (A) (A) (A)
                 (A) (A) (A) (A) (A) (A) (A) (A) (A) (A) (A) (A)
                 (A) (A) (A) (A) (A) (A) (A) (A) (A) (A) (A) (A)
                 (A) (A) (A) (A) (A) (A) (A) (A) (A) (A) (A) (A)
                 (A) (A) (A) (A) (A) (A) (A) (A) (A) (A) (A) (A)
                 (A) (A) (A) (A) (A) (A) (A) (A) (A) (A) (A) (A)
                 (A) (A) (A) (A) (A) (A) (A) (A) (A) (A) (A) (A)
                 (A) (A) (A) (A) (A) (A) (A) (A) (A) (A) (A) (A)
                 (A) (A) (A) (A) (A) (A) (A) (A) (A) (A) (A) (A)
                 (A) (A) (A) (A) (A) (A) (A) (A) (A) (A) (A) (A)
                 (A) (A) (A) (A) (A) (A) (A) (A) (A) (A) (A) (A)
                 (A) (A) (A) (A) (A) (A) (A) (A) (A) (A) (A) (A)
                 (A) (A) (A) (A) (A) (A) (A) (A) (A) (A) (A) (A)
                 (A) (A) (A) (A) (A) (A) (A) (A) (A) (A) (A) (A)
                 (A) (A) (A) (A) (A) (A) (A) (A) (A) (A) (A) (A)
                 (A) (A) (A) (A) (A) (A) (A) (A) (A) (A) (A) (A)
                 (A) (A) (A) (A) (A) (A) (A) (A) (A) (A) (A) (A)
                 (A) (A) (A) (A) (A) (A) (A) (A) (A) (A) (A) (A)
                 (A) (A) (A) (A) (A) (A) (A) (A) (A) (A) (A) (A)
                 (A) (A) (A) (A) (A) (A) (A) (A) (A) (A) (A) (A)
                 (A) (A) (A) (A) (A) (A) (A) (A) (A) (A) (A) (A)
                 (A) (A) (A) (A) (A) (A) (A) (A) (A) (A) (A) (A)
                 (A) (A) (A) (A) (A) (A) (A) (A) (A) (A) (A) (A)
                 (A) (A) (A) (A) (A) (A) (A) (A) (A) (A) (A) (A)
                 (A) (A) (A) (A) (A) (A) (A) (A) (A) (A) (A) (A)
                 (A) (A) (A) (A) (A) (A) (A) (A) (A) (A) (A) (A)
                 (A) (A) (A) (A) (A) (A) (A) (A) (A) (A) (A) (A)
                 (A) (A) (A) (A) (A) (A) (A) (A) (A) (A) (A) (A)
                 (A) (A) (A) (A) (A) (A) (A) (A) (A) (A) (A) (A)
                 (A) (A) (A) (A) (A) (A) (A) (A) (A) (A) (A) (A)
                 (A) (A) (A) (A) (A) (A) (A) (A) (A) (A) (A) (A)
                 (A) (A) (A) (A) (A) (A) (A) (A) (A) (A) (A) (A)
                 (A) (A) (A) (A) (A) (A) (A) (A) (A) (A) (A) (A)
                 (A) (A) (A) (A) (A) (A) (A) (A) (A) (A) (A) (A)
                 (A) (A) (A) (A) (A) (A) (A) (A) (A) (A) (A) (A)
                 (A) (A) (A) (A) (A) (A) (A) (A) (A) (A) (A) (A)
                 (A) (A) (A) (A) (A) (A) (A) (A) (A) (A) (A) (A)
                 (A) (A) (A) (A) (A) (A) (A) (A) (A) (A) (A) (A)
                 (A) (A) (A) (A) (A) (A) (A) (A) (A) (A) (A) (A)
                 (A) (A) (A) (A) (A) (A) (A) (A) (A) (A) (A) (A)
                 (A) (A) (A) (A) (A) (A) (A) (A) (A) (A) (A) (A)
                 (A) (A) (A) (A) (A) (A) (A) (A) (A) (A) (A) (A)
                 (A) (A) (A) (A) (A) (A) (A) (A) (A) (A) (A) (A)
                 (A) (A) (A) (A) (A) (A) (A) (A) (A) (A) (A) (A)
                 (A) (A) (A) (A) (A) (A) (A) (A) (A) (A) (A) (A)
                 (A) (A) (A) (A) (A) (A) (A) (A) (A) (A) (A) (A)
                 (A) (A) (A) (A) (A) (A) (A) (A) (A) (A) (A) (A)
                 (A) (A) (A) (A) (A) (A) (A) (A) (A) (A) (A) (A)
                 (A) (A) (A) (A) (A) (A) (A) (A) (A) (A) (A) (A)
                 (A) (A) (A) (A) (A) (A) (A) (A) (A) (A) (A) (A)
                 (A) (A) (A) (A) (A) (A) (A) (A) (A) (A) (A) (A)
                 (A) (A) (A) (A) (A) (A) (A) (A) (A) (A) (A) (A)
                 (A) (A) (A) (A) (A) (A) (A) (A) (A) (A) (A) (A)
                 (A) (A) (A) (A) (A) (A) (A) (A) (A) (A) (A) (A)
                 (A) (A) (A) (A) (A) (A) (A) (A) (A) (A) (A) (A)
                 (A) (A) (A) (A) (A) (A) (A) (A) (A) (A) (A) (A)
                 (A) (A) (A) (A) (A) (A) (A) (A) (A) (A) (A) (A)
                 (A) (A) (A) (A) (A) (A) (A) (A) (A) (A) (A) (A)
                 (A) (A) (A) (A) (A) (A) (A) (A) (A) (A) (A) (A)
                 (A) (A) (A) (A) (A) (A) (A) (A) (A) (A) (A) (A)
                 (A) (A) (A) (A) (A) (A) (A) (A) (A) (A) (A) (A)
                 (A) (A) (A) (A) (A) (A) (A) (A) (A) (A) (A) (A)
                 (A) (A) (A) (A) (A) (A) (A) (A) (A) (A) (A) (A)
                 (A) (A) (A) (A) (A) (A) (A) (A) (A) (A) (A) (A)
                 (A) (A) (A) (A) (A) (A) (A) (A) (A) (A) (A) (A)
                 (A) (A) (A) (A) (A) (A) (A) (A) (A) (A) (A) (A)
                 (A) (A) (A) (A) (A) (A) (A) (A) (A) (A) (A) (A)
                 (A) (A) (A) (A) (A) (A) (A) (A) (A) (A) (A) (A)
                 (A) (A) (A) (A) (A) (A) (A) (A) (A) (A) (A) (A)
                 (A) (A) (A) (A) (A) (A) (A) (A) (A) (A) (A) (A)
                 (A) (A) (A) (A) (A) (A) (A) (A) (A) (A) (A) (A)
                 (A) (A) (A) (A) (A) (A) (A) (A) (A) (A) (A) (A)
                 (A) (A) (A) (A) (A) (A) (A) (A) (A) (A) (A) (A)
                 (A) (A) (A) (A) (A) (A) (A) (A) (A) (A) (A) (A)
                 (A) (A) (A) (A) (A) (A) (A) (A) (A) (A) (A) (A)
                 (A) (A) (A) (A) (A) (A) (A) (A) (A) (A) (A) (A)
                 (A) (A) (A) (A) (A) (A) (A) (A) (A) (A) (A) (A)
                 (A) (A) (A) (A) (A) (A) (A) (A) (A) (A) (A) (A)
                 (A) (A) (A) (A) (A) (A) (A) (A) (A) (A) (A) (A)
                 (A) (A) (A) (A) (A) (A) (A) (A) (A) (A) (A) (A)
                 (A) (A) (A) (A) (A) (A) (A) (A) (A) (A) (A) (A)
                 (A) (A) (A) (A) (A) (A) (A) (A) (A) (A) (A) (A)
                 (A) (A) (A) (A) (A) (A) (A) (A) (A) (A) (A) (A)
                 (A) (A) (A) (A) (A) (A) (A) (A) (A) (A) (A) (A)
                 (A) (A) (A) (A) (A) (A) (A) (A) (A) (A) (A) (A)
                 (A) (A) (A) (A) (A) (A) (A) (A) (A) (A) (A) (A)
                 (A) (A) (A) (A) (A) (A) (A) (A) (A) (A) (A) (A)
                 (A) (A) (A) (A) (A) (A) (A) (A) (A) (A) (A) (A)
    20 initial guesses have been made.
 Convergence on wavefunction:    0.001000000000000
 Davidson Disk Diagonalization:  ConvIn= 1.00D-03 SkipCon=T Conv= 1.00D-03.
 Max sub-space:  2000 roots to seek:    20 dimension of matrix:       549360
 Iteration     1 Dimension    20 NMult     0 NNew     20
 CISAX will form    20 AO SS matrices at one time.
 NMat=    20 NSing=    20 JSym2X= 0.
 FoFJK:  IHMeth= 1 ICntrl=       0 DoSepK=T KAlg= 0 I1Cent=           0 FoldK=F
 IRaf=         1 NMat=      40 IRICut=       1 DoRegI=T DoRafI=F ISym2E= 0 IDoP0=3 IntGTp=3.
 FoFCou: FMM=T IPFlag=           0 FMFlag=      100000 FMFlg1=        2001
         NFxFlg=           0 DoJE=F BraDBF=F KetDBF=F FulRan=T
         wScrn=  0.000000 ICntrl=       500 IOpCl=  0 I1Cent=           0 NGrid=           0
         NMat0=   20 NMatS0=     20 NMatT0=    0 NMatD0=   20 NMtDS0=    0 NMtDT0=    0
 Symmetry not used in FoFCou.
 FMM levels:  10  Number of levels for PrismC:   9
 New state      2 was old state      4
 New state      3 was old state      7
 New state      4 was old state      6
 New state      5 was old state      2
 Excitation Energies [eV] at current iteration:
 Root      1 :     2.329135121487505
 Root      2 :     2.544547748318742
 Root      3 :     2.609130294264327
 Root      4 :     2.617811744000031
 Root      5 :     2.666466523525788
 Root      6 :     2.705897458415718
 Root      7 :     3.112037551636907
 Root      8 :     3.341852791692876
 Root      9 :     3.631953399919257
 Root     10 :     3.674838482539765
 Root     11 :     3.740307657005469
 Root     12 :     3.758001214826280
 Root     13 :     4.232255235459353
 Root     14 :     4.278669510956316
 Root     15 :     4.324120186050948
 Root     16 :     4.478967720218106
 Root     17 :     4.573854011322701
 Root     18 :     4.611676389757792
 Root     19 :     4.717390580359351
 Root     20 :     4.843653776292514
 Iteration     2 Dimension    30 NMult    20 NNew     10
 CISAX will form    10 AO SS matrices at one time.
 NMat=    10 NSing=    10 JSym2X= 0.
 New state      1 was old state      5
 Root      1 not converged, maximum delta is    0.228492015826218
 New state      2 was old state      3
 Root      2 not converged, maximum delta is    0.169623452060297
 New state      3 was old state      4
 Root      3 not converged, maximum delta is    0.188979162136659
 New state      4 was old state      1
 Root      4 not converged, maximum delta is    0.003435176197030
 New state      5 was old state      2
 Root      5 not converged, maximum delta is    0.005980446818205
 Excitation Energies [eV] at current iteration:
 Root      1 :     1.789944198132684   Change is   -0.876522325393104
 Root      2 :     2.174512305391398   Change is   -0.434617988872929
 Root      3 :     2.240732859144393   Change is   -0.377078884855637
 Root      4 :     2.328300076861842   Change is   -0.000835044625663
 Root      5 :     2.543539157413330   Change is   -0.001008590905412
 Iteration     3 Dimension    40 NMult    30 NNew     10
 CISAX will form    10 AO SS matrices at one time.
 NMat=    10 NSing=    10 JSym2X= 0.
 Root      1 not converged, maximum delta is    0.057426851072559
 Root      2 not converged, maximum delta is    0.370649128697176
 Root      3 not converged, maximum delta is    0.148578525197319
 No map to state      4
 New state      5 was old state      4
 Root      5 has converged.
 Excitation Energies [eV] at current iteration:
 Root      1 :     1.683850975372269   Change is   -0.106093222760415
 Root      2 :     1.799646435008302   Change is   -0.374865870383096
 Root      3 :     2.196163980582358   Change is   -0.044568878562036
 Root      4 :     2.222998389489830
 Root      5 :     2.328294376772579   Change is   -0.000005700089264
 Iteration     4 Dimension    48 NMult    40 NNew      8
 CISAX will form     8 AO SS matrices at one time.
 NMat=     8 NSing=     8 JSym2X= 0.
 Root      1 not converged, maximum delta is    0.013380559811650
 Root      2 not converged, maximum delta is    0.059055719153176
 Root      3 not converged, maximum delta is    0.327931969290046
 Root      4 not converged, maximum delta is    0.319258986938105
 Root      5 has converged.
 Excitation Energies [eV] at current iteration:
 Root      1 :     1.667075096354693   Change is   -0.016775879017576
 Root      2 :     1.694788364145364   Change is   -0.104858070862938
 Root      3 :     2.184543834975707   Change is   -0.011620145606651
 Root      4 :     2.195987304434014   Change is   -0.027011085055816
 Root      5 :     2.328294295462923   Change is   -0.000000081309656
 Iteration     5 Dimension    56 NMult    48 NNew      8
 CISAX will form     8 AO SS matrices at one time.
 NMat=     8 NSing=     8 JSym2X= 0.
 Root      1 not converged, maximum delta is    0.008575190201854
 Root      2 not converged, maximum delta is    0.009252929096571
 Root      3 not converged, maximum delta is    0.051265990768067
 Root      4 not converged, maximum delta is    0.051203175829698
 Root      5 has converged.
 Excitation Energies [eV] at current iteration:
 Root      1 :     1.665270964304059   Change is   -0.001804132050634
 Root      2 :     1.682845141266370   Change is   -0.011943222878994
 Root      3 :     2.182584326359035   Change is   -0.001959508616672
 Root      4 :     2.194222680781596   Change is   -0.001764623652418
 Root      5 :     2.328294278542708   Change is   -0.000000016920215
 Iteration     6 Dimension    64 NMult    56 NNew      8
 CISAX will form     8 AO SS matrices at one time.
 NMat=     8 NSing=     8 JSym2X= 0.
 Root      1 not converged, maximum delta is    0.001574064992331
 Root      2 not converged, maximum delta is    0.002749274973722
 Root      3 not converged, maximum delta is    0.005378306310858
 Root      4 not converged, maximum delta is    0.005961233563981
 Root      5 has converged.
 Excitation Energies [eV] at current iteration:
 Root      1 :     1.665013932538604   Change is   -0.000257031765455
 Root      2 :     1.681498109286492   Change is   -0.001347031979878
 Root      3 :     2.182332296003050   Change is   -0.000252030355985
 Root      4 :     2.193980596849363   Change is   -0.000242083932233
 Root      5 :     2.328294275432564   Change is   -0.000000003110144
 Iteration     7 Dimension    72 NMult    64 NNew      8
 CISAX will form     8 AO SS matrices at one time.
 NMat=     8 NSing=     8 JSym2X= 0.
 Root      1 has converged.
 Root      2 not converged, maximum delta is    0.001040519825607
 Root      3 not converged, maximum delta is    0.001062859821199
 Root      4 not converged, maximum delta is    0.001091313462832
 Root      5 has converged.
 Excitation Energies [eV] at current iteration:
[...]
 Alpha virt. eigenvalues --    1.83668   1.83791   1.83944   1.84124   1.84338
 Alpha virt. eigenvalues --    1.84602   1.84696   1.84712   1.84997   1.85087
 Alpha virt. eigenvalues --    1.85187   1.85322   1.85418   1.85473   1.85757
 Alpha virt. eigenvalues --    1.85773   1.86134   1.86281   1.86466   1.86584
 Alpha virt. eigenvalues --    1.86688   1.86855   1.86918   1.86986   1.87226
 Alpha virt. eigenvalues --    1.87343   1.87545   1.87728   1.87778   1.87944
 Alpha virt. eigenvalues --    1.87984   1.88196   1.88397   1.88438   1.88701
 Alpha virt. eigenvalues --    1.88874   1.89059   1.89169   1.89456   1.89538
 Alpha virt. eigenvalues --    1.89658   1.89878   1.90010   1.90043   1.90444
 Alpha virt. eigenvalues --    1.90628   1.91157   1.91214   1.91353   1.91582
 Alpha virt. eigenvalues --    1.92000   1.92047   1.92468   1.92513   1.92887
 Alpha virt. eigenvalues --    1.92968   1.93269   1.93386   1.93675   1.94203
 Alpha virt. eigenvalues --    1.94480   1.94607   1.94978   1.95418   1.95594
 Alpha virt. eigenvalues --    1.95734   1.95844   1.96086   1.96092   1.96284
 Alpha virt. eigenvalues --    1.96429   1.96499   1.96711   1.96810   1.97199
 Alpha virt. eigenvalues --    1.97351   1.97737   1.97749   1.98035   1.98042
 Alpha virt. eigenvalues --    1.98437   1.98480   1.98606   1.99013   1.99319
 Alpha virt. eigenvalues --    1.99673   2.00251   2.00573   2.00854   2.00959
 Alpha virt. eigenvalues --    2.01282   2.01323   2.01557   2.01601   2.01665
 Alpha virt. eigenvalues --    2.01849   2.02107   2.02663   2.02926   2.03149
 Alpha virt. eigenvalues --    2.03257   2.03321   2.03325   2.03619   2.03744
 Alpha virt. eigenvalues --    2.03917   2.04250   2.04870   2.05157   2.05419
 Alpha virt. eigenvalues --    2.05797   2.05969   2.06465   2.06707   2.07072
 Alpha virt. eigenvalues --    2.07268   2.07551   2.08512   2.08657   2.08863
 Alpha virt. eigenvalues --    2.09249   2.09444   2.09837   2.10734   2.11065
 Alpha virt. eigenvalues --    2.11173   2.11379   2.11608   2.11621   2.11810
 Alpha virt. eigenvalues --    2.12138   2.12333   2.12703   2.12736   2.12754
 Alpha virt. eigenvalues --    2.13033   2.13143   2.13595   2.14070   2.14088
 Alpha virt. eigenvalues --    2.14397   2.15227   2.15594   2.15789   2.16356
 Alpha virt. eigenvalues --    2.16448   2.16631   2.16854   2.17300   2.17372
 Alpha virt. eigenvalues --    2.17606   2.17780   2.17981   2.18139   2.18164
 Alpha virt. eigenvalues --    2.18315   2.18702   2.18922   2.19502   2.19560
 Alpha virt. eigenvalues --    2.19912   2.20078   2.20116   2.20465   2.20737
 Alpha virt. eigenvalues --    2.21113   2.21301   2.21552   2.21595   2.21978
 Alpha virt. eigenvalues --    2.22062   2.22585   2.22976   2.23226   2.23514
 Alpha virt. eigenvalues --    2.24308   2.24578   2.24926   2.25139   2.26137
 Alpha virt. eigenvalues --    2.26679   2.26685   2.26954   2.27220   2.27439
 Alpha virt. eigenvalues --    2.28018   2.28692   2.29173   2.29597   2.29724
 Alpha virt. eigenvalues --    2.30167   2.30306   2.30889   2.30913   2.31035
 Alpha virt. eigenvalues --    2.31119   2.31417   2.32040   2.32404   2.32992
 Alpha virt. eigenvalues --    2.33340   2.33517   2.33671   2.34058   2.34367
 Alpha virt. eigenvalues --    2.35170   2.35518   2.35671   2.36226   2.36304
 Alpha virt. eigenvalues --    2.36511   2.36533   2.36592   2.37598   2.37840
 Alpha virt. eigenvalues --    2.38181   2.38531   2.38699   2.39134   2.39491
 Alpha virt. eigenvalues --    2.39888   2.40098   2.40344   2.40422   2.41109
 Alpha virt. eigenvalues --    2.41142   2.41510   2.41627   2.41855   2.41865
 Alpha virt. eigenvalues --    2.42350   2.42893   2.42951   2.43233   2.43271
 Alpha virt. eigenvalues --    2.44019   2.44193   2.44614   2.44781   2.45010
 Alpha virt. eigenvalues --    2.45249   2.45447   2.45780   2.46205   2.46353
 Alpha virt. eigenvalues --    2.46487   2.46655   2.46676   2.47018   2.47143
 Alpha virt. eigenvalues --    2.47531   2.47611   2.48056   2.49239   2.49516
 Alpha virt. eigenvalues --    2.50017   2.50047   2.50498   2.50633   2.50963
 Alpha virt. eigenvalues --    2.51523   2.51738   2.51790   2.52276   2.52669
 Alpha virt. eigenvalues --    2.52686   2.53485   2.53822   2.54070   2.54168
 Alpha virt. eigenvalues --    2.54385   2.54680   2.54967   2.55417   2.55840
 Alpha virt. eigenvalues --    2.57764   2.58276   2.58553   2.59148   2.60029
 Alpha virt. eigenvalues --    2.60470   2.60558   2.61257   2.61618   2.62027
 Alpha virt. eigenvalues --    2.62400   2.62656   2.62831   2.63337   2.63817
 Alpha virt. eigenvalues --    2.64196   2.64514   2.64572   2.64973   2.65316
 Alpha virt. eigenvalues --    2.65639   2.66174   2.66705   2.66816   2.66991
 Alpha virt. eigenvalues --    2.67359   2.67812   2.68234   2.68715   2.68876
 Alpha virt. eigenvalues --    2.68996   2.69283   2.69317   2.69858   2.69892
 Alpha virt. eigenvalues --    2.70342   2.70853   2.71349   2.71874   2.72078
 Alpha virt. eigenvalues --    2.72475   2.72604   2.72676   2.73022   2.73201
 Alpha virt. eigenvalues --    2.73245   2.73426   2.73656   2.74382   2.74685
 Alpha virt. eigenvalues --    2.74836   2.75258   2.76500   2.76705   2.77079
 Alpha virt. eigenvalues --    2.77245   2.77338   2.77796   2.78089   2.78433
 Alpha virt. eigenvalues --    2.78551   2.78855   2.79010   2.79387   2.80186
 Alpha virt. eigenvalues --    2.80389   2.80402   2.80893   2.80959   2.81306
 Alpha virt. eigenvalues --    2.81795   2.82183   2.82242   2.82526   2.83565
 Alpha virt. eigenvalues --    2.83675   2.83974   2.84077   2.84442   2.84662
 Alpha virt. eigenvalues --    2.84803   2.85010   2.85573   2.85826   2.86805
 Alpha virt. eigenvalues --    2.86835   2.87370   2.87381   2.88054   2.88359
 Alpha virt. eigenvalues --    2.88402   2.88807   2.88822   2.89015   2.90372
 Alpha virt. eigenvalues --    2.90907   2.91123   2.91282   2.93019   2.93560
 Alpha virt. eigenvalues --    2.93982   2.94105   2.94488   2.94688   2.95205
 Alpha virt. eigenvalues --    2.95808   2.95930   2.96067   2.96353   2.96557
 Alpha virt. eigenvalues --    2.96945   2.97079   2.97612   2.98093   2.98146
 Alpha virt. eigenvalues --    2.98265   2.98475   2.98633   2.98778   2.98794
 Alpha virt. eigenvalues --    2.98999   2.99118   2.99552   2.99804   2.99914
 Alpha virt. eigenvalues --    3.00114   3.00219   3.00309   3.00478   3.01290
 Alpha virt. eigenvalues --    3.01898   3.01923   3.02142   3.02401   3.02501
 Alpha virt. eigenvalues --    3.02822   3.02973   3.03240   3.03607   3.04060
 Alpha virt. eigenvalues --    3.04109   3.04333   3.04406   3.04489   3.04636
 Alpha virt. eigenvalues --    3.04894   3.05244   3.05490   3.06006   3.06325
 Alpha virt. eigenvalues --    3.06653   3.07249   3.08074   3.08084   3.09237
 Alpha virt. eigenvalues --    3.09450   3.09567   3.10318   3.10780   3.11064
 Alpha virt. eigenvalues --    3.11272   3.11575   3.11765   3.12000   3.12171
 Alpha virt. eigenvalues --    3.12629   3.13140   3.13574   3.13799   3.13828
 Alpha virt. eigenvalues --    3.13915   3.14666   3.15906   3.16079   3.17135
 Alpha virt. eigenvalues --    3.17673   3.17959   3.17998   3.19035   3.19153
 Alpha virt. eigenvalues --    3.22004   3.22769   3.23818   3.24479   3.24594
 Alpha virt. eigenvalues --    3.25339   3.26386   3.26822   3.27493   3.27572
 Alpha virt. eigenvalues --    3.28776   3.29389   3.31393   3.31545   3.33308
 Alpha virt. eigenvalues --    3.33359   3.40319   3.40432   3.42717   3.42932
 Alpha virt. eigenvalues --    3.48507   3.48846   3.49913   3.50467   3.51030
 Alpha virt. eigenvalues --    3.51363   3.56442   3.57147   3.59010   3.59483
 Alpha virt. eigenvalues --    3.62662   3.62700   3.66088   3.66179   3.66897
 Alpha virt. eigenvalues --    3.67711   3.73023   3.74172   3.75849   3.76824
          Condensed to atoms (all electrons):
 Mulliken charges:
               1
     1  Mg   0.838950
     2  C   -0.004138
     3  C   -0.093920
     4  C   -0.045638
     5  C   -0.063364
     6  N   -0.256856
     7  C   -0.052698
     8  C   -0.014090
     9  C   -0.087098
    10  C    0.046337
    11  C    0.104701
    12  C    0.053546
    13  C   -0.071254
    14  H    0.033281
    15  N   -0.433239
    16  C    0.168820
    17  C   -0.176594
    18  C   -0.003671
    19  C    0.148915
    20  C    0.109949
    21  C    0.012118
    22  O   -0.249579
    23  C    0.062232
    24  N   -0.341194
    25  C    0.041633
    26  C   -0.028270
    27  C   -0.024082
    28  C    0.074855
    29  C    0.076079
    30  C    0.034971
    31  C   -0.005063
    32  N   -0.310228
    33  C    0.079938
    34  C   -0.170027
    35  C    0.007743
    36  C    0.082408
    37  C    0.127472
    38  C    0.044897
    39  O   -0.189444
    40  C   -0.005057
    41  C    0.213705
    42  O   -0.260916
    43  O   -0.303660
    44  C    0.158381
    45  H   -0.017281
    46  H   -0.016523
    47  H   -0.040651
    48  H    0.000815
    49  H   -0.003844
    50  H    0.025496
    51  H    0.016886
    52  H    0.016987
    53  H    0.011958
    54  H    0.041777
    55  H    0.018624
    56  H    0.018846
    57  H    0.006063
    58  H    0.027109
    59  H    0.040751
    60  H    0.037749
    61  H    0.035566
    62  H    0.032133
    63  H    0.016721
    64  H    0.009770
    65  H    0.023499
    66  H    0.012413
    67  H    0.005174
    68  H    0.006854
    69  H    0.005725
    70  H    0.007976
    71  H    0.020786
    72  H    0.028382
    73  H    0.046722
    74  H    0.010222
    75  H    0.046255
    76  H    0.035690
    77  H    0.043697
    78  H    0.046888
    79  H    0.050565
    80  Mg   0.837232
    81  C   -0.016986
    82  C   -0.087094
    83  C   -0.046690
    84  C   -0.065159
    85  N   -0.255165
    86  C   -0.048542
    87  C   -0.015339
    88  C   -0.090430
    89  C    0.045655
    90  C    0.113898
    91  C    0.062358
    92  C   -0.077501
    93  H    0.032773
    94  N   -0.423535
    95  C    0.162790
    96  C   -0.174418
    97  C   -0.008953
    98  C    0.152556
    99  C    0.099589
   100  C    0.014799
   101  O   -0.254458
   102  C    0.061497
   103  N   -0.350261
   104  C    0.037642
   105  C   -0.019653
   106  C   -0.035042
   107  C    0.088890
   108  C    0.073538
   109  C    0.034945
   110  C   -0.007529
   111  N   -0.324001
   112  C    0.078338
   113  C   -0.163719
   114  C    0.001885
   115  C    0.096169
   116  C    0.131619
   117  C    0.041495
   118  O   -0.189079
   119  C    0.001410
   120  C    0.211259
   121  O   -0.251478
   122  O   -0.305168
   123  C    0.152292
   124  H   -0.016069
   125  H   -0.017108
   126  H   -0.041001
   127  H    0.000538
   128  H   -0.005004
   129  H    0.021191
   130  H    0.015619
   131  H    0.029816
   132  H    0.013019
   133  H    0.036379
   134  H    0.022804
   135  H    0.019570
   136  H    0.010025
   137  H    0.024730
   138  H    0.038956
   139  H    0.037445
   140  H    0.035327
   141  H    0.034092
   142  H    0.013721
   143  H    0.013241
   144  H    0.023314
   145  H    0.010295
   146  H    0.006908
   147  H    0.005564
   148  H    0.003634
   149  H    0.010407
   150  H    0.017467
   151  H    0.030472
   152  H    0.045424
   153  H    0.008322
   154  H    0.045825
   155  H    0.035531
   156  H    0.043290
   157  H    0.050253
   158  H    0.052924
 Sum of Mulliken charges =  -0.00000
 Mulliken charges with hydrogens summed into heavy atoms:
               1
     1  Mg   0.838950
     2  C   -0.004138
     3  C   -0.111201
     4  C   -0.062161
     5  C   -0.104015
     6  N   -0.256856
     7  C   -0.052698
     8  C   -0.013275
     9  C   -0.090941
    10  C    0.046337
    11  C    0.164070
    12  C    0.107281
    13  C   -0.000503
    15  N   -0.433239
    16  C    0.168820
    17  C   -0.176594
    18  C   -0.003671
    19  C    0.148915
    20  C    0.183872
    21  C    0.012118
    22  O   -0.249579
    23  C    0.167680
    24  N   -0.341194
    25  C    0.041633
    26  C   -0.011549
    27  C   -0.014312
    28  C    0.074855
    29  C    0.117165
    30  C    0.047550
    31  C    0.052081
    32  N   -0.310228
    33  C    0.079938
    34  C   -0.170027
    35  C    0.007743
    36  C    0.082408
    37  C    0.230671
    38  C    0.044897
    39  O   -0.189444
    40  C    0.030633
    41  C    0.213705
    42  O   -0.260916
    43  O   -0.303660
    44  C    0.299532
    80  Mg   0.837232
    81  C   -0.016986
    82  C   -0.103162
    83  C   -0.063798
    84  C   -0.106160
    85  N   -0.255165
    86  C   -0.048542
    87  C   -0.014802
    88  C   -0.095434
    89  C    0.045655
    90  C    0.180524
    91  C    0.111756
    92  C   -0.002354
    94  N   -0.423535
    95  C    0.162790
    96  C   -0.174418
    97  C   -0.008953
    98  C    0.152556
    99  C    0.173299
   100  C    0.014799
   101  O   -0.254458
   102  C    0.168361
   103  N   -0.350261
   104  C    0.037642
   105  C   -0.005932
   106  C   -0.021801
   107  C    0.088890
   108  C    0.114055
   109  C    0.044142
   110  C    0.050817
   111  N   -0.324001
   112  C    0.078338
   113  C   -0.163719
   114  C    0.001885
   115  C    0.096169
   116  C    0.231189
   117  C    0.041495
   118  O   -0.189079
   119  C    0.036941
   120  C    0.211259
   121  O   -0.251478
   122  O   -0.305168
   123  C    0.298759
 Electronic spatial extent (au):  <R**2>=          97774.3010
 Charge=             -0.0000 electrons
 Dipole moment (field-independent basis, Debye):
    X=             -5.5784    Y=              1.4326    Z=              5.1590  Tot=              7.7322
 Quadrupole moment (field-independent basis, Debye-Ang):
   XX=           -518.4619   YY=           -514.9868   ZZ=           -485.9597
   XY=            -15.4876   XZ=              0.1566   YZ=            -17.2147
 Traceless Quadrupole moment (field-independent basis, Debye-Ang):
   XX=            -11.9924   YY=             -8.5173   ZZ=             20.5097
   XY=            -15.4876   XZ=              0.1566   YZ=            -17.2147
 Octapole moment (field-independent basis, Debye-Ang**2):
  XXX=           -403.6730  YYY=             -7.6694  ZZZ=            128.0804  XYY=            224.5311
  XXY=             81.1410  XXZ=            236.1719  XZZ=           -217.4173  YZZ=           -178.8535
  YYZ=             33.3052  XYZ=           -173.4110
 Hexadecapole moment (field-independent basis, Debye-Ang**3):
 XXXX=         -67841.1177 YYYY=         -36118.5165 ZZZZ=         -29268.7727 XXXY=           -249.1035
 XXXZ=           -186.6521 YYYX=          -1514.1978 YYYZ=            231.5626 ZZZX=            770.5792
 ZZZY=          -1013.5424 XXYY=         -16466.3456 XXZZ=         -16114.1523 YYZZ=         -11220.6291
 XXYZ=           -154.3629 YYXZ=          -1400.7530 ZZXY=            195.4293
 N-N= 1.549182641920D+04 E-N=-4.046479487401D+04  KE= 4.028800525123D+03
 Leave Link  601 at Sat Sep  4 00:29:44 2021, MaxMem= 23488102400 cpu:              19.2 elap:               0.9
 (Enter /sw/apps/gaussian-16.0/g16/l9999.exe)
 1\1\GINC-BP1-COMPUTE00098\SP\RCAM-B3LYP TD-FC\def2SVP\C68H72Mg2N8O8\OF
 15641\04-Sep-2021\0\\#p cam-b3lyp/Def2SVP td=(nstates=5)\\TDDFT excite
 d states in gaussian\\0,1\Mg,0,0.,0.,0.\C,0,-0.217,-2.218,2.801\C,0,-1
 .255,2.442,2.026\C,0,-0.245,1.85,-2.564\C,0,0.146,-2.824,-2.037\N,0,-0
 .617,-0.009,2.126\C,0,-0.594,-0.908,3.105\C,0,-0.936,-0.309,4.502\C,0,
 -1.773,0.964,4.032\C,0,-1.155,1.168,2.66\C,0,-3.263,0.685,3.863\C,0,0.
 345,0.11,5.299\C,0,0.124,0.397,6.787\H,0,1.168,0.033,7.733\N,0,-0.185,
 1.961,-0.152\C,0,-0.703,2.8,0.777\C,0,-0.62,4.156,0.193\C,0,-0.187,4.0
 15,-1.225\C,0,-0.214,2.583,-1.38\C,0,-0.887,5.406,0.974\C,0,0.181,5.01
 3,-2.277\O,0,0.303,4.69,-3.508\C,0,0.31,6.414,-1.837\N,0,-0.265,-0.413
 ,-2.029\C,0,-0.279,0.569,-2.937\C,0,-0.196,0.024,-4.332\C,0,0.124,-1.5
 33,-4.18\C,0,0.086,-1.632,-2.635\C,0,-1.451,0.205,-5.197\C,0,1.373,-2.
 07,-4.923\C,0,2.626,-1.49,-4.306\N,0,0.15,-2.144,0.303\C,0,0.173,-3.13
 6,-0.688\C,0,0.173,-4.438,0.004\C,0,0.133,-4.111,1.358\C,0,0.083,-2.69
 5,1.502\C,0,0.149,-5.715,-0.623\C,0,0.096,-4.629,2.716\O,0,0.208,-5.74
 7,3.221\C,0,-0.255,-3.428,3.701\C,0,0.717,-3.482,4.848\O,0,1.931,-3.25
 5,4.669\O,0,0.038,-3.556,6.003\C,0,0.943,-3.583,7.183\H,0,-1.859,3.22,
 2.497\H,0,-0.218,2.453,-3.474\H,0,0.276,-3.747,-2.605\H,0,-1.554,-0.94
 9,5.132\H,0,-1.585,1.831,4.665\H,0,-3.484,-0.377,3.969\H,0,-3.511,1.02
 7,2.858\H,0,-3.852,1.301,4.543\H,0,0.669,1.096,4.966\H,0,1.13,-0.639,5
 .189\H,0,-0.844,0.026,7.125\H,0,0.062,1.477,6.921\H,0,-1.344,5.186,1.9
 38\H,0,-1.651,5.963,0.432\H,0,0.007,6.02,1.084\H,0,-0.635,6.744,-1.405
 \H,0,0.665,6.97,-2.704\H,0,1.048,6.466,-1.036\H,0,0.608,0.501,-4.891\H
 ,0,-0.692,-2.156,-4.547\H,0,-1.267,0.74,-6.129\H,0,-2.204,0.714,-4.596
 \H,0,-1.967,-0.72,-5.453\H,0,1.356,-1.759,-5.967\H,0,1.452,-3.157,-4.9
 02\H,0,2.714,-0.522,-4.798\H,0,3.487,-2.121,-4.529\H,0,2.495,-1.303,-3
 .24\H,0,0.867,-6.333,-0.084\H,0,0.404,-5.642,-1.68\H,0,-0.891,-5.999,-
 0.463\H,0,-1.283,-3.581,4.028\H,0,0.698,-4.478,7.755\H,0,0.833,-2.619,
 7.68\H,0,2.,-3.754,6.976\Mg,0,8.9414,0.80012,0.68524\C,0,9.13183,-2.55
 251,-0.58074\C,0,7.95268,-0.53947,3.66224\C,0,8.3306,3.7456,1.69442\C,
 0,8.825,1.89408,-2.62163\N,0,8.62136,-1.29018,1.33368\C,0,8.78456,-2.4
 8444,0.78462\C,0,8.64159,-3.67211,1.77385\C,0,7.72774,-2.95359,2.88177
 \C,0,8.14679,-1.5046,2.64198\C,0,6.23863,-3.07253,2.60295\C,0,10.02109
 ,-4.12207,2.37093\C,0,9.99792,-5.4667,3.10113\H,0,11.17185,-6.33013,3.
 00709\N,0,8.72163,1.50709,2.52656\C,0,8.33506,0.81938,3.6215\C,0,8.309
 26,1.79581,4.72154\C,0,8.55259,3.14944,4.15303\C,0,8.52306,2.84924,2.7
 356\C,0,8.14955,1.39707,6.15991\C,0,8.76269,4.494,4.78087\O,0,8.71881,
 5.57346,4.09118\C,0,8.92839,4.51681,6.24153\N,0,8.41093,2.54871,-0.306
 41\C,0,8.25627,3.70394,0.36399\C,0,8.14802,4.87445,-0.58396\C,0,8.5060
 8,4.29124,-2.02938\C,0,8.67994,2.80051,-1.66481\C,0,6.78474,5.56368,-0
 .63697\C,0,9.64664,4.9989,-2.81105\C,0,10.9683,4.77278,-2.11284\N,0,9.
 15574,-0.10994,-1.26256\C,0,9.04515,0.52652,-2.51825\C,0,9.15356,-0.52
 491,-3.55033\C,0,9.29778,-1.71242,-2.81718\C,0,9.26021,-1.42401,-1.426
 17\C,0,9.06581,-0.32245,-4.95654\C,0,9.46259,-3.14562,-2.90363\O,0,9.6
 4647,-3.94515,-3.82052\C,0,9.23561,-3.76845,-1.459\C,0,10.35627,-4.734
 59,-1.18841\O,0,11.52707,-4.32984,-1.07874\O,0,9.83693,-5.93921,-0.889
 19\C,0,10.90931,-6.92885,-0.60208\H,0,7.41916,-0.83876,4.56483\H,0,8.2
 2613,4.79292,1.98714\H,0,8.89641,2.16562,-3.67702\H,0,8.12826,-4.5379,
 1.37299\H,0,8.00219,-3.26883,3.88509\H,0,6.04358,-3.52059,1.63997\H,0,
 5.85164,-2.06247,2.63564\H,0,5.74458,-3.61105,3.41674\H,0,10.28316,-3.
 45941,3.20576\H,0,10.77852,-4.13629,1.61151\H,0,9.08452,-6.03547,2.888
 62\H,0,9.95148,-5.27699,4.17625\H,0,7.82543,0.35332,6.25439\H,0,7.3129
 6,1.97873,6.56198\H,0,9.04152,1.60271,6.75554\H,0,8.05125,4.07826,6.71
 137\H,0,9.15598,5.55436,6.49365\H,0,9.77935,3.87965,6.50708\H,0,8.8641
 3,5.64601,-0.32907\H,0,7.64862,4.34892,-2.71588\H,0,6.83313,6.64499,-0
 .40784\H,0,6.11991,5.05857,0.05108\H,0,6.25491,5.46709,-1.58309\H,0,9.
 48326,6.07931,-2.82388\H,0,9.72978,4.67349,-3.84264\H,0,10.97229,5.543
 66,-1.33644\H,0,11.79587,4.90693,-2.80651\H,0,10.98634,3.79872,-1.6103
 2\H,0,9.84953,-0.91747,-5.40626\H,0,9.1672,0.72983,-5.21382\H,0,8.0555
 ,-0.69551,-5.14463\H,0,8.26256,-4.26112,-1.46384\H,0,10.75107,-7.7761,
 -1.27648\H,0,10.84655,-7.13079,0.48375\H,0,11.92735,-6.65018,-0.84783\
 \Version=ES64L-G16RevA.03\State=1-A\HF=-4069.81301\RMSD=6.906e-09\PG=C
 01 [X(C68H72Mg2N8O8)]\\@


 SIGN SEEN IN A RESTAURANT-
 WE RESERVE THE RIGHT TO SERVE REFUSE TO ANYONE.
 Job cpu time:       0 days 15 hours 23 minutes 18.0 seconds.
 Elapsed time:       0 days  0 hours 39 minutes 10.2 seconds.
 File lengths (MBytes):  RWF=  13225 Int=      0 D2E=      0 Chk=    574 Scr=      1
 Normal termination of Gaussian 16 at Sat Sep  4 00:29:45 2021.
