 Entering Gaussian System, Link 0=g16
 Initial command:
 /sw/apps/gaussian-16.0/g16/l1.exe "/tmp/Gau-148664.inp" -scrdir="/tmp/"
 Entering Link 1 = /sw/apps/gaussian-16.0/g16/l1.exe PID=    148666.
  
 Copyright (c) 1988,1990,1992,1993,1995,1998,2003,2009,2016,
            Gaussian, Inc.  All Rights Reserved.
  
 This is part of the Gaussian(R) 16 program.  It is based on
 the Gaussian(R) 09 system (copyright 2009, Gaussian, Inc.),
 the Gaussian(R) 03 system (copyright 2003, Gaussian, Inc.),
 the Gaussian(R) 98 system (copyright 1998, Gaussian, Inc.),
 the Gaussian(R) 94 system (copyright 1995, Gaussian, Inc.),
 the Gaussian 92(TM) system (copyright 1992, Gaussian, Inc.),
 the Gaussian 90(TM) system (copyright 1990, Gaussian, Inc.),
 the Gaussian 88(TM) system (copyright 1988, Gaussian, Inc.),
 the Gaussian 86(TM) system (copyright 1986, Carnegie Mellon
 University), and the Gaussian 82(TM) system (copyright 1983,
 Carnegie Mellon University). Gaussian is a federally registered
 trademark of Gaussian, Inc.
  
 This software contains proprietary and confidential information,
 including trade secrets, belonging to Gaussian, Inc.
  
 This software is provided under written license and may be
 used, copied, transmitted, or stored only in accord with that
 written license.
  
 The following legend is applicable only to US Government
 contracts under FAR:
  
                    RESTRICTED RIGHTS LEGEND
  
 Use, reproduction and disclosure by the US Government is
 subject to restrictions as set forth in subparagraphs (a)
 and (c) of the Commercial Computer Software - Restricted
 Rights clause in FAR 52.227-19.
  
 Gaussian, Inc.
 340 Quinnipiac St., Bldg. 40, Wallingford CT 06492
  
  
 ---------------------------------------------------------------
 Warning -- This program may not be used in any manner that
 competes with the business of Gaussian, Inc. or will provide
 assistance to any competitor of Gaussian, Inc.  The licensee
 of this program is prohibited from giving any competitor of
 Gaussian, Inc. access to this program.  By using this program,
 the user acknowledges that Gaussian, Inc. is engaged in the
 business of creating and licensing software in the field of
 computational chemistry and represents and warrants to the
 licensee that it is not a competitor of Gaussian, Inc. and that
 it will not use this program in any manner prohibited above.
 ---------------------------------------------------------------
  

 Cite this work as:
 Gaussian 16, Revision A.03,
 M. J. Frisch, G. W. Trucks, H. B. Schlegel, G. E. Scuseria, 
 M. A. Robb, J. R. Cheeseman, G. Scalmani, V. Barone, 
 G. A. Petersson, H. Nakatsuji, X. Li, M. Caricato, A. V. Marenich, 
 J. Bloino, B. G. Janesko, R. Gomperts, B. Mennucci, H. P. Hratchian, 
 J. V. Ortiz, A. F. Izmaylov, J. L. Sonnenberg, D. Williams-Young, 
 F. Ding, F. Lipparini, F. Egidi, J. Goings, B. Peng, A. Petrone, 
 T. Henderson, D. Ranasinghe, V. G. Zakrzewski, J. Gao, N. Rega, 
 G. Zheng, W. Liang, M. Hada, M. Ehara, K. Toyota, R. Fukuda, 
 J. Hasegawa, M. Ishida, T. Nakajima, Y. Honda, O. Kitao, H. Nakai, 
 T. Vreven, K. Throssell, J. A. Montgomery, Jr., J. E. Peralta, 
 F. Ogliaro, M. J. Bearpark, J. J. Heyd, E. N. Brothers, K. N. Kudin, 
 V. N. Staroverov, T. A. Keith, R. Kobayashi, J. Normand, 
 K. Raghavachari, A. P. Rendell, J. C. Burant, S. S. Iyengar, 
 J. Tomasi, M. Cossi, J. M. Millam, M. Klene, C. Adamo, R. Cammi, 
 J. W. Ochterski, R. L. Martin, K. Morokuma, O. Farkas, 
 J. B. Foresman, and D. J. Fox, Gaussian, Inc., Wallingford CT, 2016.
 
 ******************************************
 Gaussian 16:  ES64L-G16RevA.03 25-Dec-2016
                 9-Sep-2021 
 ******************************************
 %nproc=24
 Will use up to   24 processors via shared memory.
 %mem=175gb
 -----------------------------------
 #p cam-b3lyp/Def2SVP td=(nstates=5)
 -----------------------------------
 1/38=1,172=1/1;
 2/12=2,17=6,18=5,40=1/2;
 3/5=43,7=101,11=9,25=1,30=1,74=-40/1,2,3,8;
 4//1;
 5/5=2,38=5/2;
 8/6=1,10=1,108=5/1;
 9/41=5,42=1,70=2/14;
 6/7=2,8=2,9=2,10=2/1;
 99/5=1,9=1/99;
 Leave Link    1 at Thu Sep  9 14:27:56 2021, MaxMem= 23488102400 cpu:               0.6 elap:               0.0
 (Enter /sw/apps/gaussian-16.0/g16/l101.exe)
 --------------------------------
 TDDFT excited states in gaussian
 --------------------------------
 Symbolic Z-matrix:
 Charge =  0 Multiplicity = 1
 Mg                    0.        0.        0. 
 C                    -0.217    -2.218     2.801 
 C                    -1.255     2.442     2.026 
 C                    -0.245     1.85     -2.564 
 C                     0.146    -2.824    -2.037 
 N                    -0.617    -0.009     2.126 
 C                    -0.594    -0.908     3.105 
 C                    -0.936    -0.309     4.502 
 C                    -1.773     0.964     4.032 
 C                    -1.155     1.168     2.66 
 C                    -3.263     0.685     3.863 
 C                     0.345     0.11      5.299 
 C                     0.124     0.397     6.787 
 H                     1.168     0.033     7.733 
 N                    -0.185     1.961    -0.152 
 C                    -0.703     2.8       0.777 
 C                    -0.62      4.156     0.193 
 C                    -0.187     4.015    -1.225 
 C                    -0.214     2.583    -1.38 
 C                    -0.887     5.406     0.974 
 C                     0.181     5.013    -2.277 
 O                     0.303     4.69     -3.508 
 C                     0.31      6.414    -1.837 
 N                    -0.265    -0.413    -2.029 
 C                    -0.279     0.569    -2.937 
 C                    -0.196     0.024    -4.332 
 C                     0.124    -1.533    -4.18 
 C                     0.086    -1.632    -2.635 
 C                    -1.451     0.205    -5.197 
 C                     1.373    -2.07     -4.923 
 C                     2.626    -1.49     -4.306 
 N                     0.15     -2.144     0.303 
 C                     0.173    -3.136    -0.688 
 C                     0.173    -4.438     0.004 
 C                     0.133    -4.111     1.358 
 C                     0.083    -2.695     1.502 
 C                     0.149    -5.715    -0.623 
 C                     0.096    -4.629     2.716 
 O                     0.208    -5.747     3.221 
 C                    -0.255    -3.428     3.701 
 C                     0.717    -3.482     4.848 
 O                     1.931    -3.255     4.669 
 O                     0.038    -3.556     6.003 
 C                     0.943    -3.583     7.183 
 H                    -1.859     3.22      2.497 
 H                    -0.218     2.453    -3.474 
 H                     0.276    -3.747    -2.605 
 H                    -1.554    -0.949     5.132 
 H                    -1.585     1.831     4.665 
 H                    -3.484    -0.377     3.969 
 H                    -3.511     1.027     2.858 
 H                    -3.852     1.301     4.543 
 H                     0.669     1.096     4.966 
 H                     1.13     -0.639     5.189 
 H                    -0.844     0.026     7.125 
 H                     0.062     1.477     6.921 
 H                    -1.344     5.186     1.938 
 H                    -1.651     5.963     0.432 
 H                     0.007     6.02      1.084 
 H                    -0.635     6.744    -1.405 
 H                     0.665     6.97     -2.704 
 H                     1.048     6.466    -1.036 
 H                     0.608     0.501    -4.891 
 H                    -0.692    -2.156    -4.547 
 H                    -1.267     0.74     -6.129 
 H                    -2.204     0.714    -4.596 
 H                    -1.967    -0.72     -5.453 
 H                     1.356    -1.759    -5.967 
 H                     1.452    -3.157    -4.902 
 H                     2.714    -0.522    -4.798 
 H                     3.487    -2.121    -4.529 
 H                     2.495    -1.303    -3.24 
 H                     0.867    -6.333    -0.084 
 H                     0.404    -5.642    -1.68 
 H                    -0.891    -5.999    -0.463 
 H                    -1.283    -3.581     4.028 
 H                     0.698    -4.478     7.755 
 H                     0.833    -2.619     7.68 
 H                     2.       -3.754     6.976 
 Mg                    8.92563   0.80588   0.68468 
 C                     10.24069   3.00965   3.19328 
 C                     8.18486  -1.37431   3.20115 
 C                     8.17458  -1.33943  -1.52914 
 C                     10.76918   2.60403  -1.66345 
 N                     9.22222   0.91689   2.87373 
 C                     9.67585   1.82936   3.71988 
 C                     9.44208   1.49117   5.21672 
 C                     9.33279  -0.10583   5.0882 
 C                     8.84914  -0.20219   3.6427 
 C                     10.67495  -0.8111    5.19081 
 C                     8.11299   2.11521   5.77 
 C                     7.97494   2.08716   7.29378 
 H                     7.30576   3.2054    7.95273 
 N                     7.84293  -0.852     0.81793 
 C                     7.62907  -1.59765   1.92226 
 C                     6.78461  -2.72238   1.49096 
 C                     6.65378  -2.66958   0.00947 
 C                     7.58952  -1.6072   -0.30009 
 C                     6.12899  -3.66518   2.45777 
 C                     5.83309  -3.45503  -0.96815 
 O                     6.05424  -3.40095  -2.2295 
 C                     4.82443  -4.36058  -0.39889 
 N                     9.56334   0.51747  -1.273 
 C                     9.03854  -0.4587   -2.03431 
 C                     9.44516  -0.30111  -3.48007 
 C                     10.15771   1.12762  -3.57268 
 C                     10.11738   1.52765  -2.08145 
 C                     10.38529  -1.37482  -4.02753 
 C                     9.59722   2.12693  -4.62144 
 C                     8.20524   2.56397  -4.22549 
 N                     10.11895   2.60699   0.69235 
 C                     10.82391   3.16776  -0.39514 
 C                     11.57955   4.32519   0.1262 
 C                     11.27752   4.34379   1.49621 
 C                     10.41191   3.26146   1.81052 
 C                     12.44814   5.16094  -0.6309 
 C                     11.50259   5.0266    2.74993 
 O                     12.07805   6.06133   3.08446 
 C                     10.94216   4.11829   3.92776 
 C                     10.117    4.99005   4.83422 
 O                     9.06217   5.50688   4.42577 
 O                     10.59123   4.89377   6.0897 
 C                     9.79837   5.73225   7.02786 
 H                     8.1184   -2.22154   3.88428 
 H                     7.86012  -1.98576  -2.35185 
 H                     11.28999   3.27453  -2.35037 
 H                     10.26043   1.75604   5.87545 
 H                     8.58526  -0.50655   5.7679 
 H                     11.49701  -0.11127   5.21505 
 H                     10.74243  -1.44386   4.31553 
 H                     10.68141  -1.4858    6.05166 
 H                     7.27103   1.46776   5.49312 
 H                     7.98643   3.11917   5.41412 
 H                     8.92704   1.86274   7.78986 
 H                     7.32632   1.25168   7.56814 
 H                     6.54151  -3.55615   3.46839 
 H                     6.41202  -4.67968   2.15686 
 H                     5.03984  -3.58543   2.45097 
 H                     5.31204  -5.07735   0.25757 
 H                     4.27993  -4.76601  -1.25389 
 H                     4.1416   -3.77481   0.22658 
 H                     8.57749  -0.30376  -4.12833 
 H                     11.21949   1.03652  -3.84499 
 H                     9.98379  -1.8934   -4.91856 
 H                     10.59203  -2.08315  -3.23628 
 H                     11.38208  -1.0252   -4.29089 
 H                     9.50456   1.641    -5.59583 
 H                     10.21987   3.00491  -4.75734 
 H                     7.57493   1.75452  -4.60575 
 H                     7.95396   3.51331  -4.69415 
 H                     8.09419   2.58377  -3.13511 
 H                     12.23733   6.1796   -0.33362 
 H                     12.30348   5.01993  -1.7 
 H                     13.4194   4.78767  -0.29535 
 H                     11.79985   3.68621   4.44473 
 H                     10.50264   6.40209   7.53086 
 H                     9.23804   5.02109   7.66349 
 H                     9.10109   6.44217   6.5986 
 
 ITRead=  0  0  0  0  0  0  0  0  0  0  0  0  0  0  0  0  0  0  0  0
 ITRead=  0  0  0  0  0  0  0  0  0  0  0  0  0  0  0  0  0  0  0  0
 ITRead=  0  0  0  0  0  0  0  0  0  0  0  0  0  0  0  0  0  0  0  0
 ITRead=  0  0  0  0  0  0  0  0  0  0  0  0  0  0  0  0  0  0  0  0
 ITRead=  0  0  0  0  0  0  0  0  0  0  0  0  0  0  0  0  0  0  0  0
 ITRead=  0  0  0  0  0  0  0  0  0  0  0  0  0  0  0  0  0  0  0  0
 ITRead=  0  0  0  0  0  0  0  0  0  0  0  0  0  0  0  0  0  0  0  0
 ITRead=  0  0  0  0  0  0  0  0  0  0  0  0  0  0  0  0  0  0
 MicOpt= -1 -1 -1 -1 -1 -1 -1 -1 -1 -1 -1 -1 -1 -1 -1 -1 -1 -1 -1 -1
 MicOpt= -1 -1 -1 -1 -1 -1 -1 -1 -1 -1 -1 -1 -1 -1 -1 -1 -1 -1 -1 -1
 MicOpt= -1 -1 -1 -1 -1 -1 -1 -1 -1 -1 -1 -1 -1 -1 -1 -1 -1 -1 -1 -1
 MicOpt= -1 -1 -1 -1 -1 -1 -1 -1 -1 -1 -1 -1 -1 -1 -1 -1 -1 -1 -1 -1
 MicOpt= -1 -1 -1 -1 -1 -1 -1 -1 -1 -1 -1 -1 -1 -1 -1 -1 -1 -1 -1 -1
 MicOpt= -1 -1 -1 -1 -1 -1 -1 -1 -1 -1 -1 -1 -1 -1 -1 -1 -1 -1 -1 -1
 MicOpt= -1 -1 -1 -1 -1 -1 -1 -1 -1 -1 -1 -1 -1 -1 -1 -1 -1 -1 -1 -1
 MicOpt= -1 -1 -1 -1 -1 -1 -1 -1 -1 -1 -1 -1 -1 -1 -1 -1 -1 -1
 NAtoms=    158 NQM=      158 NQMF=       0 NMMI=      0 NMMIF=      0
                NMic=       0 NMicF=      0.
                    Isotopes and Nuclear Properties:
 (Nuclear quadrupole moments (NQMom) in fm**2, nuclear magnetic moments (NMagM)
  in nuclear magnetons)

  Atom         1           2           3           4           5           6           7           8           9          10
 IAtWgt=          24          12          12          12          12          14          12          12          12          12
 AtmWgt=  23.9850450  12.0000000  12.0000000  12.0000000  12.0000000  14.0030740  12.0000000  12.0000000  12.0000000  12.0000000
 NucSpn=           0           0           0           0           0           2           0           0           0           0
 AtZEff=  -0.0000000  -0.0000000  -0.0000000  -0.0000000  -0.0000000  -0.0000000  -0.0000000  -0.0000000  -0.0000000  -0.0000000
 NQMom=    0.0000000   0.0000000   0.0000000   0.0000000   0.0000000   2.0440000   0.0000000   0.0000000   0.0000000   0.0000000
 NMagM=    0.0000000   0.0000000   0.0000000   0.0000000   0.0000000   0.4037610   0.0000000   0.0000000   0.0000000   0.0000000
 AtZNuc=  12.0000000   6.0000000   6.0000000   6.0000000   6.0000000   7.0000000   6.0000000   6.0000000   6.0000000   6.0000000

  Atom        11          12          13          14          15          16          17          18          19          20
 IAtWgt=          12          12          12           1          14          12          12          12          12          12
 AtmWgt=  12.0000000  12.0000000  12.0000000   1.0078250  14.0030740  12.0000000  12.0000000  12.0000000  12.0000000  12.0000000
 NucSpn=           0           0           0           1           2           0           0           0           0           0
 AtZEff=  -0.0000000  -0.0000000  -0.0000000  -0.0000000  -0.0000000  -0.0000000  -0.0000000  -0.0000000  -0.0000000  -0.0000000
 NQMom=    0.0000000   0.0000000   0.0000000   0.0000000   2.0440000   0.0000000   0.0000000   0.0000000   0.0000000   0.0000000
 NMagM=    0.0000000   0.0000000   0.0000000   2.7928460   0.4037610   0.0000000   0.0000000   0.0000000   0.0000000   0.0000000
 AtZNuc=   6.0000000   6.0000000   6.0000000   1.0000000   7.0000000   6.0000000   6.0000000   6.0000000   6.0000000   6.0000000

  Atom        21          22          23          24          25          26          27          28          29          30
 IAtWgt=          12          16          12          14          12          12          12          12          12          12
 AtmWgt=  12.0000000  15.9949146  12.0000000  14.0030740  12.0000000  12.0000000  12.0000000  12.0000000  12.0000000  12.0000000
 NucSpn=           0           0           0           2           0           0           0           0           0           0
 AtZEff=  -0.0000000  -0.0000000  -0.0000000  -0.0000000  -0.0000000  -0.0000000  -0.0000000  -0.0000000  -0.0000000  -0.0000000
 NQMom=    0.0000000   0.0000000   0.0000000   2.0440000   0.0000000   0.0000000   0.0000000   0.0000000   0.0000000   0.0000000
 NMagM=    0.0000000   0.0000000   0.0000000   0.4037610   0.0000000   0.0000000   0.0000000   0.0000000   0.0000000   0.0000000
 AtZNuc=   6.0000000   8.0000000   6.0000000   7.0000000   6.0000000   6.0000000   6.0000000   6.0000000   6.0000000   6.0000000

  Atom        31          32          33          34          35          36          37          38          39          40
 IAtWgt=          12          14          12          12          12          12          12          12          16          12
 AtmWgt=  12.0000000  14.0030740  12.0000000  12.0000000  12.0000000  12.0000000  12.0000000  12.0000000  15.9949146  12.0000000
 NucSpn=           0           2           0           0           0           0           0           0           0           0
 AtZEff=  -0.0000000  -0.0000000  -0.0000000  -0.0000000  -0.0000000  -0.0000000  -0.0000000  -0.0000000  -0.0000000  -0.0000000
 NQMom=    0.0000000   2.0440000   0.0000000   0.0000000   0.0000000   0.0000000   0.0000000   0.0000000   0.0000000   0.0000000
 NMagM=    0.0000000   0.4037610   0.0000000   0.0000000   0.0000000   0.0000000   0.0000000   0.0000000   0.0000000   0.0000000
 AtZNuc=   6.0000000   7.0000000   6.0000000   6.0000000   6.0000000   6.0000000   6.0000000   6.0000000   8.0000000   6.0000000

  Atom        41          42          43          44          45          46          47          48          49          50
 IAtWgt=          12          16          16          12           1           1           1           1           1           1
 AtmWgt=  12.0000000  15.9949146  15.9949146  12.0000000   1.0078250   1.0078250   1.0078250   1.0078250   1.0078250   1.0078250
 NucSpn=           0           0           0           0           1           1           1           1           1           1
 AtZEff=  -0.0000000  -0.0000000  -0.0000000  -0.0000000  -0.0000000  -0.0000000  -0.0000000  -0.0000000  -0.0000000  -0.0000000
 NQMom=    0.0000000   0.0000000   0.0000000   0.0000000   0.0000000   0.0000000   0.0000000   0.0000000   0.0000000   0.0000000
 NMagM=    0.0000000   0.0000000   0.0000000   0.0000000   2.7928460   2.7928460   2.7928460   2.7928460   2.7928460   2.7928460
 AtZNuc=   6.0000000   8.0000000   8.0000000   6.0000000   1.0000000   1.0000000   1.0000000   1.0000000   1.0000000   1.0000000

  Atom        51          52          53          54          55          56          57          58          59          60
 IAtWgt=           1           1           1           1           1           1           1           1           1           1
 AtmWgt=   1.0078250   1.0078250   1.0078250   1.0078250   1.0078250   1.0078250   1.0078250   1.0078250   1.0078250   1.0078250
 NucSpn=           1           1           1           1           1           1           1           1           1           1
 AtZEff=  -0.0000000  -0.0000000  -0.0000000  -0.0000000  -0.0000000  -0.0000000  -0.0000000  -0.0000000  -0.0000000  -0.0000000
 NQMom=    0.0000000   0.0000000   0.0000000   0.0000000   0.0000000   0.0000000   0.0000000   0.0000000   0.0000000   0.0000000
 NMagM=    2.7928460   2.7928460   2.7928460   2.7928460   2.7928460   2.7928460   2.7928460   2.7928460   2.7928460   2.7928460
 AtZNuc=   1.0000000   1.0000000   1.0000000   1.0000000   1.0000000   1.0000000   1.0000000   1.0000000   1.0000000   1.0000000

  Atom        61          62          63          64          65          66          67          68          69          70
 IAtWgt=           1           1           1           1           1           1           1           1           1           1
 AtmWgt=   1.0078250   1.0078250   1.0078250   1.0078250   1.0078250   1.0078250   1.0078250   1.0078250   1.0078250   1.0078250
 NucSpn=           1           1           1           1           1           1           1           1           1           1
 AtZEff=  -0.0000000  -0.0000000  -0.0000000  -0.0000000  -0.0000000  -0.0000000  -0.0000000  -0.0000000  -0.0000000  -0.0000000
 NQMom=    0.0000000   0.0000000   0.0000000   0.0000000   0.0000000   0.0000000   0.0000000   0.0000000   0.0000000   0.0000000
 NMagM=    2.7928460   2.7928460   2.7928460   2.7928460   2.7928460   2.7928460   2.7928460   2.7928460   2.7928460   2.7928460
 AtZNuc=   1.0000000   1.0000000   1.0000000   1.0000000   1.0000000   1.0000000   1.0000000   1.0000000   1.0000000   1.0000000

  Atom        71          72          73          74          75          76          77          78          79          80
 IAtWgt=           1           1           1           1           1           1           1           1           1          24
 AtmWgt=   1.0078250   1.0078250   1.0078250   1.0078250   1.0078250   1.0078250   1.0078250   1.0078250   1.0078250  23.9850450
 NucSpn=           1           1           1           1           1           1           1           1           1           0
 AtZEff=  -0.0000000  -0.0000000  -0.0000000  -0.0000000  -0.0000000  -0.0000000  -0.0000000  -0.0000000  -0.0000000  -0.0000000
 NQMom=    0.0000000   0.0000000   0.0000000   0.0000000   0.0000000   0.0000000   0.0000000   0.0000000   0.0000000   0.0000000
 NMagM=    2.7928460   2.7928460   2.7928460   2.7928460   2.7928460   2.7928460   2.7928460   2.7928460   2.7928460   0.0000000
 AtZNuc=   1.0000000   1.0000000   1.0000000   1.0000000   1.0000000   1.0000000   1.0000000   1.0000000   1.0000000  12.0000000

  Atom        81          82          83          84          85          86          87          88          89          90
 IAtWgt=          12          12          12          12          14          12          12          12          12          12
 AtmWgt=  12.0000000  12.0000000  12.0000000  12.0000000  14.0030740  12.0000000  12.0000000  12.0000000  12.0000000  12.0000000
 NucSpn=           0           0           0           0           2           0           0           0           0           0
 AtZEff=  -0.0000000  -0.0000000  -0.0000000  -0.0000000  -0.0000000  -0.0000000  -0.0000000  -0.0000000  -0.0000000  -0.0000000
 NQMom=    0.0000000   0.0000000   0.0000000   0.0000000   2.0440000   0.0000000   0.0000000   0.0000000   0.0000000   0.0000000
 NMagM=    0.0000000   0.0000000   0.0000000   0.0000000   0.4037610   0.0000000   0.0000000   0.0000000   0.0000000   0.0000000
 AtZNuc=   6.0000000   6.0000000   6.0000000   6.0000000   7.0000000   6.0000000   6.0000000   6.0000000   6.0000000   6.0000000

  Atom        91          92          93          94          95          96          97          98          99         100
 IAtWgt=          12          12           1          14          12          12          12          12          12          12
 AtmWgt=  12.0000000  12.0000000   1.0078250  14.0030740  12.0000000  12.0000000  12.0000000  12.0000000  12.0000000  12.0000000
 NucSpn=           0           0           1           2           0           0           0           0           0           0
 AtZEff=  -0.0000000  -0.0000000  -0.0000000  -0.0000000  -0.0000000  -0.0000000  -0.0000000  -0.0000000  -0.0000000  -0.0000000
 NQMom=    0.0000000   0.0000000   0.0000000   2.0440000   0.0000000   0.0000000   0.0000000   0.0000000   0.0000000   0.0000000
 NMagM=    0.0000000   0.0000000   2.7928460   0.4037610   0.0000000   0.0000000   0.0000000   0.0000000   0.0000000   0.0000000
 AtZNuc=   6.0000000   6.0000000   1.0000000   7.0000000   6.0000000   6.0000000   6.0000000   6.0000000   6.0000000   6.0000000

  Atom       101         102         103         104         105         106         107         108         109         110
 IAtWgt=          16          12          14          12          12          12          12          12          12          12
 AtmWgt=  15.9949146  12.0000000  14.0030740  12.0000000  12.0000000  12.0000000  12.0000000  12.0000000  12.0000000  12.0000000
 NucSpn=           0           0           2           0           0           0           0           0           0           0
 AtZEff=  -0.0000000  -0.0000000  -0.0000000  -0.0000000  -0.0000000  -0.0000000  -0.0000000  -0.0000000  -0.0000000  -0.0000000
 NQMom=    0.0000000   0.0000000   2.0440000   0.0000000   0.0000000   0.0000000   0.0000000   0.0000000   0.0000000   0.0000000
 NMagM=    0.0000000   0.0000000   0.4037610   0.0000000   0.0000000   0.0000000   0.0000000   0.0000000   0.0000000   0.0000000
 AtZNuc=   8.0000000   6.0000000   7.0000000   6.0000000   6.0000000   6.0000000   6.0000000   6.0000000   6.0000000   6.0000000

  Atom       111         112         113         114         115         116         117         118         119         120
 IAtWgt=          14          12          12          12          12          12          12          16          12          12
 AtmWgt=  14.0030740  12.0000000  12.0000000  12.0000000  12.0000000  12.0000000  12.0000000  15.9949146  12.0000000  12.0000000
 NucSpn=           2           0           0           0           0           0           0           0           0           0
 AtZEff=  -0.0000000  -0.0000000  -0.0000000  -0.0000000  -0.0000000  -0.0000000  -0.0000000  -0.0000000  -0.0000000  -0.0000000
 NQMom=    2.0440000   0.0000000   0.0000000   0.0000000   0.0000000   0.0000000   0.0000000   0.0000000   0.0000000   0.0000000
 NMagM=    0.4037610   0.0000000   0.0000000   0.0000000   0.0000000   0.0000000   0.0000000   0.0000000   0.0000000   0.0000000
 AtZNuc=   7.0000000   6.0000000   6.0000000   6.0000000   6.0000000   6.0000000   6.0000000   8.0000000   6.0000000   6.0000000

  Atom       121         122         123         124         125         126         127         128         129         130
 IAtWgt=          16          16          12           1           1           1           1           1           1           1
 AtmWgt=  15.9949146  15.9949146  12.0000000   1.0078250   1.0078250   1.0078250   1.0078250   1.0078250   1.0078250   1.0078250
 NucSpn=           0           0           0           1           1           1           1           1           1           1
 AtZEff=  -0.0000000  -0.0000000  -0.0000000  -0.0000000  -0.0000000  -0.0000000  -0.0000000  -0.0000000  -0.0000000  -0.0000000
 NQMom=    0.0000000   0.0000000   0.0000000   0.0000000   0.0000000   0.0000000   0.0000000   0.0000000   0.0000000   0.0000000
 NMagM=    0.0000000   0.0000000   0.0000000   2.7928460   2.7928460   2.7928460   2.7928460   2.7928460   2.7928460   2.7928460
 AtZNuc=   8.0000000   8.0000000   6.0000000   1.0000000   1.0000000   1.0000000   1.0000000   1.0000000   1.0000000   1.0000000

  Atom       131         132         133         134         135         136         137         138         139         140
 IAtWgt=           1           1           1           1           1           1           1           1           1           1
 AtmWgt=   1.0078250   1.0078250   1.0078250   1.0078250   1.0078250   1.0078250   1.0078250   1.0078250   1.0078250   1.0078250
 NucSpn=           1           1           1           1           1           1           1           1           1           1
 AtZEff=  -0.0000000  -0.0000000  -0.0000000  -0.0000000  -0.0000000  -0.0000000  -0.0000000  -0.0000000  -0.0000000  -0.0000000
 NQMom=    0.0000000   0.0000000   0.0000000   0.0000000   0.0000000   0.0000000   0.0000000   0.0000000   0.0000000   0.0000000
 NMagM=    2.7928460   2.7928460   2.7928460   2.7928460   2.7928460   2.7928460   2.7928460   2.7928460   2.7928460   2.7928460
 AtZNuc=   1.0000000   1.0000000   1.0000000   1.0000000   1.0000000   1.0000000   1.0000000   1.0000000   1.0000000   1.0000000

  Atom       141         142         143         144         145         146         147         148         149         150
 IAtWgt=           1           1           1           1           1           1           1           1           1           1
 AtmWgt=   1.0078250   1.0078250   1.0078250   1.0078250   1.0078250   1.0078250   1.0078250   1.0078250   1.0078250   1.0078250
 NucSpn=           1           1           1           1           1           1           1           1           1           1
 AtZEff=  -0.0000000  -0.0000000  -0.0000000  -0.0000000  -0.0000000  -0.0000000  -0.0000000  -0.0000000  -0.0000000  -0.0000000
 NQMom=    0.0000000   0.0000000   0.0000000   0.0000000   0.0000000   0.0000000   0.0000000   0.0000000   0.0000000   0.0000000
 NMagM=    2.7928460   2.7928460   2.7928460   2.7928460   2.7928460   2.7928460   2.7928460   2.7928460   2.7928460   2.7928460
 AtZNuc=   1.0000000   1.0000000   1.0000000   1.0000000   1.0000000   1.0000000   1.0000000   1.0000000   1.0000000   1.0000000

  Atom       151         152         153         154         155         156         157         158
 IAtWgt=           1           1           1           1           1           1           1           1
 AtmWgt=   1.0078250   1.0078250   1.0078250   1.0078250   1.0078250   1.0078250   1.0078250   1.0078250
 NucSpn=           1           1           1           1           1           1           1           1
 AtZEff=  -0.0000000  -0.0000000  -0.0000000  -0.0000000  -0.0000000  -0.0000000  -0.0000000  -0.0000000
 NQMom=    0.0000000   0.0000000   0.0000000   0.0000000   0.0000000   0.0000000   0.0000000   0.0000000
 NMagM=    2.7928460   2.7928460   2.7928460   2.7928460   2.7928460   2.7928460   2.7928460   2.7928460
 AtZNuc=   1.0000000   1.0000000   1.0000000   1.0000000   1.0000000   1.0000000   1.0000000   1.0000000
 Leave Link  101 at Thu Sep  9 14:27:57 2021, MaxMem= 23488102400 cpu:               3.9 elap:               0.2
 (Enter /sw/apps/gaussian-16.0/g16/l202.exe)
 Stoichiometry    C68H72Mg2N8O8
 Framework group  C1[X(C68H72Mg2N8O8)]
 Deg. of freedom   468
 Full point group                 C1      NOp   1
 Largest Abelian subgroup         C1      NOp   1
 Largest concise Abelian subgroup C1      NOp   1
                         Standard orientation:                         
 ---------------------------------------------------------------------
 Center     Atomic      Atomic             Coordinates (Angstroms)
 Number     Number       Type             X           Y           Z
 ---------------------------------------------------------------------
      1         12           0        4.518583   -0.536589    1.037942
      2          6           0        5.114083    2.402031   -0.917079
      3          6           0        4.715306    1.446755    3.807547
      4          6           0        4.448505   -3.173654    2.797941
      5          6           0        5.488958   -2.402781   -1.740792
      6          7           0        4.871744    1.634820    1.284730
      7          6           0        5.025486    2.660101    0.452664
      8          6           0        5.007901    4.044162    1.167812
      9          6           0        5.449124    3.578880    2.627549
     10          6           0        4.951681    2.144741    2.586083
     11          6           0        6.960483    3.568795    2.832966
     12          6           0        3.581323    4.689516    1.178986
     13          6           0        3.537597    6.171531    1.562490
     14          1           0        2.564028    7.034956    0.911330
     15          7           0        4.094291   -0.789364    2.950775
     16          6           0        4.218390    0.131713    3.936423
     17          6           0        3.778227   -0.538879    5.178697
     18          6           0        3.568550   -1.980259    4.867964
     19          6           0        4.060257   -2.044657    3.515390
     20          6           0        3.552735    0.186414    6.469763
     21          6           0        3.022897   -3.121065    5.667312
     22          8           0        3.143298   -4.336159    5.288334
     23          6           0        2.413659   -2.781232    6.965920
     24          7           0        5.119194   -2.502562    0.674829
     25          6           0        4.923182   -3.463189    1.584641
     26          6           0        5.167899   -4.824059    1.003188
     27          6           0        5.338084   -4.608611   -0.569826
     28          6           0        5.236662   -3.063792   -0.608768
     29          6           0        6.389086   -5.575920    1.550378
     30          6           0        4.409460   -5.432345   -1.496940
     31          6           0        2.978383   -4.972992   -1.329278
     32          7           0        5.016860   -0.119335   -1.032967
     33          6           0        5.414419   -1.045914   -2.007684
     34          6           0        5.747584   -0.279137   -3.222230
     35          6           0        5.535183    1.050181   -2.862169
     36          6           0        5.122324    1.111901   -1.500541
     37          6           0        6.239247   -0.822251   -4.441955
     38          6           0        5.584671    2.434566   -3.303626
     39          8           0        5.774831    2.993751   -4.384664
     40          6           0        5.431559    3.373488   -2.026594
     41          6           0        4.406727    4.424599   -2.355526
     42          8           0        3.209930    4.118148   -2.531961
     43          8           0        4.944556    5.640977   -2.177462
     44          6           0        3.970852    6.729571   -2.458561
     45          1           0        4.989564    1.924575    4.750103
     46          1           0        4.332966   -4.117102    3.335523
     47          1           0        5.717855   -2.923353   -2.672492
     48          1           0        5.722999    4.767514    0.775612
     49          1           0        4.930774    4.137379    3.406725
     50          1           0        7.490634    3.759589    1.899982
     51          1           0        7.196580    2.572819    3.208178
     52          1           0        7.248656    4.262722    3.623028
     53          1           0        3.002600    4.268043    2.000875
     54          1           0        3.087911    4.551532    0.216266
     55          1           0        4.530225    6.621470    1.528546
     56          1           0        3.242580    6.244879    2.609288
     57          1           0        3.947792    1.200890    6.433508
     58          1           0        4.157623   -0.313780    7.225821
     59          1           0        2.504843    0.173858    6.769924
     60          1           0        3.154383   -2.282685    7.591482
     61          1           0        1.998807   -3.710108    7.355714
     62          1           0        1.613975   -2.058249    6.802364
     63          1           0        4.320774   -5.484536    1.183676
     64          1           0        6.343229   -4.858253   -0.910466
     65          1           0        6.149196   -6.551939    1.972925
     66          1           0        6.874130   -4.938481    2.289089
     67          1           0        7.193937   -5.725269    0.831124
     68          1           0        4.441650   -6.487030   -1.225738
     69          1           0        4.673751   -5.352857   -2.551493
     70          1           0        2.645232   -5.529049   -0.453696
     71          1           0        2.388570   -5.237621   -2.207516
     72          1           0        2.927123   -3.912732   -1.080867
     73          1           0        5.697215   -0.316980   -5.241249
     74          1           0        6.090981   -1.901101   -4.483241
     75          1           0        7.291881   -0.547666   -4.375463
     76          1           0        6.413572    3.804916   -1.835173
     77          1           0        4.420466    7.375527   -3.212765
     78          1           0        3.717961    7.175210   -1.496347
     79          1           0        3.050080    6.434341   -2.962900
     80         12           0       -4.227724   -0.749167   -1.021677
     81          6           0       -6.432957    1.485203    0.717173
     82          6           0       -3.119059    1.953950   -2.781963
     83          6           0       -2.604937   -2.747507   -2.876571
     84          6           0       -6.275013   -3.366051    0.030114
     85          7           0       -4.780807    1.391216   -0.950341
     86          6           0       -5.587196    2.133633   -0.206765
     87          6           0       -5.423660    3.663651   -0.411344
     88          6           0       -4.805445    3.643378   -1.893326
     89          6           0       -4.161531    2.258628   -1.870633
     90          6           0       -5.861268    3.661317   -2.986141
     91          6           0       -4.426136    4.301148    0.618495
     92          6           0       -4.453140    5.830027    0.678053
     93          1           0       -4.244645    6.480082    1.968959
     94          7           0       -2.700786   -0.413592   -2.244138
     95          6           0       -2.385408    0.749295   -2.852007
     96          6           0       -1.188973    0.468958   -3.660774
     97          6           0       -0.920730   -0.993983   -3.610091
     98          6           0       -2.102979   -1.454648   -2.909975
     99          6           0       -0.380070    1.548952   -4.318589
    100          6           0        0.206343   -1.840054   -4.120067
    101          8           0        0.118205   -3.117607   -4.174158
    102          6           0        1.379865   -1.123975   -4.641171
    103          7           0       -4.525432   -2.737199   -1.552210
    104          6           0       -3.641170   -3.384711   -2.331134
    105          6           0       -3.916635   -4.869335   -2.351308
    106          6           0       -5.026962   -5.115598   -1.226984
    107          6           0       -5.276920   -3.654329   -0.793821
    108          6           0       -4.406815   -5.436932   -3.683211
    109          6           0       -4.697610   -6.165475   -0.130649
    110          6           0       -3.564946   -5.666995    0.737671
    111          7           0       -5.919299   -0.963883    0.305177
    112          6           0       -6.641714   -2.145230    0.581950
    113          6           0       -7.774442   -1.769013    1.452478
    114          6           0       -7.644662   -0.380260    1.604198
    115          6           0       -6.522818    0.079708    0.862979
    116          6           0       -8.773479   -2.654254    1.946847
    117          6           0       -8.207808    0.802717    2.214223
    118          8           0       -9.111732    1.017805    3.020690
    119          6           0       -7.522504    2.081297    1.564619
    120          6           0       -7.116509    3.007027    2.678493
    121          8           0       -6.239249    2.669476    3.492794
    122          8           0       -7.670386    4.215564    2.471006
    123          6           0       -7.287867    5.171763    3.543939
    124          1           0       -2.864945    2.690546   -3.544678
    125          1           0       -2.015883   -3.495972   -3.411635
    126          1           0       -6.901809   -4.138626    0.480587
    127          1           0       -6.350427    4.224726   -0.402721
    128          1           0       -4.048671    4.413813   -2.016176
    129          1           0       -6.858894    3.565127   -2.584119
    130          1           0       -5.630998    2.823677   -3.631423
    131          1           0       -5.749435    4.557122   -3.603677
    132          1           0       -3.398651    4.144996    0.265449
    133          1           0       -4.583024    3.898448    1.600240
    134          1           0       -5.334806    6.246587    0.175961
    135          1           0       -3.609073    6.214774    0.100533
    136          1           0       -0.913488    2.507533   -4.318663
    137          1           0       -0.295902    1.284871   -5.378325
    138          1           0        0.622954    1.640325   -3.896394
    139          1           0        1.073337   -0.474199   -5.457440
    140          1           0        2.113822   -1.897422   -4.875615
    141          1           0        1.771967   -0.473523   -3.851384
    142          1           0       -3.026772   -5.431287   -2.095471
    143          1           0       -5.970199   -5.481034   -1.658944
    144          1           0       -3.768307   -6.252823   -4.071402
    145          1           0       -4.465755   -4.627178   -4.398315
    146          1           0       -5.428022   -5.814127   -3.676627
    147          1           0       -4.351569   -7.095383   -0.588553
    148          1           0       -5.545603   -6.412767    0.499244
    149          1           0       -2.674996   -5.936034    0.160866
    150          1           0       -3.574769   -6.166647    1.704254
    151          1           0       -3.585213   -4.574230    0.821975
    152          1           0       -8.926677   -2.400861    2.987427
    153          1           0       -8.476306   -3.694326    1.829705
    154          1           0       -9.609020   -2.389968    1.293168
    155          1           0       -8.252234    2.540166    0.896401
    156          1           0       -8.217142    5.564259    3.968304
    157          1           0       -6.605448    5.899582    3.066103
    158          1           0       -6.806179    4.767988    4.426771
 ---------------------------------------------------------------------
 Rotational constants (GHZ):           0.0228996           0.0128331           0.0117511
 Leave Link  202 at Thu Sep  9 14:27:57 2021, MaxMem= 23488102400 cpu:               0.2 elap:               0.0
 (Enter /sw/apps/gaussian-16.0/g16/l301.exe)
 Standard basis: def2SVP (5D, 7F)
 Ernie: Thresh=  0.10000D-02 Tol=  0.10000D-05 Strict=F.
 There are  1658 symmetry adapted cartesian basis functions of A   symmetry.
 There are  1572 symmetry adapted basis functions of A   symmetry.
  1572 basis functions,  2678 primitive gaussians,  1658 cartesian basis functions
   312 alpha electrons      312 beta electrons
       nuclear repulsion energy     15479.2171198167 Hartrees.
 IExCor=20419 DFT=T Ex+Corr=CAM-B3LYP ExCW=0 ScaHFX=  1.000000
 ScaDFX=  1.000000  1.000000  1.000000  0.810000 ScalE2=  1.000000  1.000000
 IRadAn=      5 IRanWt=     -1 IRanGd=            0 ICorTp=0 IEmpDi=  4
 HFx  wShort=  0.000000 wLong=  0.330000 cFull=  0.190000 cShort=  0.000000 cLong=  0.460000
 DFx  wShort=  0.000000 wLong=  0.330000 cFull=  0.190000 cShort=  0.000000 cLong=  0.460000
 NAtoms=  158 NActive=  158 NUniq=  158 SFac= 1.00D+00 NAtFMM=   60 NAOKFM=T Big=T
 Integral buffers will be    131072 words long.
 Raffenetti 1 integral format.
 Two-electron integral symmetry is turned on.
 Leave Link  301 at Thu Sep  9 14:27:57 2021, MaxMem= 23488102400 cpu:               1.4 elap:               0.1
 (Enter /sw/apps/gaussian-16.0/g16/l302.exe)
 NPDir=0 NMtPBC=     1 NCelOv=     1 NCel=       1 NClECP=     1 NCelD=      1
         NCelK=      1 NCelE2=     1 NClLst=     1 CellRange=     0.0.
 One-electron integrals computed using PRISM.
 One-electron integral symmetry used in STVInt
   1 Symmetry operations used in ECPInt.
 ECPInt:  NShTT=  271216 NPrTT=  987664 LenC2=  150861 LenP2D=  315567.
 LDataN:  DoStor=T MaxTD1= 4 Len=   56
 NBasis=  1572 RedAO= T EigKep=  3.35D-04  NBF=  1572
 NBsUse=  1572 1.00D-06 EigRej= -1.00D+00 NBFU=  1572
 Precomputing XC quadrature grid using
 IXCGrd= 4 IRadAn=           5 IRanWt=          -1 IRanGd=           0 AccXCQ= 0.00D+00.
 Generated NRdTot=       0 NPtTot=           0 NUsed=           0 NTot=          32
 NSgBfM=  1222  1212  1212  1212  1222 MxSgAt=   158 MxSgA2=   158.
 Leave Link  302 at Thu Sep  9 14:28:02 2021, MaxMem= 23488102400 cpu:             133.6 elap:               5.6
 (Enter /sw/apps/gaussian-16.0/g16/l303.exe)
 DipDrv:  MaxL=1.
 Leave Link  303 at Thu Sep  9 14:28:03 2021, MaxMem= 23488102400 cpu:               9.7 elap:               0.5
 (Enter /sw/apps/gaussian-16.0/g16/l308.exe)
 Leave Link  308 at Thu Sep  9 14:28:03 2021, MaxMem= 23488102400 cpu:              13.2 elap:               0.6
 (Enter /sw/apps/gaussian-16.0/g16/l401.exe)
 ExpMin= 3.36D-02 ExpMax= 4.95D+03 ExpMxC= 7.45D+02 IAcc=3 IRadAn=         5 AccDes= 0.00D+00
 Harris functional with IExCor=20419 and IRadAn=       5 diagonalized for initial guess.
 HarFok:  IExCor=20419 AccDes= 0.00D+00 IRadAn=         5 IDoV= 1 UseB2=F ITyADJ=14
 ICtDFT=  3500011 ScaDFX=  1.000000  1.000000  1.000000  1.000000
 FoFCou: FMM=F IPFlag=           0 FMFlag=      100000 FMFlg1=        2001
         NFxFlg=           0 DoJE=T BraDBF=F KetDBF=T FulRan=T
         wScrn=  0.000000 ICntrl=       500 IOpCl=  0 I1Cent=   200000004 NGrid=           0
         NMat0=    1 NMatS0=      1 NMatT0=    0 NMatD0=    1 NMtDS0=    0 NMtDT0=    0
 Petite list used in FoFCou.
 Harris En= -3918.65983241215    
 JPrj=0 DoOrth=F DoCkMO=F.
 Leave Link  401 at Thu Sep  9 14:28:12 2021, MaxMem= 23488102400 cpu:             196.0 elap:               8.2
 (Enter /sw/apps/gaussian-16.0/g16/l502.exe)
 Integral symmetry usage will be decided dynamically.
 Closed shell SCF:
 Using DIIS extrapolation, IDIIS=  1040.
 NGot= 23488102400 LenX= 23482547354 LenY= 23479796732
 Requested convergence on RMS density matrix=1.00D-08 within 128 cycles.
 Requested convergence on MAX density matrix=1.00D-06.
 Requested convergence on             energy=1.00D-06.
 No special actions if energy rises.
 Fock matrices will be formed incrementally for  20 cycles.

 Cycle   1  Pass 1  IDiag  1:
 FoFJK:  IHMeth= 1 ICntrl=       0 DoSepK=T KAlg= 0 I1Cent=           0 FoldK=F
 IRaf=         1 NMat=       1 IRICut=       1 DoRegI=T DoRafI=F ISym2E= 0 IDoP0=0 IntGTp=1.
 FoFCou: FMM=T IPFlag=           0 FMFlag=      100000 FMFlg1=        2001
         NFxFlg=           0 DoJE=T BraDBF=F KetDBF=F FulRan=T
         wScrn=  0.000000 ICntrl=       500 IOpCl=  0 I1Cent=           0 NGrid=           0
         NMat0=    1 NMatS0=      1 NMatT0=    0 NMatD0=    1 NMtDS0=    0 NMtDT0=    0
 Symmetry not used in FoFCou.
 FMM levels:  10  Number of levels for PrismC:   9
 E= -4068.95261901478    
 DIIS: error= 2.02D-02 at cycle   1 NSaved=   1.
 NSaved= 1 IEnMin= 1 EnMin= -4068.95261901478     IErMin= 1 ErrMin= 2.02D-02
 ErrMax= 2.02D-02  0.00D+00 EMaxC= 1.00D-01 BMatC= 1.69D+00 BMatP= 1.69D+00
 IDIUse=3 WtCom= 7.98D-01 WtEn= 2.02D-01
 Coeff-Com:  0.100D+01
 Coeff-En:   0.100D+01
 Coeff:      0.100D+01
 Gap=     0.121 Goal=   None    Shift=    0.000
 GapD=    0.121 DampG=1.000 DampE=0.500 DampFc=0.5000 IDamp=-1.
 Damping current iteration by 5.00D-01
 RMSDP=1.58D-03 MaxDP=1.36D-01              OVMax= 1.97D-01

 Cycle   2  Pass 1  IDiag  1:
 RMSU=  7.72D-04    CP:  9.82D-01
 E= -4069.34136836816     Delta-E=       -0.388749353388 Rises=F Damp=T
 DIIS: error= 1.26D-02 at cycle   2 NSaved=   2.
 NSaved= 2 IEnMin= 2 EnMin= -4069.34136836816     IErMin= 2 ErrMin= 1.26D-02
 ErrMax= 1.26D-02  0.00D+00 EMaxC= 1.00D-01 BMatC= 3.06D-01 BMatP= 1.69D+00
 IDIUse=3 WtCom= 8.74D-01 WtEn= 1.26D-01
 Coeff-Com: -0.213D+00 0.121D+01
 Coeff-En:   0.000D+00 0.100D+01
 Coeff:     -0.186D+00 0.119D+01
 Gap=     0.132 Goal=   None    Shift=    0.000
 RMSDP=7.67D-04 MaxDP=9.41D-02 DE=-3.89D-01 OVMax= 1.91D-01

 Cycle   3  Pass 1  IDiag  1:
 RMSU=  7.34D-04    CP:  9.68D-01  1.24D+00
 E= -4069.63093725595     Delta-E=       -0.289568887783 Rises=F Damp=F
 DIIS: error= 1.53D-02 at cycle   3 NSaved=   3.
 NSaved= 3 IEnMin= 3 EnMin= -4069.63093725595     IErMin= 2 ErrMin= 1.26D-02
 ErrMax= 1.53D-02  0.00D+00 EMaxC= 1.00D-01 BMatC= 2.01D-01 BMatP= 3.06D-01
 IDIUse=3 WtCom= 8.47D-01 WtEn= 1.53D-01
 Coeff-Com: -0.267D+00 0.651D+00 0.616D+00
 Coeff-En:   0.000D+00 0.000D+00 0.100D+01
 Coeff:     -0.226D+00 0.552D+00 0.675D+00
 Gap=     0.121 Goal=   None    Shift=    0.000
 RMSDP=5.08D-04 MaxDP=4.99D-02 DE=-2.90D-01 OVMax= 1.43D-01

 Cycle   4  Pass 1  IDiag  1:
 RMSU=  2.65D-04    CP:  9.65D-01  1.54D+00  5.06D-01
 E= -4069.76940802125     Delta-E=       -0.138470765298 Rises=F Damp=F
 DIIS: error= 6.90D-03 at cycle   4 NSaved=   4.
 NSaved= 4 IEnMin= 4 EnMin= -4069.76940802125     IErMin= 4 ErrMin= 6.90D-03
 ErrMax= 6.90D-03  0.00D+00 EMaxC= 1.00D-01 BMatC= 4.90D-02 BMatP= 2.01D-01
 IDIUse=3 WtCom= 9.31D-01 WtEn= 6.90D-02
 Coeff-Com: -0.109D+00 0.226D+00 0.407D+00 0.476D+00
 Coeff-En:   0.000D+00 0.000D+00 0.216D+00 0.784D+00
 Coeff:     -0.101D+00 0.211D+00 0.394D+00 0.497D+00
 Gap=     0.119 Goal=   None    Shift=    0.000
 RMSDP=1.97D-04 MaxDP=1.96D-02 DE=-1.38D-01 OVMax= 6.32D-02

 Cycle   5  Pass 1  IDiag  1:
 RMSU=  7.45D-05    CP:  9.64D-01  1.49D+00  6.87D-01  5.54D-01
 E= -4069.81385286347     Delta-E=       -0.044444842224 Rises=F Damp=F
 DIIS: error= 7.43D-04 at cycle   5 NSaved=   5.
 NSaved= 5 IEnMin= 5 EnMin= -4069.81385286347     IErMin= 5 ErrMin= 7.43D-04
 ErrMax= 7.43D-04  0.00D+00 EMaxC= 1.00D-01 BMatC= 1.09D-03 BMatP= 4.90D-02
 IDIUse=3 WtCom= 9.93D-01 WtEn= 7.43D-03
 Coeff-Com: -0.355D-01 0.696D-01 0.162D+00 0.246D+00 0.558D+00
 Coeff-En:   0.000D+00 0.000D+00 0.000D+00 0.000D+00 0.100D+01
 Coeff:     -0.352D-01 0.691D-01 0.161D+00 0.244D+00 0.561D+00
 Gap=     0.119 Goal=   None    Shift=    0.000
 RMSDP=3.94D-05 MaxDP=4.16D-03 DE=-4.44D-02 OVMax= 1.67D-02

 Cycle   6  Pass 1  IDiag  1:
 RMSU=  2.96D-05    CP:  9.64D-01  1.49D+00  6.80D-01  6.23D-01  7.66D-01
 E= -4069.81479019056     Delta-E=       -0.000937327088 Rises=F Damp=F
 DIIS: error= 2.18D-04 at cycle   6 NSaved=   6.
 NSaved= 6 IEnMin= 6 EnMin= -4069.81479019056     IErMin= 6 ErrMin= 2.18D-04
 ErrMax= 2.18D-04  0.00D+00 EMaxC= 1.00D-01 BMatC= 1.68D-04 BMatP= 1.09D-03
 IDIUse=3 WtCom= 9.98D-01 WtEn= 2.18D-03
 Coeff-Com:  0.237D-02-0.687D-02 0.972D-02 0.376D-01 0.307D+00 0.650D+00
 Coeff-En:   0.000D+00 0.000D+00 0.000D+00 0.000D+00 0.105D+00 0.895D+00
 Coeff:      0.237D-02-0.685D-02 0.970D-02 0.375D-01 0.307D+00 0.650D+00
 Gap=     0.119 Goal=   None    Shift=    0.000
 RMSDP=1.55D-05 MaxDP=1.24D-03 DE=-9.37D-04 OVMax= 8.25D-03

 Cycle   7  Pass 1  IDiag  1:
 RMSU=  1.04D-05    CP:  9.64D-01  1.50D+00  6.86D-01  6.22D-01  8.66D-01
                    CP:  7.51D-01
 E= -4069.81497048840     Delta-E=       -0.000180297844 Rises=F Damp=F
 DIIS: error= 8.38D-05 at cycle   7 NSaved=   7.
 NSaved= 7 IEnMin= 7 EnMin= -4069.81497048840     IErMin= 7 ErrMin= 8.38D-05
 ErrMax= 8.38D-05  0.00D+00 EMaxC= 1.00D-01 BMatC= 1.97D-05 BMatP= 1.68D-04
 IDIUse=1 WtCom= 1.00D+00 WtEn= 0.00D+00
 Coeff-Com:  0.439D-02-0.960D-02-0.901D-02-0.418D-02 0.102D+00 0.331D+00
 Coeff-Com:  0.586D+00
 Coeff:      0.439D-02-0.960D-02-0.901D-02-0.418D-02 0.102D+00 0.331D+00
 Coeff:      0.586D+00
 Gap=     0.119 Goal=   None    Shift=    0.000
 RMSDP=6.19D-06 MaxDP=1.13D-03 DE=-1.80D-04 OVMax= 3.46D-03

 Cycle   8  Pass 1  IDiag  1:
 RMSU=  4.49D-06    CP:  9.64D-01  1.50D+00  6.86D-01  6.27D-01  8.72D-01
                    CP:  8.70D-01  8.17D-01
 E= -4069.81499430756     Delta-E=       -0.000023819153 Rises=F Damp=F
 DIIS: error= 4.87D-05 at cycle   8 NSaved=   8.
 NSaved= 8 IEnMin= 8 EnMin= -4069.81499430756     IErMin= 8 ErrMin= 4.87D-05
 ErrMax= 4.87D-05  0.00D+00 EMaxC= 1.00D-01 BMatC= 4.30D-06 BMatP= 1.97D-05
 IDIUse=1 WtCom= 1.00D+00 WtEn= 0.00D+00
 Coeff-Com:  0.212D-02-0.420D-02-0.761D-02-0.119D-01-0.127D-01 0.380D-01
 Coeff-Com:  0.339D+00 0.658D+00
 Coeff:      0.212D-02-0.420D-02-0.761D-02-0.119D-01-0.127D-01 0.380D-01
 Coeff:      0.339D+00 0.658D+00
 Gap=     0.119 Goal=   None    Shift=    0.000
 RMSDP=3.23D-06 MaxDP=4.92D-04 DE=-2.38D-05 OVMax= 1.51D-03

 Cycle   9  Pass 1  IDiag  1:
 RMSU=  1.89D-06    CP:  9.64D-01  1.50D+00  6.87D-01  6.28D-01  8.89D-01
                    CP:  8.96D-01  1.02D+00  9.06D-01
 E= -4069.81500101457     Delta-E=       -0.000006707010 Rises=F Damp=F
 DIIS: error= 1.96D-05 at cycle   9 NSaved=   9.
 NSaved= 9 IEnMin= 9 EnMin= -4069.81500101457     IErMin= 9 ErrMin= 1.96D-05
 ErrMax= 1.96D-05  0.00D+00 EMaxC= 1.00D-01 BMatC= 6.86D-07 BMatP= 4.30D-06
 IDIUse=1 WtCom= 1.00D+00 WtEn= 0.00D+00
 Coeff-Com:  0.508D-03-0.864D-03-0.277D-02-0.601D-02-0.222D-01-0.329D-01
 Coeff-Com:  0.105D+00 0.351D+00 0.609D+00
 Coeff:      0.508D-03-0.864D-03-0.277D-02-0.601D-02-0.222D-01-0.329D-01
 Coeff:      0.105D+00 0.351D+00 0.609D+00
 Gap=     0.119 Goal=   None    Shift=    0.000
 RMSDP=1.28D-06 MaxDP=1.38D-04 DE=-6.71D-06 OVMax= 6.76D-04

 Cycle  10  Pass 1  IDiag  1:
 RMSU=  8.91D-07    CP:  9.64D-01  1.50D+00  6.87D-01  6.28D-01  8.92D-01
                    CP:  9.08D-01  1.05D+00  1.06D+00  9.78D-01
 E= -4069.81500237038     Delta-E=       -0.000001355813 Rises=F Damp=F
 DIIS: error= 8.73D-06 at cycle  10 NSaved=  10.
 NSaved=10 IEnMin=10 EnMin= -4069.81500237038     IErMin=10 ErrMin= 8.73D-06
 ErrMax= 8.73D-06  0.00D+00 EMaxC= 1.00D-01 BMatC= 1.25D-07 BMatP= 6.86D-07
 IDIUse=1 WtCom= 1.00D+00 WtEn= 0.00D+00
 Coeff-Com: -0.361D-03 0.766D-03 0.967D-03 0.776D-03-0.499D-02-0.283D-01
 Coeff-Com: -0.432D-01-0.412D-01 0.237D+00 0.878D+00
 Coeff:     -0.361D-03 0.766D-03 0.967D-03 0.776D-03-0.499D-02-0.283D-01
 Coeff:     -0.432D-01-0.412D-01 0.237D+00 0.878D+00
 Gap=     0.119 Goal=   None    Shift=    0.000
 RMSDP=1.05D-06 MaxDP=1.47D-04 DE=-1.36D-06 OVMax= 5.58D-04

 Cycle  11  Pass 1  IDiag  1:
 RMSU=  4.99D-07    CP:  9.64D-01  1.50D+00  6.87D-01  6.29D-01  8.94D-01
                    CP:  9.17D-01  1.10D+00  1.15D+00  1.28D+00  1.27D+00
 E= -4069.81500292672     Delta-E=       -0.000000556342 Rises=F Damp=F
 DIIS: error= 3.89D-06 at cycle  11 NSaved=  11.
 NSaved=11 IEnMin=11 EnMin= -4069.81500292672     IErMin=11 ErrMin= 3.89D-06
 ErrMax= 3.89D-06  0.00D+00 EMaxC= 1.00D-01 BMatC= 5.43D-08 BMatP= 1.25D-07
 IDIUse=1 WtCom= 1.00D+00 WtEn= 0.00D+00
 Coeff-Com: -0.321D-03 0.631D-03 0.123D-02 0.193D-02 0.309D-02-0.965D-02
 Coeff-Com: -0.464D-01-0.113D+00-0.171D-01 0.512D+00 0.667D+00
 Coeff:     -0.321D-03 0.631D-03 0.123D-02 0.193D-02 0.309D-02-0.965D-02
 Coeff:     -0.464D-01-0.113D+00-0.171D-01 0.512D+00 0.667D+00
 Gap=     0.119 Goal=   None    Shift=    0.000
 RMSDP=5.59D-07 MaxDP=4.64D-05 DE=-5.56D-07 OVMax= 2.97D-04

 Cycle  12  Pass 1  IDiag  1:
 RMSU=  2.52D-07    CP:  9.64D-01  1.50D+00  6.87D-01  6.29D-01  8.95D-01
                    CP:  9.19D-01  1.12D+00  1.20D+00  1.39D+00  1.62D+00
                    CP:  1.07D+00
 E= -4069.81500311329     Delta-E=       -0.000000186574 Rises=F Damp=F
 DIIS: error= 2.83D-06 at cycle  12 NSaved=  12.
 NSaved=12 IEnMin=12 EnMin= -4069.81500311329     IErMin=12 ErrMin= 2.83D-06
 ErrMax= 2.83D-06  0.00D+00 EMaxC= 1.00D-01 BMatC= 1.08D-08 BMatP= 5.43D-08
 IDIUse=1 WtCom= 1.00D+00 WtEn= 0.00D+00
 Coeff-Com: -0.492D-04 0.834D-04 0.328D-03 0.716D-03 0.309D-02 0.207D-02
 Coeff-Com: -0.630D-02-0.426D-01-0.678D-01 0.278D-01 0.274D+00 0.809D+00
 Coeff:     -0.492D-04 0.834D-04 0.328D-03 0.716D-03 0.309D-02 0.207D-02
 Coeff:     -0.630D-02-0.426D-01-0.678D-01 0.278D-01 0.274D+00 0.809D+00
 Gap=     0.119 Goal=   None    Shift=    0.000
 RMSDP=3.35D-07 MaxDP=2.44D-05 DE=-1.87D-07 OVMax= 2.03D-04

 Cycle  13  Pass 1  IDiag  1:
 RMSU=  1.53D-07    CP:  9.64D-01  1.50D+00  6.87D-01  6.29D-01  8.95D-01
                    CP:  9.19D-01  1.12D+00  1.22D+00  1.48D+00  1.78D+00
                    CP:  1.42D+00  1.14D+00
 E= -4069.81500317321     Delta-E=       -0.000000059914 Rises=F Damp=F
 DIIS: error= 2.15D-06 at cycle  13 NSaved=  13.
 NSaved=13 IEnMin=13 EnMin= -4069.81500317321     IErMin=13 ErrMin= 2.15D-06
 ErrMax= 2.15D-06  0.00D+00 EMaxC= 1.00D-01 BMatC= 7.32D-09 BMatP= 1.08D-08
 IDIUse=1 WtCom= 1.00D+00 WtEn= 0.00D+00
 Coeff-Com:  0.102D-03-0.209D-03-0.295D-03-0.330D-03 0.755D-03 0.479D-02
 Coeff-Com:  0.168D-01 0.180D-01-0.401D-01-0.207D+00-0.158D+00 0.577D+00
 Coeff-Com:  0.788D+00
 Coeff:      0.102D-03-0.209D-03-0.295D-03-0.330D-03 0.755D-03 0.479D-02
 Coeff:      0.168D-01 0.180D-01-0.401D-01-0.207D+00-0.158D+00 0.577D+00
 Coeff:      0.788D+00
 Gap=     0.119 Goal=   None    Shift=    0.000
 RMSDP=2.82D-07 MaxDP=1.69D-05 DE=-5.99D-08 OVMax= 1.51D-04

 Cycle  14  Pass 1  IDiag  1:
 RMSU=  7.22D-08    CP:  9.64D-01  1.50D+00  6.87D-01  6.29D-01  8.95D-01
                    CP:  9.19D-01  1.13D+00  1.24D+00  1.53D+00  1.96D+00
                    CP:  1.64D+00  1.65D+00  1.12D+00
 E= -4069.81500320358     Delta-E=       -0.000000030370 Rises=F Damp=F
 DIIS: error= 9.80D-07 at cycle  14 NSaved=  14.
 NSaved=14 IEnMin=14 EnMin= -4069.81500320358     IErMin=14 ErrMin= 9.80D-07
 ErrMax= 9.80D-07  0.00D+00 EMaxC= 1.00D-01 BMatC= 8.90D-10 BMatP= 7.32D-09
 IDIUse=1 WtCom= 1.00D+00 WtEn= 0.00D+00
 Coeff-Com:  0.675D-04-0.134D-03-0.241D-03-0.363D-03-0.389D-03 0.166D-02
 Coeff-Com:  0.109D-01 0.195D-01-0.270D-02-0.103D+00-0.159D+00 0.111D+00
 Coeff-Com:  0.363D+00 0.759D+00
 Coeff:      0.675D-04-0.134D-03-0.241D-03-0.363D-03-0.389D-03 0.166D-02
 Coeff:      0.109D-01 0.195D-01-0.270D-02-0.103D+00-0.159D+00 0.111D+00
 Coeff:      0.363D+00 0.759D+00
 Gap=     0.119 Goal=   None    Shift=    0.000
 RMSDP=1.05D-07 MaxDP=6.41D-06 DE=-3.04D-08 OVMax= 6.05D-05

 Cycle  15  Pass 1  IDiag  1:
 RMSU=  3.33D-08    CP:  9.64D-01  1.50D+00  6.87D-01  6.29D-01  8.95D-01
                    CP:  9.19D-01  1.13D+00  1.24D+00  1.55D+00  2.01D+00
                    CP:  1.74D+00  1.82D+00  1.35D+00  1.06D+00
 E= -4069.81500320702     Delta-E=       -0.000000003438 Rises=F Damp=F
 DIIS: error= 3.88D-07 at cycle  15 NSaved=  15.
 NSaved=15 IEnMin=15 EnMin= -4069.81500320702     IErMin=15 ErrMin= 3.88D-07
 ErrMax= 3.88D-07  0.00D+00 EMaxC= 1.00D-01 BMatC= 2.13D-10 BMatP= 8.90D-10
 IDIUse=1 WtCom= 1.00D+00 WtEn= 0.00D+00
 Coeff-Com:  0.133D-04-0.249D-04-0.581D-04-0.113D-03-0.326D-03-0.217D-03
 Coeff-Com:  0.220D-02 0.536D-02 0.604D-02-0.746D-02-0.483D-01-0.422D-01
 Coeff-Com:  0.124D-01 0.371D+00 0.702D+00
 Coeff:      0.133D-04-0.249D-04-0.581D-04-0.113D-03-0.326D-03-0.217D-03
 Coeff:      0.220D-02 0.536D-02 0.604D-02-0.746D-02-0.483D-01-0.422D-01
 Coeff:      0.124D-01 0.371D+00 0.702D+00
 Gap=     0.119 Goal=   None    Shift=    0.000
 RMSDP=3.24D-08 MaxDP=2.88D-06 DE=-3.44D-09 OVMax= 1.58D-05

 Cycle  16  Pass 1  IDiag  1:
 RMSU=  1.59D-08    CP:  9.64D-01  1.50D+00  6.87D-01  6.29D-01  8.95D-01
                    CP:  9.19D-01  1.13D+00  1.25D+00  1.55D+00  2.02D+00
                    CP:  1.76D+00  1.87D+00  1.42D+00  1.24D+00  1.10D+00
 E= -4069.81500320759     Delta-E=       -0.000000000571 Rises=F Damp=F
 DIIS: error= 1.27D-07 at cycle  16 NSaved=  16.
 NSaved=16 IEnMin=16 EnMin= -4069.81500320759     IErMin=16 ErrMin= 1.27D-07
 ErrMax= 1.27D-07  0.00D+00 EMaxC= 1.00D-01 BMatC= 5.14D-11 BMatP= 2.13D-10
 IDIUse=1 WtCom= 1.00D+00 WtEn= 0.00D+00
 Coeff-Com: -0.931D-05 0.191D-04 0.291D-04 0.280D-04-0.693D-04-0.516D-03
 Coeff-Com: -0.139D-02-0.236D-02 0.341D-02 0.206D-01 0.102D-01-0.423D-01
 Coeff-Com: -0.900D-01 0.163D-01 0.334D+00 0.752D+00
 Coeff:     -0.931D-05 0.191D-04 0.291D-04 0.280D-04-0.693D-04-0.516D-03
 Coeff:     -0.139D-02-0.236D-02 0.341D-02 0.206D-01 0.102D-01-0.423D-01
 Coeff:     -0.900D-01 0.163D-01 0.334D+00 0.752D+00
 Gap=     0.119 Goal=   None    Shift=    0.000
 RMSDP=1.94D-08 MaxDP=1.35D-06 DE=-5.71D-10 OVMax= 1.32D-05

 Cycle  17  Pass 1  IDiag  1:
 RMSU=  9.45D-09    CP:  9.64D-01  1.50D+00  6.87D-01  6.29D-01  8.95D-01
                    CP:  9.19D-01  1.13D+00  1.25D+00  1.56D+00  2.03D+00
                    CP:  1.77D+00  1.90D+00  1.46D+00  1.32D+00  1.34D+00
                    CP:  1.15D+00
 E= -4069.81500320792     Delta-E=       -0.000000000338 Rises=F Damp=F
 DIIS: error= 8.19D-08 at cycle  17 NSaved=  17.
 NSaved=17 IEnMin=17 EnMin= -4069.81500320792     IErMin=17 ErrMin= 8.19D-08
 ErrMax= 8.19D-08  0.00D+00 EMaxC= 1.00D-01 BMatC= 1.49D-11 BMatP= 5.14D-11
 IDIUse=1 WtCom= 1.00D+00 WtEn= 0.00D+00
 Coeff-Com: -0.734D-05 0.145D-04 0.274D-04 0.377D-04 0.444D-04-0.208D-03
 Coeff-Com: -0.108D-02-0.247D-02 0.502D-03 0.123D-01 0.148D-01-0.708D-02
 Coeff-Com: -0.506D-01-0.688D-01-0.168D-01 0.373D+00 0.746D+00
 Coeff:     -0.734D-05 0.145D-04 0.274D-04 0.377D-04 0.444D-04-0.208D-03
 Coeff:     -0.108D-02-0.247D-02 0.502D-03 0.123D-01 0.148D-01-0.708D-02
 Coeff:     -0.506D-01-0.688D-01-0.168D-01 0.373D+00 0.746D+00
 Gap=     0.119 Goal=   None    Shift=    0.000
 RMSDP=9.77D-09 MaxDP=5.51D-07 DE=-3.38D-10 OVMax= 5.68D-06

 SCF Done:  E(RCAM-B3LYP) =  -4069.81500321     A.U. after   17 cycles
            NFock= 17  Conv=0.98D-08     -V/T= 2.0102
 KE= 4.028792980115D+03 PE=-4.043985250364D+04 EE= 1.686202740050D+04
 Leave Link  502 at Thu Sep  9 14:38:46 2021, MaxMem= 23488102400 cpu:           14640.3 elap:             634.0
 (Enter /sw/apps/gaussian-16.0/g16/l801.exe)
 DoSCS=F DFT=T ScalE2(SS,OS)=  1.000000  1.000000
 ExpMin= 3.36D-02 ExpMax= 4.95D+03 ExpMxC= 7.45D+02 IAcc=3 IRadAn=         5 AccDes= 0.00D+00
 HarFok:  IExCor=  205 AccDes= 0.00D+00 IRadAn=         5 IDoV=-2 UseB2=F ITyADJ=14
 ICtDFT= 12500011 ScaDFX=  1.000000  1.000000  1.000000  1.000000
 GSVD:  LWork=       -9588 too small for GESVD, short by       45590 words or       45590 for optimal perf.
 Largest valence mixing into a core orbital is  2.03D-04
 Largest core mixing into a valence orbital is  5.22D-05
 Range of M.O.s used for correlation:    95  1572
 NBasis=  1572 NAE=   312 NBE=   312 NFC=    94 NFV=     0
 NROrb=   1478 NOA=   218 NOB=   218 NVA=  1260 NVB=  1260
 Leave Link  801 at Thu Sep  9 14:38:46 2021, MaxMem= 23488102400 cpu:               8.1 elap:               0.4
 (Enter /sw/apps/gaussian-16.0/g16/l914.exe)
 RHF ground state
 Two-electron integrals replicated using symmetry.
 MDV= 23488102400 DFT=T DoStab=F Mixed=T DoRPA=T DoScal=F NonHer=T
 Making orbital integer symmetry assigments:
 Orbital symmetries:
       Occupied  (A) (A) (A) (A) (A) (A) (A) (A) (A) (A) (A) (A)
                 (A) (A) (A) (A) (A) (A) (A) (A) (A) (A) (A) (A)
                 (A) (A) (A) (A) (A) (A) (A) (A) (A) (A) (A) (A)
                 (A) (A) (A) (A) (A) (A) (A) (A) (A) (A) (A) (A)
                 (A) (A) (A) (A) (A) (A) (A) (A) (A) (A) (A) (A)
                 (A) (A) (A) (A) (A) (A) (A) (A) (A) (A) (A) (A)
                 (A) (A) (A) (A) (A) (A) (A) (A) (A) (A) (A) (A)
                 (A) (A) (A) (A) (A) (A) (A) (A) (A) (A) (A) (A)
                 (A) (A) (A) (A) (A) (A) (A) (A) (A) (A) (A) (A)
                 (A) (A) (A) (A) (A) (A) (A) (A) (A) (A) (A) (A)
                 (A) (A) (A) (A) (A) (A) (A) (A) (A) (A) (A) (A)
                 (A) (A) (A) (A) (A) (A) (A) (A) (A) (A) (A) (A)
                 (A) (A) (A) (A) (A) (A) (A) (A) (A) (A) (A) (A)
                 (A) (A) (A) (A) (A) (A) (A) (A) (A) (A) (A) (A)
                 (A) (A) (A) (A) (A) (A) (A) (A) (A) (A) (A) (A)
                 (A) (A) (A) (A) (A) (A) (A) (A) (A) (A) (A) (A)
                 (A) (A) (A) (A) (A) (A) (A) (A) (A) (A) (A) (A)
                 (A) (A) (A) (A) (A) (A) (A) (A) (A) (A) (A) (A)
                 (A) (A) (A) (A) (A) (A) (A) (A) (A) (A) (A) (A)
                 (A) (A) (A) (A) (A) (A) (A) (A) (A) (A) (A) (A)
                 (A) (A) (A) (A) (A) (A) (A) (A) (A) (A) (A) (A)
                 (A) (A) (A) (A) (A) (A) (A) (A) (A) (A) (A) (A)
                 (A) (A) (A) (A) (A) (A) (A) (A) (A) (A) (A) (A)
                 (A) (A) (A) (A) (A) (A) (A) (A) (A) (A) (A) (A)
                 (A) (A) (A) (A) (A) (A) (A) (A) (A) (A) (A) (A)
                 (A) (A) (A) (A) (A) (A) (A) (A) (A) (A) (A) (A)
       Virtual   (A) (A) (A) (A) (A) (A) (A) (A) (A) (A) (A) (A)
                 (A) (A) (A) (A) (A) (A) (A) (A) (A) (A) (A) (A)
                 (A) (A) (A) (A) (A) (A) (A) (A) (A) (A) (A) (A)
                 (A) (A) (A) (A) (A) (A) (A) (A) (A) (A) (A) (A)
                 (A) (A) (A) (A) (A) (A) (A) (A) (A) (A) (A) (A)
                 (A) (A) (A) (A) (A) (A) (A) (A) (A) (A) (A) (A)
                 (A) (A) (A) (A) (A) (A) (A) (A) (A) (A) (A) (A)
                 (A) (A) (A) (A) (A) (A) (A) (A) (A) (A) (A) (A)
                 (A) (A) (A) (A) (A) (A) (A) (A) (A) (A) (A) (A)
                 (A) (A) (A) (A) (A) (A) (A) (A) (A) (A) (A) (A)
                 (A) (A) (A) (A) (A) (A) (A) (A) (A) (A) (A) (A)
                 (A) (A) (A) (A) (A) (A) (A) (A) (A) (A) (A) (A)
                 (A) (A) (A) (A) (A) (A) (A) (A) (A) (A) (A) (A)
                 (A) (A) (A) (A) (A) (A) (A) (A) (A) (A) (A) (A)
                 (A) (A) (A) (A) (A) (A) (A) (A) (A) (A) (A) (A)
                 (A) (A) (A) (A) (A) (A) (A) (A) (A) (A) (A) (A)
                 (A) (A) (A) (A) (A) (A) (A) (A) (A) (A) (A) (A)
                 (A) (A) (A) (A) (A) (A) (A) (A) (A) (A) (A) (A)
                 (A) (A) (A) (A) (A) (A) (A) (A) (A) (A) (A) (A)
                 (A) (A) (A) (A) (A) (A) (A) (A) (A) (A) (A) (A)
                 (A) (A) (A) (A) (A) (A) (A) (A) (A) (A) (A) (A)
                 (A) (A) (A) (A) (A) (A) (A) (A) (A) (A) (A) (A)
                 (A) (A) (A) (A) (A) (A) (A) (A) (A) (A) (A) (A)
                 (A) (A) (A) (A) (A) (A) (A) (A) (A) (A) (A) (A)
                 (A) (A) (A) (A) (A) (A) (A) (A) (A) (A) (A) (A)
                 (A) (A) (A) (A) (A) (A) (A) (A) (A) (A) (A) (A)
                 (A) (A) (A) (A) (A) (A) (A) (A) (A) (A) (A) (A)
                 (A) (A) (A) (A) (A) (A) (A) (A) (A) (A) (A) (A)
                 (A) (A) (A) (A) (A) (A) (A) (A) (A) (A) (A) (A)
                 (A) (A) (A) (A) (A) (A) (A) (A) (A) (A) (A) (A)
                 (A) (A) (A) (A) (A) (A) (A) (A) (A) (A) (A) (A)
                 (A) (A) (A) (A) (A) (A) (A) (A) (A) (A) (A) (A)
                 (A) (A) (A) (A) (A) (A) (A) (A) (A) (A) (A) (A)
                 (A) (A) (A) (A) (A) (A) (A) (A) (A) (A) (A) (A)
                 (A) (A) (A) (A) (A) (A) (A) (A) (A) (A) (A) (A)
                 (A) (A) (A) (A) (A) (A) (A) (A) (A) (A) (A) (A)
                 (A) (A) (A) (A) (A) (A) (A) (A) (A) (A) (A) (A)
                 (A) (A) (A) (A) (A) (A) (A) (A) (A) (A) (A) (A)
                 (A) (A) (A) (A) (A) (A) (A) (A) (A) (A) (A) (A)
                 (A) (A) (A) (A) (A) (A) (A) (A) (A) (A) (A) (A)
                 (A) (A) (A) (A) (A) (A) (A) (A) (A) (A) (A) (A)
                 (A) (A) (A) (A) (A) (A) (A) (A) (A) (A) (A) (A)
                 (A) (A) (A) (A) (A) (A) (A) (A) (A) (A) (A) (A)
                 (A) (A) (A) (A) (A) (A) (A) (A) (A) (A) (A) (A)
                 (A) (A) (A) (A) (A) (A) (A) (A) (A) (A) (A) (A)
                 (A) (A) (A) (A) (A) (A) (A) (A) (A) (A) (A) (A)
                 (A) (A) (A) (A) (A) (A) (A) (A) (A) (A) (A) (A)
                 (A) (A) (A) (A) (A) (A) (A) (A) (A) (A) (A) (A)
                 (A) (A) (A) (A) (A) (A) (A) (A) (A) (A) (A) (A)
                 (A) (A) (A) (A) (A) (A) (A) (A) (A) (A) (A) (A)
                 (A) (A) (A) (A) (A) (A) (A) (A) (A) (A) (A) (A)
                 (A) (A) (A) (A) (A) (A) (A) (A) (A) (A) (A) (A)
                 (A) (A) (A) (A) (A) (A) (A) (A) (A) (A) (A) (A)
                 (A) (A) (A) (A) (A) (A) (A) (A) (A) (A) (A) (A)
                 (A) (A) (A) (A) (A) (A) (A) (A) (A) (A) (A) (A)
                 (A) (A) (A) (A) (A) (A) (A) (A) (A) (A) (A) (A)
                 (A) (A) (A) (A) (A) (A) (A) (A) (A) (A) (A) (A)
                 (A) (A) (A) (A) (A) (A) (A) (A) (A) (A) (A) (A)
                 (A) (A) (A) (A) (A) (A) (A) (A) (A) (A) (A) (A)
                 (A) (A) (A) (A) (A) (A) (A) (A) (A) (A) (A) (A)
                 (A) (A) (A) (A) (A) (A) (A) (A) (A) (A) (A) (A)
                 (A) (A) (A) (A) (A) (A) (A) (A) (A) (A) (A) (A)
                 (A) (A) (A) (A) (A) (A) (A) (A) (A) (A) (A) (A)
                 (A) (A) (A) (A) (A) (A) (A) (A) (A) (A) (A) (A)
                 (A) (A) (A) (A) (A) (A) (A) (A) (A) (A) (A) (A)
                 (A) (A) (A) (A) (A) (A) (A) (A) (A) (A) (A) (A)
                 (A) (A) (A) (A) (A) (A) (A) (A) (A) (A) (A) (A)
                 (A) (A) (A) (A) (A) (A) (A) (A) (A) (A) (A) (A)
                 (A) (A) (A) (A) (A) (A) (A) (A) (A) (A) (A) (A)
                 (A) (A) (A) (A) (A) (A) (A) (A) (A) (A) (A) (A)
                 (A) (A) (A) (A) (A) (A) (A) (A) (A) (A) (A) (A)
                 (A) (A) (A) (A) (A) (A) (A) (A) (A) (A) (A) (A)
                 (A) (A) (A) (A) (A) (A) (A) (A) (A) (A) (A) (A)
                 (A) (A) (A) (A) (A) (A) (A) (A) (A) (A) (A) (A)
                 (A) (A) (A) (A) (A) (A) (A) (A) (A) (A) (A) (A)
                 (A) (A) (A) (A) (A) (A) (A) (A) (A) (A) (A) (A)
                 (A) (A) (A) (A) (A) (A) (A) (A) (A) (A) (A) (A)
                 (A) (A) (A) (A) (A) (A) (A) (A) (A) (A) (A) (A)
                 (A) (A) (A) (A) (A) (A) (A) (A) (A) (A) (A) (A)
                 (A) (A) (A) (A) (A) (A) (A) (A) (A) (A) (A) (A)
                 (A) (A) (A) (A) (A) (A) (A) (A) (A) (A) (A) (A)
                 (A) (A) (A) (A) (A) (A) (A) (A) (A) (A) (A) (A)
                 (A) (A) (A) (A) (A) (A) (A) (A) (A) (A) (A) (A)
                 (A) (A) (A) (A) (A) (A) (A) (A) (A) (A) (A) (A)
                 (A) (A) (A) (A) (A) (A) (A) (A) (A) (A) (A) (A)
                 (A) (A) (A) (A) (A) (A) (A) (A) (A) (A) (A) (A)
                 (A) (A) (A) (A) (A) (A) (A) (A) (A) (A) (A) (A)
                 (A) (A) (A) (A) (A) (A) (A) (A) (A) (A) (A) (A)
                 (A) (A) (A) (A) (A) (A) (A) (A) (A) (A) (A) (A)
                 (A) (A) (A) (A) (A) (A) (A) (A) (A) (A) (A) (A)
                 (A) (A) (A) (A) (A) (A) (A) (A) (A) (A) (A) (A)
                 (A) (A) (A) (A) (A) (A) (A) (A) (A) (A) (A) (A)
                 (A) (A) (A) (A) (A) (A) (A) (A) (A) (A) (A) (A)
                 (A) (A) (A) (A) (A) (A) (A) (A) (A) (A) (A) (A)
                 (A) (A) (A) (A) (A) (A) (A) (A) (A) (A) (A) (A)
                 (A) (A) (A) (A) (A) (A) (A) (A) (A) (A) (A) (A)
                 (A) (A) (A) (A) (A) (A) (A) (A) (A) (A) (A) (A)
                 (A) (A) (A) (A) (A) (A) (A) (A) (A) (A) (A) (A)
                 (A) (A) (A) (A) (A) (A) (A) (A) (A) (A) (A) (A)
                 (A) (A) (A) (A) (A) (A) (A) (A) (A) (A) (A) (A)
                 (A) (A) (A) (A) (A) (A) (A) (A) (A) (A) (A) (A)
                 (A) (A) (A) (A) (A) (A) (A) (A) (A) (A) (A) (A)
                 (A) (A) (A) (A) (A) (A) (A) (A) (A) (A) (A) (A)
                 (A) (A) (A) (A) (A) (A) (A) (A) (A) (A) (A) (A)
                 (A) (A) (A) (A) (A) (A) (A) (A) (A) (A) (A) (A)
    20 initial guesses have been made.
 Convergence on wavefunction:    0.001000000000000
 Davidson Disk Diagonalization:  ConvIn= 1.00D-03 SkipCon=T Conv= 1.00D-03.
 Max sub-space:  2000 roots to seek:    20 dimension of matrix:       549360
 Iteration     1 Dimension    20 NMult     0 NNew     20
 CISAX will form    20 AO SS matrices at one time.
 NMat=    20 NSing=    20 JSym2X= 0.
 FoFJK:  IHMeth= 1 ICntrl=       0 DoSepK=T KAlg= 0 I1Cent=           0 FoldK=F
 IRaf=         1 NMat=      40 IRICut=       1 DoRegI=T DoRafI=F ISym2E= 0 IDoP0=3 IntGTp=3.
 FoFCou: FMM=T IPFlag=           0 FMFlag=      100000 FMFlg1=        2001
         NFxFlg=           0 DoJE=F BraDBF=F KetDBF=F FulRan=T
         wScrn=  0.000000 ICntrl=       500 IOpCl=  0 I1Cent=           0 NGrid=           0
         NMat0=   20 NMatS0=     20 NMatT0=    0 NMatD0=   20 NMtDS0=    0 NMtDT0=    0
 Symmetry not used in FoFCou.
 FMM levels:  10  Number of levels for PrismC:   9
 New state      2 was old state      4
 New state      3 was old state      7
 New state      4 was old state      6
 New state      5 was old state     11
 Excitation Energies [eV] at current iteration:
 Root      1 :     2.353059234183003
 Root      2 :     2.551580874448668
 Root      3 :     2.602580048693985
 Root      4 :     2.614706437574095
 Root      5 :     2.636157721630581
 Root      6 :     2.751597196822097
 Root      7 :     3.165786380976543
 Root      8 :     3.349670922641201
 Root      9 :     3.644249802616164
 Root     10 :     3.685661503105815
 Root     11 :     3.717179477890149
 Root     12 :     3.759554708984866
 Root     13 :     4.257531362243071
 Root     14 :     4.266173871966370
 Root     15 :     4.343797487945648
 Root     16 :     4.359504790330382
 Root     17 :     4.455090083176607
 Root     18 :     4.714603192702513
 Root     19 :     4.755400033064503
 Root     20 :     4.991001535854041
 Iteration     2 Dimension    30 NMult    20 NNew     10
 CISAX will form    10 AO SS matrices at one time.
 NMat=    10 NSing=    10 JSym2X= 0.
 New state      1 was old state      3
 Root      1 not converged, maximum delta is    0.361268809970563
 New state      2 was old state      4
 Root      2 not converged, maximum delta is    0.143548478544720
 New state      3 was old state      5
 Root      3 not converged, maximum delta is    0.232927324234689
 New state      4 was old state      1
 Root      4 not converged, maximum delta is    0.013363210858611
 New state      5 was old state      2
 Root      5 not converged, maximum delta is    0.032347281285993
 Excitation Energies [eV] at current iteration:
 Root      1 :     1.762340232870772   Change is   -0.840239815823212
 Root      2 :     2.232552109867003   Change is   -0.382154327707092
 Root      3 :     2.245004383785633   Change is   -0.391153337844948
 Root      4 :     2.350479808716862   Change is   -0.002579425466141
 Root      5 :     2.545143469484936   Change is   -0.006437404963732
 Iteration     3 Dimension    40 NMult    30 NNew     10
 CISAX will form    10 AO SS matrices at one time.
 NMat=    10 NSing=    10 JSym2X= 0.
 Root      1 not converged, maximum delta is    0.052752549252080
 No map to state      2
 New state      3 was old state      2
 Root      3 not converged, maximum delta is    0.129036441344732
 New state      4 was old state      3
 Root      4 not converged, maximum delta is    0.131329939560159
 New state      5 was old state      4
 Root      5 not converged, maximum delta is    0.002321595331779
 Excitation Energies [eV] at current iteration:
 Root      1 :     1.659955387759546   Change is   -0.102384845111226
 Root      2 :     1.883537881557563
 Root      3 :     2.194854167440986   Change is   -0.037697942426017
 Root      4 :     2.206341933811232   Change is   -0.038662449974401
 Root      5 :     2.350467147652001   Change is   -0.000012661064861
 Iteration     4 Dimension    50 NMult    40 NNew     10
 CISAX will form    10 AO SS matrices at one time.
 NMat=    10 NSing=    10 JSym2X= 0.
 Root      1 not converged, maximum delta is    0.010804675056410
 Root      2 not converged, maximum delta is    0.035306222199421
 Root      3 not converged, maximum delta is    0.014211759292577
 Root      4 not converged, maximum delta is    0.013920820672115
 Root      5 has converged.
 Excitation Energies [eV] at current iteration:
 Root      1 :     1.643630789566597   Change is   -0.016324598192949
 Root      2 :     1.734449019282169   Change is   -0.149088862275394
 Root      3 :     2.187001618918826   Change is   -0.007852548522159
 Root      4 :     2.199191967089019   Change is   -0.007149966722214
 Root      5 :     2.350464488607158   Change is   -0.000002659044843
 Iteration     5 Dimension    58 NMult    50 NNew      8
 CISAX will form     8 AO SS matrices at one time.
 NMat=     8 NSing=     8 JSym2X= 0.
 Root      1 not converged, maximum delta is    0.001486358344638
 Root      2 not converged, maximum delta is    0.021784649750364
 Root      3 not converged, maximum delta is    0.001990626843055
 Root      4 not converged, maximum delta is    0.001954043143878
 Root      5 has converged.
 Excitation Energies [eV] at current iteration:
 Root      1 :     1.641989711017804   Change is   -0.001641078548793
 Root      2 :     1.708768540772151   Change is   -0.025680478510017
 Root      3 :     2.186173776898942   Change is   -0.000827842019885
 Root      4 :     2.198318293163423   Change is   -0.000873673925595
 Root      5 :     2.350464322991043   Change is   -0.000000165616115
 Iteration     6 Dimension    66 NMult    58 NNew      8
 CISAX will form     8 AO SS matrices at one time.
 NMat=     8 NSing=     8 JSym2X= 0.
 Root      1 has converged.
 Root      2 not converged, maximum delta is    0.003298504665511
 Root      3 has converged.
 Root      4 has converged.
 Root      5 has converged.
 Excitation Energies [eV] at current iteration:
 Root      1 :     1.641755288619135   Change is   -0.000234422398669
 Root      2 :     1.706458145650607   Change is   -0.002310395121544
 Root      3 :     2.186045599648565   Change is   -0.000128177250376
 Root      4 :     2.198197525941495   Change is   -0.000120767221928
 Root      5 :     2.350464291756924   Change is   -0.000000031234119
 Iteration     7 Dimension    68 NMult    66 NNew      2
 CISAX will form     2 AO SS matrices at one time.
 NMat=     2 NSing=     2 JSym2X= 0.
 Root      1 has converged.
 Root      2 not converged, maximum delta is    0.001532013505254
 Root      3 has converged.
 Root      4 has converged.
 Root      5 has converged.
 Excitation Energies [eV] at current iteration:
 Root      1 :     1.641755269085430   Change is   -0.000000019533705
 Root      2 :     1.706107227080454   Change is   -0.000350918570153
 Root      3 :     2.186045146330081   Change is   -0.000000453318484
 Root      4 :     2.198196131569310   Change is   -0.000001394372185
 Root      5 :     2.350464289231658   Change is   -0.000000002525266
 Iteration     8 Dimension    70 NMult    68 NNew      2
 CISAX will form     2 AO SS matrices at one time.
 NMat=     2 NSing=     2 JSym2X= 0.
 Root      1 has converged.
 Root      2 has converged.
 Root      3 has converged.
 Root      4 has converged.
 Root      5 has converged.
 Excitation Energies [eV] at current iteration:
 Root      1 :     1.641755180938173   Change is   -0.000000088147257
 Root      2 :     1.706064287622089   Change is   -0.000042939458366
 Root      3 :     2.186045029303402   Change is   -0.000000117026679
 Root      4 :     2.198195554000657   Change is   -0.000000577568653
 Root      5 :     2.350464286835311   Change is   -0.000000002396348
 Convergence achieved on expansion vectors.
 ***********************************************************************
 Excited states from <AA,BB:AA,BB> singles matrix:
 ***********************************************************************
 
 1PDM for each excited state written to RWF  633
 Ground to excited state transition densities written to RWF  633
 Ground to excited state transition electric dipole moments (Au):
       state          X           Y           Z        Dip. S.      Osc.
         1        -1.4415      0.2417     -0.7032      2.6309      0.1058
         2        -1.9532     -0.5556      3.2793     14.8778      0.6219
         3        -0.1504      0.1216      0.1468      0.0590      0.0032
         4        -0.1252      1.7690      0.1829      3.1784      0.1712
         5        -0.0062     -0.0035     -0.0004      0.0001      0.0000
 Ground to excited state transition velocity dipole moments (Au):
       state          X           Y           Z        Dip. S.      Osc.
         1         0.0847     -0.0147      0.0404      0.0090      0.0997
         2         0.1166      0.0338     -0.2004      0.0549      0.5836
         3         0.0113     -0.0094     -0.0107      0.0003      0.0027
         4         0.0095     -0.1353     -0.0140      0.0186      0.1534
         5         0.0004      0.0004      0.0000      0.0000      0.0000
 Ground to excited state transition magnetic dipole moments (Au):
[...]
 Alpha virt. eigenvalues --    1.83710   1.83769   1.84123   1.84240   1.84413
 Alpha virt. eigenvalues --    1.84536   1.84796   1.84812   1.85117   1.85177
 Alpha virt. eigenvalues --    1.85346   1.85452   1.85580   1.85664   1.85971
 Alpha virt. eigenvalues --    1.86178   1.86331   1.86412   1.86621   1.86705
 Alpha virt. eigenvalues --    1.86871   1.86922   1.87069   1.87165   1.87335
 Alpha virt. eigenvalues --    1.87555   1.87645   1.87849   1.87937   1.87985
 Alpha virt. eigenvalues --    1.88133   1.88314   1.88518   1.88599   1.88788
 Alpha virt. eigenvalues --    1.89004   1.89234   1.89254   1.89266   1.89665
 Alpha virt. eigenvalues --    1.89808   1.90011   1.90110   1.90345   1.90615
 Alpha virt. eigenvalues --    1.90772   1.91117   1.91285   1.91505   1.91632
 Alpha virt. eigenvalues --    1.91842   1.92131   1.92422   1.92593   1.92852
 Alpha virt. eigenvalues --    1.93013   1.93385   1.93567   1.93768   1.94434
 Alpha virt. eigenvalues --    1.94561   1.94713   1.95177   1.95549   1.95744
 Alpha virt. eigenvalues --    1.95780   1.95936   1.96005   1.96250   1.96308
 Alpha virt. eigenvalues --    1.96414   1.96690   1.96765   1.96910   1.97264
 Alpha virt. eigenvalues --    1.97613   1.97779   1.97929   1.97991   1.98120
 Alpha virt. eigenvalues --    1.98375   1.98502   1.98519   1.99099   1.99342
 Alpha virt. eigenvalues --    1.99746   2.00196   2.00705   2.00942   2.00986
 Alpha virt. eigenvalues --    2.01327   2.01356   2.01624   2.01734   2.01773
 Alpha virt. eigenvalues --    2.01900   2.02040   2.02748   2.02953   2.03287
 Alpha virt. eigenvalues --    2.03308   2.03348   2.03429   2.03632   2.03762
 Alpha virt. eigenvalues --    2.04018   2.04267   2.04965   2.05302   2.05523
 Alpha virt. eigenvalues --    2.05981   2.06086   2.06663   2.06738   2.07138
 Alpha virt. eigenvalues --    2.07217   2.07572   2.08631   2.08905   2.09049
 Alpha virt. eigenvalues --    2.09265   2.09515   2.09904   2.10951   2.11169
 Alpha virt. eigenvalues --    2.11255   2.11472   2.11684   2.11710   2.11712
 Alpha virt. eigenvalues --    2.12251   2.12491   2.12699   2.12794   2.12861
 Alpha virt. eigenvalues --    2.13089   2.13124   2.13685   2.13823   2.14220
 Alpha virt. eigenvalues --    2.14437   2.15339   2.15715   2.15869   2.16278
 Alpha virt. eigenvalues --    2.16589   2.16756   2.16871   2.17385   2.17452
 Alpha virt. eigenvalues --    2.17704   2.17900   2.18088   2.18138   2.18252
 Alpha virt. eigenvalues --    2.18274   2.18774   2.18929   2.19441   2.19603
 Alpha virt. eigenvalues --    2.19987   2.20080   2.20150   2.20461   2.20757
 Alpha virt. eigenvalues --    2.21302   2.21435   2.21588   2.21680   2.22033
 Alpha virt. eigenvalues --    2.22319   2.22700   2.22979   2.23363   2.23557
 Alpha virt. eigenvalues --    2.24406   2.24690   2.25177   2.25493   2.26170
 Alpha virt. eigenvalues --    2.26657   2.26783   2.27001   2.27277   2.27444
 Alpha virt. eigenvalues --    2.28117   2.28564   2.29277   2.29669   2.29737
 Alpha virt. eigenvalues --    2.30117   2.30434   2.30803   2.30919   2.30977
 Alpha virt. eigenvalues --    2.31149   2.31413   2.32141   2.32576   2.33046
 Alpha virt. eigenvalues --    2.33479   2.33494   2.33675   2.34240   2.34316
 Alpha virt. eigenvalues --    2.35215   2.35458   2.35731   2.36184   2.36498
 Alpha virt. eigenvalues --    2.36570   2.36710   2.36743   2.37789   2.37907
 Alpha virt. eigenvalues --    2.38320   2.38731   2.38925   2.39023   2.39566
 Alpha virt. eigenvalues --    2.39922   2.40256   2.40418   2.40462   2.41026
 Alpha virt. eigenvalues --    2.41197   2.41404   2.41859   2.41910   2.41937
 Alpha virt. eigenvalues --    2.42329   2.43065   2.43100   2.43154   2.43319
 Alpha virt. eigenvalues --    2.44121   2.44358   2.44698   2.44857   2.45103
 Alpha virt. eigenvalues --    2.45213   2.45557   2.45837   2.46283   2.46352
 Alpha virt. eigenvalues --    2.46684   2.46753   2.46857   2.47149   2.47276
 Alpha virt. eigenvalues --    2.47602   2.47709   2.48130   2.49375   2.49749
 Alpha virt. eigenvalues --    2.50127   2.50206   2.50760   2.50884   2.51094
 Alpha virt. eigenvalues --    2.51474   2.51816   2.52007   2.52370   2.52565
 Alpha virt. eigenvalues --    2.52758   2.53415   2.53921   2.54188   2.54249
 Alpha virt. eigenvalues --    2.54657   2.54806   2.55031   2.55519   2.55941
 Alpha virt. eigenvalues --    2.57845   2.58401   2.58655   2.59144   2.60062
 Alpha virt. eigenvalues --    2.60480   2.60541   2.61146   2.61709   2.62124
 Alpha virt. eigenvalues --    2.62484   2.62685   2.62906   2.63327   2.63883
 Alpha virt. eigenvalues --    2.64394   2.64514   2.64587   2.65086   2.65292
 Alpha virt. eigenvalues --    2.65713   2.66073   2.66840   2.66956   2.67059
 Alpha virt. eigenvalues --    2.67312   2.67939   2.68189   2.68777   2.68979
 Alpha virt. eigenvalues --    2.69087   2.69227   2.69512   2.69787   2.70012
 Alpha virt. eigenvalues --    2.70358   2.70982   2.71251   2.71931   2.72087
 Alpha virt. eigenvalues --    2.72515   2.72637   2.72668   2.72891   2.73197
 Alpha virt. eigenvalues --    2.73437   2.73507   2.73563   2.74479   2.74706
 Alpha virt. eigenvalues --    2.74893   2.75270   2.76631   2.76711   2.77108
 Alpha virt. eigenvalues --    2.77260   2.77425   2.77881   2.78197   2.78565
 Alpha virt. eigenvalues --    2.78596   2.78907   2.79091   2.79351   2.80228
 Alpha virt. eigenvalues --    2.80449   2.80642   2.80897   2.81019   2.81410
 Alpha virt. eigenvalues --    2.81847   2.82224   2.82336   2.82523   2.83580
 Alpha virt. eigenvalues --    2.83763   2.84056   2.84235   2.84510   2.84817
 Alpha virt. eigenvalues --    2.84936   2.85063   2.85698   2.86073   2.86849
 Alpha virt. eigenvalues --    2.86925   2.87282   2.87452   2.88136   2.88459
 Alpha virt. eigenvalues --    2.88671   2.88786   2.88937   2.89205   2.90513
 Alpha virt. eigenvalues --    2.90816   2.91231   2.91355   2.93083   2.93548
 Alpha virt. eigenvalues --    2.93976   2.94204   2.94654   2.94839   2.95289
 Alpha virt. eigenvalues --    2.95624   2.95899   2.95950   2.96541   2.96590
 Alpha virt. eigenvalues --    2.96958   2.97047   2.97659   2.98174   2.98256
 Alpha virt. eigenvalues --    2.98461   2.98506   2.98563   2.98873   2.98895
 Alpha virt. eigenvalues --    2.98966   2.99166   2.99767   2.99812   3.00094
 Alpha virt. eigenvalues --    3.00137   3.00296   3.00369   3.00946   3.01244
 Alpha virt. eigenvalues --    3.01971   3.02066   3.02121   3.02332   3.02550
 Alpha virt. eigenvalues --    3.02884   3.03091   3.03385   3.03828   3.03933
 Alpha virt. eigenvalues --    3.04236   3.04278   3.04464   3.04610   3.04835
 Alpha virt. eigenvalues --    3.04903   3.05359   3.05708   3.06106   3.06324
 Alpha virt. eigenvalues --    3.06746   3.07123   3.08227   3.08383   3.09315
 Alpha virt. eigenvalues --    3.09659   3.09692   3.10404   3.10556   3.10933
 Alpha virt. eigenvalues --    3.11407   3.11644   3.11821   3.12041   3.12453
 Alpha virt. eigenvalues --    3.12493   3.13202   3.13726   3.13824   3.13832
 Alpha virt. eigenvalues --    3.13927   3.14558   3.16151   3.16207   3.17175
 Alpha virt. eigenvalues --    3.17718   3.18141   3.18172   3.19134   3.19323
 Alpha virt. eigenvalues --    3.21975   3.22695   3.23854   3.24468   3.24646
 Alpha virt. eigenvalues --    3.25357   3.26430   3.26870   3.27542   3.27585
 Alpha virt. eigenvalues --    3.28739   3.29297   3.31443   3.31585   3.33362
 Alpha virt. eigenvalues --    3.33401   3.40299   3.40344   3.42803   3.43097
 Alpha virt. eigenvalues --    3.48511   3.48884   3.49970   3.50497   3.51053
 Alpha virt. eigenvalues --    3.51420   3.56499   3.57233   3.59093   3.59537
 Alpha virt. eigenvalues --    3.62723   3.62727   3.66192   3.66570   3.66925
 Alpha virt. eigenvalues --    3.67606   3.73031   3.74112   3.75867   3.76789
          Condensed to atoms (all electrons):
 Mulliken charges:
               1
     1  Mg   0.838389
     2  C   -0.004890
     3  C   -0.093942
     4  C   -0.045087
     5  C   -0.062315
     6  N   -0.257167
     7  C   -0.052609
     8  C   -0.014144
     9  C   -0.087164
    10  C    0.046824
    11  C    0.104687
    12  C    0.053363
    13  C   -0.071521
    14  H    0.034009
    15  N   -0.433478
    16  C    0.169360
    17  C   -0.176240
    18  C   -0.003056
    19  C    0.149283
    20  C    0.109897
    21  C    0.013147
    22  O   -0.248770
    23  C    0.061936
    24  N   -0.341633
    25  C    0.042418
    26  C   -0.028216
    27  C   -0.023822
    28  C    0.075767
    29  C    0.076205
    30  C    0.034177
    31  C   -0.005405
    32  N   -0.309076
    33  C    0.077481
    34  C   -0.173280
    35  C    0.005941
    36  C    0.079655
    37  C    0.127586
    38  C    0.041933
    39  O   -0.190081
    40  C   -0.004441
    41  C    0.214502
    42  O   -0.262563
    43  O   -0.303321
    44  C    0.158136
    45  H   -0.017119
    46  H   -0.015888
    47  H   -0.040164
    48  H    0.000567
    49  H   -0.003520
    50  H    0.025406
    51  H    0.016906
    52  H    0.017076
    53  H    0.012474
    54  H    0.041749
    55  H    0.018257
    56  H    0.019176
    57  H    0.006072
    58  H    0.027287
    59  H    0.041800
    60  H    0.037239
    61  H    0.036437
    62  H    0.033303
    63  H    0.017776
    64  H    0.008788
    65  H    0.023438
    66  H    0.011850
    67  H    0.004929
    68  H    0.005157
    69  H    0.005629
    70  H    0.004855
    71  H    0.031693
    72  H    0.026398
    73  H    0.044901
    74  H    0.011115
    75  H    0.046378
    76  H    0.035920
    77  H    0.043657
    78  H    0.047457
    79  H    0.050956
    80  Mg   0.836281
    81  C   -0.017083
    82  C   -0.084481
    83  C   -0.046154
    84  C   -0.065117
    85  N   -0.254401
    86  C   -0.051057
    87  C   -0.015010
    88  C   -0.090590
    89  C    0.045024
    90  C    0.114393
    91  C    0.062131
    92  C   -0.077071
    93  H    0.032092
    94  N   -0.423832
    95  C    0.162390
    96  C   -0.171735
    97  C   -0.009072
    98  C    0.152123
    99  C    0.096646
   100  C    0.015187
   101  O   -0.257834
   102  C    0.059696
   103  N   -0.350142
   104  C    0.038211
   105  C   -0.019793
   106  C   -0.034341
   107  C    0.088239
   108  C    0.073985
   109  C    0.034933
   110  C   -0.007279
   111  N   -0.323687
   112  C    0.077229
   113  C   -0.164253
   114  C    0.001696
   115  C    0.095185
   116  C    0.131743
   117  C    0.041405
   118  O   -0.189767
   119  C    0.001162
   120  C    0.211194
   121  O   -0.252069
   122  O   -0.305431
   123  C    0.152466
   124  H   -0.018140
   125  H   -0.016648
   126  H   -0.041481
   127  H   -0.001456
   128  H   -0.003312
   129  H    0.021907
   130  H    0.014694
   131  H    0.016129
   132  H    0.015304
   133  H    0.036537
   134  H    0.020622
   135  H    0.019894
   136  H    0.009309
   137  H    0.024364
   138  H    0.060015
   139  H    0.040231
   140  H    0.030235
   141  H    0.046011
   142  H    0.013525
   143  H    0.011716
   144  H    0.024056
   145  H    0.011806
   146  H    0.005344
   147  H    0.005274
   148  H    0.003194
   149  H    0.010481
   150  H    0.017978
   151  H    0.030308
   152  H    0.044821
   153  H    0.007860
   154  H    0.046105
   155  H    0.034505
   156  H    0.043405
   157  H    0.049242
   158  H    0.052526
 Sum of Mulliken charges =  -0.00000
 Mulliken charges with hydrogens summed into heavy atoms:
               1
     1  Mg   0.838389
     2  C   -0.004890
     3  C   -0.111060
     4  C   -0.060975
     5  C   -0.102479
     6  N   -0.257167
     7  C   -0.052609
     8  C   -0.013577
     9  C   -0.090684
    10  C    0.046824
    11  C    0.164075
    12  C    0.107586
    13  C   -0.000079
    15  N   -0.433478
    16  C    0.169360
    17  C   -0.176240
    18  C   -0.003056
    19  C    0.149283
    20  C    0.185055
    21  C    0.013147
    22  O   -0.248770
    23  C    0.168915
    24  N   -0.341633
    25  C    0.042418
    26  C   -0.010440
    27  C   -0.015034
    28  C    0.075767
    29  C    0.116422
    30  C    0.044963
    31  C    0.057540
    32  N   -0.309076
    33  C    0.077481
    34  C   -0.173280
    35  C    0.005941
    36  C    0.079655
    37  C    0.229980
    38  C    0.041933
    39  O   -0.190081
    40  C    0.031479
    41  C    0.214502
    42  O   -0.262563
    43  O   -0.303321
    44  C    0.300207
    80  Mg   0.836281
    81  C   -0.017083
    82  C   -0.102620
    83  C   -0.062802
    84  C   -0.106599
    85  N   -0.254401
    86  C   -0.051057
    87  C   -0.016466
    88  C   -0.093902
    89  C    0.045024
    90  C    0.167122
    91  C    0.113972
    92  C   -0.004463
    94  N   -0.423832
    95  C    0.162390
    96  C   -0.171735
    97  C   -0.009072
    98  C    0.152123
    99  C    0.190334
   100  C    0.015187
   101  O   -0.257834
   102  C    0.176173
   103  N   -0.350142
   104  C    0.038211
   105  C   -0.006268
   106  C   -0.022625
   107  C    0.088239
   108  C    0.115190
   109  C    0.043401
   110  C    0.051487
   111  N   -0.323687
   112  C    0.077229
   113  C   -0.164253
   114  C    0.001696
   115  C    0.095185
   116  C    0.230529
   117  C    0.041405
   118  O   -0.189767
   119  C    0.035667
   120  C    0.211194
   121  O   -0.252069
   122  O   -0.305431
   123  C    0.297639
 Electronic spatial extent (au):  <R**2>=         101826.6571
 Charge=             -0.0000 electrons
 Dipole moment (field-independent basis, Debye):
    X=              3.1709    Y=              3.1220    Z=              0.9056  Tot=              4.5411
 Quadrupole moment (field-independent basis, Debye-Ang):
   XX=           -533.5566   YY=           -463.7049   ZZ=           -517.4755
   XY=              5.4989   XZ=             46.9389   YZ=             19.5487
 Traceless Quadrupole moment (field-independent basis, Debye-Ang):
   XX=            -28.6443   YY=             41.2074   ZZ=            -12.5631
   XY=              5.4989   XZ=             46.9389   YZ=             19.5487
 Octapole moment (field-independent basis, Debye-Ang**2):
  XXX=            389.0360  YYY=            225.4103  ZZZ=            185.8105  XYY=           -150.7024
  XXY=            -98.0239  XXZ=           -115.9940  XZZ=             51.3805  YZZ=            123.1959
  YYZ=            -28.4611  XYZ=            174.1981
 Hexadecapole moment (field-independent basis, Debye-Ang**3):
 XXXX=         -82758.9608 YYYY=         -33101.2713 ZZZZ=         -24085.8848 XXXY=            281.2849
 XXXZ=           2200.8093 YYYX=            216.3268 YYYZ=            354.1691 ZZZX=            747.6930
 ZZZY=            367.5162 XXYY=         -17221.3393 XXZZ=         -18169.8612 YYZZ=         -10260.3244
 XXYZ=            851.0689 YYXZ=           -520.5921 ZZXY=           -175.6743
 N-N= 1.547921711982D+04 E-N=-4.043985253879D+04  KE= 4.028792980115D+03
 Leave Link  601 at Thu Sep  9 15:05:28 2021, MaxMem= 23488102400 cpu:              16.7 elap:               0.8
 (Enter /sw/apps/gaussian-16.0/g16/l9999.exe)
 1\1\GINC-BP1-COMPUTE00113\SP\RCAM-B3LYP TD-FC\def2SVP\C68H72Mg2N8O8\OF
 15641\09-Sep-2021\0\\#p cam-b3lyp/Def2SVP td=(nstates=5)\\TDDFT excite
 d states in gaussian\\0,1\Mg,0,0.,0.,0.\C,0,-0.217,-2.218,2.801\C,0,-1
 .255,2.442,2.026\C,0,-0.245,1.85,-2.564\C,0,0.146,-2.824,-2.037\N,0,-0
 .617,-0.009,2.126\C,0,-0.594,-0.908,3.105\C,0,-0.936,-0.309,4.502\C,0,
 -1.773,0.964,4.032\C,0,-1.155,1.168,2.66\C,0,-3.263,0.685,3.863\C,0,0.
 345,0.11,5.299\C,0,0.124,0.397,6.787\H,0,1.168,0.033,7.733\N,0,-0.185,
 1.961,-0.152\C,0,-0.703,2.8,0.777\C,0,-0.62,4.156,0.193\C,0,-0.187,4.0
 15,-1.225\C,0,-0.214,2.583,-1.38\C,0,-0.887,5.406,0.974\C,0,0.181,5.01
 3,-2.277\O,0,0.303,4.69,-3.508\C,0,0.31,6.414,-1.837\N,0,-0.265,-0.413
 ,-2.029\C,0,-0.279,0.569,-2.937\C,0,-0.196,0.024,-4.332\C,0,0.124,-1.5
 33,-4.18\C,0,0.086,-1.632,-2.635\C,0,-1.451,0.205,-5.197\C,0,1.373,-2.
 07,-4.923\C,0,2.626,-1.49,-4.306\N,0,0.15,-2.144,0.303\C,0,0.173,-3.13
 6,-0.688\C,0,0.173,-4.438,0.004\C,0,0.133,-4.111,1.358\C,0,0.083,-2.69
 5,1.502\C,0,0.149,-5.715,-0.623\C,0,0.096,-4.629,2.716\O,0,0.208,-5.74
 7,3.221\C,0,-0.255,-3.428,3.701\C,0,0.717,-3.482,4.848\O,0,1.931,-3.25
 5,4.669\O,0,0.038,-3.556,6.003\C,0,0.943,-3.583,7.183\H,0,-1.859,3.22,
 2.497\H,0,-0.218,2.453,-3.474\H,0,0.276,-3.747,-2.605\H,0,-1.554,-0.94
 9,5.132\H,0,-1.585,1.831,4.665\H,0,-3.484,-0.377,3.969\H,0,-3.511,1.02
 7,2.858\H,0,-3.852,1.301,4.543\H,0,0.669,1.096,4.966\H,0,1.13,-0.639,5
 .189\H,0,-0.844,0.026,7.125\H,0,0.062,1.477,6.921\H,0,-1.344,5.186,1.9
 38\H,0,-1.651,5.963,0.432\H,0,0.007,6.02,1.084\H,0,-0.635,6.744,-1.405
 \H,0,0.665,6.97,-2.704\H,0,1.048,6.466,-1.036\H,0,0.608,0.501,-4.891\H
 ,0,-0.692,-2.156,-4.547\H,0,-1.267,0.74,-6.129\H,0,-2.204,0.714,-4.596
 \H,0,-1.967,-0.72,-5.453\H,0,1.356,-1.759,-5.967\H,0,1.452,-3.157,-4.9
 02\H,0,2.714,-0.522,-4.798\H,0,3.487,-2.121,-4.529\H,0,2.495,-1.303,-3
 .24\H,0,0.867,-6.333,-0.084\H,0,0.404,-5.642,-1.68\H,0,-0.891,-5.999,-
 0.463\H,0,-1.283,-3.581,4.028\H,0,0.698,-4.478,7.755\H,0,0.833,-2.619,
 7.68\H,0,2.,-3.754,6.976\Mg,0,8.92563,0.80588,0.68468\C,0,10.24069,3.0
 0965,3.19328\C,0,8.18486,-1.37431,3.20115\C,0,8.17458,-1.33943,-1.5291
 4\C,0,10.76918,2.60403,-1.66345\N,0,9.22222,0.91689,2.87373\C,0,9.6758
 5,1.82936,3.71988\C,0,9.44208,1.49117,5.21672\C,0,9.33279,-0.10583,5.0
 882\C,0,8.84914,-0.20219,3.6427\C,0,10.67495,-0.8111,5.19081\C,0,8.112
 99,2.11521,5.77\C,0,7.97494,2.08716,7.29378\H,0,7.30576,3.2054,7.95273
 \N,0,7.84293,-0.852,0.81793\C,0,7.62907,-1.59765,1.92226\C,0,6.78461,-
 2.72238,1.49096\C,0,6.65378,-2.66958,0.00947\C,0,7.58952,-1.6072,-0.30
 009\C,0,6.12899,-3.66518,2.45777\C,0,5.83309,-3.45503,-0.96815\O,0,6.0
 5424,-3.40095,-2.2295\C,0,4.82443,-4.36058,-0.39889\N,0,9.56334,0.5174
 7,-1.273\C,0,9.03854,-0.4587,-2.03431\C,0,9.44516,-0.30111,-3.48007\C,
 0,10.15771,1.12762,-3.57268\C,0,10.11738,1.52765,-2.08145\C,0,10.38529
 ,-1.37482,-4.02753\C,0,9.59722,2.12693,-4.62144\C,0,8.20524,2.56397,-4
 .22549\N,0,10.11895,2.60699,0.69235\C,0,10.82391,3.16776,-0.39514\C,0,
 11.57955,4.32519,0.1262\C,0,11.27752,4.34379,1.49621\C,0,10.41191,3.26
 146,1.81052\C,0,12.44814,5.16094,-0.6309\C,0,11.50259,5.0266,2.74993\O
 ,0,12.07805,6.06133,3.08446\C,0,10.94216,4.11829,3.92776\C,0,10.117,4.
 99005,4.83422\O,0,9.06217,5.50688,4.42577\O,0,10.59123,4.89377,6.0897\
 C,0,9.79837,5.73225,7.02786\H,0,8.1184,-2.22154,3.88428\H,0,7.86012,-1
 .98576,-2.35185\H,0,11.28999,3.27453,-2.35037\H,0,10.26043,1.75604,5.8
 7545\H,0,8.58526,-0.50655,5.7679\H,0,11.49701,-0.11127,5.21505\H,0,10.
 74243,-1.44386,4.31553\H,0,10.68141,-1.4858,6.05166\H,0,7.27103,1.4677
 6,5.49312\H,0,7.98643,3.11917,5.41412\H,0,8.92704,1.86274,7.78986\H,0,
 7.32632,1.25168,7.56814\H,0,6.54151,-3.55615,3.46839\H,0,6.41202,-4.67
 968,2.15686\H,0,5.03984,-3.58543,2.45097\H,0,5.31204,-5.07735,0.25757\
 H,0,4.27993,-4.76601,-1.25389\H,0,4.1416,-3.77481,0.22658\H,0,8.57749,
 -0.30376,-4.12833\H,0,11.21949,1.03652,-3.84499\H,0,9.98379,-1.8934,-4
 .91856\H,0,10.59203,-2.08315,-3.23628\H,0,11.38208,-1.0252,-4.29089\H,
 0,9.50456,1.641,-5.59583\H,0,10.21987,3.00491,-4.75734\H,0,7.57493,1.7
 5452,-4.60575\H,0,7.95396,3.51331,-4.69415\H,0,8.09419,2.58377,-3.1351
 1\H,0,12.23733,6.1796,-0.33362\H,0,12.30348,5.01993,-1.7\H,0,13.4194,4
 .78767,-0.29535\H,0,11.79985,3.68621,4.44473\H,0,10.50264,6.40209,7.53
 086\H,0,9.23804,5.02109,7.66349\H,0,9.10109,6.44217,6.5986\\Version=ES
 64L-G16RevA.03\State=1-A\HF=-4069.8150032\RMSD=9.770e-09\PG=C01 [X(C68
 H72Mg2N8O8)]\\@


 A MAN THINKING OR WORKING IS ALWAYS ALONE, 
 LET HIM BE WHERE HE WILL.

                                    -- THOREAU
 Job cpu time:       0 days 14 hours 45 minutes 33.8 seconds.
 Elapsed time:       0 days  0 hours 37 minutes 32.1 seconds.
 File lengths (MBytes):  RWF=  13225 Int=      0 D2E=      0 Chk=    574 Scr=      1
 Normal termination of Gaussian 16 at Thu Sep  9 15:05:29 2021.
