 Entering Gaussian System, Link 0=g16
 Initial command:
 /sw/apps/gaussian-16.0/g16/l1.exe "/tmp/Gau-108880.inp" -scrdir="/tmp/"
 Entering Link 1 = /sw/apps/gaussian-16.0/g16/l1.exe PID=    108881.
  
 Copyright (c) 1988,1990,1992,1993,1995,1998,2003,2009,2016,
            Gaussian, Inc.  All Rights Reserved.
  
 This is part of the Gaussian(R) 16 program.  It is based on
 the Gaussian(R) 09 system (copyright 2009, Gaussian, Inc.),
 the Gaussian(R) 03 system (copyright 2003, Gaussian, Inc.),
 the Gaussian(R) 98 system (copyright 1998, Gaussian, Inc.),
 the Gaussian(R) 94 system (copyright 1995, Gaussian, Inc.),
 the Gaussian 92(TM) system (copyright 1992, Gaussian, Inc.),
 the Gaussian 90(TM) system (copyright 1990, Gaussian, Inc.),
 the Gaussian 88(TM) system (copyright 1988, Gaussian, Inc.),
 the Gaussian 86(TM) system (copyright 1986, Carnegie Mellon
 University), and the Gaussian 82(TM) system (copyright 1983,
 Carnegie Mellon University). Gaussian is a federally registered
 trademark of Gaussian, Inc.
  
 This software contains proprietary and confidential information,
 including trade secrets, belonging to Gaussian, Inc.
  
 This software is provided under written license and may be
 used, copied, transmitted, or stored only in accord with that
 written license.
  
 The following legend is applicable only to US Government
 contracts under FAR:
  
                    RESTRICTED RIGHTS LEGEND
  
 Use, reproduction and disclosure by the US Government is
 subject to restrictions as set forth in subparagraphs (a)
 and (c) of the Commercial Computer Software - Restricted
 Rights clause in FAR 52.227-19.
  
 Gaussian, Inc.
 340 Quinnipiac St., Bldg. 40, Wallingford CT 06492
  
  
 ---------------------------------------------------------------
 Warning -- This program may not be used in any manner that
 competes with the business of Gaussian, Inc. or will provide
 assistance to any competitor of Gaussian, Inc.  The licensee
 of this program is prohibited from giving any competitor of
 Gaussian, Inc. access to this program.  By using this program,
 the user acknowledges that Gaussian, Inc. is engaged in the
 business of creating and licensing software in the field of
 computational chemistry and represents and warrants to the
 licensee that it is not a competitor of Gaussian, Inc. and that
 it will not use this program in any manner prohibited above.
 ---------------------------------------------------------------
  

 Cite this work as:
 Gaussian 16, Revision A.03,
 M. J. Frisch, G. W. Trucks, H. B. Schlegel, G. E. Scuseria, 
 M. A. Robb, J. R. Cheeseman, G. Scalmani, V. Barone, 
 G. A. Petersson, H. Nakatsuji, X. Li, M. Caricato, A. V. Marenich, 
 J. Bloino, B. G. Janesko, R. Gomperts, B. Mennucci, H. P. Hratchian, 
 J. V. Ortiz, A. F. Izmaylov, J. L. Sonnenberg, D. Williams-Young, 
 F. Ding, F. Lipparini, F. Egidi, J. Goings, B. Peng, A. Petrone, 
 T. Henderson, D. Ranasinghe, V. G. Zakrzewski, J. Gao, N. Rega, 
 G. Zheng, W. Liang, M. Hada, M. Ehara, K. Toyota, R. Fukuda, 
 J. Hasegawa, M. Ishida, T. Nakajima, Y. Honda, O. Kitao, H. Nakai, 
 T. Vreven, K. Throssell, J. A. Montgomery, Jr., J. E. Peralta, 
 F. Ogliaro, M. J. Bearpark, J. J. Heyd, E. N. Brothers, K. N. Kudin, 
 V. N. Staroverov, T. A. Keith, R. Kobayashi, J. Normand, 
 K. Raghavachari, A. P. Rendell, J. C. Burant, S. S. Iyengar, 
 J. Tomasi, M. Cossi, J. M. Millam, M. Klene, C. Adamo, R. Cammi, 
 J. W. Ochterski, R. L. Martin, K. Morokuma, O. Farkas, 
 J. B. Foresman, and D. J. Fox, Gaussian, Inc., Wallingford CT, 2016.
 
 ******************************************
 Gaussian 16:  ES64L-G16RevA.03 25-Dec-2016
                 3-Sep-2021 
 ******************************************
 %nproc=24
 Will use up to   24 processors via shared memory.
 %mem=175gb
 -----------------------------------
 #p cam-b3lyp/Def2SVP td=(nstates=5)
 -----------------------------------
 1/38=1,172=1/1;
 2/12=2,17=6,18=5,40=1/2;
 3/5=43,7=101,11=9,25=1,30=1,74=-40/1,2,3,8;
 4//1;
 5/5=2,38=5/2;
 8/6=1,10=1,108=5/1;
 9/41=5,42=1,70=2/14;
 6/7=2,8=2,9=2,10=2/1;
 99/5=1,9=1/99;
 Leave Link    1 at Fri Sep  3 15:40:38 2021, MaxMem= 23488102400 cpu:               0.8 elap:               0.0
 (Enter /sw/apps/gaussian-16.0/g16/l101.exe)
 --------------------------------
 TDDFT excited states in gaussian
 --------------------------------
 Symbolic Z-matrix:
 Charge =  0 Multiplicity = 1
 Mg                    0.        0.        0. 
 C                    -0.217    -2.218     2.801 
 C                    -1.255     2.442     2.026 
 C                    -0.245     1.85     -2.564 
 C                     0.146    -2.824    -2.037 
 N                    -0.617    -0.009     2.126 
 C                    -0.594    -0.908     3.105 
 C                    -0.936    -0.309     4.502 
 C                    -1.773     0.964     4.032 
 C                    -1.155     1.168     2.66 
 C                    -3.263     0.685     3.863 
 C                     0.345     0.11      5.299 
 C                     0.124     0.397     6.787 
 H                     1.168     0.033     7.733 
 N                    -0.185     1.961    -0.152 
 C                    -0.703     2.8       0.777 
 C                    -0.62      4.156     0.193 
 C                    -0.187     4.015    -1.225 
 C                    -0.214     2.583    -1.38 
 C                    -0.887     5.406     0.974 
 C                     0.181     5.013    -2.277 
 O                     0.303     4.69     -3.508 
 C                     0.31      6.414    -1.837 
 N                    -0.265    -0.413    -2.029 
 C                    -0.279     0.569    -2.937 
 C                    -0.196     0.024    -4.332 
 C                     0.124    -1.533    -4.18 
 C                     0.086    -1.632    -2.635 
 C                    -1.451     0.205    -5.197 
 C                     1.373    -2.07     -4.923 
 C                     2.626    -1.49     -4.306 
 N                     0.15     -2.144     0.303 
 C                     0.173    -3.136    -0.688 
 C                     0.173    -4.438     0.004 
 C                     0.133    -4.111     1.358 
 C                     0.083    -2.695     1.502 
 C                     0.149    -5.715    -0.623 
 C                     0.096    -4.629     2.716 
 O                     0.208    -5.747     3.221 
 C                    -0.255    -3.428     3.701 
 C                     0.717    -3.482     4.848 
 O                     1.931    -3.255     4.669 
 O                     0.038    -3.556     6.003 
 C                     0.943    -3.583     7.183 
 H                    -1.859     3.22      2.497 
 H                    -0.218     2.453    -3.474 
 H                     0.276    -3.747    -2.605 
 H                    -1.554    -0.949     5.132 
 H                    -1.585     1.831     4.665 
 H                    -3.484    -0.377     3.969 
 H                    -3.511     1.027     2.858 
 H                    -3.852     1.301     4.543 
 H                     0.669     1.096     4.966 
 H                     1.13     -0.639     5.189 
 H                    -0.844     0.026     7.125 
 H                     0.062     1.477     6.921 
 H                    -1.344     5.186     1.938 
 H                    -1.651     5.963     0.432 
 H                     0.007     6.02      1.084 
 H                    -0.635     6.744    -1.405 
 H                     0.665     6.97     -2.704 
 H                     1.048     6.466    -1.036 
 H                     0.608     0.501    -4.891 
 H                    -0.692    -2.156    -4.547 
 H                    -1.267     0.74     -6.129 
 H                    -2.204     0.714    -4.596 
 H                    -1.967    -0.72     -5.453 
 H                     1.356    -1.759    -5.967 
 H                     1.452    -3.157    -4.902 
 H                     2.714    -0.522    -4.798 
 H                     3.487    -2.121    -4.529 
 H                     2.495    -1.303    -3.24 
 H                     0.867    -6.333    -0.084 
 H                     0.404    -5.642    -1.68 
 H                    -0.891    -5.999    -0.463 
 H                    -1.283    -3.581     4.028 
 H                     0.698    -4.478     7.755 
 H                     0.833    -2.619     7.68 
 H                     2.       -3.754     6.976 
 Mg                    7.88957   0.71795   0.60055 
 C                     7.36624   1.26534   4.10848 
 C                     6.75926   3.89517   0.08838 
 C                     7.91133   0.11727  -2.51492 
 C                     7.87715  -2.70144   1.27383 
 N                     7.18378   2.28059   1.99779 
 C                     7.08734   2.39669   3.31368 
 C                     6.74609   3.8274    3.80985 
 C                     6.03238   4.37885   2.48117 
 C                     6.72211   3.4915    1.44697 
 C                     4.54048   4.09322   2.43663 
 C                     8.02882   4.66018   4.1607 
 C                     7.7647    5.95021   4.94032 
 H                     8.73984   6.3694    5.94325 
 N                     7.87902   1.96034  -0.94701 
 C                     7.40213   3.22253  -0.97398 
 C                     7.60916   3.70152  -2.34943 
 C                     8.09635   2.56274  -3.17437 
 C                     7.95829   1.47379  -2.22821 
 C                     7.42385   5.13694  -2.74775 
 C                     8.59103   2.46718  -4.58589 
 O                     8.73824   1.33725  -5.17275 
 C                     8.80891   3.73836  -5.29167 
 N                     7.68246  -1.0343   -0.49902 
 C                     7.78376  -1.02519  -1.83976 
 C                     7.87697  -2.42865  -2.38931 
 C                     8.06137  -3.37754  -1.11527 
 C                     7.94846  -2.32101   0.00562 
 C                     6.67666  -2.90363  -3.20785 
 C                     9.29169  -4.32569  -1.11609 
 C                     10.56573  -3.51808  -1.01617 
 N                     7.85074  -0.51835   2.37202 
 C                     7.82489  -1.92916   2.42719 
 C                     7.68626  -2.3068    3.84866 
 C                     7.61738  -1.07952   4.52506 
 C                     7.68647  -0.01236   3.58917 
 C                     7.59134  -3.63524   4.35103 
 C                     7.49126  -0.44415   5.81699 
 O                     7.48059  -0.83937   6.98208 
 C                     7.1958    1.10151   5.59331 
 C                     8.1111    1.88451   6.49423 
 O                     9.34205   1.86187   6.31855 
 O                     7.37372   2.69751   7.27247 
 C                     8.23766   3.50308   8.17608 
 H                     6.20882   4.79045  -0.20209 
 H                     8.02717  -0.1462   -3.56879 
 H                     7.9641   -3.7475    1.57527 
 H                     6.05741   3.86626   4.6453 
 H                     6.27369   5.4244    2.3081 
 H                     4.22682   3.46066   3.25371 
 H                     4.3631    3.60249   1.4886 
 H                     3.97811   5.03065   2.40063 
 H                     8.44625   5.08104   3.23692 
 H                     8.74133   4.05766   4.68979 
 H                     6.74971   5.98087   5.35481 
 H                     7.79446   6.79004   4.24188 
 H                     6.90247   5.70652  -1.96855 
 H                     6.73397   5.1462   -3.59853 
 H                     8.35915   5.61543  -3.04595 
 H                     7.87913   4.30171  -5.31633 
 H                     9.24662   3.46686  -6.25426 
 H                     9.52519   4.33812  -4.7191 
 H                     8.74047  -2.53478  -3.03445 
 H                     7.20897  -4.06126  -0.98967 
 H                     6.94674  -3.22866  -4.23034 
 H                     5.94925  -2.10351  -3.24287 
 H                     6.10546  -3.71577  -2.76134 
 H                     9.3457   -4.87519  -2.05911 
 H                     9.27245  -5.05894  -0.31674 
 H                     10.74982  -3.21838  -2.05221 
 H                     11.37869  -4.13101  -0.63219 
 H                     10.40759  -2.60421  -0.4318 
 H                     8.22513  -3.68303   5.22655 
 H                     7.89057  -4.36576   3.60231 
 H                     6.52114  -3.68542   4.56878 
 H                     6.14474   1.27169   5.82974 
 H                     7.89089   3.31894   9.19761 
 H                     8.17405   4.54226   7.80216 
 H                     9.28153   3.22231   8.25324 
 
 ITRead=  0  0  0  0  0  0  0  0  0  0  0  0  0  0  0  0  0  0  0  0
 ITRead=  0  0  0  0  0  0  0  0  0  0  0  0  0  0  0  0  0  0  0  0
 ITRead=  0  0  0  0  0  0  0  0  0  0  0  0  0  0  0  0  0  0  0  0
 ITRead=  0  0  0  0  0  0  0  0  0  0  0  0  0  0  0  0  0  0  0  0
 ITRead=  0  0  0  0  0  0  0  0  0  0  0  0  0  0  0  0  0  0  0  0
 ITRead=  0  0  0  0  0  0  0  0  0  0  0  0  0  0  0  0  0  0  0  0
 ITRead=  0  0  0  0  0  0  0  0  0  0  0  0  0  0  0  0  0  0  0  0
 ITRead=  0  0  0  0  0  0  0  0  0  0  0  0  0  0  0  0  0  0
 MicOpt= -1 -1 -1 -1 -1 -1 -1 -1 -1 -1 -1 -1 -1 -1 -1 -1 -1 -1 -1 -1
 MicOpt= -1 -1 -1 -1 -1 -1 -1 -1 -1 -1 -1 -1 -1 -1 -1 -1 -1 -1 -1 -1
 MicOpt= -1 -1 -1 -1 -1 -1 -1 -1 -1 -1 -1 -1 -1 -1 -1 -1 -1 -1 -1 -1
 MicOpt= -1 -1 -1 -1 -1 -1 -1 -1 -1 -1 -1 -1 -1 -1 -1 -1 -1 -1 -1 -1
 MicOpt= -1 -1 -1 -1 -1 -1 -1 -1 -1 -1 -1 -1 -1 -1 -1 -1 -1 -1 -1 -1
 MicOpt= -1 -1 -1 -1 -1 -1 -1 -1 -1 -1 -1 -1 -1 -1 -1 -1 -1 -1 -1 -1
 MicOpt= -1 -1 -1 -1 -1 -1 -1 -1 -1 -1 -1 -1 -1 -1 -1 -1 -1 -1 -1 -1
 MicOpt= -1 -1 -1 -1 -1 -1 -1 -1 -1 -1 -1 -1 -1 -1 -1 -1 -1 -1
 NAtoms=    158 NQM=      158 NQMF=       0 NMMI=      0 NMMIF=      0
                NMic=       0 NMicF=      0.
                    Isotopes and Nuclear Properties:
 (Nuclear quadrupole moments (NQMom) in fm**2, nuclear magnetic moments (NMagM)
  in nuclear magnetons)

  Atom         1           2           3           4           5           6           7           8           9          10
 IAtWgt=          24          12          12          12          12          14          12          12          12          12
 AtmWgt=  23.9850450  12.0000000  12.0000000  12.0000000  12.0000000  14.0030740  12.0000000  12.0000000  12.0000000  12.0000000
 NucSpn=           0           0           0           0           0           2           0           0           0           0
 AtZEff=  -0.0000000  -0.0000000  -0.0000000  -0.0000000  -0.0000000  -0.0000000  -0.0000000  -0.0000000  -0.0000000  -0.0000000
 NQMom=    0.0000000   0.0000000   0.0000000   0.0000000   0.0000000   2.0440000   0.0000000   0.0000000   0.0000000   0.0000000
 NMagM=    0.0000000   0.0000000   0.0000000   0.0000000   0.0000000   0.4037610   0.0000000   0.0000000   0.0000000   0.0000000
 AtZNuc=  12.0000000   6.0000000   6.0000000   6.0000000   6.0000000   7.0000000   6.0000000   6.0000000   6.0000000   6.0000000

  Atom        11          12          13          14          15          16          17          18          19          20
 IAtWgt=          12          12          12           1          14          12          12          12          12          12
 AtmWgt=  12.0000000  12.0000000  12.0000000   1.0078250  14.0030740  12.0000000  12.0000000  12.0000000  12.0000000  12.0000000
 NucSpn=           0           0           0           1           2           0           0           0           0           0
 AtZEff=  -0.0000000  -0.0000000  -0.0000000  -0.0000000  -0.0000000  -0.0000000  -0.0000000  -0.0000000  -0.0000000  -0.0000000
 NQMom=    0.0000000   0.0000000   0.0000000   0.0000000   2.0440000   0.0000000   0.0000000   0.0000000   0.0000000   0.0000000
 NMagM=    0.0000000   0.0000000   0.0000000   2.7928460   0.4037610   0.0000000   0.0000000   0.0000000   0.0000000   0.0000000
 AtZNuc=   6.0000000   6.0000000   6.0000000   1.0000000   7.0000000   6.0000000   6.0000000   6.0000000   6.0000000   6.0000000

  Atom        21          22          23          24          25          26          27          28          29          30
 IAtWgt=          12          16          12          14          12          12          12          12          12          12
 AtmWgt=  12.0000000  15.9949146  12.0000000  14.0030740  12.0000000  12.0000000  12.0000000  12.0000000  12.0000000  12.0000000
 NucSpn=           0           0           0           2           0           0           0           0           0           0
 AtZEff=  -0.0000000  -0.0000000  -0.0000000  -0.0000000  -0.0000000  -0.0000000  -0.0000000  -0.0000000  -0.0000000  -0.0000000
 NQMom=    0.0000000   0.0000000   0.0000000   2.0440000   0.0000000   0.0000000   0.0000000   0.0000000   0.0000000   0.0000000
 NMagM=    0.0000000   0.0000000   0.0000000   0.4037610   0.0000000   0.0000000   0.0000000   0.0000000   0.0000000   0.0000000
 AtZNuc=   6.0000000   8.0000000   6.0000000   7.0000000   6.0000000   6.0000000   6.0000000   6.0000000   6.0000000   6.0000000

  Atom        31          32          33          34          35          36          37          38          39          40
 IAtWgt=          12          14          12          12          12          12          12          12          16          12
 AtmWgt=  12.0000000  14.0030740  12.0000000  12.0000000  12.0000000  12.0000000  12.0000000  12.0000000  15.9949146  12.0000000
 NucSpn=           0           2           0           0           0           0           0           0           0           0
 AtZEff=  -0.0000000  -0.0000000  -0.0000000  -0.0000000  -0.0000000  -0.0000000  -0.0000000  -0.0000000  -0.0000000  -0.0000000
 NQMom=    0.0000000   2.0440000   0.0000000   0.0000000   0.0000000   0.0000000   0.0000000   0.0000000   0.0000000   0.0000000
 NMagM=    0.0000000   0.4037610   0.0000000   0.0000000   0.0000000   0.0000000   0.0000000   0.0000000   0.0000000   0.0000000
 AtZNuc=   6.0000000   7.0000000   6.0000000   6.0000000   6.0000000   6.0000000   6.0000000   6.0000000   8.0000000   6.0000000

  Atom        41          42          43          44          45          46          47          48          49          50
 IAtWgt=          12          16          16          12           1           1           1           1           1           1
 AtmWgt=  12.0000000  15.9949146  15.9949146  12.0000000   1.0078250   1.0078250   1.0078250   1.0078250   1.0078250   1.0078250
 NucSpn=           0           0           0           0           1           1           1           1           1           1
 AtZEff=  -0.0000000  -0.0000000  -0.0000000  -0.0000000  -0.0000000  -0.0000000  -0.0000000  -0.0000000  -0.0000000  -0.0000000
 NQMom=    0.0000000   0.0000000   0.0000000   0.0000000   0.0000000   0.0000000   0.0000000   0.0000000   0.0000000   0.0000000
 NMagM=    0.0000000   0.0000000   0.0000000   0.0000000   2.7928460   2.7928460   2.7928460   2.7928460   2.7928460   2.7928460
 AtZNuc=   6.0000000   8.0000000   8.0000000   6.0000000   1.0000000   1.0000000   1.0000000   1.0000000   1.0000000   1.0000000

  Atom        51          52          53          54          55          56          57          58          59          60
 IAtWgt=           1           1           1           1           1           1           1           1           1           1
 AtmWgt=   1.0078250   1.0078250   1.0078250   1.0078250   1.0078250   1.0078250   1.0078250   1.0078250   1.0078250   1.0078250
 NucSpn=           1           1           1           1           1           1           1           1           1           1
 AtZEff=  -0.0000000  -0.0000000  -0.0000000  -0.0000000  -0.0000000  -0.0000000  -0.0000000  -0.0000000  -0.0000000  -0.0000000
 NQMom=    0.0000000   0.0000000   0.0000000   0.0000000   0.0000000   0.0000000   0.0000000   0.0000000   0.0000000   0.0000000
 NMagM=    2.7928460   2.7928460   2.7928460   2.7928460   2.7928460   2.7928460   2.7928460   2.7928460   2.7928460   2.7928460
 AtZNuc=   1.0000000   1.0000000   1.0000000   1.0000000   1.0000000   1.0000000   1.0000000   1.0000000   1.0000000   1.0000000

  Atom        61          62          63          64          65          66          67          68          69          70
 IAtWgt=           1           1           1           1           1           1           1           1           1           1
 AtmWgt=   1.0078250   1.0078250   1.0078250   1.0078250   1.0078250   1.0078250   1.0078250   1.0078250   1.0078250   1.0078250
 NucSpn=           1           1           1           1           1           1           1           1           1           1
 AtZEff=  -0.0000000  -0.0000000  -0.0000000  -0.0000000  -0.0000000  -0.0000000  -0.0000000  -0.0000000  -0.0000000  -0.0000000
 NQMom=    0.0000000   0.0000000   0.0000000   0.0000000   0.0000000   0.0000000   0.0000000   0.0000000   0.0000000   0.0000000
 NMagM=    2.7928460   2.7928460   2.7928460   2.7928460   2.7928460   2.7928460   2.7928460   2.7928460   2.7928460   2.7928460
 AtZNuc=   1.0000000   1.0000000   1.0000000   1.0000000   1.0000000   1.0000000   1.0000000   1.0000000   1.0000000   1.0000000

  Atom        71          72          73          74          75          76          77          78          79          80
 IAtWgt=           1           1           1           1           1           1           1           1           1          24
 AtmWgt=   1.0078250   1.0078250   1.0078250   1.0078250   1.0078250   1.0078250   1.0078250   1.0078250   1.0078250  23.9850450
 NucSpn=           1           1           1           1           1           1           1           1           1           0
 AtZEff=  -0.0000000  -0.0000000  -0.0000000  -0.0000000  -0.0000000  -0.0000000  -0.0000000  -0.0000000  -0.0000000  -0.0000000
 NQMom=    0.0000000   0.0000000   0.0000000   0.0000000   0.0000000   0.0000000   0.0000000   0.0000000   0.0000000   0.0000000
 NMagM=    2.7928460   2.7928460   2.7928460   2.7928460   2.7928460   2.7928460   2.7928460   2.7928460   2.7928460   0.0000000
 AtZNuc=   1.0000000   1.0000000   1.0000000   1.0000000   1.0000000   1.0000000   1.0000000   1.0000000   1.0000000  12.0000000

  Atom        81          82          83          84          85          86          87          88          89          90
 IAtWgt=          12          12          12          12          14          12          12          12          12          12
 AtmWgt=  12.0000000  12.0000000  12.0000000  12.0000000  14.0030740  12.0000000  12.0000000  12.0000000  12.0000000  12.0000000
 NucSpn=           0           0           0           0           2           0           0           0           0           0
 AtZEff=  -0.0000000  -0.0000000  -0.0000000  -0.0000000  -0.0000000  -0.0000000  -0.0000000  -0.0000000  -0.0000000  -0.0000000
 NQMom=    0.0000000   0.0000000   0.0000000   0.0000000   2.0440000   0.0000000   0.0000000   0.0000000   0.0000000   0.0000000
 NMagM=    0.0000000   0.0000000   0.0000000   0.0000000   0.4037610   0.0000000   0.0000000   0.0000000   0.0000000   0.0000000
 AtZNuc=   6.0000000   6.0000000   6.0000000   6.0000000   7.0000000   6.0000000   6.0000000   6.0000000   6.0000000   6.0000000

  Atom        91          92          93          94          95          96          97          98          99         100
 IAtWgt=          12          12           1          14          12          12          12          12          12          12
 AtmWgt=  12.0000000  12.0000000   1.0078250  14.0030740  12.0000000  12.0000000  12.0000000  12.0000000  12.0000000  12.0000000
 NucSpn=           0           0           1           2           0           0           0           0           0           0
 AtZEff=  -0.0000000  -0.0000000  -0.0000000  -0.0000000  -0.0000000  -0.0000000  -0.0000000  -0.0000000  -0.0000000  -0.0000000
 NQMom=    0.0000000   0.0000000   0.0000000   2.0440000   0.0000000   0.0000000   0.0000000   0.0000000   0.0000000   0.0000000
 NMagM=    0.0000000   0.0000000   2.7928460   0.4037610   0.0000000   0.0000000   0.0000000   0.0000000   0.0000000   0.0000000
 AtZNuc=   6.0000000   6.0000000   1.0000000   7.0000000   6.0000000   6.0000000   6.0000000   6.0000000   6.0000000   6.0000000

  Atom       101         102         103         104         105         106         107         108         109         110
 IAtWgt=          16          12          14          12          12          12          12          12          12          12
 AtmWgt=  15.9949146  12.0000000  14.0030740  12.0000000  12.0000000  12.0000000  12.0000000  12.0000000  12.0000000  12.0000000
 NucSpn=           0           0           2           0           0           0           0           0           0           0
 AtZEff=  -0.0000000  -0.0000000  -0.0000000  -0.0000000  -0.0000000  -0.0000000  -0.0000000  -0.0000000  -0.0000000  -0.0000000
 NQMom=    0.0000000   0.0000000   2.0440000   0.0000000   0.0000000   0.0000000   0.0000000   0.0000000   0.0000000   0.0000000
 NMagM=    0.0000000   0.0000000   0.4037610   0.0000000   0.0000000   0.0000000   0.0000000   0.0000000   0.0000000   0.0000000
 AtZNuc=   8.0000000   6.0000000   7.0000000   6.0000000   6.0000000   6.0000000   6.0000000   6.0000000   6.0000000   6.0000000

  Atom       111         112         113         114         115         116         117         118         119         120
 IAtWgt=          14          12          12          12          12          12          12          16          12          12
 AtmWgt=  14.0030740  12.0000000  12.0000000  12.0000000  12.0000000  12.0000000  12.0000000  15.9949146  12.0000000  12.0000000
 NucSpn=           2           0           0           0           0           0           0           0           0           0
 AtZEff=  -0.0000000  -0.0000000  -0.0000000  -0.0000000  -0.0000000  -0.0000000  -0.0000000  -0.0000000  -0.0000000  -0.0000000
 NQMom=    2.0440000   0.0000000   0.0000000   0.0000000   0.0000000   0.0000000   0.0000000   0.0000000   0.0000000   0.0000000
 NMagM=    0.4037610   0.0000000   0.0000000   0.0000000   0.0000000   0.0000000   0.0000000   0.0000000   0.0000000   0.0000000
 AtZNuc=   7.0000000   6.0000000   6.0000000   6.0000000   6.0000000   6.0000000   6.0000000   8.0000000   6.0000000   6.0000000

  Atom       121         122         123         124         125         126         127         128         129         130
 IAtWgt=          16          16          12           1           1           1           1           1           1           1
 AtmWgt=  15.9949146  15.9949146  12.0000000   1.0078250   1.0078250   1.0078250   1.0078250   1.0078250   1.0078250   1.0078250
 NucSpn=           0           0           0           1           1           1           1           1           1           1
 AtZEff=  -0.0000000  -0.0000000  -0.0000000  -0.0000000  -0.0000000  -0.0000000  -0.0000000  -0.0000000  -0.0000000  -0.0000000
 NQMom=    0.0000000   0.0000000   0.0000000   0.0000000   0.0000000   0.0000000   0.0000000   0.0000000   0.0000000   0.0000000
 NMagM=    0.0000000   0.0000000   0.0000000   2.7928460   2.7928460   2.7928460   2.7928460   2.7928460   2.7928460   2.7928460
 AtZNuc=   8.0000000   8.0000000   6.0000000   1.0000000   1.0000000   1.0000000   1.0000000   1.0000000   1.0000000   1.0000000

  Atom       131         132         133         134         135         136         137         138         139         140
 IAtWgt=           1           1           1           1           1           1           1           1           1           1
 AtmWgt=   1.0078250   1.0078250   1.0078250   1.0078250   1.0078250   1.0078250   1.0078250   1.0078250   1.0078250   1.0078250
 NucSpn=           1           1           1           1           1           1           1           1           1           1
 AtZEff=  -0.0000000  -0.0000000  -0.0000000  -0.0000000  -0.0000000  -0.0000000  -0.0000000  -0.0000000  -0.0000000  -0.0000000
 NQMom=    0.0000000   0.0000000   0.0000000   0.0000000   0.0000000   0.0000000   0.0000000   0.0000000   0.0000000   0.0000000
 NMagM=    2.7928460   2.7928460   2.7928460   2.7928460   2.7928460   2.7928460   2.7928460   2.7928460   2.7928460   2.7928460
 AtZNuc=   1.0000000   1.0000000   1.0000000   1.0000000   1.0000000   1.0000000   1.0000000   1.0000000   1.0000000   1.0000000

  Atom       141         142         143         144         145         146         147         148         149         150
 IAtWgt=           1           1           1           1           1           1           1           1           1           1
 AtmWgt=   1.0078250   1.0078250   1.0078250   1.0078250   1.0078250   1.0078250   1.0078250   1.0078250   1.0078250   1.0078250
 NucSpn=           1           1           1           1           1           1           1           1           1           1
 AtZEff=  -0.0000000  -0.0000000  -0.0000000  -0.0000000  -0.0000000  -0.0000000  -0.0000000  -0.0000000  -0.0000000  -0.0000000
 NQMom=    0.0000000   0.0000000   0.0000000   0.0000000   0.0000000   0.0000000   0.0000000   0.0000000   0.0000000   0.0000000
 NMagM=    2.7928460   2.7928460   2.7928460   2.7928460   2.7928460   2.7928460   2.7928460   2.7928460   2.7928460   2.7928460
 AtZNuc=   1.0000000   1.0000000   1.0000000   1.0000000   1.0000000   1.0000000   1.0000000   1.0000000   1.0000000   1.0000000

  Atom       151         152         153         154         155         156         157         158
 IAtWgt=           1           1           1           1           1           1           1           1
 AtmWgt=   1.0078250   1.0078250   1.0078250   1.0078250   1.0078250   1.0078250   1.0078250   1.0078250
 NucSpn=           1           1           1           1           1           1           1           1
 AtZEff=  -0.0000000  -0.0000000  -0.0000000  -0.0000000  -0.0000000  -0.0000000  -0.0000000  -0.0000000
 NQMom=    0.0000000   0.0000000   0.0000000   0.0000000   0.0000000   0.0000000   0.0000000   0.0000000
 NMagM=    2.7928460   2.7928460   2.7928460   2.7928460   2.7928460   2.7928460   2.7928460   2.7928460
 AtZNuc=   1.0000000   1.0000000   1.0000000   1.0000000   1.0000000   1.0000000   1.0000000   1.0000000
 Leave Link  101 at Fri Sep  3 15:40:38 2021, MaxMem= 23488102400 cpu:               3.8 elap:               0.2
 (Enter /sw/apps/gaussian-16.0/g16/l202.exe)
 Stoichiometry    C68H72Mg2N8O8
 Framework group  C1[X(C68H72Mg2N8O8)]
 Deg. of freedom   468
 Full point group                 C1      NOp   1
 Largest Abelian subgroup         C1      NOp   1
 Largest concise Abelian subgroup C1      NOp   1
                         Standard orientation:                         
 ---------------------------------------------------------------------
 Center     Atomic      Atomic             Coordinates (Angstroms)
 Number     Number       Type             X           Y           Z
 ---------------------------------------------------------------------
      1         12           0       -3.889782    0.560983    0.420755
      2          6           0       -4.171117   -2.645724   -1.144524
      3          6           0       -4.325155   -1.025550    3.410141
      4          6           0       -4.099188    3.417257    1.782544
      5          6           0       -4.609014    1.974702   -2.682431
      6          7           0       -4.197233   -1.569449    0.937844
      7          6           0       -4.225241   -2.706517    0.249757
      8          6           0       -4.241418   -3.975402    1.153662
      9          6           0       -4.855247   -3.333455    2.477715
     10          6           0       -4.403089   -1.896900    2.283329
     11          6           0       -6.379551   -3.367029    2.520978
     12          6           0       -2.804510   -4.544168    1.405717
     13          6           0       -2.755094   -5.954761    1.999973
     14          1           0       -1.688350   -6.852835    1.584200
     15          7           0       -3.686686    1.096940    2.311351
     16          6           0       -3.888372    0.316834    3.400407
     17          6           0       -3.609389    1.173697    4.572856
     18          6           0       -3.413748    2.566289    4.082443
     19          6           0       -3.755677    2.418669    2.690800
     20          6           0       -3.503703    0.646346    5.970884
     21          6           0       -2.996566    3.831777    4.762613
     22          8           0       -3.113982    4.975315    4.203053
     23          6           0       -2.523006    3.705059    6.152838
     24          7           0       -4.510370    2.426559   -0.280765
     25          6           0       -4.446814    3.512490    0.497502
     26          6           0       -4.670211    4.766171   -0.295163
     27          6           0       -4.659428    4.326456   -1.830183
     28          6           0       -4.504237    2.797814   -1.636689
     29          6           0       -5.967896    5.527641    0.008464
     30          6           0       -3.661788    5.056775   -2.763869
     31          6           0       -2.243646    4.693943   -2.383971
     32          7           0       -4.143666   -0.163155   -1.609568
     33          6           0       -4.461584    0.599032   -2.743003
     34          6           0       -4.634196   -0.344018   -3.863240
     35          6           0       -4.419598   -1.598781   -3.296353
     36          6           0       -4.157078   -1.451016   -1.904397
     37          6           0       -5.006224    0.000342   -5.192693
     38          6           0       -4.375301   -3.031834   -3.537711
     39          8           0       -4.427261   -3.744179   -4.541383
     40          6           0       -4.333040   -3.775898   -2.130440
     41          6           0       -3.244685   -4.812422   -2.196857
     42          8           0       -2.046332   -4.476720   -2.289705
     43          8           0       -3.759044   -6.016530   -1.903427
     44          6           0       -2.725519   -7.085926   -1.922726
     45          1           0       -4.685666   -1.380351    4.377658
     46          1           0       -4.074115    4.430654    2.188542
     47          1           0       -4.750925    2.349303   -3.697807
     48          1           0       -4.885222   -4.779491    0.796760
     49          1           0       -4.407798   -3.752950    3.378567
     50          1           0       -6.797494   -3.710628    1.574836
     51          1           0       -6.687662   -2.340997    2.723015
     52          1           0       -6.730113   -3.957439    3.367914
     53          1           0       -2.333598   -3.985505    2.214542
     54          1           0       -2.213038   -4.517865    0.489859
     55          1           0       -3.722846   -6.451878    1.927590
     56          1           0       -2.574668   -5.867846    3.071463
     57          1           0       -3.859236   -0.381007    6.039340
     58          1           0       -4.203929    1.217282    6.580331
     59          1           0       -2.496104    0.750436    6.373676
     60          1           0       -3.311405    3.263477    6.762741
     61          1           0       -2.183879    4.697790    6.446654
     62          1           0       -1.687142    3.005336    6.178729
     63          1           0       -3.869944    5.484959   -0.123865
     64          1           0       -5.628627    4.478138   -2.305913
     65          1           0       -5.807709    6.563209    0.309536
     66          1           0       -6.510223    4.976584    0.776259
     67          1           0       -6.693259    5.537082   -0.804663
     68          1           0       -3.757812    6.136158   -2.651363
     69          1           0       -3.805877    4.819069   -3.817902
     70          1           0       -2.026958    5.381476   -1.567162
     71          1           0       -1.569804    4.861848   -3.224777
     72          1           0       -2.185596    3.682127   -1.982293
     73          1           0       -4.363525   -0.584619   -5.850513
     74          1           0       -4.889426    1.068831   -5.372395
     75          1           0       -6.050316   -0.312234   -5.197593
     76          1           0       -5.315612   -4.222896   -1.982565
     77          1           0       -3.068321   -7.851079   -2.619334
     78          1           0       -2.565558   -7.381023   -0.885550
     79          1           0       -1.764977   -6.820033   -2.365445
     80         12           0        3.984827    0.868396   -0.587932
     81          6           0        4.072500   -2.483977    0.689954
     82          6           0        3.472570    1.917393    2.617040
     83          6           0        3.454157    3.780268   -1.731100
     84          6           0        3.362208   -0.495298   -3.734100
     85          7           0        3.814351   -0.235820    1.320971
     86          6           0        3.925656   -1.502388    1.692134
     87          6           0        3.957408   -1.722002    3.228470
     88          6           0        3.196635   -0.381365    3.678792
     89          6           0        3.540313    0.507385    2.485185
     90          6           0        1.686235   -0.537694    3.738664
     91          6           0        5.419752   -1.770587    3.795218
     92          6           0        5.536271   -2.288047    5.230628
     93          1           0        6.705168   -3.086155    5.590059
     94          7           0        4.017359    2.631313    0.322920
     95          6           0        3.811124    2.873533    1.634435
     96          6           0        3.921154    4.331546    1.796441
     97          6           0        4.045646    4.945439    0.446501
     98          6           0        3.818009    3.785901   -0.392394
     99          6           0        3.982017    4.998705    3.139804
    100          6           0        4.311286    6.346929   -0.013379
    101          8           0        4.140907    6.698743   -1.234041
    102          6           0        4.686776    7.317569    1.025062
    103          7           0        3.272695    1.557460   -2.415604
    104          6           0        3.188430    2.874570   -2.672605
    105          6           0        2.914612    3.128415   -4.135813
    106          6           0        3.073284    1.708927   -4.855154
    107          6           0        3.335209    0.825110   -3.615936
    108          6           0        1.541414    3.714193   -4.463764
    109          6           0        4.070295    1.629723   -6.043587
    110          6           0        5.484552    1.819482   -5.544324
    111          7           0        3.936480   -1.115972   -1.441159
    112          6           0        3.628911   -1.463777   -2.774775
    113          6           0        3.612322   -2.939207   -2.847150
    114          6           0        3.890923   -3.350710   -1.535081
    115          6           0        4.048664   -2.212181   -0.699400
    116          6           0        3.316237   -3.712001   -4.005279
    117          6           0        4.076955   -4.489401   -0.664760
    118          8           0        4.145494   -5.706726   -0.829592
    119          6           0        4.077764   -3.979911    0.840835
    120          6           0        5.249469   -4.609113    1.543496
    121          8           0        6.413368   -4.326651    1.208580
    122          8           0        4.809150   -5.268459    2.630574
    123          6           0        5.936102   -5.900458    3.367056
    124          1           0        3.083404    2.333440    3.546737
    125          1           0        3.367360    4.763033   -2.200264
    126          1           0        3.272789   -0.996896   -4.700056
    127          1           0        3.412954   -2.592499    3.574260
    128          1           0        3.621655    0.026064    4.592421
    129          1           0        1.364559   -1.493740    3.353130
    130          1           0        1.283146    0.267375    3.138312
    131          1           0        1.329154   -0.361873    4.757443
    132          1           0        5.783776   -0.744611    3.935219
    133          1           0        6.058953   -2.343215    3.151668
    134          1           0        4.616096   -2.781054    5.567035
    135          1           0        5.641797   -1.431459    5.900807
    136          1           0        3.701064    4.308470    3.944821
    137          1           0        3.198533    5.764106    3.152502
    138          1           0        4.945658    5.476201    3.329684
    139          1           0        3.898338    7.370377    1.772082
    140          1           0        4.922744    8.240129    0.491130
    141          1           0        5.582832    6.951487    1.538554
    142          1           0        3.640780    3.816156   -4.551497
    143          1           0        2.124040    1.364909   -5.291527
    144          1           0        1.595720    4.668216   -5.021405
    145          1           0        0.996322    3.845115   -3.538411
    146          1           0        0.882337    3.057623   -5.029222
    147          1           0        3.880010    2.439580   -6.752160
    148          1           0        4.010749    0.697888   -6.595967
    149          1           0        5.582141    2.907737   -5.487170
    150          1           0        6.198995    1.395488   -6.247053
    151          1           0        5.599570    1.424399   -4.528285
    152          1           0        4.040851   -4.514748   -4.037530
    153          1           0        3.353037   -3.105662   -4.907929
    154          1           0        2.298902   -4.035330   -3.769166
    155          1           0        3.126855   -4.274074    1.286735
    156          1           0        5.702656   -6.966031    3.455015
    157          1           0        6.036758   -5.327496    4.307982
    158          1           0        6.900408   -5.935222    2.873746
 ---------------------------------------------------------------------
 Rotational constants (GHZ):           0.0202939           0.0170116           0.0146122
 Leave Link  202 at Fri Sep  3 15:40:38 2021, MaxMem= 23488102400 cpu:               0.2 elap:               0.0
 (Enter /sw/apps/gaussian-16.0/g16/l301.exe)
 Standard basis: def2SVP (5D, 7F)
 Ernie: Thresh=  0.10000D-02 Tol=  0.10000D-05 Strict=F.
 There are  1658 symmetry adapted cartesian basis functions of A   symmetry.
 There are  1572 symmetry adapted basis functions of A   symmetry.
  1572 basis functions,  2678 primitive gaussians,  1658 cartesian basis functions
   312 alpha electrons      312 beta electrons
       nuclear repulsion energy     15931.2650561699 Hartrees.
 IExCor=20419 DFT=T Ex+Corr=CAM-B3LYP ExCW=0 ScaHFX=  1.000000
 ScaDFX=  1.000000  1.000000  1.000000  0.810000 ScalE2=  1.000000  1.000000
 IRadAn=      5 IRanWt=     -1 IRanGd=            0 ICorTp=0 IEmpDi=  4
 HFx  wShort=  0.000000 wLong=  0.330000 cFull=  0.190000 cShort=  0.000000 cLong=  0.460000
 DFx  wShort=  0.000000 wLong=  0.330000 cFull=  0.190000 cShort=  0.000000 cLong=  0.460000
 NAtoms=  158 NActive=  158 NUniq=  158 SFac= 1.00D+00 NAtFMM=   60 NAOKFM=T Big=T
 Integral buffers will be    131072 words long.
 Raffenetti 1 integral format.
 Two-electron integral symmetry is turned on.
 Leave Link  301 at Fri Sep  3 15:40:38 2021, MaxMem= 23488102400 cpu:               1.3 elap:               0.1
 (Enter /sw/apps/gaussian-16.0/g16/l302.exe)
 NPDir=0 NMtPBC=     1 NCelOv=     1 NCel=       1 NClECP=     1 NCelD=      1
         NCelK=      1 NCelE2=     1 NClLst=     1 CellRange=     0.0.
 One-electron integrals computed using PRISM.
 One-electron integral symmetry used in STVInt
   1 Symmetry operations used in ECPInt.
 ECPInt:  NShTT=  271216 NPrTT=  987664 LenC2=  164202 LenP2D=  344201.
 LDataN:  DoStor=T MaxTD1= 4 Len=   56
 NBasis=  1572 RedAO= T EigKep=  3.36D-04  NBF=  1572
 NBsUse=  1572 1.00D-06 EigRej= -1.00D+00 NBFU=  1572
 Precomputing XC quadrature grid using
 IXCGrd= 4 IRadAn=           5 IRanWt=          -1 IRanGd=           0 AccXCQ= 0.00D+00.
 Generated NRdTot=       0 NPtTot=           0 NUsed=           0 NTot=          32
 NSgBfM=  1202  1177  1193  1195  1202 MxSgAt=   158 MxSgA2=   158.
 Leave Link  302 at Fri Sep  3 15:40:43 2021, MaxMem= 23488102400 cpu:             132.8 elap:               5.6
 (Enter /sw/apps/gaussian-16.0/g16/l303.exe)
 DipDrv:  MaxL=1.
 Leave Link  303 at Fri Sep  3 15:40:44 2021, MaxMem= 23488102400 cpu:               9.6 elap:               0.5
 (Enter /sw/apps/gaussian-16.0/g16/l308.exe)
 Leave Link  308 at Fri Sep  3 15:40:45 2021, MaxMem= 23488102400 cpu:              15.1 elap:               0.7
 (Enter /sw/apps/gaussian-16.0/g16/l401.exe)
 ExpMin= 3.36D-02 ExpMax= 4.95D+03 ExpMxC= 7.45D+02 IAcc=3 IRadAn=         5 AccDes= 0.00D+00
 Harris functional with IExCor=20419 and IRadAn=       5 diagonalized for initial guess.
 HarFok:  IExCor=20419 AccDes= 0.00D+00 IRadAn=         5 IDoV= 1 UseB2=F ITyADJ=14
 ICtDFT=  3500011 ScaDFX=  1.000000  1.000000  1.000000  1.000000
 FoFCou: FMM=F IPFlag=           0 FMFlag=      100000 FMFlg1=        2001
         NFxFlg=           0 DoJE=T BraDBF=F KetDBF=T FulRan=T
         wScrn=  0.000000 ICntrl=       500 IOpCl=  0 I1Cent=   200000004 NGrid=           0
         NMat0=    1 NMatS0=      1 NMatT0=    0 NMatD0=    1 NMtDS0=    0 NMtDT0=    0
 Petite list used in FoFCou.
 Harris En= -3918.65799328589    
 JPrj=0 DoOrth=F DoCkMO=F.
 Leave Link  401 at Fri Sep  3 15:40:53 2021, MaxMem= 23488102400 cpu:             208.4 elap:               8.7
 (Enter /sw/apps/gaussian-16.0/g16/l502.exe)
 Integral symmetry usage will be decided dynamically.
 Closed shell SCF:
 Using DIIS extrapolation, IDIIS=  1040.
 NGot= 23488102400 LenX= 23482547354 LenY= 23479796732
 Requested convergence on RMS density matrix=1.00D-08 within 128 cycles.
 Requested convergence on MAX density matrix=1.00D-06.
 Requested convergence on             energy=1.00D-06.
 No special actions if energy rises.
 Fock matrices will be formed incrementally for  20 cycles.

 Cycle   1  Pass 1  IDiag  1:
 FoFJK:  IHMeth= 1 ICntrl=       0 DoSepK=T KAlg= 0 I1Cent=           0 FoldK=F
 IRaf=         1 NMat=       1 IRICut=       1 DoRegI=T DoRafI=F ISym2E= 0 IDoP0=0 IntGTp=1.
 FoFCou: FMM=T IPFlag=           0 FMFlag=      100000 FMFlg1=        2001
         NFxFlg=           0 DoJE=T BraDBF=F KetDBF=F FulRan=T
         wScrn=  0.000000 ICntrl=       500 IOpCl=  0 I1Cent=           0 NGrid=           0
         NMat0=    1 NMatS0=      1 NMatT0=    0 NMatD0=    1 NMtDS0=    0 NMtDT0=    0
 Symmetry not used in FoFCou.
 FMM levels:  10  Number of levels for PrismC:   9
 E= -4068.94814802701    
 DIIS: error= 2.04D-02 at cycle   1 NSaved=   1.
 NSaved= 1 IEnMin= 1 EnMin= -4068.94814802701     IErMin= 1 ErrMin= 2.04D-02
 ErrMax= 2.04D-02  0.00D+00 EMaxC= 1.00D-01 BMatC= 1.69D+00 BMatP= 1.69D+00
 IDIUse=3 WtCom= 7.96D-01 WtEn= 2.04D-01
 Coeff-Com:  0.100D+01
 Coeff-En:   0.100D+01
 Coeff:      0.100D+01
 Gap=     0.120 Goal=   None    Shift=    0.000
 GapD=    0.120 DampG=1.000 DampE=0.500 DampFc=0.5000 IDamp=-1.
 Damping current iteration by 5.00D-01
 RMSDP=1.58D-03 MaxDP=1.37D-01              OVMax= 2.13D-01

 Cycle   2  Pass 1  IDiag  1:
 RMSU=  7.72D-04    CP:  9.82D-01
 E= -4069.33543385804     Delta-E=       -0.387285831031 Rises=F Damp=T
 DIIS: error= 1.27D-02 at cycle   2 NSaved=   2.
 NSaved= 2 IEnMin= 2 EnMin= -4069.33543385804     IErMin= 2 ErrMin= 1.27D-02
 ErrMax= 1.27D-02  0.00D+00 EMaxC= 1.00D-01 BMatC= 3.08D-01 BMatP= 1.69D+00
 IDIUse=3 WtCom= 8.73D-01 WtEn= 1.27D-01
 Coeff-Com: -0.209D+00 0.121D+01
 Coeff-En:   0.000D+00 0.100D+01
 Coeff:     -0.183D+00 0.118D+01
 Gap=     0.135 Goal=   None    Shift=    0.000
 RMSDP=7.75D-04 MaxDP=9.41D-02 DE=-3.87D-01 OVMax= 2.07D-01

 Cycle   3  Pass 1  IDiag  1:
 RMSU=  7.46D-04    CP:  9.68D-01  1.22D+00
 E= -4069.61730416378     Delta-E=       -0.281870305735 Rises=F Damp=F
 DIIS: error= 1.59D-02 at cycle   3 NSaved=   3.
 NSaved= 3 IEnMin= 3 EnMin= -4069.61730416378     IErMin= 2 ErrMin= 1.27D-02
 ErrMax= 1.59D-02  0.00D+00 EMaxC= 1.00D-01 BMatC= 2.10D-01 BMatP= 3.08D-01
 IDIUse=3 WtCom= 8.41D-01 WtEn= 1.59D-01
 Coeff-Com: -0.268D+00 0.657D+00 0.611D+00
 Coeff-En:   0.000D+00 0.000D+00 0.100D+01
 Coeff:     -0.225D+00 0.552D+00 0.673D+00
 Gap=     0.121 Goal=   None    Shift=    0.000
 RMSDP=5.35D-04 MaxDP=5.14D-02 DE=-2.82D-01 OVMax= 1.69D-01

 Cycle   4  Pass 1  IDiag  1:
 RMSU=  2.77D-04    CP:  9.65D-01  1.54D+00  4.87D-01
 E= -4069.75857859889     Delta-E=       -0.141274435111 Rises=F Damp=F
 DIIS: error= 7.41D-03 at cycle   4 NSaved=   4.
 NSaved= 4 IEnMin= 4 EnMin= -4069.75857859889     IErMin= 4 ErrMin= 7.41D-03
 ErrMax= 7.41D-03  0.00D+00 EMaxC= 1.00D-01 BMatC= 5.52D-02 BMatP= 2.10D-01
 IDIUse=3 WtCom= 9.26D-01 WtEn= 7.41D-02
 Coeff-Com: -0.111D+00 0.231D+00 0.412D+00 0.468D+00
 Coeff-En:   0.000D+00 0.000D+00 0.238D+00 0.762D+00
 Coeff:     -0.103D+00 0.214D+00 0.399D+00 0.490D+00
 Gap=     0.119 Goal=   None    Shift=    0.000
 RMSDP=2.20D-04 MaxDP=2.09D-02 DE=-1.41D-01 OVMax= 8.11D-02

 Cycle   5  Pass 1  IDiag  1:
 RMSU=  8.46D-05    CP:  9.64D-01  1.48D+00  6.84D-01  5.27D-01
 E= -4069.81025175687     Delta-E=       -0.051673157981 Rises=F Damp=F
 DIIS: error= 7.07D-04 at cycle   5 NSaved=   5.
 NSaved= 5 IEnMin= 5 EnMin= -4069.81025175687     IErMin= 5 ErrMin= 7.07D-04
 ErrMax= 7.07D-04  0.00D+00 EMaxC= 1.00D-01 BMatC= 1.61D-03 BMatP= 5.52D-02
 IDIUse=3 WtCom= 9.93D-01 WtEn= 7.07D-03
 Coeff-Com: -0.405D-01 0.801D-01 0.183D+00 0.264D+00 0.513D+00
 Coeff-En:   0.000D+00 0.000D+00 0.000D+00 0.000D+00 0.100D+01
 Coeff:     -0.402D-01 0.795D-01 0.182D+00 0.262D+00 0.517D+00
 Gap=     0.119 Goal=   None    Shift=    0.000
 RMSDP=5.05D-05 MaxDP=4.19D-03 DE=-5.17D-02 OVMax= 2.49D-02

 Cycle   6  Pass 1  IDiag  1:
 RMSU=  3.50D-05    CP:  9.64D-01  1.49D+00  6.73D-01  6.10D-01  6.85D-01
 E= -4069.81181081761     Delta-E=       -0.001559060736 Rises=F Damp=F
 DIIS: error= 2.42D-04 at cycle   6 NSaved=   6.
 NSaved= 6 IEnMin= 6 EnMin= -4069.81181081761     IErMin= 6 ErrMin= 2.42D-04
 ErrMax= 2.42D-04  0.00D+00 EMaxC= 1.00D-01 BMatC= 2.35D-04 BMatP= 1.61D-03
 IDIUse=3 WtCom= 9.98D-01 WtEn= 2.42D-03
 Coeff-Com:  0.160D-02-0.552D-02 0.151D-01 0.451D-01 0.298D+00 0.645D+00
 Coeff-En:   0.000D+00 0.000D+00 0.000D+00 0.000D+00 0.121D+00 0.879D+00
 Coeff:      0.159D-02-0.550D-02 0.151D-01 0.450D-01 0.298D+00 0.646D+00
 Gap=     0.119 Goal=   None    Shift=    0.000
 RMSDP=1.92D-05 MaxDP=1.56D-03 DE=-1.56D-03 OVMax= 9.43D-03

 Cycle   7  Pass 1  IDiag  1:
 RMSU=  1.22D-05    CP:  9.64D-01  1.49D+00  6.79D-01  6.07D-01  8.08D-01
                    CP:  7.38D-01
 E= -4069.81208237203     Delta-E=       -0.000271554429 Rises=F Damp=F
 DIIS: error= 1.20D-04 at cycle   7 NSaved=   7.
 NSaved= 7 IEnMin= 7 EnMin= -4069.81208237203     IErMin= 7 ErrMin= 1.20D-04
 ErrMax= 1.20D-04  0.00D+00 EMaxC= 1.00D-01 BMatC= 3.17D-05 BMatP= 2.35D-04
 IDIUse=3 WtCom= 9.99D-01 WtEn= 1.20D-03
 Coeff-Com:  0.478D-02-0.105D-01-0.893D-02-0.269D-02 0.109D+00 0.349D+00
 Coeff-Com:  0.559D+00
 Coeff-En:   0.000D+00 0.000D+00 0.000D+00 0.000D+00 0.000D+00 0.000D+00
 Coeff-En:   0.100D+01
 Coeff:      0.477D-02-0.105D-01-0.892D-02-0.269D-02 0.109D+00 0.348D+00
 Coeff:      0.560D+00
 Gap=     0.119 Goal=   None    Shift=    0.000
 RMSDP=7.06D-06 MaxDP=1.14D-03 DE=-2.72D-04 OVMax= 3.75D-03

 Cycle   8  Pass 1  IDiag  1:
 RMSU=  5.10D-06    CP:  9.64D-01  1.49D+00  6.80D-01  6.12D-01  8.07D-01
                    CP:  8.51D-01  8.09D-01
 E= -4069.81212029136     Delta-E=       -0.000037919322 Rises=F Damp=F
 DIIS: error= 5.87D-05 at cycle   8 NSaved=   8.
 NSaved= 8 IEnMin= 8 EnMin= -4069.81212029136     IErMin= 8 ErrMin= 5.87D-05
 ErrMax= 5.87D-05  0.00D+00 EMaxC= 1.00D-01 BMatC= 5.11D-06 BMatP= 3.17D-05
 IDIUse=1 WtCom= 1.00D+00 WtEn= 0.00D+00
 Coeff-Com:  0.227D-02-0.452D-02-0.791D-02-0.119D-01-0.536D-02 0.333D-01
 Coeff-Com:  0.296D+00 0.699D+00
 Coeff:      0.227D-02-0.452D-02-0.791D-02-0.119D-01-0.536D-02 0.333D-01
 Coeff:      0.296D+00 0.699D+00
 Gap=     0.119 Goal=   None    Shift=    0.000
 RMSDP=3.54D-06 MaxDP=4.76D-04 DE=-3.79D-05 OVMax= 1.33D-03

 Cycle   9  Pass 1  IDiag  1:
 RMSU=  2.09D-06    CP:  9.64D-01  1.49D+00  6.81D-01  6.14D-01  8.23D-01
                    CP:  8.80D-01  9.92D-01  9.93D-01
 E= -4069.81212871368     Delta-E=       -0.000008422321 Rises=F Damp=F
 DIIS: error= 2.00D-05 at cycle   9 NSaved=   9.
 NSaved= 9 IEnMin= 9 EnMin= -4069.81212871368     IErMin= 9 ErrMin= 2.00D-05
 ErrMax= 2.00D-05  0.00D+00 EMaxC= 1.00D-01 BMatC= 9.17D-07 BMatP= 5.11D-06
 IDIUse=1 WtCom= 1.00D+00 WtEn= 0.00D+00
 Coeff-Com:  0.492D-03-0.815D-03-0.280D-02-0.615D-02-0.184D-01-0.426D-01
 Coeff-Com:  0.816D-01 0.359D+00 0.630D+00
 Coeff:      0.492D-03-0.815D-03-0.280D-02-0.615D-02-0.184D-01-0.426D-01
 Coeff:      0.816D-01 0.359D+00 0.630D+00
 Gap=     0.119 Goal=   None    Shift=    0.000
 RMSDP=1.58D-06 MaxDP=1.72D-04 DE=-8.42D-06 OVMax= 8.21D-04

 Cycle  10  Pass 1  IDiag  1:
 RMSU=  1.04D-06    CP:  9.64D-01  1.49D+00  6.81D-01  6.14D-01  8.27D-01
                    CP:  8.91D-01  1.04D+00  1.17D+00  1.05D+00
 E= -4069.81213072509     Delta-E=       -0.000002011413 Rises=F Damp=F
 DIIS: error= 9.61D-06 at cycle  10 NSaved=  10.
 NSaved=10 IEnMin=10 EnMin= -4069.81213072509     IErMin=10 ErrMin= 9.61D-06
 ErrMax= 9.61D-06  0.00D+00 EMaxC= 1.00D-01 BMatC= 1.99D-07 BMatP= 9.17D-07
 IDIUse=1 WtCom= 1.00D+00 WtEn= 0.00D+00
 Coeff-Com: -0.425D-03 0.901D-03 0.117D-02 0.873D-03-0.377D-02-0.324D-01
 Coeff-Com: -0.420D-01-0.589D-01 0.227D+00 0.908D+00
 Coeff:     -0.425D-03 0.901D-03 0.117D-02 0.873D-03-0.377D-02-0.324D-01
 Coeff:     -0.420D-01-0.589D-01 0.227D+00 0.908D+00
 Gap=     0.119 Goal=   None    Shift=    0.000
 RMSDP=1.33D-06 MaxDP=1.23D-04 DE=-2.01D-06 OVMax= 7.05D-04

 Cycle  11  Pass 1  IDiag  1:
 RMSU=  6.09D-07    CP:  9.64D-01  1.49D+00  6.81D-01  6.14D-01  8.29D-01
                    CP:  8.99D-01  1.08D+00  1.28D+00  1.39D+00  1.33D+00
 E= -4069.81213166320     Delta-E=       -0.000000938111 Rises=F Damp=F
 DIIS: error= 4.55D-06 at cycle  11 NSaved=  11.
 NSaved=11 IEnMin=11 EnMin= -4069.81213166320     IErMin=11 ErrMin= 4.55D-06
 ErrMax= 4.55D-06  0.00D+00 EMaxC= 1.00D-01 BMatC= 9.18D-08 BMatP= 1.99D-07
 IDIUse=1 WtCom= 1.00D+00 WtEn= 0.00D+00
 Coeff-Com: -0.365D-03 0.713D-03 0.143D-02 0.213D-02 0.399D-02-0.972D-02
 Coeff-Com: -0.408D-01-0.133D+00-0.457D-01 0.527D+00 0.695D+00
 Coeff:     -0.365D-03 0.713D-03 0.143D-02 0.213D-02 0.399D-02-0.972D-02
 Coeff:     -0.408D-01-0.133D+00-0.457D-01 0.527D+00 0.695D+00
 Gap=     0.119 Goal=   None    Shift=    0.000
 RMSDP=7.87D-07 MaxDP=8.27D-05 DE=-9.38D-07 OVMax= 4.76D-04

 Cycle  12  Pass 1  IDiag  1:
 RMSU=  3.08D-07    CP:  9.64D-01  1.49D+00  6.81D-01  6.15D-01  8.30D-01
                    CP:  9.02D-01  1.10D+00  1.35D+00  1.55D+00  1.75D+00
                    CP:  1.14D+00
 E= -4069.81213200699     Delta-E=       -0.000000343785 Rises=F Damp=F
 DIIS: error= 2.96D-06 at cycle  12 NSaved=  12.
 NSaved=12 IEnMin=12 EnMin= -4069.81213200699     IErMin=12 ErrMin= 2.96D-06
 ErrMax= 2.96D-06  0.00D+00 EMaxC= 1.00D-01 BMatC= 2.31D-08 BMatP= 9.18D-08
 IDIUse=1 WtCom= 1.00D+00 WtEn= 0.00D+00
 Coeff-Com: -0.467D-04 0.729D-04 0.375D-03 0.784D-03 0.389D-02 0.316D-02
 Coeff-Com: -0.257D-02-0.484D-01-0.850D-01 0.554D-02 0.298D+00 0.824D+00
 Coeff:     -0.467D-04 0.729D-04 0.375D-03 0.784D-03 0.389D-02 0.316D-02
 Coeff:     -0.257D-02-0.484D-01-0.850D-01 0.554D-02 0.298D+00 0.824D+00
 Gap=     0.119 Goal=   None    Shift=    0.000
 RMSDP=4.69D-07 MaxDP=3.57D-05 DE=-3.44D-07 OVMax= 2.76D-04

 Cycle  13  Pass 1  IDiag  1:
 RMSU=  1.84D-07    CP:  9.64D-01  1.49D+00  6.81D-01  6.15D-01  8.30D-01
                    CP:  9.02D-01  1.11D+00  1.38D+00  1.67D+00  1.96D+00
                    CP:  1.53D+00  1.18D+00
 E= -4069.81213212354     Delta-E=       -0.000000116550 Rises=F Damp=F
 DIIS: error= 1.85D-06 at cycle  13 NSaved=  13.
 NSaved=13 IEnMin=13 EnMin= -4069.81213212354     IErMin=13 ErrMin= 1.85D-06
 ErrMax= 1.85D-06  0.00D+00 EMaxC= 1.00D-01 BMatC= 1.06D-08 BMatP= 2.31D-08
 IDIUse=1 WtCom= 1.00D+00 WtEn= 0.00D+00
 Coeff-Com:  0.121D-03-0.249D-03-0.352D-03-0.407D-03 0.101D-02 0.506D-02
 Coeff-Com:  0.174D-01 0.231D-01-0.341D-01-0.232D+00-0.153D+00 0.519D+00
 Coeff-Com:  0.854D+00
 Coeff:      0.121D-03-0.249D-03-0.352D-03-0.407D-03 0.101D-02 0.506D-02
 Coeff:      0.174D-01 0.231D-01-0.341D-01-0.232D+00-0.153D+00 0.519D+00
 Coeff:      0.854D+00
 Gap=     0.119 Goal=   None    Shift=    0.000
 RMSDP=4.08D-07 MaxDP=2.96D-05 DE=-1.17D-07 OVMax= 2.74D-04

 Cycle  14  Pass 1  IDiag  1:
 RMSU=  9.08D-08    CP:  9.64D-01  1.49D+00  6.81D-01  6.15D-01  8.30D-01
                    CP:  9.03D-01  1.12D+00  1.40D+00  1.75D+00  2.17D+00
                    CP:  1.79D+00  1.71D+00  1.17D+00
 E= -4069.81213217626     Delta-E=       -0.000000052722 Rises=F Damp=F
 DIIS: error= 8.31D-07 at cycle  14 NSaved=  14.
 NSaved=14 IEnMin=14 EnMin= -4069.81213217626     IErMin=14 ErrMin= 8.31D-07
 ErrMax= 8.31D-07  0.00D+00 EMaxC= 1.00D-01 BMatC= 1.89D-09 BMatP= 1.06D-08
 IDIUse=1 WtCom= 1.00D+00 WtEn= 0.00D+00
 Coeff-Com:  0.757D-04-0.150D-03-0.274D-03-0.411D-03-0.318D-03 0.144D-02
 Coeff-Com:  0.102D-01 0.221D-01 0.469D-02-0.115D+00-0.148D+00 0.592D-01
 Coeff-Com:  0.447D+00 0.719D+00
 Coeff:      0.757D-04-0.150D-03-0.274D-03-0.411D-03-0.318D-03 0.144D-02
 Coeff:      0.102D-01 0.221D-01 0.469D-02-0.115D+00-0.148D+00 0.592D-01
 Coeff:      0.447D+00 0.719D+00
 Gap=     0.119 Goal=   None    Shift=    0.000
 RMSDP=1.36D-07 MaxDP=9.59D-06 DE=-5.27D-08 OVMax= 7.68D-05

 Cycle  15  Pass 1  IDiag  1:
 RMSU=  4.44D-08    CP:  9.64D-01  1.49D+00  6.81D-01  6.15D-01  8.30D-01
                    CP:  9.02D-01  1.12D+00  1.41D+00  1.77D+00  2.22D+00
                    CP:  1.91D+00  1.86D+00  1.43D+00  1.02D+00
 E= -4069.81213218244     Delta-E=       -0.000000006181 Rises=F Damp=F
 DIIS: error= 4.00D-07 at cycle  15 NSaved=  15.
 NSaved=15 IEnMin=15 EnMin= -4069.81213218244     IErMin=15 ErrMin= 4.00D-07
 ErrMax= 4.00D-07  0.00D+00 EMaxC= 1.00D-01 BMatC= 3.08D-10 BMatP= 1.89D-09
 IDIUse=1 WtCom= 1.00D+00 WtEn= 0.00D+00
 Coeff-Com:  0.122D-04-0.224D-04-0.583D-04-0.119D-03-0.305D-03-0.460D-03
 Coeff-Com:  0.170D-02 0.484D-02 0.953D-02-0.762D-02-0.352D-01-0.738D-01
 Coeff-Com:  0.637D-01 0.316D+00 0.721D+00
 Coeff:      0.122D-04-0.224D-04-0.583D-04-0.119D-03-0.305D-03-0.460D-03
 Coeff:      0.170D-02 0.484D-02 0.953D-02-0.762D-02-0.352D-01-0.738D-01
 Coeff:      0.637D-01 0.316D+00 0.721D+00
 Gap=     0.119 Goal=   None    Shift=    0.000
 RMSDP=4.01D-08 MaxDP=4.30D-06 DE=-6.18D-09 OVMax= 3.29D-05

 Cycle  16  Pass 1  IDiag  1:
 RMSU=  2.32D-08    CP:  9.64D-01  1.49D+00  6.81D-01  6.15D-01  8.30D-01
                    CP:  9.02D-01  1.12D+00  1.41D+00  1.77D+00  2.23D+00
                    CP:  1.93D+00  1.90D+00  1.50D+00  1.22D+00  1.07D+00
 E= -4069.81213218344     Delta-E=       -0.000000001000 Rises=F Damp=F
 DIIS: error= 2.49D-07 at cycle  16 NSaved=  16.
 NSaved=16 IEnMin=16 EnMin= -4069.81213218344     IErMin=16 ErrMin= 2.49D-07
 ErrMax= 2.49D-07  0.00D+00 EMaxC= 1.00D-01 BMatC= 1.35D-10 BMatP= 3.08D-10
 IDIUse=1 WtCom= 1.00D+00 WtEn= 0.00D+00
 Coeff-Com: -0.130D-04 0.267D-04 0.399D-04 0.379D-04-0.790D-04-0.669D-03
 Coeff-Com: -0.158D-02-0.367D-02 0.443D-02 0.234D-01 0.192D-01-0.625D-01
 Coeff-Com: -0.714D-01-0.277D-01 0.417D+00 0.704D+00
 Coeff:     -0.130D-04 0.267D-04 0.399D-04 0.379D-04-0.790D-04-0.669D-03
 Coeff:     -0.158D-02-0.367D-02 0.443D-02 0.234D-01 0.192D-01-0.625D-01
 Coeff:     -0.714D-01-0.277D-01 0.417D+00 0.704D+00
 Gap=     0.119 Goal=   None    Shift=    0.000
 RMSDP=2.75D-08 MaxDP=1.98D-06 DE=-1.00D-09 OVMax= 1.57D-05

 Cycle  17  Pass 1  IDiag  1:
 RMSU=  1.28D-08    CP:  9.64D-01  1.49D+00  6.81D-01  6.15D-01  8.30D-01
                    CP:  9.02D-01  1.12D+00  1.41D+00  1.78D+00  2.24D+00
                    CP:  1.94D+00  1.93D+00  1.55D+00  1.30D+00  1.37D+00
                    CP:  1.10D+00
 E= -4069.81213218388     Delta-E=       -0.000000000440 Rises=F Damp=F
 DIIS: error= 9.01D-08 at cycle  17 NSaved=  17.
 NSaved=17 IEnMin=17 EnMin= -4069.81213218388     IErMin=17 ErrMin= 9.01D-08
 ErrMax= 9.01D-08  0.00D+00 EMaxC= 1.00D-01 BMatC= 2.74D-11 BMatP= 1.35D-10
 IDIUse=1 WtCom= 1.00D+00 WtEn= 0.00D+00
 Coeff-Com: -0.948D-05 0.187D-04 0.352D-04 0.479D-04 0.586D-04-0.221D-03
 Coeff-Com: -0.107D-02-0.333D-02 0.247D-03 0.131D-01 0.202D-01-0.139D-01
 Coeff-Com: -0.439D-01-0.105D+00 0.252D-01 0.306D+00 0.802D+00
 Coeff:     -0.948D-05 0.187D-04 0.352D-04 0.479D-04 0.586D-04-0.221D-03
 Coeff:     -0.107D-02-0.333D-02 0.247D-03 0.131D-01 0.202D-01-0.139D-01
 Coeff:     -0.439D-01-0.105D+00 0.252D-01 0.306D+00 0.802D+00
 Gap=     0.119 Goal=   None    Shift=    0.000
 RMSDP=1.51D-08 MaxDP=1.18D-06 DE=-4.40D-10 OVMax= 1.10D-05

 Cycle  18  Pass 1  IDiag  1:
 RMSU=  6.35D-09    CP:  9.64D-01  1.49D+00  6.81D-01  6.15D-01  8.30D-01
                    CP:  9.02D-01  1.12D+00  1.41D+00  1.78D+00  2.24D+00
                    CP:  1.95D+00  1.94D+00  1.57D+00  1.36D+00  1.52D+00
                    CP:  1.46D+00  1.30D+00
 E= -4069.81213218408     Delta-E=       -0.000000000196 Rises=F Damp=F
 DIIS: error= 9.82D-08 at cycle  18 NSaved=  18.
 NSaved=18 IEnMin=18 EnMin= -4069.81213218408     IErMin=17 ErrMin= 9.01D-08
 ErrMax= 9.82D-08  0.00D+00 EMaxC= 1.00D-01 BMatC= 1.16D-11 BMatP= 2.74D-11
 IDIUse=1 WtCom= 1.00D+00 WtEn= 0.00D+00
 Coeff-Com: -0.677D-06 0.961D-06 0.564D-05 0.122D-04 0.726D-04 0.115D-03
 Coeff-Com:  0.499D-04-0.630D-03-0.116D-02-0.192D-02 0.461D-02 0.124D-01
 Coeff-Com:  0.648D-02-0.502D-01-0.124D+00-0.109D+00 0.438D+00 0.826D+00
 Coeff:     -0.677D-06 0.961D-06 0.564D-05 0.122D-04 0.726D-04 0.115D-03
 Coeff:      0.499D-04-0.630D-03-0.116D-02-0.192D-02 0.461D-02 0.124D-01
 Coeff:      0.648D-02-0.502D-01-0.124D+00-0.109D+00 0.438D+00 0.826D+00
 Gap=     0.119 Goal=   None    Shift=    0.000
 RMSDP=1.10D-08 MaxDP=8.45D-07 DE=-1.96D-10 OVMax= 6.33D-06

 Cycle  19  Pass 1  IDiag  1:
 RMSU=  3.26D-09    CP:  9.64D-01  1.49D+00  6.81D-01  6.15D-01  8.30D-01
                    CP:  9.02D-01  1.12D+00  1.41D+00  1.78D+00  2.24D+00
                    CP:  1.95D+00  1.94D+00  1.58D+00  1.39D+00  1.65D+00
                    CP:  1.67D+00  1.79D+00  1.20D+00
 E= -4069.81213218413     Delta-E=       -0.000000000055 Rises=F Damp=F
 DIIS: error= 3.57D-08 at cycle  19 NSaved=  19.
 NSaved=19 IEnMin=19 EnMin= -4069.81213218413     IErMin=19 ErrMin= 3.57D-08
 ErrMax= 3.57D-08  0.00D+00 EMaxC= 1.00D-01 BMatC= 3.24D-12 BMatP= 1.16D-11
 IDIUse=1 WtCom= 1.00D+00 WtEn= 0.00D+00
 Coeff-Com:  0.323D-05-0.659D-05-0.102D-04-0.114D-04 0.278D-04 0.154D-03
 Coeff-Com:  0.474D-03 0.882D-03-0.704D-03-0.669D-02-0.503D-02 0.122D-01
 Coeff-Com:  0.234D-01 0.953D-02-0.839D-01-0.206D+00-0.468D-01 0.464D+00
 Coeff-Com:  0.839D+00
 Coeff:      0.323D-05-0.659D-05-0.102D-04-0.114D-04 0.278D-04 0.154D-03
 Coeff:      0.474D-03 0.882D-03-0.704D-03-0.669D-02-0.503D-02 0.122D-01
 Coeff:      0.234D-01 0.953D-02-0.839D-01-0.206D+00-0.468D-01 0.464D+00
 Coeff:      0.839D+00
 Gap=     0.119 Goal=   None    Shift=    0.000
 RMSDP=7.89D-09 MaxDP=5.91D-07 DE=-5.46D-11 OVMax= 5.10D-06

 SCF Done:  E(RCAM-B3LYP) =  -4069.81213218     A.U. after   19 cycles
            NFock= 19  Conv=0.79D-08     -V/T= 2.0102
 KE= 4.028797870024D+03 PE=-4.134374554947D+04 EE= 1.731387049110D+04
 Leave Link  502 at Fri Sep  3 15:53:16 2021, MaxMem= 23488102400 cpu:           17174.5 elap:             743.1
 (Enter /sw/apps/gaussian-16.0/g16/l801.exe)
 DoSCS=F DFT=T ScalE2(SS,OS)=  1.000000  1.000000
 ExpMin= 3.36D-02 ExpMax= 4.95D+03 ExpMxC= 7.45D+02 IAcc=3 IRadAn=         5 AccDes= 0.00D+00
 HarFok:  IExCor=  205 AccDes= 0.00D+00 IRadAn=         5 IDoV=-2 UseB2=F ITyADJ=14
 ICtDFT= 12500011 ScaDFX=  1.000000  1.000000  1.000000  1.000000
 GSVD:  LWork=       -9588 too small for GESVD, short by       45590 words or       45590 for optimal perf.
 Largest valence mixing into a core orbital is  2.03D-04
 Largest core mixing into a valence orbital is  5.22D-05
 Range of M.O.s used for correlation:    95  1572
 NBasis=  1572 NAE=   312 NBE=   312 NFC=    94 NFV=     0
 NROrb=   1478 NOA=   218 NOB=   218 NVA=  1260 NVB=  1260
 Leave Link  801 at Fri Sep  3 15:53:17 2021, MaxMem= 23488102400 cpu:               8.9 elap:               0.4
 (Enter /sw/apps/gaussian-16.0/g16/l914.exe)
 RHF ground state
 Two-electron integrals replicated using symmetry.
 MDV= 23488102400 DFT=T DoStab=F Mixed=T DoRPA=T DoScal=F NonHer=T
 Making orbital integer symmetry assigments:
 Orbital symmetries:
       Occupied  (A) (A) (A) (A) (A) (A) (A) (A) (A) (A) (A) (A)
                 (A) (A) (A) (A) (A) (A) (A) (A) (A) (A) (A) (A)
                 (A) (A) (A) (A) (A) (A) (A) (A) (A) (A) (A) (A)
                 (A) (A) (A) (A) (A) (A) (A) (A) (A) (A) (A) (A)
                 (A) (A) (A) (A) (A) (A) (A) (A) (A) (A) (A) (A)
                 (A) (A) (A) (A) (A) (A) (A) (A) (A) (A) (A) (A)
                 (A) (A) (A) (A) (A) (A) (A) (A) (A) (A) (A) (A)
                 (A) (A) (A) (A) (A) (A) (A) (A) (A) (A) (A) (A)
                 (A) (A) (A) (A) (A) (A) (A) (A) (A) (A) (A) (A)
                 (A) (A) (A) (A) (A) (A) (A) (A) (A) (A) (A) (A)
                 (A) (A) (A) (A) (A) (A) (A) (A) (A) (A) (A) (A)
                 (A) (A) (A) (A) (A) (A) (A) (A) (A) (A) (A) (A)
                 (A) (A) (A) (A) (A) (A) (A) (A) (A) (A) (A) (A)
                 (A) (A) (A) (A) (A) (A) (A) (A) (A) (A) (A) (A)
                 (A) (A) (A) (A) (A) (A) (A) (A) (A) (A) (A) (A)
                 (A) (A) (A) (A) (A) (A) (A) (A) (A) (A) (A) (A)
                 (A) (A) (A) (A) (A) (A) (A) (A) (A) (A) (A) (A)
                 (A) (A) (A) (A) (A) (A) (A) (A) (A) (A) (A) (A)
                 (A) (A) (A) (A) (A) (A) (A) (A) (A) (A) (A) (A)
                 (A) (A) (A) (A) (A) (A) (A) (A) (A) (A) (A) (A)
                 (A) (A) (A) (A) (A) (A) (A) (A) (A) (A) (A) (A)
                 (A) (A) (A) (A) (A) (A) (A) (A) (A) (A) (A) (A)
                 (A) (A) (A) (A) (A) (A) (A) (A) (A) (A) (A) (A)
                 (A) (A) (A) (A) (A) (A) (A) (A) (A) (A) (A) (A)
                 (A) (A) (A) (A) (A) (A) (A) (A) (A) (A) (A) (A)
                 (A) (A) (A) (A) (A) (A) (A) (A) (A) (A) (A) (A)
       Virtual   (A) (A) (A) (A) (A) (A) (A) (A) (A) (A) (A) (A)
                 (A) (A) (A) (A) (A) (A) (A) (A) (A) (A) (A) (A)
                 (A) (A) (A) (A) (A) (A) (A) (A) (A) (A) (A) (A)
                 (A) (A) (A) (A) (A) (A) (A) (A) (A) (A) (A) (A)
                 (A) (A) (A) (A) (A) (A) (A) (A) (A) (A) (A) (A)
                 (A) (A) (A) (A) (A) (A) (A) (A) (A) (A) (A) (A)
                 (A) (A) (A) (A) (A) (A) (A) (A) (A) (A) (A) (A)
                 (A) (A) (A) (A) (A) (A) (A) (A) (A) (A) (A) (A)
                 (A) (A) (A) (A) (A) (A) (A) (A) (A) (A) (A) (A)
                 (A) (A) (A) (A) (A) (A) (A) (A) (A) (A) (A) (A)
                 (A) (A) (A) (A) (A) (A) (A) (A) (A) (A) (A) (A)
                 (A) (A) (A) (A) (A) (A) (A) (A) (A) (A) (A) (A)
                 (A) (A) (A) (A) (A) (A) (A) (A) (A) (A) (A) (A)
                 (A) (A) (A) (A) (A) (A) (A) (A) (A) (A) (A) (A)
                 (A) (A) (A) (A) (A) (A) (A) (A) (A) (A) (A) (A)
                 (A) (A) (A) (A) (A) (A) (A) (A) (A) (A) (A) (A)
                 (A) (A) (A) (A) (A) (A) (A) (A) (A) (A) (A) (A)
                 (A) (A) (A) (A) (A) (A) (A) (A) (A) (A) (A) (A)
                 (A) (A) (A) (A) (A) (A) (A) (A) (A) (A) (A) (A)
                 (A) (A) (A) (A) (A) (A) (A) (A) (A) (A) (A) (A)
                 (A) (A) (A) (A) (A) (A) (A) (A) (A) (A) (A) (A)
                 (A) (A) (A) (A) (A) (A) (A) (A) (A) (A) (A) (A)
                 (A) (A) (A) (A) (A) (A) (A) (A) (A) (A) (A) (A)
                 (A) (A) (A) (A) (A) (A) (A) (A) (A) (A) (A) (A)
                 (A) (A) (A) (A) (A) (A) (A) (A) (A) (A) (A) (A)
                 (A) (A) (A) (A) (A) (A) (A) (A) (A) (A) (A) (A)
                 (A) (A) (A) (A) (A) (A) (A) (A) (A) (A) (A) (A)
                 (A) (A) (A) (A) (A) (A) (A) (A) (A) (A) (A) (A)
                 (A) (A) (A) (A) (A) (A) (A) (A) (A) (A) (A) (A)
                 (A) (A) (A) (A) (A) (A) (A) (A) (A) (A) (A) (A)
                 (A) (A) (A) (A) (A) (A) (A) (A) (A) (A) (A) (A)
                 (A) (A) (A) (A) (A) (A) (A) (A) (A) (A) (A) (A)
                 (A) (A) (A) (A) (A) (A) (A) (A) (A) (A) (A) (A)
                 (A) (A) (A) (A) (A) (A) (A) (A) (A) (A) (A) (A)
                 (A) (A) (A) (A) (A) (A) (A) (A) (A) (A) (A) (A)
                 (A) (A) (A) (A) (A) (A) (A) (A) (A) (A) (A) (A)
                 (A) (A) (A) (A) (A) (A) (A) (A) (A) (A) (A) (A)
                 (A) (A) (A) (A) (A) (A) (A) (A) (A) (A) (A) (A)
                 (A) (A) (A) (A) (A) (A) (A) (A) (A) (A) (A) (A)
                 (A) (A) (A) (A) (A) (A) (A) (A) (A) (A) (A) (A)
                 (A) (A) (A) (A) (A) (A) (A) (A) (A) (A) (A) (A)
                 (A) (A) (A) (A) (A) (A) (A) (A) (A) (A) (A) (A)
                 (A) (A) (A) (A) (A) (A) (A) (A) (A) (A) (A) (A)
                 (A) (A) (A) (A) (A) (A) (A) (A) (A) (A) (A) (A)
                 (A) (A) (A) (A) (A) (A) (A) (A) (A) (A) (A) (A)
                 (A) (A) (A) (A) (A) (A) (A) (A) (A) (A) (A) (A)
                 (A) (A) (A) (A) (A) (A) (A) (A) (A) (A) (A) (A)
                 (A) (A) (A) (A) (A) (A) (A) (A) (A) (A) (A) (A)
                 (A) (A) (A) (A) (A) (A) (A) (A) (A) (A) (A) (A)
                 (A) (A) (A) (A) (A) (A) (A) (A) (A) (A) (A) (A)
                 (A) (A) (A) (A) (A) (A) (A) (A) (A) (A) (A) (A)
                 (A) (A) (A) (A) (A) (A) (A) (A) (A) (A) (A) (A)
                 (A) (A) (A) (A) (A) (A) (A) (A) (A) (A) (A) (A)
                 (A) (A) (A) (A) (A) (A) (A) (A) (A) (A) (A) (A)
                 (A) (A) (A) (A) (A) (A) (A) (A) (A) (A) (A) (A)
                 (A) (A) (A) (A) (A) (A) (A) (A) (A) (A) (A) (A)
                 (A) (A) (A) (A) (A) (A) (A) (A) (A) (A) (A) (A)
                 (A) (A) (A) (A) (A) (A) (A) (A) (A) (A) (A) (A)
                 (A) (A) (A) (A) (A) (A) (A) (A) (A) (A) (A) (A)
                 (A) (A) (A) (A) (A) (A) (A) (A) (A) (A) (A) (A)
                 (A) (A) (A) (A) (A) (A) (A) (A) (A) (A) (A) (A)
                 (A) (A) (A) (A) (A) (A) (A) (A) (A) (A) (A) (A)
                 (A) (A) (A) (A) (A) (A) (A) (A) (A) (A) (A) (A)
                 (A) (A) (A) (A) (A) (A) (A) (A) (A) (A) (A) (A)
                 (A) (A) (A) (A) (A) (A) (A) (A) (A) (A) (A) (A)
                 (A) (A) (A) (A) (A) (A) (A) (A) (A) (A) (A) (A)
                 (A) (A) (A) (A) (A) (A) (A) (A) (A) (A) (A) (A)
                 (A) (A) (A) (A) (A) (A) (A) (A) (A) (A) (A) (A)
                 (A) (A) (A) (A) (A) (A) (A) (A) (A) (A) (A) (A)
                 (A) (A) (A) (A) (A) (A) (A) (A) (A) (A) (A) (A)
                 (A) (A) (A) (A) (A) (A) (A) (A) (A) (A) (A) (A)
                 (A) (A) (A) (A) (A) (A) (A) (A) (A) (A) (A) (A)
                 (A) (A) (A) (A) (A) (A) (A) (A) (A) (A) (A) (A)
                 (A) (A) (A) (A) (A) (A) (A) (A) (A) (A) (A) (A)
                 (A) (A) (A) (A) (A) (A) (A) (A) (A) (A) (A) (A)
                 (A) (A) (A) (A) (A) (A) (A) (A) (A) (A) (A) (A)
                 (A) (A) (A) (A) (A) (A) (A) (A) (A) (A) (A) (A)
                 (A) (A) (A) (A) (A) (A) (A) (A) (A) (A) (A) (A)
                 (A) (A) (A) (A) (A) (A) (A) (A) (A) (A) (A) (A)
                 (A) (A) (A) (A) (A) (A) (A) (A) (A) (A) (A) (A)
                 (A) (A) (A) (A) (A) (A) (A) (A) (A) (A) (A) (A)
                 (A) (A) (A) (A) (A) (A) (A) (A) (A) (A) (A) (A)
                 (A) (A) (A) (A) (A) (A) (A) (A) (A) (A) (A) (A)
                 (A) (A) (A) (A) (A) (A) (A) (A) (A) (A) (A) (A)
                 (A) (A) (A) (A) (A) (A) (A) (A) (A) (A) (A) (A)
                 (A) (A) (A) (A) (A) (A) (A) (A) (A) (A) (A) (A)
                 (A) (A) (A) (A) (A) (A) (A) (A) (A) (A) (A) (A)
                 (A) (A) (A) (A) (A) (A) (A) (A) (A) (A) (A) (A)
                 (A) (A) (A) (A) (A) (A) (A) (A) (A) (A) (A) (A)
                 (A) (A) (A) (A) (A) (A) (A) (A) (A) (A) (A) (A)
                 (A) (A) (A) (A) (A) (A) (A) (A) (A) (A) (A) (A)
                 (A) (A) (A) (A) (A) (A) (A) (A) (A) (A) (A) (A)
                 (A) (A) (A) (A) (A) (A) (A) (A) (A) (A) (A) (A)
                 (A) (A) (A) (A) (A) (A) (A) (A) (A) (A) (A) (A)
                 (A) (A) (A) (A) (A) (A) (A) (A) (A) (A) (A) (A)
                 (A) (A) (A) (A) (A) (A) (A) (A) (A) (A) (A) (A)
                 (A) (A) (A) (A) (A) (A) (A) (A) (A) (A) (A) (A)
                 (A) (A) (A) (A) (A) (A) (A) (A) (A) (A) (A) (A)
                 (A) (A) (A) (A) (A) (A) (A) (A) (A) (A) (A) (A)
                 (A) (A) (A) (A) (A) (A) (A) (A) (A) (A) (A) (A)
                 (A) (A) (A) (A) (A) (A) (A) (A) (A) (A) (A) (A)
                 (A) (A) (A) (A) (A) (A) (A) (A) (A) (A) (A) (A)
                 (A) (A) (A) (A) (A) (A) (A) (A) (A) (A) (A) (A)
                 (A) (A) (A) (A) (A) (A) (A) (A) (A) (A) (A) (A)
                 (A) (A) (A) (A) (A) (A) (A) (A) (A) (A) (A) (A)
    20 initial guesses have been made.
 Convergence on wavefunction:    0.001000000000000
 Davidson Disk Diagonalization:  ConvIn= 1.00D-03 SkipCon=T Conv= 1.00D-03.
 Max sub-space:  2000 roots to seek:    20 dimension of matrix:       549360
 Iteration     1 Dimension    20 NMult     0 NNew     20
 CISAX will form    20 AO SS matrices at one time.
 NMat=    20 NSing=    20 JSym2X= 0.
 FoFJK:  IHMeth= 1 ICntrl=       0 DoSepK=T KAlg= 0 I1Cent=           0 FoldK=F
 IRaf=         1 NMat=      40 IRICut=       1 DoRegI=T DoRafI=F ISym2E= 0 IDoP0=3 IntGTp=3.
 FoFCou: FMM=T IPFlag=           0 FMFlag=      100000 FMFlg1=        2001
         NFxFlg=           0 DoJE=F BraDBF=F KetDBF=F FulRan=T
         wScrn=  0.000000 ICntrl=       500 IOpCl=  0 I1Cent=           0 NGrid=           0
         NMat0=   20 NMatS0=     20 NMatT0=    0 NMatD0=   20 NMtDS0=    0 NMtDT0=    0
 Symmetry not used in FoFCou.
 FMM levels:  10  Number of levels for PrismC:   9
 New state      2 was old state      4
 New state      3 was old state      7
 New state      4 was old state      6
 New state      5 was old state     10
 Excitation Energies [eV] at current iteration:
 Root      1 :     2.234721702854672
 Root      2 :     2.455451054046179
 Root      3 :     2.589568811812906
 Root      4 :     2.612296455712841
 Root      5 :     2.643106057427643
 Root      6 :     2.748330173106749
 Root      7 :     3.018595288857797
 Root      8 :     3.244032208588727
 Root      9 :     3.614433706220181
 Root     10 :     3.665125372444299
 Root     11 :     3.741047089596637
 Root     12 :     3.766701680502787
 Root     13 :     4.135564980024424
 Root     14 :     4.256601334371317
 Root     15 :     4.351104803498979
 Root     16 :     4.376710220211810
 Root     17 :     4.458596887589396
 Root     18 :     4.507807195665263
 Root     19 :     4.613669788722428
 Root     20 :     4.764746012006396
 Iteration     2 Dimension    30 NMult    20 NNew     10
 CISAX will form    10 AO SS matrices at one time.
 NMat=    10 NSing=    10 JSym2X= 0.
 New state      1 was old state      3
 Root      1 not converged, maximum delta is    0.367600686354836
 New state      2 was old state      4
 Root      2 not converged, maximum delta is    0.132459028821821
 New state      3 was old state      1
 Root      3 not converged, maximum delta is    0.010634226362338
 New state      4 was old state      5
 Root      4 not converged, maximum delta is    0.251274696446560
 New state      5 was old state      2
 Root      5 not converged, maximum delta is    0.005828873742671
 Excitation Energies [eV] at current iteration:
 Root      1 :     1.768069149298776   Change is   -0.821499662514130
 Root      2 :     2.208061281703195   Change is   -0.404235174009646
 Root      3 :     2.233376754332761   Change is   -0.001344948521911
 Root      4 :     2.241179999781159   Change is   -0.401926057646484
 Root      5 :     2.453883123269496   Change is   -0.001567930776684
 Iteration     3 Dimension    40 NMult    30 NNew     10
 CISAX will form    10 AO SS matrices at one time.
 NMat=    10 NSing=    10 JSym2X= 0.
 Root      1 not converged, maximum delta is    0.051626043881422
 Root      2 not converged, maximum delta is    0.227822479591495
 New state      3 was old state      4
 Root      3 not converged, maximum delta is    0.084049850383422
 New state      4 was old state      3
 Root      4 not converged, maximum delta is    0.012957815319606
 No map to state      5
 Excitation Energies [eV] at current iteration:
 Root      1 :     1.664702174680053   Change is   -0.103366974618723
 Root      2 :     2.046679718189239   Change is   -0.161381563513956
 Root      3 :     2.199695730929188   Change is   -0.041484268851972
 Root      4 :     2.233369236261177   Change is   -0.000007518071584
 Root      5 :     2.341238454810591
 Iteration     4 Dimension    50 NMult    40 NNew     10
 CISAX will form    10 AO SS matrices at one time.
 NMat=    10 NSing=    10 JSym2X= 0.
 Root      1 not converged, maximum delta is    0.010988319593036
 Root      2 not converged, maximum delta is    0.341506455280955
 Root      3 not converged, maximum delta is    0.521815349844476
 New state      4 was old state      5
 Root      4 not converged, maximum delta is    0.455090200292301
 New state      5 was old state      4
 Root      5 not converged, maximum delta is    0.001101590857276
 Excitation Energies [eV] at current iteration:
 Root      1 :     1.648246843054501   Change is   -0.016455331625552
 Root      2 :     1.752185344672990   Change is   -0.294494373516249
 Root      3 :     2.188256349301009   Change is   -0.011439381628178
 Root      4 :     2.195349497904575   Change is   -0.145888956906016
 Root      5 :     2.233368774130554   Change is   -0.000000462130623
 Iteration     5 Dimension    60 NMult    50 NNew     10
 CISAX will form    10 AO SS matrices at one time.
 NMat=    10 NSing=    10 JSym2X= 0.
 Root      1 not converged, maximum delta is    0.001755044264962
 Root      2 not converged, maximum delta is    0.025243991610049
 Root      3 not converged, maximum delta is    0.156110041332219
 Root      4 not converged, maximum delta is    0.153990745981685
 Root      5 has converged.
 Excitation Energies [eV] at current iteration:
 Root      1 :     1.646560830433508   Change is   -0.001686012620992
 Root      2 :     1.706324759737369   Change is   -0.045860584935620
 Root      3 :     2.183479708393542   Change is   -0.004776640907467
 Root      4 :     2.192902929698598   Change is   -0.002446568205977
 Root      5 :     2.233368641307201   Change is   -0.000000132823353
 Iteration     6 Dimension    68 NMult    60 NNew      8
 CISAX will form     8 AO SS matrices at one time.
 NMat=     8 NSing=     8 JSym2X= 0.
 Root      1 has converged.
 Root      2 not converged, maximum delta is    0.007321693243177
 Root      3 not converged, maximum delta is    0.012378488855835
 Root      4 not converged, maximum delta is    0.012720946963814
 Root      5 has converged.
 Excitation Energies [eV] at current iteration:
 Root      1 :     1.646321730949193   Change is   -0.000239099484315
 Root      2 :     1.698810087489046   Change is   -0.007514672248323
 Root      3 :     2.182692957516292   Change is   -0.000786750877250
 Root      4 :     2.192680687462968   Change is   -0.000222242235631
 Root      5 :     2.233368639179177   Change is   -0.000000002128024
 Iteration     7 Dimension    74 NMult    68 NNew      6
 CISAX will form     6 AO SS matrices at one time.
 NMat=     6 NSing=     6 JSym2X= 0.
 Root      1 has converged.
 Root      2 not converged, maximum delta is    0.001482163769822
[...]
 Alpha virt. eigenvalues --    1.84457   1.84703   1.84755   1.84959   1.85128
 Alpha virt. eigenvalues --    1.85183   1.85272   1.85417   1.85525   1.85699
 Alpha virt. eigenvalues --    1.85970   1.86112   1.86297   1.86498   1.86635
 Alpha virt. eigenvalues --    1.86825   1.86852   1.87152   1.87187   1.87274
 Alpha virt. eigenvalues --    1.87599   1.87668   1.87691   1.87827   1.87925
 Alpha virt. eigenvalues --    1.88025   1.88266   1.88438   1.88485   1.88754
 Alpha virt. eigenvalues --    1.88791   1.89056   1.89225   1.89300   1.89531
 Alpha virt. eigenvalues --    1.89719   1.89848   1.90079   1.90212   1.90376
 Alpha virt. eigenvalues --    1.90737   1.91168   1.91344   1.91503   1.91638
 Alpha virt. eigenvalues --    1.91718   1.92148   1.92357   1.92653   1.92792
 Alpha virt. eigenvalues --    1.92938   1.93287   1.93404   1.93804   1.94321
 Alpha virt. eigenvalues --    1.94491   1.94620   1.95211   1.95533   1.95725
 Alpha virt. eigenvalues --    1.95801   1.95922   1.96017   1.96173   1.96236
 Alpha virt. eigenvalues --    1.96326   1.96644   1.96694   1.96854   1.97146
 Alpha virt. eigenvalues --    1.97454   1.97677   1.97827   1.97972   1.98138
 Alpha virt. eigenvalues --    1.98352   1.98520   1.98734   1.99136   1.99306
 Alpha virt. eigenvalues --    1.99791   2.00117   2.00607   2.00931   2.01023
 Alpha virt. eigenvalues --    2.01263   2.01483   2.01653   2.01743   2.01752
 Alpha virt. eigenvalues --    2.01871   2.02080   2.02758   2.02912   2.03228
 Alpha virt. eigenvalues --    2.03377   2.03451   2.03535   2.03686   2.03746
 Alpha virt. eigenvalues --    2.04040   2.04447   2.04877   2.05185   2.05491
 Alpha virt. eigenvalues --    2.05886   2.06004   2.06558   2.06908   2.07166
 Alpha virt. eigenvalues --    2.07191   2.07620   2.08526   2.08753   2.08913
 Alpha virt. eigenvalues --    2.09190   2.09560   2.09802   2.10712   2.11131
 Alpha virt. eigenvalues --    2.11250   2.11531   2.11610   2.11654   2.11671
 Alpha virt. eigenvalues --    2.12055   2.12458   2.12656   2.12726   2.12773
 Alpha virt. eigenvalues --    2.13074   2.13166   2.13758   2.13800   2.14111
 Alpha virt. eigenvalues --    2.14635   2.15372   2.15591   2.15892   2.16259
 Alpha virt. eigenvalues --    2.16557   2.16673   2.16857   2.17369   2.17478
 Alpha virt. eigenvalues --    2.17652   2.17965   2.18132   2.18150   2.18334
 Alpha virt. eigenvalues --    2.18713   2.18843   2.18990   2.19371   2.19619
 Alpha virt. eigenvalues --    2.19998   2.20030   2.20196   2.20527   2.20654
 Alpha virt. eigenvalues --    2.21286   2.21456   2.21635   2.21708   2.21993
 Alpha virt. eigenvalues --    2.22093   2.22669   2.22920   2.23359   2.23811
 Alpha virt. eigenvalues --    2.24403   2.24719   2.24989   2.25608   2.26267
 Alpha virt. eigenvalues --    2.26599   2.26834   2.27068   2.27176   2.27394
 Alpha virt. eigenvalues --    2.28104   2.28484   2.29215   2.29630   2.29698
 Alpha virt. eigenvalues --    2.30069   2.30451   2.30736   2.30897   2.31070
 Alpha virt. eigenvalues --    2.31220   2.31517   2.32181   2.32445   2.33083
 Alpha virt. eigenvalues --    2.33383   2.33453   2.33647   2.34215   2.34316
 Alpha virt. eigenvalues --    2.35410   2.35425   2.35721   2.36094   2.36424
 Alpha virt. eigenvalues --    2.36521   2.36563   2.36664   2.37701   2.37934
 Alpha virt. eigenvalues --    2.38158   2.38579   2.38824   2.38888   2.39544
 Alpha virt. eigenvalues --    2.39850   2.40301   2.40453   2.40469   2.40938
 Alpha virt. eigenvalues --    2.41311   2.41343   2.41880   2.41907   2.42026
 Alpha virt. eigenvalues --    2.42308   2.42940   2.43087   2.43143   2.43661
 Alpha virt. eigenvalues --    2.44125   2.44184   2.44679   2.44869   2.44985
 Alpha virt. eigenvalues --    2.45193   2.45515   2.45802   2.46161   2.46412
 Alpha virt. eigenvalues --    2.46460   2.46732   2.46751   2.46996   2.47262
 Alpha virt. eigenvalues --    2.47611   2.47711   2.48104   2.49252   2.49572
 Alpha virt. eigenvalues --    2.50026   2.50107   2.50608   2.50633   2.51086
 Alpha virt. eigenvalues --    2.51426   2.51783   2.51872   2.52428   2.52491
 Alpha virt. eigenvalues --    2.52777   2.53305   2.53861   2.54003   2.54138
 Alpha virt. eigenvalues --    2.54459   2.54771   2.55061   2.55422   2.55850
 Alpha virt. eigenvalues --    2.57767   2.58274   2.58587   2.59133   2.60171
 Alpha virt. eigenvalues --    2.60425   2.60580   2.61050   2.61632   2.61994
 Alpha virt. eigenvalues --    2.62484   2.62631   2.62907   2.63342   2.63865
 Alpha virt. eigenvalues --    2.64229   2.64349   2.64707   2.65040   2.65300
 Alpha virt. eigenvalues --    2.65744   2.65971   2.66743   2.66844   2.67000
 Alpha virt. eigenvalues --    2.67249   2.67852   2.68192   2.68787   2.68972
 Alpha virt. eigenvalues --    2.68996   2.69153   2.69361   2.69757   2.69967
 Alpha virt. eigenvalues --    2.70398   2.70963   2.71182   2.72016   2.72030
 Alpha virt. eigenvalues --    2.72598   2.72620   2.72869   2.72903   2.73260
 Alpha virt. eigenvalues --    2.73484   2.73549   2.73563   2.74472   2.74691
 Alpha virt. eigenvalues --    2.74922   2.75272   2.76567   2.76699   2.77168
 Alpha virt. eigenvalues --    2.77259   2.77356   2.77763   2.78049   2.78459
 Alpha virt. eigenvalues --    2.78696   2.78886   2.79080   2.79282   2.80226
 Alpha virt. eigenvalues --    2.80419   2.80560   2.80801   2.81039   2.81336
 Alpha virt. eigenvalues --    2.81865   2.82124   2.82280   2.82517   2.83624
 Alpha virt. eigenvalues --    2.83716   2.84035   2.84045   2.84469   2.84749
 Alpha virt. eigenvalues --    2.84815   2.85123   2.85564   2.85844   2.86788
 Alpha virt. eigenvalues --    2.86973   2.87260   2.87658   2.88025   2.88401
 Alpha virt. eigenvalues --    2.88463   2.88816   2.88899   2.89088   2.90494
 Alpha virt. eigenvalues --    2.90778   2.91178   2.91265   2.93111   2.93448
 Alpha virt. eigenvalues --    2.93935   2.94159   2.94486   2.94771   2.95372
 Alpha virt. eigenvalues --    2.95521   2.95861   2.96273   2.96485   2.96569
 Alpha virt. eigenvalues --    2.96921   2.97248   2.97827   2.98109   2.98185
 Alpha virt. eigenvalues --    2.98325   2.98414   2.98526   2.98729   2.98796
 Alpha virt. eigenvalues --    2.99011   2.99282   2.99653   2.99947   3.00030
 Alpha virt. eigenvalues --    3.00156   3.00267   3.00420   3.00515   3.01101
 Alpha virt. eigenvalues --    3.01915   3.01975   3.02041   3.02211   3.02744
 Alpha virt. eigenvalues --    3.02900   3.02988   3.03257   3.03445   3.03792
 Alpha virt. eigenvalues --    3.04161   3.04279   3.04415   3.04507   3.04684
 Alpha virt. eigenvalues --    3.05073   3.05232   3.05690   3.06109   3.06569
 Alpha virt. eigenvalues --    3.06860   3.07384   3.08041   3.08079   3.09359
 Alpha virt. eigenvalues --    3.09591   3.09678   3.10418   3.10451   3.10883
 Alpha virt. eigenvalues --    3.11289   3.11635   3.11929   3.12057   3.12334
 Alpha virt. eigenvalues --    3.12369   3.13250   3.13574   3.13776   3.13968
 Alpha virt. eigenvalues --    3.14127   3.14521   3.15990   3.16159   3.17193
 Alpha virt. eigenvalues --    3.17731   3.17961   3.18052   3.19028   3.19220
 Alpha virt. eigenvalues --    3.22322   3.22675   3.23866   3.24612   3.24621
 Alpha virt. eigenvalues --    3.25349   3.26429   3.26845   3.27554   3.27573
 Alpha virt. eigenvalues --    3.29123   3.29284   3.31450   3.31552   3.33335
 Alpha virt. eigenvalues --    3.33370   3.40277   3.40702   3.42682   3.42983
 Alpha virt. eigenvalues --    3.48587   3.48874   3.49951   3.50457   3.50996
 Alpha virt. eigenvalues --    3.51395   3.56460   3.57185   3.59033   3.59519
 Alpha virt. eigenvalues --    3.62689   3.62771   3.66026   3.66280   3.67229
 Alpha virt. eigenvalues --    3.67587   3.73277   3.74111   3.76041   3.76794
          Condensed to atoms (all electrons):
 Mulliken charges:
               1
     1  Mg   0.838697
     2  C   -0.002514
     3  C   -0.094760
     4  C   -0.045438
     5  C   -0.064359
     6  N   -0.256833
     7  C   -0.052095
     8  C   -0.013903
     9  C   -0.086816
    10  C    0.046189
    11  C    0.104815
    12  C    0.053573
    13  C   -0.073582
    14  H    0.041067
    15  N   -0.433152
    16  C    0.168123
    17  C   -0.178180
    18  C   -0.005055
    19  C    0.148951
    20  C    0.110206
    21  C    0.011026
    22  O   -0.249443
    23  C    0.063368
    24  N   -0.341316
    25  C    0.041427
    26  C   -0.028375
    27  C   -0.024477
    28  C    0.075741
    29  C    0.076115
    30  C    0.036940
    31  C   -0.011504
    32  N   -0.310648
    33  C    0.080959
    34  C   -0.170360
    35  C    0.008406
    36  C    0.083448
    37  C    0.127403
    38  C    0.045839
    39  O   -0.187930
    40  C   -0.005199
    41  C    0.212897
    42  O   -0.257296
    43  O   -0.305109
    44  C    0.156963
    45  H   -0.017743
    46  H   -0.016897
    47  H   -0.041519
    48  H    0.001492
    49  H   -0.004261
    50  H    0.025696
    51  H    0.016271
    52  H    0.016810
    53  H    0.009113
    54  H    0.045317
    55  H    0.017796
    56  H    0.016924
    57  H    0.006213
    58  H    0.027129
    59  H    0.036678
    60  H    0.038310
    61  H    0.034817
    62  H    0.027905
    63  H    0.017217
    64  H    0.009591
    65  H    0.023420
    66  H    0.012336
    67  H    0.004921
    68  H    0.006951
    69  H    0.003414
    70  H    0.011280
    71  H    0.023812
    72  H    0.028968
    73  H    0.046957
    74  H    0.008982
    75  H    0.046609
    76  H    0.035451
    77  H    0.043119
    78  H    0.047324
    79  H    0.055842
    80  Mg   0.837217
    81  C   -0.016548
    82  C   -0.087843
    83  C   -0.044781
    84  C   -0.061278
    85  N   -0.254432
    86  C   -0.049914
    87  C   -0.014786
    88  C   -0.090918
    89  C    0.045284
    90  C    0.114403
    91  C    0.062784
    92  C   -0.077291
    93  H    0.034477
    94  N   -0.423444
    95  C    0.162144
    96  C   -0.174032
    97  C   -0.007991
    98  C    0.151392
    99  C    0.099169
   100  C    0.015493
   101  O   -0.254277
   102  C    0.061118
   103  N   -0.349858
   104  C    0.035653
   105  C   -0.017650
   106  C   -0.035556
   107  C    0.088851
   108  C    0.067590
   109  C    0.034701
   110  C   -0.007515
   111  N   -0.325033
   112  C    0.078760
   113  C   -0.157350
   114  C    0.003726
   115  C    0.096634
   116  C    0.128453
   117  C    0.044412
   118  O   -0.189000
   119  C    0.000227
   120  C    0.210833
   121  O   -0.251104
   122  O   -0.306159
   123  C    0.152221
   124  H   -0.021337
   125  H   -0.016492
   126  H   -0.038536
   127  H   -0.002227
   128  H   -0.005708
   129  H    0.022476
   130  H    0.017366
   131  H    0.011280
   132  H    0.014140
   133  H    0.037875
   134  H    0.019307
   135  H    0.019052
   136  H    0.007247
   137  H    0.027927
   138  H    0.038644
   139  H    0.039122
   140  H    0.035529
   141  H    0.033324
   142  H    0.013542
   143  H    0.014486
   144  H    0.023321
   145  H    0.016692
   146  H    0.005442
   147  H    0.005405
   148  H    0.004564
   149  H    0.010370
   150  H    0.017603
   151  H    0.030233
   152  H    0.043566
   153  H    0.007727
   154  H    0.058983
   155  H    0.034780
   156  H    0.042967
   157  H    0.048859
   158  H    0.053639
 Sum of Mulliken charges =  -0.00000
 Mulliken charges with hydrogens summed into heavy atoms:
               1
     1  Mg   0.838697
     2  C   -0.002514
     3  C   -0.112504
     4  C   -0.062335
     5  C   -0.105878
     6  N   -0.256833
     7  C   -0.052095
     8  C   -0.012411
     9  C   -0.091078
    10  C    0.046189
    11  C    0.163592
    12  C    0.108004
    13  C    0.002204
    15  N   -0.433152
    16  C    0.168123
    17  C   -0.178180
    18  C   -0.005055
    19  C    0.148951
    20  C    0.180226
    21  C    0.011026
    22  O   -0.249443
    23  C    0.164400
    24  N   -0.341316
    25  C    0.041427
    26  C   -0.011158
    27  C   -0.014886
    28  C    0.075741
    29  C    0.116791
    30  C    0.047305
    31  C    0.052556
    32  N   -0.310648
    33  C    0.080959
    34  C   -0.170360
    35  C    0.008406
    36  C    0.083448
    37  C    0.229950
    38  C    0.045839
    39  O   -0.187930
    40  C    0.030252
    41  C    0.212897
    42  O   -0.257296
    43  O   -0.305109
    44  C    0.303248
    80  Mg   0.837217
    81  C   -0.016548
    82  C   -0.109180
    83  C   -0.061273
    84  C   -0.099815
    85  N   -0.254432
    86  C   -0.049914
    87  C   -0.017013
    88  C   -0.096626
    89  C    0.045284
    90  C    0.165526
    91  C    0.114799
    92  C   -0.004455
    94  N   -0.423444
    95  C    0.162144
    96  C   -0.174032
    97  C   -0.007991
    98  C    0.151392
    99  C    0.172987
   100  C    0.015493
   101  O   -0.254277
   102  C    0.169094
   103  N   -0.349858
   104  C    0.035653
   105  C   -0.004108
   106  C   -0.021070
   107  C    0.088851
   108  C    0.113045
   109  C    0.044669
   110  C    0.050691
   111  N   -0.325033
   112  C    0.078760
   113  C   -0.157350
   114  C    0.003726
   115  C    0.096634
   116  C    0.238730
   117  C    0.044412
   118  O   -0.189000
   119  C    0.035007
   120  C    0.210833
   121  O   -0.251104
   122  O   -0.306159
   123  C    0.297686
 Electronic spatial extent (au):  <R**2>=          87532.7373
 Charge=             -0.0000 electrons
 Dipole moment (field-independent basis, Debye):
    X=             -3.3107    Y=              1.6631    Z=              6.9354  Tot=              7.8630
 Quadrupole moment (field-independent basis, Debye-Ang):
   XX=           -519.6459   YY=           -533.5841   ZZ=           -465.6108
   XY=             13.2687   XZ=              3.6155   YZ=            -32.2675
 Traceless Quadrupole moment (field-independent basis, Debye-Ang):
   XX=            -13.3657   YY=            -27.3038   ZZ=             40.6695
   XY=             13.2687   XZ=              3.6155   YZ=            -32.2675
 Octapole moment (field-independent basis, Debye-Ang**2):
  XXX=           -163.5126  YYY=           -247.4069  ZZZ=            126.6838  XYY=           -109.2252
  XXY=             70.7433  XXZ=            140.6583  XZZ=            133.1167  YZZ=             31.1757
  YYZ=            129.0270  XYZ=            154.4156
 Hexadecapole moment (field-independent basis, Debye-Ang**3):
 XXXX=         -52830.8156 YYYY=         -39491.6964 ZZZZ=         -26506.0503 XXXY=            287.7956
 XXXZ=            453.1229 YYYX=            195.5478 YYYZ=           -165.1620 ZZZX=           -750.8003
 ZZZY=           -458.5688 XXYY=         -15404.8685 XXZZ=         -12665.2458 YYZZ=         -11246.2762
 XXYZ=           -808.2210 YYXZ=           1135.0858 ZZXY=           -479.3542
 N-N= 1.593126505617D+04 E-N=-4.134374554091D+04  KE= 4.028797870024D+03
 Leave Link  601 at Fri Sep  3 16:24:14 2021, MaxMem= 23488102400 cpu:              17.9 elap:               0.9
 (Enter /sw/apps/gaussian-16.0/g16/l9999.exe)
 1\1\GINC-BP1-COMPUTE00083\SP\RCAM-B3LYP TD-FC\def2SVP\C68H72Mg2N8O8\OF
 15641\03-Sep-2021\0\\#p cam-b3lyp/Def2SVP td=(nstates=5)\\TDDFT excite
 d states in gaussian\\0,1\Mg,0,0.,0.,0.\C,0,-0.217,-2.218,2.801\C,0,-1
 .255,2.442,2.026\C,0,-0.245,1.85,-2.564\C,0,0.146,-2.824,-2.037\N,0,-0
 .617,-0.009,2.126\C,0,-0.594,-0.908,3.105\C,0,-0.936,-0.309,4.502\C,0,
 -1.773,0.964,4.032\C,0,-1.155,1.168,2.66\C,0,-3.263,0.685,3.863\C,0,0.
 345,0.11,5.299\C,0,0.124,0.397,6.787\H,0,1.168,0.033,7.733\N,0,-0.185,
 1.961,-0.152\C,0,-0.703,2.8,0.777\C,0,-0.62,4.156,0.193\C,0,-0.187,4.0
 15,-1.225\C,0,-0.214,2.583,-1.38\C,0,-0.887,5.406,0.974\C,0,0.181,5.01
 3,-2.277\O,0,0.303,4.69,-3.508\C,0,0.31,6.414,-1.837\N,0,-0.265,-0.413
 ,-2.029\C,0,-0.279,0.569,-2.937\C,0,-0.196,0.024,-4.332\C,0,0.124,-1.5
 33,-4.18\C,0,0.086,-1.632,-2.635\C,0,-1.451,0.205,-5.197\C,0,1.373,-2.
 07,-4.923\C,0,2.626,-1.49,-4.306\N,0,0.15,-2.144,0.303\C,0,0.173,-3.13
 6,-0.688\C,0,0.173,-4.438,0.004\C,0,0.133,-4.111,1.358\C,0,0.083,-2.69
 5,1.502\C,0,0.149,-5.715,-0.623\C,0,0.096,-4.629,2.716\O,0,0.208,-5.74
 7,3.221\C,0,-0.255,-3.428,3.701\C,0,0.717,-3.482,4.848\O,0,1.931,-3.25
 5,4.669\O,0,0.038,-3.556,6.003\C,0,0.943,-3.583,7.183\H,0,-1.859,3.22,
 2.497\H,0,-0.218,2.453,-3.474\H,0,0.276,-3.747,-2.605\H,0,-1.554,-0.94
 9,5.132\H,0,-1.585,1.831,4.665\H,0,-3.484,-0.377,3.969\H,0,-3.511,1.02
 7,2.858\H,0,-3.852,1.301,4.543\H,0,0.669,1.096,4.966\H,0,1.13,-0.639,5
 .189\H,0,-0.844,0.026,7.125\H,0,0.062,1.477,6.921\H,0,-1.344,5.186,1.9
 38\H,0,-1.651,5.963,0.432\H,0,0.007,6.02,1.084\H,0,-0.635,6.744,-1.405
 \H,0,0.665,6.97,-2.704\H,0,1.048,6.466,-1.036\H,0,0.608,0.501,-4.891\H
 ,0,-0.692,-2.156,-4.547\H,0,-1.267,0.74,-6.129\H,0,-2.204,0.714,-4.596
 \H,0,-1.967,-0.72,-5.453\H,0,1.356,-1.759,-5.967\H,0,1.452,-3.157,-4.9
 02\H,0,2.714,-0.522,-4.798\H,0,3.487,-2.121,-4.529\H,0,2.495,-1.303,-3
 .24\H,0,0.867,-6.333,-0.084\H,0,0.404,-5.642,-1.68\H,0,-0.891,-5.999,-
 0.463\H,0,-1.283,-3.581,4.028\H,0,0.698,-4.478,7.755\H,0,0.833,-2.619,
 7.68\H,0,2.,-3.754,6.976\Mg,0,7.88957,0.71795,0.60055\C,0,7.36624,1.26
 534,4.10848\C,0,6.75926,3.89517,0.08838\C,0,7.91133,0.11727,-2.51492\C
 ,0,7.87715,-2.70144,1.27383\N,0,7.18378,2.28059,1.99779\C,0,7.08734,2.
 39669,3.31368\C,0,6.74609,3.8274,3.80985\C,0,6.03238,4.37885,2.48117\C
 ,0,6.72211,3.4915,1.44697\C,0,4.54048,4.09322,2.43663\C,0,8.02882,4.66
 018,4.1607\C,0,7.7647,5.95021,4.94032\H,0,8.73984,6.3694,5.94325\N,0,7
 .87902,1.96034,-0.94701\C,0,7.40213,3.22253,-0.97398\C,0,7.60916,3.701
 52,-2.34943\C,0,8.09635,2.56274,-3.17437\C,0,7.95829,1.47379,-2.22821\
 C,0,7.42385,5.13694,-2.74775\C,0,8.59103,2.46718,-4.58589\O,0,8.73824,
 1.33725,-5.17275\C,0,8.80891,3.73836,-5.29167\N,0,7.68246,-1.0343,-0.4
 9902\C,0,7.78376,-1.02519,-1.83976\C,0,7.87697,-2.42865,-2.38931\C,0,8
 .06137,-3.37754,-1.11527\C,0,7.94846,-2.32101,0.00562\C,0,6.67666,-2.9
 0363,-3.20785\C,0,9.29169,-4.32569,-1.11609\C,0,10.56573,-3.51808,-1.0
 1617\N,0,7.85074,-0.51835,2.37202\C,0,7.82489,-1.92916,2.42719\C,0,7.6
 8626,-2.3068,3.84866\C,0,7.61738,-1.07952,4.52506\C,0,7.68647,-0.01236
 ,3.58917\C,0,7.59134,-3.63524,4.35103\C,0,7.49126,-0.44415,5.81699\O,0
 ,7.48059,-0.83937,6.98208\C,0,7.1958,1.10151,5.59331\C,0,8.1111,1.8845
 1,6.49423\O,0,9.34205,1.86187,6.31855\O,0,7.37372,2.69751,7.27247\C,0,
 8.23766,3.50308,8.17608\H,0,6.20882,4.79045,-0.20209\H,0,8.02717,-0.14
 62,-3.56879\H,0,7.9641,-3.7475,1.57527\H,0,6.05741,3.86626,4.6453\H,0,
 6.27369,5.4244,2.3081\H,0,4.22682,3.46066,3.25371\H,0,4.3631,3.60249,1
 .4886\H,0,3.97811,5.03065,2.40063\H,0,8.44625,5.08104,3.23692\H,0,8.74
 133,4.05766,4.68979\H,0,6.74971,5.98087,5.35481\H,0,7.79446,6.79004,4.
 24188\H,0,6.90247,5.70652,-1.96855\H,0,6.73397,5.1462,-3.59853\H,0,8.3
 5915,5.61543,-3.04595\H,0,7.87913,4.30171,-5.31633\H,0,9.24662,3.46686
 ,-6.25426\H,0,9.52519,4.33812,-4.7191\H,0,8.74047,-2.53478,-3.03445\H,
 0,7.20897,-4.06126,-0.98967\H,0,6.94674,-3.22866,-4.23034\H,0,5.94925,
 -2.10351,-3.24287\H,0,6.10546,-3.71577,-2.76134\H,0,9.3457,-4.87519,-2
 .05911\H,0,9.27245,-5.05894,-0.31674\H,0,10.74982,-3.21838,-2.05221\H,
 0,11.37869,-4.13101,-0.63219\H,0,10.40759,-2.60421,-0.4318\H,0,8.22513
 ,-3.68303,5.22655\H,0,7.89057,-4.36576,3.60231\H,0,6.52114,-3.68542,4.
 56878\H,0,6.14474,1.27169,5.82974\H,0,7.89089,3.31894,9.19761\H,0,8.17
 405,4.54226,7.80216\H,0,9.28153,3.22231,8.25324\\Version=ES64L-G16RevA
 .03\State=1-A\HF=-4069.8121322\RMSD=7.886e-09\PG=C01 [X(C68H72Mg2N8O8)
 ]\\@


 Boundary, n.  In political geography, an imaginary
 line between two nations, separating the imaginary
 rights of one from the imaginary rights of another.
                               -- Ambrose Bierce
 Job cpu time:       0 days 17 hours  8 minutes 56.6 seconds.
 Elapsed time:       0 days  0 hours 43 minutes 35.7 seconds.
 File lengths (MBytes):  RWF=  13225 Int=      0 D2E=      0 Chk=    574 Scr=      1
 Normal termination of Gaussian 16 at Fri Sep  3 16:24:15 2021.
