 Entering Gaussian System, Link 0=g16
 Initial command:
 /sw/apps/gaussian-16.0/g16/l1.exe "/tmp/Gau-226833.inp" -scrdir="/tmp/"
 Entering Link 1 = /sw/apps/gaussian-16.0/g16/l1.exe PID=    226834.
  
 Copyright (c) 1988,1990,1992,1993,1995,1998,2003,2009,2016,
            Gaussian, Inc.  All Rights Reserved.
  
 This is part of the Gaussian(R) 16 program.  It is based on
 the Gaussian(R) 09 system (copyright 2009, Gaussian, Inc.),
 the Gaussian(R) 03 system (copyright 2003, Gaussian, Inc.),
 the Gaussian(R) 98 system (copyright 1998, Gaussian, Inc.),
 the Gaussian(R) 94 system (copyright 1995, Gaussian, Inc.),
 the Gaussian 92(TM) system (copyright 1992, Gaussian, Inc.),
 the Gaussian 90(TM) system (copyright 1990, Gaussian, Inc.),
 the Gaussian 88(TM) system (copyright 1988, Gaussian, Inc.),
 the Gaussian 86(TM) system (copyright 1986, Carnegie Mellon
 University), and the Gaussian 82(TM) system (copyright 1983,
 Carnegie Mellon University). Gaussian is a federally registered
 trademark of Gaussian, Inc.
  
 This software contains proprietary and confidential information,
 including trade secrets, belonging to Gaussian, Inc.
  
 This software is provided under written license and may be
 used, copied, transmitted, or stored only in accord with that
 written license.
  
 The following legend is applicable only to US Government
 contracts under FAR:
  
                    RESTRICTED RIGHTS LEGEND
  
 Use, reproduction and disclosure by the US Government is
 subject to restrictions as set forth in subparagraphs (a)
 and (c) of the Commercial Computer Software - Restricted
 Rights clause in FAR 52.227-19.
  
 Gaussian, Inc.
 340 Quinnipiac St., Bldg. 40, Wallingford CT 06492
  
  
 ---------------------------------------------------------------
 Warning -- This program may not be used in any manner that
 competes with the business of Gaussian, Inc. or will provide
 assistance to any competitor of Gaussian, Inc.  The licensee
 of this program is prohibited from giving any competitor of
 Gaussian, Inc. access to this program.  By using this program,
 the user acknowledges that Gaussian, Inc. is engaged in the
 business of creating and licensing software in the field of
 computational chemistry and represents and warrants to the
 licensee that it is not a competitor of Gaussian, Inc. and that
 it will not use this program in any manner prohibited above.
 ---------------------------------------------------------------
  

 Cite this work as:
 Gaussian 16, Revision A.03,
 M. J. Frisch, G. W. Trucks, H. B. Schlegel, G. E. Scuseria, 
 M. A. Robb, J. R. Cheeseman, G. Scalmani, V. Barone, 
 G. A. Petersson, H. Nakatsuji, X. Li, M. Caricato, A. V. Marenich, 
 J. Bloino, B. G. Janesko, R. Gomperts, B. Mennucci, H. P. Hratchian, 
 J. V. Ortiz, A. F. Izmaylov, J. L. Sonnenberg, D. Williams-Young, 
 F. Ding, F. Lipparini, F. Egidi, J. Goings, B. Peng, A. Petrone, 
 T. Henderson, D. Ranasinghe, V. G. Zakrzewski, J. Gao, N. Rega, 
 G. Zheng, W. Liang, M. Hada, M. Ehara, K. Toyota, R. Fukuda, 
 J. Hasegawa, M. Ishida, T. Nakajima, Y. Honda, O. Kitao, H. Nakai, 
 T. Vreven, K. Throssell, J. A. Montgomery, Jr., J. E. Peralta, 
 F. Ogliaro, M. J. Bearpark, J. J. Heyd, E. N. Brothers, K. N. Kudin, 
 V. N. Staroverov, T. A. Keith, R. Kobayashi, J. Normand, 
 K. Raghavachari, A. P. Rendell, J. C. Burant, S. S. Iyengar, 
 J. Tomasi, M. Cossi, J. M. Millam, M. Klene, C. Adamo, R. Cammi, 
 J. W. Ochterski, R. L. Martin, K. Morokuma, O. Farkas, 
 J. B. Foresman, and D. J. Fox, Gaussian, Inc., Wallingford CT, 2016.
 
 ******************************************
 Gaussian 16:  ES64L-G16RevA.03 25-Dec-2016
                11-Sep-2021 
 ******************************************
 %nproc=24
 Will use up to   24 processors via shared memory.
 %mem=175gb
 -----------------------------------
 #p cam-b3lyp/Def2SVP td=(nstates=5)
 -----------------------------------
 1/38=1,172=1/1;
 2/12=2,17=6,18=5,40=1/2;
 3/5=43,7=101,11=9,25=1,30=1,74=-40/1,2,3,8;
 4//1;
 5/5=2,38=5/2;
 8/6=1,10=1,108=5/1;
 9/41=5,42=1,70=2/14;
 6/7=2,8=2,9=2,10=2/1;
 99/5=1,9=1/99;
 Leave Link    1 at Sat Sep 11 20:21:13 2021, MaxMem= 23488102400 cpu:               0.6 elap:               0.0
 (Enter /sw/apps/gaussian-16.0/g16/l101.exe)
 --------------------------------
 TDDFT excited states in gaussian
 --------------------------------
 Symbolic Z-matrix:
 Charge =  0 Multiplicity = 1
 Mg                    0.        0.        0. 
 C                    -0.217    -2.218     2.801 
 C                    -1.255     2.442     2.026 
 C                    -0.245     1.85     -2.564 
 C                     0.146    -2.824    -2.037 
 N                    -0.617    -0.009     2.126 
 C                    -0.594    -0.908     3.105 
 C                    -0.936    -0.309     4.502 
 C                    -1.773     0.964     4.032 
 C                    -1.155     1.168     2.66 
 C                    -3.263     0.685     3.863 
 C                     0.345     0.11      5.299 
 C                     0.124     0.397     6.787 
 H                     1.168     0.033     7.733 
 N                    -0.185     1.961    -0.152 
 C                    -0.703     2.8       0.777 
 C                    -0.62      4.156     0.193 
 C                    -0.187     4.015    -1.225 
 C                    -0.214     2.583    -1.38 
 C                    -0.887     5.406     0.974 
 C                     0.181     5.013    -2.277 
 O                     0.303     4.69     -3.508 
 C                     0.31      6.414    -1.837 
 N                    -0.265    -0.413    -2.029 
 C                    -0.279     0.569    -2.937 
 C                    -0.196     0.024    -4.332 
 C                     0.124    -1.533    -4.18 
 C                     0.086    -1.632    -2.635 
 C                    -1.451     0.205    -5.197 
 C                     1.373    -2.07     -4.923 
 C                     2.626    -1.49     -4.306 
 N                     0.15     -2.144     0.303 
 C                     0.173    -3.136    -0.688 
 C                     0.173    -4.438     0.004 
 C                     0.133    -4.111     1.358 
 C                     0.083    -2.695     1.502 
 C                     0.149    -5.715    -0.623 
 C                     0.096    -4.629     2.716 
 O                     0.208    -5.747     3.221 
 C                    -0.255    -3.428     3.701 
 C                     0.717    -3.482     4.848 
 O                     1.931    -3.255     4.669 
 O                     0.038    -3.556     6.003 
 C                     0.943    -3.583     7.183 
 H                    -1.859     3.22      2.497 
 H                    -0.218     2.453    -3.474 
 H                     0.276    -3.747    -2.605 
 H                    -1.554    -0.949     5.132 
 H                    -1.585     1.831     4.665 
 H                    -3.484    -0.377     3.969 
 H                    -3.511     1.027     2.858 
 H                    -3.852     1.301     4.543 
 H                     0.669     1.096     4.966 
 H                     1.13     -0.639     5.189 
 H                    -0.844     0.026     7.125 
 H                     0.062     1.477     6.921 
 H                    -1.344     5.186     1.938 
 H                    -1.651     5.963     0.432 
 H                     0.007     6.02      1.084 
 H                    -0.635     6.744    -1.405 
 H                     0.665     6.97     -2.704 
 H                     1.048     6.466    -1.036 
 H                     0.608     0.501    -4.891 
 H                    -0.692    -2.156    -4.547 
 H                    -1.267     0.74     -6.129 
 H                    -2.204     0.714    -4.596 
 H                    -1.967    -0.72     -5.453 
 H                     1.356    -1.759    -5.967 
 H                     1.452    -3.157    -4.902 
 H                     2.714    -0.522    -4.798 
 H                     3.487    -2.121    -4.529 
 H                     2.495    -1.303    -3.24 
 H                     0.867    -6.333    -0.084 
 H                     0.404    -5.642    -1.68 
 H                    -0.891    -5.999    -0.463 
 H                    -1.283    -3.581     4.028 
 H                     0.698    -4.478     7.755 
 H                     0.833    -2.619     7.68 
 H                     2.       -3.754     6.976 
 Mg                    15.75762   1.41994   1.20376 
 C                     16.8143   3.79977   3.67335 
 C                     15.32568  -0.80713   3.75095 
 C                     15.25652  -0.82778  -0.97892 
 C                     17.33348   3.40831  -1.18554 
 N                     16.06316   1.59224   3.38761 
 C                     16.4083   2.56402   4.2188 
 C                     16.23615   2.21626   5.72179 
 C                     16.32686   0.61681   5.61046 
 C                     15.84251   0.44404   4.17232 
 C                     17.74808   0.08675   5.70272 
 C                     14.84568   2.67485   6.28596 
 C                     14.72983   2.64709   7.8116 
 H                     13.93313   3.67995   8.46804 
 N                     14.89338  -0.35908   1.3673 
 C                     14.78763  -1.11302   2.4816 
 C                     14.08622  -2.33968   2.07232 
 C                     13.93272  -2.32062   0.59219 
 C                     14.72395  -1.15281   0.26014 
 C                     13.56543  -3.34621   3.05675 
 C                     13.20597  -3.21394  -0.36698 
 O                     13.40401  -3.14693  -1.63155 
 C                     12.32569  -4.23236   0.22413 
 N                     16.40388   1.19152  -0.75902 
 C                     15.99712   0.14859  -1.50385 
 C                     16.36402   0.33945  -2.95621 
 C                     16.89032   1.84516  -3.07207 
 C                     16.81728   2.25395  -1.58448 
 C                     17.42519  -0.61397  -3.5051 
 C                     16.19669   2.75421  -4.12335 
 C                     14.7655   3.0176   -3.71384 
 N                     16.71525   3.35652   1.17829 
 C                     17.33159   3.98888   0.07633 
 C                     17.94182   5.23785   0.57645 
 C                     17.65567   5.23403   1.94999 
 C                     16.93656   4.05529   2.28608 
 C                     18.68975   6.1673   -0.19998 
 C                     17.80763   5.95394   3.19391 
 O                     18.25237   7.05646   3.51077 
 C                     17.37937   4.99598   4.38777 
 C                     16.46175   5.76758   5.29613 
 O                     15.34571   6.14327   4.89621 
 O                     16.95877   5.7459    6.54628 
 C                     16.07774   6.4889    7.48626 
 H                     15.37405  -1.64816   4.44321 
 H                     15.01628  -1.5178   -1.7911 
 H                     17.75797   4.13099  -1.8857 
 H                     17.02229   2.58923   6.36728 
 H                     15.64349   0.13323   6.30365 
 H                     18.47594   0.88444   5.70947 
 H                     17.88442  -0.54247   4.83293 
 H                     17.84918  -0.57194   6.57004 
 H                     14.08858   1.92375   6.02635 
 H                     14.5899   3.65087   5.92185 
 H                     15.70824   2.54959   8.29756 
 H                     14.19451   1.74      8.10251 
 H                     13.97262  -3.17476   4.06085 
 H                     13.97016  -4.32055   2.76225 
 H                     12.47488  -3.40385   3.06319 
 H                     12.90702  -4.87474   0.8813 
 H                     11.8266  -4.71264  -0.61975 
 H                     11.58194  -3.72981   0.85253 
 H                     15.49613   0.22055  -3.59318 
 H                     17.95193   1.88492  -3.35713 
 H                     17.08177  -1.18896  -4.38574 
 H                     17.72839  -1.28168  -2.70964 
 H                     18.36707  -0.14505  -3.78472 
 H                     16.15457   2.24941  -5.09162 
 H                     16.7025   3.70177  -4.2759 
 H                     14.23751   2.13118  -4.07794 
 H                     14.39156   3.9225   -4.18856 
 H                     14.66543   3.03575  -2.62236 
 H                     18.35608   7.15479   0.08992 
 H                     18.55162   5.99707  -1.26568 
 H                     19.70401   5.92272   0.1267 
 H                     18.29044   4.68087   4.89789 
 H                     16.69804   7.24752   7.97351 
 H                     15.61855   5.72035   8.13604 
 H                     15.2919   7.10077   7.05903 
 
 ITRead=  0  0  0  0  0  0  0  0  0  0  0  0  0  0  0  0  0  0  0  0
 ITRead=  0  0  0  0  0  0  0  0  0  0  0  0  0  0  0  0  0  0  0  0
 ITRead=  0  0  0  0  0  0  0  0  0  0  0  0  0  0  0  0  0  0  0  0
 ITRead=  0  0  0  0  0  0  0  0  0  0  0  0  0  0  0  0  0  0  0  0
 ITRead=  0  0  0  0  0  0  0  0  0  0  0  0  0  0  0  0  0  0  0  0
 ITRead=  0  0  0  0  0  0  0  0  0  0  0  0  0  0  0  0  0  0  0  0
 ITRead=  0  0  0  0  0  0  0  0  0  0  0  0  0  0  0  0  0  0  0  0
 ITRead=  0  0  0  0  0  0  0  0  0  0  0  0  0  0  0  0  0  0
 MicOpt= -1 -1 -1 -1 -1 -1 -1 -1 -1 -1 -1 -1 -1 -1 -1 -1 -1 -1 -1 -1
 MicOpt= -1 -1 -1 -1 -1 -1 -1 -1 -1 -1 -1 -1 -1 -1 -1 -1 -1 -1 -1 -1
 MicOpt= -1 -1 -1 -1 -1 -1 -1 -1 -1 -1 -1 -1 -1 -1 -1 -1 -1 -1 -1 -1
 MicOpt= -1 -1 -1 -1 -1 -1 -1 -1 -1 -1 -1 -1 -1 -1 -1 -1 -1 -1 -1 -1
 MicOpt= -1 -1 -1 -1 -1 -1 -1 -1 -1 -1 -1 -1 -1 -1 -1 -1 -1 -1 -1 -1
 MicOpt= -1 -1 -1 -1 -1 -1 -1 -1 -1 -1 -1 -1 -1 -1 -1 -1 -1 -1 -1 -1
 MicOpt= -1 -1 -1 -1 -1 -1 -1 -1 -1 -1 -1 -1 -1 -1 -1 -1 -1 -1 -1 -1
 MicOpt= -1 -1 -1 -1 -1 -1 -1 -1 -1 -1 -1 -1 -1 -1 -1 -1 -1 -1
 NAtoms=    158 NQM=      158 NQMF=       0 NMMI=      0 NMMIF=      0
                NMic=       0 NMicF=      0.
                    Isotopes and Nuclear Properties:
 (Nuclear quadrupole moments (NQMom) in fm**2, nuclear magnetic moments (NMagM)
  in nuclear magnetons)

  Atom         1           2           3           4           5           6           7           8           9          10
 IAtWgt=          24          12          12          12          12          14          12          12          12          12
 AtmWgt=  23.9850450  12.0000000  12.0000000  12.0000000  12.0000000  14.0030740  12.0000000  12.0000000  12.0000000  12.0000000
 NucSpn=           0           0           0           0           0           2           0           0           0           0
 AtZEff=  -0.0000000  -0.0000000  -0.0000000  -0.0000000  -0.0000000  -0.0000000  -0.0000000  -0.0000000  -0.0000000  -0.0000000
 NQMom=    0.0000000   0.0000000   0.0000000   0.0000000   0.0000000   2.0440000   0.0000000   0.0000000   0.0000000   0.0000000
 NMagM=    0.0000000   0.0000000   0.0000000   0.0000000   0.0000000   0.4037610   0.0000000   0.0000000   0.0000000   0.0000000
 AtZNuc=  12.0000000   6.0000000   6.0000000   6.0000000   6.0000000   7.0000000   6.0000000   6.0000000   6.0000000   6.0000000

  Atom        11          12          13          14          15          16          17          18          19          20
 IAtWgt=          12          12          12           1          14          12          12          12          12          12
 AtmWgt=  12.0000000  12.0000000  12.0000000   1.0078250  14.0030740  12.0000000  12.0000000  12.0000000  12.0000000  12.0000000
 NucSpn=           0           0           0           1           2           0           0           0           0           0
 AtZEff=  -0.0000000  -0.0000000  -0.0000000  -0.0000000  -0.0000000  -0.0000000  -0.0000000  -0.0000000  -0.0000000  -0.0000000
 NQMom=    0.0000000   0.0000000   0.0000000   0.0000000   2.0440000   0.0000000   0.0000000   0.0000000   0.0000000   0.0000000
 NMagM=    0.0000000   0.0000000   0.0000000   2.7928460   0.4037610   0.0000000   0.0000000   0.0000000   0.0000000   0.0000000
 AtZNuc=   6.0000000   6.0000000   6.0000000   1.0000000   7.0000000   6.0000000   6.0000000   6.0000000   6.0000000   6.0000000

  Atom        21          22          23          24          25          26          27          28          29          30
 IAtWgt=          12          16          12          14          12          12          12          12          12          12
 AtmWgt=  12.0000000  15.9949146  12.0000000  14.0030740  12.0000000  12.0000000  12.0000000  12.0000000  12.0000000  12.0000000
 NucSpn=           0           0           0           2           0           0           0           0           0           0
 AtZEff=  -0.0000000  -0.0000000  -0.0000000  -0.0000000  -0.0000000  -0.0000000  -0.0000000  -0.0000000  -0.0000000  -0.0000000
 NQMom=    0.0000000   0.0000000   0.0000000   2.0440000   0.0000000   0.0000000   0.0000000   0.0000000   0.0000000   0.0000000
 NMagM=    0.0000000   0.0000000   0.0000000   0.4037610   0.0000000   0.0000000   0.0000000   0.0000000   0.0000000   0.0000000
 AtZNuc=   6.0000000   8.0000000   6.0000000   7.0000000   6.0000000   6.0000000   6.0000000   6.0000000   6.0000000   6.0000000

  Atom        31          32          33          34          35          36          37          38          39          40
 IAtWgt=          12          14          12          12          12          12          12          12          16          12
 AtmWgt=  12.0000000  14.0030740  12.0000000  12.0000000  12.0000000  12.0000000  12.0000000  12.0000000  15.9949146  12.0000000
 NucSpn=           0           2           0           0           0           0           0           0           0           0
 AtZEff=  -0.0000000  -0.0000000  -0.0000000  -0.0000000  -0.0000000  -0.0000000  -0.0000000  -0.0000000  -0.0000000  -0.0000000
 NQMom=    0.0000000   2.0440000   0.0000000   0.0000000   0.0000000   0.0000000   0.0000000   0.0000000   0.0000000   0.0000000
 NMagM=    0.0000000   0.4037610   0.0000000   0.0000000   0.0000000   0.0000000   0.0000000   0.0000000   0.0000000   0.0000000
 AtZNuc=   6.0000000   7.0000000   6.0000000   6.0000000   6.0000000   6.0000000   6.0000000   6.0000000   8.0000000   6.0000000

  Atom        41          42          43          44          45          46          47          48          49          50
 IAtWgt=          12          16          16          12           1           1           1           1           1           1
 AtmWgt=  12.0000000  15.9949146  15.9949146  12.0000000   1.0078250   1.0078250   1.0078250   1.0078250   1.0078250   1.0078250
 NucSpn=           0           0           0           0           1           1           1           1           1           1
 AtZEff=  -0.0000000  -0.0000000  -0.0000000  -0.0000000  -0.0000000  -0.0000000  -0.0000000  -0.0000000  -0.0000000  -0.0000000
 NQMom=    0.0000000   0.0000000   0.0000000   0.0000000   0.0000000   0.0000000   0.0000000   0.0000000   0.0000000   0.0000000
 NMagM=    0.0000000   0.0000000   0.0000000   0.0000000   2.7928460   2.7928460   2.7928460   2.7928460   2.7928460   2.7928460
 AtZNuc=   6.0000000   8.0000000   8.0000000   6.0000000   1.0000000   1.0000000   1.0000000   1.0000000   1.0000000   1.0000000

  Atom        51          52          53          54          55          56          57          58          59          60
 IAtWgt=           1           1           1           1           1           1           1           1           1           1
 AtmWgt=   1.0078250   1.0078250   1.0078250   1.0078250   1.0078250   1.0078250   1.0078250   1.0078250   1.0078250   1.0078250
 NucSpn=           1           1           1           1           1           1           1           1           1           1
 AtZEff=  -0.0000000  -0.0000000  -0.0000000  -0.0000000  -0.0000000  -0.0000000  -0.0000000  -0.0000000  -0.0000000  -0.0000000
 NQMom=    0.0000000   0.0000000   0.0000000   0.0000000   0.0000000   0.0000000   0.0000000   0.0000000   0.0000000   0.0000000
 NMagM=    2.7928460   2.7928460   2.7928460   2.7928460   2.7928460   2.7928460   2.7928460   2.7928460   2.7928460   2.7928460
 AtZNuc=   1.0000000   1.0000000   1.0000000   1.0000000   1.0000000   1.0000000   1.0000000   1.0000000   1.0000000   1.0000000

  Atom        61          62          63          64          65          66          67          68          69          70
 IAtWgt=           1           1           1           1           1           1           1           1           1           1
 AtmWgt=   1.0078250   1.0078250   1.0078250   1.0078250   1.0078250   1.0078250   1.0078250   1.0078250   1.0078250   1.0078250
 NucSpn=           1           1           1           1           1           1           1           1           1           1
 AtZEff=  -0.0000000  -0.0000000  -0.0000000  -0.0000000  -0.0000000  -0.0000000  -0.0000000  -0.0000000  -0.0000000  -0.0000000
 NQMom=    0.0000000   0.0000000   0.0000000   0.0000000   0.0000000   0.0000000   0.0000000   0.0000000   0.0000000   0.0000000
 NMagM=    2.7928460   2.7928460   2.7928460   2.7928460   2.7928460   2.7928460   2.7928460   2.7928460   2.7928460   2.7928460
 AtZNuc=   1.0000000   1.0000000   1.0000000   1.0000000   1.0000000   1.0000000   1.0000000   1.0000000   1.0000000   1.0000000

  Atom        71          72          73          74          75          76          77          78          79          80
 IAtWgt=           1           1           1           1           1           1           1           1           1          24
 AtmWgt=   1.0078250   1.0078250   1.0078250   1.0078250   1.0078250   1.0078250   1.0078250   1.0078250   1.0078250  23.9850450
 NucSpn=           1           1           1           1           1           1           1           1           1           0
 AtZEff=  -0.0000000  -0.0000000  -0.0000000  -0.0000000  -0.0000000  -0.0000000  -0.0000000  -0.0000000  -0.0000000  -0.0000000
 NQMom=    0.0000000   0.0000000   0.0000000   0.0000000   0.0000000   0.0000000   0.0000000   0.0000000   0.0000000   0.0000000
 NMagM=    2.7928460   2.7928460   2.7928460   2.7928460   2.7928460   2.7928460   2.7928460   2.7928460   2.7928460   0.0000000
 AtZNuc=   1.0000000   1.0000000   1.0000000   1.0000000   1.0000000   1.0000000   1.0000000   1.0000000   1.0000000  12.0000000

  Atom        81          82          83          84          85          86          87          88          89          90
 IAtWgt=          12          12          12          12          14          12          12          12          12          12
 AtmWgt=  12.0000000  12.0000000  12.0000000  12.0000000  14.0030740  12.0000000  12.0000000  12.0000000  12.0000000  12.0000000
 NucSpn=           0           0           0           0           2           0           0           0           0           0
 AtZEff=  -0.0000000  -0.0000000  -0.0000000  -0.0000000  -0.0000000  -0.0000000  -0.0000000  -0.0000000  -0.0000000  -0.0000000
 NQMom=    0.0000000   0.0000000   0.0000000   0.0000000   2.0440000   0.0000000   0.0000000   0.0000000   0.0000000   0.0000000
 NMagM=    0.0000000   0.0000000   0.0000000   0.0000000   0.4037610   0.0000000   0.0000000   0.0000000   0.0000000   0.0000000
 AtZNuc=   6.0000000   6.0000000   6.0000000   6.0000000   7.0000000   6.0000000   6.0000000   6.0000000   6.0000000   6.0000000

  Atom        91          92          93          94          95          96          97          98          99         100
 IAtWgt=          12          12           1          14          12          12          12          12          12          12
 AtmWgt=  12.0000000  12.0000000   1.0078250  14.0030740  12.0000000  12.0000000  12.0000000  12.0000000  12.0000000  12.0000000
 NucSpn=           0           0           1           2           0           0           0           0           0           0
 AtZEff=  -0.0000000  -0.0000000  -0.0000000  -0.0000000  -0.0000000  -0.0000000  -0.0000000  -0.0000000  -0.0000000  -0.0000000
 NQMom=    0.0000000   0.0000000   0.0000000   2.0440000   0.0000000   0.0000000   0.0000000   0.0000000   0.0000000   0.0000000
 NMagM=    0.0000000   0.0000000   2.7928460   0.4037610   0.0000000   0.0000000   0.0000000   0.0000000   0.0000000   0.0000000
 AtZNuc=   6.0000000   6.0000000   1.0000000   7.0000000   6.0000000   6.0000000   6.0000000   6.0000000   6.0000000   6.0000000

  Atom       101         102         103         104         105         106         107         108         109         110
 IAtWgt=          16          12          14          12          12          12          12          12          12          12
 AtmWgt=  15.9949146  12.0000000  14.0030740  12.0000000  12.0000000  12.0000000  12.0000000  12.0000000  12.0000000  12.0000000
 NucSpn=           0           0           2           0           0           0           0           0           0           0
 AtZEff=  -0.0000000  -0.0000000  -0.0000000  -0.0000000  -0.0000000  -0.0000000  -0.0000000  -0.0000000  -0.0000000  -0.0000000
 NQMom=    0.0000000   0.0000000   2.0440000   0.0000000   0.0000000   0.0000000   0.0000000   0.0000000   0.0000000   0.0000000
 NMagM=    0.0000000   0.0000000   0.4037610   0.0000000   0.0000000   0.0000000   0.0000000   0.0000000   0.0000000   0.0000000
 AtZNuc=   8.0000000   6.0000000   7.0000000   6.0000000   6.0000000   6.0000000   6.0000000   6.0000000   6.0000000   6.0000000

  Atom       111         112         113         114         115         116         117         118         119         120
 IAtWgt=          14          12          12          12          12          12          12          16          12          12
 AtmWgt=  14.0030740  12.0000000  12.0000000  12.0000000  12.0000000  12.0000000  12.0000000  15.9949146  12.0000000  12.0000000
 NucSpn=           2           0           0           0           0           0           0           0           0           0
 AtZEff=  -0.0000000  -0.0000000  -0.0000000  -0.0000000  -0.0000000  -0.0000000  -0.0000000  -0.0000000  -0.0000000  -0.0000000
 NQMom=    2.0440000   0.0000000   0.0000000   0.0000000   0.0000000   0.0000000   0.0000000   0.0000000   0.0000000   0.0000000
 NMagM=    0.4037610   0.0000000   0.0000000   0.0000000   0.0000000   0.0000000   0.0000000   0.0000000   0.0000000   0.0000000
 AtZNuc=   7.0000000   6.0000000   6.0000000   6.0000000   6.0000000   6.0000000   6.0000000   8.0000000   6.0000000   6.0000000

  Atom       121         122         123         124         125         126         127         128         129         130
 IAtWgt=          16          16          12           1           1           1           1           1           1           1
 AtmWgt=  15.9949146  15.9949146  12.0000000   1.0078250   1.0078250   1.0078250   1.0078250   1.0078250   1.0078250   1.0078250
 NucSpn=           0           0           0           1           1           1           1           1           1           1
 AtZEff=  -0.0000000  -0.0000000  -0.0000000  -0.0000000  -0.0000000  -0.0000000  -0.0000000  -0.0000000  -0.0000000  -0.0000000
 NQMom=    0.0000000   0.0000000   0.0000000   0.0000000   0.0000000   0.0000000   0.0000000   0.0000000   0.0000000   0.0000000
 NMagM=    0.0000000   0.0000000   0.0000000   2.7928460   2.7928460   2.7928460   2.7928460   2.7928460   2.7928460   2.7928460
 AtZNuc=   8.0000000   8.0000000   6.0000000   1.0000000   1.0000000   1.0000000   1.0000000   1.0000000   1.0000000   1.0000000

  Atom       131         132         133         134         135         136         137         138         139         140
 IAtWgt=           1           1           1           1           1           1           1           1           1           1
 AtmWgt=   1.0078250   1.0078250   1.0078250   1.0078250   1.0078250   1.0078250   1.0078250   1.0078250   1.0078250   1.0078250
 NucSpn=           1           1           1           1           1           1           1           1           1           1
 AtZEff=  -0.0000000  -0.0000000  -0.0000000  -0.0000000  -0.0000000  -0.0000000  -0.0000000  -0.0000000  -0.0000000  -0.0000000
 NQMom=    0.0000000   0.0000000   0.0000000   0.0000000   0.0000000   0.0000000   0.0000000   0.0000000   0.0000000   0.0000000
 NMagM=    2.7928460   2.7928460   2.7928460   2.7928460   2.7928460   2.7928460   2.7928460   2.7928460   2.7928460   2.7928460
 AtZNuc=   1.0000000   1.0000000   1.0000000   1.0000000   1.0000000   1.0000000   1.0000000   1.0000000   1.0000000   1.0000000

  Atom       141         142         143         144         145         146         147         148         149         150
 IAtWgt=           1           1           1           1           1           1           1           1           1           1
 AtmWgt=   1.0078250   1.0078250   1.0078250   1.0078250   1.0078250   1.0078250   1.0078250   1.0078250   1.0078250   1.0078250
 NucSpn=           1           1           1           1           1           1           1           1           1           1
 AtZEff=  -0.0000000  -0.0000000  -0.0000000  -0.0000000  -0.0000000  -0.0000000  -0.0000000  -0.0000000  -0.0000000  -0.0000000
 NQMom=    0.0000000   0.0000000   0.0000000   0.0000000   0.0000000   0.0000000   0.0000000   0.0000000   0.0000000   0.0000000
 NMagM=    2.7928460   2.7928460   2.7928460   2.7928460   2.7928460   2.7928460   2.7928460   2.7928460   2.7928460   2.7928460
 AtZNuc=   1.0000000   1.0000000   1.0000000   1.0000000   1.0000000   1.0000000   1.0000000   1.0000000   1.0000000   1.0000000

  Atom       151         152         153         154         155         156         157         158
 IAtWgt=           1           1           1           1           1           1           1           1
 AtmWgt=   1.0078250   1.0078250   1.0078250   1.0078250   1.0078250   1.0078250   1.0078250   1.0078250
 NucSpn=           1           1           1           1           1           1           1           1
 AtZEff=  -0.0000000  -0.0000000  -0.0000000  -0.0000000  -0.0000000  -0.0000000  -0.0000000  -0.0000000
 NQMom=    0.0000000   0.0000000   0.0000000   0.0000000   0.0000000   0.0000000   0.0000000   0.0000000
 NMagM=    2.7928460   2.7928460   2.7928460   2.7928460   2.7928460   2.7928460   2.7928460   2.7928460
 AtZNuc=   1.0000000   1.0000000   1.0000000   1.0000000   1.0000000   1.0000000   1.0000000   1.0000000
 Leave Link  101 at Sat Sep 11 20:21:13 2021, MaxMem= 23488102400 cpu:               3.2 elap:               0.2
 (Enter /sw/apps/gaussian-16.0/g16/l202.exe)
 Stoichiometry    C68H72Mg2N8O8
 Framework group  C1[X(C68H72Mg2N8O8)]
 Deg. of freedom   468
 Full point group                 C1      NOp   1
 Largest Abelian subgroup         C1      NOp   1
 Largest concise Abelian subgroup C1      NOp   1
                         Standard orientation:                         
 ---------------------------------------------------------------------
 Center     Atomic      Atomic             Coordinates (Angstroms)
 Number     Number       Type             X           Y           Z
 ---------------------------------------------------------------------
      1         12           0        8.015618   -0.615196    0.671098
      2          6           0        8.391578    2.225611   -1.473822
      3          6           0        8.660127    1.467970    3.295616
      4          6           0        8.138308   -3.178227    2.534548
      5          6           0        8.526994   -2.616797   -2.135635
      6          7           0        8.453087    1.552594    0.770854
      7          6           0        8.509047    2.539516   -0.117979
      8          6           0        8.628840    3.950350    0.532076
      9          6           0        9.265997    3.529368    1.931649
     10          6           0        8.733394    2.110307    2.023976
     11          6           0       10.790478    3.481879    1.917408
     12          6           0        7.234972    4.638244    0.720922
     13          6           0        7.283115    6.134747    1.042658
     14          1           0        6.246408    7.000966    0.502055
     15          7           0        7.867594   -0.780217    2.634184
     16          6           0        8.155649    0.174497    3.551153
     17          6           0        7.884496   -0.433539    4.871550
     18          6           0        7.597254   -1.878997    4.656522
     19          6           0        7.885664   -2.010914    3.251247
     20          6           0        7.866394    0.348066    6.149249
     21          6           0        7.146117   -2.970800    5.574440
     22          8           0        7.180902   -4.202835    5.234657
     23          6           0        6.740256   -2.562357    6.931456
     24          7           0        8.509594   -2.611016    0.310090
     25          6           0        8.424672   -3.529057    1.279096
     26          6           0        8.549507   -4.918334    0.727495
     27          6           0        8.494633   -4.769688   -0.861419
     28          6           0        8.425886   -3.225217   -0.951713
     29          6           0        9.818728   -5.684629    1.124837
     30          6           0        7.421660   -5.600705   -1.608787
     31          6           0        6.041581   -5.092340   -1.256588
     32          7           0        8.217833   -0.294294   -1.465997
     33          6           0        8.447210   -1.269759   -2.447081
     34          6           0        8.618874   -0.561356   -3.728785
     35          6           0        8.493097    0.786792   -3.399358
     36          6           0        8.283925    0.914018   -1.996378
     37          6           0        8.914996   -1.166219   -4.982135
     38          6           0        8.511306    2.150770   -3.902438
     39          8           0        8.555905    2.661347   -5.022624
     40          6           0        8.567906    3.143020   -2.658226
     41          6           0        7.531803    4.210819   -2.880946
     42          8           0        6.315037    3.933831   -2.869767
     43          8           0        8.118938    5.416503   -2.834685
     44          6           0        7.141254    6.522071   -3.019094
     45          1           0        9.079768    1.973769    4.167401
     46          1           0        8.079350   -4.096063    3.123222
     47          1           0        8.605575   -3.179999   -3.067344
     48          1           0        9.296634    4.636010    0.010208
     49          1           0        8.879883    4.133196    2.752642
     50          1           0       11.183986    3.620073    0.910445
     51          1           0       11.054485    2.494667    2.297152
     52          1           0       11.206948    4.197150    2.627139
     53          1           0        6.771732    4.266774    1.634968
     54          1           0        6.603824    4.477668   -0.153833
     55          1           0        8.270846    6.552973    0.846740
     56          1           0        7.145071    6.257750    2.116908
     57          1           0        8.276329    1.348016    6.012877
     58          1           0        8.562420   -0.140183    6.831063
     59          1           0        6.873194    0.378748    6.597518
     60          1           0        7.575756   -2.062257    7.421752
     61          1           0        6.364138   -3.462411    7.416521
     62          1           0        5.942955   -1.822597    6.853898
     63          1           0        7.721900   -5.545494    1.056377
     64          1           0        9.433357   -5.062546   -1.332276
     65          1           0        9.619286   -6.635750    1.619101
     66          1           0       10.421108   -5.033701    1.757864
     67          1           0       10.506782   -5.886078    0.304217
     68          1           0        7.467464   -6.644486   -1.299967
     69          1           0        7.531870   -5.570437   -2.692848
     70          1           0        5.825791   -5.603516   -0.319056
     71          1           0        5.324298   -5.373209   -2.028487
     72          1           0        6.052496   -4.022127   -1.049194
     73          1           0        8.274987   -0.676476   -5.715967
     74          1           0        8.736354   -2.240912   -4.955212
     75          1           0        9.972437   -0.921016   -5.079866
     76          1           0        9.577414    3.551875   -2.629015
     77          1           0        7.492028    7.124276   -3.857272
     78          1           0        7.041566    7.012344   -2.050539
     79          1           0        6.150168    6.235188   -3.372344
     80         12           0       -7.793367   -0.672747   -0.685563
     81          6           0       -9.442247    1.671986    1.473709
     82          6           0       -7.184617    1.932065   -2.801920
     83          6           0       -6.735685   -2.776995   -2.811802
     84          6           0       -9.495833   -3.206574    0.995817
     85          7           0       -8.297544    1.477686   -0.568581
     86          6           0       -8.871960    2.265236    0.328171
     87          6           0       -8.762343    3.781920    0.016390
     88          6           0       -8.563766    3.686685   -1.574321
     89          6           0       -7.943521    2.293629   -1.660242
     90          6           0       -9.873632    3.674643   -2.344677
     91          6           0       -7.522588    4.446905    0.711229
     92          6           0       -7.525798    5.977172    0.704682
     93          1           0       -6.976241    6.679306    1.861158
     94          7           0       -6.648188   -0.416446   -2.286014
     95          6           0       -6.501940    0.713379   -3.009463
     96          6           0       -5.567114    0.378008   -4.094731
     97          6           0       -5.301663   -1.085622   -4.049640
     98          6           0       -6.255229   -1.495427   -3.038277
     99          6           0       -4.959141    1.414574   -4.994357
    100          6           0       -4.356172   -1.971905   -4.802463
    101          8           0       -4.461302   -3.248948   -4.771551
    102          6           0       -3.361914   -1.299010   -5.651077
    103          7           0       -8.231206   -2.676742   -1.024141
    104          6           0       -7.590806   -3.372353   -1.980144
    105          6           0       -7.868261   -4.851616   -1.856879
    106          6           0       -8.637944   -5.029950   -0.466425
    107          6           0       -8.756208   -3.547213   -0.050645
    108          6           0       -8.699812   -5.468443   -2.981344
    109          6           0       -8.031690   -6.036412    0.549535
    110          6           0       -6.705612   -5.519606    1.059247
    111          7           0       -9.068680   -0.801004    1.053740
    112          6           0       -9.695849   -1.956878    1.568212
    113          6           0      -10.552323   -1.524117    2.691420
    114          6           0      -10.380424   -0.132437    2.738168
    115          6           0       -9.496059    0.275890    1.703435
    116          6           0      -11.386392   -2.370078    3.475511
    117          6           0      -10.754287    1.085295    3.420851
    118          8           0      -11.408194    1.350467    4.428736
    119          6           0      -10.262305    2.322664    2.552941
    120          6           0       -9.568646    3.289143    3.473412
    121          8           0       -8.506850    2.972752    4.038310
    122          8           0      -10.152439    4.496593    3.365598
    123          6           0       -9.492231    5.492127    4.251523
    124          1           0       -7.140776    2.630341   -3.638212
    125          1           0       -6.314841   -3.557860   -3.449469
    126          1           0       -9.982513   -3.948158    1.632901
    127          1           0       -9.650414    4.358298    0.246386
    128          1           0       -7.864115    4.438230   -1.930727
    129          1           0      -10.727542    3.612823   -1.686536
    130          1           0       -9.828384    2.805917   -2.988345
    131          1           0       -9.927288    4.540675   -3.010597
    132          1           0       -6.627920    4.258301    0.103984
    133          1           0       -7.412575    4.090087    1.716809
    134          1           0       -8.507860    6.386158    0.437782
    135          1           0       -6.865548    6.322149   -0.094736
    136          1           0       -5.468789    2.381051   -4.896395
    137          1           0       -5.163077    1.103164   -6.024556
    138          1           0       -3.879279    1.507440   -4.860430
    139          1           0       -3.872969   -0.680395   -6.384977
    140          1           0       -2.721039   -2.094148   -6.036988
    141          1           0       -2.769675   -0.621403   -5.026009
    142          1           0       -6.944910   -5.416714   -1.822422
    143          1           0       -9.664052   -5.398019   -0.612994
    144          1           0       -8.192283   -6.311092   -3.487737
    145          1           0       -8.944515   -4.689781   -3.691505
    146          1           0       -9.683630   -5.827823   -2.684428
    147          1           0       -7.825114   -6.991071    0.059540
    148          1           0       -8.681071   -6.241732    1.394007
    149          1           0       -6.003886   -5.828420    0.278672
    150          1           0       -6.458409   -5.976387    2.015425
    151          1           0       -6.697663   -4.424010    1.094993
    152          1           0      -11.254123   -2.069020    4.506231
    153          1           0      -11.136113   -3.419101    3.331685
    154          1           0      -12.365297   -2.120576    3.057474
    155          1           0      -11.142282    2.764131    2.083566
    156          1           0      -10.272113    5.918278    4.890170
    157          1           0       -8.959481    6.186873    3.575325
    158          1           0       -8.793491    5.119212    4.991220
 ---------------------------------------------------------------------
 Rotational constants (GHZ):           0.0216632           0.0055495           0.0054106
 Leave Link  202 at Sat Sep 11 20:21:13 2021, MaxMem= 23488102400 cpu:               0.2 elap:               0.0
 (Enter /sw/apps/gaussian-16.0/g16/l301.exe)
 Standard basis: def2SVP (5D, 7F)
 Ernie: Thresh=  0.10000D-02 Tol=  0.10000D-05 Strict=F.
 There are  1658 symmetry adapted cartesian basis functions of A   symmetry.
 There are  1572 symmetry adapted basis functions of A   symmetry.
  1572 basis functions,  2678 primitive gaussians,  1658 cartesian basis functions
   312 alpha electrons      312 beta electrons
       nuclear repulsion energy     13702.8882163414 Hartrees.
 IExCor=20419 DFT=T Ex+Corr=CAM-B3LYP ExCW=0 ScaHFX=  1.000000
 ScaDFX=  1.000000  1.000000  1.000000  0.810000 ScalE2=  1.000000  1.000000
 IRadAn=      5 IRanWt=     -1 IRanGd=            0 ICorTp=0 IEmpDi=  4
 HFx  wShort=  0.000000 wLong=  0.330000 cFull=  0.190000 cShort=  0.000000 cLong=  0.460000
 DFx  wShort=  0.000000 wLong=  0.330000 cFull=  0.190000 cShort=  0.000000 cLong=  0.460000
 NAtoms=  158 NActive=  158 NUniq=  158 SFac= 1.00D+00 NAtFMM=   60 NAOKFM=T Big=T
 Integral buffers will be    131072 words long.
 Raffenetti 1 integral format.
 Two-electron integral symmetry is turned on.
 Leave Link  301 at Sat Sep 11 20:21:13 2021, MaxMem= 23488102400 cpu:               1.4 elap:               0.1
 (Enter /sw/apps/gaussian-16.0/g16/l302.exe)
 NPDir=0 NMtPBC=     1 NCelOv=     1 NCel=       1 NClECP=     1 NCelD=      1
         NCelK=      1 NCelE2=     1 NClLst=     1 CellRange=     0.0.
 One-electron integrals computed using PRISM.
 One-electron integral symmetry used in STVInt
   1 Symmetry operations used in ECPInt.
 ECPInt:  NShTT=  271216 NPrTT=  987664 LenC2=  107907 LenP2D=  244895.
 LDataN:  DoStor=T MaxTD1= 4 Len=   56
 NBasis=  1572 RedAO= T EigKep=  3.36D-04  NBF=  1572
 NBsUse=  1572 1.00D-06 EigRej= -1.00D+00 NBFU=  1572
 Precomputing XC quadrature grid using
 IXCGrd= 4 IRadAn=           5 IRanWt=          -1 IRanGd=           0 AccXCQ= 0.00D+00.
 Generated NRdTot=       0 NPtTot=           0 NUsed=           0 NTot=          32
 NSgBfM=   826   826   826   826   826 MxSgAt=   158 MxSgA2=   147.
 Leave Link  302 at Sat Sep 11 20:21:18 2021, MaxMem= 23488102400 cpu:             108.2 elap:               4.5
 (Enter /sw/apps/gaussian-16.0/g16/l303.exe)
 DipDrv:  MaxL=1.
 Leave Link  303 at Sat Sep 11 20:21:18 2021, MaxMem= 23488102400 cpu:               9.2 elap:               0.4
 (Enter /sw/apps/gaussian-16.0/g16/l308.exe)
 Leave Link  308 at Sat Sep 11 20:21:19 2021, MaxMem= 23488102400 cpu:              14.1 elap:               0.7
 (Enter /sw/apps/gaussian-16.0/g16/l401.exe)
 ExpMin= 3.36D-02 ExpMax= 4.95D+03 ExpMxC= 7.45D+02 IAcc=3 IRadAn=         5 AccDes= 0.00D+00
 Harris functional with IExCor=20419 and IRadAn=       5 diagonalized for initial guess.
 HarFok:  IExCor=20419 AccDes= 0.00D+00 IRadAn=         5 IDoV= 1 UseB2=F ITyADJ=14
 ICtDFT=  3500011 ScaDFX=  1.000000  1.000000  1.000000  1.000000
 FoFCou: FMM=F IPFlag=           0 FMFlag=      100000 FMFlg1=        2001
         NFxFlg=           0 DoJE=T BraDBF=F KetDBF=T FulRan=T
         wScrn=  0.000000 ICntrl=       500 IOpCl=  0 I1Cent=   200000004 NGrid=           0
         NMat0=    1 NMatS0=      1 NMatT0=    0 NMatD0=    1 NMtDS0=    0 NMtDT0=    0
 Petite list used in FoFCou.
 Harris En= -3918.65802013567    
 JPrj=0 DoOrth=F DoCkMO=F.
 Leave Link  401 at Sat Sep 11 20:21:26 2021, MaxMem= 23488102400 cpu:             159.9 elap:               6.7
 (Enter /sw/apps/gaussian-16.0/g16/l502.exe)
 Integral symmetry usage will be decided dynamically.
 Closed shell SCF:
 Using DIIS extrapolation, IDIIS=  1040.
 NGot= 23488102400 LenX= 23482547354 LenY= 23479796732
 Requested convergence on RMS density matrix=1.00D-08 within 128 cycles.
 Requested convergence on MAX density matrix=1.00D-06.
 Requested convergence on             energy=1.00D-06.
 No special actions if energy rises.
 Fock matrices will be formed incrementally for  20 cycles.

 Cycle   1  Pass 1  IDiag  1:
 FoFJK:  IHMeth= 1 ICntrl=       0 DoSepK=T KAlg= 0 I1Cent=           0 FoldK=F
 IRaf=         1 NMat=       1 IRICut=       1 DoRegI=T DoRafI=F ISym2E= 0 IDoP0=0 IntGTp=1.
 FoFCou: FMM=T IPFlag=           0 FMFlag=      100000 FMFlg1=        2001
         NFxFlg=           0 DoJE=T BraDBF=F KetDBF=F FulRan=T
         wScrn=  0.000000 ICntrl=       500 IOpCl=  0 I1Cent=           0 NGrid=           0
         NMat0=    1 NMatS0=      1 NMatT0=    0 NMatD0=    1 NMtDS0=    0 NMtDT0=    0
 Symmetry not used in FoFCou.
 FMM levels:  10  Number of levels for PrismC:   9
 E= -4068.94963778363    
 DIIS: error= 2.04D-02 at cycle   1 NSaved=   1.
 NSaved= 1 IEnMin= 1 EnMin= -4068.94963778363     IErMin= 1 ErrMin= 2.04D-02
 ErrMax= 2.04D-02  0.00D+00 EMaxC= 1.00D-01 BMatC= 1.69D+00 BMatP= 1.69D+00
 IDIUse=3 WtCom= 7.96D-01 WtEn= 2.04D-01
 Coeff-Com:  0.100D+01
 Coeff-En:   0.100D+01
 Coeff:      0.100D+01
 Gap=     0.120 Goal=   None    Shift=    0.000
 GapD=    0.120 DampG=1.000 DampE=0.500 DampFc=0.5000 IDamp=-1.
 Damping current iteration by 5.00D-01
 RMSDP=1.57D-03 MaxDP=1.35D-01              OVMax= 2.01D-01

 Cycle   2  Pass 1  IDiag  1:
 RMSU=  7.69D-04    CP:  9.82D-01
 E= -4069.33850013524     Delta-E=       -0.388862351607 Rises=F Damp=T
 DIIS: error= 1.27D-02 at cycle   2 NSaved=   2.
 NSaved= 2 IEnMin= 2 EnMin= -4069.33850013524     IErMin= 2 ErrMin= 1.27D-02
 ErrMax= 1.27D-02  0.00D+00 EMaxC= 1.00D-01 BMatC= 3.07D-01 BMatP= 1.69D+00
 IDIUse=3 WtCom= 8.73D-01 WtEn= 1.27D-01
 Coeff-Com: -0.213D+00 0.121D+01
 Coeff-En:   0.000D+00 0.100D+01
 Coeff:     -0.186D+00 0.119D+01
 Gap=     0.136 Goal=   None    Shift=    0.000
 RMSDP=7.64D-04 MaxDP=9.42D-02 DE=-3.89D-01 OVMax= 1.88D-01

 Cycle   3  Pass 1  IDiag  1:
 RMSU=  7.32D-04    CP:  9.68D-01  1.24D+00
 E= -4069.62849340636     Delta-E=       -0.289993271119 Rises=F Damp=F
 DIIS: error= 1.57D-02 at cycle   3 NSaved=   3.
 NSaved= 3 IEnMin= 3 EnMin= -4069.62849340636     IErMin= 2 ErrMin= 1.27D-02
 ErrMax= 1.57D-02  0.00D+00 EMaxC= 1.00D-01 BMatC= 2.01D-01 BMatP= 3.07D-01
 IDIUse=3 WtCom= 8.43D-01 WtEn= 1.57D-01
 Coeff-Com: -0.267D+00 0.651D+00 0.616D+00
 Coeff-En:   0.000D+00 0.000D+00 0.100D+01
 Coeff:     -0.225D+00 0.549D+00 0.676D+00
 Gap=     0.124 Goal=   None    Shift=    0.000
 RMSDP=5.07D-04 MaxDP=4.85D-02 DE=-2.90D-01 OVMax= 1.41D-01

 Cycle   4  Pass 1  IDiag  1:
 RMSU=  2.65D-04    CP:  9.65D-01  1.55D+00  5.07D-01
 E= -4069.76566265902     Delta-E=       -0.137169252663 Rises=F Damp=F
 DIIS: error= 7.26D-03 at cycle   4 NSaved=   4.
 NSaved= 4 IEnMin= 4 EnMin= -4069.76566265902     IErMin= 4 ErrMin= 7.26D-03
 ErrMax= 7.26D-03  0.00D+00 EMaxC= 1.00D-01 BMatC= 5.00D-02 BMatP= 2.01D-01
 IDIUse=3 WtCom= 9.27D-01 WtEn= 7.26D-02
 Coeff-Com: -0.109D+00 0.226D+00 0.408D+00 0.475D+00
 Coeff-En:   0.000D+00 0.000D+00 0.219D+00 0.781D+00
 Coeff:     -0.101D+00 0.209D+00 0.395D+00 0.497D+00
 Gap=     0.123 Goal=   None    Shift=    0.000
 RMSDP=1.99D-04 MaxDP=2.08D-02 DE=-1.37D-01 OVMax= 6.07D-02

 Cycle   5  Pass 1  IDiag  1:
 RMSU=  7.52D-05    CP:  9.64D-01  1.49D+00  6.89D-01  5.51D-01
 E= -4069.81076352088     Delta-E=       -0.045100861855 Rises=F Damp=F
 DIIS: error= 7.88D-04 at cycle   5 NSaved=   5.
 NSaved= 5 IEnMin= 5 EnMin= -4069.81076352088     IErMin= 5 ErrMin= 7.88D-04
 ErrMax= 7.88D-04  0.00D+00 EMaxC= 1.00D-01 BMatC= 1.13D-03 BMatP= 5.00D-02
 IDIUse=3 WtCom= 9.92D-01 WtEn= 7.88D-03
 Coeff-Com: -0.354D-01 0.694D-01 0.163D+00 0.248D+00 0.555D+00
 Coeff-En:   0.000D+00 0.000D+00 0.000D+00 0.000D+00 0.100D+01
 Coeff:     -0.351D-01 0.688D-01 0.162D+00 0.246D+00 0.558D+00
 Gap=     0.122 Goal=   None    Shift=    0.000
 RMSDP=3.99D-05 MaxDP=4.16D-03 DE=-4.51D-02 OVMax= 1.58D-02

 Cycle   6  Pass 1  IDiag  1:
 RMSU=  2.97D-05    CP:  9.64D-01  1.49D+00  6.82D-01  6.22D-01  7.65D-01
 E= -4069.81173633416     Delta-E=       -0.000972813286 Rises=F Damp=F
 DIIS: error= 2.25D-04 at cycle   6 NSaved=   6.
 NSaved= 6 IEnMin= 6 EnMin= -4069.81173633416     IErMin= 6 ErrMin= 2.25D-04
 ErrMax= 2.25D-04  0.00D+00 EMaxC= 1.00D-01 BMatC= 1.70D-04 BMatP= 1.13D-03
 IDIUse=3 WtCom= 9.98D-01 WtEn= 2.25D-03
 Coeff-Com:  0.242D-02-0.698D-02 0.102D-01 0.388D-01 0.306D+00 0.649D+00
 Coeff-En:   0.000D+00 0.000D+00 0.000D+00 0.000D+00 0.991D-01 0.901D+00
 Coeff:      0.241D-02-0.696D-02 0.102D-01 0.387D-01 0.306D+00 0.650D+00
 Gap=     0.123 Goal=   None    Shift=    0.000
 RMSDP=1.54D-05 MaxDP=1.25D-03 DE=-9.73D-04 OVMax= 7.15D-03

 Cycle   7  Pass 1  IDiag  1:
 RMSU=  1.05D-05    CP:  9.64D-01  1.50D+00  6.87D-01  6.22D-01  8.64D-01
                    CP:  7.55D-01
 E= -4069.81191834662     Delta-E=       -0.000182012453 Rises=F Damp=F
 DIIS: error= 7.98D-05 at cycle   7 NSaved=   7.
 NSaved= 7 IEnMin= 7 EnMin= -4069.81191834662     IErMin= 7 ErrMin= 7.98D-05
 ErrMax= 7.98D-05  0.00D+00 EMaxC= 1.00D-01 BMatC= 1.94D-05 BMatP= 1.70D-04
 IDIUse=1 WtCom= 1.00D+00 WtEn= 0.00D+00
 Coeff-Com:  0.442D-02-0.966D-02-0.908D-02-0.420D-02 0.997D-01 0.325D+00
 Coeff-Com:  0.593D+00
 Coeff:      0.442D-02-0.966D-02-0.908D-02-0.420D-02 0.997D-01 0.325D+00
 Coeff:      0.593D+00
 Gap=     0.123 Goal=   None    Shift=    0.000
 RMSDP=6.34D-06 MaxDP=1.11D-03 DE=-1.82D-04 OVMax= 3.36D-03

 Cycle   8  Pass 1  IDiag  1:
 RMSU=  4.58D-06    CP:  9.64D-01  1.50D+00  6.88D-01  6.27D-01  8.69D-01
                    CP:  8.79D-01  8.30D-01
 E= -4069.81194241255     Delta-E=       -0.000024065932 Rises=F Damp=F
 DIIS: error= 5.07D-05 at cycle   8 NSaved=   8.
 NSaved= 8 IEnMin= 8 EnMin= -4069.81194241255     IErMin= 8 ErrMin= 5.07D-05
 ErrMax= 5.07D-05  0.00D+00 EMaxC= 1.00D-01 BMatC= 4.66D-06 BMatP= 1.94D-05
 IDIUse=1 WtCom= 1.00D+00 WtEn= 0.00D+00
 Coeff-Com:  0.212D-02-0.420D-02-0.768D-02-0.121D-01-0.125D-01 0.333D-01
 Coeff-Com:  0.349D+00 0.652D+00
 Coeff:      0.212D-02-0.420D-02-0.768D-02-0.121D-01-0.125D-01 0.333D-01
 Coeff:      0.349D+00 0.652D+00
 Gap=     0.123 Goal=   None    Shift=    0.000
 RMSDP=3.22D-06 MaxDP=3.64D-04 DE=-2.41D-05 OVMax= 1.20D-03

 Cycle   9  Pass 1  IDiag  1:
 RMSU=  1.88D-06    CP:  9.64D-01  1.50D+00  6.88D-01  6.28D-01  8.86D-01
                    CP:  9.05D-01  1.03D+00  9.32D-01
 E= -4069.81194980398     Delta-E=       -0.000007391431 Rises=F Damp=F
 DIIS: error= 1.96D-05 at cycle   9 NSaved=   9.
 NSaved= 9 IEnMin= 9 EnMin= -4069.81194980398     IErMin= 9 ErrMin= 1.96D-05
 ErrMax= 1.96D-05  0.00D+00 EMaxC= 1.00D-01 BMatC= 6.61D-07 BMatP= 4.66D-06
 IDIUse=1 WtCom= 1.00D+00 WtEn= 0.00D+00
 Coeff-Com:  0.458D-03-0.761D-03-0.263D-02-0.592D-02-0.214D-01-0.374D-01
 Coeff-Com:  0.106D+00 0.326D+00 0.636D+00
 Coeff:      0.458D-03-0.761D-03-0.263D-02-0.592D-02-0.214D-01-0.374D-01
 Coeff:      0.106D+00 0.326D+00 0.636D+00
 Gap=     0.123 Goal=   None    Shift=    0.000
 RMSDP=1.38D-06 MaxDP=1.51D-04 DE=-7.39D-06 OVMax= 7.46D-04

 Cycle  10  Pass 1  IDiag  1:
 RMSU=  9.20D-07    CP:  9.64D-01  1.50D+00  6.88D-01  6.28D-01  8.89D-01
                    CP:  9.18D-01  1.07D+00  1.10D+00  1.04D+00
 E= -4069.81195130900     Delta-E=       -0.000001505021 Rises=F Damp=F
 DIIS: error= 1.08D-05 at cycle  10 NSaved=  10.
 NSaved=10 IEnMin=10 EnMin= -4069.81195130900     IErMin=10 ErrMin= 1.08D-05
 ErrMax= 1.08D-05  0.00D+00 EMaxC= 1.00D-01 BMatC= 1.64D-07 BMatP= 6.61D-07
 IDIUse=1 WtCom= 1.00D+00 WtEn= 0.00D+00
 Coeff-Com: -0.419D-03 0.877D-03 0.121D-02 0.110D-02-0.389D-02-0.304D-01
 Coeff-Com: -0.470D-01-0.738D-01 0.259D+00 0.893D+00
 Coeff:     -0.419D-03 0.877D-03 0.121D-02 0.110D-02-0.389D-02-0.304D-01
 Coeff:     -0.470D-01-0.738D-01 0.259D+00 0.893D+00
 Gap=     0.123 Goal=   None    Shift=    0.000
 RMSDP=1.18D-06 MaxDP=1.27D-04 DE=-1.51D-06 OVMax= 5.92D-04

 Cycle  11  Pass 1  IDiag  1:
 RMSU=  5.00D-07    CP:  9.64D-01  1.50D+00  6.88D-01  6.29D-01  8.91D-01
                    CP:  9.28D-01  1.12D+00  1.20D+00  1.37D+00  1.36D+00
 E= -4069.81195204710     Delta-E=       -0.000000738106 Rises=F Damp=F
 DIIS: error= 3.89D-06 at cycle  11 NSaved=  11.
 NSaved=11 IEnMin=11 EnMin= -4069.81195204710     IErMin=11 ErrMin= 3.89D-06
 ErrMax= 3.89D-06  0.00D+00 EMaxC= 1.00D-01 BMatC= 5.64D-08 BMatP= 1.64D-07
 IDIUse=1 WtCom= 1.00D+00 WtEn= 0.00D+00
 Coeff-Com: -0.318D-03 0.619D-03 0.129D-02 0.207D-02 0.426D-02-0.823D-02
 Coeff-Com: -0.440D-01-0.130D+00-0.179D-01 0.458D+00 0.734D+00
 Coeff:     -0.318D-03 0.619D-03 0.129D-02 0.207D-02 0.426D-02-0.823D-02
 Coeff:     -0.440D-01-0.130D+00-0.179D-01 0.458D+00 0.734D+00
 Gap=     0.123 Goal=   None    Shift=    0.000
 RMSDP=6.58D-07 MaxDP=5.43D-05 DE=-7.38D-07 OVMax= 3.43D-04

 Cycle  12  Pass 1  IDiag  1:
 RMSU=  2.56D-07    CP:  9.64D-01  1.50D+00  6.88D-01  6.29D-01  8.92D-01
                    CP:  9.31D-01  1.14D+00  1.27D+00  1.54D+00  1.74D+00
                    CP:  1.20D+00
 E= -4069.81195228946     Delta-E=       -0.000000242351 Rises=F Damp=F
 DIIS: error= 2.37D-06 at cycle  12 NSaved=  12.
 NSaved=12 IEnMin=12 EnMin= -4069.81195228946     IErMin=12 ErrMin= 2.37D-06
 ErrMax= 2.37D-06  0.00D+00 EMaxC= 1.00D-01 BMatC= 1.35D-08 BMatP= 5.64D-08
 IDIUse=1 WtCom= 1.00D+00 WtEn= 0.00D+00
 Coeff-Com:  0.133D-05-0.185D-04 0.168D-03 0.489D-03 0.317D-02 0.398D-02
 Coeff-Com:  0.269D-02-0.339D-01-0.657D-01-0.777D-01 0.249D+00 0.918D+00
 Coeff:      0.133D-05-0.185D-04 0.168D-03 0.489D-03 0.317D-02 0.398D-02
 Coeff:      0.269D-02-0.339D-01-0.657D-01-0.777D-01 0.249D+00 0.918D+00
 Gap=     0.123 Goal=   None    Shift=    0.000
 RMSDP=4.20D-07 MaxDP=3.09D-05 DE=-2.42D-07 OVMax= 2.35D-04

 Cycle  13  Pass 1  IDiag  1:
 RMSU=  1.61D-07    CP:  9.64D-01  1.50D+00  6.88D-01  6.29D-01  8.92D-01
                    CP:  9.31D-01  1.15D+00  1.29D+00  1.64D+00  1.96D+00
                    CP:  1.61D+00  1.28D+00
 E= -4069.81195237456     Delta-E=       -0.000000085103 Rises=F Damp=F
 DIIS: error= 1.26D-06 at cycle  13 NSaved=  13.
 NSaved=13 IEnMin=13 EnMin= -4069.81195237456     IErMin=13 ErrMin= 1.26D-06
 ErrMax= 1.26D-06  0.00D+00 EMaxC= 1.00D-01 BMatC= 7.59D-09 BMatP= 1.35D-08
 IDIUse=1 WtCom= 1.00D+00 WtEn= 0.00D+00
 Coeff-Com:  0.117D-03-0.240D-03-0.362D-03-0.447D-03 0.549D-03 0.506D-02
 Coeff-Com:  0.197D-01 0.222D-01-0.351D-01-0.239D+00-0.152D+00 0.603D+00
 Coeff-Com:  0.777D+00
 Coeff:      0.117D-03-0.240D-03-0.362D-03-0.447D-03 0.549D-03 0.506D-02
 Coeff:      0.197D-01 0.222D-01-0.351D-01-0.239D+00-0.152D+00 0.603D+00
 Coeff:      0.777D+00
 Gap=     0.123 Goal=   None    Shift=    0.000
 RMSDP=3.23D-07 MaxDP=1.84D-05 DE=-8.51D-08 OVMax= 1.78D-04

 Cycle  14  Pass 1  IDiag  1:
 RMSU=  7.49D-08    CP:  9.64D-01  1.50D+00  6.88D-01  6.29D-01  8.92D-01
                    CP:  9.31D-01  1.16D+00  1.32D+00  1.71D+00  2.15D+00
                    CP:  1.86D+00  1.79D+00  1.08D+00
 E= -4069.81195240772     Delta-E=       -0.000000033157 Rises=F Damp=F
 DIIS: error= 6.78D-07 at cycle  14 NSaved=  14.
 NSaved=14 IEnMin=14 EnMin= -4069.81195240772     IErMin=14 ErrMin= 6.78D-07
 ErrMax= 6.78D-07  0.00D+00 EMaxC= 1.00D-01 BMatC= 1.17D-09 BMatP= 7.59D-09
 IDIUse=1 WtCom= 1.00D+00 WtEn= 0.00D+00
 Coeff-Com:  0.652D-04-0.129D-03-0.241D-03-0.378D-03-0.479D-03 0.133D-02
 Coeff-Com:  0.108D-01 0.189D-01 0.256D-02-0.990D-01-0.141D+00 0.977D-01
 Coeff-Com:  0.401D+00 0.709D+00
 Coeff:      0.652D-04-0.129D-03-0.241D-03-0.378D-03-0.479D-03 0.133D-02
 Coeff:      0.108D-01 0.189D-01 0.256D-02-0.990D-01-0.141D+00 0.977D-01
 Coeff:      0.401D+00 0.709D+00
 Gap=     0.123 Goal=   None    Shift=    0.000
 RMSDP=9.83D-08 MaxDP=6.38D-06 DE=-3.32D-08 OVMax= 5.73D-05

 Cycle  15  Pass 1  IDiag  1:
 RMSU=  3.77D-08    CP:  9.64D-01  1.50D+00  6.88D-01  6.29D-01  8.92D-01
                    CP:  9.31D-01  1.16D+00  1.32D+00  1.73D+00  2.19D+00
                    CP:  1.97D+00  1.92D+00  1.32D+00  1.02D+00
 E= -4069.81195241156     Delta-E=       -0.000000003849 Rises=F Damp=F
 DIIS: error= 4.04D-07 at cycle  15 NSaved=  15.
 NSaved=15 IEnMin=15 EnMin= -4069.81195241156     IErMin=15 ErrMin= 4.04D-07
 ErrMax= 4.04D-07  0.00D+00 EMaxC= 1.00D-01 BMatC= 2.30D-10 BMatP= 1.17D-09
 IDIUse=1 WtCom= 1.00D+00 WtEn= 0.00D+00
 Coeff-Com:  0.622D-05-0.106D-04-0.355D-04-0.857D-04-0.309D-03-0.475D-03
 Coeff-Com:  0.129D-02 0.289D-02 0.860D-02 0.502D-03-0.335D-01-0.717D-01
 Coeff-Com:  0.308D-01 0.314D+00 0.748D+00
 Coeff:      0.622D-05-0.106D-04-0.355D-04-0.857D-04-0.309D-03-0.475D-03
 Coeff:      0.129D-02 0.289D-02 0.860D-02 0.502D-03-0.335D-01-0.717D-01
 Coeff:      0.308D-01 0.314D+00 0.748D+00
 Gap=     0.123 Goal=   None    Shift=    0.000
 RMSDP=4.04D-08 MaxDP=2.56D-06 DE=-3.85D-09 OVMax= 2.32D-05

 Cycle  16  Pass 1  IDiag  1:
 RMSU=  1.84D-08    CP:  9.64D-01  1.50D+00  6.88D-01  6.29D-01  8.92D-01
                    CP:  9.31D-01  1.16D+00  1.32D+00  1.73D+00  2.21D+00
                    CP:  1.99D+00  1.99D+00  1.39D+00  1.24D+00  1.14D+00
 E= -4069.81195241220     Delta-E=       -0.000000000640 Rises=F Damp=F
 DIIS: error= 2.20D-07 at cycle  16 NSaved=  16.
 NSaved=16 IEnMin=16 EnMin= -4069.81195241220     IErMin=16 ErrMin= 2.20D-07
 ErrMax= 2.20D-07  0.00D+00 EMaxC= 1.00D-01 BMatC= 7.65D-11 BMatP= 2.30D-10
 IDIUse=1 WtCom= 1.00D+00 WtEn= 0.00D+00
 Coeff-Com: -0.137D-04 0.278D-04 0.453D-04 0.513D-04-0.310D-04-0.627D-03
 Coeff-Com: -0.197D-02-0.409D-02 0.473D-02 0.252D-01 0.195D-01-0.647D-01
 Coeff-Com: -0.841D-01-0.253D-01 0.388D+00 0.743D+00
 Coeff:     -0.137D-04 0.278D-04 0.453D-04 0.513D-04-0.310D-04-0.627D-03
 Coeff:     -0.197D-02-0.409D-02 0.473D-02 0.252D-01 0.195D-01-0.647D-01
 Coeff:     -0.841D-01-0.253D-01 0.388D+00 0.743D+00
 Gap=     0.123 Goal=   None    Shift=    0.000
 RMSDP=2.25D-08 MaxDP=1.31D-06 DE=-6.40D-10 OVMax= 1.53D-05

 Cycle  17  Pass 1  IDiag  1:
 RMSU=  1.08D-08    CP:  9.64D-01  1.50D+00  6.88D-01  6.29D-01  8.92D-01
                    CP:  9.31D-01  1.16D+00  1.32D+00  1.74D+00  2.21D+00
                    CP:  2.01D+00  2.01D+00  1.44D+00  1.33D+00  1.43D+00
                    CP:  1.23D+00
 E= -4069.81195241252     Delta-E=       -0.000000000313 Rises=F Damp=F
 DIIS: error= 1.19D-07 at cycle  17 NSaved=  17.
 NSaved=17 IEnMin=17 EnMin= -4069.81195241252     IErMin=17 ErrMin= 1.19D-07
 ErrMax= 1.19D-07  0.00D+00 EMaxC= 1.00D-01 BMatC= 1.99D-11 BMatP= 7.65D-11
 IDIUse=1 WtCom= 1.00D+00 WtEn= 0.00D+00
 Coeff-Com: -0.798D-05 0.156D-04 0.310D-04 0.454D-04 0.800D-04-0.163D-03
 Coeff-Com: -0.112D-02-0.300D-02 0.500D-03 0.109D-01 0.186D-01-0.112D-01
 Coeff-Com: -0.438D-01-0.101D+00-0.226D-01 0.343D+00 0.810D+00
 Coeff:     -0.798D-05 0.156D-04 0.310D-04 0.454D-04 0.800D-04-0.163D-03
 Coeff:     -0.112D-02-0.300D-02 0.500D-03 0.109D-01 0.186D-01-0.112D-01
 Coeff:     -0.438D-01-0.101D+00-0.226D-01 0.343D+00 0.810D+00
 Gap=     0.123 Goal=   None    Shift=    0.000
 RMSDP=1.37D-08 MaxDP=8.80D-07 DE=-3.13D-10 OVMax= 7.99D-06

 Cycle  18  Pass 1  IDiag  1:
 RMSU=  5.21D-09    CP:  9.64D-01  1.50D+00  6.88D-01  6.29D-01  8.92D-01
                    CP:  9.31D-01  1.16D+00  1.32D+00  1.74D+00  2.21D+00
                    CP:  2.01D+00  2.02D+00  1.46D+00  1.40D+00  1.60D+00
                    CP:  1.63D+00  1.33D+00
 E= -4069.81195241278     Delta-E=       -0.000000000262 Rises=F Damp=F
 DIIS: error= 6.06D-08 at cycle  18 NSaved=  18.
 NSaved=18 IEnMin=18 EnMin= -4069.81195241278     IErMin=18 ErrMin= 6.06D-08
 ErrMax= 6.06D-08  0.00D+00 EMaxC= 1.00D-01 BMatC= 6.84D-12 BMatP= 1.99D-11
 IDIUse=1 WtCom= 1.00D+00 WtEn= 0.00D+00
 Coeff-Com:  0.887D-06-0.211D-05-0.278D-06 0.411D-05 0.643D-04 0.148D-03
 Coeff-Com:  0.234D-03-0.192D-03-0.115D-02-0.437D-02 0.238D-02 0.180D-01
 Coeff-Com:  0.119D-01-0.421D-01-0.152D+00-0.113D+00 0.376D+00 0.903D+00
 Coeff:      0.887D-06-0.211D-05-0.278D-06 0.411D-05 0.643D-04 0.148D-03
 Coeff:      0.234D-03-0.192D-03-0.115D-02-0.437D-02 0.238D-02 0.180D-01
 Coeff:      0.119D-01-0.421D-01-0.152D+00-0.113D+00 0.376D+00 0.903D+00
 Gap=     0.123 Goal=   None    Shift=    0.000
 RMSDP=1.05D-08 MaxDP=8.44D-07 DE=-2.62D-10 OVMax= 7.32D-06

 Cycle  19  Pass 1  IDiag  1:
 RMSU=  3.23D-09    CP:  9.64D-01  1.50D+00  6.88D-01  6.29D-01  8.92D-01
                    CP:  9.31D-01  1.16D+00  1.32D+00  1.74D+00  2.21D+00
                    CP:  2.02D+00  2.02D+00  1.47D+00  1.44D+00  1.74D+00
                    CP:  1.92D+00  1.84D+00  1.20D+00
 E= -4069.81195241272     Delta-E=        0.000000000058 Rises=F Damp=F
 DIIS: error= 3.72D-08 at cycle  19 NSaved=  19.
 NSaved=19 IEnMin=18 EnMin= -4069.81195241278     IErMin=19 ErrMin= 3.72D-08
 ErrMax= 3.72D-08  0.00D+00 EMaxC= 1.00D-01 BMatC= 2.86D-12 BMatP= 6.84D-12
 IDIUse=1 WtCom= 1.00D+00 WtEn= 0.00D+00
 Coeff-Com:  0.330D-05-0.669D-05-0.109D-04-0.131D-04 0.188D-04 0.152D-03
 Coeff-Com:  0.559D-03 0.874D-03-0.863D-03-0.705D-02-0.500D-02 0.157D-01
 Coeff-Com:  0.238D-01 0.657D-02-0.967D-01-0.206D+00-0.417D-01 0.599D+00
 Coeff-Com:  0.711D+00
 Coeff:      0.330D-05-0.669D-05-0.109D-04-0.131D-04 0.188D-04 0.152D-03
 Coeff:      0.559D-03 0.874D-03-0.863D-03-0.705D-02-0.500D-02 0.157D-01
 Coeff:      0.238D-01 0.657D-02-0.967D-01-0.206D+00-0.417D-01 0.599D+00
 Coeff:      0.711D+00
 Gap=     0.123 Goal=   None    Shift=    0.000
 RMSDP=6.48D-09 MaxDP=3.76D-07 DE= 5.82D-11 OVMax= 3.63D-06

 SCF Done:  E(RCAM-B3LYP) =  -4069.81195241     A.U. after   19 cycles
            NFock= 19  Conv=0.65D-08     -V/T= 2.0102
 KE= 4.028801933542D+03 PE=-3.688687326997D+04 EE= 1.508537116768D+04
 Leave Link  502 at Sat Sep 11 20:30:00 2021, MaxMem= 23488102400 cpu:           11761.3 elap:             514.1
 (Enter /sw/apps/gaussian-16.0/g16/l801.exe)
 DoSCS=F DFT=T ScalE2(SS,OS)=  1.000000  1.000000
 ExpMin= 3.36D-02 ExpMax= 4.95D+03 ExpMxC= 7.45D+02 IAcc=3 IRadAn=         5 AccDes= 0.00D+00
 HarFok:  IExCor=  205 AccDes= 0.00D+00 IRadAn=         5 IDoV=-2 UseB2=F ITyADJ=14
 ICtDFT= 12500011 ScaDFX=  1.000000  1.000000  1.000000  1.000000
 GSVD:  LWork=       -9588 too small for GESVD, short by       45590 words or       45590 for optimal perf.
 Largest valence mixing into a core orbital is  2.03D-04
 Largest core mixing into a valence orbital is  5.24D-05
 Range of M.O.s used for correlation:    95  1572
 NBasis=  1572 NAE=   312 NBE=   312 NFC=    94 NFV=     0
 NROrb=   1478 NOA=   218 NOB=   218 NVA=  1260 NVB=  1260
 Leave Link  801 at Sat Sep 11 20:30:00 2021, MaxMem= 23488102400 cpu:               9.6 elap:               0.4
 (Enter /sw/apps/gaussian-16.0/g16/l914.exe)
 RHF ground state
 Two-electron integrals replicated using symmetry.
 MDV= 23488102400 DFT=T DoStab=F Mixed=T DoRPA=T DoScal=F NonHer=T
 Making orbital integer symmetry assigments:
 Orbital symmetries:
       Occupied  (A) (A) (A) (A) (A) (A) (A) (A) (A) (A) (A) (A)
                 (A) (A) (A) (A) (A) (A) (A) (A) (A) (A) (A) (A)
                 (A) (A) (A) (A) (A) (A) (A) (A) (A) (A) (A) (A)
                 (A) (A) (A) (A) (A) (A) (A) (A) (A) (A) (A) (A)
                 (A) (A) (A) (A) (A) (A) (A) (A) (A) (A) (A) (A)
                 (A) (A) (A) (A) (A) (A) (A) (A) (A) (A) (A) (A)
                 (A) (A) (A) (A) (A) (A) (A) (A) (A) (A) (A) (A)
                 (A) (A) (A) (A) (A) (A) (A) (A) (A) (A) (A) (A)
                 (A) (A) (A) (A) (A) (A) (A) (A) (A) (A) (A) (A)
                 (A) (A) (A) (A) (A) (A) (A) (A) (A) (A) (A) (A)
                 (A) (A) (A) (A) (A) (A) (A) (A) (A) (A) (A) (A)
                 (A) (A) (A) (A) (A) (A) (A) (A) (A) (A) (A) (A)
                 (A) (A) (A) (A) (A) (A) (A) (A) (A) (A) (A) (A)
                 (A) (A) (A) (A) (A) (A) (A) (A) (A) (A) (A) (A)
                 (A) (A) (A) (A) (A) (A) (A) (A) (A) (A) (A) (A)
                 (A) (A) (A) (A) (A) (A) (A) (A) (A) (A) (A) (A)
                 (A) (A) (A) (A) (A) (A) (A) (A) (A) (A) (A) (A)
                 (A) (A) (A) (A) (A) (A) (A) (A) (A) (A) (A) (A)
                 (A) (A) (A) (A) (A) (A) (A) (A) (A) (A) (A) (A)
                 (A) (A) (A) (A) (A) (A) (A) (A) (A) (A) (A) (A)
                 (A) (A) (A) (A) (A) (A) (A) (A) (A) (A) (A) (A)
                 (A) (A) (A) (A) (A) (A) (A) (A) (A) (A) (A) (A)
                 (A) (A) (A) (A) (A) (A) (A) (A) (A) (A) (A) (A)
                 (A) (A) (A) (A) (A) (A) (A) (A) (A) (A) (A) (A)
                 (A) (A) (A) (A) (A) (A) (A) (A) (A) (A) (A) (A)
                 (A) (A) (A) (A) (A) (A) (A) (A) (A) (A) (A) (A)
       Virtual   (A) (A) (A) (A) (A) (A) (A) (A) (A) (A) (A) (A)
                 (A) (A) (A) (A) (A) (A) (A) (A) (A) (A) (A) (A)
                 (A) (A) (A) (A) (A) (A) (A) (A) (A) (A) (A) (A)
                 (A) (A) (A) (A) (A) (A) (A) (A) (A) (A) (A) (A)
                 (A) (A) (A) (A) (A) (A) (A) (A) (A) (A) (A) (A)
                 (A) (A) (A) (A) (A) (A) (A) (A) (A) (A) (A) (A)
                 (A) (A) (A) (A) (A) (A) (A) (A) (A) (A) (A) (A)
                 (A) (A) (A) (A) (A) (A) (A) (A) (A) (A) (A) (A)
                 (A) (A) (A) (A) (A) (A) (A) (A) (A) (A) (A) (A)
                 (A) (A) (A) (A) (A) (A) (A) (A) (A) (A) (A) (A)
                 (A) (A) (A) (A) (A) (A) (A) (A) (A) (A) (A) (A)
                 (A) (A) (A) (A) (A) (A) (A) (A) (A) (A) (A) (A)
                 (A) (A) (A) (A) (A) (A) (A) (A) (A) (A) (A) (A)
                 (A) (A) (A) (A) (A) (A) (A) (A) (A) (A) (A) (A)
                 (A) (A) (A) (A) (A) (A) (A) (A) (A) (A) (A) (A)
                 (A) (A) (A) (A) (A) (A) (A) (A) (A) (A) (A) (A)
                 (A) (A) (A) (A) (A) (A) (A) (A) (A) (A) (A) (A)
                 (A) (A) (A) (A) (A) (A) (A) (A) (A) (A) (A) (A)
                 (A) (A) (A) (A) (A) (A) (A) (A) (A) (A) (A) (A)
                 (A) (A) (A) (A) (A) (A) (A) (A) (A) (A) (A) (A)
                 (A) (A) (A) (A) (A) (A) (A) (A) (A) (A) (A) (A)
                 (A) (A) (A) (A) (A) (A) (A) (A) (A) (A) (A) (A)
                 (A) (A) (A) (A) (A) (A) (A) (A) (A) (A) (A) (A)
                 (A) (A) (A) (A) (A) (A) (A) (A) (A) (A) (A) (A)
                 (A) (A) (A) (A) (A) (A) (A) (A) (A) (A) (A) (A)
                 (A) (A) (A) (A) (A) (A) (A) (A) (A) (A) (A) (A)
                 (A) (A) (A) (A) (A) (A) (A) (A) (A) (A) (A) (A)
                 (A) (A) (A) (A) (A) (A) (A) (A) (A) (A) (A) (A)
                 (A) (A) (A) (A) (A) (A) (A) (A) (A) (A) (A) (A)
                 (A) (A) (A) (A) (A) (A) (A) (A) (A) (A) (A) (A)
                 (A) (A) (A) (A) (A) (A) (A) (A) (A) (A) (A) (A)
                 (A) (A) (A) (A) (A) (A) (A) (A) (A) (A) (A) (A)
                 (A) (A) (A) (A) (A) (A) (A) (A) (A) (A) (A) (A)
                 (A) (A) (A) (A) (A) (A) (A) (A) (A) (A) (A) (A)
                 (A) (A) (A) (A) (A) (A) (A) (A) (A) (A) (A) (A)
                 (A) (A) (A) (A) (A) (A) (A) (A) (A) (A) (A) (A)
                 (A) (A) (A) (A) (A) (A) (A) (A) (A) (A) (A) (A)
                 (A) (A) (A) (A) (A) (A) (A) (A) (A) (A) (A) (A)
                 (A) (A) (A) (A) (A) (A) (A) (A) (A) (A) (A) (A)
                 (A) (A) (A) (A) (A) (A) (A) (A) (A) (A) (A) (A)
                 (A) (A) (A) (A) (A) (A) (A) (A) (A) (A) (A) (A)
                 (A) (A) (A) (A) (A) (A) (A) (A) (A) (A) (A) (A)
                 (A) (A) (A) (A) (A) (A) (A) (A) (A) (A) (A) (A)
                 (A) (A) (A) (A) (A) (A) (A) (A) (A) (A) (A) (A)
                 (A) (A) (A) (A) (A) (A) (A) (A) (A) (A) (A) (A)
                 (A) (A) (A) (A) (A) (A) (A) (A) (A) (A) (A) (A)
                 (A) (A) (A) (A) (A) (A) (A) (A) (A) (A) (A) (A)
                 (A) (A) (A) (A) (A) (A) (A) (A) (A) (A) (A) (A)
                 (A) (A) (A) (A) (A) (A) (A) (A) (A) (A) (A) (A)
                 (A) (A) (A) (A) (A) (A) (A) (A) (A) (A) (A) (A)
                 (A) (A) (A) (A) (A) (A) (A) (A) (A) (A) (A) (A)
                 (A) (A) (A) (A) (A) (A) (A) (A) (A) (A) (A) (A)
                 (A) (A) (A) (A) (A) (A) (A) (A) (A) (A) (A) (A)
                 (A) (A) (A) (A) (A) (A) (A) (A) (A) (A) (A) (A)
                 (A) (A) (A) (A) (A) (A) (A) (A) (A) (A) (A) (A)
                 (A) (A) (A) (A) (A) (A) (A) (A) (A) (A) (A) (A)
                 (A) (A) (A) (A) (A) (A) (A) (A) (A) (A) (A) (A)
                 (A) (A) (A) (A) (A) (A) (A) (A) (A) (A) (A) (A)
                 (A) (A) (A) (A) (A) (A) (A) (A) (A) (A) (A) (A)
                 (A) (A) (A) (A) (A) (A) (A) (A) (A) (A) (A) (A)
                 (A) (A) (A) (A) (A) (A) (A) (A) (A) (A) (A) (A)
                 (A) (A) (A) (A) (A) (A) (A) (A) (A) (A) (A) (A)
                 (A) (A) (A) (A) (A) (A) (A) (A) (A) (A) (A) (A)
                 (A) (A) (A) (A) (A) (A) (A) (A) (A) (A) (A) (A)
                 (A) (A) (A) (A) (A) (A) (A) (A) (A) (A) (A) (A)
                 (A) (A) (A) (A) (A) (A) (A) (A) (A) (A) (A) (A)
                 (A) (A) (A) (A) (A) (A) (A) (A) (A) (A) (A) (A)
                 (A) (A) (A) (A) (A) (A) (A) (A) (A) (A) (A) (A)
                 (A) (A) (A) (A) (A) (A) (A) (A) (A) (A) (A) (A)
                 (A) (A) (A) (A) (A) (A) (A) (A) (A) (A) (A) (A)
                 (A) (A) (A) (A) (A) (A) (A) (A) (A) (A) (A) (A)
                 (A) (A) (A) (A) (A) (A) (A) (A) (A) (A) (A) (A)
                 (A) (A) (A) (A) (A) (A) (A) (A) (A) (A) (A) (A)
                 (A) (A) (A) (A) (A) (A) (A) (A) (A) (A) (A) (A)
                 (A) (A) (A) (A) (A) (A) (A) (A) (A) (A) (A) (A)
                 (A) (A) (A) (A) (A) (A) (A) (A) (A) (A) (A) (A)
                 (A) (A) (A) (A) (A) (A) (A) (A) (A) (A) (A) (A)
                 (A) (A) (A) (A) (A) (A) (A) (A) (A) (A) (A) (A)
                 (A) (A) (A) (A) (A) (A) (A) (A) (A) (A) (A) (A)
                 (A) (A) (A) (A) (A) (A) (A) (A) (A) (A) (A) (A)
                 (A) (A) (A) (A) (A) (A) (A) (A) (A) (A) (A) (A)
                 (A) (A) (A) (A) (A) (A) (A) (A) (A) (A) (A) (A)
                 (A) (A) (A) (A) (A) (A) (A) (A) (A) (A) (A) (A)
                 (A) (A) (A) (A) (A) (A) (A) (A) (A) (A) (A) (A)
                 (A) (A) (A) (A) (A) (A) (A) (A) (A) (A) (A) (A)
                 (A) (A) (A) (A) (A) (A) (A) (A) (A) (A) (A) (A)
                 (A) (A) (A) (A) (A) (A) (A) (A) (A) (A) (A) (A)
                 (A) (A) (A) (A) (A) (A) (A) (A) (A) (A) (A) (A)
                 (A) (A) (A) (A) (A) (A) (A) (A) (A) (A) (A) (A)
                 (A) (A) (A) (A) (A) (A) (A) (A) (A) (A) (A) (A)
                 (A) (A) (A) (A) (A) (A) (A) (A) (A) (A) (A) (A)
                 (A) (A) (A) (A) (A) (A) (A) (A) (A) (A) (A) (A)
                 (A) (A) (A) (A) (A) (A) (A) (A) (A) (A) (A) (A)
                 (A) (A) (A) (A) (A) (A) (A) (A) (A) (A) (A) (A)
                 (A) (A) (A) (A) (A) (A) (A) (A) (A) (A) (A) (A)
                 (A) (A) (A) (A) (A) (A) (A) (A) (A) (A) (A) (A)
                 (A) (A) (A) (A) (A) (A) (A) (A) (A) (A) (A) (A)
                 (A) (A) (A) (A) (A) (A) (A) (A) (A) (A) (A) (A)
                 (A) (A) (A) (A) (A) (A) (A) (A) (A) (A) (A) (A)
                 (A) (A) (A) (A) (A) (A) (A) (A) (A) (A) (A) (A)
                 (A) (A) (A) (A) (A) (A) (A) (A) (A) (A) (A) (A)
                 (A) (A) (A) (A) (A) (A) (A) (A) (A) (A) (A) (A)
                 (A) (A) (A) (A) (A) (A) (A) (A) (A) (A) (A) (A)
                 (A) (A) (A) (A) (A) (A) (A) (A) (A) (A) (A) (A)
                 (A) (A) (A) (A) (A) (A) (A) (A) (A) (A) (A) (A)
    20 initial guesses have been made.
 Convergence on wavefunction:    0.001000000000000
 Davidson Disk Diagonalization:  ConvIn= 1.00D-03 SkipCon=T Conv= 1.00D-03.
 Max sub-space:  2000 roots to seek:    20 dimension of matrix:       549360
 Iteration     1 Dimension    20 NMult     0 NNew     20
 CISAX will form    20 AO SS matrices at one time.
 NMat=    20 NSing=    20 JSym2X= 0.
 FoFJK:  IHMeth= 1 ICntrl=       0 DoSepK=T KAlg= 0 I1Cent=           0 FoldK=F
 IRaf=         1 NMat=      40 IRICut=       1 DoRegI=T DoRafI=F ISym2E= 0 IDoP0=3 IntGTp=3.
 FoFCou: FMM=T IPFlag=           0 FMFlag=      100000 FMFlg1=        2001
         NFxFlg=           0 DoJE=F BraDBF=F KetDBF=F FulRan=T
         wScrn=  0.000000 ICntrl=       500 IOpCl=  0 I1Cent=           0 NGrid=           0
         NMat0=   20 NMatS0=     20 NMatT0=    0 NMatD0=   20 NMtDS0=    0 NMtDT0=    0
 Symmetry not used in FoFCou.
 FMM levels:  10  Number of levels for PrismC:   9
 New state      1 was old state      7
 New state      2 was old state      6
 New state      3 was old state      2
 New state      4 was old state      3
 New state      5 was old state      1
 Excitation Energies [eV] at current iteration:
 Root      1 :     2.613768051213618
 Root      2 :     2.619105818003191
 Root      3 :     2.670197530579655
 Root      4 :     2.701108922775753
 Root      5 :     2.793813841778519
 Root      6 :     2.821614007586843
 Root      7 :     3.593066424220393
 Root      8 :     3.623813042883431
 Root      9 :     3.632117495314655
 Root     10 :     3.671542525035116
 Root     11 :     3.731685348963743
 Root     12 :     3.758062203230659
 Root     13 :     4.295455953686782
 Root     14 :     4.318179924389358
 Root     15 :     4.703590451687805
 Root     16 :     4.746771948159713
 Root     17 :     4.947070625535720
 Root     18 :     5.047084032665333
 Root     19 :     5.057430942211465
 Root     20 :     5.083704210597064
 Iteration     2 Dimension    30 NMult    20 NNew     10
 CISAX will form    10 AO SS matrices at one time.
 NMat=    10 NSing=    10 JSym2X= 0.
 New state      1 was old state      3
 Root      1 not converged, maximum delta is    0.153335665643118
 New state      2 was old state      4
 Root      2 not converged, maximum delta is    0.156877880957554
 New state      3 was old state      2
 Root      3 not converged, maximum delta is    0.284158204246471
 New state      4 was old state      1
 Root      4 not converged, maximum delta is    0.293861540713905
 Root      5 not converged, maximum delta is    0.004361070425385
 Excitation Energies [eV] at current iteration:
 Root      1 :     1.795663103742261   Change is   -0.874534426837395
 Root      2 :     1.813103941353088   Change is   -0.888004981422665
 Root      3 :     2.235744806460670   Change is   -0.383361011542522
 Root      4 :     2.239823746893730   Change is   -0.373944304319888
 Root      5 :     2.793550544592179   Change is   -0.000263297186340
 Iteration     3 Dimension    40 NMult    30 NNew     10
 CISAX will form    10 AO SS matrices at one time.
 NMat=    10 NSing=    10 JSym2X= 0.
 Root      1 not converged, maximum delta is    0.055678396318358
 Root      2 not converged, maximum delta is    0.056628942995709
 Root      3 not converged, maximum delta is    0.096127255653950
 Root      4 not converged, maximum delta is    0.095820643323283
 Root      5 has converged.
 Excitation Energies [eV] at current iteration:
 Root      1 :     1.688944704638836   Change is   -0.106718399103424
 Root      2 :     1.704319071250080   Change is   -0.108784870103008
 Root      3 :     2.194940309904026   Change is   -0.040804496556643
 Root      4 :     2.200945202395471   Change is   -0.038878544498259
 Root      5 :     2.793549876329598   Change is   -0.000000668262581
 Iteration     4 Dimension    48 NMult    40 NNew      8
 CISAX will form     8 AO SS matrices at one time.
 NMat=     8 NSing=     8 JSym2X= 0.
 Root      1 not converged, maximum delta is    0.010685139707109
 Root      2 not converged, maximum delta is    0.010789851732446
 Root      3 not converged, maximum delta is    0.012060902072987
 Root      4 not converged, maximum delta is    0.011963093510397
 Root      5 has converged.
 Excitation Energies [eV] at current iteration:
 Root      1 :     1.672212668590060   Change is   -0.016732036048777
 Root      2 :     1.687459696502862   Change is   -0.016859374747218
 Root      3 :     2.187733580246817   Change is   -0.007206729657209
 Root      4 :     2.194178115988425   Change is   -0.006767086407047
 Root      5 :     2.793549876329480   Change is   -0.000000000000118
 Iteration     5 Dimension    56 NMult    48 NNew      8
 CISAX will form     8 AO SS matrices at one time.
 NMat=     8 NSing=     8 JSym2X= 0.
 Root      1 not converged, maximum delta is    0.001758341852397
 Root      2 not converged, maximum delta is    0.001792067757633
 Root      3 not converged, maximum delta is    0.002423954397493
 Root      4 not converged, maximum delta is    0.002323953981023
 Root      5 has converged.
 Excitation Energies [eV] at current iteration:
 Root      1 :     1.670458511231095   Change is   -0.001754157358965
 Root      2 :     1.685664420336909   Change is   -0.001795276165953
 Root      3 :     2.186898747960752   Change is   -0.000834832286066
 Root      4 :     2.193405123220574   Change is   -0.000772992767851
 Root      5 :     2.793549876329421   Change is   -0.000000000000059
 Iteration     6 Dimension    64 NMult    56 NNew      8
 CISAX will form     8 AO SS matrices at one time.
 NMat=     8 NSing=     8 JSym2X= 0.
 Root      1 not converged, maximum delta is    0.001094372487968
 Root      2 not converged, maximum delta is    0.001112385980280
 Root      3 not converged, maximum delta is    0.001011163188737
 Root      4 has converged.
 Root      5 has converged.
 Excitation Energies [eV] at current iteration:
 Root      1 :     1.670208390493822   Change is   -0.000250120737273
 Root      2 :     1.685407132784747   Change is   -0.000257287552162
 Root      3 :     2.186772762615637   Change is   -0.000125985345115
 Root      4 :     2.193287706056107   Change is   -0.000117417164467
 Root      5 :     2.793549876329686   Change is    0.000000000000265
 Iteration     7 Dimension    70 NMult    64 NNew      6
 CISAX will form     6 AO SS matrices at one time.
 NMat=     6 NSing=     6 JSym2X= 0.
 Root      1 has converged.
 Root      2 has converged.
 Root      3 has converged.
 Root      4 has converged.
 Root      5 has converged.
 Excitation Energies [eV] at current iteration:
 Root      1 :     1.670184122282988   Change is   -0.000024268210834
[...]
 Alpha virt. eigenvalues --    1.83537   1.83817   1.83932   1.84086   1.84235
 Alpha virt. eigenvalues --    1.84505   1.84559   1.84830   1.84869   1.85151
 Alpha virt. eigenvalues --    1.85160   1.85331   1.85412   1.85550   1.85567
 Alpha virt. eigenvalues --    1.85924   1.85934   1.86420   1.86424   1.86620
 Alpha virt. eigenvalues --    1.86690   1.86840   1.86858   1.87060   1.87084
 Alpha virt. eigenvalues --    1.87499   1.87512   1.87725   1.87790   1.87926
 Alpha virt. eigenvalues --    1.88046   1.88098   1.88212   1.88595   1.88611
 Alpha virt. eigenvalues --    1.88872   1.88969   1.89090   1.89188   1.89691
 Alpha virt. eigenvalues --    1.89710   1.89811   1.89930   1.90174   1.90227
 Alpha virt. eigenvalues --    1.90798   1.90914   1.91397   1.91448   1.91494
 Alpha virt. eigenvalues --    1.91613   1.92205   1.92205   1.92667   1.92680
 Alpha virt. eigenvalues --    1.93039   1.93180   1.93401   1.93532   1.94334
 Alpha virt. eigenvalues --    1.94342   1.94751   1.94851   1.95542   1.95614
 Alpha virt. eigenvalues --    1.95772   1.95829   1.96037   1.96074   1.96191
 Alpha virt. eigenvalues --    1.96216   1.96503   1.96648   1.96957   1.96972
 Alpha virt. eigenvalues --    1.97503   1.97556   1.97816   1.97890   1.98187
 Alpha virt. eigenvalues --    1.98216   1.98357   1.98696   1.99100   1.99181
 Alpha virt. eigenvalues --    1.99864   1.99956   2.00717   2.00747   2.01040
 Alpha virt. eigenvalues --    2.01119   2.01514   2.01535   2.01631   2.01731
 Alpha virt. eigenvalues --    2.01760   2.01842   2.02734   2.02837   2.03158
 Alpha virt. eigenvalues --    2.03293   2.03403   2.03448   2.03522   2.03541
 Alpha virt. eigenvalues --    2.04047   2.04083   2.05014   2.05019   2.05574
 Alpha virt. eigenvalues --    2.05670   2.06136   2.06327   2.06932   2.07043
 Alpha virt. eigenvalues --    2.07230   2.07366   2.08618   2.08658   2.09027
 Alpha virt. eigenvalues --    2.09034   2.09634   2.09640   2.10848   2.11058
 Alpha virt. eigenvalues --    2.11234   2.11435   2.11547   2.11579   2.11783
 Alpha virt. eigenvalues --    2.11903   2.12486   2.12512   2.12832   2.12862
 Alpha virt. eigenvalues --    2.12887   2.12889   2.13645   2.13803   2.14199
 Alpha virt. eigenvalues --    2.14271   2.15391   2.15443   2.15968   2.16097
 Alpha virt. eigenvalues --    2.16583   2.16621   2.16799   2.17194   2.17468
 Alpha virt. eigenvalues --    2.17675   2.17760   2.17950   2.18025   2.18127
 Alpha virt. eigenvalues --    2.18361   2.18688   2.18905   2.19246   2.19686
 Alpha virt. eigenvalues --    2.19841   2.20087   2.20253   2.20257   2.20464
 Alpha virt. eigenvalues --    2.21199   2.21221   2.21725   2.21780   2.21788
 Alpha virt. eigenvalues --    2.21897   2.22727   2.22735   2.23359   2.23367
 Alpha virt. eigenvalues --    2.24442   2.24454   2.25032   2.25043   2.26336
 Alpha virt. eigenvalues --    2.26457   2.26834   2.27029   2.27141   2.27220
 Alpha virt. eigenvalues --    2.28186   2.28334   2.29324   2.29463   2.29779
 Alpha virt. eigenvalues --    2.29899   2.30496   2.30631   2.30827   2.31124
 Alpha virt. eigenvalues --    2.31207   2.31218   2.32182   2.32269   2.33179
 Alpha virt. eigenvalues --    2.33257   2.33496   2.33510   2.34153   2.34195
 Alpha virt. eigenvalues --    2.35302   2.35396   2.35843   2.35933   2.36365
 Alpha virt. eigenvalues --    2.36419   2.36472   2.36676   2.37693   2.37719
 Alpha virt. eigenvalues --    2.38325   2.38430   2.38799   2.38896   2.39661
 Alpha virt. eigenvalues --    2.39690   2.40239   2.40280   2.40527   2.40841
 Alpha virt. eigenvalues --    2.41222   2.41306   2.41714   2.41749   2.42068
 Alpha virt. eigenvalues --    2.42137   2.42849   2.43012   2.43046   2.43531
 Alpha virt. eigenvalues --    2.44009   2.44209   2.44780   2.44829   2.44951
 Alpha virt. eigenvalues --    2.44999   2.45592   2.45596   2.46324   2.46363
 Alpha virt. eigenvalues --    2.46522   2.46522   2.46814   2.46841   2.47299
 Alpha virt. eigenvalues --    2.47386   2.47765   2.47903   2.49373   2.49425
 Alpha virt. eigenvalues --    2.49908   2.50135   2.50493   2.50617   2.51157
 Alpha virt. eigenvalues --    2.51272   2.51640   2.51930   2.52398   2.52475
 Alpha virt. eigenvalues --    2.52853   2.53175   2.53973   2.53994   2.54218
 Alpha virt. eigenvalues --    2.54334   2.54815   2.54837   2.55575   2.55687
 Alpha virt. eigenvalues --    2.57920   2.58103   2.58697   2.58915   2.60238
 Alpha virt. eigenvalues --    2.60300   2.60653   2.60932   2.61767   2.61841
 Alpha virt. eigenvalues --    2.62440   2.62576   2.63000   2.63130   2.63983
 Alpha virt. eigenvalues --    2.64231   2.64308   2.64427   2.65102   2.65128
 Alpha virt. eigenvalues --    2.65827   2.65865   2.66830   2.66837   2.66962
 Alpha virt. eigenvalues --    2.67065   2.67961   2.67984   2.68834   2.68905
 Alpha virt. eigenvalues --    2.69026   2.69059   2.69447   2.69594   2.70046
 Alpha virt. eigenvalues --    2.70141   2.71023   2.71064   2.71890   2.72088
 Alpha virt. eigenvalues --    2.72482   2.72685   2.72722   2.72836   2.73292
 Alpha virt. eigenvalues --    2.73339   2.73443   2.73534   2.74505   2.74552
 Alpha virt. eigenvalues --    2.75015   2.75055   2.76519   2.76643   2.77062
 Alpha virt. eigenvalues --    2.77267   2.77509   2.77623   2.78255   2.78326
 Alpha virt. eigenvalues --    2.78688   2.78765   2.79154   2.79180   2.80296
 Alpha virt. eigenvalues --    2.80395   2.80616   2.80677   2.81149   2.81150
 Alpha virt. eigenvalues --    2.81974   2.81982   2.82329   2.82391   2.83779
 Alpha virt. eigenvalues --    2.83827   2.83873   2.83888   2.84531   2.84593
 Alpha virt. eigenvalues --    2.84879   2.84938   2.85713   2.85727   2.86648
 Alpha virt. eigenvalues --    2.87035   2.87146   2.87619   2.88216   2.88268
 Alpha virt. eigenvalues --    2.88551   2.88604   2.88873   2.88982   2.90540
 Alpha virt. eigenvalues --    2.90646   2.91058   2.91244   2.93195   2.93316
 Alpha virt. eigenvalues --    2.93765   2.94248   2.94582   2.94622   2.95402
 Alpha virt. eigenvalues --    2.95459   2.95801   2.96210   2.96370   2.96491
 Alpha virt. eigenvalues --    2.96839   2.97192   2.97842   2.98055   2.98261
 Alpha virt. eigenvalues --    2.98337   2.98409   2.98568   2.98636   2.98764
 Alpha virt. eigenvalues --    2.98919   2.98935   2.99654   2.99815   2.99989
 Alpha virt. eigenvalues --    3.00057   3.00262   3.00357   3.00497   3.00980
 Alpha virt. eigenvalues --    3.01889   3.02047   3.02083   3.02114   3.02748
 Alpha virt. eigenvalues --    3.02818   3.03010   3.03342   3.03388   3.03691
 Alpha virt. eigenvalues --    3.04039   3.04228   3.04420   3.04487   3.04602
 Alpha virt. eigenvalues --    3.04708   3.05358   3.05361   3.06150   3.06163
 Alpha virt. eigenvalues --    3.06840   3.06925   3.07943   3.08211   3.09365
 Alpha virt. eigenvalues --    3.09443   3.09738   3.10413   3.10486   3.10729
 Alpha virt. eigenvalues --    3.11393   3.11471   3.11884   3.11973   3.12248
 Alpha virt. eigenvalues --    3.12287   3.13321   3.13636   3.13691   3.13703
 Alpha virt. eigenvalues --    3.14098   3.14438   3.15979   3.15994   3.17305
 Alpha virt. eigenvalues --    3.17507   3.17902   3.18147   3.19041   3.19186
 Alpha virt. eigenvalues --    3.22309   3.22565   3.23991   3.24427   3.24699
 Alpha virt. eigenvalues --    3.25172   3.26550   3.26648   3.27383   3.27665
 Alpha virt. eigenvalues --    3.29100   3.29184   3.31371   3.31569   3.33180
 Alpha virt. eigenvalues --    3.33469   3.40214   3.40620   3.42836   3.42880
 Alpha virt. eigenvalues --    3.48683   3.48695   3.50072   3.50276   3.50832
 Alpha virt. eigenvalues --    3.51526   3.56604   3.57003   3.59155   3.59332
 Alpha virt. eigenvalues --    3.62506   3.62879   3.66143   3.66257   3.67184
 Alpha virt. eigenvalues --    3.67502   3.73276   3.73985   3.76068   3.76647
          Condensed to atoms (all electrons):
 Mulliken charges:
               1
     1  Mg   0.838758
     2  C   -0.003132
     3  C   -0.094112
     4  C   -0.045720
     5  C   -0.063842
     6  N   -0.256804
     7  C   -0.052573
     8  C   -0.014021
     9  C   -0.087032
    10  C    0.046374
    11  C    0.104801
    12  C    0.053461
    13  C   -0.071674
    14  H    0.035555
    15  N   -0.433180
    16  C    0.168562
    17  C   -0.177007
    18  C   -0.003793
    19  C    0.148782
    20  C    0.110143
    21  C    0.012505
    22  O   -0.249426
    23  C    0.062357
    24  N   -0.341135
    25  C    0.041313
    26  C   -0.028220
    27  C   -0.023965
    28  C    0.074816
    29  C    0.076165
    30  C    0.035091
    31  C   -0.004571
    32  N   -0.310366
    33  C    0.080253
    34  C   -0.169872
    35  C    0.008146
    36  C    0.082868
    37  C    0.127373
    38  C    0.045829
    39  O   -0.188988
    40  C   -0.005247
    41  C    0.212827
    42  O   -0.257578
    43  O   -0.304638
    44  C    0.157916
    45  H   -0.017538
    46  H   -0.016641
    47  H   -0.041480
    48  H    0.000790
    49  H   -0.003975
    50  H    0.025406
    51  H    0.016537
    52  H    0.016680
    53  H    0.011426
    54  H    0.043784
    55  H    0.017874
    56  H    0.018176
    57  H    0.005859
    58  H    0.026918
    59  H    0.039999
    60  H    0.037287
    61  H    0.035947
    62  H    0.031879
    63  H    0.016805
    64  H    0.009389
    65  H    0.023337
    66  H    0.012481
    67  H    0.004730
    68  H    0.006485
    69  H    0.004674
    70  H    0.009006
    71  H    0.018595
    72  H    0.028778
    73  H    0.047168
    74  H    0.009225
    75  H    0.045940
    76  H    0.035120
    77  H    0.042776
    78  H    0.046506
    79  H    0.053056
    80  Mg   0.837867
    81  C   -0.016888
    82  C   -0.087566
    83  C   -0.045481
    84  C   -0.064921
    85  N   -0.254576
    86  C   -0.050006
    87  C   -0.015108
    88  C   -0.090531
    89  C    0.045784
    90  C    0.114376
    91  C    0.062457
    92  C   -0.077761
    93  H    0.034387
    94  N   -0.423586
    95  C    0.163094
    96  C   -0.174285
    97  C   -0.007502
    98  C    0.152191
    99  C    0.099211
   100  C    0.015780
   101  O   -0.253362
   102  C    0.061015
   103  N   -0.350051
   104  C    0.037578
   105  C   -0.019837
   106  C   -0.034715
   107  C    0.088769
   108  C    0.073702
   109  C    0.034769
   110  C   -0.007654
   111  N   -0.324000
   112  C    0.078218
   113  C   -0.163366
   114  C    0.002070
   115  C    0.096069
   116  C    0.131541
   117  C    0.042175
   118  O   -0.188373
   119  C    0.000986
   120  C    0.211196
   121  O   -0.251151
   122  O   -0.305605
   123  C    0.152151
   124  H   -0.019478
   125  H   -0.015530
   126  H   -0.040694
   127  H   -0.000860
   128  H   -0.004150
   129  H    0.022316
   130  H    0.014463
   131  H    0.016273
   132  H    0.014267
   133  H    0.037501
   134  H    0.020660
   135  H    0.019815
   136  H    0.008755
   137  H    0.026276
   138  H    0.041327
   139  H    0.038282
   140  H    0.036718
   141  H    0.035223
   142  H    0.014450
   143  H    0.012225
   144  H    0.025094
   145  H    0.011653
   146  H    0.005524
   147  H    0.006126
   148  H    0.003469
   149  H    0.011029
   150  H    0.017812
   151  H    0.030200
   152  H    0.045723
   153  H    0.008372
   154  H    0.046721
   155  H    0.034862
   156  H    0.043691
   157  H    0.049486
   158  H    0.053337
 Sum of Mulliken charges =  -0.00000
 Mulliken charges with hydrogens summed into heavy atoms:
               1
     1  Mg   0.838758
     2  C   -0.003132
     3  C   -0.111649
     4  C   -0.062361
     5  C   -0.105322
     6  N   -0.256804
     7  C   -0.052573
     8  C   -0.013231
     9  C   -0.091007
    10  C    0.046374
    11  C    0.163424
    12  C    0.108671
    13  C   -0.000069
    15  N   -0.433180
    16  C    0.168562
    17  C   -0.177007
    18  C   -0.003793
    19  C    0.148782
    20  C    0.182920
    21  C    0.012505
    22  O   -0.249426
    23  C    0.167469
    24  N   -0.341135
    25  C    0.041313
    26  C   -0.011415
    27  C   -0.014576
    28  C    0.074816
    29  C    0.116713
    30  C    0.046250
    31  C    0.051808
    32  N   -0.310366
    33  C    0.080253
    34  C   -0.169872
    35  C    0.008146
    36  C    0.082868
    37  C    0.229706
    38  C    0.045829
    39  O   -0.188988
    40  C    0.029873
    41  C    0.212827
    42  O   -0.257578
    43  O   -0.304638
    44  C    0.300253
    80  Mg   0.837867
    81  C   -0.016888
    82  C   -0.107044
    83  C   -0.061012
    84  C   -0.105614
    85  N   -0.254576
    86  C   -0.050006
    87  C   -0.015968
    88  C   -0.094681
    89  C    0.045784
    90  C    0.167428
    91  C    0.114225
    92  C   -0.002898
    94  N   -0.423586
    95  C    0.163094
    96  C   -0.174285
    97  C   -0.007502
    98  C    0.152191
    99  C    0.175568
   100  C    0.015780
   101  O   -0.253362
   102  C    0.171238
   103  N   -0.350051
   104  C    0.037578
   105  C   -0.005387
   106  C   -0.022490
   107  C    0.088769
   108  C    0.115974
   109  C    0.044364
   110  C    0.051386
   111  N   -0.324000
   112  C    0.078218
   113  C   -0.163366
   114  C    0.002070
   115  C    0.096069
   116  C    0.232357
   117  C    0.042175
   118  O   -0.188373
   119  C    0.035848
   120  C    0.211196
   121  O   -0.251151
   122  O   -0.305605
   123  C    0.298665
 Electronic spatial extent (au):  <R**2>=         199645.2007
 Charge=             -0.0000 electrons
 Dipole moment (field-independent basis, Debye):
    X=              2.3201    Y=              3.1042    Z=              0.1978  Tot=              3.8805
 Quadrupole moment (field-independent basis, Debye-Ang):
   XX=           -503.1000   YY=           -461.9458   ZZ=           -530.3230
   XY=              6.2321   XZ=             72.3803   YZ=             12.9997
 Traceless Quadrupole moment (field-independent basis, Debye-Ang):
   XX=             -4.6437   YY=             36.5104   ZZ=            -31.8667
   XY=              6.2321   XZ=             72.3803   YZ=             12.9997
 Octapole moment (field-independent basis, Debye-Ang**2):
  XXX=            550.7519  YYY=            232.5024  ZZZ=            120.3190  XYY=           -164.3798
  XXY=             -9.1750  XXZ=           -145.3739  XZZ=            135.2724  YZZ=            114.6696
  YYZ=            -11.2696  XYZ=            410.6634
 Hexadecapole moment (field-independent basis, Debye-Ang**3):
 XXXX=        -212794.8115 YYYY=         -33020.7152 ZZZZ=         -27747.8017 XXXY=           1984.1575
 XXXZ=           6607.3237 YYYX=            480.2763 YYYZ=            304.6085 ZZZX=           2243.4489
 ZZZY=            328.5705 XXYY=         -36706.2295 XXZZ=         -42220.0026 YYZZ=         -10718.2158
 XXYZ=           1363.4021 YYXZ=          -1534.7660 ZZXY=           -376.8033
 N-N= 1.370288821634D+04 E-N=-3.688687326712D+04  KE= 4.028801933542D+03
 Leave Link  601 at Sat Sep 11 20:55:21 2021, MaxMem= 23488102400 cpu:              17.6 elap:               0.9
 (Enter /sw/apps/gaussian-16.0/g16/l9999.exe)
 1\1\GINC-BP1-COMPUTE00105\SP\RCAM-B3LYP TD-FC\def2SVP\C68H72Mg2N8O8\OF
 15641\11-Sep-2021\0\\#p cam-b3lyp/Def2SVP td=(nstates=5)\\TDDFT excite
 d states in gaussian\\0,1\Mg,0,0.,0.,0.\C,0,-0.217,-2.218,2.801\C,0,-1
 .255,2.442,2.026\C,0,-0.245,1.85,-2.564\C,0,0.146,-2.824,-2.037\N,0,-0
 .617,-0.009,2.126\C,0,-0.594,-0.908,3.105\C,0,-0.936,-0.309,4.502\C,0,
 -1.773,0.964,4.032\C,0,-1.155,1.168,2.66\C,0,-3.263,0.685,3.863\C,0,0.
 345,0.11,5.299\C,0,0.124,0.397,6.787\H,0,1.168,0.033,7.733\N,0,-0.185,
 1.961,-0.152\C,0,-0.703,2.8,0.777\C,0,-0.62,4.156,0.193\C,0,-0.187,4.0
 15,-1.225\C,0,-0.214,2.583,-1.38\C,0,-0.887,5.406,0.974\C,0,0.181,5.01
 3,-2.277\O,0,0.303,4.69,-3.508\C,0,0.31,6.414,-1.837\N,0,-0.265,-0.413
 ,-2.029\C,0,-0.279,0.569,-2.937\C,0,-0.196,0.024,-4.332\C,0,0.124,-1.5
 33,-4.18\C,0,0.086,-1.632,-2.635\C,0,-1.451,0.205,-5.197\C,0,1.373,-2.
 07,-4.923\C,0,2.626,-1.49,-4.306\N,0,0.15,-2.144,0.303\C,0,0.173,-3.13
 6,-0.688\C,0,0.173,-4.438,0.004\C,0,0.133,-4.111,1.358\C,0,0.083,-2.69
 5,1.502\C,0,0.149,-5.715,-0.623\C,0,0.096,-4.629,2.716\O,0,0.208,-5.74
 7,3.221\C,0,-0.255,-3.428,3.701\C,0,0.717,-3.482,4.848\O,0,1.931,-3.25
 5,4.669\O,0,0.038,-3.556,6.003\C,0,0.943,-3.583,7.183\H,0,-1.859,3.22,
 2.497\H,0,-0.218,2.453,-3.474\H,0,0.276,-3.747,-2.605\H,0,-1.554,-0.94
 9,5.132\H,0,-1.585,1.831,4.665\H,0,-3.484,-0.377,3.969\H,0,-3.511,1.02
 7,2.858\H,0,-3.852,1.301,4.543\H,0,0.669,1.096,4.966\H,0,1.13,-0.639,5
 .189\H,0,-0.844,0.026,7.125\H,0,0.062,1.477,6.921\H,0,-1.344,5.186,1.9
 38\H,0,-1.651,5.963,0.432\H,0,0.007,6.02,1.084\H,0,-0.635,6.744,-1.405
 \H,0,0.665,6.97,-2.704\H,0,1.048,6.466,-1.036\H,0,0.608,0.501,-4.891\H
 ,0,-0.692,-2.156,-4.547\H,0,-1.267,0.74,-6.129\H,0,-2.204,0.714,-4.596
 \H,0,-1.967,-0.72,-5.453\H,0,1.356,-1.759,-5.967\H,0,1.452,-3.157,-4.9
 02\H,0,2.714,-0.522,-4.798\H,0,3.487,-2.121,-4.529\H,0,2.495,-1.303,-3
 .24\H,0,0.867,-6.333,-0.084\H,0,0.404,-5.642,-1.68\H,0,-0.891,-5.999,-
 0.463\H,0,-1.283,-3.581,4.028\H,0,0.698,-4.478,7.755\H,0,0.833,-2.619,
 7.68\H,0,2.,-3.754,6.976\Mg,0,15.75762,1.41994,1.20376\C,0,16.8143,3.7
 9977,3.67335\C,0,15.32568,-0.80713,3.75095\C,0,15.25652,-0.82778,-0.97
 892\C,0,17.33348,3.40831,-1.18554\N,0,16.06316,1.59224,3.38761\C,0,16.
 4083,2.56402,4.2188\C,0,16.23615,2.21626,5.72179\C,0,16.32686,0.61681,
 5.61046\C,0,15.84251,0.44404,4.17232\C,0,17.74808,0.08675,5.70272\C,0,
 14.84568,2.67485,6.28596\C,0,14.72983,2.64709,7.8116\H,0,13.93313,3.67
 995,8.46804\N,0,14.89338,-0.35908,1.3673\C,0,14.78763,-1.11302,2.4816\
 C,0,14.08622,-2.33968,2.07232\C,0,13.93272,-2.32062,0.59219\C,0,14.723
 95,-1.15281,0.26014\C,0,13.56543,-3.34621,3.05675\C,0,13.20597,-3.2139
 4,-0.36698\O,0,13.40401,-3.14693,-1.63155\C,0,12.32569,-4.23236,0.2241
 3\N,0,16.40388,1.19152,-0.75902\C,0,15.99712,0.14859,-1.50385\C,0,16.3
 6402,0.33945,-2.95621\C,0,16.89032,1.84516,-3.07207\C,0,16.81728,2.253
 95,-1.58448\C,0,17.42519,-0.61397,-3.5051\C,0,16.19669,2.75421,-4.1233
 5\C,0,14.7655,3.0176,-3.71384\N,0,16.71525,3.35652,1.17829\C,0,17.3315
 9,3.98888,0.07633\C,0,17.94182,5.23785,0.57645\C,0,17.65567,5.23403,1.
 94999\C,0,16.93656,4.05529,2.28608\C,0,18.68975,6.1673,-0.19998\C,0,17
 .80763,5.95394,3.19391\O,0,18.25237,7.05646,3.51077\C,0,17.37937,4.995
 98,4.38777\C,0,16.46175,5.76758,5.29613\O,0,15.34571,6.14327,4.89621\O
 ,0,16.95877,5.7459,6.54628\C,0,16.07774,6.4889,7.48626\H,0,15.37405,-1
 .64816,4.44321\H,0,15.01628,-1.5178,-1.7911\H,0,17.75797,4.13099,-1.88
 57\H,0,17.02229,2.58923,6.36728\H,0,15.64349,0.13323,6.30365\H,0,18.47
 594,0.88444,5.70947\H,0,17.88442,-0.54247,4.83293\H,0,17.84918,-0.5719
 4,6.57004\H,0,14.08858,1.92375,6.02635\H,0,14.5899,3.65087,5.92185\H,0
 ,15.70824,2.54959,8.29756\H,0,14.19451,1.74,8.10251\H,0,13.97262,-3.17
 476,4.06085\H,0,13.97016,-4.32055,2.76225\H,0,12.47488,-3.40385,3.0631
 9\H,0,12.90702,-4.87474,0.8813\H,0,11.8266,-4.71264,-0.61975\H,0,11.58
 194,-3.72981,0.85253\H,0,15.49613,0.22055,-3.59318\H,0,17.95193,1.8849
 2,-3.35713\H,0,17.08177,-1.18896,-4.38574\H,0,17.72839,-1.28168,-2.709
 64\H,0,18.36707,-0.14505,-3.78472\H,0,16.15457,2.24941,-5.09162\H,0,16
 .7025,3.70177,-4.2759\H,0,14.23751,2.13118,-4.07794\H,0,14.39156,3.922
 5,-4.18856\H,0,14.66543,3.03575,-2.62236\H,0,18.35608,7.15479,0.08992\
 H,0,18.55162,5.99707,-1.26568\H,0,19.70401,5.92272,0.1267\H,0,18.29044
 ,4.68087,4.89789\H,0,16.69804,7.24752,7.97351\H,0,15.61855,5.72035,8.1
 3604\H,0,15.2919,7.10077,7.05903\\Version=ES64L-G16RevA.03\State=1-A\H
 F=-4069.8119524\RMSD=6.476e-09\PG=C01 [X(C68H72Mg2N8O8)]\\@


 Change starts when someone sees the next step.
                            -- William Drayton
 Job cpu time:       0 days 13 hours 24 minutes 45.5 seconds.
 Elapsed time:       0 days  0 hours 34 minutes  7.4 seconds.
 File lengths (MBytes):  RWF=  13225 Int=      0 D2E=      0 Chk=    574 Scr=      1
 Normal termination of Gaussian 16 at Sat Sep 11 20:55:22 2021.
