 Entering Gaussian System, Link 0=g16
 Initial command:
 /sw/apps/gaussian-16.0/g16/l1.exe "/tmp/Gau-154065.inp" -scrdir="/tmp/"
 Entering Link 1 = /sw/apps/gaussian-16.0/g16/l1.exe PID=    154066.
  
 Copyright (c) 1988,1990,1992,1993,1995,1998,2003,2009,2016,
            Gaussian, Inc.  All Rights Reserved.
  
 This is part of the Gaussian(R) 16 program.  It is based on
 the Gaussian(R) 09 system (copyright 2009, Gaussian, Inc.),
 the Gaussian(R) 03 system (copyright 2003, Gaussian, Inc.),
 the Gaussian(R) 98 system (copyright 1998, Gaussian, Inc.),
 the Gaussian(R) 94 system (copyright 1995, Gaussian, Inc.),
 the Gaussian 92(TM) system (copyright 1992, Gaussian, Inc.),
 the Gaussian 90(TM) system (copyright 1990, Gaussian, Inc.),
 the Gaussian 88(TM) system (copyright 1988, Gaussian, Inc.),
 the Gaussian 86(TM) system (copyright 1986, Carnegie Mellon
 University), and the Gaussian 82(TM) system (copyright 1983,
 Carnegie Mellon University). Gaussian is a federally registered
 trademark of Gaussian, Inc.
  
 This software contains proprietary and confidential information,
 including trade secrets, belonging to Gaussian, Inc.
  
 This software is provided under written license and may be
 used, copied, transmitted, or stored only in accord with that
 written license.
  
 The following legend is applicable only to US Government
 contracts under FAR:
  
                    RESTRICTED RIGHTS LEGEND
  
 Use, reproduction and disclosure by the US Government is
 subject to restrictions as set forth in subparagraphs (a)
 and (c) of the Commercial Computer Software - Restricted
 Rights clause in FAR 52.227-19.
  
 Gaussian, Inc.
 340 Quinnipiac St., Bldg. 40, Wallingford CT 06492
  
  
 ---------------------------------------------------------------
 Warning -- This program may not be used in any manner that
 competes with the business of Gaussian, Inc. or will provide
 assistance to any competitor of Gaussian, Inc.  The licensee
 of this program is prohibited from giving any competitor of
 Gaussian, Inc. access to this program.  By using this program,
 the user acknowledges that Gaussian, Inc. is engaged in the
 business of creating and licensing software in the field of
 computational chemistry and represents and warrants to the
 licensee that it is not a competitor of Gaussian, Inc. and that
 it will not use this program in any manner prohibited above.
 ---------------------------------------------------------------
  

 Cite this work as:
 Gaussian 16, Revision A.03,
 M. J. Frisch, G. W. Trucks, H. B. Schlegel, G. E. Scuseria, 
 M. A. Robb, J. R. Cheeseman, G. Scalmani, V. Barone, 
 G. A. Petersson, H. Nakatsuji, X. Li, M. Caricato, A. V. Marenich, 
 J. Bloino, B. G. Janesko, R. Gomperts, B. Mennucci, H. P. Hratchian, 
 J. V. Ortiz, A. F. Izmaylov, J. L. Sonnenberg, D. Williams-Young, 
 F. Ding, F. Lipparini, F. Egidi, J. Goings, B. Peng, A. Petrone, 
 T. Henderson, D. Ranasinghe, V. G. Zakrzewski, J. Gao, N. Rega, 
 G. Zheng, W. Liang, M. Hada, M. Ehara, K. Toyota, R. Fukuda, 
 J. Hasegawa, M. Ishida, T. Nakajima, Y. Honda, O. Kitao, H. Nakai, 
 T. Vreven, K. Throssell, J. A. Montgomery, Jr., J. E. Peralta, 
 F. Ogliaro, M. J. Bearpark, J. J. Heyd, E. N. Brothers, K. N. Kudin, 
 V. N. Staroverov, T. A. Keith, R. Kobayashi, J. Normand, 
 K. Raghavachari, A. P. Rendell, J. C. Burant, S. S. Iyengar, 
 J. Tomasi, M. Cossi, J. M. Millam, M. Klene, C. Adamo, R. Cammi, 
 J. W. Ochterski, R. L. Martin, K. Morokuma, O. Farkas, 
 J. B. Foresman, and D. J. Fox, Gaussian, Inc., Wallingford CT, 2016.
 
 ******************************************
 Gaussian 16:  ES64L-G16RevA.03 25-Dec-2016
                12-Sep-2021 
 ******************************************
 %nproc=24
 Will use up to   24 processors via shared memory.
 %mem=175gb
 -----------------------------------
 #p cam-b3lyp/Def2SVP td=(nstates=5)
 -----------------------------------
 1/38=1,172=1/1;
 2/12=2,17=6,18=5,40=1/2;
 3/5=43,7=101,11=9,25=1,30=1,74=-40/1,2,3,8;
 4//1;
 5/5=2,38=5/2;
 8/6=1,10=1,108=5/1;
 9/41=5,42=1,70=2/14;
 6/7=2,8=2,9=2,10=2/1;
 99/5=1,9=1/99;
 Leave Link    1 at Sun Sep 12 14:30:02 2021, MaxMem= 23488102400 cpu:               0.6 elap:               0.0
 (Enter /sw/apps/gaussian-16.0/g16/l101.exe)
 --------------------------------
 TDDFT excited states in gaussian
 --------------------------------
 Symbolic Z-matrix:
 Charge =  0 Multiplicity = 1
 Mg                    0.        0.        0. 
 C                    -0.217    -2.218     2.801 
 C                    -1.255     2.442     2.026 
 C                    -0.245     1.85     -2.564 
 C                     0.146    -2.824    -2.037 
 N                    -0.617    -0.009     2.126 
 C                    -0.594    -0.908     3.105 
 C                    -0.936    -0.309     4.502 
 C                    -1.773     0.964     4.032 
 C                    -1.155     1.168     2.66 
 C                    -3.263     0.685     3.863 
 C                     0.345     0.11      5.299 
 C                     0.124     0.397     6.787 
 H                     1.168     0.033     7.733 
 N                    -0.185     1.961    -0.152 
 C                    -0.703     2.8       0.777 
 C                    -0.62      4.156     0.193 
 C                    -0.187     4.015    -1.225 
 C                    -0.214     2.583    -1.38 
 C                    -0.887     5.406     0.974 
 C                     0.181     5.013    -2.277 
 O                     0.303     4.69     -3.508 
 C                     0.31      6.414    -1.837 
 N                    -0.265    -0.413    -2.029 
 C                    -0.279     0.569    -2.937 
 C                    -0.196     0.024    -4.332 
 C                     0.124    -1.533    -4.18 
 C                     0.086    -1.632    -2.635 
 C                    -1.451     0.205    -5.197 
 C                     1.373    -2.07     -4.923 
 C                     2.626    -1.49     -4.306 
 N                     0.15     -2.144     0.303 
 C                     0.173    -3.136    -0.688 
 C                     0.173    -4.438     0.004 
 C                     0.133    -4.111     1.358 
 C                     0.083    -2.695     1.502 
 C                     0.149    -5.715    -0.623 
 C                     0.096    -4.629     2.716 
 O                     0.208    -5.747     3.221 
 C                    -0.255    -3.428     3.701 
 C                     0.717    -3.482     4.848 
 O                     1.931    -3.255     4.669 
 O                     0.038    -3.556     6.003 
 C                     0.943    -3.583     7.183 
 H                    -1.859     3.22      2.497 
 H                    -0.218     2.453    -3.474 
 H                     0.276    -3.747    -2.605 
 H                    -1.554    -0.949     5.132 
 H                    -1.585     1.831     4.665 
 H                    -3.484    -0.377     3.969 
 H                    -3.511     1.027     2.858 
 H                    -3.852     1.301     4.543 
 H                     0.669     1.096     4.966 
 H                     1.13     -0.639     5.189 
 H                    -0.844     0.026     7.125 
 H                     0.062     1.477     6.921 
 H                    -1.344     5.186     1.938 
 H                    -1.651     5.963     0.432 
 H                     0.007     6.02      1.084 
 H                    -0.635     6.744    -1.405 
 H                     0.665     6.97     -2.704 
 H                     1.048     6.466    -1.036 
 H                     0.608     0.501    -4.891 
 H                    -0.692    -2.156    -4.547 
 H                    -1.267     0.74     -6.129 
 H                    -2.204     0.714    -4.596 
 H                    -1.967    -0.72     -5.453 
 H                     1.356    -1.759    -5.967 
 H                     1.452    -3.157    -4.902 
 H                     2.714    -0.522    -4.798 
 H                     3.487    -2.121    -4.529 
 H                     2.495    -1.303    -3.24 
 H                     0.867    -6.333    -0.084 
 H                     0.404    -5.642    -1.68 
 H                    -0.891    -5.999    -0.463 
 H                    -1.283    -3.581     4.028 
 H                     0.698    -4.478     7.755 
 H                     0.833    -2.619     7.68 
 H                     2.       -3.754     6.976 
 Mg                    31.52236   2.84165   2.3958 
 C                     29.95954   0.02309   0.81707 
 C                     30.17667   4.77855  -0.06837 
 C                     33.24647   5.26678   3.49743 
 C                     33.62982   0.58877   4.01717 
 N                     30.24968   2.34874   0.65522 
 C                     29.66792   1.25302   0.19124 
 C                     28.65752   1.49992  -0.96102 
 C                     29.24769   2.89107  -1.50439 
 C                     29.90509   3.39546  -0.22139 
 C                     30.32873   2.71567  -2.55792 
 C                     27.18627   1.66414  -0.44094 
 C                     26.10949   1.59926  -1.52633 
 H                     24.82885   0.978    -1.20004 
 N                     31.31644   4.79554   2.11568 
 C                     30.72331   5.4097    1.07056 
 C                     30.85123   6.85273   1.32645 
 C                     31.71264   7.04202   2.52513 
 C                     32.15186   5.67975   2.75188 
 C                     30.12567   7.88973   0.51922 
 C                     32.09017   8.25118   3.32613 
 O                     33.04137   8.22006   4.18466 
 C                     31.37601   9.49661   3.00932 
 N                     33.32944   2.93668   3.4194 
 C                     33.83157   4.11529   3.82765 
 C                     34.98901   3.91571   4.7768 
 C                     35.00534   2.352     5.11162 
 C                     33.85962   1.88345   4.18794 
 C                     36.36083   4.33768   4.25105 
 C                     34.95536   1.95295   6.61193 
 C                     33.61284   2.32328   7.20004 
 N                     31.65788   0.69299   2.57732 
 C                     32.63355  -0.04346   3.28429 
 C                     32.37592  -1.47381   3.01947 
 C                     31.27363  -1.46941   2.15147 
 C                     30.88516  -0.13018   1.87748 
 C                     33.14493  -2.56356   3.51665 
 C                     30.35697  -2.29286   1.39625 
 O                     30.14602  -3.50177   1.30805 
 C                     29.54438  -1.36      0.39832 
 C                     28.08774  -1.71815   0.50981 
 O                     27.4658  -1.51399   1.56723 
 O                     27.61802  -2.03797  -0.7098 
 C                     26.17421  -2.39007  -0.65266 
 H                     29.99346   5.44009  -0.91553 
 H                     33.80898   6.06325   3.99007 
 H                     34.18166  -0.1791    4.56354 
 H                     28.6754   0.75567  -1.74814 
 H                     28.45203   3.56329  -1.81488 
 H                     30.60579   1.67937  -2.68223 
 H                     31.1746   3.29441  -2.21064 
 H                     30.01539   3.17525  -3.4997 
 H                     27.04198   2.69561  -0.09455 
 H                     26.97061   0.94527   0.32545 
 H                     26.4999   1.20165  -2.47102 
 H                     25.80191   2.61875  -1.77138 
 H                     29.70041   7.46142  -0.39681 
 H                     30.87812   8.60134   0.16244 
 H                     29.37704   8.42987   1.1027 
 H                     31.53131   9.74562   1.96226 
 H                     31.71933   10.22578   3.74574 
 H                     30.30117   9.32549   3.13604 
 H                     34.83643   4.47005   5.6947 
 H                     35.92217   1.86659   4.74607 
 H                     36.86379   5.08458   4.8939 
 H                     36.23832   4.72123   3.24685 
 H                     37.06885   3.52409   4.10282 
 H                     35.70627   2.51035   7.17728 
 H                     35.13984   0.8979    6.78464 
 H                     33.73552   3.38188   7.44783 
 H                     33.40771   1.73093   8.08947 
 H                     32.81972   2.2508    6.44682 
 H                     32.44135  -3.31833   3.84192 
 H                     33.79807  -2.25139   4.32889 
 H                     33.70687  -2.83176   2.61801 
 H                     29.93365  -1.53621  -0.60517 
 H                     26.07115  -3.38794  -1.09006 
 H                     25.64432  -1.56118  -1.15853 
 H                     25.73359  -2.54151   0.32579 
 
 ITRead=  0  0  0  0  0  0  0  0  0  0  0  0  0  0  0  0  0  0  0  0
 ITRead=  0  0  0  0  0  0  0  0  0  0  0  0  0  0  0  0  0  0  0  0
 ITRead=  0  0  0  0  0  0  0  0  0  0  0  0  0  0  0  0  0  0  0  0
 ITRead=  0  0  0  0  0  0  0  0  0  0  0  0  0  0  0  0  0  0  0  0
 ITRead=  0  0  0  0  0  0  0  0  0  0  0  0  0  0  0  0  0  0  0  0
 ITRead=  0  0  0  0  0  0  0  0  0  0  0  0  0  0  0  0  0  0  0  0
 ITRead=  0  0  0  0  0  0  0  0  0  0  0  0  0  0  0  0  0  0  0  0
 ITRead=  0  0  0  0  0  0  0  0  0  0  0  0  0  0  0  0  0  0
 MicOpt= -1 -1 -1 -1 -1 -1 -1 -1 -1 -1 -1 -1 -1 -1 -1 -1 -1 -1 -1 -1
 MicOpt= -1 -1 -1 -1 -1 -1 -1 -1 -1 -1 -1 -1 -1 -1 -1 -1 -1 -1 -1 -1
 MicOpt= -1 -1 -1 -1 -1 -1 -1 -1 -1 -1 -1 -1 -1 -1 -1 -1 -1 -1 -1 -1
 MicOpt= -1 -1 -1 -1 -1 -1 -1 -1 -1 -1 -1 -1 -1 -1 -1 -1 -1 -1 -1 -1
 MicOpt= -1 -1 -1 -1 -1 -1 -1 -1 -1 -1 -1 -1 -1 -1 -1 -1 -1 -1 -1 -1
 MicOpt= -1 -1 -1 -1 -1 -1 -1 -1 -1 -1 -1 -1 -1 -1 -1 -1 -1 -1 -1 -1
 MicOpt= -1 -1 -1 -1 -1 -1 -1 -1 -1 -1 -1 -1 -1 -1 -1 -1 -1 -1 -1 -1
 MicOpt= -1 -1 -1 -1 -1 -1 -1 -1 -1 -1 -1 -1 -1 -1 -1 -1 -1 -1
 NAtoms=    158 NQM=      158 NQMF=       0 NMMI=      0 NMMIF=      0
                NMic=       0 NMicF=      0.
                    Isotopes and Nuclear Properties:
 (Nuclear quadrupole moments (NQMom) in fm**2, nuclear magnetic moments (NMagM)
  in nuclear magnetons)

  Atom         1           2           3           4           5           6           7           8           9          10
 IAtWgt=          24          12          12          12          12          14          12          12          12          12
 AtmWgt=  23.9850450  12.0000000  12.0000000  12.0000000  12.0000000  14.0030740  12.0000000  12.0000000  12.0000000  12.0000000
 NucSpn=           0           0           0           0           0           2           0           0           0           0
 AtZEff=  -0.0000000  -0.0000000  -0.0000000  -0.0000000  -0.0000000  -0.0000000  -0.0000000  -0.0000000  -0.0000000  -0.0000000
 NQMom=    0.0000000   0.0000000   0.0000000   0.0000000   0.0000000   2.0440000   0.0000000   0.0000000   0.0000000   0.0000000
 NMagM=    0.0000000   0.0000000   0.0000000   0.0000000   0.0000000   0.4037610   0.0000000   0.0000000   0.0000000   0.0000000
 AtZNuc=  12.0000000   6.0000000   6.0000000   6.0000000   6.0000000   7.0000000   6.0000000   6.0000000   6.0000000   6.0000000

  Atom        11          12          13          14          15          16          17          18          19          20
 IAtWgt=          12          12          12           1          14          12          12          12          12          12
 AtmWgt=  12.0000000  12.0000000  12.0000000   1.0078250  14.0030740  12.0000000  12.0000000  12.0000000  12.0000000  12.0000000
 NucSpn=           0           0           0           1           2           0           0           0           0           0
 AtZEff=  -0.0000000  -0.0000000  -0.0000000  -0.0000000  -0.0000000  -0.0000000  -0.0000000  -0.0000000  -0.0000000  -0.0000000
 NQMom=    0.0000000   0.0000000   0.0000000   0.0000000   2.0440000   0.0000000   0.0000000   0.0000000   0.0000000   0.0000000
 NMagM=    0.0000000   0.0000000   0.0000000   2.7928460   0.4037610   0.0000000   0.0000000   0.0000000   0.0000000   0.0000000
 AtZNuc=   6.0000000   6.0000000   6.0000000   1.0000000   7.0000000   6.0000000   6.0000000   6.0000000   6.0000000   6.0000000

  Atom        21          22          23          24          25          26          27          28          29          30
 IAtWgt=          12          16          12          14          12          12          12          12          12          12
 AtmWgt=  12.0000000  15.9949146  12.0000000  14.0030740  12.0000000  12.0000000  12.0000000  12.0000000  12.0000000  12.0000000
 NucSpn=           0           0           0           2           0           0           0           0           0           0
 AtZEff=  -0.0000000  -0.0000000  -0.0000000  -0.0000000  -0.0000000  -0.0000000  -0.0000000  -0.0000000  -0.0000000  -0.0000000
 NQMom=    0.0000000   0.0000000   0.0000000   2.0440000   0.0000000   0.0000000   0.0000000   0.0000000   0.0000000   0.0000000
 NMagM=    0.0000000   0.0000000   0.0000000   0.4037610   0.0000000   0.0000000   0.0000000   0.0000000   0.0000000   0.0000000
 AtZNuc=   6.0000000   8.0000000   6.0000000   7.0000000   6.0000000   6.0000000   6.0000000   6.0000000   6.0000000   6.0000000

  Atom        31          32          33          34          35          36          37          38          39          40
 IAtWgt=          12          14          12          12          12          12          12          12          16          12
 AtmWgt=  12.0000000  14.0030740  12.0000000  12.0000000  12.0000000  12.0000000  12.0000000  12.0000000  15.9949146  12.0000000
 NucSpn=           0           2           0           0           0           0           0           0           0           0
 AtZEff=  -0.0000000  -0.0000000  -0.0000000  -0.0000000  -0.0000000  -0.0000000  -0.0000000  -0.0000000  -0.0000000  -0.0000000
 NQMom=    0.0000000   2.0440000   0.0000000   0.0000000   0.0000000   0.0000000   0.0000000   0.0000000   0.0000000   0.0000000
 NMagM=    0.0000000   0.4037610   0.0000000   0.0000000   0.0000000   0.0000000   0.0000000   0.0000000   0.0000000   0.0000000
 AtZNuc=   6.0000000   7.0000000   6.0000000   6.0000000   6.0000000   6.0000000   6.0000000   6.0000000   8.0000000   6.0000000

  Atom        41          42          43          44          45          46          47          48          49          50
 IAtWgt=          12          16          16          12           1           1           1           1           1           1
 AtmWgt=  12.0000000  15.9949146  15.9949146  12.0000000   1.0078250   1.0078250   1.0078250   1.0078250   1.0078250   1.0078250
 NucSpn=           0           0           0           0           1           1           1           1           1           1
 AtZEff=  -0.0000000  -0.0000000  -0.0000000  -0.0000000  -0.0000000  -0.0000000  -0.0000000  -0.0000000  -0.0000000  -0.0000000
 NQMom=    0.0000000   0.0000000   0.0000000   0.0000000   0.0000000   0.0000000   0.0000000   0.0000000   0.0000000   0.0000000
 NMagM=    0.0000000   0.0000000   0.0000000   0.0000000   2.7928460   2.7928460   2.7928460   2.7928460   2.7928460   2.7928460
 AtZNuc=   6.0000000   8.0000000   8.0000000   6.0000000   1.0000000   1.0000000   1.0000000   1.0000000   1.0000000   1.0000000

  Atom        51          52          53          54          55          56          57          58          59          60
 IAtWgt=           1           1           1           1           1           1           1           1           1           1
 AtmWgt=   1.0078250   1.0078250   1.0078250   1.0078250   1.0078250   1.0078250   1.0078250   1.0078250   1.0078250   1.0078250
 NucSpn=           1           1           1           1           1           1           1           1           1           1
 AtZEff=  -0.0000000  -0.0000000  -0.0000000  -0.0000000  -0.0000000  -0.0000000  -0.0000000  -0.0000000  -0.0000000  -0.0000000
 NQMom=    0.0000000   0.0000000   0.0000000   0.0000000   0.0000000   0.0000000   0.0000000   0.0000000   0.0000000   0.0000000
 NMagM=    2.7928460   2.7928460   2.7928460   2.7928460   2.7928460   2.7928460   2.7928460   2.7928460   2.7928460   2.7928460
 AtZNuc=   1.0000000   1.0000000   1.0000000   1.0000000   1.0000000   1.0000000   1.0000000   1.0000000   1.0000000   1.0000000

  Atom        61          62          63          64          65          66          67          68          69          70
 IAtWgt=           1           1           1           1           1           1           1           1           1           1
 AtmWgt=   1.0078250   1.0078250   1.0078250   1.0078250   1.0078250   1.0078250   1.0078250   1.0078250   1.0078250   1.0078250
 NucSpn=           1           1           1           1           1           1           1           1           1           1
 AtZEff=  -0.0000000  -0.0000000  -0.0000000  -0.0000000  -0.0000000  -0.0000000  -0.0000000  -0.0000000  -0.0000000  -0.0000000
 NQMom=    0.0000000   0.0000000   0.0000000   0.0000000   0.0000000   0.0000000   0.0000000   0.0000000   0.0000000   0.0000000
 NMagM=    2.7928460   2.7928460   2.7928460   2.7928460   2.7928460   2.7928460   2.7928460   2.7928460   2.7928460   2.7928460
 AtZNuc=   1.0000000   1.0000000   1.0000000   1.0000000   1.0000000   1.0000000   1.0000000   1.0000000   1.0000000   1.0000000

  Atom        71          72          73          74          75          76          77          78          79          80
 IAtWgt=           1           1           1           1           1           1           1           1           1          24
 AtmWgt=   1.0078250   1.0078250   1.0078250   1.0078250   1.0078250   1.0078250   1.0078250   1.0078250   1.0078250  23.9850450
 NucSpn=           1           1           1           1           1           1           1           1           1           0
 AtZEff=  -0.0000000  -0.0000000  -0.0000000  -0.0000000  -0.0000000  -0.0000000  -0.0000000  -0.0000000  -0.0000000  -0.0000000
 NQMom=    0.0000000   0.0000000   0.0000000   0.0000000   0.0000000   0.0000000   0.0000000   0.0000000   0.0000000   0.0000000
 NMagM=    2.7928460   2.7928460   2.7928460   2.7928460   2.7928460   2.7928460   2.7928460   2.7928460   2.7928460   0.0000000
 AtZNuc=   1.0000000   1.0000000   1.0000000   1.0000000   1.0000000   1.0000000   1.0000000   1.0000000   1.0000000  12.0000000

  Atom        81          82          83          84          85          86          87          88          89          90
 IAtWgt=          12          12          12          12          14          12          12          12          12          12
 AtmWgt=  12.0000000  12.0000000  12.0000000  12.0000000  14.0030740  12.0000000  12.0000000  12.0000000  12.0000000  12.0000000
 NucSpn=           0           0           0           0           2           0           0           0           0           0
 AtZEff=  -0.0000000  -0.0000000  -0.0000000  -0.0000000  -0.0000000  -0.0000000  -0.0000000  -0.0000000  -0.0000000  -0.0000000
 NQMom=    0.0000000   0.0000000   0.0000000   0.0000000   2.0440000   0.0000000   0.0000000   0.0000000   0.0000000   0.0000000
 NMagM=    0.0000000   0.0000000   0.0000000   0.0000000   0.4037610   0.0000000   0.0000000   0.0000000   0.0000000   0.0000000
 AtZNuc=   6.0000000   6.0000000   6.0000000   6.0000000   7.0000000   6.0000000   6.0000000   6.0000000   6.0000000   6.0000000

  Atom        91          92          93          94          95          96          97          98          99         100
 IAtWgt=          12          12           1          14          12          12          12          12          12          12
 AtmWgt=  12.0000000  12.0000000   1.0078250  14.0030740  12.0000000  12.0000000  12.0000000  12.0000000  12.0000000  12.0000000
 NucSpn=           0           0           1           2           0           0           0           0           0           0
 AtZEff=  -0.0000000  -0.0000000  -0.0000000  -0.0000000  -0.0000000  -0.0000000  -0.0000000  -0.0000000  -0.0000000  -0.0000000
 NQMom=    0.0000000   0.0000000   0.0000000   2.0440000   0.0000000   0.0000000   0.0000000   0.0000000   0.0000000   0.0000000
 NMagM=    0.0000000   0.0000000   2.7928460   0.4037610   0.0000000   0.0000000   0.0000000   0.0000000   0.0000000   0.0000000
 AtZNuc=   6.0000000   6.0000000   1.0000000   7.0000000   6.0000000   6.0000000   6.0000000   6.0000000   6.0000000   6.0000000

  Atom       101         102         103         104         105         106         107         108         109         110
 IAtWgt=          16          12          14          12          12          12          12          12          12          12
 AtmWgt=  15.9949146  12.0000000  14.0030740  12.0000000  12.0000000  12.0000000  12.0000000  12.0000000  12.0000000  12.0000000
 NucSpn=           0           0           2           0           0           0           0           0           0           0
 AtZEff=  -0.0000000  -0.0000000  -0.0000000  -0.0000000  -0.0000000  -0.0000000  -0.0000000  -0.0000000  -0.0000000  -0.0000000
 NQMom=    0.0000000   0.0000000   2.0440000   0.0000000   0.0000000   0.0000000   0.0000000   0.0000000   0.0000000   0.0000000
 NMagM=    0.0000000   0.0000000   0.4037610   0.0000000   0.0000000   0.0000000   0.0000000   0.0000000   0.0000000   0.0000000
 AtZNuc=   8.0000000   6.0000000   7.0000000   6.0000000   6.0000000   6.0000000   6.0000000   6.0000000   6.0000000   6.0000000

  Atom       111         112         113         114         115         116         117         118         119         120
 IAtWgt=          14          12          12          12          12          12          12          16          12          12
 AtmWgt=  14.0030740  12.0000000  12.0000000  12.0000000  12.0000000  12.0000000  12.0000000  15.9949146  12.0000000  12.0000000
 NucSpn=           2           0           0           0           0           0           0           0           0           0
 AtZEff=  -0.0000000  -0.0000000  -0.0000000  -0.0000000  -0.0000000  -0.0000000  -0.0000000  -0.0000000  -0.0000000  -0.0000000
 NQMom=    2.0440000   0.0000000   0.0000000   0.0000000   0.0000000   0.0000000   0.0000000   0.0000000   0.0000000   0.0000000
 NMagM=    0.4037610   0.0000000   0.0000000   0.0000000   0.0000000   0.0000000   0.0000000   0.0000000   0.0000000   0.0000000
 AtZNuc=   7.0000000   6.0000000   6.0000000   6.0000000   6.0000000   6.0000000   6.0000000   8.0000000   6.0000000   6.0000000

  Atom       121         122         123         124         125         126         127         128         129         130
 IAtWgt=          16          16          12           1           1           1           1           1           1           1
 AtmWgt=  15.9949146  15.9949146  12.0000000   1.0078250   1.0078250   1.0078250   1.0078250   1.0078250   1.0078250   1.0078250
 NucSpn=           0           0           0           1           1           1           1           1           1           1
 AtZEff=  -0.0000000  -0.0000000  -0.0000000  -0.0000000  -0.0000000  -0.0000000  -0.0000000  -0.0000000  -0.0000000  -0.0000000
 NQMom=    0.0000000   0.0000000   0.0000000   0.0000000   0.0000000   0.0000000   0.0000000   0.0000000   0.0000000   0.0000000
 NMagM=    0.0000000   0.0000000   0.0000000   2.7928460   2.7928460   2.7928460   2.7928460   2.7928460   2.7928460   2.7928460
 AtZNuc=   8.0000000   8.0000000   6.0000000   1.0000000   1.0000000   1.0000000   1.0000000   1.0000000   1.0000000   1.0000000

  Atom       131         132         133         134         135         136         137         138         139         140
 IAtWgt=           1           1           1           1           1           1           1           1           1           1
 AtmWgt=   1.0078250   1.0078250   1.0078250   1.0078250   1.0078250   1.0078250   1.0078250   1.0078250   1.0078250   1.0078250
 NucSpn=           1           1           1           1           1           1           1           1           1           1
 AtZEff=  -0.0000000  -0.0000000  -0.0000000  -0.0000000  -0.0000000  -0.0000000  -0.0000000  -0.0000000  -0.0000000  -0.0000000
 NQMom=    0.0000000   0.0000000   0.0000000   0.0000000   0.0000000   0.0000000   0.0000000   0.0000000   0.0000000   0.0000000
 NMagM=    2.7928460   2.7928460   2.7928460   2.7928460   2.7928460   2.7928460   2.7928460   2.7928460   2.7928460   2.7928460
 AtZNuc=   1.0000000   1.0000000   1.0000000   1.0000000   1.0000000   1.0000000   1.0000000   1.0000000   1.0000000   1.0000000

  Atom       141         142         143         144         145         146         147         148         149         150
 IAtWgt=           1           1           1           1           1           1           1           1           1           1
 AtmWgt=   1.0078250   1.0078250   1.0078250   1.0078250   1.0078250   1.0078250   1.0078250   1.0078250   1.0078250   1.0078250
 NucSpn=           1           1           1           1           1           1           1           1           1           1
 AtZEff=  -0.0000000  -0.0000000  -0.0000000  -0.0000000  -0.0000000  -0.0000000  -0.0000000  -0.0000000  -0.0000000  -0.0000000
 NQMom=    0.0000000   0.0000000   0.0000000   0.0000000   0.0000000   0.0000000   0.0000000   0.0000000   0.0000000   0.0000000
 NMagM=    2.7928460   2.7928460   2.7928460   2.7928460   2.7928460   2.7928460   2.7928460   2.7928460   2.7928460   2.7928460
 AtZNuc=   1.0000000   1.0000000   1.0000000   1.0000000   1.0000000   1.0000000   1.0000000   1.0000000   1.0000000   1.0000000

  Atom       151         152         153         154         155         156         157         158
 IAtWgt=           1           1           1           1           1           1           1           1
 AtmWgt=   1.0078250   1.0078250   1.0078250   1.0078250   1.0078250   1.0078250   1.0078250   1.0078250
 NucSpn=           1           1           1           1           1           1           1           1
 AtZEff=  -0.0000000  -0.0000000  -0.0000000  -0.0000000  -0.0000000  -0.0000000  -0.0000000  -0.0000000
 NQMom=    0.0000000   0.0000000   0.0000000   0.0000000   0.0000000   0.0000000   0.0000000   0.0000000
 NMagM=    2.7928460   2.7928460   2.7928460   2.7928460   2.7928460   2.7928460   2.7928460   2.7928460
 AtZNuc=   1.0000000   1.0000000   1.0000000   1.0000000   1.0000000   1.0000000   1.0000000   1.0000000
 Leave Link  101 at Sun Sep 12 14:30:02 2021, MaxMem= 23488102400 cpu:               3.3 elap:               0.2
 (Enter /sw/apps/gaussian-16.0/g16/l202.exe)
 Stoichiometry    C68H72Mg2N8O8
 Framework group  C1[X(C68H72Mg2N8O8)]
 Deg. of freedom   468
 Full point group                 C1      NOp   1
 Largest Abelian subgroup         C1      NOp   1
 Largest concise Abelian subgroup C1      NOp   1
                         Standard orientation:                         
 ---------------------------------------------------------------------
 Center     Atomic      Atomic             Coordinates (Angstroms)
 Number     Number       Type             X           Y           Z
 ---------------------------------------------------------------------
      1         12           0       15.588723    0.635290    0.318460
      2          6           0       15.866860   -2.456788   -1.463086
      3          6           0       16.511399    2.208278   -2.565537
      4          6           0       15.791845    3.328449    1.980463
      5          6           0       15.804513   -1.213210    3.265008
      6          7           0       16.096312   -0.135275   -1.693809
      7          6           0       16.106555   -1.336842   -2.262406
      8          6           0       16.321613   -1.288676   -3.804743
      9          6           0       17.061084    0.119760   -3.911933
     10          6           0       16.496745    0.785587   -2.669307
     11          6           0       18.576976    0.024179   -3.772512
     12          6           0       14.969192   -1.287192   -4.593848
     13          6           0       15.087910   -1.569533   -6.094362
     14          1           0       14.035406   -2.331859   -6.748918
     15          7           0       15.600774    2.516048   -0.286067
     16          6           0       15.992414    2.974236   -1.499314
     17          6           0       15.815048    4.441707   -1.457476
     18          6           0       15.468602    4.818472   -0.058864
     19          6           0       15.634379    3.556220    0.615388
     20          6           0       15.926864    5.318830   -2.666568
     21          6           0       15.064101    6.113257    0.572043
     22          8           0       15.034221    6.271816    1.840326
     23          6           0       14.785396    7.232512   -0.345907
     24          7           0       15.992077    1.037638    2.326707
     25          6           0       15.961714    2.288454    2.799488
     26          6           0       15.999193    2.306489    4.298891
     27          6           0       15.815885    0.789955    4.763946
     28          6           0       15.785086    0.117512    3.369262
     29          6           0       17.274230    2.883122    4.929594
     30          6           0       14.660239    0.492229    5.752005
     31          6           0       13.329969    0.712240    5.067115
     32          7           0       15.620649   -1.469206    0.848673
     33          6           0       15.738427   -2.012638    2.136106
     34          6           0       15.822875   -3.476500    1.981034
     35          6           0       15.764655   -3.683227    0.604183
     36          6           0       15.677474   -2.426519   -0.060180
     37          6           0       15.995199   -4.417529    3.034220
     38          6           0       15.780630   -4.672091   -0.461532
     39          8           0       15.746240   -5.902774   -0.503139
     40          6           0       15.970220   -3.911730   -1.847798
     41          6           0       14.950831   -4.458909   -2.809438
     42          8           0       13.731683   -4.261719   -2.630107
     43          8           0       15.574838   -4.918691   -3.904772
     44          6           0       14.617952   -5.448978   -4.912402
     45          1           0       17.017176    2.788776   -3.339587
     46          1           0       15.755513    4.227278    2.599515
     47          1           0       15.788297   -1.859731    4.144326
     48          1           0       16.963174   -2.076949   -4.199015
     49          1           0       16.762901    0.669037   -4.804740
     50          1           0       18.888690   -0.982126   -3.493039
     51          1           0       18.842815    0.735969   -2.990733
     52          1           0       19.072164    0.375132   -4.678269
     53          1           0       14.573411   -0.272139   -4.626805
     54          1           0       14.262605   -1.989186   -4.149703
     55          1           0       16.067599   -1.975995   -6.347161
     56          1           0       15.043935   -0.618582   -6.625359
     57          1           0       16.353056    4.781700   -3.512970
     58          1           0       16.662919    6.088358   -2.434710
     59          1           0       14.975999    5.785403   -2.924440
     60          1           0       15.673292    7.436464   -0.944733
     61          1           0       14.425001    8.050060    0.277456
     62          1           0       14.006411    6.929344   -1.046064
     63          1           0       15.184008    2.905134    4.703270
     64          1           0       16.702918    0.406988    5.269102
     65          1           0       17.089089    3.717101    5.607020
     66          1           0       17.946290    3.175905    4.123428
     67          1           0       17.884980    2.159524    5.468859
     68          1           0       14.701141    1.174882    6.600096
     69          1           0       14.680157   -0.524849    6.143676
     70          1           0       13.178536    1.786284    5.168749
     71          1           0       12.542672    0.156894    5.577962
     72          1           0       13.389547    0.490984    4.001290
     73          1           0       15.310628   -5.239229    2.824120
     74          1           0       15.788037   -3.967719    4.004971
     75          1           0       17.047474   -4.671664    2.907773
     76          1           0       16.990170   -4.108739   -2.176448
     77          1           0       14.914820   -6.475460   -5.127897
     78          1           0       14.614092   -4.739094   -5.739720
     79          1           0       13.592798   -5.598444   -4.571727
     80         12           0      -16.141818    0.275925   -0.401004
     81          6           0      -14.250089   -1.627926    1.981387
     82          6           0      -14.857004    3.084235    1.047182
     83          6           0      -18.133946    1.985963   -2.182743
     84          6           0      -18.112938   -2.556153   -0.890613
     85          7           0      -14.743476    0.562000    1.288699
     86          6           0      -14.041238   -0.236385    2.078488
     87          6           0      -13.001060    0.493472    2.970064
     88          6           0      -13.688083    1.944612    3.002335
     89          6           0      -14.452563    1.882539    1.681581
     90          6           0      -14.694192    2.109213    4.129272
     91          6           0      -11.579038    0.545755    2.308891
     92          6           0      -10.447653    0.966780    3.249338
     93          1           0       -9.133528    0.354224    3.075211
     94          7           0      -16.101871    2.199884   -0.886123
     95          6           0      -15.515696    3.200952   -0.196533
     96          6           0      -15.787922    4.428632   -0.959996
     97          6           0      -16.722203    4.093927   -2.068953
     98          6           0      -17.045669    2.721149   -1.735849
     99          6           0      -15.120721    5.739116   -0.658504
    100          6           0      -17.248656    4.883268   -3.229119
    101          8           0      -18.234955    4.467542   -3.934250
    102          6           0      -16.636529    6.200282   -3.457729
    103          7           0      -17.999163   -0.142083   -1.236386
    104          6           0      -18.626996    0.759158   -2.011960
    105          6           0      -19.807535    0.140017   -2.721452
    106          6           0      -19.697409   -1.431733   -2.447528
    107          6           0      -18.468623   -1.440059   -1.511892
    108          6           0      -21.184065    0.637830   -2.281328
    109          6           0      -19.686570   -2.363629   -3.690155
    110          6           0      -18.414868   -2.155170   -4.480533
    111          7           0      -16.088959   -1.786039    0.242088
    112          6           0      -17.027386   -2.797570   -0.058341
    113          6           0      -16.626871   -4.001610    0.698150
    114          6           0      -15.487386   -3.597021    1.409746
    115          6           0      -15.209909   -2.231027    1.133007
    116          6           0      -17.316871   -5.246580    0.706479
    117          6           0      -14.462375   -4.011858    2.340312
    118          8           0      -14.137441   -5.081165    2.854845
    119          6           0      -13.689497   -2.719792    2.849841
    120          6           0      -12.213633   -2.996610    2.762100
    121          8           0      -11.666941   -3.166397    1.658049
    122          8           0      -11.655894   -2.800390    3.970734
    123          6           0      -10.190612   -3.051940    3.932029
    124          1           0      -14.692795    4.027261    1.569311
    125          1           0      -18.791077    2.498411   -2.889180
    126          1           0      -18.618904   -3.508095   -1.065191
    127          1           0      -12.911124    0.102194    3.976343
    128          1           0      -12.942727    2.735207    2.974684
    129          1           0      -14.868590    1.180778    4.652462
    130          1           0      -15.605887    2.456779    3.661246
    131          1           0      -14.377315    2.910031    4.803531
    132          1           0      -11.547404    1.377097    1.592926
    133          1           0      -11.337249   -0.393408    1.850472
    134          1           0      -10.752033    0.930594    4.302427
    135          1           0      -10.222797    2.021201    3.071434
    136          1           0      -14.612522    5.717549    0.313441
    137          1           0      -15.916286    6.481470   -0.532611
    138          1           0      -14.454977    6.066988   -1.459710
    139          1           0      -16.761154    6.815474   -2.569772
    140          1           0      -17.081759    6.572959   -4.382258
    141          1           0      -15.558269    6.065269   -3.598253
    142          1           0      -19.752689    0.315388   -3.788855
    143          1           0      -20.546398   -1.802458   -1.854563
    144          1           0      -21.784982    1.051692   -3.113014
    145          1           0      -21.046874    1.379416   -1.505593
    146          1           0      -21.806257   -0.104303   -1.784026
    147          1           0      -20.512832   -2.111869   -4.359550
    148          1           0      -19.782107   -3.415453   -3.442101
    149          1           0      -18.646272   -1.279140   -5.093808
    150          1           0      -18.201322   -3.024645   -5.098961
    151          1           0      -17.581591   -1.885327   -3.821392
    152          1           0      -16.564372   -6.020118    0.629747
    153          1           0      -18.035850   -5.308108   -0.107805
    154          1           0      -17.806008   -5.191951    1.682708
    155          1           0      -14.010063   -2.529214    3.874776
    156          1           0       -9.974752   -3.801563    4.699593
    157          1           0       -9.714100   -2.060385    4.048223
    158          1           0       -9.787715   -3.532287    3.048070
 ---------------------------------------------------------------------
 Rotational constants (GHZ):           0.0236829           0.0016669           0.0016480
 Leave Link  202 at Sun Sep 12 14:30:02 2021, MaxMem= 23488102400 cpu:               0.2 elap:               0.0
 (Enter /sw/apps/gaussian-16.0/g16/l301.exe)
 Standard basis: def2SVP (5D, 7F)
 Ernie: Thresh=  0.10000D-02 Tol=  0.10000D-05 Strict=F.
 There are  1658 symmetry adapted cartesian basis functions of A   symmetry.
 There are  1572 symmetry adapted basis functions of A   symmetry.
  1572 basis functions,  2678 primitive gaussians,  1658 cartesian basis functions
   312 alpha electrons      312 beta electrons
       nuclear repulsion energy     12339.3838149532 Hartrees.
 IExCor=20419 DFT=T Ex+Corr=CAM-B3LYP ExCW=0 ScaHFX=  1.000000
 ScaDFX=  1.000000  1.000000  1.000000  0.810000 ScalE2=  1.000000  1.000000
 IRadAn=      5 IRanWt=     -1 IRanGd=            0 ICorTp=0 IEmpDi=  4
 HFx  wShort=  0.000000 wLong=  0.330000 cFull=  0.190000 cShort=  0.000000 cLong=  0.460000
 DFx  wShort=  0.000000 wLong=  0.330000 cFull=  0.190000 cShort=  0.000000 cLong=  0.460000
 NAtoms=  158 NActive=  158 NUniq=  158 SFac= 1.00D+00 NAtFMM=   60 NAOKFM=T Big=T
 Integral buffers will be    131072 words long.
 Raffenetti 1 integral format.
 Two-electron integral symmetry is turned on.
 Leave Link  301 at Sun Sep 12 14:30:02 2021, MaxMem= 23488102400 cpu:               1.3 elap:               0.1
 (Enter /sw/apps/gaussian-16.0/g16/l302.exe)
 NPDir=0 NMtPBC=     1 NCelOv=     1 NCel=       1 NClECP=     1 NCelD=      1
         NCelK=      1 NCelE2=     1 NClLst=     1 CellRange=     0.0.
 One-electron integrals computed using PRISM.
 One-electron integral symmetry used in STVInt
   1 Symmetry operations used in ECPInt.
 ECPInt:  NShTT=  271216 NPrTT=  987664 LenC2=  103957 LenP2D=  239866.
 LDataN:  DoStor=T MaxTD1= 4 Len=   56
 NBasis=  1572 RedAO= T EigKep=  3.36D-04  NBF=  1572
 NBsUse=  1572 1.00D-06 EigRej= -1.00D+00 NBFU=  1572
 Precomputing XC quadrature grid using
 IXCGrd= 4 IRadAn=           5 IRanWt=          -1 IRanGd=           0 AccXCQ= 0.00D+00.
 Generated NRdTot=       0 NPtTot=           0 NUsed=           0 NTot=          32
 NSgBfM=   812   812   812   812   812 MxSgAt=   158 MxSgA2=    79.
 Leave Link  302 at Sun Sep 12 14:30:06 2021, MaxMem= 23488102400 cpu:              96.9 elap:               4.1
 (Enter /sw/apps/gaussian-16.0/g16/l303.exe)
 DipDrv:  MaxL=1.
 Leave Link  303 at Sun Sep 12 14:30:06 2021, MaxMem= 23488102400 cpu:               9.3 elap:               0.4
 (Enter /sw/apps/gaussian-16.0/g16/l308.exe)
 Leave Link  308 at Sun Sep 12 14:30:07 2021, MaxMem= 23488102400 cpu:              12.5 elap:               0.6
 (Enter /sw/apps/gaussian-16.0/g16/l401.exe)
 ExpMin= 3.36D-02 ExpMax= 4.95D+03 ExpMxC= 7.45D+02 IAcc=3 IRadAn=         5 AccDes= 0.00D+00
 Harris functional with IExCor=20419 and IRadAn=       5 diagonalized for initial guess.
 HarFok:  IExCor=20419 AccDes= 0.00D+00 IRadAn=         5 IDoV= 1 UseB2=F ITyADJ=14
 ICtDFT=  3500011 ScaDFX=  1.000000  1.000000  1.000000  1.000000
 FoFCou: FMM=F IPFlag=           0 FMFlag=      100000 FMFlg1=        2001
         NFxFlg=           0 DoJE=T BraDBF=F KetDBF=T FulRan=T
         wScrn=  0.000000 ICntrl=       500 IOpCl=  0 I1Cent=   200000004 NGrid=           0
         NMat0=    1 NMatS0=      1 NMatT0=    0 NMatD0=    1 NMtDS0=    0 NMtDT0=    0
 Petite list used in FoFCou.
 Harris En= -3918.65801550494    
 JPrj=0 DoOrth=F DoCkMO=F.
 Leave Link  401 at Sun Sep 12 14:30:14 2021, MaxMem= 23488102400 cpu:             159.0 elap:               6.7
 (Enter /sw/apps/gaussian-16.0/g16/l502.exe)
 Integral symmetry usage will be decided dynamically.
 Closed shell SCF:
 Using DIIS extrapolation, IDIIS=  1040.
 NGot= 23488102400 LenX= 23482547354 LenY= 23479796732
 Requested convergence on RMS density matrix=1.00D-08 within 128 cycles.
 Requested convergence on MAX density matrix=1.00D-06.
 Requested convergence on             energy=1.00D-06.
 No special actions if energy rises.
 Fock matrices will be formed incrementally for  20 cycles.

 Cycle   1  Pass 1  IDiag  1:
 FoFJK:  IHMeth= 1 ICntrl=       0 DoSepK=T KAlg= 0 I1Cent=           0 FoldK=F
 IRaf=         1 NMat=       1 IRICut=       1 DoRegI=T DoRafI=F ISym2E= 0 IDoP0=0 IntGTp=1.
 FoFCou: FMM=T IPFlag=           0 FMFlag=      100000 FMFlg1=        2001
         NFxFlg=           0 DoJE=T BraDBF=F KetDBF=F FulRan=T
         wScrn=  0.000000 ICntrl=       500 IOpCl=  0 I1Cent=           0 NGrid=           0
         NMat0=    1 NMatS0=      1 NMatT0=    0 NMatD0=    1 NMtDS0=    0 NMtDT0=    0
 Symmetry not used in FoFCou.
 FMM levels:  10  Number of levels for PrismC:   9
 E= -4068.94928559160    
 DIIS: error= 2.04D-02 at cycle   1 NSaved=   1.
 NSaved= 1 IEnMin= 1 EnMin= -4068.94928559160     IErMin= 1 ErrMin= 2.04D-02
 ErrMax= 2.04D-02  0.00D+00 EMaxC= 1.00D-01 BMatC= 1.69D+00 BMatP= 1.69D+00
 IDIUse=3 WtCom= 7.96D-01 WtEn= 2.04D-01
 Coeff-Com:  0.100D+01
 Coeff-En:   0.100D+01
 Coeff:      0.100D+01
 Gap=     0.120 Goal=   None    Shift=    0.000
 GapD=    0.120 DampG=1.000 DampE=0.500 DampFc=0.5000 IDamp=-1.
 Damping current iteration by 5.00D-01
 RMSDP=1.57D-03 MaxDP=1.35D-01              OVMax= 2.03D-01

 Cycle   2  Pass 1  IDiag  1:
 RMSU=  7.69D-04    CP:  9.82D-01
 E= -4069.33820717406     Delta-E=       -0.388921582460 Rises=F Damp=T
 DIIS: error= 1.27D-02 at cycle   2 NSaved=   2.
 NSaved= 2 IEnMin= 2 EnMin= -4069.33820717406     IErMin= 2 ErrMin= 1.27D-02
 ErrMax= 1.27D-02  0.00D+00 EMaxC= 1.00D-01 BMatC= 3.07D-01 BMatP= 1.69D+00
 IDIUse=3 WtCom= 8.73D-01 WtEn= 1.27D-01
 Coeff-Com: -0.213D+00 0.121D+01
 Coeff-En:   0.000D+00 0.100D+01
 Coeff:     -0.186D+00 0.119D+01
 Gap=     0.138 Goal=   None    Shift=    0.000
 RMSDP=7.65D-04 MaxDP=9.44D-02 DE=-3.89D-01 OVMax= 1.88D-01

 Cycle   3  Pass 1  IDiag  1:
 RMSU=  7.32D-04    CP:  9.68D-01  1.24D+00
 E= -4069.62801456634     Delta-E=       -0.289807392277 Rises=F Damp=F
 DIIS: error= 1.58D-02 at cycle   3 NSaved=   3.
 NSaved= 3 IEnMin= 3 EnMin= -4069.62801456634     IErMin= 2 ErrMin= 1.27D-02
 ErrMax= 1.58D-02  0.00D+00 EMaxC= 1.00D-01 BMatC= 2.02D-01 BMatP= 3.07D-01
 IDIUse=3 WtCom= 8.42D-01 WtEn= 1.58D-01
 Coeff-Com: -0.267D+00 0.652D+00 0.616D+00
 Coeff-En:   0.000D+00 0.000D+00 0.100D+01
 Coeff:     -0.225D+00 0.549D+00 0.676D+00
 Gap=     0.125 Goal=   None    Shift=    0.000
 RMSDP=5.08D-04 MaxDP=4.75D-02 DE=-2.90D-01 OVMax= 1.42D-01

 Cycle   4  Pass 1  IDiag  1:
 RMSU=  2.65D-04    CP:  9.65D-01  1.55D+00  5.06D-01
 E= -4069.76509959458     Delta-E=       -0.137085028244 Rises=F Damp=F
 DIIS: error= 7.32D-03 at cycle   4 NSaved=   4.
 NSaved= 4 IEnMin= 4 EnMin= -4069.76509959458     IErMin= 4 ErrMin= 7.32D-03
 ErrMax= 7.32D-03  0.00D+00 EMaxC= 1.00D-01 BMatC= 5.04D-02 BMatP= 2.02D-01
 IDIUse=3 WtCom= 9.27D-01 WtEn= 7.32D-02
 Coeff-Com: -0.109D+00 0.226D+00 0.409D+00 0.474D+00
 Coeff-En:   0.000D+00 0.000D+00 0.221D+00 0.779D+00
 Coeff:     -0.101D+00 0.209D+00 0.395D+00 0.497D+00
 Gap=     0.123 Goal=   None    Shift=    0.000
 RMSDP=2.00D-04 MaxDP=2.06D-02 DE=-1.37D-01 OVMax= 6.17D-02

 Cycle   5  Pass 1  IDiag  1:
 RMSU=  7.58D-05    CP:  9.64D-01  1.49D+00  6.89D-01  5.50D-01
 E= -4069.81053348636     Delta-E=       -0.045433891777 Rises=F Damp=F
 DIIS: error= 7.87D-04 at cycle   5 NSaved=   5.
 NSaved= 5 IEnMin= 5 EnMin= -4069.81053348636     IErMin= 5 ErrMin= 7.87D-04
 ErrMax= 7.87D-04  0.00D+00 EMaxC= 1.00D-01 BMatC= 1.16D-03 BMatP= 5.04D-02
 IDIUse=3 WtCom= 9.92D-01 WtEn= 7.87D-03
 Coeff-Com: -0.357D-01 0.701D-01 0.165D+00 0.249D+00 0.551D+00
 Coeff-En:   0.000D+00 0.000D+00 0.000D+00 0.000D+00 0.100D+01
 Coeff:     -0.355D-01 0.696D-01 0.164D+00 0.247D+00 0.555D+00
 Gap=     0.123 Goal=   None    Shift=    0.000
 RMSDP=4.07D-05 MaxDP=4.17D-03 DE=-4.54D-02 OVMax= 1.64D-02

 Cycle   6  Pass 1  IDiag  1:
 RMSU=  3.02D-05    CP:  9.64D-01  1.49D+00  6.81D-01  6.21D-01  7.59D-01
 E= -4069.81153859074     Delta-E=       -0.001005104379 Rises=F Damp=F
 DIIS: error= 2.19D-04 at cycle   6 NSaved=   6.
 NSaved= 6 IEnMin= 6 EnMin= -4069.81153859074     IErMin= 6 ErrMin= 2.19D-04
 ErrMax= 2.19D-04  0.00D+00 EMaxC= 1.00D-01 BMatC= 1.76D-04 BMatP= 1.16D-03
 IDIUse=3 WtCom= 9.98D-01 WtEn= 2.19D-03
 Coeff-Com:  0.231D-02-0.677D-02 0.109D-01 0.398D-01 0.306D+00 0.648D+00
 Coeff-En:   0.000D+00 0.000D+00 0.000D+00 0.000D+00 0.103D+00 0.897D+00
 Coeff:      0.230D-02-0.676D-02 0.108D-01 0.397D-01 0.306D+00 0.648D+00
 Gap=     0.123 Goal=   None    Shift=    0.000
 RMSDP=1.58D-05 MaxDP=1.24D-03 DE=-1.01D-03 OVMax= 7.23D-03

 Cycle   7  Pass 1  IDiag  1:
 RMSU=  1.07D-05    CP:  9.64D-01  1.50D+00  6.87D-01  6.21D-01  8.60D-01
                    CP:  7.49D-01
 E= -4069.81172691234     Delta-E=       -0.000188321603 Rises=F Damp=F
 DIIS: error= 8.38D-05 at cycle   7 NSaved=   7.
 NSaved= 7 IEnMin= 7 EnMin= -4069.81172691234     IErMin= 7 ErrMin= 8.38D-05
 ErrMax= 8.38D-05  0.00D+00 EMaxC= 1.00D-01 BMatC= 2.07D-05 BMatP= 1.76D-04
 IDIUse=1 WtCom= 1.00D+00 WtEn= 0.00D+00
 Coeff-Com:  0.445D-02-0.974D-02-0.898D-02-0.382D-02 0.102D+00 0.329D+00
 Coeff-Com:  0.587D+00
 Coeff:      0.445D-02-0.974D-02-0.898D-02-0.382D-02 0.102D+00 0.329D+00
 Coeff:      0.587D+00
 Gap=     0.123 Goal=   None    Shift=    0.000
 RMSDP=6.50D-06 MaxDP=1.11D-03 DE=-1.88D-04 OVMax= 3.41D-03

 Cycle   8  Pass 1  IDiag  1:
 RMSU=  4.67D-06    CP:  9.64D-01  1.50D+00  6.88D-01  6.26D-01  8.64D-01
                    CP:  8.76D-01  8.23D-01
 E= -4069.81175261297     Delta-E=       -0.000025700629 Rises=F Damp=F
 DIIS: error= 5.00D-05 at cycle   8 NSaved=   8.
 NSaved= 8 IEnMin= 8 EnMin= -4069.81175261297     IErMin= 8 ErrMin= 5.00D-05
 ErrMax= 5.00D-05  0.00D+00 EMaxC= 1.00D-01 BMatC= 4.82D-06 BMatP= 2.07D-05
 IDIUse=1 WtCom= 1.00D+00 WtEn= 0.00D+00
 Coeff-Com:  0.215D-02-0.426D-02-0.775D-02-0.121D-01-0.117D-01 0.336D-01
 Coeff-Com:  0.344D+00 0.656D+00
 Coeff:      0.215D-02-0.426D-02-0.775D-02-0.121D-01-0.117D-01 0.336D-01
 Coeff:      0.344D+00 0.656D+00
 Gap=     0.123 Goal=   None    Shift=    0.000
 RMSDP=3.27D-06 MaxDP=3.52D-04 DE=-2.57D-05 OVMax= 1.11D-03

 Cycle   9  Pass 1  IDiag  1:
 RMSU=  1.91D-06    CP:  9.64D-01  1.50D+00  6.88D-01  6.27D-01  8.81D-01
                    CP:  9.01D-01  1.02D+00  9.40D-01
 E= -4069.81176031405     Delta-E=       -0.000007701085 Rises=F Damp=F
 DIIS: error= 1.94D-05 at cycle   9 NSaved=   9.
 NSaved= 9 IEnMin= 9 EnMin= -4069.81176031405     IErMin= 9 ErrMin= 1.94D-05
 ErrMax= 1.94D-05  0.00D+00 EMaxC= 1.00D-01 BMatC= 6.87D-07 BMatP= 4.82D-06
 IDIUse=1 WtCom= 1.00D+00 WtEn= 0.00D+00
 Coeff-Com:  0.462D-03-0.767D-03-0.266D-02-0.599D-02-0.213D-01-0.386D-01
 Coeff-Com:  0.104D+00 0.326D+00 0.639D+00
 Coeff:      0.462D-03-0.767D-03-0.266D-02-0.599D-02-0.213D-01-0.386D-01
 Coeff:      0.104D+00 0.326D+00 0.639D+00
 Gap=     0.123 Goal=   None    Shift=    0.000
 RMSDP=1.42D-06 MaxDP=1.50D-04 DE=-7.70D-06 OVMax= 7.45D-04

 Cycle  10  Pass 1  IDiag  1:
 RMSU=  9.37D-07    CP:  9.64D-01  1.50D+00  6.88D-01  6.28D-01  8.84D-01
                    CP:  9.15D-01  1.07D+00  1.11D+00  1.05D+00
 E= -4069.81176190070     Delta-E=       -0.000001586643 Rises=F Damp=F
 DIIS: error= 1.02D-05 at cycle  10 NSaved=  10.
 NSaved=10 IEnMin=10 EnMin= -4069.81176190070     IErMin=10 ErrMin= 1.02D-05
 ErrMax= 1.02D-05  0.00D+00 EMaxC= 1.00D-01 BMatC= 1.71D-07 BMatP= 6.87D-07
 IDIUse=1 WtCom= 1.00D+00 WtEn= 0.00D+00
 Coeff-Com: -0.427D-03 0.895D-03 0.124D-02 0.113D-02-0.375D-02-0.310D-01
 Coeff-Com: -0.466D-01-0.766D-01 0.255D+00 0.900D+00
 Coeff:     -0.427D-03 0.895D-03 0.124D-02 0.113D-02-0.375D-02-0.310D-01
 Coeff:     -0.466D-01-0.766D-01 0.255D+00 0.900D+00
 Gap=     0.123 Goal=   None    Shift=    0.000
 RMSDP=1.22D-06 MaxDP=1.25D-04 DE=-1.59D-06 OVMax= 6.08D-04

 Cycle  11  Pass 1  IDiag  1:
 RMSU=  5.15D-07    CP:  9.64D-01  1.50D+00  6.88D-01  6.28D-01  8.87D-01
                    CP:  9.25D-01  1.11D+00  1.22D+00  1.39D+00  1.37D+00
 E= -4069.81176268901     Delta-E=       -0.000000788314 Rises=F Damp=F
 DIIS: error= 4.00D-06 at cycle  11 NSaved=  11.
 NSaved=11 IEnMin=11 EnMin= -4069.81176268901     IErMin=11 ErrMin= 4.00D-06
 ErrMax= 4.00D-06  0.00D+00 EMaxC= 1.00D-01 BMatC= 6.10D-08 BMatP= 1.71D-07
 IDIUse=1 WtCom= 1.00D+00 WtEn= 0.00D+00
 Coeff-Com: -0.327D-03 0.635D-03 0.133D-02 0.212D-02 0.443D-02-0.833D-02
 Coeff-Com: -0.435D-01-0.132D+00-0.236D-01 0.464D+00 0.735D+00
 Coeff:     -0.327D-03 0.635D-03 0.133D-02 0.212D-02 0.443D-02-0.833D-02
 Coeff:     -0.435D-01-0.132D+00-0.236D-01 0.464D+00 0.735D+00
 Gap=     0.123 Goal=   None    Shift=    0.000
 RMSDP=6.87D-07 MaxDP=5.83D-05 DE=-7.88D-07 OVMax= 3.72D-04

 Cycle  12  Pass 1  IDiag  1:
 RMSU=  2.62D-07    CP:  9.64D-01  1.50D+00  6.88D-01  6.28D-01  8.87D-01
                    CP:  9.28D-01  1.14D+00  1.28D+00  1.56D+00  1.76D+00
                    CP:  1.20D+00
 E= -4069.81176295224     Delta-E=       -0.000000263233 Rises=F Damp=F
 DIIS: error= 2.34D-06 at cycle  12 NSaved=  12.
 NSaved=12 IEnMin=12 EnMin= -4069.81176295224     IErMin=12 ErrMin= 2.34D-06
 ErrMax= 2.34D-06  0.00D+00 EMaxC= 1.00D-01 BMatC= 1.48D-08 BMatP= 6.10D-08
 IDIUse=1 WtCom= 1.00D+00 WtEn= 0.00D+00
 Coeff-Com:  0.127D-05-0.191D-04 0.174D-03 0.504D-03 0.329D-02 0.410D-02
 Coeff-Com:  0.299D-02-0.345D-01-0.679D-01-0.777D-01 0.249D+00 0.920D+00
 Coeff:      0.127D-05-0.191D-04 0.174D-03 0.504D-03 0.329D-02 0.410D-02
 Coeff:      0.299D-02-0.345D-01-0.679D-01-0.777D-01 0.249D+00 0.920D+00
 Gap=     0.123 Goal=   None    Shift=    0.000
 RMSDP=4.39D-07 MaxDP=2.98D-05 DE=-2.63D-07 OVMax= 2.49D-04

 Cycle  13  Pass 1  IDiag  1:
 RMSU=  1.65D-07    CP:  9.64D-01  1.50D+00  6.88D-01  6.28D-01  8.88D-01
                    CP:  9.28D-01  1.14D+00  1.31D+00  1.67D+00  1.99D+00
                    CP:  1.62D+00  1.28D+00
 E= -4069.81176304445     Delta-E=       -0.000000092205 Rises=F Damp=F
 DIIS: error= 1.26D-06 at cycle  13 NSaved=  13.
 NSaved=13 IEnMin=13 EnMin= -4069.81176304445     IErMin=13 ErrMin= 1.26D-06
 ErrMax= 1.26D-06  0.00D+00 EMaxC= 1.00D-01 BMatC= 8.12D-09 BMatP= 1.48D-08
 IDIUse=1 WtCom= 1.00D+00 WtEn= 0.00D+00
 Coeff-Com:  0.120D-03-0.245D-03-0.371D-03-0.459D-03 0.565D-03 0.508D-02
 Coeff-Com:  0.197D-01 0.228D-01-0.337D-01-0.242D+00-0.157D+00 0.600D+00
 Coeff-Com:  0.785D+00
 Coeff:      0.120D-03-0.245D-03-0.371D-03-0.459D-03 0.565D-03 0.508D-02
 Coeff:      0.197D-01 0.228D-01-0.337D-01-0.242D+00-0.157D+00 0.600D+00
 Coeff:      0.785D+00
 Gap=     0.123 Goal=   None    Shift=    0.000
 RMSDP=3.39D-07 MaxDP=2.07D-05 DE=-9.22D-08 OVMax= 1.96D-04

 Cycle  14  Pass 1  IDiag  1:
 RMSU=  7.60D-08    CP:  9.64D-01  1.50D+00  6.88D-01  6.28D-01  8.88D-01
                    CP:  9.29D-01  1.15D+00  1.33D+00  1.74D+00  2.18D+00
                    CP:  1.88D+00  1.79D+00  1.09D+00
 E= -4069.81176308040     Delta-E=       -0.000000035951 Rises=F Damp=F
 DIIS: error= 6.32D-07 at cycle  14 NSaved=  14.
 NSaved=14 IEnMin=14 EnMin= -4069.81176308040     IErMin=14 ErrMin= 6.32D-07
 ErrMax= 6.32D-07  0.00D+00 EMaxC= 1.00D-01 BMatC= 1.25D-09 BMatP= 8.12D-09
 IDIUse=1 WtCom= 1.00D+00 WtEn= 0.00D+00
 Coeff-Com:  0.662D-04-0.130D-03-0.246D-03-0.387D-03-0.485D-03 0.129D-02
 Coeff-Com:  0.108D-01 0.191D-01 0.379D-02-0.994D-01-0.142D+00 0.943D-01
 Coeff-Com:  0.404D+00 0.709D+00
 Coeff:      0.662D-04-0.130D-03-0.246D-03-0.387D-03-0.485D-03 0.129D-02
 Coeff:      0.108D-01 0.191D-01 0.379D-02-0.994D-01-0.142D+00 0.943D-01
 Coeff:      0.404D+00 0.709D+00
 Gap=     0.123 Goal=   None    Shift=    0.000
 RMSDP=1.01D-07 MaxDP=6.49D-06 DE=-3.60D-08 OVMax= 5.42D-05

 Cycle  15  Pass 1  IDiag  1:
 RMSU=  3.83D-08    CP:  9.64D-01  1.50D+00  6.88D-01  6.28D-01  8.88D-01
                    CP:  9.29D-01  1.15D+00  1.34D+00  1.76D+00  2.22D+00
                    CP:  1.98D+00  1.93D+00  1.32D+00  1.03D+00
 E= -4069.81176308431     Delta-E=       -0.000000003914 Rises=F Damp=F
 DIIS: error= 3.37D-07 at cycle  15 NSaved=  15.
 NSaved=15 IEnMin=15 EnMin= -4069.81176308431     IErMin=15 ErrMin= 3.37D-07
 ErrMax= 3.37D-07  0.00D+00 EMaxC= 1.00D-01 BMatC= 2.26D-10 BMatP= 1.25D-09
 IDIUse=1 WtCom= 1.00D+00 WtEn= 0.00D+00
 Coeff-Com:  0.511D-05-0.843D-05-0.318D-04-0.806D-04-0.299D-03-0.518D-03
 Coeff-Com:  0.111D-02 0.247D-02 0.877D-02 0.199D-02-0.306D-01-0.730D-01
 Coeff-Com:  0.285D-01 0.297D+00 0.764D+00
 Coeff:      0.511D-05-0.843D-05-0.318D-04-0.806D-04-0.299D-03-0.518D-03
 Coeff:      0.111D-02 0.247D-02 0.877D-02 0.199D-02-0.306D-01-0.730D-01
 Coeff:      0.285D-01 0.297D+00 0.764D+00
 Gap=     0.123 Goal=   None    Shift=    0.000
 RMSDP=4.07D-08 MaxDP=2.33D-06 DE=-3.91D-09 OVMax= 2.69D-05

 Cycle  16  Pass 1  IDiag  1:
 RMSU=  1.87D-08    CP:  9.64D-01  1.50D+00  6.88D-01  6.28D-01  8.88D-01
                    CP:  9.29D-01  1.15D+00  1.34D+00  1.76D+00  2.24D+00
                    CP:  2.01D+00  1.99D+00  1.40D+00  1.24D+00  1.14D+00
 E= -4069.81176308492     Delta-E=       -0.000000000604 Rises=F Damp=F
 DIIS: error= 1.64D-07 at cycle  16 NSaved=  16.
 NSaved=16 IEnMin=16 EnMin= -4069.81176308492     IErMin=16 ErrMin= 1.64D-07
 ErrMax= 1.64D-07  0.00D+00 EMaxC= 1.00D-01 BMatC= 8.14D-11 BMatP= 2.26D-10
 IDIUse=1 WtCom= 1.00D+00 WtEn= 0.00D+00
 Coeff-Com: -0.142D-04 0.288D-04 0.471D-04 0.540D-04-0.261D-04-0.634D-03
 Coeff-Com: -0.199D-02-0.427D-02 0.452D-02 0.256D-01 0.206D-01-0.647D-01
 Coeff-Com: -0.833D-01-0.368D-01 0.398D+00 0.743D+00
 Coeff:     -0.142D-04 0.288D-04 0.471D-04 0.540D-04-0.261D-04-0.634D-03
 Coeff:     -0.199D-02-0.427D-02 0.452D-02 0.256D-01 0.206D-01-0.647D-01
 Coeff:     -0.833D-01-0.368D-01 0.398D+00 0.743D+00
 Gap=     0.123 Goal=   None    Shift=    0.000
 RMSDP=2.29D-08 MaxDP=1.26D-06 DE=-6.04D-10 OVMax= 1.30D-05

 Cycle  17  Pass 1  IDiag  1:
 RMSU=  1.04D-08    CP:  9.64D-01  1.50D+00  6.88D-01  6.28D-01  8.88D-01
                    CP:  9.29D-01  1.15D+00  1.34D+00  1.77D+00  2.24D+00
                    CP:  2.02D+00  2.01D+00  1.45D+00  1.34D+00  1.44D+00
                    CP:  1.25D+00
 E= -4069.81176308544     Delta-E=       -0.000000000528 Rises=F Damp=F
 DIIS: error= 9.41D-08 at cycle  17 NSaved=  17.
 NSaved=17 IEnMin=17 EnMin= -4069.81176308544     IErMin=17 ErrMin= 9.41D-08
 ErrMax= 9.41D-08  0.00D+00 EMaxC= 1.00D-01 BMatC= 1.78D-11 BMatP= 8.14D-11
 IDIUse=1 WtCom= 1.00D+00 WtEn= 0.00D+00
 Coeff-Com: -0.717D-05 0.139D-04 0.285D-04 0.425D-04 0.842D-04-0.122D-03
 Coeff-Com: -0.959D-03-0.279D-02 0.130D-03 0.919D-02 0.174D-01-0.723D-02
 Coeff-Com: -0.369D-01-0.101D+00-0.316D-01 0.294D+00 0.860D+00
 Coeff:     -0.717D-05 0.139D-04 0.285D-04 0.425D-04 0.842D-04-0.122D-03
 Coeff:     -0.959D-03-0.279D-02 0.130D-03 0.919D-02 0.174D-01-0.723D-02
 Coeff:     -0.369D-01-0.101D+00-0.316D-01 0.294D+00 0.860D+00
 Gap=     0.123 Goal=   None    Shift=    0.000
 RMSDP=1.37D-08 MaxDP=8.73D-07 DE=-5.28D-10 OVMax= 8.88D-06

 Cycle  18  Pass 1  IDiag  1:
 RMSU=  4.87D-09    CP:  9.64D-01  1.50D+00  6.88D-01  6.28D-01  8.88D-01
                    CP:  9.29D-01  1.15D+00  1.34D+00  1.77D+00  2.24D+00
                    CP:  2.03D+00  2.02D+00  1.47D+00  1.41D+00  1.61D+00
                    CP:  1.66D+00  1.39D+00
 E= -4069.81176308552     Delta-E=       -0.000000000076 Rises=F Damp=F
 DIIS: error= 5.09D-08 at cycle  18 NSaved=  18.
 NSaved=18 IEnMin=18 EnMin= -4069.81176308552     IErMin=18 ErrMin= 5.09D-08
 ErrMax= 5.09D-08  0.00D+00 EMaxC= 1.00D-01 BMatC= 6.89D-12 BMatP= 1.78D-11
 IDIUse=1 WtCom= 1.00D+00 WtEn= 0.00D+00
 Coeff-Com:  0.209D-05-0.448D-05-0.470D-05-0.189D-05 0.590D-04 0.184D-03
 Coeff-Com:  0.409D-03 0.236D-03-0.129D-02-0.624D-02-0.181D-03 0.203D-01
 Coeff-Com:  0.186D-01-0.325D-01-0.163D+00-0.193D+00 0.348D+00 0.101D+01
 Coeff:      0.209D-05-0.448D-05-0.470D-05-0.189D-05 0.590D-04 0.184D-03
 Coeff:      0.409D-03 0.236D-03-0.129D-02-0.624D-02-0.181D-03 0.203D-01
 Coeff:      0.186D-01-0.325D-01-0.163D+00-0.193D+00 0.348D+00 0.101D+01
 Gap=     0.123 Goal=   None    Shift=    0.000
 RMSDP=1.18D-08 MaxDP=6.64D-07 DE=-7.64D-11 OVMax= 6.80D-06

 Cycle  19  Pass 1  IDiag  1:
 RMSU=  2.78D-09    CP:  9.64D-01  1.50D+00  6.88D-01  6.28D-01  8.88D-01
                    CP:  9.29D-01  1.15D+00  1.34D+00  1.77D+00  2.24D+00
                    CP:  2.03D+00  2.03D+00  1.48D+00  1.46D+00  1.77D+00
                    CP:  1.99D+00  1.94D+00  1.38D+00
 E= -4069.81176308552     Delta-E=       -0.000000000004 Rises=F Damp=F
 DIIS: error= 3.37D-08 at cycle  19 NSaved=  19.
 NSaved=19 IEnMin=19 EnMin= -4069.81176308552     IErMin=19 ErrMin= 3.37D-08
 ErrMax= 3.37D-08  0.00D+00 EMaxC= 1.00D-01 BMatC= 1.39D-12 BMatP= 6.89D-12
 IDIUse=1 WtCom= 1.00D+00 WtEn= 0.00D+00
 Coeff-Com:  0.286D-05-0.577D-05-0.981D-05-0.123D-04 0.106D-04 0.117D-03
 Coeff-Com:  0.472D-03 0.788D-03-0.584D-03-0.589D-02-0.478D-02 0.119D-01
 Coeff-Com:  0.199D-01 0.113D-01-0.678D-01-0.175D+00-0.336D-01 0.487D+00
 Coeff-Com:  0.757D+00
 Coeff:      0.286D-05-0.577D-05-0.981D-05-0.123D-04 0.106D-04 0.117D-03
 Coeff:      0.472D-03 0.788D-03-0.584D-03-0.589D-02-0.478D-02 0.119D-01
 Coeff:      0.199D-01 0.113D-01-0.678D-01-0.175D+00-0.336D-01 0.487D+00
 Coeff:      0.757D+00
 Gap=     0.123 Goal=   None    Shift=    0.000
 RMSDP=4.47D-09 MaxDP=2.69D-07 DE=-3.64D-12 OVMax= 2.90D-06

 SCF Done:  E(RCAM-B3LYP) =  -4069.81176309     A.U. after   19 cycles
            NFock= 19  Conv=0.45D-08     -V/T= 2.0102
 KE= 4.028802060375D+03 PE=-3.415964520760D+04 EE= 1.372164756919D+04
 Leave Link  502 at Sun Sep 12 14:38:34 2021, MaxMem= 23488102400 cpu:           11435.8 elap:             500.1
 (Enter /sw/apps/gaussian-16.0/g16/l801.exe)
 DoSCS=F DFT=T ScalE2(SS,OS)=  1.000000  1.000000
 ExpMin= 3.36D-02 ExpMax= 4.95D+03 ExpMxC= 7.45D+02 IAcc=3 IRadAn=         5 AccDes= 0.00D+00
 HarFok:  IExCor=  205 AccDes= 0.00D+00 IRadAn=         5 IDoV=-2 UseB2=F ITyADJ=14
 ICtDFT= 12500011 ScaDFX=  1.000000  1.000000  1.000000  1.000000
 GSVD:  LWork=       -9588 too small for GESVD, short by       45590 words or       45590 for optimal perf.
 Largest valence mixing into a core orbital is  2.03D-04
 Largest core mixing into a valence orbital is  5.24D-05
 Range of M.O.s used for correlation:    95  1572
 NBasis=  1572 NAE=   312 NBE=   312 NFC=    94 NFV=     0
 NROrb=   1478 NOA=   218 NOB=   218 NVA=  1260 NVB=  1260
 Leave Link  801 at Sun Sep 12 14:38:34 2021, MaxMem= 23488102400 cpu:               9.1 elap:               0.4
 (Enter /sw/apps/gaussian-16.0/g16/l914.exe)
 RHF ground state
 Two-electron integrals replicated using symmetry.
 MDV= 23488102400 DFT=T DoStab=F Mixed=T DoRPA=T DoScal=F NonHer=T
 Making orbital integer symmetry assigments:
 Orbital symmetries:
       Occupied  (A) (A) (A) (A) (A) (A) (A) (A) (A) (A) (A) (A)
                 (A) (A) (A) (A) (A) (A) (A) (A) (A) (A) (A) (A)
                 (A) (A) (A) (A) (A) (A) (A) (A) (A) (A) (A) (A)
                 (A) (A) (A) (A) (A) (A) (A) (A) (A) (A) (A) (A)
                 (A) (A) (A) (A) (A) (A) (A) (A) (A) (A) (A) (A)
                 (A) (A) (A) (A) (A) (A) (A) (A) (A) (A) (A) (A)
                 (A) (A) (A) (A) (A) (A) (A) (A) (A) (A) (A) (A)
                 (A) (A) (A) (A) (A) (A) (A) (A) (A) (A) (A) (A)
                 (A) (A) (A) (A) (A) (A) (A) (A) (A) (A) (A) (A)
                 (A) (A) (A) (A) (A) (A) (A) (A) (A) (A) (A) (A)
                 (A) (A) (A) (A) (A) (A) (A) (A) (A) (A) (A) (A)
                 (A) (A) (A) (A) (A) (A) (A) (A) (A) (A) (A) (A)
                 (A) (A) (A) (A) (A) (A) (A) (A) (A) (A) (A) (A)
                 (A) (A) (A) (A) (A) (A) (A) (A) (A) (A) (A) (A)
                 (A) (A) (A) (A) (A) (A) (A) (A) (A) (A) (A) (A)
                 (A) (A) (A) (A) (A) (A) (A) (A) (A) (A) (A) (A)
                 (A) (A) (A) (A) (A) (A) (A) (A) (A) (A) (A) (A)
                 (A) (A) (A) (A) (A) (A) (A) (A) (A) (A) (A) (A)
                 (A) (A) (A) (A) (A) (A) (A) (A) (A) (A) (A) (A)
                 (A) (A) (A) (A) (A) (A) (A) (A) (A) (A) (A) (A)
                 (A) (A) (A) (A) (A) (A) (A) (A) (A) (A) (A) (A)
                 (A) (A) (A) (A) (A) (A) (A) (A) (A) (A) (A) (A)
                 (A) (A) (A) (A) (A) (A) (A) (A) (A) (A) (A) (A)
                 (A) (A) (A) (A) (A) (A) (A) (A) (A) (A) (A) (A)
                 (A) (A) (A) (A) (A) (A) (A) (A) (A) (A) (A) (A)
                 (A) (A) (A) (A) (A) (A) (A) (A) (A) (A) (A) (A)
       Virtual   (A) (A) (A) (A) (A) (A) (A) (A) (A) (A) (A) (A)
                 (A) (A) (A) (A) (A) (A) (A) (A) (A) (A) (A) (A)
                 (A) (A) (A) (A) (A) (A) (A) (A) (A) (A) (A) (A)
                 (A) (A) (A) (A) (A) (A) (A) (A) (A) (A) (A) (A)
                 (A) (A) (A) (A) (A) (A) (A) (A) (A) (A) (A) (A)
                 (A) (A) (A) (A) (A) (A) (A) (A) (A) (A) (A) (A)
                 (A) (A) (A) (A) (A) (A) (A) (A) (A) (A) (A) (A)
                 (A) (A) (A) (A) (A) (A) (A) (A) (A) (A) (A) (A)
                 (A) (A) (A) (A) (A) (A) (A) (A) (A) (A) (A) (A)
                 (A) (A) (A) (A) (A) (A) (A) (A) (A) (A) (A) (A)
                 (A) (A) (A) (A) (A) (A) (A) (A) (A) (A) (A) (A)
                 (A) (A) (A) (A) (A) (A) (A) (A) (A) (A) (A) (A)
                 (A) (A) (A) (A) (A) (A) (A) (A) (A) (A) (A) (A)
                 (A) (A) (A) (A) (A) (A) (A) (A) (A) (A) (A) (A)
                 (A) (A) (A) (A) (A) (A) (A) (A) (A) (A) (A) (A)
                 (A) (A) (A) (A) (A) (A) (A) (A) (A) (A) (A) (A)
                 (A) (A) (A) (A) (A) (A) (A) (A) (A) (A) (A) (A)
                 (A) (A) (A) (A) (A) (A) (A) (A) (A) (A) (A) (A)
                 (A) (A) (A) (A) (A) (A) (A) (A) (A) (A) (A) (A)
                 (A) (A) (A) (A) (A) (A) (A) (A) (A) (A) (A) (A)
                 (A) (A) (A) (A) (A) (A) (A) (A) (A) (A) (A) (A)
                 (A) (A) (A) (A) (A) (A) (A) (A) (A) (A) (A) (A)
                 (A) (A) (A) (A) (A) (A) (A) (A) (A) (A) (A) (A)
                 (A) (A) (A) (A) (A) (A) (A) (A) (A) (A) (A) (A)
                 (A) (A) (A) (A) (A) (A) (A) (A) (A) (A) (A) (A)
                 (A) (A) (A) (A) (A) (A) (A) (A) (A) (A) (A) (A)
                 (A) (A) (A) (A) (A) (A) (A) (A) (A) (A) (A) (A)
                 (A) (A) (A) (A) (A) (A) (A) (A) (A) (A) (A) (A)
                 (A) (A) (A) (A) (A) (A) (A) (A) (A) (A) (A) (A)
                 (A) (A) (A) (A) (A) (A) (A) (A) (A) (A) (A) (A)
                 (A) (A) (A) (A) (A) (A) (A) (A) (A) (A) (A) (A)
                 (A) (A) (A) (A) (A) (A) (A) (A) (A) (A) (A) (A)
                 (A) (A) (A) (A) (A) (A) (A) (A) (A) (A) (A) (A)
                 (A) (A) (A) (A) (A) (A) (A) (A) (A) (A) (A) (A)
                 (A) (A) (A) (A) (A) (A) (A) (A) (A) (A) (A) (A)
                 (A) (A) (A) (A) (A) (A) (A) (A) (A) (A) (A) (A)
                 (A) (A) (A) (A) (A) (A) (A) (A) (A) (A) (A) (A)
                 (A) (A) (A) (A) (A) (A) (A) (A) (A) (A) (A) (A)
                 (A) (A) (A) (A) (A) (A) (A) (A) (A) (A) (A) (A)
                 (A) (A) (A) (A) (A) (A) (A) (A) (A) (A) (A) (A)
                 (A) (A) (A) (A) (A) (A) (A) (A) (A) (A) (A) (A)
                 (A) (A) (A) (A) (A) (A) (A) (A) (A) (A) (A) (A)
                 (A) (A) (A) (A) (A) (A) (A) (A) (A) (A) (A) (A)
                 (A) (A) (A) (A) (A) (A) (A) (A) (A) (A) (A) (A)
                 (A) (A) (A) (A) (A) (A) (A) (A) (A) (A) (A) (A)
                 (A) (A) (A) (A) (A) (A) (A) (A) (A) (A) (A) (A)
                 (A) (A) (A) (A) (A) (A) (A) (A) (A) (A) (A) (A)
                 (A) (A) (A) (A) (A) (A) (A) (A) (A) (A) (A) (A)
                 (A) (A) (A) (A) (A) (A) (A) (A) (A) (A) (A) (A)
                 (A) (A) (A) (A) (A) (A) (A) (A) (A) (A) (A) (A)
                 (A) (A) (A) (A) (A) (A) (A) (A) (A) (A) (A) (A)
                 (A) (A) (A) (A) (A) (A) (A) (A) (A) (A) (A) (A)
                 (A) (A) (A) (A) (A) (A) (A) (A) (A) (A) (A) (A)
                 (A) (A) (A) (A) (A) (A) (A) (A) (A) (A) (A) (A)
                 (A) (A) (A) (A) (A) (A) (A) (A) (A) (A) (A) (A)
                 (A) (A) (A) (A) (A) (A) (A) (A) (A) (A) (A) (A)
                 (A) (A) (A) (A) (A) (A) (A) (A) (A) (A) (A) (A)
                 (A) (A) (A) (A) (A) (A) (A) (A) (A) (A) (A) (A)
                 (A) (A) (A) (A) (A) (A) (A) (A) (A) (A) (A) (A)
                 (A) (A) (A) (A) (A) (A) (A) (A) (A) (A) (A) (A)
                 (A) (A) (A) (A) (A) (A) (A) (A) (A) (A) (A) (A)
                 (A) (A) (A) (A) (A) (A) (A) (A) (A) (A) (A) (A)
                 (A) (A) (A) (A) (A) (A) (A) (A) (A) (A) (A) (A)
                 (A) (A) (A) (A) (A) (A) (A) (A) (A) (A) (A) (A)
                 (A) (A) (A) (A) (A) (A) (A) (A) (A) (A) (A) (A)
                 (A) (A) (A) (A) (A) (A) (A) (A) (A) (A) (A) (A)
                 (A) (A) (A) (A) (A) (A) (A) (A) (A) (A) (A) (A)
                 (A) (A) (A) (A) (A) (A) (A) (A) (A) (A) (A) (A)
                 (A) (A) (A) (A) (A) (A) (A) (A) (A) (A) (A) (A)
                 (A) (A) (A) (A) (A) (A) (A) (A) (A) (A) (A) (A)
                 (A) (A) (A) (A) (A) (A) (A) (A) (A) (A) (A) (A)
                 (A) (A) (A) (A) (A) (A) (A) (A) (A) (A) (A) (A)
                 (A) (A) (A) (A) (A) (A) (A) (A) (A) (A) (A) (A)
                 (A) (A) (A) (A) (A) (A) (A) (A) (A) (A) (A) (A)
                 (A) (A) (A) (A) (A) (A) (A) (A) (A) (A) (A) (A)
                 (A) (A) (A) (A) (A) (A) (A) (A) (A) (A) (A) (A)
                 (A) (A) (A) (A) (A) (A) (A) (A) (A) (A) (A) (A)
                 (A) (A) (A) (A) (A) (A) (A) (A) (A) (A) (A) (A)
                 (A) (A) (A) (A) (A) (A) (A) (A) (A) (A) (A) (A)
                 (A) (A) (A) (A) (A) (A) (A) (A) (A) (A) (A) (A)
                 (A) (A) (A) (A) (A) (A) (A) (A) (A) (A) (A) (A)
                 (A) (A) (A) (A) (A) (A) (A) (A) (A) (A) (A) (A)
                 (A) (A) (A) (A) (A) (A) (A) (A) (A) (A) (A) (A)
                 (A) (A) (A) (A) (A) (A) (A) (A) (A) (A) (A) (A)
                 (A) (A) (A) (A) (A) (A) (A) (A) (A) (A) (A) (A)
                 (A) (A) (A) (A) (A) (A) (A) (A) (A) (A) (A) (A)
                 (A) (A) (A) (A) (A) (A) (A) (A) (A) (A) (A) (A)
                 (A) (A) (A) (A) (A) (A) (A) (A) (A) (A) (A) (A)
                 (A) (A) (A) (A) (A) (A) (A) (A) (A) (A) (A) (A)
                 (A) (A) (A) (A) (A) (A) (A) (A) (A) (A) (A) (A)
                 (A) (A) (A) (A) (A) (A) (A) (A) (A) (A) (A) (A)
                 (A) (A) (A) (A) (A) (A) (A) (A) (A) (A) (A) (A)
                 (A) (A) (A) (A) (A) (A) (A) (A) (A) (A) (A) (A)
                 (A) (A) (A) (A) (A) (A) (A) (A) (A) (A) (A) (A)
                 (A) (A) (A) (A) (A) (A) (A) (A) (A) (A) (A) (A)
                 (A) (A) (A) (A) (A) (A) (A) (A) (A) (A) (A) (A)
                 (A) (A) (A) (A) (A) (A) (A) (A) (A) (A) (A) (A)
                 (A) (A) (A) (A) (A) (A) (A) (A) (A) (A) (A) (A)
                 (A) (A) (A) (A) (A) (A) (A) (A) (A) (A) (A) (A)
                 (A) (A) (A) (A) (A) (A) (A) (A) (A) (A) (A) (A)
                 (A) (A) (A) (A) (A) (A) (A) (A) (A) (A) (A) (A)
                 (A) (A) (A) (A) (A) (A) (A) (A) (A) (A) (A) (A)
                 (A) (A) (A) (A) (A) (A) (A) (A) (A) (A) (A) (A)
                 (A) (A) (A) (A) (A) (A) (A) (A) (A) (A) (A) (A)
                 (A) (A) (A) (A) (A) (A) (A) (A) (A) (A) (A) (A)
    20 initial guesses have been made.
 Convergence on wavefunction:    0.001000000000000
 Davidson Disk Diagonalization:  ConvIn= 1.00D-03 SkipCon=T Conv= 1.00D-03.
 Max sub-space:  2000 roots to seek:    20 dimension of matrix:       549360
 Iteration     1 Dimension    20 NMult     0 NNew     20
 CISAX will form    20 AO SS matrices at one time.
 NMat=    20 NSing=    20 JSym2X= 0.
 FoFJK:  IHMeth= 1 ICntrl=       0 DoSepK=T KAlg= 0 I1Cent=           0 FoldK=F
 IRaf=         1 NMat=      40 IRICut=       1 DoRegI=T DoRafI=F ISym2E= 0 IDoP0=3 IntGTp=3.
 FoFCou: FMM=T IPFlag=           0 FMFlag=      100000 FMFlg1=        2001
         NFxFlg=           0 DoJE=F BraDBF=F KetDBF=F FulRan=T
         wScrn=  0.000000 ICntrl=       500 IOpCl=  0 I1Cent=           0 NGrid=           0
         NMat0=   20 NMatS0=     20 NMatT0=    0 NMatD0=   20 NMtDS0=    0 NMtDT0=    0
 Symmetry not used in FoFCou.
 FMM levels:  10  Number of levels for PrismC:   9
 New state      1 was old state      8
 New state      2 was old state      5
 New state      3 was old state      2
 New state      4 was old state      3
 New state      5 was old state      1
 Excitation Energies [eV] at current iteration:
 Root      1 :     2.614500008211974
 Root      2 :     2.619417740438666
 Root      3 :     2.680371580644136
 Root      4 :     2.690292536330339
 Root      5 :     3.064705007836015
 Root      6 :     3.072927000062318
 Root      7 :     3.628491010768900
 Root      8 :     3.668889647204477
 Root      9 :     3.735976220777011
 Root     10 :     3.759373868004716
 Root     11 :     3.866040686807551
 Root     12 :     3.867964152351774
 Root     13 :     4.303473843287576
 Root     14 :     4.306045508018437
 Root     15 :     4.983571325873505
 Root     16 :     5.002434687477961
 Root     17 :     5.274464690351980
 Root     18 :     5.293086244029106
 Root     19 :     5.308675901716789
 Root     20 :     5.327530355007056
 Iteration     2 Dimension    30 NMult    20 NNew     10
 CISAX will form    10 AO SS matrices at one time.
 NMat=    10 NSing=    10 JSym2X= 0.
 New state      1 was old state      3
 Root      1 not converged, maximum delta is    0.186920328164034
 New state      2 was old state      4
 Root      2 not converged, maximum delta is    0.188284549850988
 New state      3 was old state      2
 Root      3 not converged, maximum delta is    0.066711352931270
 New state      4 was old state      1
 Root      4 not converged, maximum delta is    0.089985797190988
 Root      5 has converged.
 Excitation Energies [eV] at current iteration:
 Root      1 :     1.801334548589132   Change is   -0.879037032055004
 Root      2 :     1.807444127972606   Change is   -0.882848408357733
 Root      3 :     2.235890600656934   Change is   -0.383527139781732
 Root      4 :     2.239089206658973   Change is   -0.375410801553001
 Root      5 :     3.064686486237279   Change is   -0.000018521598736
 Iteration     3 Dimension    38 NMult    30 NNew      8
 CISAX will form     8 AO SS matrices at one time.
 NMat=     8 NSing=     8 JSym2X= 0.
 Root      1 not converged, maximum delta is    0.069234208415481
 Root      2 not converged, maximum delta is    0.070393466719213
 Root      3 not converged, maximum delta is    0.044057422152787
 Root      4 not converged, maximum delta is    0.042627871372305
 Root      5 has converged.
 Excitation Energies [eV] at current iteration:
 Root      1 :     1.694090387046777   Change is   -0.107244161542355
 Root      2 :     1.699050875594509   Change is   -0.108393252378097
 Root      3 :     2.194371857577066   Change is   -0.041518743079868
 Root      4 :     2.200158922065231   Change is   -0.038930284593742
 Root      5 :     3.064686486237252   Change is   -0.000000000000027
 Iteration     4 Dimension    46 NMult    38 NNew      8
 CISAX will form     8 AO SS matrices at one time.
 NMat=     8 NSing=     8 JSym2X= 0.
 Root      1 not converged, maximum delta is    0.012998718318830
 Root      2 not converged, maximum delta is    0.013253796500509
 Root      3 not converged, maximum delta is    0.009755277674135
 Root      4 not converged, maximum delta is    0.008919086249416
 Root      5 has converged.
 Excitation Energies [eV] at current iteration:
 Root      1 :     1.677374415474119   Change is   -0.016715971572659
 Root      2 :     1.682174500568239   Change is   -0.016876375026270
 Root      3 :     2.187061758050738   Change is   -0.007310099526328
 Root      4 :     2.193378052855822   Change is   -0.006780869209409
 Root      5 :     3.064686486237333   Change is    0.000000000000081
 Iteration     5 Dimension    54 NMult    46 NNew      8
 CISAX will form     8 AO SS matrices at one time.
 NMat=     8 NSing=     8 JSym2X= 0.
 Root      1 not converged, maximum delta is    0.002159535990500
 Root      2 not converged, maximum delta is    0.002161207173167
 Root      3 not converged, maximum delta is    0.002503178202430
 Root      4 not converged, maximum delta is    0.002389180000715
 Root      5 has converged.
 Excitation Energies [eV] at current iteration:
 Root      1 :     1.675595914679070   Change is   -0.001778500795049
 Root      2 :     1.680401642944806   Change is   -0.001772857623433
 Root      3 :     2.186214474837704   Change is   -0.000847283213033
 Root      4 :     2.192600699235145   Change is   -0.000777353620677
 Root      5 :     3.064686486237360   Change is    0.000000000000027
 Iteration     6 Dimension    62 NMult    54 NNew      8
 CISAX will form     8 AO SS matrices at one time.
 NMat=     8 NSing=     8 JSym2X= 0.
 Root      1 not converged, maximum delta is    0.001354248552102
 Root      2 not converged, maximum delta is    0.001373958546629
 Root      3 not converged, maximum delta is    0.001071970770236
 Root      4 not converged, maximum delta is    0.001016136482274
 Root      5 has converged.
 Excitation Energies [eV] at current iteration:
 Root      1 :     1.675342160953907   Change is   -0.000253753725163
 Root      2 :     1.680146648981645   Change is   -0.000254993963160
 Root      3 :     2.186086080432209   Change is   -0.000128394405495
 Root      4 :     2.192482824966532   Change is   -0.000117874268614
 Root      5 :     3.064686486237279   Change is   -0.000000000000081
 Iteration     7 Dimension    70 NMult    62 NNew      8
 CISAX will form     8 AO SS matrices at one time.
 NMat=     8 NSing=     8 JSym2X= 0.
 Root      1 has converged.
 Root      2 has converged.
 Root      3 has converged.
 Root      4 has converged.
 Root      5 has converged.
 Excitation Energies [eV] at current iteration:
 Root      1 :     1.675317915650403   Change is   -0.000024245303504
[...]
 Alpha virt. eigenvalues --    1.84482   1.84500   1.84743   1.84860   1.85082
 Alpha virt. eigenvalues --    1.85152   1.85303   1.85324   1.85444   1.85529
 Alpha virt. eigenvalues --    1.85857   1.85917   1.86338   1.86409   1.86604
 Alpha virt. eigenvalues --    1.86609   1.86779   1.86832   1.87002   1.87090
 Alpha virt. eigenvalues --    1.87439   1.87495   1.87731   1.87732   1.87917
 Alpha virt. eigenvalues --    1.87969   1.88089   1.88135   1.88529   1.88585
 Alpha virt. eigenvalues --    1.88874   1.88894   1.89028   1.89174   1.89615
 Alpha virt. eigenvalues --    1.89674   1.89795   1.89833   1.90146   1.90168
 Alpha virt. eigenvalues --    1.90802   1.90851   1.91380   1.91399   1.91489
 Alpha virt. eigenvalues --    1.91548   1.92139   1.92204   1.92619   1.92678
 Alpha virt. eigenvalues --    1.93031   1.93105   1.93385   1.93455   1.94263
 Alpha virt. eigenvalues --    1.94331   1.94736   1.94769   1.95522   1.95545
 Alpha virt. eigenvalues --    1.95770   1.95779   1.96003   1.96047   1.96130
 Alpha virt. eigenvalues --    1.96200   1.96438   1.96644   1.96890   1.96948
 Alpha virt. eigenvalues --    1.97498   1.97499   1.97758   1.97885   1.98123
 Alpha virt. eigenvalues --    1.98221   1.98308   1.98730   1.99025   1.99187
 Alpha virt. eigenvalues --    1.99873   1.99888   2.00679   2.00709   2.01047
 Alpha virt. eigenvalues --    2.01052   2.01459   2.01533   2.01565   2.01722
 Alpha virt. eigenvalues --    2.01771   2.01781   2.02665   2.02836   2.03093
 Alpha virt. eigenvalues --    2.03284   2.03335   2.03455   2.03476   2.03536
 Alpha virt. eigenvalues --    2.03981   2.04086   2.04929   2.05007   2.05562
 Alpha virt. eigenvalues --    2.05582   2.06128   2.06240   2.06956   2.06991
 Alpha virt. eigenvalues --    2.07234   2.07300   2.08504   2.08632   2.08959
 Alpha virt. eigenvalues --    2.09031   2.09566   2.09640   2.10824   2.10984
 Alpha virt. eigenvalues --    2.11232   2.11359   2.11488   2.11590   2.11777
 Alpha virt. eigenvalues --    2.11817   2.12420   2.12515   2.12752   2.12821
 Alpha virt. eigenvalues --    2.12853   2.12884   2.13585   2.13819   2.14183
 Alpha virt. eigenvalues --    2.14201   2.15358   2.15385   2.15976   2.16033
 Alpha virt. eigenvalues --    2.16543   2.16569   2.16804   2.17124   2.17465
 Alpha virt. eigenvalues --    2.17598   2.17752   2.17885   2.17953   2.18117
 Alpha virt. eigenvalues --    2.18375   2.18627   2.18919   2.19189   2.19691
 Alpha virt. eigenvalues --    2.19771   2.20088   2.20195   2.20261   2.20391
 Alpha virt. eigenvalues --    2.21121   2.21196   2.21715   2.21718   2.21795
 Alpha virt. eigenvalues --    2.21828   2.22651   2.22728   2.23291   2.23361
 Alpha virt. eigenvalues --    2.24368   2.24441   2.24953   2.25003   2.26349
 Alpha virt. eigenvalues --    2.26392   2.26826   2.26959   2.27152   2.27154
 Alpha virt. eigenvalues --    2.28186   2.28264   2.29315   2.29385   2.29784
 Alpha virt. eigenvalues --    2.29829   2.30504   2.30574   2.30782   2.31131
 Alpha virt. eigenvalues --    2.31149   2.31233   2.32166   2.32187   2.33183
 Alpha virt. eigenvalues --    2.33184   2.33432   2.33509   2.34089   2.34186
 Alpha virt. eigenvalues --    2.35252   2.35422   2.35845   2.35858   2.36281
 Alpha virt. eigenvalues --    2.36394   2.36397   2.36671   2.37623   2.37704
 Alpha virt. eigenvalues --    2.38302   2.38327   2.38733   2.38906   2.39615
 Alpha virt. eigenvalues --    2.39658   2.40213   2.40227   2.40534   2.40778
 Alpha virt. eigenvalues --    2.41163   2.41318   2.41641   2.41732   2.42077
 Alpha virt. eigenvalues --    2.42089   2.42766   2.42987   2.43029   2.43587
 Alpha virt. eigenvalues --    2.43923   2.44217   2.44751   2.44777   2.44934
 Alpha virt. eigenvalues --    2.44951   2.45515   2.45593   2.46229   2.46346
 Alpha virt. eigenvalues --    2.46440   2.46525   2.46745   2.46846   2.47299
 Alpha virt. eigenvalues --    2.47321   2.47759   2.47828   2.49334   2.49353
 Alpha virt. eigenvalues --    2.49833   2.50112   2.50397   2.50592   2.51168
 Alpha virt. eigenvalues --    2.51211   2.51553   2.51932   2.52344   2.52487
 Alpha virt. eigenvalues --    2.52855   2.53104   2.53909   2.53963   2.54192
 Alpha virt. eigenvalues --    2.54221   2.54746   2.54833   2.55563   2.55605
 Alpha virt. eigenvalues --    2.57908   2.58015   2.58687   2.58840   2.60241
 Alpha virt. eigenvalues --    2.60254   2.60659   2.60862   2.61754   2.61757
 Alpha virt. eigenvalues --    2.62368   2.62579   2.63001   2.63062   2.63981
 Alpha virt. eigenvalues --    2.64155   2.64285   2.64359   2.65034   2.65123
 Alpha virt. eigenvalues --    2.65798   2.65833   2.66754   2.66820   2.66954
 Alpha virt. eigenvalues --    2.66990   2.67914   2.67952   2.68752   2.68902
 Alpha virt. eigenvalues --    2.68969   2.69070   2.69433   2.69527   2.70042
 Alpha virt. eigenvalues --    2.70069   2.71002   2.71025   2.71829   2.72099
 Alpha virt. eigenvalues --    2.72429   2.72671   2.72699   2.72878   2.73215
 Alpha virt. eigenvalues --    2.73316   2.73407   2.73582   2.74438   2.74555
 Alpha virt. eigenvalues --    2.74986   2.75019   2.76449   2.76633   2.76995
 Alpha virt. eigenvalues --    2.77277   2.77499   2.77534   2.78223   2.78231
 Alpha virt. eigenvalues --    2.78618   2.78775   2.79086   2.79178   2.80192
 Alpha virt. eigenvalues --    2.80388   2.80621   2.80636   2.81078   2.81160
 Alpha virt. eigenvalues --    2.81918   2.81978   2.82260   2.82384   2.83772
 Alpha virt. eigenvalues --    2.83797   2.83810   2.83834   2.84451   2.84588
 Alpha virt. eigenvalues --    2.84808   2.84924   2.85617   2.85709   2.86587
 Alpha virt. eigenvalues --    2.87040   2.87107   2.87656   2.88162   2.88196
 Alpha virt. eigenvalues --    2.88540   2.88552   2.88795   2.88977   2.90542
 Alpha virt. eigenvalues --    2.90584   2.90991   2.91229   2.93199   2.93245
 Alpha virt. eigenvalues --    2.93694   2.94242   2.94494   2.94598   2.95399
 Alpha virt. eigenvalues --    2.95413   2.95773   2.96251   2.96298   2.96484
 Alpha virt. eigenvalues --    2.96802   2.97225   2.97863   2.97953   2.98251
 Alpha virt. eigenvalues --    2.98285   2.98408   2.98495   2.98646   2.98701
 Alpha virt. eigenvalues --    2.98843   2.98925   2.99626   2.99721   2.99945
 Alpha virt. eigenvalues --    3.00077   3.00259   3.00265   3.00506   3.00916
 Alpha virt. eigenvalues --    3.01822   3.02030   3.02040   3.02076   3.02750
 Alpha virt. eigenvalues --    3.02782   3.03024   3.03237   3.03369   3.03631
 Alpha virt. eigenvalues --    3.03975   3.04211   3.04354   3.04494   3.04589
 Alpha virt. eigenvalues --    3.04648   3.05271   3.05336   3.06084   3.06156
 Alpha virt. eigenvalues --    3.06850   3.06857   3.07841   3.08186   3.09275
 Alpha virt. eigenvalues --    3.09447   3.09738   3.10360   3.10487   3.10661
 Alpha virt. eigenvalues --    3.11370   3.11397   3.11817   3.11990   3.12215
 Alpha virt. eigenvalues --    3.12227   3.13329   3.13572   3.13607   3.13681
 Alpha virt. eigenvalues --    3.14142   3.14403   3.15906   3.15961   3.17308
 Alpha virt. eigenvalues --    3.17439   3.17797   3.18119   3.18951   3.19170
 Alpha virt. eigenvalues --    3.22356   3.22524   3.23993   3.24358   3.24722
 Alpha virt. eigenvalues --    3.25114   3.26550   3.26575   3.27314   3.27667
 Alpha virt. eigenvalues --    3.29150   3.29152   3.31298   3.31571   3.33103
 Alpha virt. eigenvalues --    3.33464   3.40192   3.40684   3.42736   3.42860
 Alpha virt. eigenvalues --    3.48616   3.48707   3.50068   3.50200   3.50755
 Alpha virt. eigenvalues --    3.51521   3.56596   3.56923   3.59145   3.59257
 Alpha virt. eigenvalues --    3.62434   3.62884   3.66033   3.66229   3.67239
 Alpha virt. eigenvalues --    3.67472   3.73323   3.73947   3.76108   3.76604
          Condensed to atoms (all electrons):
 Mulliken charges:
               1
     1  Mg   0.838716
     2  C   -0.002930
     3  C   -0.094105
     4  C   -0.045935
     5  C   -0.063959
     6  N   -0.256783
     7  C   -0.052456
     8  C   -0.014008
     9  C   -0.086985
    10  C    0.046325
    11  C    0.104810
    12  C    0.053459
    13  C   -0.071844
    14  H    0.036246
    15  N   -0.433139
    16  C    0.168411
    17  C   -0.177154
    18  C   -0.004038
    19  C    0.148731
    20  C    0.110174
    21  C    0.012255
    22  O   -0.249694
    23  C    0.062494
    24  N   -0.341131
    25  C    0.041257
    26  C   -0.028160
    27  C   -0.023950
    28  C    0.074813
    29  C    0.076178
    30  C    0.035131
    31  C   -0.004490
    32  N   -0.310470
    33  C    0.080422
    34  C   -0.169704
    35  C    0.008391
    36  C    0.082995
    37  C    0.127304
    38  C    0.046146
    39  O   -0.188358
    40  C   -0.005356
    41  C    0.212903
    42  O   -0.257067
    43  O   -0.304813
    44  C    0.157654
    45  H   -0.017604
    46  H   -0.016893
    47  H   -0.041499
    48  H    0.000962
    49  H   -0.004015
    50  H    0.025480
    51  H    0.016419
    52  H    0.016663
    53  H    0.011200
    54  H    0.044161
    55  H    0.017867
    56  H    0.017946
    57  H    0.005895
    58  H    0.026793
    59  H    0.039534
    60  H    0.037348
    61  H    0.035569
    62  H    0.031500
    63  H    0.016498
    64  H    0.009454
    65  H    0.023155
    66  H    0.012553
    67  H    0.004743
    68  H    0.006309
    69  H    0.004746
    70  H    0.008722
    71  H    0.018128
    72  H    0.029025
    73  H    0.047625
    74  H    0.009097
    75  H    0.046014
    76  H    0.035160
    77  H    0.042988
    78  H    0.046411
    79  H    0.053759
    80  Mg   0.837846
    81  C   -0.016814
    82  C   -0.087772
    83  C   -0.045541
    84  C   -0.064897
    85  N   -0.254553
    86  C   -0.049807
    87  C   -0.015111
    88  C   -0.090495
    89  C    0.045753
    90  C    0.114374
    91  C    0.062515
    92  C   -0.077968
    93  H    0.035106
    94  N   -0.423483
    95  C    0.162920
    96  C   -0.174625
    97  C   -0.007820
    98  C    0.152112
    99  C    0.099374
   100  C    0.015560
   101  O   -0.253211
   102  C    0.061192
   103  N   -0.350080
   104  C    0.037536
   105  C   -0.019828
   106  C   -0.034824
   107  C    0.088910
   108  C    0.073670
   109  C    0.034724
   110  C   -0.007649
   111  N   -0.324126
   112  C    0.078471
   113  C   -0.163127
   114  C    0.002264
   115  C    0.096215
   116  C    0.131485
   117  C    0.042403
   118  O   -0.187791
   119  C    0.000918
   120  C    0.211289
   121  O   -0.250979
   122  O   -0.305657
   123  C    0.151979
   124  H   -0.019655
   125  H   -0.015599
   126  H   -0.040466
   127  H   -0.000615
   128  H   -0.004285
   129  H    0.022459
   130  H    0.014384
   131  H    0.016299
   132  H    0.013909
   133  H    0.037727
   134  H    0.020783
   135  H    0.019590
   136  H    0.008782
   137  H    0.026117
   138  H    0.039798
   139  H    0.038246
   140  H    0.036372
   141  H    0.033911
   142  H    0.014397
   143  H    0.012399
   144  H    0.025121
   145  H    0.011625
   146  H    0.005650
   147  H    0.006242
   148  H    0.003657
   149  H    0.010914
   150  H    0.017949
   151  H    0.030122
   152  H    0.046063
   153  H    0.008502
   154  H    0.046927
   155  H    0.035027
   156  H    0.043986
   157  H    0.049526
   158  H    0.053676
 Sum of Mulliken charges =  -0.00000
 Mulliken charges with hydrogens summed into heavy atoms:
               1
     1  Mg   0.838716
     2  C   -0.002930
     3  C   -0.111709
     4  C   -0.062829
     5  C   -0.105458
     6  N   -0.256783
     7  C   -0.052456
     8  C   -0.013046
     9  C   -0.091000
    10  C    0.046325
    11  C    0.163373
    12  C    0.108820
    13  C    0.000215
    15  N   -0.433139
    16  C    0.168411
    17  C   -0.177154
    18  C   -0.004038
    19  C    0.148731
    20  C    0.182397
    21  C    0.012255
    22  O   -0.249694
    23  C    0.166911
    24  N   -0.341131
    25  C    0.041257
    26  C   -0.011662
    27  C   -0.014496
    28  C    0.074813
    29  C    0.116629
    30  C    0.046187
    31  C    0.051384
    32  N   -0.310470
    33  C    0.080422
    34  C   -0.169704
    35  C    0.008391
    36  C    0.082995
    37  C    0.230040
    38  C    0.046146
    39  O   -0.188358
    40  C    0.029804
    41  C    0.212903
    42  O   -0.257067
    43  O   -0.304813
    44  C    0.300812
    80  Mg   0.837846
    81  C   -0.016814
    82  C   -0.107427
    83  C   -0.061140
    84  C   -0.105363
    85  N   -0.254553
    86  C   -0.049807
    87  C   -0.015727
    88  C   -0.094780
    89  C    0.045753
    90  C    0.167517
    91  C    0.114151
    92  C   -0.002490
    94  N   -0.423483
    95  C    0.162920
    96  C   -0.174625
    97  C   -0.007820
    98  C    0.152112
    99  C    0.174071
   100  C    0.015560
   101  O   -0.253211
   102  C    0.169722
   103  N   -0.350080
   104  C    0.037536
   105  C   -0.005431
   106  C   -0.022426
   107  C    0.088910
   108  C    0.116067
   109  C    0.044623
   110  C    0.051336
   111  N   -0.324126
   112  C    0.078471
   113  C   -0.163127
   114  C    0.002264
   115  C    0.096215
   116  C    0.232977
   117  C    0.042403
   118  O   -0.187791
   119  C    0.035945
   120  C    0.211289
   121  O   -0.250979
   122  O   -0.305657
   123  C    0.299167
 Electronic spatial extent (au):  <R**2>=         600917.9541
 Charge=             -0.0000 electrons
 Dipole moment (field-independent basis, Debye):
    X=              2.0864    Y=              7.4727    Z=             -1.0752  Tot=              7.8326
 Quadrupole moment (field-independent basis, Debye-Ang):
   XX=           -439.2359   YY=           -541.2408   ZZ=           -472.0972
   XY=             10.6980   XZ=            -57.9526   YZ=              6.3286
 Traceless Quadrupole moment (field-independent basis, Debye-Ang):
   XX=             44.9554   YY=            -57.0495   ZZ=             12.0941
   XY=             10.6980   XZ=            -57.9526   YZ=              6.3286
 Octapole moment (field-independent basis, Debye-Ang**2):
  XXX=            884.1997  YYY=            281.7099  ZZZ=             33.7997  XYY=           -357.3464
  XXY=            840.0180  XXZ=           -519.5420  XZZ=            688.2318  YZZ=           -110.8132
  YYZ=           -204.9274  XYZ=           -635.9806
 Hexadecapole moment (field-independent basis, Debye-Ang**3):
 XXXX=        -727744.7230 YYYY=         -33509.2494 ZZZZ=         -24138.3227 XXXY=          18651.6365
 XXXZ=         -14861.7873 YYYX=           -977.3821 YYYZ=           -133.6865 ZZZX=          -1391.2955
 ZZZY=            654.5286 XXYY=        -140755.3166 XXZZ=        -124513.3285 YYZZ=          -9387.5504
 XXYZ=           3159.8074 YYXZ=          -1880.8008 ZZXY=           -657.7599
 N-N= 1.233938381495D+04 E-N=-3.415964519865D+04  KE= 4.028802060375D+03
 Leave Link  601 at Sun Sep 12 14:56:32 2021, MaxMem= 23488102400 cpu:              12.8 elap:               0.7
 (Enter /sw/apps/gaussian-16.0/g16/l9999.exe)
 1\1\GINC-BP1-COMPUTE00114\SP\RCAM-B3LYP TD-FC\def2SVP\C68H72Mg2N8O8\OF
 15641\12-Sep-2021\0\\#p cam-b3lyp/Def2SVP td=(nstates=5)\\TDDFT excite
 d states in gaussian\\0,1\Mg,0,0.,0.,0.\C,0,-0.217,-2.218,2.801\C,0,-1
 .255,2.442,2.026\C,0,-0.245,1.85,-2.564\C,0,0.146,-2.824,-2.037\N,0,-0
 .617,-0.009,2.126\C,0,-0.594,-0.908,3.105\C,0,-0.936,-0.309,4.502\C,0,
 -1.773,0.964,4.032\C,0,-1.155,1.168,2.66\C,0,-3.263,0.685,3.863\C,0,0.
 345,0.11,5.299\C,0,0.124,0.397,6.787\H,0,1.168,0.033,7.733\N,0,-0.185,
 1.961,-0.152\C,0,-0.703,2.8,0.777\C,0,-0.62,4.156,0.193\C,0,-0.187,4.0
 15,-1.225\C,0,-0.214,2.583,-1.38\C,0,-0.887,5.406,0.974\C,0,0.181,5.01
 3,-2.277\O,0,0.303,4.69,-3.508\C,0,0.31,6.414,-1.837\N,0,-0.265,-0.413
 ,-2.029\C,0,-0.279,0.569,-2.937\C,0,-0.196,0.024,-4.332\C,0,0.124,-1.5
 33,-4.18\C,0,0.086,-1.632,-2.635\C,0,-1.451,0.205,-5.197\C,0,1.373,-2.
 07,-4.923\C,0,2.626,-1.49,-4.306\N,0,0.15,-2.144,0.303\C,0,0.173,-3.13
 6,-0.688\C,0,0.173,-4.438,0.004\C,0,0.133,-4.111,1.358\C,0,0.083,-2.69
 5,1.502\C,0,0.149,-5.715,-0.623\C,0,0.096,-4.629,2.716\O,0,0.208,-5.74
 7,3.221\C,0,-0.255,-3.428,3.701\C,0,0.717,-3.482,4.848\O,0,1.931,-3.25
 5,4.669\O,0,0.038,-3.556,6.003\C,0,0.943,-3.583,7.183\H,0,-1.859,3.22,
 2.497\H,0,-0.218,2.453,-3.474\H,0,0.276,-3.747,-2.605\H,0,-1.554,-0.94
 9,5.132\H,0,-1.585,1.831,4.665\H,0,-3.484,-0.377,3.969\H,0,-3.511,1.02
 7,2.858\H,0,-3.852,1.301,4.543\H,0,0.669,1.096,4.966\H,0,1.13,-0.639,5
 .189\H,0,-0.844,0.026,7.125\H,0,0.062,1.477,6.921\H,0,-1.344,5.186,1.9
 38\H,0,-1.651,5.963,0.432\H,0,0.007,6.02,1.084\H,0,-0.635,6.744,-1.405
 \H,0,0.665,6.97,-2.704\H,0,1.048,6.466,-1.036\H,0,0.608,0.501,-4.891\H
 ,0,-0.692,-2.156,-4.547\H,0,-1.267,0.74,-6.129\H,0,-2.204,0.714,-4.596
 \H,0,-1.967,-0.72,-5.453\H,0,1.356,-1.759,-5.967\H,0,1.452,-3.157,-4.9
 02\H,0,2.714,-0.522,-4.798\H,0,3.487,-2.121,-4.529\H,0,2.495,-1.303,-3
 .24\H,0,0.867,-6.333,-0.084\H,0,0.404,-5.642,-1.68\H,0,-0.891,-5.999,-
 0.463\H,0,-1.283,-3.581,4.028\H,0,0.698,-4.478,7.755\H,0,0.833,-2.619,
 7.68\H,0,2.,-3.754,6.976\Mg,0,31.52236,2.84165,2.3958\C,0,29.95954,0.0
 2309,0.81707\C,0,30.17667,4.77855,-0.06837\C,0,33.24647,5.26678,3.4974
 3\C,0,33.62982,0.58877,4.01717\N,0,30.24968,2.34874,0.65522\C,0,29.667
 92,1.25302,0.19124\C,0,28.65752,1.49992,-0.96102\C,0,29.24769,2.89107,
 -1.50439\C,0,29.90509,3.39546,-0.22139\C,0,30.32873,2.71567,-2.55792\C
 ,0,27.18627,1.66414,-0.44094\C,0,26.10949,1.59926,-1.52633\H,0,24.8288
 5,0.978,-1.20004\N,0,31.31644,4.79554,2.11568\C,0,30.72331,5.4097,1.07
 056\C,0,30.85123,6.85273,1.32645\C,0,31.71264,7.04202,2.52513\C,0,32.1
 5186,5.67975,2.75188\C,0,30.12567,7.88973,0.51922\C,0,32.09017,8.25118
 ,3.32613\O,0,33.04137,8.22006,4.18466\C,0,31.37601,9.49661,3.00932\N,0
 ,33.32944,2.93668,3.4194\C,0,33.83157,4.11529,3.82765\C,0,34.98901,3.9
 1571,4.7768\C,0,35.00534,2.352,5.11162\C,0,33.85962,1.88345,4.18794\C,
 0,36.36083,4.33768,4.25105\C,0,34.95536,1.95295,6.61193\C,0,33.61284,2
 .32328,7.20004\N,0,31.65788,0.69299,2.57732\C,0,32.63355,-0.04346,3.28
 429\C,0,32.37592,-1.47381,3.01947\C,0,31.27363,-1.46941,2.15147\C,0,30
 .88516,-0.13018,1.87748\C,0,33.14493,-2.56356,3.51665\C,0,30.35697,-2.
 29286,1.39625\O,0,30.14602,-3.50177,1.30805\C,0,29.54438,-1.36,0.39832
 \C,0,28.08774,-1.71815,0.50981\O,0,27.4658,-1.51399,1.56723\O,0,27.618
 02,-2.03797,-0.7098\C,0,26.17421,-2.39007,-0.65266\H,0,29.99346,5.4400
 9,-0.91553\H,0,33.80898,6.06325,3.99007\H,0,34.18166,-0.1791,4.56354\H
 ,0,28.6754,0.75567,-1.74814\H,0,28.45203,3.56329,-1.81488\H,0,30.60579
 ,1.67937,-2.68223\H,0,31.1746,3.29441,-2.21064\H,0,30.01539,3.17525,-3
 .4997\H,0,27.04198,2.69561,-0.09455\H,0,26.97061,0.94527,0.32545\H,0,2
 6.4999,1.20165,-2.47102\H,0,25.80191,2.61875,-1.77138\H,0,29.70041,7.4
 6142,-0.39681\H,0,30.87812,8.60134,0.16244\H,0,29.37704,8.42987,1.1027
 \H,0,31.53131,9.74562,1.96226\H,0,31.71933,10.22578,3.74574\H,0,30.301
 17,9.32549,3.13604\H,0,34.83643,4.47005,5.6947\H,0,35.92217,1.86659,4.
 74607\H,0,36.86379,5.08458,4.8939\H,0,36.23832,4.72123,3.24685\H,0,37.
 06885,3.52409,4.10282\H,0,35.70627,2.51035,7.17728\H,0,35.13984,0.8979
 ,6.78464\H,0,33.73552,3.38188,7.44783\H,0,33.40771,1.73093,8.08947\H,0
 ,32.81972,2.2508,6.44682\H,0,32.44135,-3.31833,3.84192\H,0,33.79807,-2
 .25139,4.32889\H,0,33.70687,-2.83176,2.61801\H,0,29.93365,-1.53621,-0.
 60517\H,0,26.07115,-3.38794,-1.09006\H,0,25.64432,-1.56118,-1.15853\H,
 0,25.73359,-2.54151,0.32579\\Version=ES64L-G16RevA.03\State=1-A\HF=-40
 69.8117631\RMSD=4.473e-09\PG=C01 [X(C68H72Mg2N8O8)]\\@


 EXPERIENCE IS A WONDERFUL THING.  IT ENABLES
 YOU TO RECOGNIZE A MISTAKE WHEN YOU MAKE IT AGAIN.
           - BACK OF A SUGAR PACKET
 Job cpu time:       0 days 10 hours 21 minutes 50.8 seconds.
 Elapsed time:       0 days  0 hours 26 minutes 29.7 seconds.
 File lengths (MBytes):  RWF=  13225 Int=      0 D2E=      0 Chk=    574 Scr=      1
 Normal termination of Gaussian 16 at Sun Sep 12 14:56:33 2021.
