 Entering Gaussian System, Link 0=g16
 Initial command:
 /sw/apps/gaussian-16.0/g16/l1.exe "/tmp/Gau-229722.inp" -scrdir="/tmp/"
 Entering Link 1 = /sw/apps/gaussian-16.0/g16/l1.exe PID=    229723.
  
 Copyright (c) 1988,1990,1992,1993,1995,1998,2003,2009,2016,
            Gaussian, Inc.  All Rights Reserved.
  
 This is part of the Gaussian(R) 16 program.  It is based on
 the Gaussian(R) 09 system (copyright 2009, Gaussian, Inc.),
 the Gaussian(R) 03 system (copyright 2003, Gaussian, Inc.),
 the Gaussian(R) 98 system (copyright 1998, Gaussian, Inc.),
 the Gaussian(R) 94 system (copyright 1995, Gaussian, Inc.),
 the Gaussian 92(TM) system (copyright 1992, Gaussian, Inc.),
 the Gaussian 90(TM) system (copyright 1990, Gaussian, Inc.),
 the Gaussian 88(TM) system (copyright 1988, Gaussian, Inc.),
 the Gaussian 86(TM) system (copyright 1986, Carnegie Mellon
 University), and the Gaussian 82(TM) system (copyright 1983,
 Carnegie Mellon University). Gaussian is a federally registered
 trademark of Gaussian, Inc.
  
 This software contains proprietary and confidential information,
 including trade secrets, belonging to Gaussian, Inc.
  
 This software is provided under written license and may be
 used, copied, transmitted, or stored only in accord with that
 written license.
  
 The following legend is applicable only to US Government
 contracts under FAR:
  
                    RESTRICTED RIGHTS LEGEND
  
 Use, reproduction and disclosure by the US Government is
 subject to restrictions as set forth in subparagraphs (a)
 and (c) of the Commercial Computer Software - Restricted
 Rights clause in FAR 52.227-19.
  
 Gaussian, Inc.
 340 Quinnipiac St., Bldg. 40, Wallingford CT 06492
  
  
 ---------------------------------------------------------------
 Warning -- This program may not be used in any manner that
 competes with the business of Gaussian, Inc. or will provide
 assistance to any competitor of Gaussian, Inc.  The licensee
 of this program is prohibited from giving any competitor of
 Gaussian, Inc. access to this program.  By using this program,
 the user acknowledges that Gaussian, Inc. is engaged in the
 business of creating and licensing software in the field of
 computational chemistry and represents and warrants to the
 licensee that it is not a competitor of Gaussian, Inc. and that
 it will not use this program in any manner prohibited above.
 ---------------------------------------------------------------
  

 Cite this work as:
 Gaussian 16, Revision A.03,
 M. J. Frisch, G. W. Trucks, H. B. Schlegel, G. E. Scuseria, 
 M. A. Robb, J. R. Cheeseman, G. Scalmani, V. Barone, 
 G. A. Petersson, H. Nakatsuji, X. Li, M. Caricato, A. V. Marenich, 
 J. Bloino, B. G. Janesko, R. Gomperts, B. Mennucci, H. P. Hratchian, 
 J. V. Ortiz, A. F. Izmaylov, J. L. Sonnenberg, D. Williams-Young, 
 F. Ding, F. Lipparini, F. Egidi, J. Goings, B. Peng, A. Petrone, 
 T. Henderson, D. Ranasinghe, V. G. Zakrzewski, J. Gao, N. Rega, 
 G. Zheng, W. Liang, M. Hada, M. Ehara, K. Toyota, R. Fukuda, 
 J. Hasegawa, M. Ishida, T. Nakajima, Y. Honda, O. Kitao, H. Nakai, 
 T. Vreven, K. Throssell, J. A. Montgomery, Jr., J. E. Peralta, 
 F. Ogliaro, M. J. Bearpark, J. J. Heyd, E. N. Brothers, K. N. Kudin, 
 V. N. Staroverov, T. A. Keith, R. Kobayashi, J. Normand, 
 K. Raghavachari, A. P. Rendell, J. C. Burant, S. S. Iyengar, 
 J. Tomasi, M. Cossi, J. M. Millam, M. Klene, C. Adamo, R. Cammi, 
 J. W. Ochterski, R. L. Martin, K. Morokuma, O. Farkas, 
 J. B. Foresman, and D. J. Fox, Gaussian, Inc., Wallingford CT, 2016.
 
 ******************************************
 Gaussian 16:  ES64L-G16RevA.03 25-Dec-2016
                12-Sep-2021 
 ******************************************
 %nproc=24
 Will use up to   24 processors via shared memory.
 %mem=175gb
 -----------------------------------
 #p cam-b3lyp/Def2SVP td=(nstates=5)
 -----------------------------------
 1/38=1,172=1/1;
 2/12=2,17=6,18=5,40=1/2;
 3/5=43,7=101,11=9,25=1,30=1,74=-40/1,2,3,8;
 4//1;
 5/5=2,38=5/2;
 8/6=1,10=1,108=5/1;
 9/41=5,42=1,70=2/14;
 6/7=2,8=2,9=2,10=2/1;
 99/5=1,9=1/99;
 Leave Link    1 at Sun Sep 12 04:22:46 2021, MaxMem= 23488102400 cpu:               0.6 elap:               0.0
 (Enter /sw/apps/gaussian-16.0/g16/l101.exe)
 --------------------------------
 TDDFT excited states in gaussian
 --------------------------------
 Symbolic Z-matrix:
 Charge =  0 Multiplicity = 1
 Mg                    0.        0.        0. 
 C                    -0.217    -2.218     2.801 
 C                    -1.255     2.442     2.026 
 C                    -0.245     1.85     -2.564 
 C                     0.146    -2.824    -2.037 
 N                    -0.617    -0.009     2.126 
 C                    -0.594    -0.908     3.105 
 C                    -0.936    -0.309     4.502 
 C                    -1.773     0.964     4.032 
 C                    -1.155     1.168     2.66 
 C                    -3.263     0.685     3.863 
 C                     0.345     0.11      5.299 
 C                     0.124     0.397     6.787 
 H                     1.168     0.033     7.733 
 N                    -0.185     1.961    -0.152 
 C                    -0.703     2.8       0.777 
 C                    -0.62      4.156     0.193 
 C                    -0.187     4.015    -1.225 
 C                    -0.214     2.583    -1.38 
 C                    -0.887     5.406     0.974 
 C                     0.181     5.013    -2.277 
 O                     0.303     4.69     -3.508 
 C                     0.31      6.414    -1.837 
 N                    -0.265    -0.413    -2.029 
 C                    -0.279     0.569    -2.937 
 C                    -0.196     0.024    -4.332 
 C                     0.124    -1.533    -4.18 
 C                     0.086    -1.632    -2.635 
 C                    -1.451     0.205    -5.197 
 C                     1.373    -2.07     -4.923 
 C                     2.626    -1.49     -4.306 
 N                     0.15     -2.144     0.303 
 C                     0.173    -3.136    -0.688 
 C                     0.173    -4.438     0.004 
 C                     0.133    -4.111     1.358 
 C                     0.083    -2.695     1.502 
 C                     0.149    -5.715    -0.623 
 C                     0.096    -4.629     2.716 
 O                     0.208    -5.747     3.221 
 C                    -0.255    -3.428     3.701 
 C                     0.717    -3.482     4.848 
 O                     1.931    -3.255     4.669 
 O                     0.038    -3.556     6.003 
 C                     0.943    -3.583     7.183 
 H                    -1.859     3.22      2.497 
 H                    -0.218     2.453    -3.474 
 H                     0.276    -3.747    -2.605 
 H                    -1.554    -0.949     5.132 
 H                    -1.585     1.831     4.665 
 H                    -3.484    -0.377     3.969 
 H                    -3.511     1.027     2.858 
 H                    -3.852     1.301     4.543 
 H                     0.669     1.096     4.966 
 H                     1.13     -0.639     5.189 
 H                    -0.844     0.026     7.125 
 H                     0.062     1.477     6.921 
 H                    -1.344     5.186     1.938 
 H                    -1.651     5.963     0.432 
 H                     0.007     6.02      1.084 
 H                    -0.635     6.744    -1.405 
 H                     0.665     6.97     -2.704 
 H                     1.048     6.466    -1.036 
 H                     0.608     0.501    -4.891 
 H                    -0.692    -2.156    -4.547 
 H                    -1.267     0.74     -6.129 
 H                    -2.204     0.714    -4.596 
 H                    -1.967    -0.72     -5.453 
 H                     1.356    -1.759    -5.967 
 H                     1.452    -3.157    -4.902 
 H                     2.714    -0.522    -4.798 
 H                     3.487    -2.121    -4.529 
 H                     2.495    -1.303    -3.24 
 H                     0.867    -6.333    -0.084 
 H                     0.404    -5.642    -1.68 
 H                    -0.891    -5.999    -0.463 
 H                    -1.283    -3.581     4.028 
 H                     0.698    -4.478     7.755 
 H                     0.833    -2.619     7.68 
 H                     2.       -3.754     6.976 
 Mg                    15.76924   1.42735   1.20402 
 C                     16.88718  -0.3937    4.08726 
 C                     13.47705   2.93534   3.23045 
 C                     14.46681   2.70932  -1.38975 
 C                     17.32316  -0.99784  -0.75799 
 N                     15.33629   1.21527   3.36269 
 C                     15.86689   0.53827   4.3699 
 C                     15.32589   0.93745   5.76902 
 C                     13.90694   1.53757   5.31592 
 C                     14.2629   1.95769   3.89133 
 C                     12.80641   0.49206   5.24467 
 C                     16.21469   2.02731   6.4649 
 C                     15.9252   2.23942   7.9525 
 H                     17.04091   2.55318   8.84088 
 N                     14.55032   2.98184   1.01339 
 C                     13.70468   3.47174   1.94406 
 C                     13.01791   4.60577   1.3065 
 C                     13.40723   4.64277  -0.12939 
 C                     14.15668   3.40663  -0.23124 
 C                     12.15769   5.56996   2.07055 
 C                     13.13746   5.62152  -1.23188 
 O                     13.37174   5.33491  -2.45899 
 C                     12.5041   6.88978  -0.84219 
 N                     15.69433   0.82054  -0.78307 
 C                     15.11022   1.58909  -1.71905 
 C                     15.41866   1.08531  -3.10882 
 C                     16.53468  -0.04424  -2.91849 
 C                     16.6173  -0.06104  -1.37633 
 C                     14.23564   0.50599  -3.88421 
 C                     17.85014   0.12275  -3.72741 
 C                     18.61741   1.3236   -3.2228 
 N                     17.05727  -0.27041   1.55992 
 C                     17.57222  -1.16688   0.59802 
 C                     18.29933  -2.22272   1.33215 
 C                     18.13617  -1.87714   2.68213 
 C                     17.34501  -0.70097   2.78315 
 C                     18.95041  -3.34514   0.74702 
 C                     18.44439  -2.24582   4.04513 
 O                     19.15275  -3.10111   4.57469 
 C                     17.54331  -1.3727    5.0209 
 C                     18.43029  -0.82174   6.1036 
 O                     19.32663  -0.00384   5.83116 
 O                     17.93717  -1.18134   7.30272 
 C                     18.77666  -0.64902   8.40894 
 H                     12.57542   3.29746   3.72524 
 H                     14.13384   3.17174  -2.32183 
 H                     17.91747  -1.73523  -1.3018 
 H                     15.17842   0.10961   6.45218 
 H                     13.63605   2.40464   5.91273 
 H                     13.18874  -0.50635   5.39678 
 H                     12.37529   0.58563   4.25653 
 H                     12.0056   0.73919   5.9475 
 H                     15.93819   3.01609   6.07683 
 H                     17.25685   1.8144    6.32635 
 H                     15.31473   1.43104   8.37298 
 H                     15.30186   3.13029   8.06114 
 H                     11.92378   5.19261   3.0737 
 H                     11.18854   5.60665   1.56135 
 H                     12.57897   6.57705   2.10155 
 H                     11.55269   6.68431  -0.35735 
 H                     12.47393   7.49293  -1.75168 
 H                     13.13758   7.38246  -0.09615 
 H                     15.82264   1.87788  -3.72667 
 H                     16.16788  -1.03506  -3.22435 
 H                     14.06248   1.00747  -4.85509 
 H                     13.35409   0.57053  -3.26031 
 H                     14.29601  -0.56151  -4.08911 
 H                     17.62592   0.31722  -4.7791 
 H                     18.49317  -0.75029  -3.69132 
 H                     18.14442   2.15782  -3.74955 
 H                     19.67134   1.24076  -3.48052 
 H                     18.45109   1.47446  -2.14985 
 H                     19.9012  -3.45176   1.25212 
 H                     19.08139  -3.21443  -0.32515 
 H                     18.22833  -4.13246   0.97937 
 H                     16.76623  -2.02522   5.42081 
 H                     19.07205  -1.50357   9.02552 
 H                     18.16758   0.13619   8.89495 
 H                     19.74251  -0.23184   8.14904 
 
 ITRead=  0  0  0  0  0  0  0  0  0  0  0  0  0  0  0  0  0  0  0  0
 ITRead=  0  0  0  0  0  0  0  0  0  0  0  0  0  0  0  0  0  0  0  0
 ITRead=  0  0  0  0  0  0  0  0  0  0  0  0  0  0  0  0  0  0  0  0
 ITRead=  0  0  0  0  0  0  0  0  0  0  0  0  0  0  0  0  0  0  0  0
 ITRead=  0  0  0  0  0  0  0  0  0  0  0  0  0  0  0  0  0  0  0  0
 ITRead=  0  0  0  0  0  0  0  0  0  0  0  0  0  0  0  0  0  0  0  0
 ITRead=  0  0  0  0  0  0  0  0  0  0  0  0  0  0  0  0  0  0  0  0
 ITRead=  0  0  0  0  0  0  0  0  0  0  0  0  0  0  0  0  0  0
 MicOpt= -1 -1 -1 -1 -1 -1 -1 -1 -1 -1 -1 -1 -1 -1 -1 -1 -1 -1 -1 -1
 MicOpt= -1 -1 -1 -1 -1 -1 -1 -1 -1 -1 -1 -1 -1 -1 -1 -1 -1 -1 -1 -1
 MicOpt= -1 -1 -1 -1 -1 -1 -1 -1 -1 -1 -1 -1 -1 -1 -1 -1 -1 -1 -1 -1
 MicOpt= -1 -1 -1 -1 -1 -1 -1 -1 -1 -1 -1 -1 -1 -1 -1 -1 -1 -1 -1 -1
 MicOpt= -1 -1 -1 -1 -1 -1 -1 -1 -1 -1 -1 -1 -1 -1 -1 -1 -1 -1 -1 -1
 MicOpt= -1 -1 -1 -1 -1 -1 -1 -1 -1 -1 -1 -1 -1 -1 -1 -1 -1 -1 -1 -1
 MicOpt= -1 -1 -1 -1 -1 -1 -1 -1 -1 -1 -1 -1 -1 -1 -1 -1 -1 -1 -1 -1
 MicOpt= -1 -1 -1 -1 -1 -1 -1 -1 -1 -1 -1 -1 -1 -1 -1 -1 -1 -1
 NAtoms=    158 NQM=      158 NQMF=       0 NMMI=      0 NMMIF=      0
                NMic=       0 NMicF=      0.
                    Isotopes and Nuclear Properties:
 (Nuclear quadrupole moments (NQMom) in fm**2, nuclear magnetic moments (NMagM)
  in nuclear magnetons)

  Atom         1           2           3           4           5           6           7           8           9          10
 IAtWgt=          24          12          12          12          12          14          12          12          12          12
 AtmWgt=  23.9850450  12.0000000  12.0000000  12.0000000  12.0000000  14.0030740  12.0000000  12.0000000  12.0000000  12.0000000
 NucSpn=           0           0           0           0           0           2           0           0           0           0
 AtZEff=  -0.0000000  -0.0000000  -0.0000000  -0.0000000  -0.0000000  -0.0000000  -0.0000000  -0.0000000  -0.0000000  -0.0000000
 NQMom=    0.0000000   0.0000000   0.0000000   0.0000000   0.0000000   2.0440000   0.0000000   0.0000000   0.0000000   0.0000000
 NMagM=    0.0000000   0.0000000   0.0000000   0.0000000   0.0000000   0.4037610   0.0000000   0.0000000   0.0000000   0.0000000
 AtZNuc=  12.0000000   6.0000000   6.0000000   6.0000000   6.0000000   7.0000000   6.0000000   6.0000000   6.0000000   6.0000000

  Atom        11          12          13          14          15          16          17          18          19          20
 IAtWgt=          12          12          12           1          14          12          12          12          12          12
 AtmWgt=  12.0000000  12.0000000  12.0000000   1.0078250  14.0030740  12.0000000  12.0000000  12.0000000  12.0000000  12.0000000
 NucSpn=           0           0           0           1           2           0           0           0           0           0
 AtZEff=  -0.0000000  -0.0000000  -0.0000000  -0.0000000  -0.0000000  -0.0000000  -0.0000000  -0.0000000  -0.0000000  -0.0000000
 NQMom=    0.0000000   0.0000000   0.0000000   0.0000000   2.0440000   0.0000000   0.0000000   0.0000000   0.0000000   0.0000000
 NMagM=    0.0000000   0.0000000   0.0000000   2.7928460   0.4037610   0.0000000   0.0000000   0.0000000   0.0000000   0.0000000
 AtZNuc=   6.0000000   6.0000000   6.0000000   1.0000000   7.0000000   6.0000000   6.0000000   6.0000000   6.0000000   6.0000000

  Atom        21          22          23          24          25          26          27          28          29          30
 IAtWgt=          12          16          12          14          12          12          12          12          12          12
 AtmWgt=  12.0000000  15.9949146  12.0000000  14.0030740  12.0000000  12.0000000  12.0000000  12.0000000  12.0000000  12.0000000
 NucSpn=           0           0           0           2           0           0           0           0           0           0
 AtZEff=  -0.0000000  -0.0000000  -0.0000000  -0.0000000  -0.0000000  -0.0000000  -0.0000000  -0.0000000  -0.0000000  -0.0000000
 NQMom=    0.0000000   0.0000000   0.0000000   2.0440000   0.0000000   0.0000000   0.0000000   0.0000000   0.0000000   0.0000000
 NMagM=    0.0000000   0.0000000   0.0000000   0.4037610   0.0000000   0.0000000   0.0000000   0.0000000   0.0000000   0.0000000
 AtZNuc=   6.0000000   8.0000000   6.0000000   7.0000000   6.0000000   6.0000000   6.0000000   6.0000000   6.0000000   6.0000000

  Atom        31          32          33          34          35          36          37          38          39          40
 IAtWgt=          12          14          12          12          12          12          12          12          16          12
 AtmWgt=  12.0000000  14.0030740  12.0000000  12.0000000  12.0000000  12.0000000  12.0000000  12.0000000  15.9949146  12.0000000
 NucSpn=           0           2           0           0           0           0           0           0           0           0
 AtZEff=  -0.0000000  -0.0000000  -0.0000000  -0.0000000  -0.0000000  -0.0000000  -0.0000000  -0.0000000  -0.0000000  -0.0000000
 NQMom=    0.0000000   2.0440000   0.0000000   0.0000000   0.0000000   0.0000000   0.0000000   0.0000000   0.0000000   0.0000000
 NMagM=    0.0000000   0.4037610   0.0000000   0.0000000   0.0000000   0.0000000   0.0000000   0.0000000   0.0000000   0.0000000
 AtZNuc=   6.0000000   7.0000000   6.0000000   6.0000000   6.0000000   6.0000000   6.0000000   6.0000000   8.0000000   6.0000000

  Atom        41          42          43          44          45          46          47          48          49          50
 IAtWgt=          12          16          16          12           1           1           1           1           1           1
 AtmWgt=  12.0000000  15.9949146  15.9949146  12.0000000   1.0078250   1.0078250   1.0078250   1.0078250   1.0078250   1.0078250
 NucSpn=           0           0           0           0           1           1           1           1           1           1
 AtZEff=  -0.0000000  -0.0000000  -0.0000000  -0.0000000  -0.0000000  -0.0000000  -0.0000000  -0.0000000  -0.0000000  -0.0000000
 NQMom=    0.0000000   0.0000000   0.0000000   0.0000000   0.0000000   0.0000000   0.0000000   0.0000000   0.0000000   0.0000000
 NMagM=    0.0000000   0.0000000   0.0000000   0.0000000   2.7928460   2.7928460   2.7928460   2.7928460   2.7928460   2.7928460
 AtZNuc=   6.0000000   8.0000000   8.0000000   6.0000000   1.0000000   1.0000000   1.0000000   1.0000000   1.0000000   1.0000000

  Atom        51          52          53          54          55          56          57          58          59          60
 IAtWgt=           1           1           1           1           1           1           1           1           1           1
 AtmWgt=   1.0078250   1.0078250   1.0078250   1.0078250   1.0078250   1.0078250   1.0078250   1.0078250   1.0078250   1.0078250
 NucSpn=           1           1           1           1           1           1           1           1           1           1
 AtZEff=  -0.0000000  -0.0000000  -0.0000000  -0.0000000  -0.0000000  -0.0000000  -0.0000000  -0.0000000  -0.0000000  -0.0000000
 NQMom=    0.0000000   0.0000000   0.0000000   0.0000000   0.0000000   0.0000000   0.0000000   0.0000000   0.0000000   0.0000000
 NMagM=    2.7928460   2.7928460   2.7928460   2.7928460   2.7928460   2.7928460   2.7928460   2.7928460   2.7928460   2.7928460
 AtZNuc=   1.0000000   1.0000000   1.0000000   1.0000000   1.0000000   1.0000000   1.0000000   1.0000000   1.0000000   1.0000000

  Atom        61          62          63          64          65          66          67          68          69          70
 IAtWgt=           1           1           1           1           1           1           1           1           1           1
 AtmWgt=   1.0078250   1.0078250   1.0078250   1.0078250   1.0078250   1.0078250   1.0078250   1.0078250   1.0078250   1.0078250
 NucSpn=           1           1           1           1           1           1           1           1           1           1
 AtZEff=  -0.0000000  -0.0000000  -0.0000000  -0.0000000  -0.0000000  -0.0000000  -0.0000000  -0.0000000  -0.0000000  -0.0000000
 NQMom=    0.0000000   0.0000000   0.0000000   0.0000000   0.0000000   0.0000000   0.0000000   0.0000000   0.0000000   0.0000000
 NMagM=    2.7928460   2.7928460   2.7928460   2.7928460   2.7928460   2.7928460   2.7928460   2.7928460   2.7928460   2.7928460
 AtZNuc=   1.0000000   1.0000000   1.0000000   1.0000000   1.0000000   1.0000000   1.0000000   1.0000000   1.0000000   1.0000000

  Atom        71          72          73          74          75          76          77          78          79          80
 IAtWgt=           1           1           1           1           1           1           1           1           1          24
 AtmWgt=   1.0078250   1.0078250   1.0078250   1.0078250   1.0078250   1.0078250   1.0078250   1.0078250   1.0078250  23.9850450
 NucSpn=           1           1           1           1           1           1           1           1           1           0
 AtZEff=  -0.0000000  -0.0000000  -0.0000000  -0.0000000  -0.0000000  -0.0000000  -0.0000000  -0.0000000  -0.0000000  -0.0000000
 NQMom=    0.0000000   0.0000000   0.0000000   0.0000000   0.0000000   0.0000000   0.0000000   0.0000000   0.0000000   0.0000000
 NMagM=    2.7928460   2.7928460   2.7928460   2.7928460   2.7928460   2.7928460   2.7928460   2.7928460   2.7928460   0.0000000
 AtZNuc=   1.0000000   1.0000000   1.0000000   1.0000000   1.0000000   1.0000000   1.0000000   1.0000000   1.0000000  12.0000000

  Atom        81          82          83          84          85          86          87          88          89          90
 IAtWgt=          12          12          12          12          14          12          12          12          12          12
 AtmWgt=  12.0000000  12.0000000  12.0000000  12.0000000  14.0030740  12.0000000  12.0000000  12.0000000  12.0000000  12.0000000
 NucSpn=           0           0           0           0           2           0           0           0           0           0
 AtZEff=  -0.0000000  -0.0000000  -0.0000000  -0.0000000  -0.0000000  -0.0000000  -0.0000000  -0.0000000  -0.0000000  -0.0000000
 NQMom=    0.0000000   0.0000000   0.0000000   0.0000000   2.0440000   0.0000000   0.0000000   0.0000000   0.0000000   0.0000000
 NMagM=    0.0000000   0.0000000   0.0000000   0.0000000   0.4037610   0.0000000   0.0000000   0.0000000   0.0000000   0.0000000
 AtZNuc=   6.0000000   6.0000000   6.0000000   6.0000000   7.0000000   6.0000000   6.0000000   6.0000000   6.0000000   6.0000000

  Atom        91          92          93          94          95          96          97          98          99         100
 IAtWgt=          12          12           1          14          12          12          12          12          12          12
 AtmWgt=  12.0000000  12.0000000   1.0078250  14.0030740  12.0000000  12.0000000  12.0000000  12.0000000  12.0000000  12.0000000
 NucSpn=           0           0           1           2           0           0           0           0           0           0
 AtZEff=  -0.0000000  -0.0000000  -0.0000000  -0.0000000  -0.0000000  -0.0000000  -0.0000000  -0.0000000  -0.0000000  -0.0000000
 NQMom=    0.0000000   0.0000000   0.0000000   2.0440000   0.0000000   0.0000000   0.0000000   0.0000000   0.0000000   0.0000000
 NMagM=    0.0000000   0.0000000   2.7928460   0.4037610   0.0000000   0.0000000   0.0000000   0.0000000   0.0000000   0.0000000
 AtZNuc=   6.0000000   6.0000000   1.0000000   7.0000000   6.0000000   6.0000000   6.0000000   6.0000000   6.0000000   6.0000000

  Atom       101         102         103         104         105         106         107         108         109         110
 IAtWgt=          16          12          14          12          12          12          12          12          12          12
 AtmWgt=  15.9949146  12.0000000  14.0030740  12.0000000  12.0000000  12.0000000  12.0000000  12.0000000  12.0000000  12.0000000
 NucSpn=           0           0           2           0           0           0           0           0           0           0
 AtZEff=  -0.0000000  -0.0000000  -0.0000000  -0.0000000  -0.0000000  -0.0000000  -0.0000000  -0.0000000  -0.0000000  -0.0000000
 NQMom=    0.0000000   0.0000000   2.0440000   0.0000000   0.0000000   0.0000000   0.0000000   0.0000000   0.0000000   0.0000000
 NMagM=    0.0000000   0.0000000   0.4037610   0.0000000   0.0000000   0.0000000   0.0000000   0.0000000   0.0000000   0.0000000
 AtZNuc=   8.0000000   6.0000000   7.0000000   6.0000000   6.0000000   6.0000000   6.0000000   6.0000000   6.0000000   6.0000000

  Atom       111         112         113         114         115         116         117         118         119         120
 IAtWgt=          14          12          12          12          12          12          12          16          12          12
 AtmWgt=  14.0030740  12.0000000  12.0000000  12.0000000  12.0000000  12.0000000  12.0000000  15.9949146  12.0000000  12.0000000
 NucSpn=           2           0           0           0           0           0           0           0           0           0
 AtZEff=  -0.0000000  -0.0000000  -0.0000000  -0.0000000  -0.0000000  -0.0000000  -0.0000000  -0.0000000  -0.0000000  -0.0000000
 NQMom=    2.0440000   0.0000000   0.0000000   0.0000000   0.0000000   0.0000000   0.0000000   0.0000000   0.0000000   0.0000000
 NMagM=    0.4037610   0.0000000   0.0000000   0.0000000   0.0000000   0.0000000   0.0000000   0.0000000   0.0000000   0.0000000
 AtZNuc=   7.0000000   6.0000000   6.0000000   6.0000000   6.0000000   6.0000000   6.0000000   8.0000000   6.0000000   6.0000000

  Atom       121         122         123         124         125         126         127         128         129         130
 IAtWgt=          16          16          12           1           1           1           1           1           1           1
 AtmWgt=  15.9949146  15.9949146  12.0000000   1.0078250   1.0078250   1.0078250   1.0078250   1.0078250   1.0078250   1.0078250
 NucSpn=           0           0           0           1           1           1           1           1           1           1
 AtZEff=  -0.0000000  -0.0000000  -0.0000000  -0.0000000  -0.0000000  -0.0000000  -0.0000000  -0.0000000  -0.0000000  -0.0000000
 NQMom=    0.0000000   0.0000000   0.0000000   0.0000000   0.0000000   0.0000000   0.0000000   0.0000000   0.0000000   0.0000000
 NMagM=    0.0000000   0.0000000   0.0000000   2.7928460   2.7928460   2.7928460   2.7928460   2.7928460   2.7928460   2.7928460
 AtZNuc=   8.0000000   8.0000000   6.0000000   1.0000000   1.0000000   1.0000000   1.0000000   1.0000000   1.0000000   1.0000000

  Atom       131         132         133         134         135         136         137         138         139         140
 IAtWgt=           1           1           1           1           1           1           1           1           1           1
 AtmWgt=   1.0078250   1.0078250   1.0078250   1.0078250   1.0078250   1.0078250   1.0078250   1.0078250   1.0078250   1.0078250
 NucSpn=           1           1           1           1           1           1           1           1           1           1
 AtZEff=  -0.0000000  -0.0000000  -0.0000000  -0.0000000  -0.0000000  -0.0000000  -0.0000000  -0.0000000  -0.0000000  -0.0000000
 NQMom=    0.0000000   0.0000000   0.0000000   0.0000000   0.0000000   0.0000000   0.0000000   0.0000000   0.0000000   0.0000000
 NMagM=    2.7928460   2.7928460   2.7928460   2.7928460   2.7928460   2.7928460   2.7928460   2.7928460   2.7928460   2.7928460
 AtZNuc=   1.0000000   1.0000000   1.0000000   1.0000000   1.0000000   1.0000000   1.0000000   1.0000000   1.0000000   1.0000000

  Atom       141         142         143         144         145         146         147         148         149         150
 IAtWgt=           1           1           1           1           1           1           1           1           1           1
 AtmWgt=   1.0078250   1.0078250   1.0078250   1.0078250   1.0078250   1.0078250   1.0078250   1.0078250   1.0078250   1.0078250
 NucSpn=           1           1           1           1           1           1           1           1           1           1
 AtZEff=  -0.0000000  -0.0000000  -0.0000000  -0.0000000  -0.0000000  -0.0000000  -0.0000000  -0.0000000  -0.0000000  -0.0000000
 NQMom=    0.0000000   0.0000000   0.0000000   0.0000000   0.0000000   0.0000000   0.0000000   0.0000000   0.0000000   0.0000000
 NMagM=    2.7928460   2.7928460   2.7928460   2.7928460   2.7928460   2.7928460   2.7928460   2.7928460   2.7928460   2.7928460
 AtZNuc=   1.0000000   1.0000000   1.0000000   1.0000000   1.0000000   1.0000000   1.0000000   1.0000000   1.0000000   1.0000000

  Atom       151         152         153         154         155         156         157         158
 IAtWgt=           1           1           1           1           1           1           1           1
 AtmWgt=   1.0078250   1.0078250   1.0078250   1.0078250   1.0078250   1.0078250   1.0078250   1.0078250
 NucSpn=           1           1           1           1           1           1           1           1
 AtZEff=  -0.0000000  -0.0000000  -0.0000000  -0.0000000  -0.0000000  -0.0000000  -0.0000000  -0.0000000
 NQMom=    0.0000000   0.0000000   0.0000000   0.0000000   0.0000000   0.0000000   0.0000000   0.0000000
 NMagM=    2.7928460   2.7928460   2.7928460   2.7928460   2.7928460   2.7928460   2.7928460   2.7928460
 AtZNuc=   1.0000000   1.0000000   1.0000000   1.0000000   1.0000000   1.0000000   1.0000000   1.0000000
 Leave Link  101 at Sun Sep 12 04:22:46 2021, MaxMem= 23488102400 cpu:               3.3 elap:               0.2
 (Enter /sw/apps/gaussian-16.0/g16/l202.exe)
 Stoichiometry    C68H72Mg2N8O8
 Framework group  C1[X(C68H72Mg2N8O8)]
 Deg. of freedom   468
 Full point group                 C1      NOp   1
 Largest Abelian subgroup         C1      NOp   1
 Largest concise Abelian subgroup C1      NOp   1
                         Standard orientation:                         
 ---------------------------------------------------------------------
 Center     Atomic      Atomic             Coordinates (Angstroms)
 Number     Number       Type             X           Y           Z
 ---------------------------------------------------------------------
      1         12           0        8.002206   -0.488216   -0.175358
      2          6           0        8.060051    3.011948   -0.922161
      3          6           0        8.929419    0.326826    3.005687
      4          6           0        8.399422   -3.583992    0.385902
      5          6           0        8.197871   -1.072932   -3.605443
      6          7           0        8.410409    1.457909    0.797582
      7          6           0        8.338677    2.729586    0.416975
      8          6           0        8.513046    3.737093    1.592517
      9          6           0        9.325638    2.808103    2.601808
     10          6           0        8.833606    1.450478    2.132040
     11          6           0       10.837265    2.876087    2.409805
     12          6           0        7.141316    4.182682    2.202058
     13          6           0        7.202502    5.401646    3.127118
     14          1           0        6.091827    6.341707    3.121186
     15          7           0        8.100914   -1.478557    1.531197
     16          6           0        8.483255   -0.984511    2.733288
     17          6           0        8.388152   -2.111430    3.686015
     18          6           0        8.102032   -3.345904    2.903517
     19          6           0        8.216794   -2.850300    1.555710
     20          6           0        8.514373   -1.947539    5.169578
     21          6           0        7.787121   -4.751819    3.306464
     22          8           0        7.801327   -5.718533    2.469902
     23          6           0        7.544993   -4.985272    4.741705
     24          7           0        8.482836   -2.104324   -1.406141
     25          6           0        8.534528   -3.349712   -0.921043
     26          6           0        8.614665   -4.362602   -2.024479
     27          6           0        8.361188   -3.559417   -3.381091
     28          6           0        8.254619   -2.130724   -2.793087
     29          6           0        9.936565   -5.135754   -2.128531
     30          6           0        7.218860   -4.067509   -4.296158
     31          6           0        5.884166   -3.852306   -3.618383
     32          7           0        7.933009    0.720335   -1.976930
     33          6           0        8.056491    0.270277   -3.299380
     34          6           0        8.055898    1.464638   -4.164000
     35          6           0        7.948086    2.534368   -3.277491
     36          6           0        7.911742    2.040948   -1.942011
     37          6           0        8.205420    1.469220   -5.578941
     38          6           0        7.879945    3.980750   -3.146369
     39          8           0        7.776732    4.919286   -3.937565
     40          6           0        8.072433    4.354242   -1.610374
     41          6           0        6.998104    5.341864   -1.244685
     42          8           0        5.797120    5.003226   -1.226552
     43          8           0        7.565130    6.451814   -0.747661
     44          6           0        6.552833    7.461353   -0.337491
     45          1           0        9.444634    0.443524    3.961132
     46          1           0        8.429857   -4.666393    0.527039
     47          1           0        8.170580   -1.181848   -4.691190
     48          1           0        9.099028    4.623350    1.348391
     49          1           0        9.033401    2.979439    3.637648
     50          1           0       11.100783    3.454295    1.524280
     51          1           0       11.163532    1.841681    2.300042
     52          1           0       11.325614    3.250399    3.309906
     53          1           0        6.801234    3.428285    2.911487
     54          1           0        6.409803    4.364550    1.413935
     55          1           0        8.150920    5.930328    3.027579
     56          1           0        7.196166    5.048473    4.158344
     57          1           0        8.886633   -0.958306    5.432991
     58          1           0        9.297832   -2.629377    5.499726
     59          1           0        7.583818   -2.177912    5.688547
     60          1           0        8.425756   -4.683613    5.308987
     61          1           0        7.247629   -6.029559    4.830526
     62          1           0        6.731317   -4.339015    5.072208
     63          1           0        7.845234   -5.125303   -1.911831
     64          1           0        9.239517   -3.560064   -4.027011
     65          1           0        9.816532   -6.217915   -2.071750
     66          1           0       10.601020   -4.774305   -1.344219
     67          1           0       10.521340   -4.922993   -3.023063
     68          1           0        7.320861   -5.137997   -4.471079
     69          1           0        7.193667   -3.573640   -5.267605
     70          1           0        5.794961   -4.725830   -2.973534
     71          1           0        5.082024   -3.828573   -4.356770
     72          1           0        5.901787   -2.972583   -2.974750
     73          1           0        7.471082    2.178282   -5.960972
     74          1           0        8.050429    0.474713   -5.996717
     75          1           0        9.238186    1.804829   -5.671771
     76          1           0        9.070452    4.780648   -1.514147
     77          1           0        6.786645    8.384329   -0.868229
     78          1           0        6.565020    7.487337    0.752271
     79          1           0        5.530888    7.283582   -0.674188
     80         12           0       -7.861701   -1.056978    0.235612
     81          6           0       -9.158970    2.255452   -0.237660
     82          6           0       -5.855980    0.237836    2.671824
     83          6           0       -6.381578   -3.860368    0.368473
     84          6           0       -9.093086   -1.841438   -2.928879
     85          7           0       -7.629261    0.996235    1.024643
     86          6           0       -8.219587    2.162398    0.810360
     87          6           0       -7.837438    3.272886    1.825417
     88          6           0       -6.413743    2.693734    2.290754
     89          6           0       -6.651227    1.210460    2.014780
     90          6           0       -5.259664    3.162697    1.420404
     91          6           0       -8.843708    3.356908    3.026404
     92          6           0       -8.710590    4.613007    3.890257
     93          1           0       -9.921495    5.197499    4.459952
     94          7           0       -6.710825   -1.835724    1.652505
     95          6           0       -5.985187   -1.164873    2.571561
     96          6           0       -5.298646   -2.192089    3.370089
     97          6           0       -5.548684   -3.518387    2.743085
     98          6           0       -6.220837   -3.111749    1.525322
     99          6           0       -4.566563   -1.878905    4.642639
    100          6           0       -5.223783   -4.919901    3.163094
    101          8           0       -5.323414   -5.906441    2.350909
    102          6           0       -4.696492   -5.090636    4.524820
    103          7           0       -7.564203   -2.562214   -1.167283
    104          6           0       -6.932238   -3.701632   -0.835232
    105          6           0       -7.078796   -4.742570   -1.919372
    106          6           0       -8.149003   -4.145174   -2.946692
    107          6           0       -8.379382   -2.763102   -2.296948
    108          6           0       -5.798384   -5.104312   -2.671744
    109          6           0       -9.386876   -5.027511   -3.265792
    110          6           0      -10.259504   -5.155845   -2.038019
    111          7           0       -9.089955   -0.071506   -1.243682
    112          6           0       -9.463156   -0.569408   -2.511317
    113          6           0      -10.203115    0.507084   -3.201286
    114          6           0      -10.189062    1.572942   -2.289013
    115          6           0       -9.472314    1.194739   -1.121644
    116          6           0      -10.736552    0.437369   -4.519123
    117          6           0      -10.608445    2.935604   -2.052445
    118          8           0      -11.320202    3.741658   -2.650280
    119          6           0       -9.851578    3.481101   -0.765589
    120          6           0      -10.865993    4.149429    0.121445
    121          8           0      -11.772281    3.486616    0.656170
    122          8           0      -10.473452    5.413047    0.365475
    123          6           0      -11.441986    6.113714    1.250257
    124          1           0       -5.026034    0.578700    3.291411
    125          1           0       -5.984034   -4.877244    0.405851
    126          1           0       -9.593699   -2.040603   -3.878826
    127          1           0       -7.714740    4.259382    1.394668
    128          1           0       -6.246343    2.862211    3.351399
    129          1           0       -5.603559    3.715217    0.558665
    130          1           0       -4.740350    2.264913    1.111637
    131          1           0       -4.544193    3.734023    2.018759
    132          1           0       -8.581704    2.590681    3.767340
    133          1           0       -9.855386    3.259856    2.683309
    134          1           0       -8.103258    5.385673    3.403338
    135          1           0       -8.146863    4.356841    4.790588
    136          1           0       -4.411827   -0.799502    4.762480
    137          1           0       -3.555852   -2.288341    4.539153
    138          1           0       -5.039611   -2.323165    5.521005
    139          1           0       -3.787193   -4.504746    4.636076
    140          1           0       -4.609285   -6.168965    4.671362
    141          1           0       -5.423405   -4.681491    5.235315
    142          1           0       -7.460986   -5.671565   -1.514399
    143          1           0       -7.704361   -3.957564   -3.935081
    144          1           0       -5.557930   -6.183454   -2.630399
    145          1           0       -4.985725   -4.517759   -2.264205
    146          1           0       -5.784209   -4.820000   -3.722529
    147          1           0       -9.072218   -6.040058   -3.530145
    148          1           0       -9.985077   -4.650980   -4.088816
    149          1           0       -9.780906   -5.965237   -1.478612
    150          1           0      -11.277984   -5.417747   -2.317584
    151          1           0      -10.205606   -4.251664   -1.420609
    152          1           0      -11.725054    0.875209   -4.478439
    153          1           0      -10.769738   -0.588217   -4.880871
    154          1           0      -10.001161    1.039577   -5.059314
    155          1           0       -9.084584    4.177243   -1.107160
    156          1           0      -11.751698    7.023908    0.727469
    157          1           0      -10.923539    6.240985    2.219150
    158          1           0      -12.398170    5.634657    1.425385
 ---------------------------------------------------------------------
 Rotational constants (GHZ):           0.0219986           0.0057650           0.0053430
 Leave Link  202 at Sun Sep 12 04:22:46 2021, MaxMem= 23488102400 cpu:               0.2 elap:               0.0
 (Enter /sw/apps/gaussian-16.0/g16/l301.exe)
 Standard basis: def2SVP (5D, 7F)
 Ernie: Thresh=  0.10000D-02 Tol=  0.10000D-05 Strict=F.
 There are  1658 symmetry adapted cartesian basis functions of A   symmetry.
 There are  1572 symmetry adapted basis functions of A   symmetry.
  1572 basis functions,  2678 primitive gaussians,  1658 cartesian basis functions
   312 alpha electrons      312 beta electrons
       nuclear repulsion energy     13736.3568511527 Hartrees.
 IExCor=20419 DFT=T Ex+Corr=CAM-B3LYP ExCW=0 ScaHFX=  1.000000
 ScaDFX=  1.000000  1.000000  1.000000  0.810000 ScalE2=  1.000000  1.000000
 IRadAn=      5 IRanWt=     -1 IRanGd=            0 ICorTp=0 IEmpDi=  4
 HFx  wShort=  0.000000 wLong=  0.330000 cFull=  0.190000 cShort=  0.000000 cLong=  0.460000
 DFx  wShort=  0.000000 wLong=  0.330000 cFull=  0.190000 cShort=  0.000000 cLong=  0.460000
 NAtoms=  158 NActive=  158 NUniq=  158 SFac= 1.00D+00 NAtFMM=   60 NAOKFM=T Big=T
 Integral buffers will be    131072 words long.
 Raffenetti 1 integral format.
 Two-electron integral symmetry is turned on.
 Leave Link  301 at Sun Sep 12 04:22:46 2021, MaxMem= 23488102400 cpu:               1.3 elap:               0.1
 (Enter /sw/apps/gaussian-16.0/g16/l302.exe)
 NPDir=0 NMtPBC=     1 NCelOv=     1 NCel=       1 NClECP=     1 NCelD=      1
         NCelK=      1 NCelE2=     1 NClLst=     1 CellRange=     0.0.
 One-electron integrals computed using PRISM.
 One-electron integral symmetry used in STVInt
   1 Symmetry operations used in ECPInt.
 ECPInt:  NShTT=  271216 NPrTT=  987664 LenC2=  108580 LenP2D=  245543.
 LDataN:  DoStor=T MaxTD1= 4 Len=   56
 NBasis=  1572 RedAO= T EigKep=  3.36D-04  NBF=  1572
 NBsUse=  1572 1.00D-06 EigRej= -1.00D+00 NBFU=  1572
 Precomputing XC quadrature grid using
 IXCGrd= 4 IRadAn=           5 IRanWt=          -1 IRanGd=           0 AccXCQ= 0.00D+00.
 Generated NRdTot=       0 NPtTot=           0 NUsed=           0 NTot=          32
 NSgBfM=   958   958   958   958   958 MxSgAt=   158 MxSgA2=   153.
 Leave Link  302 at Sun Sep 12 04:22:50 2021, MaxMem= 23488102400 cpu:             100.3 elap:               4.2
 (Enter /sw/apps/gaussian-16.0/g16/l303.exe)
 DipDrv:  MaxL=1.
 Leave Link  303 at Sun Sep 12 04:22:50 2021, MaxMem= 23488102400 cpu:               7.7 elap:               0.4
 (Enter /sw/apps/gaussian-16.0/g16/l308.exe)
 Leave Link  308 at Sun Sep 12 04:22:51 2021, MaxMem= 23488102400 cpu:              11.8 elap:               0.6
 (Enter /sw/apps/gaussian-16.0/g16/l401.exe)
 ExpMin= 3.36D-02 ExpMax= 4.95D+03 ExpMxC= 7.45D+02 IAcc=3 IRadAn=         5 AccDes= 0.00D+00
 Harris functional with IExCor=20419 and IRadAn=       5 diagonalized for initial guess.
 HarFok:  IExCor=20419 AccDes= 0.00D+00 IRadAn=         5 IDoV= 1 UseB2=F ITyADJ=14
 ICtDFT=  3500011 ScaDFX=  1.000000  1.000000  1.000000  1.000000
 FoFCou: FMM=F IPFlag=           0 FMFlag=      100000 FMFlg1=        2001
         NFxFlg=           0 DoJE=T BraDBF=F KetDBF=T FulRan=T
         wScrn=  0.000000 ICntrl=       500 IOpCl=  0 I1Cent=   200000004 NGrid=           0
         NMat0=    1 NMatS0=      1 NMatT0=    0 NMatD0=    1 NMtDS0=    0 NMtDT0=    0
 Petite list used in FoFCou.
 Harris En= -3918.65800871313    
 JPrj=0 DoOrth=F DoCkMO=F.
 Leave Link  401 at Sun Sep 12 04:22:57 2021, MaxMem= 23488102400 cpu:             148.7 elap:               6.2
 (Enter /sw/apps/gaussian-16.0/g16/l502.exe)
 Integral symmetry usage will be decided dynamically.
 Closed shell SCF:
 Using DIIS extrapolation, IDIIS=  1040.
 NGot= 23488102400 LenX= 23482547354 LenY= 23479796732
 Requested convergence on RMS density matrix=1.00D-08 within 128 cycles.
 Requested convergence on MAX density matrix=1.00D-06.
 Requested convergence on             energy=1.00D-06.
 No special actions if energy rises.
 Fock matrices will be formed incrementally for  20 cycles.

 Cycle   1  Pass 1  IDiag  1:
 FoFJK:  IHMeth= 1 ICntrl=       0 DoSepK=T KAlg= 0 I1Cent=           0 FoldK=F
 IRaf=         1 NMat=       1 IRICut=       1 DoRegI=T DoRafI=F ISym2E= 0 IDoP0=0 IntGTp=1.
 FoFCou: FMM=T IPFlag=           0 FMFlag=      100000 FMFlg1=        2001
         NFxFlg=           0 DoJE=T BraDBF=F KetDBF=F FulRan=T
         wScrn=  0.000000 ICntrl=       500 IOpCl=  0 I1Cent=           0 NGrid=           0
         NMat0=    1 NMatS0=      1 NMatT0=    0 NMatD0=    1 NMtDS0=    0 NMtDT0=    0
 Symmetry not used in FoFCou.
 FMM levels:  10  Number of levels for PrismC:   9
 E= -4068.94912194502    
 DIIS: error= 2.04D-02 at cycle   1 NSaved=   1.
 NSaved= 1 IEnMin= 1 EnMin= -4068.94912194502     IErMin= 1 ErrMin= 2.04D-02
 ErrMax= 2.04D-02  0.00D+00 EMaxC= 1.00D-01 BMatC= 1.69D+00 BMatP= 1.69D+00
 IDIUse=3 WtCom= 7.96D-01 WtEn= 2.04D-01
 Coeff-Com:  0.100D+01
 Coeff-En:   0.100D+01
 Coeff:      0.100D+01
 Gap=     0.120 Goal=   None    Shift=    0.000
 GapD=    0.120 DampG=1.000 DampE=0.500 DampFc=0.5000 IDamp=-1.
 Damping current iteration by 5.00D-01
 RMSDP=1.57D-03 MaxDP=1.35D-01              OVMax= 2.04D-01

 Cycle   2  Pass 1  IDiag  1:
 RMSU=  7.69D-04    CP:  9.82D-01
 E= -4069.33804456580     Delta-E=       -0.388922620783 Rises=F Damp=T
 DIIS: error= 1.27D-02 at cycle   2 NSaved=   2.
 NSaved= 2 IEnMin= 2 EnMin= -4069.33804456580     IErMin= 2 ErrMin= 1.27D-02
 ErrMax= 1.27D-02  0.00D+00 EMaxC= 1.00D-01 BMatC= 3.07D-01 BMatP= 1.69D+00
 IDIUse=3 WtCom= 8.73D-01 WtEn= 1.27D-01
 Coeff-Com: -0.213D+00 0.121D+01
 Coeff-En:   0.000D+00 0.100D+01
 Coeff:     -0.186D+00 0.119D+01
 Gap=     0.135 Goal=   None    Shift=    0.000
 RMSDP=7.65D-04 MaxDP=9.42D-02 DE=-3.89D-01 OVMax= 1.89D-01

 Cycle   3  Pass 1  IDiag  1:
 RMSU=  7.32D-04    CP:  9.68D-01  1.24D+00
 E= -4069.62760433749     Delta-E=       -0.289559771692 Rises=F Damp=F
 DIIS: error= 1.57D-02 at cycle   3 NSaved=   3.
 NSaved= 3 IEnMin= 3 EnMin= -4069.62760433749     IErMin= 2 ErrMin= 1.27D-02
 ErrMax= 1.57D-02  0.00D+00 EMaxC= 1.00D-01 BMatC= 2.02D-01 BMatP= 3.07D-01
 IDIUse=3 WtCom= 8.43D-01 WtEn= 1.57D-01
 Coeff-Com: -0.267D+00 0.652D+00 0.616D+00
 Coeff-En:   0.000D+00 0.000D+00 0.100D+01
 Coeff:     -0.225D+00 0.549D+00 0.676D+00
 Gap=     0.123 Goal=   None    Shift=    0.000
 RMSDP=5.09D-04 MaxDP=4.76D-02 DE=-2.90D-01 OVMax= 1.43D-01

 Cycle   4  Pass 1  IDiag  1:
 RMSU=  2.66D-04    CP:  9.65D-01  1.55D+00  5.05D-01
 E= -4069.76495056919     Delta-E=       -0.137346231699 Rises=F Damp=F
 DIIS: error= 7.23D-03 at cycle   4 NSaved=   4.
 NSaved= 4 IEnMin= 4 EnMin= -4069.76495056919     IErMin= 4 ErrMin= 7.23D-03
 ErrMax= 7.23D-03  0.00D+00 EMaxC= 1.00D-01 BMatC= 5.03D-02 BMatP= 2.02D-01
 IDIUse=3 WtCom= 9.28D-01 WtEn= 7.23D-02
 Coeff-Com: -0.109D+00 0.226D+00 0.409D+00 0.474D+00
 Coeff-En:   0.000D+00 0.000D+00 0.221D+00 0.779D+00
 Coeff:     -0.101D+00 0.210D+00 0.395D+00 0.496D+00
 Gap=     0.122 Goal=   None    Shift=    0.000
 RMSDP=2.00D-04 MaxDP=2.01D-02 DE=-1.37D-01 OVMax= 6.24D-02

 Cycle   5  Pass 1  IDiag  1:
 RMSU=  7.62D-05    CP:  9.64D-01  1.49D+00  6.89D-01  5.49D-01
 E= -4069.81047232276     Delta-E=       -0.045521753564 Rises=F Damp=F
 DIIS: error= 7.76D-04 at cycle   5 NSaved=   5.
 NSaved= 5 IEnMin= 5 EnMin= -4069.81047232276     IErMin= 5 ErrMin= 7.76D-04
 ErrMax= 7.76D-04  0.00D+00 EMaxC= 1.00D-01 BMatC= 1.18D-03 BMatP= 5.03D-02
 IDIUse=3 WtCom= 9.92D-01 WtEn= 7.76D-03
 Coeff-Com: -0.361D-01 0.708D-01 0.166D+00 0.250D+00 0.549D+00
 Coeff-En:   0.000D+00 0.000D+00 0.000D+00 0.000D+00 0.100D+01
 Coeff:     -0.358D-01 0.703D-01 0.165D+00 0.248D+00 0.553D+00
 Gap=     0.121 Goal=   None    Shift=    0.000
 RMSDP=4.13D-05 MaxDP=4.12D-03 DE=-4.55D-02 OVMax= 1.67D-02

 Cycle   6  Pass 1  IDiag  1:
 RMSU=  3.05D-05    CP:  9.64D-01  1.49D+00  6.81D-01  6.21D-01  7.54D-01
 E= -4069.81149994437     Delta-E=       -0.001027621616 Rises=F Damp=F
 DIIS: error= 2.08D-04 at cycle   6 NSaved=   6.
 NSaved= 6 IEnMin= 6 EnMin= -4069.81149994437     IErMin= 6 ErrMin= 2.08D-04
 ErrMax= 2.08D-04  0.00D+00 EMaxC= 1.00D-01 BMatC= 1.80D-04 BMatP= 1.18D-03
 IDIUse=3 WtCom= 9.98D-01 WtEn= 2.08D-03
 Coeff-Com:  0.221D-02-0.658D-02 0.113D-01 0.403D-01 0.307D+00 0.646D+00
 Coeff-En:   0.000D+00 0.000D+00 0.000D+00 0.000D+00 0.108D+00 0.892D+00
 Coeff:      0.220D-02-0.657D-02 0.113D-01 0.402D-01 0.307D+00 0.646D+00
 Gap=     0.122 Goal=   None    Shift=    0.000
 RMSDP=1.62D-05 MaxDP=1.18D-03 DE=-1.03D-03 OVMax= 7.33D-03

 Cycle   7  Pass 1  IDiag  1:
 RMSU=  1.08D-05    CP:  9.64D-01  1.50D+00  6.87D-01  6.21D-01  8.57D-01
                    CP:  7.45D-01
 E= -4069.81169515477     Delta-E=       -0.000195210396 Rises=F Damp=F
 DIIS: error= 8.38D-05 at cycle   7 NSaved=   7.
 NSaved= 7 IEnMin= 7 EnMin= -4069.81169515477     IErMin= 7 ErrMin= 8.38D-05
 ErrMax= 8.38D-05  0.00D+00 EMaxC= 1.00D-01 BMatC= 2.17D-05 BMatP= 1.80D-04
 IDIUse=1 WtCom= 1.00D+00 WtEn= 0.00D+00
 Coeff-Com:  0.448D-02-0.980D-02-0.893D-02-0.362D-02 0.104D+00 0.332D+00
 Coeff-Com:  0.582D+00
 Coeff:      0.448D-02-0.980D-02-0.893D-02-0.362D-02 0.104D+00 0.332D+00
 Coeff:      0.582D+00
 Gap=     0.122 Goal=   None    Shift=    0.000
 RMSDP=6.56D-06 MaxDP=1.07D-03 DE=-1.95D-04 OVMax= 3.39D-03

 Cycle   8  Pass 1  IDiag  1:
 RMSU=  4.71D-06    CP:  9.64D-01  1.50D+00  6.87D-01  6.26D-01  8.61D-01
                    CP:  8.71D-01  8.18D-01
 E= -4069.81172203793     Delta-E=       -0.000026883165 Rises=F Damp=F
 DIIS: error= 5.00D-05 at cycle   8 NSaved=   8.
 NSaved= 8 IEnMin= 8 EnMin= -4069.81172203793     IErMin= 8 ErrMin= 5.00D-05
 ErrMax= 5.00D-05  0.00D+00 EMaxC= 1.00D-01 BMatC= 4.90D-06 BMatP= 2.17D-05
 IDIUse=1 WtCom= 1.00D+00 WtEn= 0.00D+00
 Coeff-Com:  0.217D-02-0.431D-02-0.778D-02-0.122D-01-0.110D-01 0.337D-01
 Coeff-Com:  0.340D+00 0.659D+00
 Coeff:      0.217D-02-0.431D-02-0.778D-02-0.122D-01-0.110D-01 0.337D-01
 Coeff:      0.340D+00 0.659D+00
 Gap=     0.122 Goal=   None    Shift=    0.000
 RMSDP=3.30D-06 MaxDP=3.58D-04 DE=-2.69D-05 OVMax= 1.08D-03

 Cycle   9  Pass 1  IDiag  1:
 RMSU=  1.92D-06    CP:  9.64D-01  1.50D+00  6.88D-01  6.27D-01  8.78D-01
                    CP:  8.97D-01  1.01D+00  9.45D-01
 E= -4069.81172986033     Delta-E=       -0.000007822397 Rises=F Damp=F
 DIIS: error= 1.97D-05 at cycle   9 NSaved=   9.
 NSaved= 9 IEnMin= 9 EnMin= -4069.81172986033     IErMin= 9 ErrMin= 1.97D-05
 ErrMax= 1.97D-05  0.00D+00 EMaxC= 1.00D-01 BMatC= 7.03D-07 BMatP= 4.90D-06
 IDIUse=1 WtCom= 1.00D+00 WtEn= 0.00D+00
 Coeff-Com:  0.472D-03-0.785D-03-0.269D-02-0.603D-02-0.211D-01-0.389D-01
 Coeff-Com:  0.103D+00 0.327D+00 0.639D+00
 Coeff:      0.472D-03-0.785D-03-0.269D-02-0.603D-02-0.211D-01-0.389D-01
 Coeff:      0.103D+00 0.327D+00 0.639D+00
 Gap=     0.122 Goal=   None    Shift=    0.000
 RMSDP=1.42D-06 MaxDP=1.45D-04 DE=-7.82D-06 OVMax= 7.39D-04

 Cycle  10  Pass 1  IDiag  1:
 RMSU=  9.43D-07    CP:  9.64D-01  1.50D+00  6.88D-01  6.28D-01  8.81D-01
                    CP:  9.10D-01  1.06D+00  1.11D+00  1.06D+00
 E= -4069.81173147050     Delta-E=       -0.000001610169 Rises=F Damp=F
 DIIS: error= 1.04D-05 at cycle  10 NSaved=  10.
 NSaved=10 IEnMin=10 EnMin= -4069.81173147050     IErMin=10 ErrMin= 1.04D-05
 ErrMax= 1.04D-05  0.00D+00 EMaxC= 1.00D-01 BMatC= 1.73D-07 BMatP= 7.03D-07
 IDIUse=1 WtCom= 1.00D+00 WtEn= 0.00D+00
 Coeff-Com: -0.426D-03 0.893D-03 0.122D-02 0.110D-02-0.378D-02-0.311D-01
 Coeff-Com: -0.453D-01-0.758D-01 0.251D+00 0.902D+00
 Coeff:     -0.426D-03 0.893D-03 0.122D-02 0.110D-02-0.378D-02-0.311D-01
 Coeff:     -0.453D-01-0.758D-01 0.251D+00 0.902D+00
 Gap=     0.122 Goal=   None    Shift=    0.000
 RMSDP=1.23D-06 MaxDP=1.23D-04 DE=-1.61D-06 OVMax= 6.16D-04

 Cycle  11  Pass 1  IDiag  1:
 RMSU=  5.21D-07    CP:  9.64D-01  1.50D+00  6.88D-01  6.28D-01  8.83D-01
                    CP:  9.20D-01  1.11D+00  1.22D+00  1.39D+00  1.37D+00
 E= -4069.81173226433     Delta-E=       -0.000000793836 Rises=F Damp=F
 DIIS: error= 4.06D-06 at cycle  11 NSaved=  11.
 NSaved=11 IEnMin=11 EnMin= -4069.81173226433     IErMin=11 ErrMin= 4.06D-06
 ErrMax= 4.06D-06  0.00D+00 EMaxC= 1.00D-01 BMatC= 6.35D-08 BMatP= 1.73D-07
 IDIUse=1 WtCom= 1.00D+00 WtEn= 0.00D+00
 Coeff-Com: -0.331D-03 0.644D-03 0.133D-02 0.212D-02 0.439D-02-0.855D-02
 Coeff-Com: -0.428D-01-0.133D+00-0.258D-01 0.471D+00 0.730D+00
 Coeff:     -0.331D-03 0.644D-03 0.133D-02 0.212D-02 0.439D-02-0.855D-02
 Coeff:     -0.428D-01-0.133D+00-0.258D-01 0.471D+00 0.730D+00
 Gap=     0.122 Goal=   None    Shift=    0.000
 RMSDP=6.92D-07 MaxDP=6.04D-05 DE=-7.94D-07 OVMax= 3.78D-04

 Cycle  12  Pass 1  IDiag  1:
 RMSU=  2.66D-07    CP:  9.64D-01  1.50D+00  6.88D-01  6.28D-01  8.84D-01
                    CP:  9.23D-01  1.13D+00  1.29D+00  1.56D+00  1.76D+00
                    CP:  1.19D+00
 E= -4069.81173253062     Delta-E=       -0.000000266285 Rises=F Damp=F
 DIIS: error= 2.43D-06 at cycle  12 NSaved=  12.
 NSaved=12 IEnMin=12 EnMin= -4069.81173253062     IErMin=12 ErrMin= 2.43D-06
 ErrMax= 2.43D-06  0.00D+00 EMaxC= 1.00D-01 BMatC= 1.55D-08 BMatP= 6.35D-08
 IDIUse=1 WtCom= 1.00D+00 WtEn= 0.00D+00
 Coeff-Com: -0.608D-05-0.470D-05 0.203D-03 0.545D-03 0.339D-02 0.385D-02
 Coeff-Com:  0.213D-02-0.366D-01-0.691D-01-0.651D-01 0.259D+00 0.902D+00
 Coeff:     -0.608D-05-0.470D-05 0.203D-03 0.545D-03 0.339D-02 0.385D-02
 Coeff:      0.213D-02-0.366D-01-0.691D-01-0.651D-01 0.259D+00 0.902D+00
 Gap=     0.122 Goal=   None    Shift=    0.000
 RMSDP=4.35D-07 MaxDP=3.00D-05 DE=-2.66D-07 OVMax= 2.49D-04

 Cycle  13  Pass 1  IDiag  1:
 RMSU=  1.67D-07    CP:  9.64D-01  1.50D+00  6.88D-01  6.28D-01  8.84D-01
                    CP:  9.23D-01  1.14D+00  1.31D+00  1.67D+00  1.98D+00
                    CP:  1.60D+00  1.25D+00
 E= -4069.81173262337     Delta-E=       -0.000000092754 Rises=F Damp=F
 DIIS: error= 1.27D-06 at cycle  13 NSaved=  13.
 NSaved=13 IEnMin=13 EnMin= -4069.81173262337     IErMin=13 ErrMin= 1.27D-06
 ErrMax= 1.27D-06  0.00D+00 EMaxC= 1.00D-01 BMatC= 8.37D-09 BMatP= 1.55D-08
 IDIUse=1 WtCom= 1.00D+00 WtEn= 0.00D+00
 Coeff-Com:  0.119D-03-0.244D-03-0.366D-03-0.449D-03 0.626D-03 0.504D-02
 Coeff-Com:  0.194D-01 0.226D-01-0.339D-01-0.240D+00-0.154D+00 0.590D+00
 Coeff-Com:  0.791D+00
 Coeff:      0.119D-03-0.244D-03-0.366D-03-0.449D-03 0.626D-03 0.504D-02
 Coeff:      0.194D-01 0.226D-01-0.339D-01-0.240D+00-0.154D+00 0.590D+00
 Coeff:      0.791D+00
 Gap=     0.122 Goal=   None    Shift=    0.000
 RMSDP=3.44D-07 MaxDP=2.10D-05 DE=-9.28D-08 OVMax= 2.03D-04

 Cycle  14  Pass 1  IDiag  1:
 RMSU=  7.69D-08    CP:  9.64D-01  1.50D+00  6.88D-01  6.28D-01  8.85D-01
                    CP:  9.24D-01  1.14D+00  1.34D+00  1.74D+00  2.17D+00
                    CP:  1.86D+00  1.77D+00  1.09D+00
 E= -4069.81173266036     Delta-E=       -0.000000036987 Rises=F Damp=F
 DIIS: error= 6.87D-07 at cycle  14 NSaved=  14.
 NSaved=14 IEnMin=14 EnMin= -4069.81173266036     IErMin=14 ErrMin= 6.87D-07
 ErrMax= 6.87D-07  0.00D+00 EMaxC= 1.00D-01 BMatC= 1.30D-09 BMatP= 8.37D-09
 IDIUse=1 WtCom= 1.00D+00 WtEn= 0.00D+00
 Coeff-Com:  0.674D-04-0.133D-03-0.249D-03-0.390D-03-0.472D-03 0.130D-02
 Coeff-Com:  0.107D-01 0.195D-01 0.378D-02-0.101D+00-0.143D+00 0.892D-01
 Coeff-Com:  0.409D+00 0.712D+00
 Coeff:      0.674D-04-0.133D-03-0.249D-03-0.390D-03-0.472D-03 0.130D-02
 Coeff:      0.107D-01 0.195D-01 0.378D-02-0.101D+00-0.143D+00 0.892D-01
 Coeff:      0.409D+00 0.712D+00
 Gap=     0.122 Goal=   None    Shift=    0.000
 RMSDP=1.04D-07 MaxDP=6.75D-06 DE=-3.70D-08 OVMax= 5.64D-05

 Cycle  15  Pass 1  IDiag  1:
 RMSU=  3.84D-08    CP:  9.64D-01  1.50D+00  6.88D-01  6.28D-01  8.85D-01
                    CP:  9.23D-01  1.15D+00  1.34D+00  1.76D+00  2.22D+00
                    CP:  1.97D+00  1.91D+00  1.33D+00  1.03D+00
 E= -4069.81173266444     Delta-E=       -0.000000004078 Rises=F Damp=F
 DIIS: error= 3.14D-07 at cycle  15 NSaved=  15.
 NSaved=15 IEnMin=15 EnMin= -4069.81173266444     IErMin=15 ErrMin= 3.14D-07
 ErrMax= 3.14D-07  0.00D+00 EMaxC= 1.00D-01 BMatC= 2.23D-10 BMatP= 1.30D-09
 IDIUse=1 WtCom= 1.00D+00 WtEn= 0.00D+00
 Coeff-Com:  0.586D-05-0.993D-05-0.343D-04-0.841D-04-0.299D-03-0.503D-03
 Coeff-Com:  0.119D-02 0.269D-02 0.871D-02 0.896D-03-0.308D-01-0.726D-01
 Coeff-Com:  0.330D-01 0.293D+00 0.764D+00
 Coeff:      0.586D-05-0.993D-05-0.343D-04-0.841D-04-0.299D-03-0.503D-03
 Coeff:      0.119D-02 0.269D-02 0.871D-02 0.896D-03-0.308D-01-0.726D-01
 Coeff:      0.330D-01 0.293D+00 0.764D+00
 Gap=     0.122 Goal=   None    Shift=    0.000
 RMSDP=3.97D-08 MaxDP=2.23D-06 DE=-4.08D-09 OVMax= 2.76D-05

 Cycle  16  Pass 1  IDiag  1:
 RMSU=  1.87D-08    CP:  9.64D-01  1.50D+00  6.88D-01  6.28D-01  8.85D-01
                    CP:  9.23D-01  1.15D+00  1.34D+00  1.76D+00  2.23D+00
                    CP:  2.00D+00  1.97D+00  1.41D+00  1.24D+00  1.14D+00
 E= -4069.81173266551     Delta-E=       -0.000000001070 Rises=F Damp=F
 DIIS: error= 1.80D-07 at cycle  16 NSaved=  16.
 NSaved=16 IEnMin=16 EnMin= -4069.81173266551     IErMin=16 ErrMin= 1.80D-07
 ErrMax= 1.80D-07  0.00D+00 EMaxC= 1.00D-01 BMatC= 8.51D-11 BMatP= 2.23D-10
 IDIUse=1 WtCom= 1.00D+00 WtEn= 0.00D+00
 Coeff-Com: -0.140D-04 0.285D-04 0.462D-04 0.524D-04-0.311D-04-0.631D-03
 Coeff-Com: -0.192D-02-0.420D-02 0.445D-02 0.252D-01 0.206D-01-0.643D-01
 Coeff-Com: -0.808D-01-0.403D-01 0.402D+00 0.740D+00
 Coeff:     -0.140D-04 0.285D-04 0.462D-04 0.524D-04-0.311D-04-0.631D-03
 Coeff:     -0.192D-02-0.420D-02 0.445D-02 0.252D-01 0.206D-01-0.643D-01
 Coeff:     -0.808D-01-0.403D-01 0.402D+00 0.740D+00
 Gap=     0.122 Goal=   None    Shift=    0.000
 RMSDP=2.32D-08 MaxDP=1.30D-06 DE=-1.07D-09 OVMax= 1.21D-05

 Cycle  17  Pass 1  IDiag  1:
 RMSU=  1.04D-08    CP:  9.64D-01  1.50D+00  6.88D-01  6.28D-01  8.85D-01
                    CP:  9.23D-01  1.15D+00  1.34D+00  1.77D+00  2.24D+00
                    CP:  2.01D+00  1.99D+00  1.46D+00  1.34D+00  1.44D+00
                    CP:  1.24D+00
 E= -4069.81173266581     Delta-E=       -0.000000000298 Rises=F Damp=F
 DIIS: error= 9.16D-08 at cycle  17 NSaved=  17.
 NSaved=17 IEnMin=17 EnMin= -4069.81173266581     IErMin=17 ErrMin= 9.16D-08
 ErrMax= 9.16D-08  0.00D+00 EMaxC= 1.00D-01 BMatC= 1.78D-11 BMatP= 8.51D-11
 IDIUse=1 WtCom= 1.00D+00 WtEn= 0.00D+00
 Coeff-Com: -0.728D-05 0.142D-04 0.287D-04 0.425D-04 0.820D-04-0.129D-03
 Coeff-Com: -0.946D-03-0.282D-02 0.143D-03 0.936D-02 0.175D-01-0.764D-02
 Coeff-Com: -0.359D-01-0.101D+00-0.246D-01 0.287D+00 0.859D+00
 Coeff:     -0.728D-05 0.142D-04 0.287D-04 0.425D-04 0.820D-04-0.129D-03
 Coeff:     -0.946D-03-0.282D-02 0.143D-03 0.936D-02 0.175D-01-0.764D-02
 Coeff:     -0.359D-01-0.101D+00-0.246D-01 0.287D+00 0.859D+00
 Gap=     0.122 Goal=   None    Shift=    0.000
 RMSDP=1.36D-08 MaxDP=8.33D-07 DE=-2.98D-10 OVMax= 9.38D-06

 Cycle  18  Pass 1  IDiag  1:
 RMSU=  5.03D-09    CP:  9.64D-01  1.50D+00  6.88D-01  6.28D-01  8.85D-01
                    CP:  9.23D-01  1.15D+00  1.34D+00  1.77D+00  2.24D+00
                    CP:  2.01D+00  2.00D+00  1.47D+00  1.40D+00  1.61D+00
                    CP:  1.65D+00  1.38D+00
 E= -4069.81173266574     Delta-E=        0.000000000065 Rises=F Damp=F
 DIIS: error= 6.19D-08 at cycle  18 NSaved=  18.
 NSaved=18 IEnMin=17 EnMin= -4069.81173266581     IErMin=18 ErrMin= 6.19D-08
 ErrMax= 6.19D-08  0.00D+00 EMaxC= 1.00D-01 BMatC= 7.52D-12 BMatP= 1.78D-11
 IDIUse=1 WtCom= 1.00D+00 WtEn= 0.00D+00
 Coeff-Com:  0.161D-05-0.354D-05-0.294D-05 0.545D-06 0.616D-04 0.170D-03
 Coeff-Com:  0.337D-03 0.830D-04-0.124D-02-0.550D-02 0.683D-03 0.187D-01
 Coeff-Com:  0.162D-01-0.357D-01-0.157D+00-0.180D+00 0.383D+00 0.960D+00
 Coeff:      0.161D-05-0.354D-05-0.294D-05 0.545D-06 0.616D-04 0.170D-03
 Coeff:      0.337D-03 0.830D-04-0.124D-02-0.550D-02 0.683D-03 0.187D-01
 Coeff:      0.162D-01-0.357D-01-0.157D+00-0.180D+00 0.383D+00 0.960D+00
 Gap=     0.122 Goal=   None    Shift=    0.000
 RMSDP=1.15D-08 MaxDP=6.60D-07 DE= 6.55D-11 OVMax= 5.98D-06

 Cycle  19  Pass 1  IDiag  1:
 RMSU=  2.98D-09    CP:  9.64D-01  1.50D+00  6.88D-01  6.28D-01  8.85D-01
                    CP:  9.23D-01  1.15D+00  1.34D+00  1.77D+00  2.24D+00
                    CP:  2.02D+00  2.00D+00  1.49D+00  1.45D+00  1.75D+00
                    CP:  1.96D+00  1.92D+00  1.30D+00
 E= -4069.81173266599     Delta-E=       -0.000000000247 Rises=F Damp=F
 DIIS: error= 3.21D-08 at cycle  19 NSaved=  19.
 NSaved=19 IEnMin=19 EnMin= -4069.81173266599     IErMin=19 ErrMin= 3.21D-08
 ErrMax= 3.21D-08  0.00D+00 EMaxC= 1.00D-01 BMatC= 1.76D-12 BMatP= 7.52D-12
 IDIUse=1 WtCom= 1.00D+00 WtEn= 0.00D+00
 Coeff-Com:  0.297D-05-0.602D-05-0.998D-05-0.122D-04 0.148D-04 0.128D-03
 Coeff-Com:  0.486D-03 0.802D-03-0.641D-03-0.617D-02-0.476D-02 0.128D-01
 Coeff-Com:  0.210D-01 0.100D-01-0.766D-01-0.190D+00-0.124D-01 0.520D+00
 Coeff-Com:  0.725D+00
 Coeff:      0.297D-05-0.602D-05-0.998D-05-0.122D-04 0.148D-04 0.128D-03
 Coeff:      0.486D-03 0.802D-03-0.641D-03-0.617D-02-0.476D-02 0.128D-01
 Coeff:      0.210D-01 0.100D-01-0.766D-01-0.190D+00-0.124D-01 0.520D+00
 Coeff:      0.725D+00
 Gap=     0.122 Goal=   None    Shift=    0.000
 RMSDP=4.84D-09 MaxDP=3.31D-07 DE=-2.47D-10 OVMax= 3.51D-06

 SCF Done:  E(RCAM-B3LYP) =  -4069.81173267     A.U. after   19 cycles
            NFock= 19  Conv=0.48D-08     -V/T= 2.0102
 KE= 4.028802084503D+03 PE=-3.695347588775D+04 EE= 1.511850521942D+04
 Leave Link  502 at Sun Sep 12 04:30:58 2021, MaxMem= 23488102400 cpu:           10982.1 elap:             480.4
 (Enter /sw/apps/gaussian-16.0/g16/l801.exe)
 DoSCS=F DFT=T ScalE2(SS,OS)=  1.000000  1.000000
 ExpMin= 3.36D-02 ExpMax= 4.95D+03 ExpMxC= 7.45D+02 IAcc=3 IRadAn=         5 AccDes= 0.00D+00
 HarFok:  IExCor=  205 AccDes= 0.00D+00 IRadAn=         5 IDoV=-2 UseB2=F ITyADJ=14
 ICtDFT= 12500011 ScaDFX=  1.000000  1.000000  1.000000  1.000000
 GSVD:  LWork=       -9588 too small for GESVD, short by       45590 words or       45590 for optimal perf.
 Largest valence mixing into a core orbital is  2.03D-04
 Largest core mixing into a valence orbital is  5.24D-05
 Range of M.O.s used for correlation:    95  1572
 NBasis=  1572 NAE=   312 NBE=   312 NFC=    94 NFV=     0
 NROrb=   1478 NOA=   218 NOB=   218 NVA=  1260 NVB=  1260
 Leave Link  801 at Sun Sep 12 04:30:58 2021, MaxMem= 23488102400 cpu:               7.5 elap:               0.3
 (Enter /sw/apps/gaussian-16.0/g16/l914.exe)
 RHF ground state
 Two-electron integrals replicated using symmetry.
 MDV= 23488102400 DFT=T DoStab=F Mixed=T DoRPA=T DoScal=F NonHer=T
 Making orbital integer symmetry assigments:
 Orbital symmetries:
       Occupied  (A) (A) (A) (A) (A) (A) (A) (A) (A) (A) (A) (A)
                 (A) (A) (A) (A) (A) (A) (A) (A) (A) (A) (A) (A)
                 (A) (A) (A) (A) (A) (A) (A) (A) (A) (A) (A) (A)
                 (A) (A) (A) (A) (A) (A) (A) (A) (A) (A) (A) (A)
                 (A) (A) (A) (A) (A) (A) (A) (A) (A) (A) (A) (A)
                 (A) (A) (A) (A) (A) (A) (A) (A) (A) (A) (A) (A)
                 (A) (A) (A) (A) (A) (A) (A) (A) (A) (A) (A) (A)
                 (A) (A) (A) (A) (A) (A) (A) (A) (A) (A) (A) (A)
                 (A) (A) (A) (A) (A) (A) (A) (A) (A) (A) (A) (A)
                 (A) (A) (A) (A) (A) (A) (A) (A) (A) (A) (A) (A)
                 (A) (A) (A) (A) (A) (A) (A) (A) (A) (A) (A) (A)
                 (A) (A) (A) (A) (A) (A) (A) (A) (A) (A) (A) (A)
                 (A) (A) (A) (A) (A) (A) (A) (A) (A) (A) (A) (A)
                 (A) (A) (A) (A) (A) (A) (A) (A) (A) (A) (A) (A)
                 (A) (A) (A) (A) (A) (A) (A) (A) (A) (A) (A) (A)
                 (A) (A) (A) (A) (A) (A) (A) (A) (A) (A) (A) (A)
                 (A) (A) (A) (A) (A) (A) (A) (A) (A) (A) (A) (A)
                 (A) (A) (A) (A) (A) (A) (A) (A) (A) (A) (A) (A)
                 (A) (A) (A) (A) (A) (A) (A) (A) (A) (A) (A) (A)
                 (A) (A) (A) (A) (A) (A) (A) (A) (A) (A) (A) (A)
                 (A) (A) (A) (A) (A) (A) (A) (A) (A) (A) (A) (A)
                 (A) (A) (A) (A) (A) (A) (A) (A) (A) (A) (A) (A)
                 (A) (A) (A) (A) (A) (A) (A) (A) (A) (A) (A) (A)
                 (A) (A) (A) (A) (A) (A) (A) (A) (A) (A) (A) (A)
                 (A) (A) (A) (A) (A) (A) (A) (A) (A) (A) (A) (A)
                 (A) (A) (A) (A) (A) (A) (A) (A) (A) (A) (A) (A)
       Virtual   (A) (A) (A) (A) (A) (A) (A) (A) (A) (A) (A) (A)
                 (A) (A) (A) (A) (A) (A) (A) (A) (A) (A) (A) (A)
                 (A) (A) (A) (A) (A) (A) (A) (A) (A) (A) (A) (A)
                 (A) (A) (A) (A) (A) (A) (A) (A) (A) (A) (A) (A)
                 (A) (A) (A) (A) (A) (A) (A) (A) (A) (A) (A) (A)
                 (A) (A) (A) (A) (A) (A) (A) (A) (A) (A) (A) (A)
                 (A) (A) (A) (A) (A) (A) (A) (A) (A) (A) (A) (A)
                 (A) (A) (A) (A) (A) (A) (A) (A) (A) (A) (A) (A)
                 (A) (A) (A) (A) (A) (A) (A) (A) (A) (A) (A) (A)
                 (A) (A) (A) (A) (A) (A) (A) (A) (A) (A) (A) (A)
                 (A) (A) (A) (A) (A) (A) (A) (A) (A) (A) (A) (A)
                 (A) (A) (A) (A) (A) (A) (A) (A) (A) (A) (A) (A)
                 (A) (A) (A) (A) (A) (A) (A) (A) (A) (A) (A) (A)
                 (A) (A) (A) (A) (A) (A) (A) (A) (A) (A) (A) (A)
                 (A) (A) (A) (A) (A) (A) (A) (A) (A) (A) (A) (A)
                 (A) (A) (A) (A) (A) (A) (A) (A) (A) (A) (A) (A)
                 (A) (A) (A) (A) (A) (A) (A) (A) (A) (A) (A) (A)
                 (A) (A) (A) (A) (A) (A) (A) (A) (A) (A) (A) (A)
                 (A) (A) (A) (A) (A) (A) (A) (A) (A) (A) (A) (A)
                 (A) (A) (A) (A) (A) (A) (A) (A) (A) (A) (A) (A)
                 (A) (A) (A) (A) (A) (A) (A) (A) (A) (A) (A) (A)
                 (A) (A) (A) (A) (A) (A) (A) (A) (A) (A) (A) (A)
                 (A) (A) (A) (A) (A) (A) (A) (A) (A) (A) (A) (A)
                 (A) (A) (A) (A) (A) (A) (A) (A) (A) (A) (A) (A)
                 (A) (A) (A) (A) (A) (A) (A) (A) (A) (A) (A) (A)
                 (A) (A) (A) (A) (A) (A) (A) (A) (A) (A) (A) (A)
                 (A) (A) (A) (A) (A) (A) (A) (A) (A) (A) (A) (A)
                 (A) (A) (A) (A) (A) (A) (A) (A) (A) (A) (A) (A)
                 (A) (A) (A) (A) (A) (A) (A) (A) (A) (A) (A) (A)
                 (A) (A) (A) (A) (A) (A) (A) (A) (A) (A) (A) (A)
                 (A) (A) (A) (A) (A) (A) (A) (A) (A) (A) (A) (A)
                 (A) (A) (A) (A) (A) (A) (A) (A) (A) (A) (A) (A)
                 (A) (A) (A) (A) (A) (A) (A) (A) (A) (A) (A) (A)
                 (A) (A) (A) (A) (A) (A) (A) (A) (A) (A) (A) (A)
                 (A) (A) (A) (A) (A) (A) (A) (A) (A) (A) (A) (A)
                 (A) (A) (A) (A) (A) (A) (A) (A) (A) (A) (A) (A)
                 (A) (A) (A) (A) (A) (A) (A) (A) (A) (A) (A) (A)
                 (A) (A) (A) (A) (A) (A) (A) (A) (A) (A) (A) (A)
                 (A) (A) (A) (A) (A) (A) (A) (A) (A) (A) (A) (A)
                 (A) (A) (A) (A) (A) (A) (A) (A) (A) (A) (A) (A)
                 (A) (A) (A) (A) (A) (A) (A) (A) (A) (A) (A) (A)
                 (A) (A) (A) (A) (A) (A) (A) (A) (A) (A) (A) (A)
                 (A) (A) (A) (A) (A) (A) (A) (A) (A) (A) (A) (A)
                 (A) (A) (A) (A) (A) (A) (A) (A) (A) (A) (A) (A)
                 (A) (A) (A) (A) (A) (A) (A) (A) (A) (A) (A) (A)
                 (A) (A) (A) (A) (A) (A) (A) (A) (A) (A) (A) (A)
                 (A) (A) (A) (A) (A) (A) (A) (A) (A) (A) (A) (A)
                 (A) (A) (A) (A) (A) (A) (A) (A) (A) (A) (A) (A)
                 (A) (A) (A) (A) (A) (A) (A) (A) (A) (A) (A) (A)
                 (A) (A) (A) (A) (A) (A) (A) (A) (A) (A) (A) (A)
                 (A) (A) (A) (A) (A) (A) (A) (A) (A) (A) (A) (A)
                 (A) (A) (A) (A) (A) (A) (A) (A) (A) (A) (A) (A)
                 (A) (A) (A) (A) (A) (A) (A) (A) (A) (A) (A) (A)
                 (A) (A) (A) (A) (A) (A) (A) (A) (A) (A) (A) (A)
                 (A) (A) (A) (A) (A) (A) (A) (A) (A) (A) (A) (A)
                 (A) (A) (A) (A) (A) (A) (A) (A) (A) (A) (A) (A)
                 (A) (A) (A) (A) (A) (A) (A) (A) (A) (A) (A) (A)
                 (A) (A) (A) (A) (A) (A) (A) (A) (A) (A) (A) (A)
                 (A) (A) (A) (A) (A) (A) (A) (A) (A) (A) (A) (A)
                 (A) (A) (A) (A) (A) (A) (A) (A) (A) (A) (A) (A)
                 (A) (A) (A) (A) (A) (A) (A) (A) (A) (A) (A) (A)
                 (A) (A) (A) (A) (A) (A) (A) (A) (A) (A) (A) (A)
                 (A) (A) (A) (A) (A) (A) (A) (A) (A) (A) (A) (A)
                 (A) (A) (A) (A) (A) (A) (A) (A) (A) (A) (A) (A)
                 (A) (A) (A) (A) (A) (A) (A) (A) (A) (A) (A) (A)
                 (A) (A) (A) (A) (A) (A) (A) (A) (A) (A) (A) (A)
                 (A) (A) (A) (A) (A) (A) (A) (A) (A) (A) (A) (A)
                 (A) (A) (A) (A) (A) (A) (A) (A) (A) (A) (A) (A)
                 (A) (A) (A) (A) (A) (A) (A) (A) (A) (A) (A) (A)
                 (A) (A) (A) (A) (A) (A) (A) (A) (A) (A) (A) (A)
                 (A) (A) (A) (A) (A) (A) (A) (A) (A) (A) (A) (A)
                 (A) (A) (A) (A) (A) (A) (A) (A) (A) (A) (A) (A)
                 (A) (A) (A) (A) (A) (A) (A) (A) (A) (A) (A) (A)
                 (A) (A) (A) (A) (A) (A) (A) (A) (A) (A) (A) (A)
                 (A) (A) (A) (A) (A) (A) (A) (A) (A) (A) (A) (A)
                 (A) (A) (A) (A) (A) (A) (A) (A) (A) (A) (A) (A)
                 (A) (A) (A) (A) (A) (A) (A) (A) (A) (A) (A) (A)
                 (A) (A) (A) (A) (A) (A) (A) (A) (A) (A) (A) (A)
                 (A) (A) (A) (A) (A) (A) (A) (A) (A) (A) (A) (A)
                 (A) (A) (A) (A) (A) (A) (A) (A) (A) (A) (A) (A)
                 (A) (A) (A) (A) (A) (A) (A) (A) (A) (A) (A) (A)
                 (A) (A) (A) (A) (A) (A) (A) (A) (A) (A) (A) (A)
                 (A) (A) (A) (A) (A) (A) (A) (A) (A) (A) (A) (A)
                 (A) (A) (A) (A) (A) (A) (A) (A) (A) (A) (A) (A)
                 (A) (A) (A) (A) (A) (A) (A) (A) (A) (A) (A) (A)
                 (A) (A) (A) (A) (A) (A) (A) (A) (A) (A) (A) (A)
                 (A) (A) (A) (A) (A) (A) (A) (A) (A) (A) (A) (A)
                 (A) (A) (A) (A) (A) (A) (A) (A) (A) (A) (A) (A)
                 (A) (A) (A) (A) (A) (A) (A) (A) (A) (A) (A) (A)
                 (A) (A) (A) (A) (A) (A) (A) (A) (A) (A) (A) (A)
                 (A) (A) (A) (A) (A) (A) (A) (A) (A) (A) (A) (A)
                 (A) (A) (A) (A) (A) (A) (A) (A) (A) (A) (A) (A)
                 (A) (A) (A) (A) (A) (A) (A) (A) (A) (A) (A) (A)
                 (A) (A) (A) (A) (A) (A) (A) (A) (A) (A) (A) (A)
                 (A) (A) (A) (A) (A) (A) (A) (A) (A) (A) (A) (A)
                 (A) (A) (A) (A) (A) (A) (A) (A) (A) (A) (A) (A)
                 (A) (A) (A) (A) (A) (A) (A) (A) (A) (A) (A) (A)
                 (A) (A) (A) (A) (A) (A) (A) (A) (A) (A) (A) (A)
                 (A) (A) (A) (A) (A) (A) (A) (A) (A) (A) (A) (A)
                 (A) (A) (A) (A) (A) (A) (A) (A) (A) (A) (A) (A)
                 (A) (A) (A) (A) (A) (A) (A) (A) (A) (A) (A) (A)
                 (A) (A) (A) (A) (A) (A) (A) (A) (A) (A) (A) (A)
                 (A) (A) (A) (A) (A) (A) (A) (A) (A) (A) (A) (A)
                 (A) (A) (A) (A) (A) (A) (A) (A) (A) (A) (A) (A)
                 (A) (A) (A) (A) (A) (A) (A) (A) (A) (A) (A) (A)
    20 initial guesses have been made.
 Convergence on wavefunction:    0.001000000000000
 Davidson Disk Diagonalization:  ConvIn= 1.00D-03 SkipCon=T Conv= 1.00D-03.
 Max sub-space:  2000 roots to seek:    20 dimension of matrix:       549360
 Iteration     1 Dimension    20 NMult     0 NNew     20
 CISAX will form    20 AO SS matrices at one time.
 NMat=    20 NSing=    20 JSym2X= 0.
 FoFJK:  IHMeth= 1 ICntrl=       0 DoSepK=T KAlg= 0 I1Cent=           0 FoldK=F
 IRaf=         1 NMat=      40 IRICut=       1 DoRegI=T DoRafI=F ISym2E= 0 IDoP0=3 IntGTp=3.
 FoFCou: FMM=T IPFlag=           0 FMFlag=      100000 FMFlg1=        2001
         NFxFlg=           0 DoJE=F BraDBF=F KetDBF=F FulRan=T
         wScrn=  0.000000 ICntrl=       500 IOpCl=  0 I1Cent=           0 NGrid=           0
         NMat0=   20 NMatS0=     20 NMatT0=    0 NMatD0=   20 NMtDS0=    0 NMtDT0=    0
 Symmetry not used in FoFCou.
 FMM levels:  10  Number of levels for PrismC:   9
 New state      1 was old state      7
 New state      2 was old state      6
 New state      3 was old state      2
 New state      4 was old state      3
 New state      5 was old state      1
 Excitation Energies [eV] at current iteration:
 Root      1 :     2.613120822515319
 Root      2 :     2.619823122858343
 Root      3 :     2.670221754539523
 Root      4 :     2.700230888390234
 Root      5 :     2.750471438805686
 Root      6 :     2.830093587222457
 Root      7 :     3.548103152663173
 Root      8 :     3.628384835214064
 Root      9 :     3.631920382397325
 Root     10 :     3.668905276299775
 Root     11 :     3.736837612829550
 Root     12 :     3.759876520857028
 Root     13 :     4.292136466337837
 Root     14 :     4.317668175280837
 Root     15 :     4.659012685607578
 Root     16 :     4.758291464538225
 Root     17 :     4.921034934115082
 Root     18 :     5.028136504392673
 Root     19 :     5.057610166119655
 Root     20 :     5.088525910660452
 Iteration     2 Dimension    30 NMult    20 NNew     10
 CISAX will form    10 AO SS matrices at one time.
 NMat=    10 NSing=    10 JSym2X= 0.
 New state      1 was old state      3
 Root      1 not converged, maximum delta is    0.155716619576285
 New state      2 was old state      4
 Root      2 not converged, maximum delta is    0.159605544601100
 New state      3 was old state      2
 Root      3 not converged, maximum delta is    0.411429806676360
 New state      4 was old state      1
 Root      4 not converged, maximum delta is    0.403182218632381
 Root      5 not converged, maximum delta is    0.004377522016187
 Excitation Energies [eV] at current iteration:
 Root      1 :     1.795946354795317   Change is   -0.874275399744206
 Root      2 :     1.812085679679999   Change is   -0.888145208710235
 Root      3 :     2.234791727696641   Change is   -0.385031395161702
 Root      4 :     2.239731863012036   Change is   -0.373388959503284
 Root      5 :     2.750124383173110   Change is   -0.000347055632575
 Iteration     3 Dimension    40 NMult    30 NNew     10
 CISAX will form    10 AO SS matrices at one time.
 NMat=    10 NSing=    10 JSym2X= 0.
 Root      1 not converged, maximum delta is    0.056466763971212
 Root      2 not converged, maximum delta is    0.057502912928595
 Root      3 not converged, maximum delta is    0.099273080589450
 Root      4 not converged, maximum delta is    0.098822962837550
 Root      5 has converged.
 Excitation Energies [eV] at current iteration:
 Root      1 :     1.689066389052112   Change is   -0.106879965743206
 Root      2 :     1.703415728432611   Change is   -0.108669951247388
 Root      3 :     2.193569900052629   Change is   -0.041221827644012
 Root      4 :     2.200677758678328   Change is   -0.039054104333708
 Root      5 :     2.750123419162608   Change is   -0.000000964010502
 Iteration     4 Dimension    48 NMult    40 NNew      8
 CISAX will form     8 AO SS matrices at one time.
 NMat=     8 NSing=     8 JSym2X= 0.
 Root      1 not converged, maximum delta is    0.010881414471172
 Root      2 not converged, maximum delta is    0.010845000059899
 Root      3 not converged, maximum delta is    0.012776666850795
 Root      4 not converged, maximum delta is    0.012658183197201
 Root      5 has converged.
 Excitation Energies [eV] at current iteration:
 Root      1 :     1.672323403836002   Change is   -0.016742985216110
 Root      2 :     1.686565447733365   Change is   -0.016850280699246
 Root      3 :     2.186293221480478   Change is   -0.007276678572150
 Root      4 :     2.193881067724347   Change is   -0.006796690953981
 Root      5 :     2.750123419162787   Change is    0.000000000000179
 Iteration     5 Dimension    56 NMult    48 NNew      8
 CISAX will form     8 AO SS matrices at one time.
 NMat=     8 NSing=     8 JSym2X= 0.
 Root      1 not converged, maximum delta is    0.001781502273672
 Root      2 not converged, maximum delta is    0.001813143563970
 Root      3 not converged, maximum delta is    0.002461539015733
 Root      4 not converged, maximum delta is    0.002320728609552
 Root      5 has converged.
 Excitation Energies [eV] at current iteration:
 Root      1 :     1.670559047981303   Change is   -0.001764355854699
 Root      2 :     1.684779677225764   Change is   -0.001785770507601
 Root      3 :     2.185448362046307   Change is   -0.000844859434171
 Root      4 :     2.193105760998569   Change is   -0.000775306725778
 Root      5 :     2.750123419162639   Change is   -0.000000000000149
 Iteration     6 Dimension    64 NMult    56 NNew      8
 CISAX will form     8 AO SS matrices at one time.
 NMat=     8 NSing=     8 JSym2X= 0.
 Root      1 not converged, maximum delta is    0.001110531244256
 Root      2 not converged, maximum delta is    0.001118668930117
 Root      3 not converged, maximum delta is    0.001047040162092
 Root      4 has converged.
 Root      5 has converged.
 Excitation Energies [eV] at current iteration:
 Root      1 :     1.670307982899405   Change is   -0.000251065081898
 Root      2 :     1.684522866138183   Change is   -0.000256811087581
 Root      3 :     2.185320346178228   Change is   -0.000128015868079
 Root      4 :     2.192987566024424   Change is   -0.000118194974145
 Root      5 :     2.750123419162639   Change is    0.000000000000000
 Iteration     7 Dimension    70 NMult    64 NNew      6
 CISAX will form     6 AO SS matrices at one time.
 NMat=     6 NSing=     6 JSym2X= 0.
 Root      1 has converged.
 Root      2 has converged.
 Root      3 has converged.
 Root      4 has converged.
 Root      5 has converged.
 Excitation Energies [eV] at current iteration:
 Root      1 :     1.670283595262337   Change is   -0.000024387637068
[...]
 Alpha virt. eigenvalues --    1.97407   1.97554   1.97795   1.97818   1.98118
 Alpha virt. eigenvalues --    1.98188   1.98364   1.98617   1.99085   1.99091
 Alpha virt. eigenvalues --    1.99763   1.99949   2.00617   2.00742   2.00944
 Alpha virt. eigenvalues --    2.01112   2.01416   2.01521   2.01619   2.01634
 Alpha virt. eigenvalues --    2.01665   2.01839   2.02725   2.02735   2.03158
 Alpha virt. eigenvalues --    2.03195   2.03351   2.03393   2.03427   2.03535
 Alpha virt. eigenvalues --    2.03987   2.04040   2.04912   2.04990   2.05469
 Alpha virt. eigenvalues --    2.05641   2.06032   2.06296   2.06845   2.07047
 Alpha virt. eigenvalues --    2.07140   2.07364   2.08545   2.08559   2.08929
 Alpha virt. eigenvalues --    2.09018   2.09532   2.09624   2.10747   2.11047
 Alpha virt. eigenvalues --    2.11135   2.11421   2.11475   2.11544   2.11676
 Alpha virt. eigenvalues --    2.11881   2.12411   2.12480   2.12757   2.12788
 Alpha virt. eigenvalues --    2.12815   2.12888   2.13651   2.13698   2.14105
 Alpha virt. eigenvalues --    2.14270   2.15288   2.15418   2.15875   2.16103
 Alpha virt. eigenvalues --    2.16481   2.16608   2.16708   2.17188   2.17371
 Alpha virt. eigenvalues --    2.17661   2.17663   2.17956   2.18016   2.18033
 Alpha virt. eigenvalues --    2.18268   2.18685   2.18809   2.19251   2.19586
 Alpha virt. eigenvalues --    2.19832   2.19980   2.20164   2.20256   2.20450
 Alpha virt. eigenvalues --    2.21119   2.21183   2.21622   2.21693   2.21776
 Alpha virt. eigenvalues --    2.21885   2.22632   2.22717   2.23273   2.23355
 Alpha virt. eigenvalues --    2.24350   2.24428   2.24928   2.25012   2.26242
 Alpha virt. eigenvalues --    2.26454   2.26734   2.27020   2.27047   2.27215
 Alpha virt. eigenvalues --    2.28084   2.28335   2.29221   2.29453   2.29679
 Alpha virt. eigenvalues --    2.29894   2.30395   2.30635   2.30834   2.31030
 Alpha virt. eigenvalues --    2.31123   2.31213   2.32078   2.32251   2.33079
 Alpha virt. eigenvalues --    2.33247   2.33412   2.33494   2.34097   2.34153
 Alpha virt. eigenvalues --    2.35308   2.35311   2.35740   2.35924   2.36317
 Alpha virt. eigenvalues --    2.36342   2.36456   2.36572   2.37622   2.37687
 Alpha virt. eigenvalues --    2.38213   2.38386   2.38790   2.38793   2.39558
 Alpha virt. eigenvalues --    2.39677   2.40139   2.40274   2.40425   2.40838
 Alpha virt. eigenvalues --    2.41203   2.41220   2.41644   2.41698   2.41980
 Alpha virt. eigenvalues --    2.42136   2.42826   2.42906   2.43067   2.43466
 Alpha virt. eigenvalues --    2.43981   2.44112   2.44677   2.44811   2.44851
 Alpha virt. eigenvalues --    2.45000   2.45501   2.45577   2.46253   2.46289
 Alpha virt. eigenvalues --    2.46426   2.46500   2.46743   2.46805   2.47209
 Alpha virt. eigenvalues --    2.47383   2.47665   2.47892   2.49268   2.49394
 Alpha virt. eigenvalues --    2.49893   2.50029   2.50454   2.50507   2.51059
 Alpha virt. eigenvalues --    2.51273   2.51610   2.51825   2.52373   2.52395
 Alpha virt. eigenvalues --    2.52752   2.53172   2.53871   2.53971   2.54104
 Alpha virt. eigenvalues --    2.54279   2.54742   2.54809   2.55471   2.55669
 Alpha virt. eigenvalues --    2.57813   2.58080   2.58598   2.58909   2.60145
 Alpha virt. eigenvalues --    2.60302   2.60549   2.60927   2.61661   2.61822
 Alpha virt. eigenvalues --    2.62428   2.62473   2.62903   2.63126   2.63878
 Alpha virt. eigenvalues --    2.64210   2.64223   2.64425   2.65029   2.65098
 Alpha virt. eigenvalues --    2.65721   2.65859   2.66734   2.66815   2.66857
 Alpha virt. eigenvalues --    2.67062   2.67861   2.67981   2.68802   2.68812
 Alpha virt. eigenvalues --    2.68964   2.69026   2.69345   2.69591   2.69947
 Alpha virt. eigenvalues --    2.70134   2.70928   2.71066   2.71885   2.71998
 Alpha virt. eigenvalues --    2.72483   2.72596   2.72731   2.72761   2.73237
 Alpha virt. eigenvalues --    2.73278   2.73456   2.73464   2.74459   2.74500
 Alpha virt. eigenvalues --    2.74919   2.75048   2.76514   2.76545   2.77059
 Alpha virt. eigenvalues --    2.77177   2.77402   2.77595   2.78142   2.78282
 Alpha virt. eigenvalues --    2.78672   2.78680   2.79080   2.79146   2.80245
 Alpha virt. eigenvalues --    2.80290   2.80523   2.80676   2.81063   2.81139
 Alpha virt. eigenvalues --    2.81876   2.81978   2.82294   2.82326   2.83694
 Alpha virt. eigenvalues --    2.83713   2.83830   2.83893   2.84497   2.84514
 Alpha virt. eigenvalues --    2.84840   2.84875   2.85617   2.85675   2.86642
 Alpha virt. eigenvalues --    2.86945   2.87157   2.87541   2.88102   2.88219
 Alpha virt. eigenvalues --    2.88460   2.88605   2.88857   2.88884   2.90439
 Alpha virt. eigenvalues --    2.90647   2.91058   2.91148   2.93094   2.93311
 Alpha virt. eigenvalues --    2.93757   2.94146   2.94514   2.94555   2.95297
 Alpha virt. eigenvalues --    2.95462   2.95820   2.96136   2.96355   2.96393
 Alpha virt. eigenvalues --    2.96853   2.97111   2.97747   2.98008   2.98148
 Alpha virt. eigenvalues --    2.98320   2.98343   2.98551   2.98562   2.98769
 Alpha virt. eigenvalues --    2.98834   2.98906   2.99541   2.99775   2.99967
 Alpha virt. eigenvalues --    2.99999   3.00161   3.00313   3.00401   3.00984
 Alpha virt. eigenvalues --    3.01890   3.01949   3.01976   3.02103   3.02666
 Alpha virt. eigenvalues --    3.02798   3.02915   3.03275   3.03302   3.03706
 Alpha virt. eigenvalues --    3.04041   3.04129   3.04403   3.04412   3.04503
 Alpha virt. eigenvalues --    3.04711   3.05257   3.05332   3.06060   3.06151
 Alpha virt. eigenvalues --    3.06736   3.06927   3.07899   3.08097   3.09334
 Alpha virt. eigenvalues --    3.09338   3.09630   3.10381   3.10413   3.10727
 Alpha virt. eigenvalues --    3.11297   3.11465   3.11875   3.11878   3.12148
 Alpha virt. eigenvalues --    3.12290   3.13217   3.13598   3.13632   3.13669
 Alpha virt. eigenvalues --    3.14025   3.14454   3.15890   3.15964   3.17214
 Alpha virt. eigenvalues --    3.17502   3.17855   3.18034   3.19011   3.19080
 Alpha virt. eigenvalues --    3.22238   3.22576   3.23895   3.24422   3.24620
 Alpha virt. eigenvalues --    3.25175   3.26454   3.26641   3.27379   3.27569
 Alpha virt. eigenvalues --    3.29032   3.29200   3.31361   3.31473   3.33169
 Alpha virt. eigenvalues --    3.33368   3.40235   3.40559   3.42769   3.42796
 Alpha virt. eigenvalues --    3.48609   3.48680   3.49971   3.50266   3.50821
 Alpha virt. eigenvalues --    3.51424   3.56503   3.56988   3.59055   3.59324
 Alpha virt. eigenvalues --    3.62498   3.62787   3.66090   3.66143   3.67118
 Alpha virt. eigenvalues --    3.67519   3.73208   3.74000   3.75998   3.76659
          Condensed to atoms (all electrons):
 Mulliken charges:
               1
     1  Mg   0.838453
     2  C   -0.003158
     3  C   -0.094419
     4  C   -0.045751
     5  C   -0.063783
     6  N   -0.256777
     7  C   -0.052554
     8  C   -0.013966
     9  C   -0.086954
    10  C    0.046201
    11  C    0.104789
    12  C    0.053582
    13  C   -0.071616
    14  H    0.035512
    15  N   -0.433144
    16  C    0.168303
    17  C   -0.177346
    18  C   -0.003993
    19  C    0.148664
    20  C    0.110216
    21  C    0.012269
    22  O   -0.249270
    23  C    0.062544
    24  N   -0.341133
    25  C    0.041285
    26  C   -0.028265
    27  C   -0.024010
    28  C    0.074837
    29  C    0.076104
    30  C    0.035069
    31  C   -0.004535
    32  N   -0.310478
    33  C    0.080397
    34  C   -0.169599
    35  C    0.008402
    36  C    0.082948
    37  C    0.127299
    38  C    0.046134
    39  O   -0.188286
    40  C   -0.005336
    41  C    0.212950
    42  O   -0.257436
    43  O   -0.304680
    44  C    0.157715
    45  H   -0.017623
    46  H   -0.016598
    47  H   -0.041274
    48  H    0.001053
    49  H   -0.004266
    50  H    0.025581
    51  H    0.016596
    52  H    0.016696
    53  H    0.010773
    54  H    0.043873
    55  H    0.018210
    56  H    0.017768
    57  H    0.005762
    58  H    0.027012
    59  H    0.039054
    60  H    0.037402
    61  H    0.035911
    62  H    0.030975
    63  H    0.016780
    64  H    0.009596
    65  H    0.023438
    66  H    0.012529
    67  H    0.004874
    68  H    0.006620
    69  H    0.004793
    70  H    0.009035
    71  H    0.018309
    72  H    0.028701
    73  H    0.047656
    74  H    0.009266
    75  H    0.046157
    76  H    0.035282
    77  H    0.043193
    78  H    0.046232
    79  H    0.053449
    80  Mg   0.838045
    81  C   -0.016871
    82  C   -0.087694
    83  C   -0.045446
    84  C   -0.064785
    85  N   -0.254577
    86  C   -0.049645
    87  C   -0.015106
    88  C   -0.090550
    89  C    0.045813
    90  C    0.114315
    91  C    0.062554
    92  C   -0.077744
    93  H    0.034577
    94  N   -0.423521
    95  C    0.162927
    96  C   -0.174522
    97  C   -0.007848
    98  C    0.152187
    99  C    0.099385
   100  C    0.015601
   101  O   -0.253141
   102  C    0.061229
   103  N   -0.350003
   104  C    0.037608
   105  C   -0.019886
   106  C   -0.034785
   107  C    0.088923
   108  C    0.073588
   109  C    0.034743
   110  C   -0.007643
   111  N   -0.324137
   112  C    0.078518
   113  C   -0.163097
   114  C    0.002314
   115  C    0.096225
   116  C    0.131470
   117  C    0.042420
   118  O   -0.187902
   119  C    0.000896
   120  C    0.211228
   121  O   -0.251170
   122  O   -0.305522
   123  C    0.152100
   124  H   -0.019594
   125  H   -0.015580
   126  H   -0.040501
   127  H   -0.000488
   128  H   -0.004674
   129  H    0.022831
   130  H    0.015016
   131  H    0.016465
   132  H    0.013743
   133  H    0.037580
   134  H    0.020922
   135  H    0.019370
   136  H    0.008619
   137  H    0.026036
   138  H    0.039404
   139  H    0.038130
   140  H    0.036281
   141  H    0.033669
   142  H    0.014257
   143  H    0.012524
   144  H    0.025004
   145  H    0.012012
   146  H    0.005732
   147  H    0.006174
   148  H    0.003603
   149  H    0.010867
   150  H    0.017788
   151  H    0.030118
   152  H    0.045877
   153  H    0.008421
   154  H    0.047208
   155  H    0.035361
   156  H    0.043889
   157  H    0.049415
   158  H    0.053445
 Sum of Mulliken charges =  -0.00000
 Mulliken charges with hydrogens summed into heavy atoms:
               1
     1  Mg   0.838453
     2  C   -0.003158
     3  C   -0.112042
     4  C   -0.062349
     5  C   -0.105058
     6  N   -0.256777
     7  C   -0.052554
     8  C   -0.012913
     9  C   -0.091220
    10  C    0.046201
    11  C    0.163662
    12  C    0.108228
    13  C   -0.000126
    15  N   -0.433144
    16  C    0.168303
    17  C   -0.177346
    18  C   -0.003993
    19  C    0.148664
    20  C    0.182044
    21  C    0.012269
    22  O   -0.249270
    23  C    0.166832
    24  N   -0.341133
    25  C    0.041285
    26  C   -0.011485
    27  C   -0.014414
    28  C    0.074837
    29  C    0.116944
    30  C    0.046482
    31  C    0.051510
    32  N   -0.310478
    33  C    0.080397
    34  C   -0.169599
    35  C    0.008402
    36  C    0.082948
    37  C    0.230378
    38  C    0.046134
    39  O   -0.188286
    40  C    0.029946
    41  C    0.212950
    42  O   -0.257436
    43  O   -0.304680
    44  C    0.300589
    80  Mg   0.838045
    81  C   -0.016871
    82  C   -0.107288
    83  C   -0.061025
    84  C   -0.105286
    85  N   -0.254577
    86  C   -0.049645
    87  C   -0.015594
    88  C   -0.095224
    89  C    0.045813
    90  C    0.168627
    91  C    0.113878
    92  C   -0.002874
    94  N   -0.423521
    95  C    0.162927
    96  C   -0.174522
    97  C   -0.007848
    98  C    0.152187
    99  C    0.173445
   100  C    0.015601
   101  O   -0.253141
   102  C    0.169309
   103  N   -0.350003
   104  C    0.037608
   105  C   -0.005629
   106  C   -0.022261
   107  C    0.088923
   108  C    0.116335
   109  C    0.044519
   110  C    0.051131
   111  N   -0.324137
   112  C    0.078518
   113  C   -0.163097
   114  C    0.002314
   115  C    0.096225
   116  C    0.232975
   117  C    0.042420
   118  O   -0.187902
   119  C    0.036257
   120  C    0.211228
   121  O   -0.251170
   122  O   -0.305522
   123  C    0.298849
 Electronic spatial extent (au):  <R**2>=         197180.6305
 Charge=             -0.0000 electrons
 Dipole moment (field-independent basis, Debye):
    X=              5.8997    Y=             -0.2172    Z=              6.4008  Tot=              8.7077
 Quadrupole moment (field-independent basis, Debye-Ang):
   XX=           -549.0964   YY=           -527.5529   ZZ=           -466.4868
   XY=             13.4109   XZ=             16.2038   YZ=             57.3316
 Traceless Quadrupole moment (field-independent basis, Debye-Ang):
   XX=            -34.7177   YY=            -13.1742   ZZ=             47.8919
   XY=             13.4109   XZ=             16.2038   YZ=             57.3316
 Octapole moment (field-independent basis, Debye-Ang**2):
  XXX=           1337.5167  YYY=            435.1349  ZZZ=            132.7696  XYY=           -148.9052
  XXY=           -218.7687  XXZ=            375.3723  XZZ=             61.4389  YZZ=           -201.1297
  YYZ=             71.6151  XYZ=            -10.1863
 Hexadecapole moment (field-independent basis, Debye-Ang**3):
 XXXX=        -217912.2412 YYYY=         -39592.7018 ZZZZ=         -21493.3323 XXXY=           3768.6108
 XXXZ=            395.9690 YYYX=           -294.0553 YYYZ=           1585.1141 ZZZX=            568.0090
 ZZZY=            -97.4790 XXYY=         -41285.6628 XXZZ=         -35909.8567 YYZZ=         -10420.1112
 XXYZ=           4608.9430 YYXZ=             15.7156 ZZXY=           -479.6660
 N-N= 1.373635685115D+04 E-N=-3.695347588535D+04  KE= 4.028802084503D+03
 Leave Link  601 at Sun Sep 12 04:49:16 2021, MaxMem= 23488102400 cpu:              12.8 elap:               0.6
 (Enter /sw/apps/gaussian-16.0/g16/l9999.exe)
 1\1\GINC-BP1-COMPUTE00129\SP\RCAM-B3LYP TD-FC\def2SVP\C68H72Mg2N8O8\OF
 15641\12-Sep-2021\0\\#p cam-b3lyp/Def2SVP td=(nstates=5)\\TDDFT excite
 d states in gaussian\\0,1\Mg,0,0.,0.,0.\C,0,-0.217,-2.218,2.801\C,0,-1
 .255,2.442,2.026\C,0,-0.245,1.85,-2.564\C,0,0.146,-2.824,-2.037\N,0,-0
 .617,-0.009,2.126\C,0,-0.594,-0.908,3.105\C,0,-0.936,-0.309,4.502\C,0,
 -1.773,0.964,4.032\C,0,-1.155,1.168,2.66\C,0,-3.263,0.685,3.863\C,0,0.
 345,0.11,5.299\C,0,0.124,0.397,6.787\H,0,1.168,0.033,7.733\N,0,-0.185,
 1.961,-0.152\C,0,-0.703,2.8,0.777\C,0,-0.62,4.156,0.193\C,0,-0.187,4.0
 15,-1.225\C,0,-0.214,2.583,-1.38\C,0,-0.887,5.406,0.974\C,0,0.181,5.01
 3,-2.277\O,0,0.303,4.69,-3.508\C,0,0.31,6.414,-1.837\N,0,-0.265,-0.413
 ,-2.029\C,0,-0.279,0.569,-2.937\C,0,-0.196,0.024,-4.332\C,0,0.124,-1.5
 33,-4.18\C,0,0.086,-1.632,-2.635\C,0,-1.451,0.205,-5.197\C,0,1.373,-2.
 07,-4.923\C,0,2.626,-1.49,-4.306\N,0,0.15,-2.144,0.303\C,0,0.173,-3.13
 6,-0.688\C,0,0.173,-4.438,0.004\C,0,0.133,-4.111,1.358\C,0,0.083,-2.69
 5,1.502\C,0,0.149,-5.715,-0.623\C,0,0.096,-4.629,2.716\O,0,0.208,-5.74
 7,3.221\C,0,-0.255,-3.428,3.701\C,0,0.717,-3.482,4.848\O,0,1.931,-3.25
 5,4.669\O,0,0.038,-3.556,6.003\C,0,0.943,-3.583,7.183\H,0,-1.859,3.22,
 2.497\H,0,-0.218,2.453,-3.474\H,0,0.276,-3.747,-2.605\H,0,-1.554,-0.94
 9,5.132\H,0,-1.585,1.831,4.665\H,0,-3.484,-0.377,3.969\H,0,-3.511,1.02
 7,2.858\H,0,-3.852,1.301,4.543\H,0,0.669,1.096,4.966\H,0,1.13,-0.639,5
 .189\H,0,-0.844,0.026,7.125\H,0,0.062,1.477,6.921\H,0,-1.344,5.186,1.9
 38\H,0,-1.651,5.963,0.432\H,0,0.007,6.02,1.084\H,0,-0.635,6.744,-1.405
 \H,0,0.665,6.97,-2.704\H,0,1.048,6.466,-1.036\H,0,0.608,0.501,-4.891\H
 ,0,-0.692,-2.156,-4.547\H,0,-1.267,0.74,-6.129\H,0,-2.204,0.714,-4.596
 \H,0,-1.967,-0.72,-5.453\H,0,1.356,-1.759,-5.967\H,0,1.452,-3.157,-4.9
 02\H,0,2.714,-0.522,-4.798\H,0,3.487,-2.121,-4.529\H,0,2.495,-1.303,-3
 .24\H,0,0.867,-6.333,-0.084\H,0,0.404,-5.642,-1.68\H,0,-0.891,-5.999,-
 0.463\H,0,-1.283,-3.581,4.028\H,0,0.698,-4.478,7.755\H,0,0.833,-2.619,
 7.68\H,0,2.,-3.754,6.976\Mg,0,15.76924,1.42735,1.20402\C,0,16.88718,-0
 .3937,4.08726\C,0,13.47705,2.93534,3.23045\C,0,14.46681,2.70932,-1.389
 75\C,0,17.32316,-0.99784,-0.75799\N,0,15.33629,1.21527,3.36269\C,0,15.
 86689,0.53827,4.3699\C,0,15.32589,0.93745,5.76902\C,0,13.90694,1.53757
 ,5.31592\C,0,14.2629,1.95769,3.89133\C,0,12.80641,0.49206,5.24467\C,0,
 16.21469,2.02731,6.4649\C,0,15.9252,2.23942,7.9525\H,0,17.04091,2.5531
 8,8.84088\N,0,14.55032,2.98184,1.01339\C,0,13.70468,3.47174,1.94406\C,
 0,13.01791,4.60577,1.3065\C,0,13.40723,4.64277,-0.12939\C,0,14.15668,3
 .40663,-0.23124\C,0,12.15769,5.56996,2.07055\C,0,13.13746,5.62152,-1.2
 3188\O,0,13.37174,5.33491,-2.45899\C,0,12.5041,6.88978,-0.84219\N,0,15
 .69433,0.82054,-0.78307\C,0,15.11022,1.58909,-1.71905\C,0,15.41866,1.0
 8531,-3.10882\C,0,16.53468,-0.04424,-2.91849\C,0,16.6173,-0.06104,-1.3
 7633\C,0,14.23564,0.50599,-3.88421\C,0,17.85014,0.12275,-3.72741\C,0,1
 8.61741,1.3236,-3.2228\N,0,17.05727,-0.27041,1.55992\C,0,17.57222,-1.1
 6688,0.59802\C,0,18.29933,-2.22272,1.33215\C,0,18.13617,-1.87714,2.682
 13\C,0,17.34501,-0.70097,2.78315\C,0,18.95041,-3.34514,0.74702\C,0,18.
 44439,-2.24582,4.04513\O,0,19.15275,-3.10111,4.57469\C,0,17.54331,-1.3
 727,5.0209\C,0,18.43029,-0.82174,6.1036\O,0,19.32663,-0.00384,5.83116\
 O,0,17.93717,-1.18134,7.30272\C,0,18.77666,-0.64902,8.40894\H,0,12.575
 42,3.29746,3.72524\H,0,14.13384,3.17174,-2.32183\H,0,17.91747,-1.73523
 ,-1.3018\H,0,15.17842,0.10961,6.45218\H,0,13.63605,2.40464,5.91273\H,0
 ,13.18874,-0.50635,5.39678\H,0,12.37529,0.58563,4.25653\H,0,12.0056,0.
 73919,5.9475\H,0,15.93819,3.01609,6.07683\H,0,17.25685,1.8144,6.32635\
 H,0,15.31473,1.43104,8.37298\H,0,15.30186,3.13029,8.06114\H,0,11.92378
 ,5.19261,3.0737\H,0,11.18854,5.60665,1.56135\H,0,12.57897,6.57705,2.10
 155\H,0,11.55269,6.68431,-0.35735\H,0,12.47393,7.49293,-1.75168\H,0,13
 .13758,7.38246,-0.09615\H,0,15.82264,1.87788,-3.72667\H,0,16.16788,-1.
 03506,-3.22435\H,0,14.06248,1.00747,-4.85509\H,0,13.35409,0.57053,-3.2
 6031\H,0,14.29601,-0.56151,-4.08911\H,0,17.62592,0.31722,-4.7791\H,0,1
 8.49317,-0.75029,-3.69132\H,0,18.14442,2.15782,-3.74955\H,0,19.67134,1
 .24076,-3.48052\H,0,18.45109,1.47446,-2.14985\H,0,19.9012,-3.45176,1.2
 5212\H,0,19.08139,-3.21443,-0.32515\H,0,18.22833,-4.13246,0.97937\H,0,
 16.76623,-2.02522,5.42081\H,0,19.07205,-1.50357,9.02552\H,0,18.16758,0
 .13619,8.89495\H,0,19.74251,-0.23184,8.14904\\Version=ES64L-G16RevA.03
 \State=1-A\HF=-4069.8117327\RMSD=4.836e-09\PG=C01 [X(C68H72Mg2N8O8)]\\
 @


 NOBODY LOSES ALL THE TIME
 I HAD AN UNCLE NAMED
 SOL WHO WAS A BORN FAILURE AND
 NEARLY EVERYBODY SAID HE SHOULD HAVE GONE
 INTO VAUDEVILLE PERHAPS BECAUSE MY UNCLE SOL COULD
 SING MCCANN HE WAS A DIVER ON XMAS EVE LIKE HELL ITSELF WHICH
 MAY OR MAY NOT ACCOUNT FOR THE FACT THAT MY UNCLE
 SOL INDULGED IN THAT POSSIBLY MOST INEXCUSABLE
 OF ALL TO USE A HIGHFALOOTIN PHRASE
 LUXURIES THAT IS OR TO
 WIT FARMING AND BE
 IT NEEDLESSLY
 ADDED
 MY UNCLE SOL'S FARM     
 FAILED BECAUSE THE CHICKENS
 ATE THE VEGETABLES SO
 MY UNCLE SOL HAD A
 CHICKEN FARM TILL THE
 SKUNKS ATE THE CHICKENS WHEN 
 MY UNCLE SOL
 HAD A SKUNK FARM BUT
 THE SKUNKS CAUGHT COLD AND
 DIED AND SO
 MY UNCLE SOL IMITATED THE
 SKUNKS IN A SUBTLE MANNER
 OR BY DROWNING HIMSELF IN THE WATERTANK
 BUT SOMEBODY WHO'D GIVEN MY UNCLE SOL A VICTOR     
 VICTROLA AND RECORDS WHILE HE LIVED PRESENTED TO
 HIM UPON THE AUSPICIOUS OCCASION OF HIS DECEASE A
 SCRUMPTIOUS NOT TO MENTION SPLENDIFEROUS FUNERAL WITH
 TALL BOYS IN BLACK GLOVES AND FLOWERS AND EVERYTHING AND
 I REMEMBER WE ALL CRIED LIKE THE MISSOURI
 WHEN MY UNCLE SOL'S COFFIN LURCHED BECAUSE     
 SOMEBODY PRESSED A BUTTON
 (AND DOWN WENT
 MY UNCLE
 SOL
 AND STARTED A WORM FARM)
           E. E. CUMMINGS
 Job cpu time:       0 days 10 hours 23 minutes  7.6 seconds.
 Elapsed time:       0 days  0 hours 26 minutes 31.1 seconds.
 File lengths (MBytes):  RWF=  13225 Int=      0 D2E=      0 Chk=    574 Scr=      1
 Normal termination of Gaussian 16 at Sun Sep 12 04:49:17 2021.
