 Entering Gaussian System, Link 0=g16
 Initial command:
 /sw/apps/gaussian-16.0/g16/l1.exe "/tmp/Gau-61080.inp" -scrdir="/tmp/"
 Entering Link 1 = /sw/apps/gaussian-16.0/g16/l1.exe PID=     61081.
  
 Copyright (c) 1988,1990,1992,1993,1995,1998,2003,2009,2016,
            Gaussian, Inc.  All Rights Reserved.
  
 This is part of the Gaussian(R) 16 program.  It is based on
 the Gaussian(R) 09 system (copyright 2009, Gaussian, Inc.),
 the Gaussian(R) 03 system (copyright 2003, Gaussian, Inc.),
 the Gaussian(R) 98 system (copyright 1998, Gaussian, Inc.),
 the Gaussian(R) 94 system (copyright 1995, Gaussian, Inc.),
 the Gaussian 92(TM) system (copyright 1992, Gaussian, Inc.),
 the Gaussian 90(TM) system (copyright 1990, Gaussian, Inc.),
 the Gaussian 88(TM) system (copyright 1988, Gaussian, Inc.),
 the Gaussian 86(TM) system (copyright 1986, Carnegie Mellon
 University), and the Gaussian 82(TM) system (copyright 1983,
 Carnegie Mellon University). Gaussian is a federally registered
 trademark of Gaussian, Inc.
  
 This software contains proprietary and confidential information,
 including trade secrets, belonging to Gaussian, Inc.
  
 This software is provided under written license and may be
 used, copied, transmitted, or stored only in accord with that
 written license.
  
 The following legend is applicable only to US Government
 contracts under FAR:
  
                    RESTRICTED RIGHTS LEGEND
  
 Use, reproduction and disclosure by the US Government is
 subject to restrictions as set forth in subparagraphs (a)
 and (c) of the Commercial Computer Software - Restricted
 Rights clause in FAR 52.227-19.
  
 Gaussian, Inc.
 340 Quinnipiac St., Bldg. 40, Wallingford CT 06492
  
  
 ---------------------------------------------------------------
 Warning -- This program may not be used in any manner that
 competes with the business of Gaussian, Inc. or will provide
 assistance to any competitor of Gaussian, Inc.  The licensee
 of this program is prohibited from giving any competitor of
 Gaussian, Inc. access to this program.  By using this program,
 the user acknowledges that Gaussian, Inc. is engaged in the
 business of creating and licensing software in the field of
 computational chemistry and represents and warrants to the
 licensee that it is not a competitor of Gaussian, Inc. and that
 it will not use this program in any manner prohibited above.
 ---------------------------------------------------------------
  

 Cite this work as:
 Gaussian 16, Revision A.03,
 M. J. Frisch, G. W. Trucks, H. B. Schlegel, G. E. Scuseria, 
 M. A. Robb, J. R. Cheeseman, G. Scalmani, V. Barone, 
 G. A. Petersson, H. Nakatsuji, X. Li, M. Caricato, A. V. Marenich, 
 J. Bloino, B. G. Janesko, R. Gomperts, B. Mennucci, H. P. Hratchian, 
 J. V. Ortiz, A. F. Izmaylov, J. L. Sonnenberg, D. Williams-Young, 
 F. Ding, F. Lipparini, F. Egidi, J. Goings, B. Peng, A. Petrone, 
 T. Henderson, D. Ranasinghe, V. G. Zakrzewski, J. Gao, N. Rega, 
 G. Zheng, W. Liang, M. Hada, M. Ehara, K. Toyota, R. Fukuda, 
 J. Hasegawa, M. Ishida, T. Nakajima, Y. Honda, O. Kitao, H. Nakai, 
 T. Vreven, K. Throssell, J. A. Montgomery, Jr., J. E. Peralta, 
 F. Ogliaro, M. J. Bearpark, J. J. Heyd, E. N. Brothers, K. N. Kudin, 
 V. N. Staroverov, T. A. Keith, R. Kobayashi, J. Normand, 
 K. Raghavachari, A. P. Rendell, J. C. Burant, S. S. Iyengar, 
 J. Tomasi, M. Cossi, J. M. Millam, M. Klene, C. Adamo, R. Cammi, 
 J. W. Ochterski, R. L. Martin, K. Morokuma, O. Farkas, 
 J. B. Foresman, and D. J. Fox, Gaussian, Inc., Wallingford CT, 2016.
 
 ******************************************
 Gaussian 16:  ES64L-G16RevA.03 25-Dec-2016
                11-Sep-2021 
 ******************************************
 %nproc=24
 Will use up to   24 processors via shared memory.
 %mem=175gb
 -----------------------------------
 #p cam-b3lyp/Def2SVP td=(nstates=5)
 -----------------------------------
 1/38=1,172=1/1;
 2/12=2,17=6,18=5,40=1/2;
 3/5=43,7=101,11=9,25=1,30=1,74=-40/1,2,3,8;
 4//1;
 5/5=2,38=5/2;
 8/6=1,10=1,108=5/1;
 9/41=5,42=1,70=2/14;
 6/7=2,8=2,9=2,10=2/1;
 99/5=1,9=1/99;
 Leave Link    1 at Sat Sep 11 01:59:51 2021, MaxMem= 23488102400 cpu:               0.6 elap:               0.0
 (Enter /sw/apps/gaussian-16.0/g16/l101.exe)
 --------------------------------
 TDDFT excited states in gaussian
 --------------------------------
 Symbolic Z-matrix:
 Charge =  0 Multiplicity = 1
 Mg                    0.        0.        0. 
 C                    -0.217    -2.218     2.801 
 C                    -1.255     2.442     2.026 
 C                    -0.245     1.85     -2.564 
 C                     0.146    -2.824    -2.037 
 N                    -0.617    -0.009     2.126 
 C                    -0.594    -0.908     3.105 
 C                    -0.936    -0.309     4.502 
 C                    -1.773     0.964     4.032 
 C                    -1.155     1.168     2.66 
 C                    -3.263     0.685     3.863 
 C                     0.345     0.11      5.299 
 C                     0.124     0.397     6.787 
 H                     1.168     0.033     7.733 
 N                    -0.185     1.961    -0.152 
 C                    -0.703     2.8       0.777 
 C                    -0.62      4.156     0.193 
 C                    -0.187     4.015    -1.225 
 C                    -0.214     2.583    -1.38 
 C                    -0.887     5.406     0.974 
 C                     0.181     5.013    -2.277 
 O                     0.303     4.69     -3.508 
 C                     0.31      6.414    -1.837 
 N                    -0.265    -0.413    -2.029 
 C                    -0.279     0.569    -2.937 
 C                    -0.196     0.024    -4.332 
 C                     0.124    -1.533    -4.18 
 C                     0.086    -1.632    -2.635 
 C                    -1.451     0.205    -5.197 
 C                     1.373    -2.07     -4.923 
 C                     2.626    -1.49     -4.306 
 N                     0.15     -2.144     0.303 
 C                     0.173    -3.136    -0.688 
 C                     0.173    -4.438     0.004 
 C                     0.133    -4.111     1.358 
 C                     0.083    -2.695     1.502 
 C                     0.149    -5.715    -0.623 
 C                     0.096    -4.629     2.716 
 O                     0.208    -5.747     3.221 
 C                    -0.255    -3.428     3.701 
 C                     0.717    -3.482     4.848 
 O                     1.931    -3.255     4.669 
 O                     0.038    -3.556     6.003 
 C                     0.943    -3.583     7.183 
 H                    -1.859     3.22      2.497 
 H                    -0.218     2.453    -3.474 
 H                     0.276    -3.747    -2.605 
 H                    -1.554    -0.949     5.132 
 H                    -1.585     1.831     4.665 
 H                    -3.484    -0.377     3.969 
 H                    -3.511     1.027     2.858 
 H                    -3.852     1.301     4.543 
 H                     0.669     1.096     4.966 
 H                     1.13     -0.639     5.189 
 H                    -0.844     0.026     7.125 
 H                     0.062     1.477     6.921 
 H                    -1.344     5.186     1.938 
 H                    -1.651     5.963     0.432 
 H                     0.007     6.02      1.084 
 H                    -0.635     6.744    -1.405 
 H                     0.665     6.97     -2.704 
 H                     1.048     6.466    -1.036 
 H                     0.608     0.501    -4.891 
 H                    -0.692    -2.156    -4.547 
 H                    -1.267     0.74     -6.129 
 H                    -2.204     0.714    -4.596 
 H                    -1.967    -0.72     -5.453 
 H                     1.356    -1.759    -5.967 
 H                     1.452    -3.157    -4.902 
 H                     2.714    -0.522    -4.798 
 H                     3.487    -2.121    -4.529 
 H                     2.495    -1.303    -3.24 
 H                     0.867    -6.333    -0.084 
 H                     0.404    -5.642    -1.68 
 H                    -0.891    -5.999    -0.463 
 H                    -1.283    -3.581     4.028 
 H                     0.698    -4.478     7.755 
 H                     0.833    -2.619     7.68 
 H                     2.       -3.754     6.976 
 Mg                    10.51832   0.94043   0.8032 
 C                     10.73261  -1.84893  -1.4446 
 C                     9.65006  -1.282     3.24072 
 C                     9.88358   3.41055   2.69081 
 C                     10.27646   3.00062  -1.99731 
 N                     10.25895  -1.25601   0.77871 
 C                     10.42748  -2.21659  -0.11752 
 C                     10.3386  -3.65565   0.4576 
 C                     9.4467   -3.34125   1.7555 
 C                     9.83019  -1.87807   1.967 
 C                     7.95206  -3.40964   1.4896 
 C                     11.74465  -4.22957   0.85213 
 C                     11.77029  -5.73428   1.12949 
 H                     12.95694  -6.49299   0.7439 
 N                     10.34345   1.03626   2.77774 
 C                     10.00492   0.03285   3.61431 
 C                     9.99528   0.61967   4.96328 
 C                     10.19459   2.08905   4.83705 
 C                     10.12598   2.24167   3.39757 
 C                     9.88882  -0.20904   6.21041 
 C                     10.39873   3.17854   5.84577 
 O                     10.31244   4.41681   5.52625 
 C                     10.6101   2.7527    7.23698 
 N                     9.92342   2.89455   0.41606 
 C                     9.768     3.78072   1.41529 
 C                     9.60747   5.18365   0.88015 
 C                     9.93069   5.08678  -0.6831 
 C                     10.14445   3.56191  -0.80329 
 C                     8.23027   5.81702   1.07652 
 C                     11.03222   6.03327  -1.23397 
 C                     12.37939   5.63919  -0.67251 
 N                     10.68827   0.68439  -1.3354 
 C                     10.52586   1.67494  -2.32864 
 C                     10.62163   0.99811  -3.63828 
 C                     10.81164  -0.3535   -3.31341 
 C                     10.81259  -0.51102  -1.90108 
 C                     10.48558   1.62338  -4.90975 
 C                     11.00098  -1.68434  -3.84417 
 O                     11.171   -2.1553   -4.96801 
 C                     10.83177  -2.72986  -2.65899 
 C                     11.97869  -3.70056  -2.72863 
 O                     13.14442  -3.31706  -2.52712 
 O                     11.49218  -4.95267  -2.80542 
 C                     12.59182  -5.95217  -2.86549 
 H                     9.15117  -1.8608    4.01853 
 H                     9.76843   4.31246   3.29643 
 H                     10.30924   3.58741  -2.91779 
 H                     9.82948  -4.36883  -0.17954 
 H                     9.75873  -3.94378   2.60459 
 H                     7.73523  -3.54287   0.44013 
 H                     7.54706  -2.47056   1.84336 
 H                     7.49439  -4.18722   2.10785 
 H                     12.02029  -3.85082   1.84476 
 H                     12.4778  -3.98681   0.10769 
 H                     10.86166  -6.23465   0.77315 
 H                     11.75427  -5.88807   2.21121 
 H                     9.58784  -1.2394    5.98422 
 H                     9.05441   0.19595   6.79317 
 H                     10.79509  -0.17301   6.81871 
 H                     9.7568    2.1659    7.56864 
 H                     10.82568   3.66719   7.79297 
 H                     11.48105   2.08871   7.27113 
 H                     10.31642   5.85814   1.34444 
 H                     9.051     5.33013  -1.2969 
 H                     8.26522   6.7752    1.62856 
 H                     7.59732   5.10534   1.58977 
 H                     7.67272   6.00328   0.16021 
 H                     10.8479   7.05957  -0.90705 
 H                     11.08888   6.04564  -2.31731 
 H                     12.39322   6.13167   0.30441 
 H                     13.18188   6.00457  -1.31011 
 H                     12.43193   4.55832  -0.49755 
 H                     11.2659   1.21898  -5.54067 
 H                     10.55866   2.70602  -4.83026 
 H                     9.47714   1.29876  -5.17983 
 H                     9.86865  -3.22385  -2.79293 
 H                     12.42855  -6.55312  -3.76542 
 H                     12.56732  -6.48199  -1.89469 
 H                     13.59606  -5.58275  -3.03718 
 
 ITRead=  0  0  0  0  0  0  0  0  0  0  0  0  0  0  0  0  0  0  0  0
 ITRead=  0  0  0  0  0  0  0  0  0  0  0  0  0  0  0  0  0  0  0  0
 ITRead=  0  0  0  0  0  0  0  0  0  0  0  0  0  0  0  0  0  0  0  0
 ITRead=  0  0  0  0  0  0  0  0  0  0  0  0  0  0  0  0  0  0  0  0
 ITRead=  0  0  0  0  0  0  0  0  0  0  0  0  0  0  0  0  0  0  0  0
 ITRead=  0  0  0  0  0  0  0  0  0  0  0  0  0  0  0  0  0  0  0  0
 ITRead=  0  0  0  0  0  0  0  0  0  0  0  0  0  0  0  0  0  0  0  0
 ITRead=  0  0  0  0  0  0  0  0  0  0  0  0  0  0  0  0  0  0
 MicOpt= -1 -1 -1 -1 -1 -1 -1 -1 -1 -1 -1 -1 -1 -1 -1 -1 -1 -1 -1 -1
 MicOpt= -1 -1 -1 -1 -1 -1 -1 -1 -1 -1 -1 -1 -1 -1 -1 -1 -1 -1 -1 -1
 MicOpt= -1 -1 -1 -1 -1 -1 -1 -1 -1 -1 -1 -1 -1 -1 -1 -1 -1 -1 -1 -1
 MicOpt= -1 -1 -1 -1 -1 -1 -1 -1 -1 -1 -1 -1 -1 -1 -1 -1 -1 -1 -1 -1
 MicOpt= -1 -1 -1 -1 -1 -1 -1 -1 -1 -1 -1 -1 -1 -1 -1 -1 -1 -1 -1 -1
 MicOpt= -1 -1 -1 -1 -1 -1 -1 -1 -1 -1 -1 -1 -1 -1 -1 -1 -1 -1 -1 -1
 MicOpt= -1 -1 -1 -1 -1 -1 -1 -1 -1 -1 -1 -1 -1 -1 -1 -1 -1 -1 -1 -1
 MicOpt= -1 -1 -1 -1 -1 -1 -1 -1 -1 -1 -1 -1 -1 -1 -1 -1 -1 -1
 NAtoms=    158 NQM=      158 NQMF=       0 NMMI=      0 NMMIF=      0
                NMic=       0 NMicF=      0.
                    Isotopes and Nuclear Properties:
 (Nuclear quadrupole moments (NQMom) in fm**2, nuclear magnetic moments (NMagM)
  in nuclear magnetons)

  Atom         1           2           3           4           5           6           7           8           9          10
 IAtWgt=          24          12          12          12          12          14          12          12          12          12
 AtmWgt=  23.9850450  12.0000000  12.0000000  12.0000000  12.0000000  14.0030740  12.0000000  12.0000000  12.0000000  12.0000000
 NucSpn=           0           0           0           0           0           2           0           0           0           0
 AtZEff=  -0.0000000  -0.0000000  -0.0000000  -0.0000000  -0.0000000  -0.0000000  -0.0000000  -0.0000000  -0.0000000  -0.0000000
 NQMom=    0.0000000   0.0000000   0.0000000   0.0000000   0.0000000   2.0440000   0.0000000   0.0000000   0.0000000   0.0000000
 NMagM=    0.0000000   0.0000000   0.0000000   0.0000000   0.0000000   0.4037610   0.0000000   0.0000000   0.0000000   0.0000000
 AtZNuc=  12.0000000   6.0000000   6.0000000   6.0000000   6.0000000   7.0000000   6.0000000   6.0000000   6.0000000   6.0000000

  Atom        11          12          13          14          15          16          17          18          19          20
 IAtWgt=          12          12          12           1          14          12          12          12          12          12
 AtmWgt=  12.0000000  12.0000000  12.0000000   1.0078250  14.0030740  12.0000000  12.0000000  12.0000000  12.0000000  12.0000000
 NucSpn=           0           0           0           1           2           0           0           0           0           0
 AtZEff=  -0.0000000  -0.0000000  -0.0000000  -0.0000000  -0.0000000  -0.0000000  -0.0000000  -0.0000000  -0.0000000  -0.0000000
 NQMom=    0.0000000   0.0000000   0.0000000   0.0000000   2.0440000   0.0000000   0.0000000   0.0000000   0.0000000   0.0000000
 NMagM=    0.0000000   0.0000000   0.0000000   2.7928460   0.4037610   0.0000000   0.0000000   0.0000000   0.0000000   0.0000000
 AtZNuc=   6.0000000   6.0000000   6.0000000   1.0000000   7.0000000   6.0000000   6.0000000   6.0000000   6.0000000   6.0000000

  Atom        21          22          23          24          25          26          27          28          29          30
 IAtWgt=          12          16          12          14          12          12          12          12          12          12
 AtmWgt=  12.0000000  15.9949146  12.0000000  14.0030740  12.0000000  12.0000000  12.0000000  12.0000000  12.0000000  12.0000000
 NucSpn=           0           0           0           2           0           0           0           0           0           0
 AtZEff=  -0.0000000  -0.0000000  -0.0000000  -0.0000000  -0.0000000  -0.0000000  -0.0000000  -0.0000000  -0.0000000  -0.0000000
 NQMom=    0.0000000   0.0000000   0.0000000   2.0440000   0.0000000   0.0000000   0.0000000   0.0000000   0.0000000   0.0000000
 NMagM=    0.0000000   0.0000000   0.0000000   0.4037610   0.0000000   0.0000000   0.0000000   0.0000000   0.0000000   0.0000000
 AtZNuc=   6.0000000   8.0000000   6.0000000   7.0000000   6.0000000   6.0000000   6.0000000   6.0000000   6.0000000   6.0000000

  Atom        31          32          33          34          35          36          37          38          39          40
 IAtWgt=          12          14          12          12          12          12          12          12          16          12
 AtmWgt=  12.0000000  14.0030740  12.0000000  12.0000000  12.0000000  12.0000000  12.0000000  12.0000000  15.9949146  12.0000000
 NucSpn=           0           2           0           0           0           0           0           0           0           0
 AtZEff=  -0.0000000  -0.0000000  -0.0000000  -0.0000000  -0.0000000  -0.0000000  -0.0000000  -0.0000000  -0.0000000  -0.0000000
 NQMom=    0.0000000   2.0440000   0.0000000   0.0000000   0.0000000   0.0000000   0.0000000   0.0000000   0.0000000   0.0000000
 NMagM=    0.0000000   0.4037610   0.0000000   0.0000000   0.0000000   0.0000000   0.0000000   0.0000000   0.0000000   0.0000000
 AtZNuc=   6.0000000   7.0000000   6.0000000   6.0000000   6.0000000   6.0000000   6.0000000   6.0000000   8.0000000   6.0000000

  Atom        41          42          43          44          45          46          47          48          49          50
 IAtWgt=          12          16          16          12           1           1           1           1           1           1
 AtmWgt=  12.0000000  15.9949146  15.9949146  12.0000000   1.0078250   1.0078250   1.0078250   1.0078250   1.0078250   1.0078250
 NucSpn=           0           0           0           0           1           1           1           1           1           1
 AtZEff=  -0.0000000  -0.0000000  -0.0000000  -0.0000000  -0.0000000  -0.0000000  -0.0000000  -0.0000000  -0.0000000  -0.0000000
 NQMom=    0.0000000   0.0000000   0.0000000   0.0000000   0.0000000   0.0000000   0.0000000   0.0000000   0.0000000   0.0000000
 NMagM=    0.0000000   0.0000000   0.0000000   0.0000000   2.7928460   2.7928460   2.7928460   2.7928460   2.7928460   2.7928460
 AtZNuc=   6.0000000   8.0000000   8.0000000   6.0000000   1.0000000   1.0000000   1.0000000   1.0000000   1.0000000   1.0000000

  Atom        51          52          53          54          55          56          57          58          59          60
 IAtWgt=           1           1           1           1           1           1           1           1           1           1
 AtmWgt=   1.0078250   1.0078250   1.0078250   1.0078250   1.0078250   1.0078250   1.0078250   1.0078250   1.0078250   1.0078250
 NucSpn=           1           1           1           1           1           1           1           1           1           1
 AtZEff=  -0.0000000  -0.0000000  -0.0000000  -0.0000000  -0.0000000  -0.0000000  -0.0000000  -0.0000000  -0.0000000  -0.0000000
 NQMom=    0.0000000   0.0000000   0.0000000   0.0000000   0.0000000   0.0000000   0.0000000   0.0000000   0.0000000   0.0000000
 NMagM=    2.7928460   2.7928460   2.7928460   2.7928460   2.7928460   2.7928460   2.7928460   2.7928460   2.7928460   2.7928460
 AtZNuc=   1.0000000   1.0000000   1.0000000   1.0000000   1.0000000   1.0000000   1.0000000   1.0000000   1.0000000   1.0000000

  Atom        61          62          63          64          65          66          67          68          69          70
 IAtWgt=           1           1           1           1           1           1           1           1           1           1
 AtmWgt=   1.0078250   1.0078250   1.0078250   1.0078250   1.0078250   1.0078250   1.0078250   1.0078250   1.0078250   1.0078250
 NucSpn=           1           1           1           1           1           1           1           1           1           1
 AtZEff=  -0.0000000  -0.0000000  -0.0000000  -0.0000000  -0.0000000  -0.0000000  -0.0000000  -0.0000000  -0.0000000  -0.0000000
 NQMom=    0.0000000   0.0000000   0.0000000   0.0000000   0.0000000   0.0000000   0.0000000   0.0000000   0.0000000   0.0000000
 NMagM=    2.7928460   2.7928460   2.7928460   2.7928460   2.7928460   2.7928460   2.7928460   2.7928460   2.7928460   2.7928460
 AtZNuc=   1.0000000   1.0000000   1.0000000   1.0000000   1.0000000   1.0000000   1.0000000   1.0000000   1.0000000   1.0000000

  Atom        71          72          73          74          75          76          77          78          79          80
 IAtWgt=           1           1           1           1           1           1           1           1           1          24
 AtmWgt=   1.0078250   1.0078250   1.0078250   1.0078250   1.0078250   1.0078250   1.0078250   1.0078250   1.0078250  23.9850450
 NucSpn=           1           1           1           1           1           1           1           1           1           0
 AtZEff=  -0.0000000  -0.0000000  -0.0000000  -0.0000000  -0.0000000  -0.0000000  -0.0000000  -0.0000000  -0.0000000  -0.0000000
 NQMom=    0.0000000   0.0000000   0.0000000   0.0000000   0.0000000   0.0000000   0.0000000   0.0000000   0.0000000   0.0000000
 NMagM=    2.7928460   2.7928460   2.7928460   2.7928460   2.7928460   2.7928460   2.7928460   2.7928460   2.7928460   0.0000000
 AtZNuc=   1.0000000   1.0000000   1.0000000   1.0000000   1.0000000   1.0000000   1.0000000   1.0000000   1.0000000  12.0000000

  Atom        81          82          83          84          85          86          87          88          89          90
 IAtWgt=          12          12          12          12          14          12          12          12          12          12
 AtmWgt=  12.0000000  12.0000000  12.0000000  12.0000000  14.0030740  12.0000000  12.0000000  12.0000000  12.0000000  12.0000000
 NucSpn=           0           0           0           0           2           0           0           0           0           0
 AtZEff=  -0.0000000  -0.0000000  -0.0000000  -0.0000000  -0.0000000  -0.0000000  -0.0000000  -0.0000000  -0.0000000  -0.0000000
 NQMom=    0.0000000   0.0000000   0.0000000   0.0000000   2.0440000   0.0000000   0.0000000   0.0000000   0.0000000   0.0000000
 NMagM=    0.0000000   0.0000000   0.0000000   0.0000000   0.4037610   0.0000000   0.0000000   0.0000000   0.0000000   0.0000000
 AtZNuc=   6.0000000   6.0000000   6.0000000   6.0000000   7.0000000   6.0000000   6.0000000   6.0000000   6.0000000   6.0000000

  Atom        91          92          93          94          95          96          97          98          99         100
 IAtWgt=          12          12           1          14          12          12          12          12          12          12
 AtmWgt=  12.0000000  12.0000000   1.0078250  14.0030740  12.0000000  12.0000000  12.0000000  12.0000000  12.0000000  12.0000000
 NucSpn=           0           0           1           2           0           0           0           0           0           0
 AtZEff=  -0.0000000  -0.0000000  -0.0000000  -0.0000000  -0.0000000  -0.0000000  -0.0000000  -0.0000000  -0.0000000  -0.0000000
 NQMom=    0.0000000   0.0000000   0.0000000   2.0440000   0.0000000   0.0000000   0.0000000   0.0000000   0.0000000   0.0000000
 NMagM=    0.0000000   0.0000000   2.7928460   0.4037610   0.0000000   0.0000000   0.0000000   0.0000000   0.0000000   0.0000000
 AtZNuc=   6.0000000   6.0000000   1.0000000   7.0000000   6.0000000   6.0000000   6.0000000   6.0000000   6.0000000   6.0000000

  Atom       101         102         103         104         105         106         107         108         109         110
 IAtWgt=          16          12          14          12          12          12          12          12          12          12
 AtmWgt=  15.9949146  12.0000000  14.0030740  12.0000000  12.0000000  12.0000000  12.0000000  12.0000000  12.0000000  12.0000000
 NucSpn=           0           0           2           0           0           0           0           0           0           0
 AtZEff=  -0.0000000  -0.0000000  -0.0000000  -0.0000000  -0.0000000  -0.0000000  -0.0000000  -0.0000000  -0.0000000  -0.0000000
 NQMom=    0.0000000   0.0000000   2.0440000   0.0000000   0.0000000   0.0000000   0.0000000   0.0000000   0.0000000   0.0000000
 NMagM=    0.0000000   0.0000000   0.4037610   0.0000000   0.0000000   0.0000000   0.0000000   0.0000000   0.0000000   0.0000000
 AtZNuc=   8.0000000   6.0000000   7.0000000   6.0000000   6.0000000   6.0000000   6.0000000   6.0000000   6.0000000   6.0000000

  Atom       111         112         113         114         115         116         117         118         119         120
 IAtWgt=          14          12          12          12          12          12          12          16          12          12
 AtmWgt=  14.0030740  12.0000000  12.0000000  12.0000000  12.0000000  12.0000000  12.0000000  15.9949146  12.0000000  12.0000000
 NucSpn=           2           0           0           0           0           0           0           0           0           0
 AtZEff=  -0.0000000  -0.0000000  -0.0000000  -0.0000000  -0.0000000  -0.0000000  -0.0000000  -0.0000000  -0.0000000  -0.0000000
 NQMom=    2.0440000   0.0000000   0.0000000   0.0000000   0.0000000   0.0000000   0.0000000   0.0000000   0.0000000   0.0000000
 NMagM=    0.4037610   0.0000000   0.0000000   0.0000000   0.0000000   0.0000000   0.0000000   0.0000000   0.0000000   0.0000000
 AtZNuc=   7.0000000   6.0000000   6.0000000   6.0000000   6.0000000   6.0000000   6.0000000   8.0000000   6.0000000   6.0000000

  Atom       121         122         123         124         125         126         127         128         129         130
 IAtWgt=          16          16          12           1           1           1           1           1           1           1
 AtmWgt=  15.9949146  15.9949146  12.0000000   1.0078250   1.0078250   1.0078250   1.0078250   1.0078250   1.0078250   1.0078250
 NucSpn=           0           0           0           1           1           1           1           1           1           1
 AtZEff=  -0.0000000  -0.0000000  -0.0000000  -0.0000000  -0.0000000  -0.0000000  -0.0000000  -0.0000000  -0.0000000  -0.0000000
 NQMom=    0.0000000   0.0000000   0.0000000   0.0000000   0.0000000   0.0000000   0.0000000   0.0000000   0.0000000   0.0000000
 NMagM=    0.0000000   0.0000000   0.0000000   2.7928460   2.7928460   2.7928460   2.7928460   2.7928460   2.7928460   2.7928460
 AtZNuc=   8.0000000   8.0000000   6.0000000   1.0000000   1.0000000   1.0000000   1.0000000   1.0000000   1.0000000   1.0000000

  Atom       131         132         133         134         135         136         137         138         139         140
 IAtWgt=           1           1           1           1           1           1           1           1           1           1
 AtmWgt=   1.0078250   1.0078250   1.0078250   1.0078250   1.0078250   1.0078250   1.0078250   1.0078250   1.0078250   1.0078250
 NucSpn=           1           1           1           1           1           1           1           1           1           1
 AtZEff=  -0.0000000  -0.0000000  -0.0000000  -0.0000000  -0.0000000  -0.0000000  -0.0000000  -0.0000000  -0.0000000  -0.0000000
 NQMom=    0.0000000   0.0000000   0.0000000   0.0000000   0.0000000   0.0000000   0.0000000   0.0000000   0.0000000   0.0000000
 NMagM=    2.7928460   2.7928460   2.7928460   2.7928460   2.7928460   2.7928460   2.7928460   2.7928460   2.7928460   2.7928460
 AtZNuc=   1.0000000   1.0000000   1.0000000   1.0000000   1.0000000   1.0000000   1.0000000   1.0000000   1.0000000   1.0000000

  Atom       141         142         143         144         145         146         147         148         149         150
 IAtWgt=           1           1           1           1           1           1           1           1           1           1
 AtmWgt=   1.0078250   1.0078250   1.0078250   1.0078250   1.0078250   1.0078250   1.0078250   1.0078250   1.0078250   1.0078250
 NucSpn=           1           1           1           1           1           1           1           1           1           1
 AtZEff=  -0.0000000  -0.0000000  -0.0000000  -0.0000000  -0.0000000  -0.0000000  -0.0000000  -0.0000000  -0.0000000  -0.0000000
 NQMom=    0.0000000   0.0000000   0.0000000   0.0000000   0.0000000   0.0000000   0.0000000   0.0000000   0.0000000   0.0000000
 NMagM=    2.7928460   2.7928460   2.7928460   2.7928460   2.7928460   2.7928460   2.7928460   2.7928460   2.7928460   2.7928460
 AtZNuc=   1.0000000   1.0000000   1.0000000   1.0000000   1.0000000   1.0000000   1.0000000   1.0000000   1.0000000   1.0000000

  Atom       151         152         153         154         155         156         157         158
 IAtWgt=           1           1           1           1           1           1           1           1
 AtmWgt=   1.0078250   1.0078250   1.0078250   1.0078250   1.0078250   1.0078250   1.0078250   1.0078250
 NucSpn=           1           1           1           1           1           1           1           1
 AtZEff=  -0.0000000  -0.0000000  -0.0000000  -0.0000000  -0.0000000  -0.0000000  -0.0000000  -0.0000000
 NQMom=    0.0000000   0.0000000   0.0000000   0.0000000   0.0000000   0.0000000   0.0000000   0.0000000
 NMagM=    2.7928460   2.7928460   2.7928460   2.7928460   2.7928460   2.7928460   2.7928460   2.7928460
 AtZNuc=   1.0000000   1.0000000   1.0000000   1.0000000   1.0000000   1.0000000   1.0000000   1.0000000
 Leave Link  101 at Sat Sep 11 01:59:52 2021, MaxMem= 23488102400 cpu:               3.7 elap:               0.2
 (Enter /sw/apps/gaussian-16.0/g16/l202.exe)
 Stoichiometry    C68H72Mg2N8O8
 Framework group  C1[X(C68H72Mg2N8O8)]
 Deg. of freedom   468
 Full point group                 C1      NOp   1
 Largest Abelian subgroup         C1      NOp   1
 Largest concise Abelian subgroup C1      NOp   1
                         Standard orientation:                         
 ---------------------------------------------------------------------
 Center     Atomic      Atomic             Coordinates (Angstroms)
 Number     Number       Type             X           Y           Z
 ---------------------------------------------------------------------
      1         12           0       -5.138641    0.709859   -0.735370
      2          6           0       -5.670532   -2.601370    0.515656
      3          6           0       -6.485320    1.866798    2.178564
      4          6           0       -5.099328    3.618284   -1.998754
      5          6           0       -4.907607   -0.689014   -3.918990
      6          7           0       -5.938340   -0.333634    1.045711
      7          6           0       -6.029845   -1.604342    1.425313
      8          6           0       -6.472537   -1.775489    2.909262
      9          6           0       -7.223682   -0.383554    3.110003
     10          6           0       -6.482296    0.444025    2.074927
     11          6           0       -8.701581   -0.429211    2.735529
     12          6           0       -5.252859   -1.913706    3.881380
     13          6           0       -5.593123   -2.407615    5.290504
     14          1           0       -4.647806   -3.276353    5.975352
     15          7           0       -5.245958    2.483405    0.128266
     16          6           0       -5.815358    2.768808    1.323931
     17          6           0       -5.637864    4.223291    1.523072
     18          6           0       -5.087872    4.791570    0.261065
     19          6           0       -5.147742    3.643374   -0.606945
     20          6           0       -5.931125    4.918448    2.817098
     21          6           0       -4.597490    6.156025   -0.107606
     22          8           0       -4.379339    6.495599   -1.320731
     23          6           0       -4.461877    7.125393    0.994655
     24          7           0       -5.239269    1.405767   -2.700878
     25          6           0       -5.142290    2.710971   -2.976600
     26          6           0       -4.955899    2.946197   -4.446248
     27          6           0       -4.701052    1.509583   -5.095052
     28          6           0       -4.876599    0.642196   -3.824189
     29          6           0       -6.124294    3.632001   -5.167730
     30          6           0       -3.410204    1.335895   -5.934076
     31          6           0       -2.197510    1.429350   -5.035334
     32          7           0       -5.085258   -1.294940   -1.565416
     33          6           0       -5.008286   -1.644293   -2.921404
     34          6           0       -5.110787   -3.113330   -2.995511
     35          6           0       -5.257871   -3.517918   -1.670173
     36          6           0       -5.274229   -2.372288   -0.824268
     37          6           0       -5.121550   -3.888851   -4.188358
     38          6           0       -5.429743   -4.649923   -0.774136
     39          8           0       -5.398478   -5.874129   -0.907685
     40          6           0       -5.825990   -4.094409    0.664689
     41          6           0       -4.959797   -4.794046    1.676385
     42          8           0       -3.728098   -4.596174    1.709978
     43          8           0       -5.738809   -5.395363    2.588580
     44          6           0       -4.941323   -6.083748    3.638482
     45          1           0       -7.102457    2.338837    2.945546
     46          1           0       -4.973654    4.596283   -2.467969
     47          1           0       -4.758682   -1.201872   -4.870963
     48          1           0       -7.163481   -2.600149    3.085207
     49          1           0       -7.063459    0.025186    4.107491
     50          1           0       -8.965324   -1.378472    2.269412
     51          1           0       -8.849919    0.392993    2.035194
     52          1           0       -9.327236   -0.203499    3.599466
     53          1           0       -4.869268   -0.921762    4.120058
     54          1           0       -4.485990   -2.557426    3.449105
     55          1           0       -6.598403   -2.827683    5.333693
     56          1           0       -5.631465   -1.544384    5.955005
     57          1           0       -6.477209    4.272827    3.503765
     58          1           0       -6.626558    5.727226    2.593582
     59          1           0       -5.030638    5.324737    3.277950
     60          1           0       -5.429686    7.257476    1.478855
     61          1           0       -4.014891    8.017454    0.557299
     62          1           0       -3.795111    6.709507    1.750572
     63          1           0       -4.091231    3.581422   -4.634038
     64          1           0       -5.501796    1.220531   -5.776178
     65          1           0       -5.842591    4.551455   -5.681492
     66          1           0       -6.909835    3.817910   -4.435846
     67          1           0       -6.645801    3.005643   -5.891003
     68          1           0       -3.326152    2.134589   -6.670262
     69          1           0       -3.368656    0.386654   -6.468367
     70          1           0       -2.035641    2.503740   -4.955852
     71          1           0       -1.341302    0.938820   -5.499554
     72          1           0       -2.414673    1.057569   -4.033783
     73          1           0       -4.473637   -4.745123   -4.001342
     74          1           0       -4.773268   -3.307494   -5.041779
     75          1           0       -6.180199   -4.138583   -4.257304
     76          1           0       -6.882976   -4.317458    0.806645
     77          1           0       -5.264108   -7.124778    3.655805
     78          1           0       -5.062823   -5.501070    4.551789
     79          1           0       -3.876425   -6.201836    3.435045
     80         12           0        5.294788    0.347105    1.046923
     81          6           0        5.613292   -0.919856   -2.295594
     82          6           0        4.145952   -2.736045    1.946330
     83          6           0        4.578646    1.553594    3.892794
     84          6           0        5.364638    3.555881   -0.311243
     85          7           0        4.967379   -1.506622   -0.114421
     86          6           0        5.182021   -1.887712   -1.364638
     87          6           0        4.996750   -3.408537   -1.614282
     88          6           0        4.005926   -3.733742   -0.393059
     89          6           0        4.416838   -2.613315    0.560087
     90          6           0        2.538678   -3.549075   -0.742932
     91          6           0        6.343745   -4.203381   -1.488415
     92          6           0        6.296288   -5.637515   -2.020154
     93          1           0        7.486746   -6.178595   -2.670155
     94          7           0        4.951894   -0.561466    2.777672
     95          6           0        4.509433   -1.823215    2.960701
     96          6           0        4.401449   -2.004471    4.416605
     97          6           0        4.658579   -0.693751    5.072830
     98          6           0        4.720532    0.173746    3.913644
     99          6           0        4.159984   -3.341749    5.054421
    100          6           0        4.809387   -0.286185    6.507168
    101          8           0        4.791478    0.945111    6.862752
    102          6           0        4.884911   -1.373962    7.493333
    103          7           0        4.799590    2.263927    1.681699
    104          6           0        4.586619    2.527865    2.982812
    105          6           0        4.518906    4.015426    3.233683
    106          6           0        4.973670    4.703342    1.863440
    107          6           0        5.147474    3.440323    0.991693
    108          6           0        3.151126    4.558901    3.646250
    109          6           0        6.149112    5.715801    1.940462
    110          6           0        7.428787    4.994722    2.298065
    111          7           0        5.641865    1.201919   -0.906761
    112          6           0        5.598774    2.568526   -1.259778
    113          6           0        5.786169    2.646312   -2.723082
    114          6           0        5.903205    1.307520   -3.126110
    115          6           0        5.776090    0.454515   -1.996635
    116          6           0        5.781689    3.838930   -3.500096
    117          6           0        6.094734    0.421437   -4.251661
    118          8           0        6.346566    0.576097   -5.445975
    119          6           0        5.789146   -1.065877   -3.781651
    120          6           0        6.905661   -1.946575   -4.271856
    121          8           0        8.061254   -1.804279   -3.834866
    122          8           0        6.387298   -2.946865   -5.007443
    123          6           0        7.454969   -3.853719   -5.506955
    124          1           0        3.562722   -3.591927    2.287209
    125          1           0        4.440547    2.028159    4.867060
    126          1           0        5.496453    4.524876   -0.797405
    127          1           0        4.522149   -3.659915   -2.555207
    128          1           0        4.223133   -4.704932    0.043943
    129          1           0        2.409822   -3.114364   -1.723021
    130          1           0        2.135115   -2.893627    0.017703
    131          1           0        2.003928   -4.497442   -0.638206
    132          1           0        6.544074   -4.402763   -0.427822
    133          1           0        7.146409   -3.669806   -1.959223
    134          1           0        5.406368   -5.820038   -2.634714
    135          1           0        6.181178   -6.318072   -1.173031
    136          1           0        3.846553   -4.089245    4.315230
    137          1           0        3.291597   -3.229935    5.712652
    138          1           0        5.010549   -3.685593    5.646842
    139          1           0        3.987383   -1.984310    7.427210
    140          1           0        5.080840   -0.887327    8.450772
    141          1           0        5.727569   -2.024209    7.233124
    142          1           0        5.206265    4.306974    4.018317
    143          1           0        4.159117    5.287817    1.410983
    144          1           0        3.168969    5.098117    4.612172
    145          1           0        2.453134    3.733142    3.684568
    146          1           0        2.681802    5.224793    2.924100
    147          1           0        5.970442    6.443761    2.735630
    148          1           0        6.300237    6.272874    1.021865
    149          1           0        7.373498    4.919883    3.388222
    150          1           0        8.295171    5.574210    1.985657
    151          1           0        7.430786    3.974414    1.897291
    152          1           0        6.600431    3.756015   -4.202438
    153          1           0        5.882673    4.722348   -2.873083
    154          1           0        4.790585    3.770623   -3.956517
    155          1           0        4.825818   -1.352004   -4.205557
    156          1           0        7.351242   -3.900273   -6.595415
    157          1           0        7.328867   -4.799995   -4.948009
    158          1           0        8.481803   -3.522150   -5.406346
 ---------------------------------------------------------------------
 Rotational constants (GHZ):           0.0204874           0.0107872           0.0107437
 Leave Link  202 at Sat Sep 11 01:59:52 2021, MaxMem= 23488102400 cpu:               0.2 elap:               0.0
 (Enter /sw/apps/gaussian-16.0/g16/l301.exe)
 Standard basis: def2SVP (5D, 7F)
 Ernie: Thresh=  0.10000D-02 Tol=  0.10000D-05 Strict=F.
 There are  1658 symmetry adapted cartesian basis functions of A   symmetry.
 There are  1572 symmetry adapted basis functions of A   symmetry.
  1572 basis functions,  2678 primitive gaussians,  1658 cartesian basis functions
   312 alpha electrons      312 beta electrons
       nuclear repulsion energy     14937.1334971833 Hartrees.
 IExCor=20419 DFT=T Ex+Corr=CAM-B3LYP ExCW=0 ScaHFX=  1.000000
 ScaDFX=  1.000000  1.000000  1.000000  0.810000 ScalE2=  1.000000  1.000000
 IRadAn=      5 IRanWt=     -1 IRanGd=            0 ICorTp=0 IEmpDi=  4
 HFx  wShort=  0.000000 wLong=  0.330000 cFull=  0.190000 cShort=  0.000000 cLong=  0.460000
 DFx  wShort=  0.000000 wLong=  0.330000 cFull=  0.190000 cShort=  0.000000 cLong=  0.460000
 NAtoms=  158 NActive=  158 NUniq=  158 SFac= 1.00D+00 NAtFMM=   60 NAOKFM=T Big=T
 Integral buffers will be    131072 words long.
 Raffenetti 1 integral format.
 Two-electron integral symmetry is turned on.
 Leave Link  301 at Sat Sep 11 01:59:52 2021, MaxMem= 23488102400 cpu:               1.3 elap:               0.1
 (Enter /sw/apps/gaussian-16.0/g16/l302.exe)
 NPDir=0 NMtPBC=     1 NCelOv=     1 NCel=       1 NClECP=     1 NCelD=      1
         NCelK=      1 NCelE2=     1 NClLst=     1 CellRange=     0.0.
 One-electron integrals computed using PRISM.
 One-electron integral symmetry used in STVInt
   1 Symmetry operations used in ECPInt.
 ECPInt:  NShTT=  271216 NPrTT=  987664 LenC2=  137342 LenP2D=  286697.
 LDataN:  DoStor=T MaxTD1= 4 Len=   56
 NBasis=  1572 RedAO= T EigKep=  3.36D-04  NBF=  1572
 NBsUse=  1572 1.00D-06 EigRej= -1.00D+00 NBFU=  1572
 Precomputing XC quadrature grid using
 IXCGrd= 4 IRadAn=           5 IRanWt=          -1 IRanGd=           0 AccXCQ= 0.00D+00.
 Generated NRdTot=       0 NPtTot=           0 NUsed=           0 NTot=          32
 NSgBfM=  1193  1166  1180  1192  1193 MxSgAt=   158 MxSgA2=   157.
 Leave Link  302 at Sat Sep 11 01:59:57 2021, MaxMem= 23488102400 cpu:             121.5 elap:               5.1
 (Enter /sw/apps/gaussian-16.0/g16/l303.exe)
 DipDrv:  MaxL=1.
 Leave Link  303 at Sat Sep 11 01:59:57 2021, MaxMem= 23488102400 cpu:               9.4 elap:               0.4
 (Enter /sw/apps/gaussian-16.0/g16/l308.exe)
 Leave Link  308 at Sat Sep 11 01:59:58 2021, MaxMem= 23488102400 cpu:              15.2 elap:               0.7
 (Enter /sw/apps/gaussian-16.0/g16/l401.exe)
 ExpMin= 3.36D-02 ExpMax= 4.95D+03 ExpMxC= 7.45D+02 IAcc=3 IRadAn=         5 AccDes= 0.00D+00
 Harris functional with IExCor=20419 and IRadAn=       5 diagonalized for initial guess.
 HarFok:  IExCor=20419 AccDes= 0.00D+00 IRadAn=         5 IDoV= 1 UseB2=F ITyADJ=14
 ICtDFT=  3500011 ScaDFX=  1.000000  1.000000  1.000000  1.000000
 FoFCou: FMM=F IPFlag=           0 FMFlag=      100000 FMFlg1=        2001
         NFxFlg=           0 DoJE=T BraDBF=F KetDBF=T FulRan=T
         wScrn=  0.000000 ICntrl=       500 IOpCl=  0 I1Cent=   200000004 NGrid=           0
         NMat0=    1 NMatS0=      1 NMatT0=    0 NMatD0=    1 NMtDS0=    0 NMtDT0=    0
 Petite list used in FoFCou.
 Harris En= -3918.65801073842    
 JPrj=0 DoOrth=F DoCkMO=F.
 Leave Link  401 at Sat Sep 11 02:00:05 2021, MaxMem= 23488102400 cpu:             176.4 elap:               7.4
 (Enter /sw/apps/gaussian-16.0/g16/l502.exe)
 Integral symmetry usage will be decided dynamically.
 Closed shell SCF:
 Using DIIS extrapolation, IDIIS=  1040.
 NGot= 23488102400 LenX= 23482547354 LenY= 23479796732
 Requested convergence on RMS density matrix=1.00D-08 within 128 cycles.
 Requested convergence on MAX density matrix=1.00D-06.
 Requested convergence on             energy=1.00D-06.
 No special actions if energy rises.
 Fock matrices will be formed incrementally for  20 cycles.

 Cycle   1  Pass 1  IDiag  1:
 FoFJK:  IHMeth= 1 ICntrl=       0 DoSepK=T KAlg= 0 I1Cent=           0 FoldK=F
 IRaf=         1 NMat=       1 IRICut=       1 DoRegI=T DoRafI=F ISym2E= 0 IDoP0=0 IntGTp=1.
 FoFCou: FMM=T IPFlag=           0 FMFlag=      100000 FMFlg1=        2001
         NFxFlg=           0 DoJE=T BraDBF=F KetDBF=F FulRan=T
         wScrn=  0.000000 ICntrl=       500 IOpCl=  0 I1Cent=           0 NGrid=           0
         NMat0=    1 NMatS0=      1 NMatT0=    0 NMatD0=    1 NMtDS0=    0 NMtDT0=    0
 Symmetry not used in FoFCou.
 FMM levels:  10  Number of levels for PrismC:   9
 E= -4068.95068855410    
 DIIS: error= 2.04D-02 at cycle   1 NSaved=   1.
 NSaved= 1 IEnMin= 1 EnMin= -4068.95068855410     IErMin= 1 ErrMin= 2.04D-02
 ErrMax= 2.04D-02  0.00D+00 EMaxC= 1.00D-01 BMatC= 1.69D+00 BMatP= 1.69D+00
 IDIUse=3 WtCom= 7.96D-01 WtEn= 2.04D-01
 Coeff-Com:  0.100D+01
 Coeff-En:   0.100D+01
 Coeff:      0.100D+01
 Gap=     0.120 Goal=   None    Shift=    0.000
 GapD=    0.120 DampG=1.000 DampE=0.500 DampFc=0.5000 IDamp=-1.
 Damping current iteration by 5.00D-01
 RMSDP=1.57D-03 MaxDP=1.35D-01              OVMax= 1.98D-01

 Cycle   2  Pass 1  IDiag  1:
 RMSU=  7.69D-04    CP:  9.82D-01
 E= -4069.33960228711     Delta-E=       -0.388913733012 Rises=F Damp=T
 DIIS: error= 1.27D-02 at cycle   2 NSaved=   2.
 NSaved= 2 IEnMin= 2 EnMin= -4069.33960228711     IErMin= 2 ErrMin= 1.27D-02
 ErrMax= 1.27D-02  0.00D+00 EMaxC= 1.00D-01 BMatC= 3.06D-01 BMatP= 1.69D+00
 IDIUse=3 WtCom= 8.73D-01 WtEn= 1.27D-01
 Coeff-Com: -0.214D+00 0.121D+01
 Coeff-En:   0.000D+00 0.100D+01
 Coeff:     -0.187D+00 0.119D+01
 Gap=     0.134 Goal=   None    Shift=    0.000
 RMSDP=7.63D-04 MaxDP=9.45D-02 DE=-3.89D-01 OVMax= 1.86D-01

 Cycle   3  Pass 1  IDiag  1:
 RMSU=  7.30D-04    CP:  9.68D-01  1.24D+00
 E= -4069.63044644008     Delta-E=       -0.290844152976 Rises=F Damp=F
 DIIS: error= 1.55D-02 at cycle   3 NSaved=   3.
 NSaved= 3 IEnMin= 3 EnMin= -4069.63044644008     IErMin= 2 ErrMin= 1.27D-02
 ErrMax= 1.55D-02  0.00D+00 EMaxC= 1.00D-01 BMatC= 2.00D-01 BMatP= 3.06D-01
 IDIUse=3 WtCom= 8.45D-01 WtEn= 1.55D-01
 Coeff-Com: -0.267D+00 0.650D+00 0.617D+00
 Coeff-En:   0.000D+00 0.000D+00 0.100D+01
 Coeff:     -0.226D+00 0.549D+00 0.676D+00
 Gap=     0.121 Goal=   None    Shift=    0.000
 RMSDP=5.04D-04 MaxDP=4.62D-02 DE=-2.91D-01 OVMax= 1.35D-01

 Cycle   4  Pass 1  IDiag  1:
 RMSU=  2.63D-04    CP:  9.65D-01  1.55D+00  5.09D-01
 E= -4069.76722937266     Delta-E=       -0.136782932575 Rises=F Damp=F
 DIIS: error= 7.08D-03 at cycle   4 NSaved=   4.
 NSaved= 4 IEnMin= 4 EnMin= -4069.76722937266     IErMin= 4 ErrMin= 7.08D-03
 ErrMax= 7.08D-03  0.00D+00 EMaxC= 1.00D-01 BMatC= 4.88D-02 BMatP= 2.00D-01
 IDIUse=3 WtCom= 9.29D-01 WtEn= 7.08D-02
 Coeff-Com: -0.108D+00 0.225D+00 0.407D+00 0.476D+00
 Coeff-En:   0.000D+00 0.000D+00 0.216D+00 0.784D+00
 Coeff:     -0.101D+00 0.209D+00 0.394D+00 0.498D+00
 Gap=     0.121 Goal=   None    Shift=    0.000
 RMSDP=1.96D-04 MaxDP=1.92D-02 DE=-1.37D-01 OVMax= 5.68D-02

 Cycle   5  Pass 1  IDiag  1:
 RMSU=  7.43D-05    CP:  9.64D-01  1.49D+00  6.90D-01  5.55D-01
 E= -4069.81121597616     Delta-E=       -0.043986603505 Rises=F Damp=F
 DIIS: error= 7.74D-04 at cycle   5 NSaved=   5.
 NSaved= 5 IEnMin= 5 EnMin= -4069.81121597616     IErMin= 5 ErrMin= 7.74D-04
 ErrMax= 7.74D-04  0.00D+00 EMaxC= 1.00D-01 BMatC= 1.09D-03 BMatP= 4.88D-02
 IDIUse=3 WtCom= 9.92D-01 WtEn= 7.74D-03
 Coeff-Com: -0.353D-01 0.692D-01 0.162D+00 0.247D+00 0.557D+00
 Coeff-En:   0.000D+00 0.000D+00 0.000D+00 0.000D+00 0.100D+01
 Coeff:     -0.350D-01 0.687D-01 0.161D+00 0.245D+00 0.560D+00
 Gap=     0.120 Goal=   None    Shift=    0.000
 RMSDP=3.97D-05 MaxDP=4.19D-03 DE=-4.40D-02 OVMax= 1.43D-02

 Cycle   6  Pass 1  IDiag  1:
 RMSU=  2.99D-05    CP:  9.64D-01  1.49D+00  6.82D-01  6.25D-01  7.66D-01
 E= -4069.81214554959     Delta-E=       -0.000929573431 Rises=F Damp=F
 DIIS: error= 2.21D-04 at cycle   6 NSaved=   6.
 NSaved= 6 IEnMin= 6 EnMin= -4069.81214554959     IErMin= 6 ErrMin= 2.21D-04
 ErrMax= 2.21D-04  0.00D+00 EMaxC= 1.00D-01 BMatC= 1.73D-04 BMatP= 1.09D-03
 IDIUse=3 WtCom= 9.98D-01 WtEn= 2.21D-03
 Coeff-Com:  0.222D-02-0.658D-02 0.108D-01 0.396D-01 0.311D+00 0.643D+00
 Coeff-En:   0.000D+00 0.000D+00 0.000D+00 0.000D+00 0.110D+00 0.890D+00
 Coeff:      0.222D-02-0.657D-02 0.108D-01 0.395D-01 0.311D+00 0.643D+00
 Gap=     0.120 Goal=   None    Shift=    0.000
 RMSDP=1.57D-05 MaxDP=1.22D-03 DE=-9.30D-04 OVMax= 6.47D-03

 Cycle   7  Pass 1  IDiag  1:
 RMSU=  1.05D-05    CP:  9.64D-01  1.50D+00  6.88D-01  6.24D-01  8.66D-01
                    CP:  7.42D-01
 E= -4069.81233023392     Delta-E=       -0.000184684326 Rises=F Damp=F
 DIIS: error= 8.33D-05 at cycle   7 NSaved=   7.
 NSaved= 7 IEnMin= 7 EnMin= -4069.81233023392     IErMin= 7 ErrMin= 8.33D-05
 ErrMax= 8.33D-05  0.00D+00 EMaxC= 1.00D-01 BMatC= 2.04D-05 BMatP= 1.73D-04
 IDIUse=1 WtCom= 1.00D+00 WtEn= 0.00D+00
 Coeff-Com:  0.440D-02-0.963D-02-0.887D-02-0.380D-02 0.104D+00 0.328D+00
 Coeff-Com:  0.585D+00
 Coeff:      0.440D-02-0.963D-02-0.887D-02-0.380D-02 0.104D+00 0.328D+00
 Coeff:      0.585D+00
 Gap=     0.121 Goal=   None    Shift=    0.000
 RMSDP=6.50D-06 MaxDP=1.17D-03 DE=-1.85D-04 OVMax= 3.26D-03

 Cycle   8  Pass 1  IDiag  1:
 RMSU=  4.64D-06    CP:  9.64D-01  1.50D+00  6.88D-01  6.29D-01  8.71D-01
                    CP:  8.71D-01  8.20D-01
 E= -4069.81235547818     Delta-E=       -0.000025244255 Rises=F Damp=F
 DIIS: error= 4.59D-05 at cycle   8 NSaved=   8.
 NSaved= 8 IEnMin= 8 EnMin= -4069.81235547818     IErMin= 8 ErrMin= 4.59D-05
 ErrMax= 4.59D-05  0.00D+00 EMaxC= 1.00D-01 BMatC= 4.73D-06 BMatP= 2.04D-05
 IDIUse=1 WtCom= 1.00D+00 WtEn= 0.00D+00
 Coeff-Com:  0.216D-02-0.427D-02-0.775D-02-0.122D-01-0.123D-01 0.345D-01
 Coeff-Com:  0.345D+00 0.655D+00
 Coeff:      0.216D-02-0.427D-02-0.775D-02-0.122D-01-0.123D-01 0.345D-01
 Coeff:      0.345D+00 0.655D+00
 Gap=     0.121 Goal=   None    Shift=    0.000
 RMSDP=3.24D-06 MaxDP=3.50D-04 DE=-2.52D-05 OVMax= 1.13D-03

 Cycle   9  Pass 1  IDiag  1:
 RMSU=  1.89D-06    CP:  9.64D-01  1.50D+00  6.89D-01  6.30D-01  8.88D-01
                    CP:  8.96D-01  1.02D+00  9.32D-01
 E= -4069.81236300837     Delta-E=       -0.000007530194 Rises=F Damp=F
 DIIS: error= 2.10D-05 at cycle   9 NSaved=   9.
 NSaved= 9 IEnMin= 9 EnMin= -4069.81236300837     IErMin= 9 ErrMin= 2.10D-05
 ErrMax= 2.10D-05  0.00D+00 EMaxC= 1.00D-01 BMatC= 6.78D-07 BMatP= 4.73D-06
 IDIUse=1 WtCom= 1.00D+00 WtEn= 0.00D+00
 Coeff-Com:  0.481D-03-0.805D-03-0.271D-02-0.606D-02-0.219D-01-0.372D-01
 Coeff-Com:  0.106D+00 0.329D+00 0.633D+00
 Coeff:      0.481D-03-0.805D-03-0.271D-02-0.606D-02-0.219D-01-0.372D-01
 Coeff:      0.106D+00 0.329D+00 0.633D+00
 Gap=     0.121 Goal=   None    Shift=    0.000
 RMSDP=1.39D-06 MaxDP=1.54D-04 DE=-7.53D-06 OVMax= 7.60D-04

 Cycle  10  Pass 1  IDiag  1:
 RMSU=  9.25D-07    CP:  9.64D-01  1.50D+00  6.89D-01  6.31D-01  8.91D-01
                    CP:  9.10D-01  1.06D+00  1.10D+00  1.04D+00
 E= -4069.81236453351     Delta-E=       -0.000001525143 Rises=F Damp=F
 DIIS: error= 1.05D-05 at cycle  10 NSaved=  10.
 NSaved=10 IEnMin=10 EnMin= -4069.81236453351     IErMin=10 ErrMin= 1.05D-05
 ErrMax= 1.05D-05  0.00D+00 EMaxC= 1.00D-01 BMatC= 1.64D-07 BMatP= 6.78D-07
 IDIUse=1 WtCom= 1.00D+00 WtEn= 0.00D+00
 Coeff-Com: -0.419D-03 0.878D-03 0.120D-02 0.110D-02-0.397D-02-0.304D-01
 Coeff-Com: -0.460D-01-0.738D-01 0.253D+00 0.899D+00
 Coeff:     -0.419D-03 0.878D-03 0.120D-02 0.110D-02-0.397D-02-0.304D-01
 Coeff:     -0.460D-01-0.738D-01 0.253D+00 0.899D+00
 Gap=     0.121 Goal=   None    Shift=    0.000
 RMSDP=1.19D-06 MaxDP=1.18D-04 DE=-1.53D-06 OVMax= 6.01D-04

 Cycle  11  Pass 1  IDiag  1:
 RMSU=  5.01D-07    CP:  9.64D-01  1.50D+00  6.89D-01  6.31D-01  8.93D-01
                    CP:  9.20D-01  1.11D+00  1.20D+00  1.37D+00  1.36D+00
 E= -4069.81236527787     Delta-E=       -0.000000744360 Rises=F Damp=F
 DIIS: error= 3.96D-06 at cycle  11 NSaved=  11.
 NSaved=11 IEnMin=11 EnMin= -4069.81236527787     IErMin=11 ErrMin= 3.96D-06
 ErrMax= 3.96D-06  0.00D+00 EMaxC= 1.00D-01 BMatC= 5.71D-08 BMatP= 1.64D-07
 IDIUse=1 WtCom= 1.00D+00 WtEn= 0.00D+00
 Coeff-Com: -0.323D-03 0.628D-03 0.130D-02 0.210D-02 0.441D-02-0.830D-02
 Coeff-Com: -0.431D-01-0.130D+00-0.224D-01 0.458D+00 0.738D+00
 Coeff:     -0.323D-03 0.628D-03 0.130D-02 0.210D-02 0.441D-02-0.830D-02
 Coeff:     -0.431D-01-0.130D+00-0.224D-01 0.458D+00 0.738D+00
 Gap=     0.121 Goal=   None    Shift=    0.000
 RMSDP=6.62D-07 MaxDP=5.87D-05 DE=-7.44D-07 OVMax= 3.58D-04

 Cycle  12  Pass 1  IDiag  1:
 RMSU=  2.55D-07    CP:  9.64D-01  1.50D+00  6.89D-01  6.31D-01  8.94D-01
                    CP:  9.22D-01  1.13D+00  1.27D+00  1.54D+00  1.74D+00
                    CP:  1.21D+00
 E= -4069.81236552349     Delta-E=       -0.000000245618 Rises=F Damp=F
 DIIS: error= 2.42D-06 at cycle  12 NSaved=  12.
 NSaved=12 IEnMin=12 EnMin= -4069.81236552349     IErMin=12 ErrMin= 2.42D-06
 ErrMax= 2.42D-06  0.00D+00 EMaxC= 1.00D-01 BMatC= 1.39D-08 BMatP= 5.71D-08
 IDIUse=1 WtCom= 1.00D+00 WtEn= 0.00D+00
 Coeff-Com:  0.838D-06-0.176D-04 0.168D-03 0.489D-03 0.324D-02 0.386D-02
 Coeff-Com:  0.316D-02-0.336D-01-0.651D-01-0.801D-01 0.245D+00 0.923D+00
 Coeff:      0.838D-06-0.176D-04 0.168D-03 0.489D-03 0.324D-02 0.386D-02
 Coeff:      0.316D-02-0.336D-01-0.651D-01-0.801D-01 0.245D+00 0.923D+00
 Gap=     0.121 Goal=   None    Shift=    0.000
 RMSDP=4.22D-07 MaxDP=2.93D-05 DE=-2.46D-07 OVMax= 2.44D-04

 Cycle  13  Pass 1  IDiag  1:
 RMSU=  1.60D-07    CP:  9.64D-01  1.50D+00  6.89D-01  6.31D-01  8.94D-01
                    CP:  9.23D-01  1.14D+00  1.29D+00  1.64D+00  1.97D+00
                    CP:  1.62D+00  1.28D+00
 E= -4069.81236560910     Delta-E=       -0.000000085613 Rises=F Damp=F
 DIIS: error= 1.29D-06 at cycle  13 NSaved=  13.
 NSaved=13 IEnMin=13 EnMin= -4069.81236560910     IErMin=13 ErrMin= 1.29D-06
 ErrMax= 1.29D-06  0.00D+00 EMaxC= 1.00D-01 BMatC= 7.66D-09 BMatP= 1.39D-08
 IDIUse=1 WtCom= 1.00D+00 WtEn= 0.00D+00
 Coeff-Com:  0.118D-03-0.242D-03-0.366D-03-0.458D-03 0.543D-03 0.490D-02
 Coeff-Com:  0.197D-01 0.224D-01-0.324D-01-0.240D+00-0.157D+00 0.601D+00
 Coeff-Com:  0.781D+00
 Coeff:      0.118D-03-0.242D-03-0.366D-03-0.458D-03 0.543D-03 0.490D-02
 Coeff:      0.197D-01 0.224D-01-0.324D-01-0.240D+00-0.157D+00 0.601D+00
 Coeff:      0.781D+00
 Gap=     0.121 Goal=   None    Shift=    0.000
 RMSDP=3.24D-07 MaxDP=2.09D-05 DE=-8.56D-08 OVMax= 1.86D-04

 Cycle  14  Pass 1  IDiag  1:
 RMSU=  7.37D-08    CP:  9.64D-01  1.50D+00  6.89D-01  6.31D-01  8.95D-01
                    CP:  9.23D-01  1.15D+00  1.32D+00  1.72D+00  2.15D+00
                    CP:  1.88D+00  1.80D+00  1.09D+00
 E= -4069.81236564289     Delta-E=       -0.000000033790 Rises=F Damp=F
 DIIS: error= 6.86D-07 at cycle  14 NSaved=  14.
 NSaved=14 IEnMin=14 EnMin= -4069.81236564289     IErMin=14 ErrMin= 6.86D-07
 ErrMax= 6.86D-07  0.00D+00 EMaxC= 1.00D-01 BMatC= 1.19D-09 BMatP= 7.66D-09
 IDIUse=1 WtCom= 1.00D+00 WtEn= 0.00D+00
 Coeff-Com:  0.657D-04-0.130D-03-0.243D-03-0.384D-03-0.492D-03 0.125D-02
 Coeff-Com:  0.108D-01 0.188D-01 0.384D-02-0.984D-01-0.142D+00 0.953D-01
 Coeff-Com:  0.403D+00 0.709D+00
 Coeff:      0.657D-04-0.130D-03-0.243D-03-0.384D-03-0.492D-03 0.125D-02
 Coeff:      0.108D-01 0.188D-01 0.384D-02-0.984D-01-0.142D+00 0.953D-01
 Coeff:      0.403D+00 0.709D+00
 Gap=     0.121 Goal=   None    Shift=    0.000
 RMSDP=9.79D-08 MaxDP=6.95D-06 DE=-3.38D-08 OVMax= 5.37D-05

 Cycle  15  Pass 1  IDiag  1:
 RMSU=  3.75D-08    CP:  9.64D-01  1.50D+00  6.89D-01  6.32D-01  8.95D-01
                    CP:  9.23D-01  1.15D+00  1.32D+00  1.73D+00  2.19D+00
                    CP:  1.99D+00  1.94D+00  1.32D+00  1.02D+00
 E= -4069.81236564611     Delta-E=       -0.000000003220 Rises=F Damp=F
 DIIS: error= 2.99D-07 at cycle  15 NSaved=  15.
 NSaved=15 IEnMin=15 EnMin= -4069.81236564611     IErMin=15 ErrMin= 2.99D-07
 ErrMax= 2.99D-07  0.00D+00 EMaxC= 1.00D-01 BMatC= 2.23D-10 BMatP= 1.19D-09
 IDIUse=1 WtCom= 1.00D+00 WtEn= 0.00D+00
 Coeff-Com:  0.520D-05-0.865D-05-0.314D-04-0.794D-04-0.297D-03-0.504D-03
 Coeff-Com:  0.115D-02 0.240D-02 0.856D-02 0.203D-02-0.308D-01-0.731D-01
 Coeff-Com:  0.261D-01 0.300D+00 0.765D+00
 Coeff:      0.520D-05-0.865D-05-0.314D-04-0.794D-04-0.297D-03-0.504D-03
 Coeff:      0.115D-02 0.240D-02 0.856D-02 0.203D-02-0.308D-01-0.731D-01
 Coeff:      0.261D-01 0.300D+00 0.765D+00
 Gap=     0.121 Goal=   None    Shift=    0.000
 RMSDP=4.05D-08 MaxDP=2.56D-06 DE=-3.22D-09 OVMax= 2.70D-05

 Cycle  16  Pass 1  IDiag  1:
 RMSU=  1.81D-08    CP:  9.64D-01  1.50D+00  6.89D-01  6.32D-01  8.95D-01
                    CP:  9.23D-01  1.15D+00  1.32D+00  1.74D+00  2.21D+00
                    CP:  2.01D+00  2.00D+00  1.40D+00  1.24D+00  1.15D+00
 E= -4069.81236564724     Delta-E=       -0.000000001128 Rises=F Damp=F
 DIIS: error= 1.75D-07 at cycle  16 NSaved=  16.
 NSaved=16 IEnMin=16 EnMin= -4069.81236564724     IErMin=16 ErrMin= 1.75D-07
 ErrMax= 1.75D-07  0.00D+00 EMaxC= 1.00D-01 BMatC= 7.78D-11 BMatP= 2.23D-10
 IDIUse=1 WtCom= 1.00D+00 WtEn= 0.00D+00
 Coeff-Com: -0.140D-04 0.283D-04 0.464D-04 0.537D-04-0.228D-04-0.620D-03
 Coeff-Com: -0.194D-02-0.422D-02 0.443D-02 0.253D-01 0.205D-01-0.643D-01
 Coeff-Com: -0.844D-01-0.332D-01 0.396D+00 0.742D+00
 Coeff:     -0.140D-04 0.283D-04 0.464D-04 0.537D-04-0.228D-04-0.620D-03
 Coeff:     -0.194D-02-0.422D-02 0.443D-02 0.253D-01 0.205D-01-0.643D-01
 Coeff:     -0.844D-01-0.332D-01 0.396D+00 0.742D+00
 Gap=     0.121 Goal=   None    Shift=    0.000
 RMSDP=2.21D-08 MaxDP=1.50D-06 DE=-1.13D-09 OVMax= 1.23D-05

 Cycle  17  Pass 1  IDiag  1:
 RMSU=  1.02D-08    CP:  9.64D-01  1.50D+00  6.89D-01  6.32D-01  8.95D-01
                    CP:  9.23D-01  1.15D+00  1.32D+00  1.74D+00  2.21D+00
                    CP:  2.02D+00  2.02D+00  1.45D+00  1.34D+00  1.44D+00
                    CP:  1.25D+00
 E= -4069.81236564742     Delta-E=       -0.000000000178 Rises=F Damp=F
 DIIS: error= 1.03D-07 at cycle  17 NSaved=  17.
 NSaved=17 IEnMin=17 EnMin= -4069.81236564742     IErMin=17 ErrMin= 1.03D-07
 ErrMax= 1.03D-07  0.00D+00 EMaxC= 1.00D-01 BMatC= 1.77D-11 BMatP= 7.78D-11
 IDIUse=1 WtCom= 1.00D+00 WtEn= 0.00D+00
 Coeff-Com: -0.712D-05 0.138D-04 0.282D-04 0.421D-04 0.851D-04-0.124D-03
 Coeff-Com: -0.950D-03-0.278D-02 0.172D-03 0.909D-02 0.173D-01-0.712D-02
 Coeff-Com: -0.374D-01-0.100D+00-0.332D-01 0.299D+00 0.856D+00
 Coeff:     -0.712D-05 0.138D-04 0.282D-04 0.421D-04 0.851D-04-0.124D-03
 Coeff:     -0.950D-03-0.278D-02 0.172D-03 0.909D-02 0.173D-01-0.712D-02
 Coeff:     -0.374D-01-0.100D+00-0.332D-01 0.299D+00 0.856D+00
 Gap=     0.121 Goal=   None    Shift=    0.000
 RMSDP=1.35D-08 MaxDP=9.68D-07 DE=-1.78D-10 OVMax= 8.66D-06

 Cycle  18  Pass 1  IDiag  1:
 RMSU=  4.71D-09    CP:  9.64D-01  1.50D+00  6.89D-01  6.32D-01  8.95D-01
                    CP:  9.23D-01  1.15D+00  1.32D+00  1.74D+00  2.21D+00
                    CP:  2.03D+00  2.03D+00  1.47D+00  1.41D+00  1.61D+00
                    CP:  1.67D+00  1.39D+00
 E= -4069.81236564753     Delta-E=       -0.000000000116 Rises=F Damp=F
 DIIS: error= 5.45D-08 at cycle  18 NSaved=  18.
 NSaved=18 IEnMin=18 EnMin= -4069.81236564753     IErMin=18 ErrMin= 5.45D-08
 ErrMax= 5.45D-08  0.00D+00 EMaxC= 1.00D-01 BMatC= 6.63D-12 BMatP= 1.77D-11
 IDIUse=1 WtCom= 1.00D+00 WtEn= 0.00D+00
 Coeff-Com:  0.209D-05-0.448D-05-0.480D-05-0.229D-05 0.583D-04 0.178D-03
 Coeff-Com:  0.414D-03 0.227D-03-0.122D-02-0.627D-02-0.228D-03 0.207D-01
 Coeff-Com:  0.191D-01-0.324D-01-0.164D+00-0.190D+00 0.338D+00 0.102D+01
 Coeff:      0.209D-05-0.448D-05-0.480D-05-0.229D-05 0.583D-04 0.178D-03
 Coeff:      0.414D-03 0.227D-03-0.122D-02-0.627D-02-0.228D-03 0.207D-01
 Coeff:      0.191D-01-0.324D-01-0.164D+00-0.190D+00 0.338D+00 0.102D+01
 Gap=     0.121 Goal=   None    Shift=    0.000
 RMSDP=1.15D-08 MaxDP=7.19D-07 DE=-1.16D-10 OVMax= 6.69D-06

 Cycle  19  Pass 1  IDiag  1:
 RMSU=  2.73D-09    CP:  9.64D-01  1.50D+00  6.89D-01  6.32D-01  8.95D-01
                    CP:  9.23D-01  1.15D+00  1.32D+00  1.74D+00  2.21D+00
                    CP:  2.03D+00  2.04D+00  1.48D+00  1.46D+00  1.76D+00
                    CP:  2.00D+00  1.94D+00  1.40D+00
 E= -4069.81236564752     Delta-E=        0.000000000015 Rises=F Damp=F
 DIIS: error= 3.73D-08 at cycle  19 NSaved=  19.
 NSaved=19 IEnMin=18 EnMin= -4069.81236564753     IErMin=19 ErrMin= 3.73D-08
 ErrMax= 3.73D-08  0.00D+00 EMaxC= 1.00D-01 BMatC= 1.40D-12 BMatP= 6.63D-12
 IDIUse=1 WtCom= 1.00D+00 WtEn= 0.00D+00
 Coeff-Com:  0.289D-05-0.583D-05-0.994D-05-0.127D-04 0.961D-05 0.116D-03
 Coeff-Com:  0.479D-03 0.792D-03-0.559D-03-0.596D-02-0.492D-02 0.121D-01
 Coeff-Com:  0.203D-01 0.114D-01-0.687D-01-0.177D+00-0.437D-01 0.493D+00
 Coeff-Com:  0.762D+00
 Coeff:      0.289D-05-0.583D-05-0.994D-05-0.127D-04 0.961D-05 0.116D-03
 Coeff:      0.479D-03 0.792D-03-0.559D-03-0.596D-02-0.492D-02 0.121D-01
 Coeff:      0.203D-01 0.114D-01-0.687D-01-0.177D+00-0.437D-01 0.493D+00
 Coeff:      0.762D+00
 Gap=     0.121 Goal=   None    Shift=    0.000
 RMSDP=4.60D-09 MaxDP=3.03D-07 DE= 1.46D-11 OVMax= 2.83D-06

 SCF Done:  E(RCAM-B3LYP) =  -4069.81236565     A.U. after   19 cycles
            NFock= 19  Conv=0.46D-08     -V/T= 2.0102
 KE= 4.028801895274D+03 PE=-3.935529718906D+04 EE= 1.631954943096D+04
 Leave Link  502 at Sat Sep 11 02:09:59 2021, MaxMem= 23488102400 cpu:           13668.2 elap:             593.6
 (Enter /sw/apps/gaussian-16.0/g16/l801.exe)
 DoSCS=F DFT=T ScalE2(SS,OS)=  1.000000  1.000000
 ExpMin= 3.36D-02 ExpMax= 4.95D+03 ExpMxC= 7.45D+02 IAcc=3 IRadAn=         5 AccDes= 0.00D+00
 HarFok:  IExCor=  205 AccDes= 0.00D+00 IRadAn=         5 IDoV=-2 UseB2=F ITyADJ=14
 ICtDFT= 12500011 ScaDFX=  1.000000  1.000000  1.000000  1.000000
 GSVD:  LWork=       -9588 too small for GESVD, short by       45590 words or       45590 for optimal perf.
 Largest valence mixing into a core orbital is  2.03D-04
 Largest core mixing into a valence orbital is  5.23D-05
 Range of M.O.s used for correlation:    95  1572
 NBasis=  1572 NAE=   312 NBE=   312 NFC=    94 NFV=     0
 NROrb=   1478 NOA=   218 NOB=   218 NVA=  1260 NVB=  1260
 Leave Link  801 at Sat Sep 11 02:10:00 2021, MaxMem= 23488102400 cpu:               9.6 elap:               0.4
 (Enter /sw/apps/gaussian-16.0/g16/l914.exe)
 RHF ground state
 Two-electron integrals replicated using symmetry.
 MDV= 23488102400 DFT=T DoStab=F Mixed=T DoRPA=T DoScal=F NonHer=T
 Making orbital integer symmetry assigments:
 Orbital symmetries:
       Occupied  (A) (A) (A) (A) (A) (A) (A) (A) (A) (A) (A) (A)
                 (A) (A) (A) (A) (A) (A) (A) (A) (A) (A) (A) (A)
                 (A) (A) (A) (A) (A) (A) (A) (A) (A) (A) (A) (A)
                 (A) (A) (A) (A) (A) (A) (A) (A) (A) (A) (A) (A)
                 (A) (A) (A) (A) (A) (A) (A) (A) (A) (A) (A) (A)
                 (A) (A) (A) (A) (A) (A) (A) (A) (A) (A) (A) (A)
                 (A) (A) (A) (A) (A) (A) (A) (A) (A) (A) (A) (A)
                 (A) (A) (A) (A) (A) (A) (A) (A) (A) (A) (A) (A)
                 (A) (A) (A) (A) (A) (A) (A) (A) (A) (A) (A) (A)
                 (A) (A) (A) (A) (A) (A) (A) (A) (A) (A) (A) (A)
                 (A) (A) (A) (A) (A) (A) (A) (A) (A) (A) (A) (A)
                 (A) (A) (A) (A) (A) (A) (A) (A) (A) (A) (A) (A)
                 (A) (A) (A) (A) (A) (A) (A) (A) (A) (A) (A) (A)
                 (A) (A) (A) (A) (A) (A) (A) (A) (A) (A) (A) (A)
                 (A) (A) (A) (A) (A) (A) (A) (A) (A) (A) (A) (A)
                 (A) (A) (A) (A) (A) (A) (A) (A) (A) (A) (A) (A)
                 (A) (A) (A) (A) (A) (A) (A) (A) (A) (A) (A) (A)
                 (A) (A) (A) (A) (A) (A) (A) (A) (A) (A) (A) (A)
                 (A) (A) (A) (A) (A) (A) (A) (A) (A) (A) (A) (A)
                 (A) (A) (A) (A) (A) (A) (A) (A) (A) (A) (A) (A)
                 (A) (A) (A) (A) (A) (A) (A) (A) (A) (A) (A) (A)
                 (A) (A) (A) (A) (A) (A) (A) (A) (A) (A) (A) (A)
                 (A) (A) (A) (A) (A) (A) (A) (A) (A) (A) (A) (A)
                 (A) (A) (A) (A) (A) (A) (A) (A) (A) (A) (A) (A)
                 (A) (A) (A) (A) (A) (A) (A) (A) (A) (A) (A) (A)
                 (A) (A) (A) (A) (A) (A) (A) (A) (A) (A) (A) (A)
       Virtual   (A) (A) (A) (A) (A) (A) (A) (A) (A) (A) (A) (A)
                 (A) (A) (A) (A) (A) (A) (A) (A) (A) (A) (A) (A)
                 (A) (A) (A) (A) (A) (A) (A) (A) (A) (A) (A) (A)
                 (A) (A) (A) (A) (A) (A) (A) (A) (A) (A) (A) (A)
                 (A) (A) (A) (A) (A) (A) (A) (A) (A) (A) (A) (A)
                 (A) (A) (A) (A) (A) (A) (A) (A) (A) (A) (A) (A)
                 (A) (A) (A) (A) (A) (A) (A) (A) (A) (A) (A) (A)
                 (A) (A) (A) (A) (A) (A) (A) (A) (A) (A) (A) (A)
                 (A) (A) (A) (A) (A) (A) (A) (A) (A) (A) (A) (A)
                 (A) (A) (A) (A) (A) (A) (A) (A) (A) (A) (A) (A)
                 (A) (A) (A) (A) (A) (A) (A) (A) (A) (A) (A) (A)
                 (A) (A) (A) (A) (A) (A) (A) (A) (A) (A) (A) (A)
                 (A) (A) (A) (A) (A) (A) (A) (A) (A) (A) (A) (A)
                 (A) (A) (A) (A) (A) (A) (A) (A) (A) (A) (A) (A)
                 (A) (A) (A) (A) (A) (A) (A) (A) (A) (A) (A) (A)
                 (A) (A) (A) (A) (A) (A) (A) (A) (A) (A) (A) (A)
                 (A) (A) (A) (A) (A) (A) (A) (A) (A) (A) (A) (A)
                 (A) (A) (A) (A) (A) (A) (A) (A) (A) (A) (A) (A)
                 (A) (A) (A) (A) (A) (A) (A) (A) (A) (A) (A) (A)
                 (A) (A) (A) (A) (A) (A) (A) (A) (A) (A) (A) (A)
                 (A) (A) (A) (A) (A) (A) (A) (A) (A) (A) (A) (A)
                 (A) (A) (A) (A) (A) (A) (A) (A) (A) (A) (A) (A)
                 (A) (A) (A) (A) (A) (A) (A) (A) (A) (A) (A) (A)
                 (A) (A) (A) (A) (A) (A) (A) (A) (A) (A) (A) (A)
                 (A) (A) (A) (A) (A) (A) (A) (A) (A) (A) (A) (A)
                 (A) (A) (A) (A) (A) (A) (A) (A) (A) (A) (A) (A)
                 (A) (A) (A) (A) (A) (A) (A) (A) (A) (A) (A) (A)
                 (A) (A) (A) (A) (A) (A) (A) (A) (A) (A) (A) (A)
                 (A) (A) (A) (A) (A) (A) (A) (A) (A) (A) (A) (A)
                 (A) (A) (A) (A) (A) (A) (A) (A) (A) (A) (A) (A)
                 (A) (A) (A) (A) (A) (A) (A) (A) (A) (A) (A) (A)
                 (A) (A) (A) (A) (A) (A) (A) (A) (A) (A) (A) (A)
                 (A) (A) (A) (A) (A) (A) (A) (A) (A) (A) (A) (A)
                 (A) (A) (A) (A) (A) (A) (A) (A) (A) (A) (A) (A)
                 (A) (A) (A) (A) (A) (A) (A) (A) (A) (A) (A) (A)
                 (A) (A) (A) (A) (A) (A) (A) (A) (A) (A) (A) (A)
                 (A) (A) (A) (A) (A) (A) (A) (A) (A) (A) (A) (A)
                 (A) (A) (A) (A) (A) (A) (A) (A) (A) (A) (A) (A)
                 (A) (A) (A) (A) (A) (A) (A) (A) (A) (A) (A) (A)
                 (A) (A) (A) (A) (A) (A) (A) (A) (A) (A) (A) (A)
                 (A) (A) (A) (A) (A) (A) (A) (A) (A) (A) (A) (A)
                 (A) (A) (A) (A) (A) (A) (A) (A) (A) (A) (A) (A)
                 (A) (A) (A) (A) (A) (A) (A) (A) (A) (A) (A) (A)
                 (A) (A) (A) (A) (A) (A) (A) (A) (A) (A) (A) (A)
                 (A) (A) (A) (A) (A) (A) (A) (A) (A) (A) (A) (A)
                 (A) (A) (A) (A) (A) (A) (A) (A) (A) (A) (A) (A)
                 (A) (A) (A) (A) (A) (A) (A) (A) (A) (A) (A) (A)
                 (A) (A) (A) (A) (A) (A) (A) (A) (A) (A) (A) (A)
                 (A) (A) (A) (A) (A) (A) (A) (A) (A) (A) (A) (A)
                 (A) (A) (A) (A) (A) (A) (A) (A) (A) (A) (A) (A)
                 (A) (A) (A) (A) (A) (A) (A) (A) (A) (A) (A) (A)
                 (A) (A) (A) (A) (A) (A) (A) (A) (A) (A) (A) (A)
                 (A) (A) (A) (A) (A) (A) (A) (A) (A) (A) (A) (A)
                 (A) (A) (A) (A) (A) (A) (A) (A) (A) (A) (A) (A)
                 (A) (A) (A) (A) (A) (A) (A) (A) (A) (A) (A) (A)
                 (A) (A) (A) (A) (A) (A) (A) (A) (A) (A) (A) (A)
                 (A) (A) (A) (A) (A) (A) (A) (A) (A) (A) (A) (A)
                 (A) (A) (A) (A) (A) (A) (A) (A) (A) (A) (A) (A)
                 (A) (A) (A) (A) (A) (A) (A) (A) (A) (A) (A) (A)
                 (A) (A) (A) (A) (A) (A) (A) (A) (A) (A) (A) (A)
                 (A) (A) (A) (A) (A) (A) (A) (A) (A) (A) (A) (A)
                 (A) (A) (A) (A) (A) (A) (A) (A) (A) (A) (A) (A)
                 (A) (A) (A) (A) (A) (A) (A) (A) (A) (A) (A) (A)
                 (A) (A) (A) (A) (A) (A) (A) (A) (A) (A) (A) (A)
                 (A) (A) (A) (A) (A) (A) (A) (A) (A) (A) (A) (A)
                 (A) (A) (A) (A) (A) (A) (A) (A) (A) (A) (A) (A)
                 (A) (A) (A) (A) (A) (A) (A) (A) (A) (A) (A) (A)
                 (A) (A) (A) (A) (A) (A) (A) (A) (A) (A) (A) (A)
                 (A) (A) (A) (A) (A) (A) (A) (A) (A) (A) (A) (A)
                 (A) (A) (A) (A) (A) (A) (A) (A) (A) (A) (A) (A)
                 (A) (A) (A) (A) (A) (A) (A) (A) (A) (A) (A) (A)
                 (A) (A) (A) (A) (A) (A) (A) (A) (A) (A) (A) (A)
                 (A) (A) (A) (A) (A) (A) (A) (A) (A) (A) (A) (A)
                 (A) (A) (A) (A) (A) (A) (A) (A) (A) (A) (A) (A)
                 (A) (A) (A) (A) (A) (A) (A) (A) (A) (A) (A) (A)
                 (A) (A) (A) (A) (A) (A) (A) (A) (A) (A) (A) (A)
                 (A) (A) (A) (A) (A) (A) (A) (A) (A) (A) (A) (A)
                 (A) (A) (A) (A) (A) (A) (A) (A) (A) (A) (A) (A)
                 (A) (A) (A) (A) (A) (A) (A) (A) (A) (A) (A) (A)
                 (A) (A) (A) (A) (A) (A) (A) (A) (A) (A) (A) (A)
                 (A) (A) (A) (A) (A) (A) (A) (A) (A) (A) (A) (A)
                 (A) (A) (A) (A) (A) (A) (A) (A) (A) (A) (A) (A)
                 (A) (A) (A) (A) (A) (A) (A) (A) (A) (A) (A) (A)
                 (A) (A) (A) (A) (A) (A) (A) (A) (A) (A) (A) (A)
                 (A) (A) (A) (A) (A) (A) (A) (A) (A) (A) (A) (A)
                 (A) (A) (A) (A) (A) (A) (A) (A) (A) (A) (A) (A)
                 (A) (A) (A) (A) (A) (A) (A) (A) (A) (A) (A) (A)
                 (A) (A) (A) (A) (A) (A) (A) (A) (A) (A) (A) (A)
                 (A) (A) (A) (A) (A) (A) (A) (A) (A) (A) (A) (A)
                 (A) (A) (A) (A) (A) (A) (A) (A) (A) (A) (A) (A)
                 (A) (A) (A) (A) (A) (A) (A) (A) (A) (A) (A) (A)
                 (A) (A) (A) (A) (A) (A) (A) (A) (A) (A) (A) (A)
                 (A) (A) (A) (A) (A) (A) (A) (A) (A) (A) (A) (A)
                 (A) (A) (A) (A) (A) (A) (A) (A) (A) (A) (A) (A)
                 (A) (A) (A) (A) (A) (A) (A) (A) (A) (A) (A) (A)
                 (A) (A) (A) (A) (A) (A) (A) (A) (A) (A) (A) (A)
                 (A) (A) (A) (A) (A) (A) (A) (A) (A) (A) (A) (A)
                 (A) (A) (A) (A) (A) (A) (A) (A) (A) (A) (A) (A)
                 (A) (A) (A) (A) (A) (A) (A) (A) (A) (A) (A) (A)
                 (A) (A) (A) (A) (A) (A) (A) (A) (A) (A) (A) (A)
                 (A) (A) (A) (A) (A) (A) (A) (A) (A) (A) (A) (A)
                 (A) (A) (A) (A) (A) (A) (A) (A) (A) (A) (A) (A)
                 (A) (A) (A) (A) (A) (A) (A) (A) (A) (A) (A) (A)
                 (A) (A) (A) (A) (A) (A) (A) (A) (A) (A) (A) (A)
                 (A) (A) (A) (A) (A) (A) (A) (A) (A) (A) (A) (A)
    20 initial guesses have been made.
 Convergence on wavefunction:    0.001000000000000
 Davidson Disk Diagonalization:  ConvIn= 1.00D-03 SkipCon=T Conv= 1.00D-03.
 Max sub-space:  2000 roots to seek:    20 dimension of matrix:       549360
 Iteration     1 Dimension    20 NMult     0 NNew     20
 CISAX will form    20 AO SS matrices at one time.
 NMat=    20 NSing=    20 JSym2X= 0.
 FoFJK:  IHMeth= 1 ICntrl=       0 DoSepK=T KAlg= 0 I1Cent=           0 FoldK=F
 IRaf=         1 NMat=      40 IRICut=       1 DoRegI=T DoRafI=F ISym2E= 0 IDoP0=3 IntGTp=3.
 FoFCou: FMM=T IPFlag=           0 FMFlag=      100000 FMFlg1=        2001
         NFxFlg=           0 DoJE=F BraDBF=F KetDBF=F FulRan=T
         wScrn=  0.000000 ICntrl=       500 IOpCl=  0 I1Cent=           0 NGrid=           0
         NMat0=   20 NMatS0=     20 NMatT0=    0 NMatD0=   20 NMtDS0=    0 NMtDT0=    0
 Symmetry not used in FoFCou.
 FMM levels:  10  Number of levels for PrismC:   9
 New state      2 was old state      7
 New state      3 was old state      6
 New state      5 was old state      2
 Excitation Energies [eV] at current iteration:
 Root      1 :     2.476580568667067
 Root      2 :     2.611086472147270
 Root      3 :     2.620210383436568
 Root      4 :     2.629270687319964
 Root      5 :     2.681006674342568
 Root      6 :     2.690070366669743
 Root      7 :     3.262861247239542
 Root      8 :     3.427702567955333
 Root      9 :     3.631309788116942
 Root     10 :     3.673552310152074
 Root     11 :     3.736456569426359
 Root     12 :     3.758838139801842
 Root     13 :     4.298173468099594
 Root     14 :     4.308319006285464
 Root     15 :     4.382343129354664
 Root     16 :     4.561159859863650
 Root     17 :     4.707038007631634
 Root     18 :     4.742233452932579
 Root     19 :     4.858525730171830
 Root     20 :     4.858860536516932
 Iteration     2 Dimension    30 NMult    20 NNew     10
 CISAX will form    10 AO SS matrices at one time.
 NMat=    10 NSing=    10 JSym2X= 0.
 New state      1 was old state      5
 Root      1 not converged, maximum delta is    0.189281652131671
 New state      2 was old state      3
 Root      2 not converged, maximum delta is    0.393736148171829
 New state      3 was old state      2
 Root      3 not converged, maximum delta is    0.444097069370440
 New state      4 was old state      1
 Root      4 not converged, maximum delta is    0.002462848759959
 New state      5 was old state      4
 Root      5 not converged, maximum delta is    0.004463054751855
 Excitation Energies [eV] at current iteration:
 Root      1 :     1.799032139944294   Change is   -0.881974534398275
 Root      2 :     2.178441953342908   Change is   -0.441768430093660
 Root      3 :     2.238985292848202   Change is   -0.372101179299067
 Root      4 :     2.476141715889237   Change is   -0.000438852777830
 Root      5 :     2.628725659169155   Change is   -0.000545028150809
 Iteration     3 Dimension    40 NMult    30 NNew     10
 CISAX will form    10 AO SS matrices at one time.
 NMat=    10 NSing=    10 JSym2X= 0.
 Root      1 not converged, maximum delta is    0.071852045046409
 Root      2 not converged, maximum delta is    0.383290759451954
 Root      3 not converged, maximum delta is    0.096974077744564
 No map to state      4
 New state      5 was old state      4
 Root      5 has converged.
 Excitation Energies [eV] at current iteration:
 Root      1 :     1.692173964084153   Change is   -0.106858175860140
 Root      2 :     1.802385314699006   Change is   -0.376056638643902
 Root      3 :     2.198088819391229   Change is   -0.040896473456973
 Root      4 :     2.223989297862294
 Root      5 :     2.476139037679873   Change is   -0.000002678209365
 Iteration     4 Dimension    48 NMult    40 NNew      8
 CISAX will form     8 AO SS matrices at one time.
 NMat=     8 NSing=     8 JSym2X= 0.
 Root      1 not converged, maximum delta is    0.015816607346088
 Root      2 not converged, maximum delta is    0.056095606737833
 Root      3 not converged, maximum delta is    0.373702732312144
 Root      4 not converged, maximum delta is    0.363849813474622
 Root      5 has converged.
 Excitation Energies [eV] at current iteration:
 Root      1 :     1.675405702689254   Change is   -0.016768261394900
 Root      2 :     1.693859485099843   Change is   -0.108525829599162
 Root      3 :     2.187721241087901   Change is   -0.010367578303327
 Root      4 :     2.194823196828039   Change is   -0.029166101034255
 Root      5 :     2.476139036824478   Change is   -0.000000000855395
 Iteration     5 Dimension    56 NMult    48 NNew      8
 CISAX will form     8 AO SS matrices at one time.
 NMat=     8 NSing=     8 JSym2X= 0.
 Root      1 not converged, maximum delta is    0.036777389095335
 Root      2 not converged, maximum delta is    0.036737821862039
 Root      3 not converged, maximum delta is    0.110736353495508
 Root      4 not converged, maximum delta is    0.110624890637460
 Root      5 has converged.
 Excitation Energies [eV] at current iteration:
 Root      1 :     1.673578983401815   Change is   -0.001826719287439
 Root      2 :     1.679692731901362   Change is   -0.014166753198481
 Root      3 :     2.185212267184591   Change is   -0.002508973903311
 Root      4 :     2.192996378879017   Change is   -0.001826817949022
 Root      5 :     2.476139036065529   Change is   -0.000000000758949
 Iteration     6 Dimension    64 NMult    56 NNew      8
 CISAX will form     8 AO SS matrices at one time.
 NMat=     8 NSing=     8 JSym2X= 0.
 Root      1 not converged, maximum delta is    0.014221195492954
 Root      2 not converged, maximum delta is    0.014278691497403
 Root      3 not converged, maximum delta is    0.009520780696478
 Root      4 not converged, maximum delta is    0.009887025127582
 Root      5 has converged.
 Excitation Energies [eV] at current iteration:
 Root      1 :     1.673312887549184   Change is   -0.000266095852630
 Root      2 :     1.678169982566584   Change is   -0.001522749334778
 Root      3 :     2.184924961973019   Change is   -0.000287305211572
 Root      4 :     2.192783092893262   Change is   -0.000213285985755
 Root      5 :     2.476139036007595   Change is   -0.000000000057934
 Iteration     7 Dimension    72 NMult    64 NNew      8
 CISAX will form     8 AO SS matrices at one time.
 NMat=     8 NSing=     8 JSym2X= 0.
 Root      1 not converged, maximum delta is    0.003987256000326
 Root      2 not converged, maximum delta is    0.004002120570206
 Root      3 not converged, maximum delta is    0.001910044440948
 Root      4 not converged, maximum delta is    0.001957474550534
 Root      5 has converged.
 Excitation Energies [eV] at current iteration:
[...]
 Alpha virt. eigenvalues --    1.83678   1.83708   1.83978   1.84020   1.84387
 Alpha virt. eigenvalues --    1.84414   1.84624   1.84750   1.84954   1.85054
 Alpha virt. eigenvalues --    1.85217   1.85232   1.85438   1.85441   1.85622
 Alpha virt. eigenvalues --    1.85811   1.86040   1.86318   1.86500   1.86503
 Alpha virt. eigenvalues --    1.86730   1.86771   1.86911   1.86968   1.87144
 Alpha virt. eigenvalues --    1.87389   1.87600   1.87625   1.87817   1.87887
 Alpha virt. eigenvalues --    1.87988   1.88116   1.88312   1.88482   1.88734
 Alpha virt. eigenvalues --    1.88757   1.89089   1.89094   1.89246   1.89576
 Alpha virt. eigenvalues --    1.89691   1.89791   1.89982   1.90056   1.90331
 Alpha virt. eigenvalues --    1.90679   1.91032   1.91279   1.91394   1.91502
 Alpha virt. eigenvalues --    1.91814   1.92091   1.92355   1.92548   1.92817
 Alpha virt. eigenvalues --    1.92928   1.93282   1.93300   1.93596   1.94244
 Alpha virt. eigenvalues --    1.94403   1.94643   1.94911   1.95452   1.95652
 Alpha virt. eigenvalues --    1.95663   1.95914   1.95963   1.96119   1.96180
 Alpha virt. eigenvalues --    1.96314   1.96539   1.96605   1.96847   1.97089
 Alpha virt. eigenvalues --    1.97396   1.97646   1.97789   1.97931   1.98098
 Alpha virt. eigenvalues --    1.98327   1.98487   1.98551   1.99062   1.99207
 Alpha virt. eigenvalues --    1.99740   2.00114   2.00609   2.00851   2.00914
 Alpha virt. eigenvalues --    2.01227   2.01381   2.01592   2.01622   2.01635
 Alpha virt. eigenvalues --    2.01749   2.01981   2.02720   2.02836   2.03194
 Alpha virt. eigenvalues --    2.03230   2.03318   2.03392   2.03518   2.03652
 Alpha virt. eigenvalues --    2.03966   2.04151   2.04906   2.05089   2.05459
 Alpha virt. eigenvalues --    2.05734   2.06013   2.06393   2.06790   2.07113
 Alpha virt. eigenvalues --    2.07167   2.07468   2.08541   2.08622   2.08913
 Alpha virt. eigenvalues --    2.09150   2.09507   2.09746   2.10758   2.11108
 Alpha virt. eigenvalues --    2.11114   2.11458   2.11530   2.11665   2.11689
 Alpha virt. eigenvalues --    2.12029   2.12393   2.12622   2.12748   2.12776
 Alpha virt. eigenvalues --    2.12931   2.13020   2.13681   2.13856   2.14104
 Alpha virt. eigenvalues --    2.14322   2.15273   2.15517   2.15848   2.16238
 Alpha virt. eigenvalues --    2.16475   2.16674   2.16731   2.17292   2.17354
 Alpha virt. eigenvalues --    2.17649   2.17720   2.18020   2.18074   2.18138
 Alpha virt. eigenvalues --    2.18225   2.18777   2.18809   2.19401   2.19563
 Alpha virt. eigenvalues --    2.19966   2.19984   2.20130   2.20366   2.20598
 Alpha virt. eigenvalues --    2.21131   2.21238   2.21601   2.21648   2.21889
 Alpha virt. eigenvalues --    2.21985   2.22626   2.22858   2.23260   2.23438
 Alpha virt. eigenvalues --    2.24340   2.24507   2.24943   2.25085   2.26206
 Alpha virt. eigenvalues --    2.26581   2.26723   2.27012   2.27128   2.27338
 Alpha virt. eigenvalues --    2.28071   2.28512   2.29213   2.29589   2.29656
 Alpha virt. eigenvalues --    2.30032   2.30375   2.30779   2.30977   2.30992
 Alpha virt. eigenvalues --    2.31081   2.31316   2.32074   2.32334   2.33053
 Alpha virt. eigenvalues --    2.33392   2.33395   2.33584   2.34098   2.34254
 Alpha virt. eigenvalues --    2.35257   2.35417   2.35724   2.36091   2.36322
 Alpha virt. eigenvalues --    2.36458   2.36523   2.36554   2.37620   2.37766
 Alpha virt. eigenvalues --    2.38210   2.38472   2.38773   2.38975   2.39541
 Alpha virt. eigenvalues --    2.39795   2.40137   2.40344   2.40405   2.41000
 Alpha virt. eigenvalues --    2.41187   2.41378   2.41648   2.41786   2.41931
 Alpha virt. eigenvalues --    2.42251   2.42889   2.42917   2.43170   2.43363
 Alpha virt. eigenvalues --    2.44080   2.44098   2.44661   2.44835   2.44927
 Alpha virt. eigenvalues --    2.45130   2.45481   2.45690   2.46237   2.46400
 Alpha virt. eigenvalues --    2.46406   2.46602   2.46712   2.46925   2.47184
 Alpha virt. eigenvalues --    2.47462   2.47651   2.47981   2.49269   2.49464
 Alpha virt. eigenvalues --    2.49972   2.50040   2.50519   2.50563   2.51031
 Alpha virt. eigenvalues --    2.51404   2.51723   2.51805   2.52350   2.52543
 Alpha virt. eigenvalues --    2.52738   2.53337   2.53863   2.54079   2.54097
 Alpha virt. eigenvalues --    2.54343   2.54722   2.54893   2.55455   2.55761
 Alpha virt. eigenvalues --    2.57803   2.58190   2.58594   2.59026   2.60104
 Alpha virt. eigenvalues --    2.60441   2.60537   2.61095   2.61655   2.61933
 Alpha virt. eigenvalues --    2.62461   2.62553   2.62882   2.63238   2.63867
 Alpha virt. eigenvalues --    2.64222   2.64390   2.64474   2.65019   2.65209
 Alpha virt. eigenvalues --    2.65706   2.66021   2.66737   2.66856   2.66909
 Alpha virt. eigenvalues --    2.67217   2.67853   2.68105   2.68781   2.68916
 Alpha virt. eigenvalues --    2.68933   2.69158   2.69350   2.69726   2.69938
 Alpha virt. eigenvalues --    2.70241   2.70907   2.71208   2.71952   2.71991
 Alpha virt. eigenvalues --    2.72549   2.72587   2.72689   2.72877   2.73246
 Alpha virt. eigenvalues --    2.73353   2.73361   2.73560   2.74431   2.74602
 Alpha virt. eigenvalues --    2.74891   2.75165   2.76537   2.76613   2.77137
 Alpha virt. eigenvalues --    2.77163   2.77387   2.77711   2.78129   2.78369
 Alpha virt. eigenvalues --    2.78633   2.78773   2.79061   2.79275   2.80258
 Alpha virt. eigenvalues --    2.80344   2.80476   2.80796   2.81013   2.81238
 Alpha virt. eigenvalues --    2.81849   2.82095   2.82281   2.82430   2.83639
 Alpha virt. eigenvalues --    2.83705   2.83926   2.83994   2.84476   2.84601
 Alpha virt. eigenvalues --    2.84833   2.84943   2.85609   2.85763   2.86728
 Alpha virt. eigenvalues --    2.86906   2.87267   2.87471   2.88089   2.88310
 Alpha virt. eigenvalues --    2.88440   2.88711   2.88863   2.88948   2.90431
 Alpha virt. eigenvalues --    2.90782   2.91148   2.91157   2.93076   2.93448
 Alpha virt. eigenvalues --    2.93878   2.94135   2.94514   2.94627   2.95285
 Alpha virt. eigenvalues --    2.95646   2.95939   2.96052   2.96389   2.96452
 Alpha virt. eigenvalues --    2.96963   2.97046   2.97707   2.98099   2.98136
 Alpha virt. eigenvalues --    2.98297   2.98498   2.98513   2.98698   2.98819
 Alpha virt. eigenvalues --    2.98895   2.99013   2.99556   2.99857   2.99908
 Alpha virt. eigenvalues --    3.00115   3.00145   3.00374   3.00422   3.01143
 Alpha virt. eigenvalues --    3.01954   3.01956   3.02003   3.02263   3.02590
 Alpha virt. eigenvalues --    3.02892   3.02901   3.03273   3.03456   3.03891
 Alpha virt. eigenvalues --    3.04133   3.04196   3.04365   3.04509   3.04525
 Alpha virt. eigenvalues --    3.04807   3.05266   3.05423   3.06055   3.06230
 Alpha virt. eigenvalues --    3.06725   3.07079   3.08000   3.08106   3.09321
 Alpha virt. eigenvalues --    3.09393   3.09625   3.10373   3.10607   3.10894
 Alpha virt. eigenvalues --    3.11303   3.11501   3.11846   3.11929   3.12177
 Alpha virt. eigenvalues --    3.12458   3.13197   3.13600   3.13742   3.13784
 Alpha virt. eigenvalues --    3.13937   3.14562   3.15915   3.16017   3.17180
 Alpha virt. eigenvalues --    3.17602   3.17921   3.18028   3.19068   3.19099
 Alpha virt. eigenvalues --    3.22137   3.22678   3.23865   3.24524   3.24553
 Alpha virt. eigenvalues --    3.25269   3.26428   3.26747   3.27488   3.27543
 Alpha virt. eigenvalues --    3.28921   3.29299   3.31443   3.31468   3.33279
 Alpha virt. eigenvalues --    3.33350   3.40335   3.40434   3.42755   3.42882
 Alpha virt. eigenvalues --    3.48562   3.48777   3.49955   3.50382   3.50940
 Alpha virt. eigenvalues --    3.51406   3.56483   3.57083   3.59044   3.59413
 Alpha virt. eigenvalues --    3.62594   3.62749   3.66127   3.66151   3.67005
 Alpha virt. eigenvalues --    3.67618   3.73101   3.74092   3.75903   3.76750
          Condensed to atoms (all electrons):
 Mulliken charges:
               1
     1  Mg   0.838668
     2  C   -0.003486
     3  C   -0.093973
     4  C   -0.045688
     5  C   -0.063742
     6  N   -0.256869
     7  C   -0.052540
     8  C   -0.014070
     9  C   -0.087075
    10  C    0.046410
    11  C    0.104734
    12  C    0.053431
    13  C   -0.071568
    14  H    0.034827
    15  N   -0.433188
    16  C    0.168617
    17  C   -0.176897
    18  C   -0.003821
    19  C    0.148839
    20  C    0.110070
    21  C    0.012256
    22  O   -0.249309
    23  C    0.062439
    24  N   -0.341156
    25  C    0.041464
    26  C   -0.028286
    27  C   -0.024046
    28  C    0.074843
    29  C    0.076077
    30  C    0.035010
    31  C   -0.004712
    32  N   -0.310268
    33  C    0.080065
    34  C   -0.170205
    35  C    0.007940
    36  C    0.082574
    37  C    0.127484
    38  C    0.045312
    39  O   -0.189332
    40  C   -0.005099
    41  C    0.212997
    42  O   -0.258914
    43  O   -0.304221
    44  C    0.158198
    45  H   -0.017340
    46  H   -0.016474
    47  H   -0.041192
    48  H    0.000827
    49  H   -0.003785
    50  H    0.025462
    51  H    0.016661
    52  H    0.016912
    53  H    0.011782
    54  H    0.043010
    55  H    0.018110
    56  H    0.018661
    57  H    0.006118
    58  H    0.027079
    59  H    0.039948
    60  H    0.037625
    61  H    0.035682
    62  H    0.031409
    63  H    0.016952
    64  H    0.009625
    65  H    0.023604
    66  H    0.012419
    67  H    0.005007
    68  H    0.007136
    69  H    0.004895
    70  H    0.009056
    71  H    0.019516
    72  H    0.028029
    73  H    0.046578
    74  H    0.009535
    75  H    0.046236
    76  H    0.035428
    77  H    0.043078
    78  H    0.046801
    79  H    0.051816
    80  Mg   0.837821
    81  C   -0.016829
    82  C   -0.086937
    83  C   -0.046061
    84  C   -0.064988
    85  N   -0.254770
    86  C   -0.049314
    87  C   -0.015231
    88  C   -0.090371
    89  C    0.045375
    90  C    0.113760
    91  C    0.062437
    92  C   -0.077737
    93  H    0.033773
    94  N   -0.423593
    95  C    0.162694
    96  C   -0.173776
    97  C   -0.008485
    98  C    0.152589
    99  C    0.099235
   100  C    0.015223
   101  O   -0.254132
   102  C    0.061339
   103  N   -0.350034
   104  C    0.037600
   105  C   -0.019693
   106  C   -0.034889
   107  C    0.088821
   108  C    0.073973
   109  C    0.034916
   110  C   -0.007581
   111  N   -0.324014
   112  C    0.078272
   113  C   -0.163406
   114  C    0.002069
   115  C    0.096149
   116  C    0.131577
   117  C    0.041953
   118  O   -0.188680
   119  C    0.001132
   120  C    0.211266
   121  O   -0.251232
   122  O   -0.305507
   123  C    0.152162
   124  H   -0.016644
   125  H   -0.016560
   126  H   -0.040818
   127  H   -0.000439
   128  H   -0.004075
   129  H    0.021386
   130  H    0.016574
   131  H    0.021578
   132  H    0.013613
   133  H    0.036966
   134  H    0.021598
   135  H    0.019951
   136  H    0.010191
   137  H    0.026143
   138  H    0.039157
   139  H    0.038117
   140  H    0.035573
   141  H    0.033988
   142  H    0.013951
   143  H    0.012421
   144  H    0.023943
   145  H    0.011293
   146  H    0.005144
   147  H    0.005529
   148  H    0.003656
   149  H    0.010571
   150  H    0.017632
   151  H    0.030486
   152  H    0.045532
   153  H    0.008296
   154  H    0.046768
   155  H    0.034991
   156  H    0.043430
   157  H    0.049930
   158  H    0.053253
 Sum of Mulliken charges =  -0.00000
 Mulliken charges with hydrogens summed into heavy atoms:
               1
     1  Mg   0.838668
     2  C   -0.003486
     3  C   -0.111313
     4  C   -0.062162
     5  C   -0.104934
     6  N   -0.256869
     7  C   -0.052540
     8  C   -0.013242
     9  C   -0.090860
    10  C    0.046410
    11  C    0.163769
    12  C    0.108223
    13  C    0.000030
    15  N   -0.433188
    16  C    0.168617
    17  C   -0.176897
    18  C   -0.003821
    19  C    0.148839
    20  C    0.183216
    21  C    0.012256
    22  O   -0.249309
    23  C    0.167155
    24  N   -0.341156
    25  C    0.041464
    26  C   -0.011334
    27  C   -0.014420
    28  C    0.074843
    29  C    0.117107
    30  C    0.047042
    31  C    0.051890
    32  N   -0.310268
    33  C    0.080065
    34  C   -0.170205
    35  C    0.007940
    36  C    0.082574
    37  C    0.229832
    38  C    0.045312
    39  O   -0.189332
    40  C    0.030329
    41  C    0.212997
    42  O   -0.258914
    43  O   -0.304221
    44  C    0.299893
    80  Mg   0.837821
    81  C   -0.016829
    82  C   -0.103581
    83  C   -0.062621
    84  C   -0.105806
    85  N   -0.254770
    86  C   -0.049314
    87  C   -0.015670
    88  C   -0.094446
    89  C    0.045375
    90  C    0.173298
    91  C    0.113017
    92  C   -0.002414
    94  N   -0.423593
    95  C    0.162694
    96  C   -0.173776
    97  C   -0.008485
    98  C    0.152589
    99  C    0.174726
   100  C    0.015223
   101  O   -0.254132
   102  C    0.169016
   103  N   -0.350034
   104  C    0.037600
   105  C   -0.005741
   106  C   -0.022467
   107  C    0.088821
   108  C    0.114354
   109  C    0.044102
   110  C    0.051107
   111  N   -0.324014
   112  C    0.078272
   113  C   -0.163406
   114  C    0.002069
   115  C    0.096149
   116  C    0.232174
   117  C    0.041953
   118  O   -0.188680
   119  C    0.036123
   120  C    0.211266
   121  O   -0.251232
   122  O   -0.305507
   123  C    0.298775
 Electronic spatial extent (au):  <R**2>=         115319.6546
 Charge=             -0.0000 electrons
 Dipole moment (field-independent basis, Debye):
    X=             -5.0775    Y=             -0.0928    Z=              4.7855  Tot=              6.9779
 Quadrupole moment (field-independent basis, Debye-Ang):
   XX=           -519.3669   YY=           -499.1285   ZZ=           -500.5926
   XY=            -28.7076   XZ=             -3.6411   YZ=             -0.8562
 Traceless Quadrupole moment (field-independent basis, Debye-Ang):
   XX=            -13.0042   YY=              7.2342   ZZ=              5.7700
   XY=            -28.7076   XZ=             -3.6411   YZ=             -0.8562
 Octapole moment (field-independent basis, Debye-Ang**2):
  XXX=           -492.0356  YYY=             29.2786  ZZZ=            -91.2628  XYY=            349.4440
  XXY=              9.6200  XXZ=            289.7017  XZZ=           -340.0989  YZZ=           -227.2381
  YYZ=            183.6116  XYZ=             -2.8392
 Hexadecapole moment (field-independent basis, Debye-Ang**3):
 XXXX=         -92285.6742 YYYY=         -33940.2518 ZZZZ=         -33561.9963 XXXY=           -824.2083
 XXXZ=           -297.4758 YYYX=           -260.9416 YYYZ=            282.1370 ZZZX=            -10.4856
 ZZZY=           -612.7241 XXYY=         -19984.6590 XXZZ=         -20419.9876 YYZZ=         -10155.9797
 XXYZ=            453.6177 YYXZ=          -1282.0310 ZZXY=          -1005.3117
 N-N= 1.493713349718D+04 E-N=-3.935529717991D+04  KE= 4.028801895274D+03
 Leave Link  601 at Sat Sep 11 02:36:44 2021, MaxMem= 23488102400 cpu:              18.0 elap:               0.9
 (Enter /sw/apps/gaussian-16.0/g16/l9999.exe)
 1\1\GINC-BP1-COMPUTE00082\SP\RCAM-B3LYP TD-FC\def2SVP\C68H72Mg2N8O8\OF
 15641\11-Sep-2021\0\\#p cam-b3lyp/Def2SVP td=(nstates=5)\\TDDFT excite
 d states in gaussian\\0,1\Mg,0,0.,0.,0.\C,0,-0.217,-2.218,2.801\C,0,-1
 .255,2.442,2.026\C,0,-0.245,1.85,-2.564\C,0,0.146,-2.824,-2.037\N,0,-0
 .617,-0.009,2.126\C,0,-0.594,-0.908,3.105\C,0,-0.936,-0.309,4.502\C,0,
 -1.773,0.964,4.032\C,0,-1.155,1.168,2.66\C,0,-3.263,0.685,3.863\C,0,0.
 345,0.11,5.299\C,0,0.124,0.397,6.787\H,0,1.168,0.033,7.733\N,0,-0.185,
 1.961,-0.152\C,0,-0.703,2.8,0.777\C,0,-0.62,4.156,0.193\C,0,-0.187,4.0
 15,-1.225\C,0,-0.214,2.583,-1.38\C,0,-0.887,5.406,0.974\C,0,0.181,5.01
 3,-2.277\O,0,0.303,4.69,-3.508\C,0,0.31,6.414,-1.837\N,0,-0.265,-0.413
 ,-2.029\C,0,-0.279,0.569,-2.937\C,0,-0.196,0.024,-4.332\C,0,0.124,-1.5
 33,-4.18\C,0,0.086,-1.632,-2.635\C,0,-1.451,0.205,-5.197\C,0,1.373,-2.
 07,-4.923\C,0,2.626,-1.49,-4.306\N,0,0.15,-2.144,0.303\C,0,0.173,-3.13
 6,-0.688\C,0,0.173,-4.438,0.004\C,0,0.133,-4.111,1.358\C,0,0.083,-2.69
 5,1.502\C,0,0.149,-5.715,-0.623\C,0,0.096,-4.629,2.716\O,0,0.208,-5.74
 7,3.221\C,0,-0.255,-3.428,3.701\C,0,0.717,-3.482,4.848\O,0,1.931,-3.25
 5,4.669\O,0,0.038,-3.556,6.003\C,0,0.943,-3.583,7.183\H,0,-1.859,3.22,
 2.497\H,0,-0.218,2.453,-3.474\H,0,0.276,-3.747,-2.605\H,0,-1.554,-0.94
 9,5.132\H,0,-1.585,1.831,4.665\H,0,-3.484,-0.377,3.969\H,0,-3.511,1.02
 7,2.858\H,0,-3.852,1.301,4.543\H,0,0.669,1.096,4.966\H,0,1.13,-0.639,5
 .189\H,0,-0.844,0.026,7.125\H,0,0.062,1.477,6.921\H,0,-1.344,5.186,1.9
 38\H,0,-1.651,5.963,0.432\H,0,0.007,6.02,1.084\H,0,-0.635,6.744,-1.405
 \H,0,0.665,6.97,-2.704\H,0,1.048,6.466,-1.036\H,0,0.608,0.501,-4.891\H
 ,0,-0.692,-2.156,-4.547\H,0,-1.267,0.74,-6.129\H,0,-2.204,0.714,-4.596
 \H,0,-1.967,-0.72,-5.453\H,0,1.356,-1.759,-5.967\H,0,1.452,-3.157,-4.9
 02\H,0,2.714,-0.522,-4.798\H,0,3.487,-2.121,-4.529\H,0,2.495,-1.303,-3
 .24\H,0,0.867,-6.333,-0.084\H,0,0.404,-5.642,-1.68\H,0,-0.891,-5.999,-
 0.463\H,0,-1.283,-3.581,4.028\H,0,0.698,-4.478,7.755\H,0,0.833,-2.619,
 7.68\H,0,2.,-3.754,6.976\Mg,0,10.51832,0.94043,0.8032\C,0,10.73261,-1.
 84893,-1.4446\C,0,9.65006,-1.282,3.24072\C,0,9.88358,3.41055,2.69081\C
 ,0,10.27646,3.00062,-1.99731\N,0,10.25895,-1.25601,0.77871\C,0,10.4274
 8,-2.21659,-0.11752\C,0,10.3386,-3.65565,0.4576\C,0,9.4467,-3.34125,1.
 7555\C,0,9.83019,-1.87807,1.967\C,0,7.95206,-3.40964,1.4896\C,0,11.744
 65,-4.22957,0.85213\C,0,11.77029,-5.73428,1.12949\H,0,12.95694,-6.4929
 9,0.7439\N,0,10.34345,1.03626,2.77774\C,0,10.00492,0.03285,3.61431\C,0
 ,9.99528,0.61967,4.96328\C,0,10.19459,2.08905,4.83705\C,0,10.12598,2.2
 4167,3.39757\C,0,9.88882,-0.20904,6.21041\C,0,10.39873,3.17854,5.84577
 \O,0,10.31244,4.41681,5.52625\C,0,10.6101,2.7527,7.23698\N,0,9.92342,2
 .89455,0.41606\C,0,9.768,3.78072,1.41529\C,0,9.60747,5.18365,0.88015\C
 ,0,9.93069,5.08678,-0.6831\C,0,10.14445,3.56191,-0.80329\C,0,8.23027,5
 .81702,1.07652\C,0,11.03222,6.03327,-1.23397\C,0,12.37939,5.63919,-0.6
 7251\N,0,10.68827,0.68439,-1.3354\C,0,10.52586,1.67494,-2.32864\C,0,10
 .62163,0.99811,-3.63828\C,0,10.81164,-0.3535,-3.31341\C,0,10.81259,-0.
 51102,-1.90108\C,0,10.48558,1.62338,-4.90975\C,0,11.00098,-1.68434,-3.
 84417\O,0,11.171,-2.1553,-4.96801\C,0,10.83177,-2.72986,-2.65899\C,0,1
 1.97869,-3.70056,-2.72863\O,0,13.14442,-3.31706,-2.52712\O,0,11.49218,
 -4.95267,-2.80542\C,0,12.59182,-5.95217,-2.86549\H,0,9.15117,-1.8608,4
 .01853\H,0,9.76843,4.31246,3.29643\H,0,10.30924,3.58741,-2.91779\H,0,9
 .82948,-4.36883,-0.17954\H,0,9.75873,-3.94378,2.60459\H,0,7.73523,-3.5
 4287,0.44013\H,0,7.54706,-2.47056,1.84336\H,0,7.49439,-4.18722,2.10785
 \H,0,12.02029,-3.85082,1.84476\H,0,12.4778,-3.98681,0.10769\H,0,10.861
 66,-6.23465,0.77315\H,0,11.75427,-5.88807,2.21121\H,0,9.58784,-1.2394,
 5.98422\H,0,9.05441,0.19595,6.79317\H,0,10.79509,-0.17301,6.81871\H,0,
 9.7568,2.1659,7.56864\H,0,10.82568,3.66719,7.79297\H,0,11.48105,2.0887
 1,7.27113\H,0,10.31642,5.85814,1.34444\H,0,9.051,5.33013,-1.2969\H,0,8
 .26522,6.7752,1.62856\H,0,7.59732,5.10534,1.58977\H,0,7.67272,6.00328,
 0.16021\H,0,10.8479,7.05957,-0.90705\H,0,11.08888,6.04564,-2.31731\H,0
 ,12.39322,6.13167,0.30441\H,0,13.18188,6.00457,-1.31011\H,0,12.43193,4
 .55832,-0.49755\H,0,11.2659,1.21898,-5.54067\H,0,10.55866,2.70602,-4.8
 3026\H,0,9.47714,1.29876,-5.17983\H,0,9.86865,-3.22385,-2.79293\H,0,12
 .42855,-6.55312,-3.76542\H,0,12.56732,-6.48199,-1.89469\H,0,13.59606,-
 5.58275,-3.03718\\Version=ES64L-G16RevA.03\State=1-A\HF=-4069.8123656\
 RMSD=4.600e-09\PG=C01 [X(C68H72Mg2N8O8)]\\@


 ONE THORN OF EXPERIENCE IS WORTH A WHOLE WILDERNESS OF
 WARNING....  LOWELL - AMONG MY BOOKS
 Job cpu time:       0 days 14 hours 29 minutes 30.7 seconds.
 Elapsed time:       0 days  0 hours 36 minutes 52.3 seconds.
 File lengths (MBytes):  RWF=  13225 Int=      0 D2E=      0 Chk=    574 Scr=      1
 Normal termination of Gaussian 16 at Sat Sep 11 02:36:45 2021.
