 Entering Gaussian System, Link 0=g16
 Initial command:
 /sw/apps/gaussian-16.0/g16/l1.exe "/tmp/Gau-24152.inp" -scrdir="/tmp/"
 Entering Link 1 = /sw/apps/gaussian-16.0/g16/l1.exe PID=     24153.
  
 Copyright (c) 1988,1990,1992,1993,1995,1998,2003,2009,2016,
            Gaussian, Inc.  All Rights Reserved.
  
 This is part of the Gaussian(R) 16 program.  It is based on
 the Gaussian(R) 09 system (copyright 2009, Gaussian, Inc.),
 the Gaussian(R) 03 system (copyright 2003, Gaussian, Inc.),
 the Gaussian(R) 98 system (copyright 1998, Gaussian, Inc.),
 the Gaussian(R) 94 system (copyright 1995, Gaussian, Inc.),
 the Gaussian 92(TM) system (copyright 1992, Gaussian, Inc.),
 the Gaussian 90(TM) system (copyright 1990, Gaussian, Inc.),
 the Gaussian 88(TM) system (copyright 1988, Gaussian, Inc.),
 the Gaussian 86(TM) system (copyright 1986, Carnegie Mellon
 University), and the Gaussian 82(TM) system (copyright 1983,
 Carnegie Mellon University). Gaussian is a federally registered
 trademark of Gaussian, Inc.
  
 This software contains proprietary and confidential information,
 including trade secrets, belonging to Gaussian, Inc.
  
 This software is provided under written license and may be
 used, copied, transmitted, or stored only in accord with that
 written license.
  
 The following legend is applicable only to US Government
 contracts under FAR:
  
                    RESTRICTED RIGHTS LEGEND
  
 Use, reproduction and disclosure by the US Government is
 subject to restrictions as set forth in subparagraphs (a)
 and (c) of the Commercial Computer Software - Restricted
 Rights clause in FAR 52.227-19.
  
 Gaussian, Inc.
 340 Quinnipiac St., Bldg. 40, Wallingford CT 06492
  
  
 ---------------------------------------------------------------
 Warning -- This program may not be used in any manner that
 competes with the business of Gaussian, Inc. or will provide
 assistance to any competitor of Gaussian, Inc.  The licensee
 of this program is prohibited from giving any competitor of
 Gaussian, Inc. access to this program.  By using this program,
 the user acknowledges that Gaussian, Inc. is engaged in the
 business of creating and licensing software in the field of
 computational chemistry and represents and warrants to the
 licensee that it is not a competitor of Gaussian, Inc. and that
 it will not use this program in any manner prohibited above.
 ---------------------------------------------------------------
  

 Cite this work as:
 Gaussian 16, Revision A.03,
 M. J. Frisch, G. W. Trucks, H. B. Schlegel, G. E. Scuseria, 
 M. A. Robb, J. R. Cheeseman, G. Scalmani, V. Barone, 
 G. A. Petersson, H. Nakatsuji, X. Li, M. Caricato, A. V. Marenich, 
 J. Bloino, B. G. Janesko, R. Gomperts, B. Mennucci, H. P. Hratchian, 
 J. V. Ortiz, A. F. Izmaylov, J. L. Sonnenberg, D. Williams-Young, 
 F. Ding, F. Lipparini, F. Egidi, J. Goings, B. Peng, A. Petrone, 
 T. Henderson, D. Ranasinghe, V. G. Zakrzewski, J. Gao, N. Rega, 
 G. Zheng, W. Liang, M. Hada, M. Ehara, K. Toyota, R. Fukuda, 
 J. Hasegawa, M. Ishida, T. Nakajima, Y. Honda, O. Kitao, H. Nakai, 
 T. Vreven, K. Throssell, J. A. Montgomery, Jr., J. E. Peralta, 
 F. Ogliaro, M. J. Bearpark, J. J. Heyd, E. N. Brothers, K. N. Kudin, 
 V. N. Staroverov, T. A. Keith, R. Kobayashi, J. Normand, 
 K. Raghavachari, A. P. Rendell, J. C. Burant, S. S. Iyengar, 
 J. Tomasi, M. Cossi, J. M. Millam, M. Klene, C. Adamo, R. Cammi, 
 J. W. Ochterski, R. L. Martin, K. Morokuma, O. Farkas, 
 J. B. Foresman, and D. J. Fox, Gaussian, Inc., Wallingford CT, 2016.
 
 ******************************************
 Gaussian 16:  ES64L-G16RevA.03 25-Dec-2016
                 4-Sep-2021 
 ******************************************
 %nproc=24
 Will use up to   24 processors via shared memory.
 %mem=175gb
 -----------------------------------
 #p cam-b3lyp/Def2SVP td=(nstates=5)
 -----------------------------------
 1/38=1,172=1/1;
 2/12=2,17=6,18=5,40=1/2;
 3/5=43,7=101,11=9,25=1,30=1,74=-40/1,2,3,8;
 4//1;
 5/5=2,38=5/2;
 8/6=1,10=1,108=5/1;
 9/41=5,42=1,70=2/14;
 6/7=2,8=2,9=2,10=2/1;
 99/5=1,9=1/99;
 Leave Link    1 at Sat Sep  4 06:09:39 2021, MaxMem= 23488102400 cpu:               0.5 elap:               0.0
 (Enter /sw/apps/gaussian-16.0/g16/l101.exe)
 --------------------------------
 TDDFT excited states in gaussian
 --------------------------------
 Symbolic Z-matrix:
 Charge =  0 Multiplicity = 1
 Mg                    0.        0.        0. 
 C                    -0.217    -2.218     2.801 
 C                    -1.255     2.442     2.026 
 C                    -0.245     1.85     -2.564 
 C                     0.146    -2.824    -2.037 
 N                    -0.617    -0.009     2.126 
 C                    -0.594    -0.908     3.105 
 C                    -0.936    -0.309     4.502 
 C                    -1.773     0.964     4.032 
 C                    -1.155     1.168     2.66 
 C                    -3.263     0.685     3.863 
 C                     0.345     0.11      5.299 
 C                     0.124     0.397     6.787 
 H                     1.168     0.033     7.733 
 N                    -0.185     1.961    -0.152 
 C                    -0.703     2.8       0.777 
 C                    -0.62      4.156     0.193 
 C                    -0.187     4.015    -1.225 
 C                    -0.214     2.583    -1.38 
 C                    -0.887     5.406     0.974 
 C                     0.181     5.013    -2.277 
 O                     0.303     4.69     -3.508 
 C                     0.31      6.414    -1.837 
 N                    -0.265    -0.413    -2.029 
 C                    -0.279     0.569    -2.937 
 C                    -0.196     0.024    -4.332 
 C                     0.124    -1.533    -4.18 
 C                     0.086    -1.632    -2.635 
 C                    -1.451     0.205    -5.197 
 C                     1.373    -2.07     -4.923 
 C                     2.626    -1.49     -4.306 
 N                     0.15     -2.144     0.303 
 C                     0.173    -3.136    -0.688 
 C                     0.173    -4.438     0.004 
 C                     0.133    -4.111     1.358 
 C                     0.083    -2.695     1.502 
 C                     0.149    -5.715    -0.623 
 C                     0.096    -4.629     2.716 
 O                     0.208    -5.747     3.221 
 C                    -0.255    -3.428     3.701 
 C                     0.717    -3.482     4.848 
 O                     1.931    -3.255     4.669 
 O                     0.038    -3.556     6.003 
 C                     0.943    -3.583     7.183 
 H                    -1.859     3.22      2.497 
 H                    -0.218     2.453    -3.474 
 H                     0.276    -3.747    -2.605 
 H                    -1.554    -0.949     5.132 
 H                    -1.585     1.831     4.665 
 H                    -3.484    -0.377     3.969 
 H                    -3.511     1.027     2.858 
 H                    -3.852     1.301     4.543 
 H                     0.669     1.096     4.966 
 H                     1.13     -0.639     5.189 
 H                    -0.844     0.026     7.125 
 H                     0.062     1.477     6.921 
 H                    -1.344     5.186     1.938 
 H                    -1.651     5.963     0.432 
 H                     0.007     6.02      1.084 
 H                    -0.635     6.744    -1.405 
 H                     0.665     6.97     -2.704 
 H                     1.048     6.466    -1.036 
 H                     0.608     0.501    -4.891 
 H                    -0.692    -2.156    -4.547 
 H                    -1.267     0.74     -6.129 
 H                    -2.204     0.714    -4.596 
 H                    -1.967    -0.72     -5.453 
 H                     1.356    -1.759    -5.967 
 H                     1.452    -3.157    -4.902 
 H                     2.714    -0.522    -4.798 
 H                     3.487    -2.121    -4.529 
 H                     2.495    -1.303    -3.24 
 H                     0.867    -6.333    -0.084 
 H                     0.404    -5.642    -1.68 
 H                    -0.891    -5.999    -0.463 
 H                    -1.283    -3.581     4.028 
 H                     0.698    -4.478     7.755 
 H                     0.833    -2.619     7.68 
 H                     2.       -3.754     6.976 
 Mg                    10.51826   0.94071   0.8036 
 C                     10.73111  -1.98568  -1.2628 
 C                     9.62554  -1.11972   3.37114 
 C                     9.88538   3.52774   2.52818 
 C                     10.3021   2.82145  -2.12245 
 N                     10.24813  -1.2517    0.91598 
 C                     10.41684  -2.2676    0.08301 
 C                     10.31764  -3.66714   0.74708 
 C                     9.42017  -3.26749   2.01739 
 C                     9.80974  -1.79568   2.13857 
 C                     7.92669  -3.34561   1.74763 
 C                     11.71863  -4.22153   1.18515 
 C                     11.73526  -5.70589   1.55687 
 H                     12.92025  -6.49284   1.22674 
 N                     10.33297   1.16155   2.76713 
 C                     9.98486   0.21441   3.66325 
 C                     9.97069   0.88509   4.97251 
 C                     10.17798   2.34266   4.75515 
 C                     10.11807   2.4046    3.30855 
 C                     9.85323   0.1371    6.26871 
 C                     10.38195   3.49259   5.69444 
 O                     10.30357   4.70865   5.29707 
 C                     10.58352   3.15428   7.11091 
 N                     9.93522   2.86927   0.29071 
 C                     9.77869   3.81734   1.23124 
 C                     9.62808   5.1845    0.60788 
 C                     9.95944   4.98785  -0.94426 
 C                     10.16629   3.45746  -0.96694 
 C                     8.25298   5.83532   0.75596 
 C                     11.06868   5.89266  -1.54722 
 C                     12.41075   5.52854  -0.95422 
 N                     10.69874   0.54966  -1.31361 
 C                     10.54674   1.47641  -2.36818 
 C                     10.64638   0.71797  -3.63202 
 C                     10.82787  -0.61134  -3.22157 
 C                     10.82025  -0.67958  -1.80214 
 C                     10.52045   1.26252  -4.94112 
 C                     11.01354  -1.97384  -3.66636 
 O                     11.18742  -2.51544  -4.75731 
 C                     10.8326  -2.94182  -2.4187 
 C                     11.97505  -3.92025  -2.42039 
 O                     13.14154  -3.5302   -2.23665 
 O                     11.48276  -5.17246  -2.42101 
 C                     12.57775  -6.17881  -2.41161 
 H                     9.1195   -1.64606   4.18095 
 H                     9.77137   4.46653   3.07512 
 H                     10.34287   3.34893  -3.07785 
 H                     9.80852  -4.4167    0.15316 
 H                     9.72451  -3.81675   2.90455 
 H                     7.715    -3.54369   0.7074 
 H                     7.52442  -2.38425   2.03919 
 H                     7.46176  -4.08058   2.41095 
 H                     11.99067  -3.78228   2.15355 
 H                     12.45707  -4.02953   0.43119 
 H                     10.82614  -6.22351   1.22746 
 H                     11.71251  -5.79114   2.64601 
 H                     9.5484   -0.90407   6.10611 
 H                     9.01763   0.58184   6.81994 
 H                     10.7563   0.2072    6.8788 
 H                     9.7255    2.59347   7.47389 
 H                     10.80057   4.10097   7.60945 
 H                     11.45097   2.48975   7.19187 
 H                     10.33779   5.88362   1.03289 
 H                     9.08436   5.19609  -1.57728 
 H                     8.28964   6.8262    1.24674 
 H                     7.61368   5.16031   1.30931 
 H                     7.70142   5.96604  -0.1735 
 H                     10.88765   6.93836  -1.28665 
 H                     11.13137   5.83649  -2.62884 
 H                     12.42163   6.08151  -0.01019 
 H                     13.21855   5.84932  -1.60889 
 H                     12.45696   4.46061  -0.71124 
 H                     11.30222   0.81558  -5.54076 
 H                     10.59846   2.34767  -4.92953 
 H                     9.51192   0.92618  -5.19608 
 H                     9.86779  -3.43883  -2.52687 
 H                     12.41646  -6.83451  -3.27285 
 H                     12.54526  -6.6463   -1.40954 
 H                     13.58474  -5.82558  -2.60038 
 
 ITRead=  0  0  0  0  0  0  0  0  0  0  0  0  0  0  0  0  0  0  0  0
 ITRead=  0  0  0  0  0  0  0  0  0  0  0  0  0  0  0  0  0  0  0  0
 ITRead=  0  0  0  0  0  0  0  0  0  0  0  0  0  0  0  0  0  0  0  0
 ITRead=  0  0  0  0  0  0  0  0  0  0  0  0  0  0  0  0  0  0  0  0
 ITRead=  0  0  0  0  0  0  0  0  0  0  0  0  0  0  0  0  0  0  0  0
 ITRead=  0  0  0  0  0  0  0  0  0  0  0  0  0  0  0  0  0  0  0  0
 ITRead=  0  0  0  0  0  0  0  0  0  0  0  0  0  0  0  0  0  0  0  0
 ITRead=  0  0  0  0  0  0  0  0  0  0  0  0  0  0  0  0  0  0
 MicOpt= -1 -1 -1 -1 -1 -1 -1 -1 -1 -1 -1 -1 -1 -1 -1 -1 -1 -1 -1 -1
 MicOpt= -1 -1 -1 -1 -1 -1 -1 -1 -1 -1 -1 -1 -1 -1 -1 -1 -1 -1 -1 -1
 MicOpt= -1 -1 -1 -1 -1 -1 -1 -1 -1 -1 -1 -1 -1 -1 -1 -1 -1 -1 -1 -1
 MicOpt= -1 -1 -1 -1 -1 -1 -1 -1 -1 -1 -1 -1 -1 -1 -1 -1 -1 -1 -1 -1
 MicOpt= -1 -1 -1 -1 -1 -1 -1 -1 -1 -1 -1 -1 -1 -1 -1 -1 -1 -1 -1 -1
 MicOpt= -1 -1 -1 -1 -1 -1 -1 -1 -1 -1 -1 -1 -1 -1 -1 -1 -1 -1 -1 -1
 MicOpt= -1 -1 -1 -1 -1 -1 -1 -1 -1 -1 -1 -1 -1 -1 -1 -1 -1 -1 -1 -1
 MicOpt= -1 -1 -1 -1 -1 -1 -1 -1 -1 -1 -1 -1 -1 -1 -1 -1 -1 -1
 NAtoms=    158 NQM=      158 NQMF=       0 NMMI=      0 NMMIF=      0
                NMic=       0 NMicF=      0.
                    Isotopes and Nuclear Properties:
 (Nuclear quadrupole moments (NQMom) in fm**2, nuclear magnetic moments (NMagM)
  in nuclear magnetons)

  Atom         1           2           3           4           5           6           7           8           9          10
 IAtWgt=          24          12          12          12          12          14          12          12          12          12
 AtmWgt=  23.9850450  12.0000000  12.0000000  12.0000000  12.0000000  14.0030740  12.0000000  12.0000000  12.0000000  12.0000000
 NucSpn=           0           0           0           0           0           2           0           0           0           0
 AtZEff=  -0.0000000  -0.0000000  -0.0000000  -0.0000000  -0.0000000  -0.0000000  -0.0000000  -0.0000000  -0.0000000  -0.0000000
 NQMom=    0.0000000   0.0000000   0.0000000   0.0000000   0.0000000   2.0440000   0.0000000   0.0000000   0.0000000   0.0000000
 NMagM=    0.0000000   0.0000000   0.0000000   0.0000000   0.0000000   0.4037610   0.0000000   0.0000000   0.0000000   0.0000000
 AtZNuc=  12.0000000   6.0000000   6.0000000   6.0000000   6.0000000   7.0000000   6.0000000   6.0000000   6.0000000   6.0000000

  Atom        11          12          13          14          15          16          17          18          19          20
 IAtWgt=          12          12          12           1          14          12          12          12          12          12
 AtmWgt=  12.0000000  12.0000000  12.0000000   1.0078250  14.0030740  12.0000000  12.0000000  12.0000000  12.0000000  12.0000000
 NucSpn=           0           0           0           1           2           0           0           0           0           0
 AtZEff=  -0.0000000  -0.0000000  -0.0000000  -0.0000000  -0.0000000  -0.0000000  -0.0000000  -0.0000000  -0.0000000  -0.0000000
 NQMom=    0.0000000   0.0000000   0.0000000   0.0000000   2.0440000   0.0000000   0.0000000   0.0000000   0.0000000   0.0000000
 NMagM=    0.0000000   0.0000000   0.0000000   2.7928460   0.4037610   0.0000000   0.0000000   0.0000000   0.0000000   0.0000000
 AtZNuc=   6.0000000   6.0000000   6.0000000   1.0000000   7.0000000   6.0000000   6.0000000   6.0000000   6.0000000   6.0000000

  Atom        21          22          23          24          25          26          27          28          29          30
 IAtWgt=          12          16          12          14          12          12          12          12          12          12
 AtmWgt=  12.0000000  15.9949146  12.0000000  14.0030740  12.0000000  12.0000000  12.0000000  12.0000000  12.0000000  12.0000000
 NucSpn=           0           0           0           2           0           0           0           0           0           0
 AtZEff=  -0.0000000  -0.0000000  -0.0000000  -0.0000000  -0.0000000  -0.0000000  -0.0000000  -0.0000000  -0.0000000  -0.0000000
 NQMom=    0.0000000   0.0000000   0.0000000   2.0440000   0.0000000   0.0000000   0.0000000   0.0000000   0.0000000   0.0000000
 NMagM=    0.0000000   0.0000000   0.0000000   0.4037610   0.0000000   0.0000000   0.0000000   0.0000000   0.0000000   0.0000000
 AtZNuc=   6.0000000   8.0000000   6.0000000   7.0000000   6.0000000   6.0000000   6.0000000   6.0000000   6.0000000   6.0000000

  Atom        31          32          33          34          35          36          37          38          39          40
 IAtWgt=          12          14          12          12          12          12          12          12          16          12
 AtmWgt=  12.0000000  14.0030740  12.0000000  12.0000000  12.0000000  12.0000000  12.0000000  12.0000000  15.9949146  12.0000000
 NucSpn=           0           2           0           0           0           0           0           0           0           0
 AtZEff=  -0.0000000  -0.0000000  -0.0000000  -0.0000000  -0.0000000  -0.0000000  -0.0000000  -0.0000000  -0.0000000  -0.0000000
 NQMom=    0.0000000   2.0440000   0.0000000   0.0000000   0.0000000   0.0000000   0.0000000   0.0000000   0.0000000   0.0000000
 NMagM=    0.0000000   0.4037610   0.0000000   0.0000000   0.0000000   0.0000000   0.0000000   0.0000000   0.0000000   0.0000000
 AtZNuc=   6.0000000   7.0000000   6.0000000   6.0000000   6.0000000   6.0000000   6.0000000   6.0000000   8.0000000   6.0000000

  Atom        41          42          43          44          45          46          47          48          49          50
 IAtWgt=          12          16          16          12           1           1           1           1           1           1
 AtmWgt=  12.0000000  15.9949146  15.9949146  12.0000000   1.0078250   1.0078250   1.0078250   1.0078250   1.0078250   1.0078250
 NucSpn=           0           0           0           0           1           1           1           1           1           1
 AtZEff=  -0.0000000  -0.0000000  -0.0000000  -0.0000000  -0.0000000  -0.0000000  -0.0000000  -0.0000000  -0.0000000  -0.0000000
 NQMom=    0.0000000   0.0000000   0.0000000   0.0000000   0.0000000   0.0000000   0.0000000   0.0000000   0.0000000   0.0000000
 NMagM=    0.0000000   0.0000000   0.0000000   0.0000000   2.7928460   2.7928460   2.7928460   2.7928460   2.7928460   2.7928460
 AtZNuc=   6.0000000   8.0000000   8.0000000   6.0000000   1.0000000   1.0000000   1.0000000   1.0000000   1.0000000   1.0000000

  Atom        51          52          53          54          55          56          57          58          59          60
 IAtWgt=           1           1           1           1           1           1           1           1           1           1
 AtmWgt=   1.0078250   1.0078250   1.0078250   1.0078250   1.0078250   1.0078250   1.0078250   1.0078250   1.0078250   1.0078250
 NucSpn=           1           1           1           1           1           1           1           1           1           1
 AtZEff=  -0.0000000  -0.0000000  -0.0000000  -0.0000000  -0.0000000  -0.0000000  -0.0000000  -0.0000000  -0.0000000  -0.0000000
 NQMom=    0.0000000   0.0000000   0.0000000   0.0000000   0.0000000   0.0000000   0.0000000   0.0000000   0.0000000   0.0000000
 NMagM=    2.7928460   2.7928460   2.7928460   2.7928460   2.7928460   2.7928460   2.7928460   2.7928460   2.7928460   2.7928460
 AtZNuc=   1.0000000   1.0000000   1.0000000   1.0000000   1.0000000   1.0000000   1.0000000   1.0000000   1.0000000   1.0000000

  Atom        61          62          63          64          65          66          67          68          69          70
 IAtWgt=           1           1           1           1           1           1           1           1           1           1
 AtmWgt=   1.0078250   1.0078250   1.0078250   1.0078250   1.0078250   1.0078250   1.0078250   1.0078250   1.0078250   1.0078250
 NucSpn=           1           1           1           1           1           1           1           1           1           1
 AtZEff=  -0.0000000  -0.0000000  -0.0000000  -0.0000000  -0.0000000  -0.0000000  -0.0000000  -0.0000000  -0.0000000  -0.0000000
 NQMom=    0.0000000   0.0000000   0.0000000   0.0000000   0.0000000   0.0000000   0.0000000   0.0000000   0.0000000   0.0000000
 NMagM=    2.7928460   2.7928460   2.7928460   2.7928460   2.7928460   2.7928460   2.7928460   2.7928460   2.7928460   2.7928460
 AtZNuc=   1.0000000   1.0000000   1.0000000   1.0000000   1.0000000   1.0000000   1.0000000   1.0000000   1.0000000   1.0000000

  Atom        71          72          73          74          75          76          77          78          79          80
 IAtWgt=           1           1           1           1           1           1           1           1           1          24
 AtmWgt=   1.0078250   1.0078250   1.0078250   1.0078250   1.0078250   1.0078250   1.0078250   1.0078250   1.0078250  23.9850450
 NucSpn=           1           1           1           1           1           1           1           1           1           0
 AtZEff=  -0.0000000  -0.0000000  -0.0000000  -0.0000000  -0.0000000  -0.0000000  -0.0000000  -0.0000000  -0.0000000  -0.0000000
 NQMom=    0.0000000   0.0000000   0.0000000   0.0000000   0.0000000   0.0000000   0.0000000   0.0000000   0.0000000   0.0000000
 NMagM=    2.7928460   2.7928460   2.7928460   2.7928460   2.7928460   2.7928460   2.7928460   2.7928460   2.7928460   0.0000000
 AtZNuc=   1.0000000   1.0000000   1.0000000   1.0000000   1.0000000   1.0000000   1.0000000   1.0000000   1.0000000  12.0000000

  Atom        81          82          83          84          85          86          87          88          89          90
 IAtWgt=          12          12          12          12          14          12          12          12          12          12
 AtmWgt=  12.0000000  12.0000000  12.0000000  12.0000000  14.0030740  12.0000000  12.0000000  12.0000000  12.0000000  12.0000000
 NucSpn=           0           0           0           0           2           0           0           0           0           0
 AtZEff=  -0.0000000  -0.0000000  -0.0000000  -0.0000000  -0.0000000  -0.0000000  -0.0000000  -0.0000000  -0.0000000  -0.0000000
 NQMom=    0.0000000   0.0000000   0.0000000   0.0000000   2.0440000   0.0000000   0.0000000   0.0000000   0.0000000   0.0000000
 NMagM=    0.0000000   0.0000000   0.0000000   0.0000000   0.4037610   0.0000000   0.0000000   0.0000000   0.0000000   0.0000000
 AtZNuc=   6.0000000   6.0000000   6.0000000   6.0000000   7.0000000   6.0000000   6.0000000   6.0000000   6.0000000   6.0000000

  Atom        91          92          93          94          95          96          97          98          99         100
 IAtWgt=          12          12           1          14          12          12          12          12          12          12
 AtmWgt=  12.0000000  12.0000000   1.0078250  14.0030740  12.0000000  12.0000000  12.0000000  12.0000000  12.0000000  12.0000000
 NucSpn=           0           0           1           2           0           0           0           0           0           0
 AtZEff=  -0.0000000  -0.0000000  -0.0000000  -0.0000000  -0.0000000  -0.0000000  -0.0000000  -0.0000000  -0.0000000  -0.0000000
 NQMom=    0.0000000   0.0000000   0.0000000   2.0440000   0.0000000   0.0000000   0.0000000   0.0000000   0.0000000   0.0000000
 NMagM=    0.0000000   0.0000000   2.7928460   0.4037610   0.0000000   0.0000000   0.0000000   0.0000000   0.0000000   0.0000000
 AtZNuc=   6.0000000   6.0000000   1.0000000   7.0000000   6.0000000   6.0000000   6.0000000   6.0000000   6.0000000   6.0000000

  Atom       101         102         103         104         105         106         107         108         109         110
 IAtWgt=          16          12          14          12          12          12          12          12          12          12
 AtmWgt=  15.9949146  12.0000000  14.0030740  12.0000000  12.0000000  12.0000000  12.0000000  12.0000000  12.0000000  12.0000000
 NucSpn=           0           0           2           0           0           0           0           0           0           0
 AtZEff=  -0.0000000  -0.0000000  -0.0000000  -0.0000000  -0.0000000  -0.0000000  -0.0000000  -0.0000000  -0.0000000  -0.0000000
 NQMom=    0.0000000   0.0000000   2.0440000   0.0000000   0.0000000   0.0000000   0.0000000   0.0000000   0.0000000   0.0000000
 NMagM=    0.0000000   0.0000000   0.4037610   0.0000000   0.0000000   0.0000000   0.0000000   0.0000000   0.0000000   0.0000000
 AtZNuc=   8.0000000   6.0000000   7.0000000   6.0000000   6.0000000   6.0000000   6.0000000   6.0000000   6.0000000   6.0000000

  Atom       111         112         113         114         115         116         117         118         119         120
 IAtWgt=          14          12          12          12          12          12          12          16          12          12
 AtmWgt=  14.0030740  12.0000000  12.0000000  12.0000000  12.0000000  12.0000000  12.0000000  15.9949146  12.0000000  12.0000000
 NucSpn=           2           0           0           0           0           0           0           0           0           0
 AtZEff=  -0.0000000  -0.0000000  -0.0000000  -0.0000000  -0.0000000  -0.0000000  -0.0000000  -0.0000000  -0.0000000  -0.0000000
 NQMom=    2.0440000   0.0000000   0.0000000   0.0000000   0.0000000   0.0000000   0.0000000   0.0000000   0.0000000   0.0000000
 NMagM=    0.4037610   0.0000000   0.0000000   0.0000000   0.0000000   0.0000000   0.0000000   0.0000000   0.0000000   0.0000000
 AtZNuc=   7.0000000   6.0000000   6.0000000   6.0000000   6.0000000   6.0000000   6.0000000   8.0000000   6.0000000   6.0000000

  Atom       121         122         123         124         125         126         127         128         129         130
 IAtWgt=          16          16          12           1           1           1           1           1           1           1
 AtmWgt=  15.9949146  15.9949146  12.0000000   1.0078250   1.0078250   1.0078250   1.0078250   1.0078250   1.0078250   1.0078250
 NucSpn=           0           0           0           1           1           1           1           1           1           1
 AtZEff=  -0.0000000  -0.0000000  -0.0000000  -0.0000000  -0.0000000  -0.0000000  -0.0000000  -0.0000000  -0.0000000  -0.0000000
 NQMom=    0.0000000   0.0000000   0.0000000   0.0000000   0.0000000   0.0000000   0.0000000   0.0000000   0.0000000   0.0000000
 NMagM=    0.0000000   0.0000000   0.0000000   2.7928460   2.7928460   2.7928460   2.7928460   2.7928460   2.7928460   2.7928460
 AtZNuc=   8.0000000   8.0000000   6.0000000   1.0000000   1.0000000   1.0000000   1.0000000   1.0000000   1.0000000   1.0000000

  Atom       131         132         133         134         135         136         137         138         139         140
 IAtWgt=           1           1           1           1           1           1           1           1           1           1
 AtmWgt=   1.0078250   1.0078250   1.0078250   1.0078250   1.0078250   1.0078250   1.0078250   1.0078250   1.0078250   1.0078250
 NucSpn=           1           1           1           1           1           1           1           1           1           1
 AtZEff=  -0.0000000  -0.0000000  -0.0000000  -0.0000000  -0.0000000  -0.0000000  -0.0000000  -0.0000000  -0.0000000  -0.0000000
 NQMom=    0.0000000   0.0000000   0.0000000   0.0000000   0.0000000   0.0000000   0.0000000   0.0000000   0.0000000   0.0000000
 NMagM=    2.7928460   2.7928460   2.7928460   2.7928460   2.7928460   2.7928460   2.7928460   2.7928460   2.7928460   2.7928460
 AtZNuc=   1.0000000   1.0000000   1.0000000   1.0000000   1.0000000   1.0000000   1.0000000   1.0000000   1.0000000   1.0000000

  Atom       141         142         143         144         145         146         147         148         149         150
 IAtWgt=           1           1           1           1           1           1           1           1           1           1
 AtmWgt=   1.0078250   1.0078250   1.0078250   1.0078250   1.0078250   1.0078250   1.0078250   1.0078250   1.0078250   1.0078250
 NucSpn=           1           1           1           1           1           1           1           1           1           1
 AtZEff=  -0.0000000  -0.0000000  -0.0000000  -0.0000000  -0.0000000  -0.0000000  -0.0000000  -0.0000000  -0.0000000  -0.0000000
 NQMom=    0.0000000   0.0000000   0.0000000   0.0000000   0.0000000   0.0000000   0.0000000   0.0000000   0.0000000   0.0000000
 NMagM=    2.7928460   2.7928460   2.7928460   2.7928460   2.7928460   2.7928460   2.7928460   2.7928460   2.7928460   2.7928460
 AtZNuc=   1.0000000   1.0000000   1.0000000   1.0000000   1.0000000   1.0000000   1.0000000   1.0000000   1.0000000   1.0000000

  Atom       151         152         153         154         155         156         157         158
 IAtWgt=           1           1           1           1           1           1           1           1
 AtmWgt=   1.0078250   1.0078250   1.0078250   1.0078250   1.0078250   1.0078250   1.0078250   1.0078250
 NucSpn=           1           1           1           1           1           1           1           1
 AtZEff=  -0.0000000  -0.0000000  -0.0000000  -0.0000000  -0.0000000  -0.0000000  -0.0000000  -0.0000000
 NQMom=    0.0000000   0.0000000   0.0000000   0.0000000   0.0000000   0.0000000   0.0000000   0.0000000
 NMagM=    2.7928460   2.7928460   2.7928460   2.7928460   2.7928460   2.7928460   2.7928460   2.7928460
 AtZNuc=   1.0000000   1.0000000   1.0000000   1.0000000   1.0000000   1.0000000   1.0000000   1.0000000
 Leave Link  101 at Sat Sep  4 06:09:40 2021, MaxMem= 23488102400 cpu:               3.3 elap:               0.2
 (Enter /sw/apps/gaussian-16.0/g16/l202.exe)
 Stoichiometry    C68H72Mg2N8O8
 Framework group  C1[X(C68H72Mg2N8O8)]
 Deg. of freedom   468
 Full point group                 C1      NOp   1
 Largest Abelian subgroup         C1      NOp   1
 Largest concise Abelian subgroup C1      NOp   1
                         Standard orientation:                         
 ---------------------------------------------------------------------
 Center     Atomic      Atomic             Coordinates (Angstroms)
 Number     Number       Type             X           Y           Z
 ---------------------------------------------------------------------
      1         12           0       -5.144628    0.520576   -0.855336
      2          6           0       -5.645541   -2.447463    1.081684
      3          6           0       -6.485813    2.268539    1.750218
      4          6           0       -5.133306    3.089483   -2.714694
      5          6           0       -4.918533   -1.528674   -3.665161
      6          7           0       -5.927812   -0.120529    1.113484
      7          6           0       -6.007921   -1.280435    1.757978
      8          6           0       -6.442110   -1.131264    3.246803
      9          6           0       -7.202713    0.266516    3.148361
     10          6           0       -6.472599    0.856812    1.954875
     11          6           0       -8.682027    0.132097    2.801856
     12          6           0       -5.216726   -1.049526    4.218135
     13          6           0       -5.546429   -1.231005    5.702626
     14          1           0       -4.591298   -1.926185    6.552213
     15          7           0       -5.261082    2.437632   -0.392534
     16          6           0       -5.826804    2.969875    0.717405
     17          6           0       -5.659283    4.434242    0.598051
     18          6           0       -5.119706    4.721306   -0.760089
     19          6           0       -5.175155    3.412965   -1.360547
     20          6           0       -5.951480    5.389535    1.714199
     21          6           0       -4.641388    5.977626   -1.416596
     22          8           0       -4.431683    6.049761   -2.675721
     23          6           0       -4.507720    7.162174   -0.549404
     24          7           0       -5.260017    0.776907   -2.923817
     25          6           0       -5.174190    1.992873   -3.474313
     26          6           0       -4.996704    1.907742   -4.961320
     27          6           0       -4.734217    0.366855   -5.287694
     28          6           0       -4.897072   -0.208052   -3.858978
     29          6           0       -6.173707    2.414989   -5.805935
     30          6           0       -3.446185    0.024944   -6.077940
     31          6           0       -2.229882    0.317108   -5.228032
     32          7           0       -5.080205   -1.615434   -1.235274
     33          6           0       -5.007188   -2.247706   -2.484904
     34          6           0       -5.099004   -3.698929   -2.240791
     35          6           0       -5.236611   -3.809978   -0.858555
     36          6           0       -5.257476   -2.509376   -0.278648
     37          6           0       -5.109724   -4.712861   -3.238919
     38          6           0       -5.395621   -4.723884    0.260976
     39          8           0       -5.355804   -5.947947    0.393552
     40          6           0       -5.789048   -3.874476    1.549211
     41          6           0       -4.912724   -4.334729    2.682142
     42          8           0       -3.682397   -4.126510    2.664581
     43          8           0       -5.682759   -4.730721    3.707216
     44          6           0       -4.875038   -5.172203    4.875477
     45          1           0       -7.102753    2.890567    2.401684
     46          1           0       -5.017264    3.944478   -3.383989
     47          1           0       -4.770377   -2.233292   -4.485537
     48          1           0       -7.125975   -1.903133    3.600317
     49          1           0       -7.040730    0.881188    4.033607
     50          1           0       -8.940885   -0.896830    2.552411
     51          1           0       -8.839936    0.783521    1.942087
     52          1           0       -9.305162    0.534359    3.601022
     53          1           0       -4.839448   -0.027069    4.235527
     54          1           0       -4.447147   -1.766299    3.929501
     55          1           0       -6.548301   -1.638282    5.841504
     56          1           0       -5.588034   -0.245337    6.166229
     57          1           0       -6.489358    4.903248    2.527069
     58          1           0       -6.654049    6.126934    1.326451
     59          1           0       -5.051848    5.891081    2.071194
     60          1           0       -5.474133    7.389189   -0.098785
     61          1           0       -4.069577    7.942117   -1.171152
     62          1           0       -3.834187    6.922772    0.273997
     63          1           0       -4.137756    2.493158   -5.286778
     64          1           0       -5.536060   -0.066937   -5.885646
     65          1           0       -5.901418    3.204213   -6.507140
     66          1           0       -6.957063    2.748978   -5.126160
     67          1           0       -6.693993    1.644484   -6.374303
     68          1           0       -3.371711    0.647163   -6.969144
     69          1           0       -3.400096   -1.016700   -6.395909
     70          1           0       -2.075709    1.384452   -5.382425
     71          1           0       -1.372273   -0.256368   -5.581365
     72          1           0       -2.439383    0.168030   -4.168611
     73          1           0       -4.454493   -5.504790   -2.876303
     74          1           0       -4.769965   -4.326436   -4.199566
     75          1           0       -6.166787   -4.978238   -3.245834
     76          1           0       -6.843627   -4.068434    1.742514
     77          1           0       -5.189902   -6.187166    5.118260
     78          1           0       -4.996482   -4.407541    5.642907
     79          1           0       -3.810282   -5.324565    4.695423
     80         12           0        5.299672    0.615414    0.897404
     81          6           0        5.591788   -1.525229   -1.968147
     82          6           0        4.148380   -2.095106    2.618506
     83          6           0        4.606372    2.562855    3.304528
     84          6           0        5.369237    3.325160   -1.293057
     85          7           0        4.959146   -1.485106    0.293982
     86          6           0        5.164180   -2.197014   -0.803972
     87          6           0        4.972945   -3.726867   -0.623638
     88          6           0        3.989589   -3.698323    0.645637
     89          6           0        4.410133   -2.360479    1.250608
     90          6           0        2.520499   -3.610536    0.266924
     91          6           0        6.318542   -4.462377   -0.291344
     92          6           0        6.263428   -5.987302   -0.406859
     93          1           0        7.447907   -6.692024   -0.889406
     94          7           0        4.966066    0.220676    2.813505
     95          6           0        4.521343   -0.939710    3.339825
     96          6           0        4.422804   -0.712147    4.789886
     97          6           0        4.688077    0.727487    5.057860
     98          6           0        4.744532    1.241566    3.704120
     99          6           0        4.181952   -1.820692    5.773014
    100          6           0        4.849816    1.513928    6.323387
    101          8           0        4.837782    2.795606    6.325863
    102          6           0        4.929028    0.739785    7.570744
    103          7           0        4.814200    2.635189    0.982048
    104          6           0        4.610865    3.248506    2.161214
    105          6           0        4.549032    4.747893    1.992686
    106          6           0        4.996350    5.029386    0.483289
    107          6           0        5.160658    3.574219   -0.007514
    108          6           0        3.185632    5.390283    2.247379
    109          6           0        6.175123    6.018455    0.271415
    110          6           0        7.455179    5.418035    0.806519
    111          7           0        5.635787    0.897007   -1.218205
    112          6           0        5.594119    2.113556   -1.934000
    113          6           0        5.771733    1.784119   -3.363117
    114          6           0        5.882251    0.385585   -3.382139
    115          6           0        5.760474   -0.122470   -2.060569
    116          6           0        5.765280    2.716380   -4.438749
    117          6           0        6.063615   -0.777289   -4.220917
    118          8           0        6.307714   -0.958963   -5.413036
    119          6           0        5.757078   -2.076015   -3.357364
    120          6           0        6.867742   -3.062813   -3.592259
    121          8           0        8.026689   -2.810877   -3.218135
    122          8           0        6.341565   -4.224729   -4.020592
    123          6           0        7.403264   -5.239011   -4.256938
    124          1           0        3.565100   -2.821196    3.185496
    125          1           0        4.476265    3.288202    4.111009
    126          1           0        5.500438    4.122004   -2.028252
    127          1           0        4.491233   -4.225693   -1.456050
    128          1           0        4.207052   -4.512413    1.332171
    129          1           0        2.386169   -3.462229   -0.794248
    130          1           0        2.123989   -2.768979    0.819738
    131          1           0        1.983822   -4.490845    0.632121
    132          1           0        6.525559   -4.362623    0.781939
    133          1           0        7.119458   -4.082922   -0.895630
    134          1           0        5.368824   -6.328061   -0.942124
    135          1           0        6.152207   -6.407453    0.595695
    136          1           0        3.861393   -2.741543    5.270349
    137          1           0        3.318393   -1.527804    6.379938
    138          1           0        5.035582   -1.991818    6.432325
    139          1           0        4.029363    0.138961    7.680630
    140          1           0        5.132861    1.470565    8.355784
    141          1           0        5.768073    0.039152    7.494979
    142          1           0        5.242543    5.241266    2.662549
    143          1           0        4.180355    5.470221   -0.108030
    144          1           0        3.211586    6.174768    3.027098
    145          1           0        2.485606    4.610276    2.515879
    146          1           0        2.713244    5.833465    1.372369
    147          1           0        6.003923    6.938205    0.836135
    148          1           0        6.321519    6.300050   -0.766015
    149          1           0        7.407128    5.646828    1.875365
    150          1           0        8.321027    5.884992    0.341448
    151          1           0        7.451585    4.326787    0.702525
    152          1           0        6.578965    2.439334   -5.095749
    153          1           0        5.873015    3.737929   -4.080138
    154          1           0        4.770896    2.529447   -4.852897
    155          1           0        4.790075   -2.463496   -3.680383
    156          1           0        7.291964   -5.583310   -5.289780
    157          1           0        7.278332   -5.993977   -3.458086
    158          1           0        8.431682   -4.897264   -4.257589
 ---------------------------------------------------------------------
 Rotational constants (GHZ):           0.0204727           0.0108404           0.0107062
 Leave Link  202 at Sat Sep  4 06:09:40 2021, MaxMem= 23488102400 cpu:               0.2 elap:               0.0
 (Enter /sw/apps/gaussian-16.0/g16/l301.exe)
 Standard basis: def2SVP (5D, 7F)
 Ernie: Thresh=  0.10000D-02 Tol=  0.10000D-05 Strict=F.
 There are  1658 symmetry adapted cartesian basis functions of A   symmetry.
 There are  1572 symmetry adapted basis functions of A   symmetry.
  1572 basis functions,  2678 primitive gaussians,  1658 cartesian basis functions
   312 alpha electrons      312 beta electrons
       nuclear repulsion energy     14938.0141619540 Hartrees.
 IExCor=20419 DFT=T Ex+Corr=CAM-B3LYP ExCW=0 ScaHFX=  1.000000
 ScaDFX=  1.000000  1.000000  1.000000  0.810000 ScalE2=  1.000000  1.000000
 IRadAn=      5 IRanWt=     -1 IRanGd=            0 ICorTp=0 IEmpDi=  4
 HFx  wShort=  0.000000 wLong=  0.330000 cFull=  0.190000 cShort=  0.000000 cLong=  0.460000
 DFx  wShort=  0.000000 wLong=  0.330000 cFull=  0.190000 cShort=  0.000000 cLong=  0.460000
 NAtoms=  158 NActive=  158 NUniq=  158 SFac= 1.00D+00 NAtFMM=   60 NAOKFM=T Big=T
 Integral buffers will be    131072 words long.
 Raffenetti 1 integral format.
 Two-electron integral symmetry is turned on.
 Leave Link  301 at Sat Sep  4 06:09:40 2021, MaxMem= 23488102400 cpu:               1.3 elap:               0.1
 (Enter /sw/apps/gaussian-16.0/g16/l302.exe)
 NPDir=0 NMtPBC=     1 NCelOv=     1 NCel=       1 NClECP=     1 NCelD=      1
         NCelK=      1 NCelE2=     1 NClLst=     1 CellRange=     0.0.
 One-electron integrals computed using PRISM.
 One-electron integral symmetry used in STVInt
   1 Symmetry operations used in ECPInt.
 ECPInt:  NShTT=  271216 NPrTT=  987664 LenC2=  137404 LenP2D=  286724.
 LDataN:  DoStor=T MaxTD1= 4 Len=   56
 NBasis=  1572 RedAO= T EigKep=  3.36D-04  NBF=  1572
 NBsUse=  1572 1.00D-06 EigRej= -1.00D+00 NBFU=  1572
 Precomputing XC quadrature grid using
 IXCGrd= 4 IRadAn=           5 IRanWt=          -1 IRanGd=           0 AccXCQ= 0.00D+00.
 Generated NRdTot=       0 NPtTot=           0 NUsed=           0 NTot=          32
 NSgBfM=  1131  1116  1118  1126  1131 MxSgAt=   158 MxSgA2=   157.
 Leave Link  302 at Sat Sep  4 06:09:45 2021, MaxMem= 23488102400 cpu:             121.7 elap:               5.1
 (Enter /sw/apps/gaussian-16.0/g16/l303.exe)
 DipDrv:  MaxL=1.
 Leave Link  303 at Sat Sep  4 06:09:45 2021, MaxMem= 23488102400 cpu:               8.7 elap:               0.4
 (Enter /sw/apps/gaussian-16.0/g16/l308.exe)
 Leave Link  308 at Sat Sep  4 06:09:46 2021, MaxMem= 23488102400 cpu:              12.6 elap:               0.6
 (Enter /sw/apps/gaussian-16.0/g16/l401.exe)
 ExpMin= 3.36D-02 ExpMax= 4.95D+03 ExpMxC= 7.45D+02 IAcc=3 IRadAn=         5 AccDes= 0.00D+00
 Harris functional with IExCor=20419 and IRadAn=       5 diagonalized for initial guess.
 HarFok:  IExCor=20419 AccDes= 0.00D+00 IRadAn=         5 IDoV= 1 UseB2=F ITyADJ=14
 ICtDFT=  3500011 ScaDFX=  1.000000  1.000000  1.000000  1.000000
 FoFCou: FMM=F IPFlag=           0 FMFlag=      100000 FMFlg1=        2001
         NFxFlg=           0 DoJE=T BraDBF=F KetDBF=T FulRan=T
         wScrn=  0.000000 ICntrl=       500 IOpCl=  0 I1Cent=   200000004 NGrid=           0
         NMat0=    1 NMatS0=      1 NMatT0=    0 NMatD0=    1 NMtDS0=    0 NMtDT0=    0
 Petite list used in FoFCou.
 Harris En= -3918.65800729234    
 JPrj=0 DoOrth=F DoCkMO=F.
 Leave Link  401 at Sat Sep  4 06:09:53 2021, MaxMem= 23488102400 cpu:             174.9 elap:               7.3
 (Enter /sw/apps/gaussian-16.0/g16/l502.exe)
 Integral symmetry usage will be decided dynamically.
 Closed shell SCF:
 Using DIIS extrapolation, IDIIS=  1040.
 NGot= 23488102400 LenX= 23482547354 LenY= 23479796732
 Requested convergence on RMS density matrix=1.00D-08 within 128 cycles.
 Requested convergence on MAX density matrix=1.00D-06.
 Requested convergence on             energy=1.00D-06.
 No special actions if energy rises.
 Fock matrices will be formed incrementally for  20 cycles.

 Cycle   1  Pass 1  IDiag  1:
 FoFJK:  IHMeth= 1 ICntrl=       0 DoSepK=T KAlg= 0 I1Cent=           0 FoldK=F
 IRaf=         1 NMat=       1 IRICut=       1 DoRegI=T DoRafI=F ISym2E= 0 IDoP0=0 IntGTp=1.
 FoFCou: FMM=T IPFlag=           0 FMFlag=      100000 FMFlg1=        2001
         NFxFlg=           0 DoJE=T BraDBF=F KetDBF=F FulRan=T
         wScrn=  0.000000 ICntrl=       500 IOpCl=  0 I1Cent=           0 NGrid=           0
         NMat0=    1 NMatS0=      1 NMatT0=    0 NMatD0=    1 NMtDS0=    0 NMtDT0=    0
 Symmetry not used in FoFCou.
 FMM levels:  10  Number of levels for PrismC:   9
 E= -4068.95066978484    
 DIIS: error= 2.04D-02 at cycle   1 NSaved=   1.
 NSaved= 1 IEnMin= 1 EnMin= -4068.95066978484     IErMin= 1 ErrMin= 2.04D-02
 ErrMax= 2.04D-02  0.00D+00 EMaxC= 1.00D-01 BMatC= 1.69D+00 BMatP= 1.69D+00
 IDIUse=3 WtCom= 7.96D-01 WtEn= 2.04D-01
 Coeff-Com:  0.100D+01
 Coeff-En:   0.100D+01
 Coeff:      0.100D+01
 Gap=     0.120 Goal=   None    Shift=    0.000
 GapD=    0.120 DampG=1.000 DampE=0.500 DampFc=0.5000 IDamp=-1.
 Damping current iteration by 5.00D-01
 RMSDP=1.57D-03 MaxDP=1.35D-01              OVMax= 1.99D-01

 Cycle   2  Pass 1  IDiag  1:
 RMSU=  7.69D-04    CP:  9.82D-01
 E= -4069.33957056757     Delta-E=       -0.388900782727 Rises=F Damp=T
 DIIS: error= 1.27D-02 at cycle   2 NSaved=   2.
 NSaved= 2 IEnMin= 2 EnMin= -4069.33957056757     IErMin= 2 ErrMin= 1.27D-02
 ErrMax= 1.27D-02  0.00D+00 EMaxC= 1.00D-01 BMatC= 3.06D-01 BMatP= 1.69D+00
 IDIUse=3 WtCom= 8.73D-01 WtEn= 1.27D-01
 Coeff-Com: -0.214D+00 0.121D+01
 Coeff-En:   0.000D+00 0.100D+01
 Coeff:     -0.187D+00 0.119D+01
 Gap=     0.134 Goal=   None    Shift=    0.000
 RMSDP=7.63D-04 MaxDP=9.45D-02 DE=-3.89D-01 OVMax= 1.86D-01

 Cycle   3  Pass 1  IDiag  1:
 RMSU=  7.30D-04    CP:  9.68D-01  1.24D+00
 E= -4069.63030554046     Delta-E=       -0.290734972885 Rises=F Damp=F
 DIIS: error= 1.55D-02 at cycle   3 NSaved=   3.
 NSaved= 3 IEnMin= 3 EnMin= -4069.63030554046     IErMin= 2 ErrMin= 1.27D-02
 ErrMax= 1.55D-02  0.00D+00 EMaxC= 1.00D-01 BMatC= 2.00D-01 BMatP= 3.06D-01
 IDIUse=3 WtCom= 8.45D-01 WtEn= 1.55D-01
 Coeff-Com: -0.267D+00 0.650D+00 0.617D+00
 Coeff-En:   0.000D+00 0.000D+00 0.100D+01
 Coeff:     -0.226D+00 0.549D+00 0.676D+00
 Gap=     0.121 Goal=   None    Shift=    0.000
 RMSDP=5.04D-04 MaxDP=4.63D-02 DE=-2.91D-01 OVMax= 1.36D-01

 Cycle   4  Pass 1  IDiag  1:
 RMSU=  2.63D-04    CP:  9.65D-01  1.55D+00  5.09D-01
 E= -4069.76713048566     Delta-E=       -0.136824945203 Rises=F Damp=F
 DIIS: error= 7.07D-03 at cycle   4 NSaved=   4.
 NSaved= 4 IEnMin= 4 EnMin= -4069.76713048566     IErMin= 4 ErrMin= 7.07D-03
 ErrMax= 7.07D-03  0.00D+00 EMaxC= 1.00D-01 BMatC= 4.89D-02 BMatP= 2.00D-01
 IDIUse=3 WtCom= 9.29D-01 WtEn= 7.07D-02
 Coeff-Com: -0.109D+00 0.225D+00 0.407D+00 0.476D+00
 Coeff-En:   0.000D+00 0.000D+00 0.216D+00 0.784D+00
 Coeff:     -0.101D+00 0.209D+00 0.394D+00 0.498D+00
 Gap=     0.120 Goal=   None    Shift=    0.000
 RMSDP=1.96D-04 MaxDP=1.97D-02 DE=-1.37D-01 OVMax= 5.72D-02

 Cycle   5  Pass 1  IDiag  1:
 RMSU=  7.45D-05    CP:  9.64D-01  1.49D+00  6.89D-01  5.55D-01
 E= -4069.81120051463     Delta-E=       -0.044070028969 Rises=F Damp=F
 DIIS: error= 7.70D-04 at cycle   5 NSaved=   5.
 NSaved= 5 IEnMin= 5 EnMin= -4069.81120051463     IErMin= 5 ErrMin= 7.70D-04
 ErrMax= 7.70D-04  0.00D+00 EMaxC= 1.00D-01 BMatC= 1.10D-03 BMatP= 4.89D-02
 IDIUse=3 WtCom= 9.92D-01 WtEn= 7.70D-03
 Coeff-Com: -0.355D-01 0.695D-01 0.163D+00 0.247D+00 0.556D+00
 Coeff-En:   0.000D+00 0.000D+00 0.000D+00 0.000D+00 0.100D+01
 Coeff:     -0.352D-01 0.690D-01 0.162D+00 0.245D+00 0.559D+00
 Gap=     0.120 Goal=   None    Shift=    0.000
 RMSDP=4.00D-05 MaxDP=4.22D-03 DE=-4.41D-02 OVMax= 1.46D-02

 Cycle   6  Pass 1  IDiag  1:
 RMSU=  3.01D-05    CP:  9.64D-01  1.49D+00  6.82D-01  6.25D-01  7.63D-01
 E= -4069.81214020128     Delta-E=       -0.000939686652 Rises=F Damp=F
 DIIS: error= 2.18D-04 at cycle   6 NSaved=   6.
 NSaved= 6 IEnMin= 6 EnMin= -4069.81214020128     IErMin= 6 ErrMin= 2.18D-04
 ErrMax= 2.18D-04  0.00D+00 EMaxC= 1.00D-01 BMatC= 1.75D-04 BMatP= 1.10D-03
 IDIUse=3 WtCom= 9.98D-01 WtEn= 2.18D-03
 Coeff-Com:  0.218D-02-0.651D-02 0.110D-01 0.399D-01 0.311D+00 0.642D+00
 Coeff-En:   0.000D+00 0.000D+00 0.000D+00 0.000D+00 0.112D+00 0.888D+00
 Coeff:      0.218D-02-0.649D-02 0.110D-01 0.398D-01 0.311D+00 0.643D+00
 Gap=     0.120 Goal=   None    Shift=    0.000
 RMSDP=1.58D-05 MaxDP=1.22D-03 DE=-9.40D-04 OVMax= 6.53D-03

 Cycle   7  Pass 1  IDiag  1:
 RMSU=  1.06D-05    CP:  9.64D-01  1.50D+00  6.88D-01  6.24D-01  8.65D-01
                    CP:  7.41D-01
 E= -4069.81232734470     Delta-E=       -0.000187143421 Rises=F Damp=F
 DIIS: error= 8.50D-05 at cycle   7 NSaved=   7.
 NSaved= 7 IEnMin= 7 EnMin= -4069.81232734470     IErMin= 7 ErrMin= 8.50D-05
 ErrMax= 8.50D-05  0.00D+00 EMaxC= 1.00D-01 BMatC= 2.08D-05 BMatP= 1.75D-04
 IDIUse=1 WtCom= 1.00D+00 WtEn= 0.00D+00
 Coeff-Com:  0.441D-02-0.966D-02-0.884D-02-0.370D-02 0.105D+00 0.330D+00
 Coeff-Com:  0.583D+00
 Coeff:      0.441D-02-0.966D-02-0.884D-02-0.370D-02 0.105D+00 0.330D+00
 Coeff:      0.583D+00
 Gap=     0.121 Goal=   None    Shift=    0.000
 RMSDP=6.53D-06 MaxDP=1.18D-03 DE=-1.87D-04 OVMax= 3.31D-03

 Cycle   8  Pass 1  IDiag  1:
 RMSU=  4.65D-06    CP:  9.64D-01  1.50D+00  6.88D-01  6.29D-01  8.69D-01
                    CP:  8.69D-01  8.17D-01
 E= -4069.81235308355     Delta-E=       -0.000025738853 Rises=F Damp=F
 DIIS: error= 4.71D-05 at cycle   8 NSaved=   8.
 NSaved= 8 IEnMin= 8 EnMin= -4069.81235308355     IErMin= 8 ErrMin= 4.71D-05
 ErrMax= 4.71D-05  0.00D+00 EMaxC= 1.00D-01 BMatC= 4.76D-06 BMatP= 2.08D-05
 IDIUse=1 WtCom= 1.00D+00 WtEn= 0.00D+00
 Coeff-Com:  0.216D-02-0.429D-02-0.776D-02-0.122D-01-0.120D-01 0.345D-01
 Coeff-Com:  0.343D+00 0.657D+00
 Coeff:      0.216D-02-0.429D-02-0.776D-02-0.122D-01-0.120D-01 0.345D-01
 Coeff:      0.343D+00 0.657D+00
 Gap=     0.121 Goal=   None    Shift=    0.000
 RMSDP=3.26D-06 MaxDP=3.56D-04 DE=-2.57D-05 OVMax= 1.14D-03

 Cycle   9  Pass 1  IDiag  1:
 RMSU=  1.89D-06    CP:  9.64D-01  1.50D+00  6.89D-01  6.30D-01  8.86D-01
                    CP:  8.95D-01  1.02D+00  9.35D-01
 E= -4069.81236065357     Delta-E=       -0.000007570015 Rises=F Damp=F
 DIIS: error= 2.11D-05 at cycle   9 NSaved=   9.
 NSaved= 9 IEnMin= 9 EnMin= -4069.81236065357     IErMin= 9 ErrMin= 2.11D-05
 ErrMax= 2.11D-05  0.00D+00 EMaxC= 1.00D-01 BMatC= 6.83D-07 BMatP= 4.76D-06
 IDIUse=1 WtCom= 1.00D+00 WtEn= 0.00D+00
 Coeff-Com:  0.483D-03-0.809D-03-0.271D-02-0.607D-02-0.219D-01-0.374D-01
 Coeff-Com:  0.105D+00 0.330D+00 0.634D+00
 Coeff:      0.483D-03-0.809D-03-0.271D-02-0.607D-02-0.219D-01-0.374D-01
 Coeff:      0.105D+00 0.330D+00 0.634D+00
 Gap=     0.121 Goal=   None    Shift=    0.000
 RMSDP=1.39D-06 MaxDP=1.53D-04 DE=-7.57D-06 OVMax= 7.61D-04

 Cycle  10  Pass 1  IDiag  1:
 RMSU=  9.27D-07    CP:  9.64D-01  1.50D+00  6.89D-01  6.31D-01  8.89D-01
                    CP:  9.08D-01  1.06D+00  1.10D+00  1.04D+00
 E= -4069.81236218859     Delta-E=       -0.000001535016 Rises=F Damp=F
 DIIS: error= 1.05D-05 at cycle  10 NSaved=  10.
 NSaved=10 IEnMin=10 EnMin= -4069.81236218859     IErMin=10 ErrMin= 1.05D-05
 ErrMax= 1.05D-05  0.00D+00 EMaxC= 1.00D-01 BMatC= 1.64D-07 BMatP= 6.83D-07
 IDIUse=1 WtCom= 1.00D+00 WtEn= 0.00D+00
 Coeff-Com: -0.419D-03 0.878D-03 0.120D-02 0.110D-02-0.395D-02-0.305D-01
 Coeff-Com: -0.456D-01-0.737D-01 0.251D+00 0.900D+00
 Coeff:     -0.419D-03 0.878D-03 0.120D-02 0.110D-02-0.395D-02-0.305D-01
 Coeff:     -0.456D-01-0.737D-01 0.251D+00 0.900D+00
 Gap=     0.121 Goal=   None    Shift=    0.000
 RMSDP=1.19D-06 MaxDP=1.18D-04 DE=-1.54D-06 OVMax= 6.03D-04

 Cycle  11  Pass 1  IDiag  1:
 RMSU=  5.03D-07    CP:  9.64D-01  1.50D+00  6.89D-01  6.31D-01  8.92D-01
                    CP:  9.18D-01  1.11D+00  1.21D+00  1.38D+00  1.36D+00
 E= -4069.81236293635     Delta-E=       -0.000000747765 Rises=F Damp=F
 DIIS: error= 3.99D-06 at cycle  11 NSaved=  11.
 NSaved=11 IEnMin=11 EnMin= -4069.81236293635     IErMin=11 ErrMin= 3.99D-06
 ErrMax= 3.99D-06  0.00D+00 EMaxC= 1.00D-01 BMatC= 5.78D-08 BMatP= 1.64D-07
 IDIUse=1 WtCom= 1.00D+00 WtEn= 0.00D+00
 Coeff-Com: -0.324D-03 0.631D-03 0.131D-02 0.210D-02 0.441D-02-0.833D-02
 Coeff-Com: -0.428D-01-0.130D+00-0.241D-01 0.460D+00 0.737D+00
 Coeff:     -0.324D-03 0.631D-03 0.131D-02 0.210D-02 0.441D-02-0.833D-02
 Coeff:     -0.428D-01-0.130D+00-0.241D-01 0.460D+00 0.737D+00
 Gap=     0.121 Goal=   None    Shift=    0.000
 RMSDP=6.65D-07 MaxDP=5.90D-05 DE=-7.48D-07 OVMax= 3.60D-04

 Cycle  12  Pass 1  IDiag  1:
 RMSU=  2.56D-07    CP:  9.64D-01  1.50D+00  6.89D-01  6.31D-01  8.93D-01
                    CP:  9.21D-01  1.13D+00  1.27D+00  1.54D+00  1.74D+00
                    CP:  1.21D+00
 E= -4069.81236318385     Delta-E=       -0.000000247499 Rises=F Damp=F
 DIIS: error= 2.42D-06 at cycle  12 NSaved=  12.
 NSaved=12 IEnMin=12 EnMin= -4069.81236318385     IErMin=12 ErrMin= 2.42D-06
 ErrMax= 2.42D-06  0.00D+00 EMaxC= 1.00D-01 BMatC= 1.40D-08 BMatP= 5.78D-08
 IDIUse=1 WtCom= 1.00D+00 WtEn= 0.00D+00
 Coeff-Com: -0.504D-06-0.150D-04 0.173D-03 0.497D-03 0.326D-02 0.381D-02
 Coeff-Com:  0.303D-02-0.338D-01-0.657D-01-0.771D-01 0.245D+00 0.920D+00
 Coeff:     -0.504D-06-0.150D-04 0.173D-03 0.497D-03 0.326D-02 0.381D-02
 Coeff:      0.303D-02-0.338D-01-0.657D-01-0.771D-01 0.245D+00 0.920D+00
 Gap=     0.121 Goal=   None    Shift=    0.000
 RMSDP=4.22D-07 MaxDP=2.94D-05 DE=-2.47D-07 OVMax= 2.45D-04

 Cycle  13  Pass 1  IDiag  1:
 RMSU=  1.61D-07    CP:  9.64D-01  1.50D+00  6.89D-01  6.31D-01  8.93D-01
                    CP:  9.21D-01  1.14D+00  1.30D+00  1.65D+00  1.97D+00
                    CP:  1.62D+00  1.28D+00
 E= -4069.81236326977     Delta-E=       -0.000000085922 Rises=F Damp=F
 DIIS: error= 1.27D-06 at cycle  13 NSaved=  13.
 NSaved=13 IEnMin=13 EnMin= -4069.81236326977     IErMin=13 ErrMin= 1.27D-06
 ErrMax= 1.27D-06  0.00D+00 EMaxC= 1.00D-01 BMatC= 7.77D-09 BMatP= 1.40D-08
 IDIUse=1 WtCom= 1.00D+00 WtEn= 0.00D+00
 Coeff-Com:  0.119D-03-0.242D-03-0.366D-03-0.457D-03 0.557D-03 0.489D-02
 Coeff-Com:  0.196D-01 0.224D-01-0.324D-01-0.240D+00-0.158D+00 0.601D+00
 Coeff-Com:  0.782D+00
 Coeff:      0.119D-03-0.242D-03-0.366D-03-0.457D-03 0.557D-03 0.489D-02
 Coeff:      0.196D-01 0.224D-01-0.324D-01-0.240D+00-0.158D+00 0.601D+00
 Coeff:      0.782D+00
 Gap=     0.121 Goal=   None    Shift=    0.000
 RMSDP=3.26D-07 MaxDP=2.09D-05 DE=-8.59D-08 OVMax= 1.88D-04

 Cycle  14  Pass 1  IDiag  1:
 RMSU=  7.40D-08    CP:  9.64D-01  1.50D+00  6.89D-01  6.31D-01  8.93D-01
                    CP:  9.21D-01  1.14D+00  1.32D+00  1.72D+00  2.15D+00
                    CP:  1.88D+00  1.79D+00  1.09D+00
 E= -4069.81236330359     Delta-E=       -0.000000033819 Rises=F Damp=F
 DIIS: error= 6.74D-07 at cycle  14 NSaved=  14.
 NSaved=14 IEnMin=14 EnMin= -4069.81236330359     IErMin=14 ErrMin= 6.74D-07
 ErrMax= 6.74D-07  0.00D+00 EMaxC= 1.00D-01 BMatC= 1.20D-09 BMatP= 7.77D-09
 IDIUse=1 WtCom= 1.00D+00 WtEn= 0.00D+00
 Coeff-Com:  0.660D-04-0.130D-03-0.244D-03-0.385D-03-0.489D-03 0.125D-02
 Coeff-Com:  0.107D-01 0.189D-01 0.394D-02-0.987D-01-0.143D+00 0.951D-01
 Coeff-Com:  0.403D+00 0.710D+00
 Coeff:      0.660D-04-0.130D-03-0.244D-03-0.385D-03-0.489D-03 0.125D-02
 Coeff:      0.107D-01 0.189D-01 0.394D-02-0.987D-01-0.143D+00 0.951D-01
 Coeff:      0.403D+00 0.710D+00
 Gap=     0.121 Goal=   None    Shift=    0.000
 RMSDP=9.87D-08 MaxDP=6.90D-06 DE=-3.38D-08 OVMax= 5.41D-05

 Cycle  15  Pass 1  IDiag  1:
 RMSU=  3.76D-08    CP:  9.64D-01  1.50D+00  6.89D-01  6.31D-01  8.93D-01
                    CP:  9.21D-01  1.14D+00  1.32D+00  1.73D+00  2.19D+00
                    CP:  1.98D+00  1.93D+00  1.33D+00  1.03D+00
 E= -4069.81236330732     Delta-E=       -0.000000003725 Rises=F Damp=F
 DIIS: error= 2.96D-07 at cycle  15 NSaved=  15.
 NSaved=15 IEnMin=15 EnMin= -4069.81236330732     IErMin=15 ErrMin= 2.96D-07
 ErrMax= 2.96D-07  0.00D+00 EMaxC= 1.00D-01 BMatC= 2.23D-10 BMatP= 1.20D-09
 IDIUse=1 WtCom= 1.00D+00 WtEn= 0.00D+00
 Coeff-Com:  0.534D-05-0.892D-05-0.319D-04-0.802D-04-0.297D-03-0.504D-03
 Coeff-Com:  0.116D-02 0.245D-02 0.855D-02 0.186D-02-0.309D-01-0.729D-01
 Coeff-Com:  0.266D-01 0.299D+00 0.765D+00
 Coeff:      0.534D-05-0.892D-05-0.319D-04-0.802D-04-0.297D-03-0.504D-03
 Coeff:      0.116D-02 0.245D-02 0.855D-02 0.186D-02-0.309D-01-0.729D-01
 Coeff:      0.266D-01 0.299D+00 0.765D+00
 Gap=     0.121 Goal=   None    Shift=    0.000
 RMSDP=4.05D-08 MaxDP=2.55D-06 DE=-3.73D-09 OVMax= 2.69D-05

 Cycle  16  Pass 1  IDiag  1:
 RMSU=  1.81D-08    CP:  9.64D-01  1.50D+00  6.89D-01  6.31D-01  8.93D-01
                    CP:  9.21D-01  1.14D+00  1.32D+00  1.74D+00  2.21D+00
                    CP:  2.01D+00  2.00D+00  1.40D+00  1.24D+00  1.15D+00
 E= -4069.81236330826     Delta-E=       -0.000000000946 Rises=F Damp=F
 DIIS: error= 1.74D-07 at cycle  16 NSaved=  16.
 NSaved=16 IEnMin=16 EnMin= -4069.81236330826     IErMin=16 ErrMin= 1.74D-07
 ErrMax= 1.74D-07  0.00D+00 EMaxC= 1.00D-01 BMatC= 7.84D-11 BMatP= 2.23D-10
 IDIUse=1 WtCom= 1.00D+00 WtEn= 0.00D+00
 Coeff-Com: -0.140D-04 0.283D-04 0.463D-04 0.535D-04-0.235D-04-0.620D-03
 Coeff-Com: -0.192D-02-0.421D-02 0.438D-02 0.253D-01 0.205D-01-0.642D-01
 Coeff-Com: -0.840D-01-0.338D-01 0.396D+00 0.742D+00
 Coeff:     -0.140D-04 0.283D-04 0.463D-04 0.535D-04-0.235D-04-0.620D-03
 Coeff:     -0.192D-02-0.421D-02 0.438D-02 0.253D-01 0.205D-01-0.642D-01
 Coeff:     -0.840D-01-0.338D-01 0.396D+00 0.742D+00
 Gap=     0.121 Goal=   None    Shift=    0.000
 RMSDP=2.22D-08 MaxDP=1.52D-06 DE=-9.46D-10 OVMax= 1.25D-05

 Cycle  17  Pass 1  IDiag  1:
 RMSU=  1.02D-08    CP:  9.64D-01  1.50D+00  6.89D-01  6.31D-01  8.93D-01
                    CP:  9.21D-01  1.14D+00  1.33D+00  1.74D+00  2.21D+00
                    CP:  2.02D+00  2.02D+00  1.45D+00  1.34D+00  1.44D+00
                    CP:  1.25D+00
 E= -4069.81236330837     Delta-E=       -0.000000000109 Rises=F Damp=F
 DIIS: error= 1.03D-07 at cycle  17 NSaved=  17.
 NSaved=17 IEnMin=17 EnMin= -4069.81236330837     IErMin=17 ErrMin= 1.03D-07
 ErrMax= 1.03D-07  0.00D+00 EMaxC= 1.00D-01 BMatC= 1.77D-11 BMatP= 7.84D-11
 IDIUse=1 WtCom= 1.00D+00 WtEn= 0.00D+00
 Coeff-Com: -0.715D-05 0.139D-04 0.282D-04 0.422D-04 0.849D-04-0.125D-03
 Coeff-Com: -0.944D-03-0.278D-02 0.146D-03 0.915D-02 0.174D-01-0.725D-02
 Coeff-Com: -0.373D-01-0.100D+00-0.325D-01 0.299D+00 0.855D+00
 Coeff:     -0.715D-05 0.139D-04 0.282D-04 0.422D-04 0.849D-04-0.125D-03
 Coeff:     -0.944D-03-0.278D-02 0.146D-03 0.915D-02 0.174D-01-0.725D-02
 Coeff:     -0.373D-01-0.100D+00-0.325D-01 0.299D+00 0.855D+00
 Gap=     0.121 Goal=   None    Shift=    0.000
 RMSDP=1.35D-08 MaxDP=9.69D-07 DE=-1.09D-10 OVMax= 8.56D-06

 Cycle  18  Pass 1  IDiag  1:
 RMSU=  4.73D-09    CP:  9.64D-01  1.50D+00  6.89D-01  6.31D-01  8.93D-01
                    CP:  9.21D-01  1.14D+00  1.33D+00  1.74D+00  2.22D+00
                    CP:  2.03D+00  2.03D+00  1.47D+00  1.41D+00  1.61D+00
                    CP:  1.66D+00  1.39D+00
 E= -4069.81236330860     Delta-E=       -0.000000000226 Rises=F Damp=F
 DIIS: error= 5.45D-08 at cycle  18 NSaved=  18.
 NSaved=18 IEnMin=18 EnMin= -4069.81236330860     IErMin=18 ErrMin= 5.45D-08
 ErrMax= 5.45D-08  0.00D+00 EMaxC= 1.00D-01 BMatC= 6.69D-12 BMatP= 1.77D-11
 IDIUse=1 WtCom= 1.00D+00 WtEn= 0.00D+00
 Coeff-Com:  0.202D-05-0.433D-05-0.452D-05-0.191D-05 0.587D-04 0.175D-03
 Coeff-Com:  0.402D-03 0.206D-03-0.121D-02-0.614D-02-0.113D-03 0.204D-01
 Coeff-Com:  0.187D-01-0.328D-01-0.163D+00-0.187D+00 0.341D+00 0.101D+01
 Coeff:      0.202D-05-0.433D-05-0.452D-05-0.191D-05 0.587D-04 0.175D-03
 Coeff:      0.402D-03 0.206D-03-0.121D-02-0.614D-02-0.113D-03 0.204D-01
 Coeff:      0.187D-01-0.328D-01-0.163D+00-0.187D+00 0.341D+00 0.101D+01
 Gap=     0.121 Goal=   None    Shift=    0.000
 RMSDP=1.15D-08 MaxDP=7.21D-07 DE=-2.26D-10 OVMax= 6.78D-06

 Cycle  19  Pass 1  IDiag  1:
 RMSU=  2.76D-09    CP:  9.64D-01  1.50D+00  6.89D-01  6.31D-01  8.93D-01
                    CP:  9.21D-01  1.14D+00  1.33D+00  1.74D+00  2.22D+00
                    CP:  2.03D+00  2.03D+00  1.48D+00  1.46D+00  1.76D+00
                    CP:  2.00D+00  1.94D+00  1.39D+00
 E= -4069.81236330849     Delta-E=        0.000000000109 Rises=F Damp=F
 DIIS: error= 4.07D-08 at cycle  19 NSaved=  19.
 NSaved=19 IEnMin=18 EnMin= -4069.81236330860     IErMin=19 ErrMin= 4.07D-08
 ErrMax= 4.07D-08  0.00D+00 EMaxC= 1.00D-01 BMatC= 1.47D-12 BMatP= 6.69D-12
 IDIUse=1 WtCom= 1.00D+00 WtEn= 0.00D+00
 Coeff-Com:  0.292D-05-0.589D-05-0.100D-04-0.127D-04 0.105D-04 0.118D-03
 Coeff-Com:  0.480D-03 0.798D-03-0.570D-03-0.603D-02-0.495D-02 0.123D-01
 Coeff-Com:  0.205D-01 0.111D-01-0.707D-01-0.179D+00-0.409D-01 0.503D+00
 Coeff-Com:  0.754D+00
 Coeff:      0.292D-05-0.589D-05-0.100D-04-0.127D-04 0.105D-04 0.118D-03
 Coeff:      0.480D-03 0.798D-03-0.570D-03-0.603D-02-0.495D-02 0.123D-01
 Coeff:      0.205D-01 0.111D-01-0.707D-01-0.179D+00-0.409D-01 0.503D+00
 Coeff:      0.754D+00
 Gap=     0.121 Goal=   None    Shift=    0.000
 RMSDP=4.68D-09 MaxDP=3.05D-07 DE= 1.09D-10 OVMax= 2.75D-06

 SCF Done:  E(RCAM-B3LYP) =  -4069.81236331     A.U. after   19 cycles
            NFock= 19  Conv=0.47D-08     -V/T= 2.0102
 KE= 4.028801952707D+03 PE=-3.935706319316D+04 EE= 1.632043471520D+04
 Leave Link  502 at Sat Sep  4 06:19:46 2021, MaxMem= 23488102400 cpu:           13592.7 elap:             592.9
 (Enter /sw/apps/gaussian-16.0/g16/l801.exe)
 DoSCS=F DFT=T ScalE2(SS,OS)=  1.000000  1.000000
 ExpMin= 3.36D-02 ExpMax= 4.95D+03 ExpMxC= 7.45D+02 IAcc=3 IRadAn=         5 AccDes= 0.00D+00
 HarFok:  IExCor=  205 AccDes= 0.00D+00 IRadAn=         5 IDoV=-2 UseB2=F ITyADJ=14
 ICtDFT= 12500011 ScaDFX=  1.000000  1.000000  1.000000  1.000000
 GSVD:  LWork=       -9588 too small for GESVD, short by       45590 words or       45590 for optimal perf.
 Largest valence mixing into a core orbital is  2.03D-04
 Largest core mixing into a valence orbital is  5.23D-05
 Range of M.O.s used for correlation:    95  1572
 NBasis=  1572 NAE=   312 NBE=   312 NFC=    94 NFV=     0
 NROrb=   1478 NOA=   218 NOB=   218 NVA=  1260 NVB=  1260
 Leave Link  801 at Sat Sep  4 06:19:46 2021, MaxMem= 23488102400 cpu:               8.4 elap:               0.4
 (Enter /sw/apps/gaussian-16.0/g16/l914.exe)
 RHF ground state
 Two-electron integrals replicated using symmetry.
 MDV= 23488102400 DFT=T DoStab=F Mixed=T DoRPA=T DoScal=F NonHer=T
 Making orbital integer symmetry assigments:
 Orbital symmetries:
       Occupied  (A) (A) (A) (A) (A) (A) (A) (A) (A) (A) (A) (A)
                 (A) (A) (A) (A) (A) (A) (A) (A) (A) (A) (A) (A)
                 (A) (A) (A) (A) (A) (A) (A) (A) (A) (A) (A) (A)
                 (A) (A) (A) (A) (A) (A) (A) (A) (A) (A) (A) (A)
                 (A) (A) (A) (A) (A) (A) (A) (A) (A) (A) (A) (A)
                 (A) (A) (A) (A) (A) (A) (A) (A) (A) (A) (A) (A)
                 (A) (A) (A) (A) (A) (A) (A) (A) (A) (A) (A) (A)
                 (A) (A) (A) (A) (A) (A) (A) (A) (A) (A) (A) (A)
                 (A) (A) (A) (A) (A) (A) (A) (A) (A) (A) (A) (A)
                 (A) (A) (A) (A) (A) (A) (A) (A) (A) (A) (A) (A)
                 (A) (A) (A) (A) (A) (A) (A) (A) (A) (A) (A) (A)
                 (A) (A) (A) (A) (A) (A) (A) (A) (A) (A) (A) (A)
                 (A) (A) (A) (A) (A) (A) (A) (A) (A) (A) (A) (A)
                 (A) (A) (A) (A) (A) (A) (A) (A) (A) (A) (A) (A)
                 (A) (A) (A) (A) (A) (A) (A) (A) (A) (A) (A) (A)
                 (A) (A) (A) (A) (A) (A) (A) (A) (A) (A) (A) (A)
                 (A) (A) (A) (A) (A) (A) (A) (A) (A) (A) (A) (A)
                 (A) (A) (A) (A) (A) (A) (A) (A) (A) (A) (A) (A)
                 (A) (A) (A) (A) (A) (A) (A) (A) (A) (A) (A) (A)
                 (A) (A) (A) (A) (A) (A) (A) (A) (A) (A) (A) (A)
                 (A) (A) (A) (A) (A) (A) (A) (A) (A) (A) (A) (A)
                 (A) (A) (A) (A) (A) (A) (A) (A) (A) (A) (A) (A)
                 (A) (A) (A) (A) (A) (A) (A) (A) (A) (A) (A) (A)
                 (A) (A) (A) (A) (A) (A) (A) (A) (A) (A) (A) (A)
                 (A) (A) (A) (A) (A) (A) (A) (A) (A) (A) (A) (A)
                 (A) (A) (A) (A) (A) (A) (A) (A) (A) (A) (A) (A)
       Virtual   (A) (A) (A) (A) (A) (A) (A) (A) (A) (A) (A) (A)
                 (A) (A) (A) (A) (A) (A) (A) (A) (A) (A) (A) (A)
                 (A) (A) (A) (A) (A) (A) (A) (A) (A) (A) (A) (A)
                 (A) (A) (A) (A) (A) (A) (A) (A) (A) (A) (A) (A)
                 (A) (A) (A) (A) (A) (A) (A) (A) (A) (A) (A) (A)
                 (A) (A) (A) (A) (A) (A) (A) (A) (A) (A) (A) (A)
                 (A) (A) (A) (A) (A) (A) (A) (A) (A) (A) (A) (A)
                 (A) (A) (A) (A) (A) (A) (A) (A) (A) (A) (A) (A)
                 (A) (A) (A) (A) (A) (A) (A) (A) (A) (A) (A) (A)
                 (A) (A) (A) (A) (A) (A) (A) (A) (A) (A) (A) (A)
                 (A) (A) (A) (A) (A) (A) (A) (A) (A) (A) (A) (A)
                 (A) (A) (A) (A) (A) (A) (A) (A) (A) (A) (A) (A)
                 (A) (A) (A) (A) (A) (A) (A) (A) (A) (A) (A) (A)
                 (A) (A) (A) (A) (A) (A) (A) (A) (A) (A) (A) (A)
                 (A) (A) (A) (A) (A) (A) (A) (A) (A) (A) (A) (A)
                 (A) (A) (A) (A) (A) (A) (A) (A) (A) (A) (A) (A)
                 (A) (A) (A) (A) (A) (A) (A) (A) (A) (A) (A) (A)
                 (A) (A) (A) (A) (A) (A) (A) (A) (A) (A) (A) (A)
                 (A) (A) (A) (A) (A) (A) (A) (A) (A) (A) (A) (A)
                 (A) (A) (A) (A) (A) (A) (A) (A) (A) (A) (A) (A)
                 (A) (A) (A) (A) (A) (A) (A) (A) (A) (A) (A) (A)
                 (A) (A) (A) (A) (A) (A) (A) (A) (A) (A) (A) (A)
                 (A) (A) (A) (A) (A) (A) (A) (A) (A) (A) (A) (A)
                 (A) (A) (A) (A) (A) (A) (A) (A) (A) (A) (A) (A)
                 (A) (A) (A) (A) (A) (A) (A) (A) (A) (A) (A) (A)
                 (A) (A) (A) (A) (A) (A) (A) (A) (A) (A) (A) (A)
                 (A) (A) (A) (A) (A) (A) (A) (A) (A) (A) (A) (A)
                 (A) (A) (A) (A) (A) (A) (A) (A) (A) (A) (A) (A)
                 (A) (A) (A) (A) (A) (A) (A) (A) (A) (A) (A) (A)
                 (A) (A) (A) (A) (A) (A) (A) (A) (A) (A) (A) (A)
                 (A) (A) (A) (A) (A) (A) (A) (A) (A) (A) (A) (A)
                 (A) (A) (A) (A) (A) (A) (A) (A) (A) (A) (A) (A)
                 (A) (A) (A) (A) (A) (A) (A) (A) (A) (A) (A) (A)
                 (A) (A) (A) (A) (A) (A) (A) (A) (A) (A) (A) (A)
                 (A) (A) (A) (A) (A) (A) (A) (A) (A) (A) (A) (A)
                 (A) (A) (A) (A) (A) (A) (A) (A) (A) (A) (A) (A)
                 (A) (A) (A) (A) (A) (A) (A) (A) (A) (A) (A) (A)
                 (A) (A) (A) (A) (A) (A) (A) (A) (A) (A) (A) (A)
                 (A) (A) (A) (A) (A) (A) (A) (A) (A) (A) (A) (A)
                 (A) (A) (A) (A) (A) (A) (A) (A) (A) (A) (A) (A)
                 (A) (A) (A) (A) (A) (A) (A) (A) (A) (A) (A) (A)
                 (A) (A) (A) (A) (A) (A) (A) (A) (A) (A) (A) (A)
                 (A) (A) (A) (A) (A) (A) (A) (A) (A) (A) (A) (A)
                 (A) (A) (A) (A) (A) (A) (A) (A) (A) (A) (A) (A)
                 (A) (A) (A) (A) (A) (A) (A) (A) (A) (A) (A) (A)
                 (A) (A) (A) (A) (A) (A) (A) (A) (A) (A) (A) (A)
                 (A) (A) (A) (A) (A) (A) (A) (A) (A) (A) (A) (A)
                 (A) (A) (A) (A) (A) (A) (A) (A) (A) (A) (A) (A)
                 (A) (A) (A) (A) (A) (A) (A) (A) (A) (A) (A) (A)
                 (A) (A) (A) (A) (A) (A) (A) (A) (A) (A) (A) (A)
                 (A) (A) (A) (A) (A) (A) (A) (A) (A) (A) (A) (A)
                 (A) (A) (A) (A) (A) (A) (A) (A) (A) (A) (A) (A)
                 (A) (A) (A) (A) (A) (A) (A) (A) (A) (A) (A) (A)
                 (A) (A) (A) (A) (A) (A) (A) (A) (A) (A) (A) (A)
                 (A) (A) (A) (A) (A) (A) (A) (A) (A) (A) (A) (A)
                 (A) (A) (A) (A) (A) (A) (A) (A) (A) (A) (A) (A)
                 (A) (A) (A) (A) (A) (A) (A) (A) (A) (A) (A) (A)
                 (A) (A) (A) (A) (A) (A) (A) (A) (A) (A) (A) (A)
                 (A) (A) (A) (A) (A) (A) (A) (A) (A) (A) (A) (A)
                 (A) (A) (A) (A) (A) (A) (A) (A) (A) (A) (A) (A)
                 (A) (A) (A) (A) (A) (A) (A) (A) (A) (A) (A) (A)
                 (A) (A) (A) (A) (A) (A) (A) (A) (A) (A) (A) (A)
                 (A) (A) (A) (A) (A) (A) (A) (A) (A) (A) (A) (A)
                 (A) (A) (A) (A) (A) (A) (A) (A) (A) (A) (A) (A)
                 (A) (A) (A) (A) (A) (A) (A) (A) (A) (A) (A) (A)
                 (A) (A) (A) (A) (A) (A) (A) (A) (A) (A) (A) (A)
                 (A) (A) (A) (A) (A) (A) (A) (A) (A) (A) (A) (A)
                 (A) (A) (A) (A) (A) (A) (A) (A) (A) (A) (A) (A)
                 (A) (A) (A) (A) (A) (A) (A) (A) (A) (A) (A) (A)
                 (A) (A) (A) (A) (A) (A) (A) (A) (A) (A) (A) (A)
                 (A) (A) (A) (A) (A) (A) (A) (A) (A) (A) (A) (A)
                 (A) (A) (A) (A) (A) (A) (A) (A) (A) (A) (A) (A)
                 (A) (A) (A) (A) (A) (A) (A) (A) (A) (A) (A) (A)
                 (A) (A) (A) (A) (A) (A) (A) (A) (A) (A) (A) (A)
                 (A) (A) (A) (A) (A) (A) (A) (A) (A) (A) (A) (A)
                 (A) (A) (A) (A) (A) (A) (A) (A) (A) (A) (A) (A)
                 (A) (A) (A) (A) (A) (A) (A) (A) (A) (A) (A) (A)
                 (A) (A) (A) (A) (A) (A) (A) (A) (A) (A) (A) (A)
                 (A) (A) (A) (A) (A) (A) (A) (A) (A) (A) (A) (A)
                 (A) (A) (A) (A) (A) (A) (A) (A) (A) (A) (A) (A)
                 (A) (A) (A) (A) (A) (A) (A) (A) (A) (A) (A) (A)
                 (A) (A) (A) (A) (A) (A) (A) (A) (A) (A) (A) (A)
                 (A) (A) (A) (A) (A) (A) (A) (A) (A) (A) (A) (A)
                 (A) (A) (A) (A) (A) (A) (A) (A) (A) (A) (A) (A)
                 (A) (A) (A) (A) (A) (A) (A) (A) (A) (A) (A) (A)
                 (A) (A) (A) (A) (A) (A) (A) (A) (A) (A) (A) (A)
                 (A) (A) (A) (A) (A) (A) (A) (A) (A) (A) (A) (A)
                 (A) (A) (A) (A) (A) (A) (A) (A) (A) (A) (A) (A)
                 (A) (A) (A) (A) (A) (A) (A) (A) (A) (A) (A) (A)
                 (A) (A) (A) (A) (A) (A) (A) (A) (A) (A) (A) (A)
                 (A) (A) (A) (A) (A) (A) (A) (A) (A) (A) (A) (A)
                 (A) (A) (A) (A) (A) (A) (A) (A) (A) (A) (A) (A)
                 (A) (A) (A) (A) (A) (A) (A) (A) (A) (A) (A) (A)
                 (A) (A) (A) (A) (A) (A) (A) (A) (A) (A) (A) (A)
                 (A) (A) (A) (A) (A) (A) (A) (A) (A) (A) (A) (A)
                 (A) (A) (A) (A) (A) (A) (A) (A) (A) (A) (A) (A)
                 (A) (A) (A) (A) (A) (A) (A) (A) (A) (A) (A) (A)
                 (A) (A) (A) (A) (A) (A) (A) (A) (A) (A) (A) (A)
                 (A) (A) (A) (A) (A) (A) (A) (A) (A) (A) (A) (A)
                 (A) (A) (A) (A) (A) (A) (A) (A) (A) (A) (A) (A)
                 (A) (A) (A) (A) (A) (A) (A) (A) (A) (A) (A) (A)
                 (A) (A) (A) (A) (A) (A) (A) (A) (A) (A) (A) (A)
                 (A) (A) (A) (A) (A) (A) (A) (A) (A) (A) (A) (A)
                 (A) (A) (A) (A) (A) (A) (A) (A) (A) (A) (A) (A)
                 (A) (A) (A) (A) (A) (A) (A) (A) (A) (A) (A) (A)
    20 initial guesses have been made.
 Convergence on wavefunction:    0.001000000000000
 Davidson Disk Diagonalization:  ConvIn= 1.00D-03 SkipCon=T Conv= 1.00D-03.
 Max sub-space:  2000 roots to seek:    20 dimension of matrix:       549360
 Iteration     1 Dimension    20 NMult     0 NNew     20
 CISAX will form    20 AO SS matrices at one time.
 NMat=    20 NSing=    20 JSym2X= 0.
 FoFJK:  IHMeth= 1 ICntrl=       0 DoSepK=T KAlg= 0 I1Cent=           0 FoldK=F
 IRaf=         1 NMat=      40 IRICut=       1 DoRegI=T DoRafI=F ISym2E= 0 IDoP0=3 IntGTp=3.
 FoFCou: FMM=T IPFlag=           0 FMFlag=      100000 FMFlg1=        2001
         NFxFlg=           0 DoJE=F BraDBF=F KetDBF=F FulRan=T
         wScrn=  0.000000 ICntrl=       500 IOpCl=  0 I1Cent=           0 NGrid=           0
         NMat0=   20 NMatS0=     20 NMatT0=    0 NMatD0=   20 NMtDS0=    0 NMtDT0=    0
 Symmetry not used in FoFCou.
 FMM levels:  10  Number of levels for PrismC:   9
 New state      2 was old state      7
 New state      3 was old state      6
 New state      5 was old state      2
 Excitation Energies [eV] at current iteration:
 Root      1 :     2.476287561022922
 Root      2 :     2.611205103128724
 Root      3 :     2.620190629606245
 Root      4 :     2.629346878891469
 Root      5 :     2.680178211471612
 Root      6 :     2.690731980920722
 Root      7 :     3.262505250848152
 Root      8 :     3.427924660414500
 Root      9 :     3.631116221025379
 Root     10 :     3.673402907271283
 Root     11 :     3.736957377515016
 Root     12 :     3.758790235213400
 Root     13 :     4.296450959051898
 Root     14 :     4.309810350457803
 Root     15 :     4.381970472505791
 Root     16 :     4.561610675815860
 Root     17 :     4.707170273827074
 Root     18 :     4.742515420424535
 Root     19 :     4.858214667183910
 Root     20 :     4.858747201202440
 Iteration     2 Dimension    30 NMult    20 NNew     10
 CISAX will form    10 AO SS matrices at one time.
 NMat=    10 NSing=    10 JSym2X= 0.
 New state      1 was old state      5
 Root      1 not converged, maximum delta is    0.183274884618258
 Root      2 not converged, maximum delta is    0.283079290025866
 Root      3 not converged, maximum delta is    0.313243987321963
 New state      4 was old state      1
 Root      4 not converged, maximum delta is    0.002418792786496
 New state      5 was old state      4
 Root      5 not converged, maximum delta is    0.004449210366673
 Excitation Energies [eV] at current iteration:
 Root      1 :     1.799122325184934   Change is   -0.881055886286678
 Root      2 :     2.177686953596685   Change is   -0.433518149532039
 Root      3 :     2.238776137863818   Change is   -0.381414491742427
 Root      4 :     2.475848789674340   Change is   -0.000438771348582
 Root      5 :     2.628801824555890   Change is   -0.000545054335579
 Iteration     3 Dimension    40 NMult    30 NNew     10
 CISAX will form    10 AO SS matrices at one time.
 NMat=    10 NSing=    10 JSym2X= 0.
 Root      1 not converged, maximum delta is    0.070053835532759
 Root      2 not converged, maximum delta is    0.343972157657054
 Root      3 not converged, maximum delta is    0.109749719652498
 No map to state      4
 New state      5 was old state      4
 Root      5 has converged.
 Excitation Energies [eV] at current iteration:
 Root      1 :     1.692182858691688   Change is   -0.106939466493246
 Root      2 :     1.793071822065253   Change is   -0.384615131531432
 Root      3 :     2.196538186139688   Change is   -0.042237951724131
 Root      4 :     2.219803716467621
 Root      5 :     2.475846113831970   Change is   -0.000002675842370
 Iteration     4 Dimension    48 NMult    40 NNew      8
 CISAX will form     8 AO SS matrices at one time.
 NMat=     8 NSing=     8 JSym2X= 0.
 Root      1 not converged, maximum delta is    0.019659966795159
 Root      2 not converged, maximum delta is    0.046198410896629
 Root      3 not converged, maximum delta is    0.280863164099281
 Root      4 not converged, maximum delta is    0.274024116119247
 Root      5 has converged.
 Excitation Energies [eV] at current iteration:
 Root      1 :     1.675394059501454   Change is   -0.016788799190234
 Root      2 :     1.693481478255156   Change is   -0.099590343810097
 Root      3 :     2.186890276947467   Change is   -0.009647909192221
 Root      4 :     2.195286393953471   Change is   -0.024517322514150
 Root      5 :     2.475846112718813   Change is   -0.000000001113157
 Iteration     5 Dimension    56 NMult    48 NNew      8
 CISAX will form     8 AO SS matrices at one time.
 NMat=     8 NSing=     8 JSym2X= 0.
 Root      1 not converged, maximum delta is    0.043628084010364
 Root      2 not converged, maximum delta is    0.043283366746293
 Root      3 not converged, maximum delta is    0.091040116936375
 Root      4 not converged, maximum delta is    0.090741461917222
 Root      5 has converged.
 Excitation Energies [eV] at current iteration:
 Root      1 :     1.673548432987571   Change is   -0.001845626513883
 Root      2 :     1.679518721412160   Change is   -0.013962756842996
 Root      3 :     2.184941849688510   Change is   -0.001948427258957
 Root      4 :     2.193139234520719   Change is   -0.002147159432752
 Root      5 :     2.475846111903958   Change is   -0.000000000814855
 Iteration     6 Dimension    64 NMult    56 NNew      8
 CISAX will form     8 AO SS matrices at one time.
 NMat=     8 NSing=     8 JSym2X= 0.
 Root      1 not converged, maximum delta is    0.016832412243090
 Root      2 not converged, maximum delta is    0.016849197845107
 Root      3 not converged, maximum delta is    0.007542610361699
 Root      4 not converged, maximum delta is    0.007915509549268
 Root      5 has converged.
 Excitation Energies [eV] at current iteration:
 Root      1 :     1.673275027240097   Change is   -0.000273405747474
 Root      2 :     1.678106045201025   Change is   -0.001412676211135
 Root      3 :     2.184719807895371   Change is   -0.000222041793139
 Root      4 :     2.192900933060977   Change is   -0.000238301459742
 Root      5 :     2.475846111863583   Change is   -0.000000000040376
 Iteration     7 Dimension    72 NMult    64 NNew      8
 CISAX will form     8 AO SS matrices at one time.
 NMat=     8 NSing=     8 JSym2X= 0.
 Root      1 not converged, maximum delta is    0.004026738848840
 Root      2 not converged, maximum delta is    0.004040957568527
 Root      3 not converged, maximum delta is    0.001682909979480
 Root      4 not converged, maximum delta is    0.001762719933503
 Root      5 has converged.
 Excitation Energies [eV] at current iteration:
 Root      1 :     1.673245641876277   Change is   -0.000029385363820
[...]
 Alpha virt. eigenvalues --    1.84421   1.84625   1.84750   1.84958   1.85052
 Alpha virt. eigenvalues --    1.85216   1.85236   1.85438   1.85439   1.85625
 Alpha virt. eigenvalues --    1.85811   1.86041   1.86317   1.86501   1.86503
 Alpha virt. eigenvalues --    1.86729   1.86773   1.86913   1.86966   1.87148
 Alpha virt. eigenvalues --    1.87387   1.87598   1.87628   1.87816   1.87891
 Alpha virt. eigenvalues --    1.87987   1.88118   1.88314   1.88481   1.88738
 Alpha virt. eigenvalues --    1.88755   1.89092   1.89093   1.89255   1.89575
 Alpha virt. eigenvalues --    1.89691   1.89793   1.89982   1.90055   1.90334
 Alpha virt. eigenvalues --    1.90677   1.91037   1.91276   1.91392   1.91506
 Alpha virt. eigenvalues --    1.91822   1.92090   1.92360   1.92543   1.92823
 Alpha virt. eigenvalues --    1.92927   1.93285   1.93300   1.93598   1.94242
 Alpha virt. eigenvalues --    1.94406   1.94643   1.94913   1.95451   1.95650
 Alpha virt. eigenvalues --    1.95666   1.95911   1.95968   1.96119   1.96184
 Alpha virt. eigenvalues --    1.96318   1.96538   1.96609   1.96845   1.97092
 Alpha virt. eigenvalues --    1.97395   1.97650   1.97788   1.97935   1.98096
 Alpha virt. eigenvalues --    1.98332   1.98492   1.98547   1.99060   1.99211
 Alpha virt. eigenvalues --    1.99737   2.00118   2.00609   2.00854   2.00912
 Alpha virt. eigenvalues --    2.01230   2.01376   2.01594   2.01620   2.01635
 Alpha virt. eigenvalues --    2.01752   2.01986   2.02718   2.02839   2.03192
 Alpha virt. eigenvalues --    2.03235   2.03316   2.03389   2.03521   2.03655
 Alpha virt. eigenvalues --    2.03964   2.04155   2.04905   2.05090   2.05459
 Alpha virt. eigenvalues --    2.05735   2.06012   2.06394   2.06787   2.07113
 Alpha virt. eigenvalues --    2.07171   2.07469   2.08542   2.08621   2.08911
 Alpha virt. eigenvalues --    2.09152   2.09505   2.09748   2.10758   2.11111
 Alpha virt. eigenvalues --    2.11113   2.11453   2.11531   2.11664   2.11694
 Alpha virt. eigenvalues --    2.12031   2.12391   2.12627   2.12747   2.12775
 Alpha virt. eigenvalues --    2.12932   2.13024   2.13676   2.13864   2.14103
 Alpha virt. eigenvalues --    2.14326   2.15272   2.15518   2.15847   2.16243
 Alpha virt. eigenvalues --    2.16475   2.16675   2.16734   2.17293   2.17353
 Alpha virt. eigenvalues --    2.17648   2.17722   2.18020   2.18077   2.18143
 Alpha virt. eigenvalues --    2.18223   2.18774   2.18813   2.19407   2.19561
 Alpha virt. eigenvalues --    2.19964   2.19987   2.20129   2.20369   2.20602
 Alpha virt. eigenvalues --    2.21131   2.21240   2.21600   2.21648   2.21891
 Alpha virt. eigenvalues --    2.21987   2.22625   2.22860   2.23260   2.23440
 Alpha virt. eigenvalues --    2.24340   2.24509   2.24944   2.25086   2.26203
 Alpha virt. eigenvalues --    2.26584   2.26722   2.27011   2.27131   2.27341
 Alpha virt. eigenvalues --    2.28069   2.28518   2.29212   2.29593   2.29654
 Alpha virt. eigenvalues --    2.30036   2.30372   2.30784   2.30983   2.30988
 Alpha virt. eigenvalues --    2.31080   2.31320   2.32073   2.32336   2.33051
 Alpha virt. eigenvalues --    2.33393   2.33397   2.33588   2.34096   2.34260
 Alpha virt. eigenvalues --    2.35254   2.35422   2.35723   2.36095   2.36322
 Alpha virt. eigenvalues --    2.36459   2.36525   2.36554   2.37621   2.37768
 Alpha virt. eigenvalues --    2.38210   2.38472   2.38769   2.38980   2.39540
 Alpha virt. eigenvalues --    2.39797   2.40135   2.40348   2.40403   2.41006
 Alpha virt. eigenvalues --    2.41183   2.41384   2.41648   2.41789   2.41929
 Alpha virt. eigenvalues --    2.42255   2.42891   2.42917   2.43177   2.43357
 Alpha virt. eigenvalues --    2.44078   2.44100   2.44660   2.44833   2.44929
 Alpha virt. eigenvalues --    2.45134   2.45482   2.45692   2.46238   2.46399
 Alpha virt. eigenvalues --    2.46407   2.46602   2.46711   2.46927   2.47184
 Alpha virt. eigenvalues --    2.47464   2.47651   2.47983   2.49269   2.49464
 Alpha virt. eigenvalues --    2.49975   2.50040   2.50519   2.50563   2.51028
 Alpha virt. eigenvalues --    2.51408   2.51723   2.51803   2.52346   2.52549
 Alpha virt. eigenvalues --    2.52736   2.53342   2.53862   2.54081   2.54098
 Alpha virt. eigenvalues --    2.54342   2.54722   2.54895   2.55455   2.55763
 Alpha virt. eigenvalues --    2.57802   2.58191   2.58592   2.59030   2.60102
 Alpha virt. eigenvalues --    2.60446   2.60534   2.61101   2.61655   2.61935
 Alpha virt. eigenvalues --    2.62458   2.62556   2.62881   2.63241   2.63866
 Alpha virt. eigenvalues --    2.64222   2.64395   2.64479   2.65018   2.65213
 Alpha virt. eigenvalues --    2.65703   2.66027   2.66737   2.66855   2.66911
 Alpha virt. eigenvalues --    2.67221   2.67852   2.68109   2.68779   2.68918
 Alpha virt. eigenvalues --    2.68931   2.69163   2.69349   2.69730   2.69937
 Alpha virt. eigenvalues --    2.70245   2.70906   2.71213   2.71950   2.71994
 Alpha virt. eigenvalues --    2.72547   2.72591   2.72685   2.72883   2.73246
 Alpha virt. eigenvalues --    2.73355   2.73357   2.73565   2.74431   2.74605
 Alpha virt. eigenvalues --    2.74890   2.75167   2.76536   2.76616   2.77136
 Alpha virt. eigenvalues --    2.77165   2.77386   2.77713   2.78129   2.78369
 Alpha virt. eigenvalues --    2.78631   2.78776   2.79060   2.79279   2.80257
 Alpha virt. eigenvalues --    2.80342   2.80473   2.80799   2.81014   2.81239
 Alpha virt. eigenvalues --    2.81848   2.82097   2.82281   2.82433   2.83638
 Alpha virt. eigenvalues --    2.83705   2.83924   2.83997   2.84477   2.84602
 Alpha virt. eigenvalues --    2.84833   2.84946   2.85609   2.85764   2.86731
 Alpha virt. eigenvalues --    2.86905   2.87272   2.87468   2.88089   2.88309
 Alpha virt. eigenvalues --    2.88440   2.88714   2.88863   2.88949   2.90428
 Alpha virt. eigenvalues --    2.90788   2.91147   2.91162   2.93074   2.93452
 Alpha virt. eigenvalues --    2.93881   2.94134   2.94514   2.94628   2.95280
 Alpha virt. eigenvalues --    2.95654   2.95945   2.96047   2.96388   2.96456
 Alpha virt. eigenvalues --    2.96969   2.97042   2.97702   2.98098   2.98135
 Alpha virt. eigenvalues --    2.98298   2.98504   2.98514   2.98701   2.98819
 Alpha virt. eigenvalues --    2.98897   2.99014   2.99557   2.99857   2.99904
 Alpha virt. eigenvalues --    3.00120   3.00144   3.00372   3.00420   3.01149
 Alpha virt. eigenvalues --    3.01953   3.01955   3.02009   3.02268   3.02586
 Alpha virt. eigenvalues --    3.02888   3.02903   3.03273   3.03459   3.03899
 Alpha virt. eigenvalues --    3.04132   3.04204   3.04367   3.04508   3.04529
 Alpha virt. eigenvalues --    3.04808   3.05266   3.05424   3.06053   3.06235
 Alpha virt. eigenvalues --    3.06721   3.07086   3.08000   3.08106   3.09316
 Alpha virt. eigenvalues --    3.09394   3.09622   3.10371   3.10614   3.10900
 Alpha virt. eigenvalues --    3.11302   3.11506   3.11842   3.11933   3.12178
 Alpha virt. eigenvalues --    3.12465   3.13195   3.13601   3.13743   3.13789
 Alpha virt. eigenvalues --    3.13933   3.14568   3.15915   3.16020   3.17180
 Alpha virt. eigenvalues --    3.17603   3.17920   3.18029   3.19068   3.19099
 Alpha virt. eigenvalues --    3.22133   3.22683   3.23865   3.24525   3.24552
 Alpha virt. eigenvalues --    3.25271   3.26429   3.26748   3.27490   3.27542
 Alpha virt. eigenvalues --    3.28917   3.29303   3.31443   3.31469   3.33280
 Alpha virt. eigenvalues --    3.33350   3.40341   3.40429   3.42755   3.42881
 Alpha virt. eigenvalues --    3.48562   3.48778   3.49955   3.50384   3.50942
 Alpha virt. eigenvalues --    3.51405   3.56483   3.57083   3.59044   3.59415
 Alpha virt. eigenvalues --    3.62596   3.62748   3.66127   3.66149   3.67000
 Alpha virt. eigenvalues --    3.67624   3.73098   3.74096   3.75901   3.76752
          Condensed to atoms (all electrons):
 Mulliken charges:
               1
     1  Mg   0.838765
     2  C   -0.003560
     3  C   -0.093985
     4  C   -0.045701
     5  C   -0.063714
     6  N   -0.256862
     7  C   -0.052539
     8  C   -0.014094
     9  C   -0.087065
    10  C    0.046365
    11  C    0.104737
    12  C    0.053464
    13  C   -0.071526
    14  H    0.034669
    15  N   -0.433206
    16  C    0.168622
    17  C   -0.176900
    18  C   -0.003822
    19  C    0.148824
    20  C    0.110069
    21  C    0.012248
    22  O   -0.249356
    23  C    0.062433
    24  N   -0.341192
    25  C    0.041458
    26  C   -0.028267
    27  C   -0.024064
    28  C    0.074866
    29  C    0.076080
    30  C    0.035025
    31  C   -0.004749
    32  N   -0.310268
    33  C    0.080070
    34  C   -0.170115
    35  C    0.007936
    36  C    0.082581
    37  C    0.127467
    38  C    0.045337
    39  O   -0.189303
    40  C   -0.005086
    41  C    0.213006
    42  O   -0.258961
    43  O   -0.304206
    44  C    0.158207
    45  H   -0.017349
    46  H   -0.016497
    47  H   -0.041132
    48  H    0.000832
    49  H   -0.003814
    50  H    0.025463
    51  H    0.016681
    52  H    0.016903
    53  H    0.011747
    54  H    0.042951
    55  H    0.018159
    56  H    0.018639
    57  H    0.006095
    58  H    0.027071
    59  H    0.040004
    60  H    0.037624
    61  H    0.035663
    62  H    0.031482
    63  H    0.016899
    64  H    0.009639
    65  H    0.023569
    66  H    0.012421
    67  H    0.005019
    68  H    0.007069
    69  H    0.004992
    70  H    0.008909
    71  H    0.019643
    72  H    0.028072
    73  H    0.046660
    74  H    0.009600
    75  H    0.046222
    76  H    0.035430
    77  H    0.043110
    78  H    0.046762
    79  H    0.051772
    80  Mg   0.837917
    81  C   -0.016874
    82  C   -0.086993
    83  C   -0.046110
    84  C   -0.065023
    85  N   -0.254802
    86  C   -0.049220
    87  C   -0.015244
    88  C   -0.090355
    89  C    0.045420
    90  C    0.113806
    91  C    0.062408
    92  C   -0.077726
    93  H    0.033735
    94  N   -0.423605
    95  C    0.162715
    96  C   -0.173934
    97  C   -0.008515
    98  C    0.152559
    99  C    0.099285
   100  C    0.015200
   101  O   -0.254125
   102  C    0.061349
   103  N   -0.350090
   104  C    0.037608
   105  C   -0.019704
   106  C   -0.034904
   107  C    0.088859
   108  C    0.073938
   109  C    0.034905
   110  C   -0.007568
   111  N   -0.324013
   112  C    0.078322
   113  C   -0.163428
   114  C    0.002071
   115  C    0.096164
   116  C    0.131586
   117  C    0.041948
   118  O   -0.188666
   119  C    0.001144
   120  C    0.211265
   121  O   -0.251255
   122  O   -0.305462
   123  C    0.152172
   124  H   -0.016827
   125  H   -0.016577
   126  H   -0.040810
   127  H   -0.000293
   128  H   -0.004158
   129  H    0.021576
   130  H    0.016371
   131  H    0.021901
   132  H    0.013561
   133  H    0.036940
   134  H    0.021729
   135  H    0.019900
   136  H    0.010082
   137  H    0.025957
   138  H    0.039168
   139  H    0.038042
   140  H    0.035576
   141  H    0.033997
   142  H    0.013938
   143  H    0.012518
   144  H    0.023931
   145  H    0.011216
   146  H    0.005342
   147  H    0.005572
   148  H    0.003659
   149  H    0.010567
   150  H    0.017628
   151  H    0.030456
   152  H    0.045543
   153  H    0.008313
   154  H    0.046688
   155  H    0.035106
   156  H    0.043452
   157  H    0.049953
   158  H    0.053222
 Sum of Mulliken charges =  -0.00000
 Mulliken charges with hydrogens summed into heavy atoms:
               1
     1  Mg   0.838765
     2  C   -0.003560
     3  C   -0.111334
     4  C   -0.062198
     5  C   -0.104846
     6  N   -0.256862
     7  C   -0.052539
     8  C   -0.013262
     9  C   -0.090879
    10  C    0.046365
    11  C    0.163784
    12  C    0.108162
    13  C   -0.000059
    15  N   -0.433206
    16  C    0.168622
    17  C   -0.176900
    18  C   -0.003822
    19  C    0.148824
    20  C    0.183239
    21  C    0.012248
    22  O   -0.249356
    23  C    0.167201
    24  N   -0.341192
    25  C    0.041458
    26  C   -0.011367
    27  C   -0.014426
    28  C    0.074866
    29  C    0.117089
    30  C    0.047087
    31  C    0.051875
    32  N   -0.310268
    33  C    0.080070
    34  C   -0.170115
    35  C    0.007936
    36  C    0.082581
    37  C    0.229949
    38  C    0.045337
    39  O   -0.189303
    40  C    0.030344
    41  C    0.213006
    42  O   -0.258961
    43  O   -0.304206
    44  C    0.299850
    80  Mg   0.837917
    81  C   -0.016874
    82  C   -0.103820
    83  C   -0.062687
    84  C   -0.105833
    85  N   -0.254802
    86  C   -0.049220
    87  C   -0.015537
    88  C   -0.094513
    89  C    0.045420
    90  C    0.173654
    91  C    0.112909
    92  C   -0.002361
    94  N   -0.423605
    95  C    0.162715
    96  C   -0.173934
    97  C   -0.008515
    98  C    0.152559
    99  C    0.174492
   100  C    0.015200
   101  O   -0.254125
   102  C    0.168964
   103  N   -0.350090
   104  C    0.037608
   105  C   -0.005766
   106  C   -0.022386
   107  C    0.088859
   108  C    0.114428
   109  C    0.044136
   110  C    0.051082
   111  N   -0.324013
   112  C    0.078322
   113  C   -0.163428
   114  C    0.002071
   115  C    0.096164
   116  C    0.232130
   117  C    0.041948
   118  O   -0.188666
   119  C    0.036250
   120  C    0.211265
   121  O   -0.251255
   122  O   -0.305462
   123  C    0.298799
 Electronic spatial extent (au):  <R**2>=         115276.1660
 Charge=             -0.0000 electrons
 Dipole moment (field-independent basis, Debye):
    X=             -5.0840    Y=              1.1080    Z=              4.8569  Tot=              7.1178
 Quadrupole moment (field-independent basis, Debye-Ang):
   XX=           -519.1841   YY=           -502.1867   ZZ=           -497.6614
   XY=            -26.9781   XZ=              3.0145   YZ=             -4.5863
 Traceless Quadrupole moment (field-independent basis, Debye-Ang):
   XX=            -12.8400   YY=              4.1574   ZZ=              8.6826
   XY=            -26.9781   XZ=              3.0145   YZ=             -4.5863
 Octapole moment (field-independent basis, Debye-Ang**2):
  XXX=           -488.9213  YYY=             88.4636  ZZZ=            109.1628  XYY=            306.6105
  XXY=             78.9380  XXZ=            280.8445  XZZ=           -298.8018  YZZ=           -262.4407
  YYZ=             35.8083  XYZ=           -171.7565
 Hexadecapole moment (field-independent basis, Debye-Ang**3):
 XXXX=         -92172.0346 YYYY=         -33902.6400 ZZZZ=         -32135.6700 XXXY=           -767.8294
 XXXZ=           -101.1794 YYYX=          -1311.1036 YYYZ=            714.6425 ZZZX=            590.6514
 ZZZY=          -1115.6828 XXYY=         -19924.1532 XXZZ=         -20472.5867 YYZZ=         -10912.1518
 XXYZ=            169.3154 YYXZ=          -1506.3478 ZZXY=           -219.9417
 N-N= 1.493801416195D+04 E-N=-3.935706318322D+04  KE= 4.028801952707D+03
 Leave Link  601 at Sat Sep  4 06:45:53 2021, MaxMem= 23488102400 cpu:              17.1 elap:               0.9
 (Enter /sw/apps/gaussian-16.0/g16/l9999.exe)
 1\1\GINC-BP1-COMPUTE00081\SP\RCAM-B3LYP TD-FC\def2SVP\C68H72Mg2N8O8\OF
 15641\04-Sep-2021\0\\#p cam-b3lyp/Def2SVP td=(nstates=5)\\TDDFT excite
 d states in gaussian\\0,1\Mg,0,0.,0.,0.\C,0,-0.217,-2.218,2.801\C,0,-1
 .255,2.442,2.026\C,0,-0.245,1.85,-2.564\C,0,0.146,-2.824,-2.037\N,0,-0
 .617,-0.009,2.126\C,0,-0.594,-0.908,3.105\C,0,-0.936,-0.309,4.502\C,0,
 -1.773,0.964,4.032\C,0,-1.155,1.168,2.66\C,0,-3.263,0.685,3.863\C,0,0.
 345,0.11,5.299\C,0,0.124,0.397,6.787\H,0,1.168,0.033,7.733\N,0,-0.185,
 1.961,-0.152\C,0,-0.703,2.8,0.777\C,0,-0.62,4.156,0.193\C,0,-0.187,4.0
 15,-1.225\C,0,-0.214,2.583,-1.38\C,0,-0.887,5.406,0.974\C,0,0.181,5.01
 3,-2.277\O,0,0.303,4.69,-3.508\C,0,0.31,6.414,-1.837\N,0,-0.265,-0.413
 ,-2.029\C,0,-0.279,0.569,-2.937\C,0,-0.196,0.024,-4.332\C,0,0.124,-1.5
 33,-4.18\C,0,0.086,-1.632,-2.635\C,0,-1.451,0.205,-5.197\C,0,1.373,-2.
 07,-4.923\C,0,2.626,-1.49,-4.306\N,0,0.15,-2.144,0.303\C,0,0.173,-3.13
 6,-0.688\C,0,0.173,-4.438,0.004\C,0,0.133,-4.111,1.358\C,0,0.083,-2.69
 5,1.502\C,0,0.149,-5.715,-0.623\C,0,0.096,-4.629,2.716\O,0,0.208,-5.74
 7,3.221\C,0,-0.255,-3.428,3.701\C,0,0.717,-3.482,4.848\O,0,1.931,-3.25
 5,4.669\O,0,0.038,-3.556,6.003\C,0,0.943,-3.583,7.183\H,0,-1.859,3.22,
 2.497\H,0,-0.218,2.453,-3.474\H,0,0.276,-3.747,-2.605\H,0,-1.554,-0.94
 9,5.132\H,0,-1.585,1.831,4.665\H,0,-3.484,-0.377,3.969\H,0,-3.511,1.02
 7,2.858\H,0,-3.852,1.301,4.543\H,0,0.669,1.096,4.966\H,0,1.13,-0.639,5
 .189\H,0,-0.844,0.026,7.125\H,0,0.062,1.477,6.921\H,0,-1.344,5.186,1.9
 38\H,0,-1.651,5.963,0.432\H,0,0.007,6.02,1.084\H,0,-0.635,6.744,-1.405
 \H,0,0.665,6.97,-2.704\H,0,1.048,6.466,-1.036\H,0,0.608,0.501,-4.891\H
 ,0,-0.692,-2.156,-4.547\H,0,-1.267,0.74,-6.129\H,0,-2.204,0.714,-4.596
 \H,0,-1.967,-0.72,-5.453\H,0,1.356,-1.759,-5.967\H,0,1.452,-3.157,-4.9
 02\H,0,2.714,-0.522,-4.798\H,0,3.487,-2.121,-4.529\H,0,2.495,-1.303,-3
 .24\H,0,0.867,-6.333,-0.084\H,0,0.404,-5.642,-1.68\H,0,-0.891,-5.999,-
 0.463\H,0,-1.283,-3.581,4.028\H,0,0.698,-4.478,7.755\H,0,0.833,-2.619,
 7.68\H,0,2.,-3.754,6.976\Mg,0,10.51826,0.94071,0.8036\C,0,10.73111,-1.
 98568,-1.2628\C,0,9.62554,-1.11972,3.37114\C,0,9.88538,3.52774,2.52818
 \C,0,10.3021,2.82145,-2.12245\N,0,10.24813,-1.2517,0.91598\C,0,10.4168
 4,-2.2676,0.08301\C,0,10.31764,-3.66714,0.74708\C,0,9.42017,-3.26749,2
 .01739\C,0,9.80974,-1.79568,2.13857\C,0,7.92669,-3.34561,1.74763\C,0,1
 1.71863,-4.22153,1.18515\C,0,11.73526,-5.70589,1.55687\H,0,12.92025,-6
 .49284,1.22674\N,0,10.33297,1.16155,2.76713\C,0,9.98486,0.21441,3.6632
 5\C,0,9.97069,0.88509,4.97251\C,0,10.17798,2.34266,4.75515\C,0,10.1180
 7,2.4046,3.30855\C,0,9.85323,0.1371,6.26871\C,0,10.38195,3.49259,5.694
 44\O,0,10.30357,4.70865,5.29707\C,0,10.58352,3.15428,7.11091\N,0,9.935
 22,2.86927,0.29071\C,0,9.77869,3.81734,1.23124\C,0,9.62808,5.1845,0.60
 788\C,0,9.95944,4.98785,-0.94426\C,0,10.16629,3.45746,-0.96694\C,0,8.2
 5298,5.83532,0.75596\C,0,11.06868,5.89266,-1.54722\C,0,12.41075,5.5285
 4,-0.95422\N,0,10.69874,0.54966,-1.31361\C,0,10.54674,1.47641,-2.36818
 \C,0,10.64638,0.71797,-3.63202\C,0,10.82787,-0.61134,-3.22157\C,0,10.8
 2025,-0.67958,-1.80214\C,0,10.52045,1.26252,-4.94112\C,0,11.01354,-1.9
 7384,-3.66636\O,0,11.18742,-2.51544,-4.75731\C,0,10.8326,-2.94182,-2.4
 187\C,0,11.97505,-3.92025,-2.42039\O,0,13.14154,-3.5302,-2.23665\O,0,1
 1.48276,-5.17246,-2.42101\C,0,12.57775,-6.17881,-2.41161\H,0,9.1195,-1
 .64606,4.18095\H,0,9.77137,4.46653,3.07512\H,0,10.34287,3.34893,-3.077
 85\H,0,9.80852,-4.4167,0.15316\H,0,9.72451,-3.81675,2.90455\H,0,7.715,
 -3.54369,0.7074\H,0,7.52442,-2.38425,2.03919\H,0,7.46176,-4.08058,2.41
 095\H,0,11.99067,-3.78228,2.15355\H,0,12.45707,-4.02953,0.43119\H,0,10
 .82614,-6.22351,1.22746\H,0,11.71251,-5.79114,2.64601\H,0,9.5484,-0.90
 407,6.10611\H,0,9.01763,0.58184,6.81994\H,0,10.7563,0.2072,6.8788\H,0,
 9.7255,2.59347,7.47389\H,0,10.80057,4.10097,7.60945\H,0,11.45097,2.489
 75,7.19187\H,0,10.33779,5.88362,1.03289\H,0,9.08436,5.19609,-1.57728\H
 ,0,8.28964,6.8262,1.24674\H,0,7.61368,5.16031,1.30931\H,0,7.70142,5.96
 604,-0.1735\H,0,10.88765,6.93836,-1.28665\H,0,11.13137,5.83649,-2.6288
 4\H,0,12.42163,6.08151,-0.01019\H,0,13.21855,5.84932,-1.60889\H,0,12.4
 5696,4.46061,-0.71124\H,0,11.30222,0.81558,-5.54076\H,0,10.59846,2.347
 67,-4.92953\H,0,9.51192,0.92618,-5.19608\H,0,9.86779,-3.43883,-2.52687
 \H,0,12.41646,-6.83451,-3.27285\H,0,12.54526,-6.6463,-1.40954\H,0,13.5
 8474,-5.82558,-2.60038\\Version=ES64L-G16RevA.03\State=1-A\HF=-4069.81
 23633\RMSD=4.683e-09\PG=C01 [X(C68H72Mg2N8O8)]\\@


 I KNOW YOU BELIEVE YOU UNDERSTAND WHAT YOU THINK I SAID,
 BUT I AM NOT SURE YOU REALIZE THAT WHAT YOU HEARD IS NOT WHAT I MEANT.
 Job cpu time:       0 days 14 hours 12 minutes 58.6 seconds.
 Elapsed time:       0 days  0 hours 36 minutes 13.6 seconds.
 File lengths (MBytes):  RWF=  13225 Int=      0 D2E=      0 Chk=    574 Scr=      1
 Normal termination of Gaussian 16 at Sat Sep  4 06:45:54 2021.
