 Entering Gaussian System, Link 0=g16
 Initial command:
 /sw/apps/gaussian-16.0/g16/l1.exe "/tmp/Gau-255530.inp" -scrdir="/tmp/"
 Entering Link 1 = /sw/apps/gaussian-16.0/g16/l1.exe PID=    255531.
  
 Copyright (c) 1988,1990,1992,1993,1995,1998,2003,2009,2016,
            Gaussian, Inc.  All Rights Reserved.
  
 This is part of the Gaussian(R) 16 program.  It is based on
 the Gaussian(R) 09 system (copyright 2009, Gaussian, Inc.),
 the Gaussian(R) 03 system (copyright 2003, Gaussian, Inc.),
 the Gaussian(R) 98 system (copyright 1998, Gaussian, Inc.),
 the Gaussian(R) 94 system (copyright 1995, Gaussian, Inc.),
 the Gaussian 92(TM) system (copyright 1992, Gaussian, Inc.),
 the Gaussian 90(TM) system (copyright 1990, Gaussian, Inc.),
 the Gaussian 88(TM) system (copyright 1988, Gaussian, Inc.),
 the Gaussian 86(TM) system (copyright 1986, Carnegie Mellon
 University), and the Gaussian 82(TM) system (copyright 1983,
 Carnegie Mellon University). Gaussian is a federally registered
 trademark of Gaussian, Inc.
  
 This software contains proprietary and confidential information,
 including trade secrets, belonging to Gaussian, Inc.
  
 This software is provided under written license and may be
 used, copied, transmitted, or stored only in accord with that
 written license.
  
 The following legend is applicable only to US Government
 contracts under FAR:
  
                    RESTRICTED RIGHTS LEGEND
  
 Use, reproduction and disclosure by the US Government is
 subject to restrictions as set forth in subparagraphs (a)
 and (c) of the Commercial Computer Software - Restricted
 Rights clause in FAR 52.227-19.
  
 Gaussian, Inc.
 340 Quinnipiac St., Bldg. 40, Wallingford CT 06492
  
  
 ---------------------------------------------------------------
 Warning -- This program may not be used in any manner that
 competes with the business of Gaussian, Inc. or will provide
 assistance to any competitor of Gaussian, Inc.  The licensee
 of this program is prohibited from giving any competitor of
 Gaussian, Inc. access to this program.  By using this program,
 the user acknowledges that Gaussian, Inc. is engaged in the
 business of creating and licensing software in the field of
 computational chemistry and represents and warrants to the
 licensee that it is not a competitor of Gaussian, Inc. and that
 it will not use this program in any manner prohibited above.
 ---------------------------------------------------------------
  

 Cite this work as:
 Gaussian 16, Revision A.03,
 M. J. Frisch, G. W. Trucks, H. B. Schlegel, G. E. Scuseria, 
 M. A. Robb, J. R. Cheeseman, G. Scalmani, V. Barone, 
 G. A. Petersson, H. Nakatsuji, X. Li, M. Caricato, A. V. Marenich, 
 J. Bloino, B. G. Janesko, R. Gomperts, B. Mennucci, H. P. Hratchian, 
 J. V. Ortiz, A. F. Izmaylov, J. L. Sonnenberg, D. Williams-Young, 
 F. Ding, F. Lipparini, F. Egidi, J. Goings, B. Peng, A. Petrone, 
 T. Henderson, D. Ranasinghe, V. G. Zakrzewski, J. Gao, N. Rega, 
 G. Zheng, W. Liang, M. Hada, M. Ehara, K. Toyota, R. Fukuda, 
 J. Hasegawa, M. Ishida, T. Nakajima, Y. Honda, O. Kitao, H. Nakai, 
 T. Vreven, K. Throssell, J. A. Montgomery, Jr., J. E. Peralta, 
 F. Ogliaro, M. J. Bearpark, J. J. Heyd, E. N. Brothers, K. N. Kudin, 
 V. N. Staroverov, T. A. Keith, R. Kobayashi, J. Normand, 
 K. Raghavachari, A. P. Rendell, J. C. Burant, S. S. Iyengar, 
 J. Tomasi, M. Cossi, J. M. Millam, M. Klene, C. Adamo, R. Cammi, 
 J. W. Ochterski, R. L. Martin, K. Morokuma, O. Farkas, 
 J. B. Foresman, and D. J. Fox, Gaussian, Inc., Wallingford CT, 2016.
 
 ******************************************
 Gaussian 16:  ES64L-G16RevA.03 25-Dec-2016
                10-Sep-2021 
 ******************************************
 %nproc=24
 Will use up to   24 processors via shared memory.
 %mem=175gb
 -----------------------------------
 #p cam-b3lyp/Def2SVP td=(nstates=5)
 -----------------------------------
 1/38=1,172=1/1;
 2/12=2,17=6,18=5,40=1/2;
 3/5=43,7=101,11=9,25=1,30=1,74=-40/1,2,3,8;
 4//1;
 5/5=2,38=5/2;
 8/6=1,10=1,108=5/1;
 9/41=5,42=1,70=2/14;
 6/7=2,8=2,9=2,10=2/1;
 99/5=1,9=1/99;
 Leave Link    1 at Fri Sep 10 01:20:45 2021, MaxMem= 23488102400 cpu:               0.8 elap:               0.0
 (Enter /sw/apps/gaussian-16.0/g16/l101.exe)
 --------------------------------
 TDDFT excited states in gaussian
 --------------------------------
 Symbolic Z-matrix:
 Charge =  0 Multiplicity = 1
 Mg                    0.        0.        0. 
 C                    -0.217    -2.218     2.801 
 C                    -1.255     2.442     2.026 
 C                    -0.245     1.85     -2.564 
 C                     0.146    -2.824    -2.037 
 N                    -0.617    -0.009     2.126 
 C                    -0.594    -0.908     3.105 
 C                    -0.936    -0.309     4.502 
 C                    -1.773     0.964     4.032 
 C                    -1.155     1.168     2.66 
 C                    -3.263     0.685     3.863 
 C                     0.345     0.11      5.299 
 C                     0.124     0.397     6.787 
 H                     1.168     0.033     7.733 
 N                    -0.185     1.961    -0.152 
 C                    -0.703     2.8       0.777 
 C                    -0.62      4.156     0.193 
 C                    -0.187     4.015    -1.225 
 C                    -0.214     2.583    -1.38 
 C                    -0.887     5.406     0.974 
 C                     0.181     5.013    -2.277 
 O                     0.303     4.69     -3.508 
 C                     0.31      6.414    -1.837 
 N                    -0.265    -0.413    -2.029 
 C                    -0.279     0.569    -2.937 
 C                    -0.196     0.024    -4.332 
 C                     0.124    -1.533    -4.18 
 C                     0.086    -1.632    -2.635 
 C                    -1.451     0.205    -5.197 
 C                     1.373    -2.07     -4.923 
 C                     2.626    -1.49     -4.306 
 N                     0.15     -2.144     0.303 
 C                     0.173    -3.136    -0.688 
 C                     0.173    -4.438     0.004 
 C                     0.133    -4.111     1.358 
 C                     0.083    -2.695     1.502 
 C                     0.149    -5.715    -0.623 
 C                     0.096    -4.629     2.716 
 O                     0.208    -5.747     3.221 
 C                    -0.255    -3.428     3.701 
 C                     0.717    -3.482     4.848 
 O                     1.931    -3.255     4.669 
 O                     0.038    -3.556     6.003 
 C                     0.943    -3.583     7.183 
 H                    -1.859     3.22      2.497 
 H                    -0.218     2.453    -3.474 
 H                     0.276    -3.747    -2.605 
 H                    -1.554    -0.949     5.132 
 H                    -1.585     1.831     4.665 
 H                    -3.484    -0.377     3.969 
 H                    -3.511     1.027     2.858 
 H                    -3.852     1.301     4.543 
 H                     0.669     1.096     4.966 
 H                     1.13     -0.639     5.189 
 H                    -0.844     0.026     7.125 
 H                     0.062     1.477     6.921 
 H                    -1.344     5.186     1.938 
 H                    -1.651     5.963     0.432 
 H                     0.007     6.02      1.084 
 H                    -0.635     6.744    -1.405 
 H                     0.665     6.97     -2.704 
 H                     1.048     6.466    -1.036 
 H                     0.608     0.501    -4.891 
 H                    -0.692    -2.156    -4.547 
 H                    -1.267     0.74     -6.129 
 H                    -2.204     0.714    -4.596 
 H                    -1.967    -0.72     -5.453 
 H                     1.356    -1.759    -5.967 
 H                     1.452    -3.157    -4.902 
 H                     2.714    -0.522    -4.798 
 H                     3.487    -2.121    -4.529 
 H                     2.495    -1.303    -3.24 
 H                     0.867    -6.333    -0.084 
 H                     0.404    -5.642    -1.68 
 H                    -0.891    -5.999    -0.463 
 H                    -1.283    -3.581     4.028 
 H                     0.698    -4.478     7.755 
 H                     0.833    -2.619     7.68 
 H                     2.       -3.754     6.976 
 Mg                    8.93298   0.8089    0.68816 
 C                     6.9831   -1.67771   2.38928 
 C                     6.35115   2.97594   1.21038 
 C                     10.42627   2.88491  -1.19006 
 C                     10.80953  -1.79339  -0.67286 
 N                     6.97354   0.5633    1.68442 
 C                     6.36733  -0.40941   2.34826 
 C                     5.06418   0.02167   3.07319 
 C                     4.69411   1.29415   2.16616 
 C                     6.09409   1.66302   1.6797 
 C                     3.84474   0.94382   0.95571 
 C                     5.31885   0.43449   4.56541 
 C                     4.05645   0.56947   5.41974 
 H                     4.12181   0.17764   6.82497 
 N                     8.70275   2.77155   0.50491 
 C                     7.59502   3.49041   0.78322 
 C                     7.92998   4.88633   0.46174 
 C                     9.2704    4.91024  -0.18434 
 C                     9.51477   3.49001  -0.33708 
 C                     7.05011   6.04217   0.84028 
 C                     10.17606   6.02678  -0.60778 
 O                     11.18896   5.82151  -1.36589 
 C                     9.78904   7.38082  -0.18555 
 N                     10.26667   0.57695  -0.88976 
 C                     10.80731   1.64573  -1.50078 
 C                     11.93914   1.2377   -2.41339 
 C                     12.20557  -0.30828  -2.10266 
 C                     11.07284  -0.56041  -1.08347 
 C                     11.68568   1.41945  -3.90976 
 C                     13.6546  -0.70789  -1.71116 
 C                     14.00784  -0.11527  -0.36602 
 N                     9.04552  -1.33224   0.95448 
 C                     9.88423  -2.2347    0.2644 
 C                     9.51779  -3.59545   0.70769 
 C                     8.46742  -3.39005   1.61489 
 C                     8.18474  -2.00087   1.71371 
 C                     10.09847  -4.80762   0.23909 
 C                     7.5264   -4.0333    2.50338 
 O                     7.35122  -5.18596   2.89636 
 C                     6.43914  -2.96286   2.94883 
 C                     6.27289  -3.06274   4.44044 
 O                     7.20948  -2.76416   5.20219 
 O                     4.97656  -3.28323   4.72554 
 C                     4.75944  -3.37883   6.19371 
 H                     5.51339   3.66795   1.1201 
 H                     11.04464   3.56602  -1.77928 
 H                     11.41316  -2.65127  -0.97672 
 H                     4.26246  -0.70617   3.0375 
 H                     4.27465   2.09794   2.76562 
 H                     3.72868  -0.12358   0.84028 
 H                     4.36184   1.36265   0.10234 
 H                     2.8822    1.46063   1.00829 
 H                     5.67677   1.47171   4.59388 
 H                     6.00339  -0.24361   5.03681 
 H                     3.18109   0.11961   4.93565 
 H                     3.80328   1.62943   5.49976 
 H                     6.0556    5.70398   1.15646 
 H                     6.864     6.61535  -0.07443 
 H                     7.51227   6.69852   1.58074 
 H                     8.79809   7.60969  -0.57039 
 H                     10.60496   8.03138  -0.50637 
 H                     9.71397   7.3984    0.90746 
 H                     12.83732   1.80069  -2.19108 
 H                     11.99005  -0.94229  -2.97525 
 H                     12.43896   2.06059  -4.40533 
 H                     10.69276   1.82877  -4.04052 
 H                     11.63262   0.49646  -4.48462 
 H                     14.36814  -0.29577  -2.42892 
 H                     13.81313  -1.78067  -1.67924 
 H                     14.31778   0.90314  -0.61875 
 H                     14.82052  -0.6719    0.09632 
 H                     13.12241  -0.04063   0.27592 
 H                     10.26055  -5.43149   1.10801 
 H                     11.0269  -4.62244  -0.29711 
 H                     9.30452  -5.16043  -0.42457 
 H                     5.51507  -3.19392   2.41753 
 H                     4.26918  -4.33891   6.38233 
 H                     4.20209  -2.4651    6.4734 
 H                     5.63596  -3.46118   6.82567 
 
 ITRead=  0  0  0  0  0  0  0  0  0  0  0  0  0  0  0  0  0  0  0  0
 ITRead=  0  0  0  0  0  0  0  0  0  0  0  0  0  0  0  0  0  0  0  0
 ITRead=  0  0  0  0  0  0  0  0  0  0  0  0  0  0  0  0  0  0  0  0
 ITRead=  0  0  0  0  0  0  0  0  0  0  0  0  0  0  0  0  0  0  0  0
 ITRead=  0  0  0  0  0  0  0  0  0  0  0  0  0  0  0  0  0  0  0  0
 ITRead=  0  0  0  0  0  0  0  0  0  0  0  0  0  0  0  0  0  0  0  0
 ITRead=  0  0  0  0  0  0  0  0  0  0  0  0  0  0  0  0  0  0  0  0
 ITRead=  0  0  0  0  0  0  0  0  0  0  0  0  0  0  0  0  0  0
 MicOpt= -1 -1 -1 -1 -1 -1 -1 -1 -1 -1 -1 -1 -1 -1 -1 -1 -1 -1 -1 -1
 MicOpt= -1 -1 -1 -1 -1 -1 -1 -1 -1 -1 -1 -1 -1 -1 -1 -1 -1 -1 -1 -1
 MicOpt= -1 -1 -1 -1 -1 -1 -1 -1 -1 -1 -1 -1 -1 -1 -1 -1 -1 -1 -1 -1
 MicOpt= -1 -1 -1 -1 -1 -1 -1 -1 -1 -1 -1 -1 -1 -1 -1 -1 -1 -1 -1 -1
 MicOpt= -1 -1 -1 -1 -1 -1 -1 -1 -1 -1 -1 -1 -1 -1 -1 -1 -1 -1 -1 -1
 MicOpt= -1 -1 -1 -1 -1 -1 -1 -1 -1 -1 -1 -1 -1 -1 -1 -1 -1 -1 -1 -1
 MicOpt= -1 -1 -1 -1 -1 -1 -1 -1 -1 -1 -1 -1 -1 -1 -1 -1 -1 -1 -1 -1
 MicOpt= -1 -1 -1 -1 -1 -1 -1 -1 -1 -1 -1 -1 -1 -1 -1 -1 -1 -1
 NAtoms=    158 NQM=      158 NQMF=       0 NMMI=      0 NMMIF=      0
                NMic=       0 NMicF=      0.
                    Isotopes and Nuclear Properties:
 (Nuclear quadrupole moments (NQMom) in fm**2, nuclear magnetic moments (NMagM)
  in nuclear magnetons)

  Atom         1           2           3           4           5           6           7           8           9          10
 IAtWgt=          24          12          12          12          12          14          12          12          12          12
 AtmWgt=  23.9850450  12.0000000  12.0000000  12.0000000  12.0000000  14.0030740  12.0000000  12.0000000  12.0000000  12.0000000
 NucSpn=           0           0           0           0           0           2           0           0           0           0
 AtZEff=  -0.0000000  -0.0000000  -0.0000000  -0.0000000  -0.0000000  -0.0000000  -0.0000000  -0.0000000  -0.0000000  -0.0000000
 NQMom=    0.0000000   0.0000000   0.0000000   0.0000000   0.0000000   2.0440000   0.0000000   0.0000000   0.0000000   0.0000000
 NMagM=    0.0000000   0.0000000   0.0000000   0.0000000   0.0000000   0.4037610   0.0000000   0.0000000   0.0000000   0.0000000
 AtZNuc=  12.0000000   6.0000000   6.0000000   6.0000000   6.0000000   7.0000000   6.0000000   6.0000000   6.0000000   6.0000000

  Atom        11          12          13          14          15          16          17          18          19          20
 IAtWgt=          12          12          12           1          14          12          12          12          12          12
 AtmWgt=  12.0000000  12.0000000  12.0000000   1.0078250  14.0030740  12.0000000  12.0000000  12.0000000  12.0000000  12.0000000
 NucSpn=           0           0           0           1           2           0           0           0           0           0
 AtZEff=  -0.0000000  -0.0000000  -0.0000000  -0.0000000  -0.0000000  -0.0000000  -0.0000000  -0.0000000  -0.0000000  -0.0000000
 NQMom=    0.0000000   0.0000000   0.0000000   0.0000000   2.0440000   0.0000000   0.0000000   0.0000000   0.0000000   0.0000000
 NMagM=    0.0000000   0.0000000   0.0000000   2.7928460   0.4037610   0.0000000   0.0000000   0.0000000   0.0000000   0.0000000
 AtZNuc=   6.0000000   6.0000000   6.0000000   1.0000000   7.0000000   6.0000000   6.0000000   6.0000000   6.0000000   6.0000000

  Atom        21          22          23          24          25          26          27          28          29          30
 IAtWgt=          12          16          12          14          12          12          12          12          12          12
 AtmWgt=  12.0000000  15.9949146  12.0000000  14.0030740  12.0000000  12.0000000  12.0000000  12.0000000  12.0000000  12.0000000
 NucSpn=           0           0           0           2           0           0           0           0           0           0
 AtZEff=  -0.0000000  -0.0000000  -0.0000000  -0.0000000  -0.0000000  -0.0000000  -0.0000000  -0.0000000  -0.0000000  -0.0000000
 NQMom=    0.0000000   0.0000000   0.0000000   2.0440000   0.0000000   0.0000000   0.0000000   0.0000000   0.0000000   0.0000000
 NMagM=    0.0000000   0.0000000   0.0000000   0.4037610   0.0000000   0.0000000   0.0000000   0.0000000   0.0000000   0.0000000
 AtZNuc=   6.0000000   8.0000000   6.0000000   7.0000000   6.0000000   6.0000000   6.0000000   6.0000000   6.0000000   6.0000000

  Atom        31          32          33          34          35          36          37          38          39          40
 IAtWgt=          12          14          12          12          12          12          12          12          16          12
 AtmWgt=  12.0000000  14.0030740  12.0000000  12.0000000  12.0000000  12.0000000  12.0000000  12.0000000  15.9949146  12.0000000
 NucSpn=           0           2           0           0           0           0           0           0           0           0
 AtZEff=  -0.0000000  -0.0000000  -0.0000000  -0.0000000  -0.0000000  -0.0000000  -0.0000000  -0.0000000  -0.0000000  -0.0000000
 NQMom=    0.0000000   2.0440000   0.0000000   0.0000000   0.0000000   0.0000000   0.0000000   0.0000000   0.0000000   0.0000000
 NMagM=    0.0000000   0.4037610   0.0000000   0.0000000   0.0000000   0.0000000   0.0000000   0.0000000   0.0000000   0.0000000
 AtZNuc=   6.0000000   7.0000000   6.0000000   6.0000000   6.0000000   6.0000000   6.0000000   6.0000000   8.0000000   6.0000000

  Atom        41          42          43          44          45          46          47          48          49          50
 IAtWgt=          12          16          16          12           1           1           1           1           1           1
 AtmWgt=  12.0000000  15.9949146  15.9949146  12.0000000   1.0078250   1.0078250   1.0078250   1.0078250   1.0078250   1.0078250
 NucSpn=           0           0           0           0           1           1           1           1           1           1
 AtZEff=  -0.0000000  -0.0000000  -0.0000000  -0.0000000  -0.0000000  -0.0000000  -0.0000000  -0.0000000  -0.0000000  -0.0000000
 NQMom=    0.0000000   0.0000000   0.0000000   0.0000000   0.0000000   0.0000000   0.0000000   0.0000000   0.0000000   0.0000000
 NMagM=    0.0000000   0.0000000   0.0000000   0.0000000   2.7928460   2.7928460   2.7928460   2.7928460   2.7928460   2.7928460
 AtZNuc=   6.0000000   8.0000000   8.0000000   6.0000000   1.0000000   1.0000000   1.0000000   1.0000000   1.0000000   1.0000000

  Atom        51          52          53          54          55          56          57          58          59          60
 IAtWgt=           1           1           1           1           1           1           1           1           1           1
 AtmWgt=   1.0078250   1.0078250   1.0078250   1.0078250   1.0078250   1.0078250   1.0078250   1.0078250   1.0078250   1.0078250
 NucSpn=           1           1           1           1           1           1           1           1           1           1
 AtZEff=  -0.0000000  -0.0000000  -0.0000000  -0.0000000  -0.0000000  -0.0000000  -0.0000000  -0.0000000  -0.0000000  -0.0000000
 NQMom=    0.0000000   0.0000000   0.0000000   0.0000000   0.0000000   0.0000000   0.0000000   0.0000000   0.0000000   0.0000000
 NMagM=    2.7928460   2.7928460   2.7928460   2.7928460   2.7928460   2.7928460   2.7928460   2.7928460   2.7928460   2.7928460
 AtZNuc=   1.0000000   1.0000000   1.0000000   1.0000000   1.0000000   1.0000000   1.0000000   1.0000000   1.0000000   1.0000000

  Atom        61          62          63          64          65          66          67          68          69          70
 IAtWgt=           1           1           1           1           1           1           1           1           1           1
 AtmWgt=   1.0078250   1.0078250   1.0078250   1.0078250   1.0078250   1.0078250   1.0078250   1.0078250   1.0078250   1.0078250
 NucSpn=           1           1           1           1           1           1           1           1           1           1
 AtZEff=  -0.0000000  -0.0000000  -0.0000000  -0.0000000  -0.0000000  -0.0000000  -0.0000000  -0.0000000  -0.0000000  -0.0000000
 NQMom=    0.0000000   0.0000000   0.0000000   0.0000000   0.0000000   0.0000000   0.0000000   0.0000000   0.0000000   0.0000000
 NMagM=    2.7928460   2.7928460   2.7928460   2.7928460   2.7928460   2.7928460   2.7928460   2.7928460   2.7928460   2.7928460
 AtZNuc=   1.0000000   1.0000000   1.0000000   1.0000000   1.0000000   1.0000000   1.0000000   1.0000000   1.0000000   1.0000000

  Atom        71          72          73          74          75          76          77          78          79          80
 IAtWgt=           1           1           1           1           1           1           1           1           1          24
 AtmWgt=   1.0078250   1.0078250   1.0078250   1.0078250   1.0078250   1.0078250   1.0078250   1.0078250   1.0078250  23.9850450
 NucSpn=           1           1           1           1           1           1           1           1           1           0
 AtZEff=  -0.0000000  -0.0000000  -0.0000000  -0.0000000  -0.0000000  -0.0000000  -0.0000000  -0.0000000  -0.0000000  -0.0000000
 NQMom=    0.0000000   0.0000000   0.0000000   0.0000000   0.0000000   0.0000000   0.0000000   0.0000000   0.0000000   0.0000000
 NMagM=    2.7928460   2.7928460   2.7928460   2.7928460   2.7928460   2.7928460   2.7928460   2.7928460   2.7928460   0.0000000
 AtZNuc=   1.0000000   1.0000000   1.0000000   1.0000000   1.0000000   1.0000000   1.0000000   1.0000000   1.0000000  12.0000000

  Atom        81          82          83          84          85          86          87          88          89          90
 IAtWgt=          12          12          12          12          14          12          12          12          12          12
 AtmWgt=  12.0000000  12.0000000  12.0000000  12.0000000  14.0030740  12.0000000  12.0000000  12.0000000  12.0000000  12.0000000
 NucSpn=           0           0           0           0           2           0           0           0           0           0
 AtZEff=  -0.0000000  -0.0000000  -0.0000000  -0.0000000  -0.0000000  -0.0000000  -0.0000000  -0.0000000  -0.0000000  -0.0000000
 NQMom=    0.0000000   0.0000000   0.0000000   0.0000000   2.0440000   0.0000000   0.0000000   0.0000000   0.0000000   0.0000000
 NMagM=    0.0000000   0.0000000   0.0000000   0.0000000   0.4037610   0.0000000   0.0000000   0.0000000   0.0000000   0.0000000
 AtZNuc=   6.0000000   6.0000000   6.0000000   6.0000000   7.0000000   6.0000000   6.0000000   6.0000000   6.0000000   6.0000000

  Atom        91          92          93          94          95          96          97          98          99         100
 IAtWgt=          12          12           1          14          12          12          12          12          12          12
 AtmWgt=  12.0000000  12.0000000   1.0078250  14.0030740  12.0000000  12.0000000  12.0000000  12.0000000  12.0000000  12.0000000
 NucSpn=           0           0           1           2           0           0           0           0           0           0
 AtZEff=  -0.0000000  -0.0000000  -0.0000000  -0.0000000  -0.0000000  -0.0000000  -0.0000000  -0.0000000  -0.0000000  -0.0000000
 NQMom=    0.0000000   0.0000000   0.0000000   2.0440000   0.0000000   0.0000000   0.0000000   0.0000000   0.0000000   0.0000000
 NMagM=    0.0000000   0.0000000   2.7928460   0.4037610   0.0000000   0.0000000   0.0000000   0.0000000   0.0000000   0.0000000
 AtZNuc=   6.0000000   6.0000000   1.0000000   7.0000000   6.0000000   6.0000000   6.0000000   6.0000000   6.0000000   6.0000000

  Atom       101         102         103         104         105         106         107         108         109         110
 IAtWgt=          16          12          14          12          12          12          12          12          12          12
 AtmWgt=  15.9949146  12.0000000  14.0030740  12.0000000  12.0000000  12.0000000  12.0000000  12.0000000  12.0000000  12.0000000
 NucSpn=           0           0           2           0           0           0           0           0           0           0
 AtZEff=  -0.0000000  -0.0000000  -0.0000000  -0.0000000  -0.0000000  -0.0000000  -0.0000000  -0.0000000  -0.0000000  -0.0000000
 NQMom=    0.0000000   0.0000000   2.0440000   0.0000000   0.0000000   0.0000000   0.0000000   0.0000000   0.0000000   0.0000000
 NMagM=    0.0000000   0.0000000   0.4037610   0.0000000   0.0000000   0.0000000   0.0000000   0.0000000   0.0000000   0.0000000
 AtZNuc=   8.0000000   6.0000000   7.0000000   6.0000000   6.0000000   6.0000000   6.0000000   6.0000000   6.0000000   6.0000000

  Atom       111         112         113         114         115         116         117         118         119         120
 IAtWgt=          14          12          12          12          12          12          12          16          12          12
 AtmWgt=  14.0030740  12.0000000  12.0000000  12.0000000  12.0000000  12.0000000  12.0000000  15.9949146  12.0000000  12.0000000
 NucSpn=           2           0           0           0           0           0           0           0           0           0
 AtZEff=  -0.0000000  -0.0000000  -0.0000000  -0.0000000  -0.0000000  -0.0000000  -0.0000000  -0.0000000  -0.0000000  -0.0000000
 NQMom=    2.0440000   0.0000000   0.0000000   0.0000000   0.0000000   0.0000000   0.0000000   0.0000000   0.0000000   0.0000000
 NMagM=    0.4037610   0.0000000   0.0000000   0.0000000   0.0000000   0.0000000   0.0000000   0.0000000   0.0000000   0.0000000
 AtZNuc=   7.0000000   6.0000000   6.0000000   6.0000000   6.0000000   6.0000000   6.0000000   8.0000000   6.0000000   6.0000000

  Atom       121         122         123         124         125         126         127         128         129         130
 IAtWgt=          16          16          12           1           1           1           1           1           1           1
 AtmWgt=  15.9949146  15.9949146  12.0000000   1.0078250   1.0078250   1.0078250   1.0078250   1.0078250   1.0078250   1.0078250
 NucSpn=           0           0           0           1           1           1           1           1           1           1
 AtZEff=  -0.0000000  -0.0000000  -0.0000000  -0.0000000  -0.0000000  -0.0000000  -0.0000000  -0.0000000  -0.0000000  -0.0000000
 NQMom=    0.0000000   0.0000000   0.0000000   0.0000000   0.0000000   0.0000000   0.0000000   0.0000000   0.0000000   0.0000000
 NMagM=    0.0000000   0.0000000   0.0000000   2.7928460   2.7928460   2.7928460   2.7928460   2.7928460   2.7928460   2.7928460
 AtZNuc=   8.0000000   8.0000000   6.0000000   1.0000000   1.0000000   1.0000000   1.0000000   1.0000000   1.0000000   1.0000000

  Atom       131         132         133         134         135         136         137         138         139         140
 IAtWgt=           1           1           1           1           1           1           1           1           1           1
 AtmWgt=   1.0078250   1.0078250   1.0078250   1.0078250   1.0078250   1.0078250   1.0078250   1.0078250   1.0078250   1.0078250
 NucSpn=           1           1           1           1           1           1           1           1           1           1
 AtZEff=  -0.0000000  -0.0000000  -0.0000000  -0.0000000  -0.0000000  -0.0000000  -0.0000000  -0.0000000  -0.0000000  -0.0000000
 NQMom=    0.0000000   0.0000000   0.0000000   0.0000000   0.0000000   0.0000000   0.0000000   0.0000000   0.0000000   0.0000000
 NMagM=    2.7928460   2.7928460   2.7928460   2.7928460   2.7928460   2.7928460   2.7928460   2.7928460   2.7928460   2.7928460
 AtZNuc=   1.0000000   1.0000000   1.0000000   1.0000000   1.0000000   1.0000000   1.0000000   1.0000000   1.0000000   1.0000000

  Atom       141         142         143         144         145         146         147         148         149         150
 IAtWgt=           1           1           1           1           1           1           1           1           1           1
 AtmWgt=   1.0078250   1.0078250   1.0078250   1.0078250   1.0078250   1.0078250   1.0078250   1.0078250   1.0078250   1.0078250
 NucSpn=           1           1           1           1           1           1           1           1           1           1
 AtZEff=  -0.0000000  -0.0000000  -0.0000000  -0.0000000  -0.0000000  -0.0000000  -0.0000000  -0.0000000  -0.0000000  -0.0000000
 NQMom=    0.0000000   0.0000000   0.0000000   0.0000000   0.0000000   0.0000000   0.0000000   0.0000000   0.0000000   0.0000000
 NMagM=    2.7928460   2.7928460   2.7928460   2.7928460   2.7928460   2.7928460   2.7928460   2.7928460   2.7928460   2.7928460
 AtZNuc=   1.0000000   1.0000000   1.0000000   1.0000000   1.0000000   1.0000000   1.0000000   1.0000000   1.0000000   1.0000000

  Atom       151         152         153         154         155         156         157         158
 IAtWgt=           1           1           1           1           1           1           1           1
 AtmWgt=   1.0078250   1.0078250   1.0078250   1.0078250   1.0078250   1.0078250   1.0078250   1.0078250
 NucSpn=           1           1           1           1           1           1           1           1
 AtZEff=  -0.0000000  -0.0000000  -0.0000000  -0.0000000  -0.0000000  -0.0000000  -0.0000000  -0.0000000
 NQMom=    0.0000000   0.0000000   0.0000000   0.0000000   0.0000000   0.0000000   0.0000000   0.0000000
 NMagM=    2.7928460   2.7928460   2.7928460   2.7928460   2.7928460   2.7928460   2.7928460   2.7928460
 AtZNuc=   1.0000000   1.0000000   1.0000000   1.0000000   1.0000000   1.0000000   1.0000000   1.0000000
 Leave Link  101 at Fri Sep 10 01:20:45 2021, MaxMem= 23488102400 cpu:               3.9 elap:               0.2
 (Enter /sw/apps/gaussian-16.0/g16/l202.exe)
 Stoichiometry    C68H72Mg2N8O8
 Framework group  C1[X(C68H72Mg2N8O8)]
 Deg. of freedom   468
 Full point group                 C1      NOp   1
 Largest Abelian subgroup         C1      NOp   1
 Largest concise Abelian subgroup C1      NOp   1
                         Standard orientation:                         
 ---------------------------------------------------------------------
 Center     Atomic      Atomic             Coordinates (Angstroms)
 Number     Number       Type             X           Y           Z
 ---------------------------------------------------------------------
      1         12           0        3.883022    1.513278    0.811809
      2          6           0        4.944801   -1.797477   -0.038920
      3          6           0        5.033857    2.506964   -2.242898
      4          6           0        3.372234    4.509900    1.715123
      5          6           0        3.871480    0.494231    4.144536
      6          7           0        4.845308    0.402095   -0.843463
      7          6           0        5.141353   -0.874220   -1.068292
      8          6           0        5.609955   -1.151885   -2.527980
      9          6           0        6.127640    0.307410   -2.908059
     10          6           0        5.259758    1.125479   -1.968130
     11          6           0        7.592549    0.545122   -2.555868
     12          6           0        4.431174   -1.601210   -3.455511
     13          6           0        4.850468   -2.202313   -4.800213
     14          1           0        4.059335   -3.288218   -5.359022
     15          7           0        3.705663    3.162392   -0.261418
     16          6           0        4.224978    3.387380   -1.492263
     17          6           0        3.816074    4.759361   -1.862598
     18          6           0        3.178222    5.381772   -0.669349
     19          6           0        3.419843    4.372521    0.329855
     20          6           0        3.997129    5.329478   -3.235891
     21          6           0        2.473440    6.684678   -0.459945
     22          8           0        2.200069    7.130271    0.706798
     23          6           0        2.186521    7.478065   -1.668770
     24          7           0        3.864777    2.450722    2.676883
     25          6           0        3.558062    3.747282    2.794534
     26          6           0        3.332131    4.127032    4.227951
     27          6           0        3.310214    2.758119    5.049748
     28          6           0        3.626715    1.781654    3.890173
     29          6           0        4.372793    5.073954    4.841442
     30          6           0        2.061871    2.483489    5.925326
     31          6           0        0.852461    2.271158    5.042522
     32          7           0        4.150952   -0.357809    1.878717
     33          6           0        4.127489   -0.546998    3.268080
     34          6           0        4.465072   -1.960495    3.517342
     35          6           0        4.679087   -2.494839    2.248280
     36          6           0        4.513051   -1.473193    1.270035
     37          6           0        4.597295   -2.572961    4.794775
     38          6           0        5.033544   -3.685387    1.492758
     39          8           0        5.199505   -4.873250    1.773707
     40          6           0        5.339135   -3.253210   -0.009129
     41          6           0        4.599763   -4.200653   -0.914109
     42          8           0        3.352373   -4.208258   -0.950515
     43          8           0        5.467993   -4.776081   -1.760041
     44          6           0        4.794724   -5.706155   -2.705465
     45          1           0        5.569031    2.974686   -3.071611
     46          1           0        3.089366    5.504951    2.064830
     47          1           0        3.804462    0.084095    5.153868
     48          1           0        6.425196   -1.870416   -2.614692
     49          1           0        5.906445    0.560482   -3.944760
     50          1           0        8.004453   -0.285611   -1.983034
     51          1           0        7.604565    1.459650   -1.962584
     52          1           0        8.176076    0.761103   -3.451203
     53          1           0        3.893479   -0.720137   -3.805732
     54          1           0        3.776808   -2.301898   -2.935736
     55          1           0        5.910399   -2.457992   -4.809347
     56          1           0        4.751111   -1.431643   -5.564670
     57          1           0        4.641983    4.700837   -3.848687
     58          1           0        4.552583    6.260364   -3.123500
     59          1           0        3.044242    5.526988   -3.727143
     60          1           0        3.121759    7.703454   -2.181682
     61          1           0        1.600468    8.333576   -1.334867
     62          1           0        1.597555    6.871700   -2.357530
     63          1           0        2.375916    4.633620    4.352239
     64          1           0        4.145164    2.686325    5.747156
     65          1           0        3.945240    5.992095    5.245076
     66          1           0        5.120163    5.292664    4.079277
     67          1           0        4.986368    4.632164    5.626149
     68          1           0        1.848220    3.342129    6.560965
     69          1           0        2.172280    1.612178    6.570987
     70          1           0        0.519869    3.287922    4.836598
     71          1           0        0.085159    1.710105    5.577011
     72          1           0        1.129457    1.819657    4.089681
     73          1           0        4.096289   -3.538304    4.723544
     74          1           0        4.157548   -1.955244    5.577496
     75          1           0        5.682150   -2.639567    4.875461
     76          1           0        6.418637   -3.319662   -0.140965
     77          1           0        5.281026   -6.676267   -2.602376
     78          1           0        4.823321   -5.227307   -3.684389
     79          1           0        3.762191   -5.967624   -2.471268
     80         12           0       -4.808991   -0.388300   -0.514439
     81          6           0       -2.206656   -2.847954   -0.275638
     82          6           0       -2.579466    1.592753   -2.169513
     83          6           0       -6.928856    1.966635   -0.347422
     84          6           0       -6.423038   -2.044753    2.092617
     85          7           0       -2.695691   -0.698818   -1.088721
     86          6           0       -1.829962   -1.697225   -0.999079
     87          6           0       -0.514239   -1.480971   -1.793849
     88          6           0       -0.524146    0.124124   -1.843161
     89          6           0       -2.028365    0.362886   -1.729267
     90          6           0        0.153643    0.767243   -0.644682
     91          6           0       -0.577273   -2.100297   -3.234148
     92          6           0        0.770902   -2.198721   -3.951429
     93          1           0        1.012716   -3.343848   -4.824747
     94          7           0       -4.948034    1.291219   -1.562516
     95          6           0       -3.946619    1.946250   -2.186521
     96          6           0       -4.562207    3.134788   -2.796907
     97          6           0       -5.977518    3.214973   -2.343939
     98          6           0       -6.000957    2.149028   -1.362454
     99          6           0       -3.838734    4.014486   -3.774735
    100          6           0       -7.117344    4.111987   -2.721225
    101          8           0       -8.195052    4.158738   -2.028988
    102          6           0       -6.898383    5.002106   -3.870673
    103          7           0       -6.333128    0.043947    0.831863
    104          6           0       -7.142431    1.101112    0.643820
    105          6           0       -8.327657    1.053787    1.578371
    106          6           0       -8.272418   -0.387268    2.269674
    107          6           0       -6.956720   -0.912701    1.654650
    108          6           0       -8.366893    2.134836    2.658275
    109          6           0       -9.545112   -1.270679    2.157947
    110          6           0       -9.759226   -1.687912    0.720780
    111          7           0       -4.511417   -2.226698    0.580921
    112          6           0       -5.290722   -2.717482    1.651385
    113          6           0       -4.629783   -3.943022    2.144982
    114          6           0       -3.490351   -4.068486    1.336013
    115          6           0       -3.433651   -2.985719    0.417376
    116          6           0       -5.068603   -4.742205    3.238085
    117          6           0       -2.316975   -4.864877    1.057346
    118          8           0       -1.885416   -5.945408    1.457290
    119          6           0       -1.366355   -4.041290    0.085530
    120          6           0       -0.934279   -4.956559   -1.027173
    121          8           0       -1.764357   -5.396412   -1.842104
    122          8           0        0.409996   -4.986787   -1.075973
    123          6           0        0.886748   -5.872874   -2.171126
    124          1           0       -1.898334    2.379754   -2.494411
    125          1           0       -7.744458    2.692862   -0.318102
    126          1           0       -6.915926   -2.672463    2.838070
    127          1           0        0.380924   -1.832112   -1.294687
    128          1           0       -0.150627    0.492367   -2.795136
    129          1           0        0.426901    0.037682    0.103120
    130          1           0       -0.564305    1.470205   -0.242879
    131          1           0        1.009806    1.364416   -0.971345
    132          1           0       -1.095040   -1.400354   -3.902534
    133          1           0       -1.047149   -3.064375   -3.214107
    134          1           0        1.614324   -2.053699   -3.265441
    135          1           0        0.851339   -1.366371   -4.654805
    136          1           0       -2.762318    3.803303   -3.785834
    137          1           0       -3.910473    5.039882   -3.396208
    138          1           0       -4.272244    3.976391   -4.776377
    139          1           0       -6.040451    5.640814   -3.674531
    140          1           0       -7.854946    5.499886   -4.041202
    141          1           0       -6.642485    4.390476   -4.743049
    142          1           0       -9.256878    1.144801    1.029399
    143          1           0       -8.104611   -0.312757    3.354165
    144          1           0       -9.290787    2.743025    2.633666
    145          1           0       -7.494283    2.764006    2.543263
    146          1           0       -8.257356    1.772228    3.678915
    147          1           0      -10.429564   -0.699349    2.450330
    148          1           0       -9.512457   -2.156315    2.783719
    149          1           0      -10.275085   -0.825673    0.287735
    150          1           0      -10.375558   -2.583209    0.669568
    151          1           0       -8.802983   -1.797567    0.196166
    152          1           0       -4.972767   -5.774134    2.927530
    153          1           0       -6.092469   -4.504149    3.518821
    154          1           0       -4.351158   -4.435861    4.004051
    155          1           0       -0.520619   -3.687802    0.676589
    156          1           0        1.556912   -6.609476   -1.717272
    157          1           0        1.321162   -5.198769   -2.933120
    158          1           0        0.157220   -6.516536   -2.648548
 ---------------------------------------------------------------------
 Rotational constants (GHZ):           0.0241977           0.0149890           0.0125457
 Leave Link  202 at Fri Sep 10 01:20:45 2021, MaxMem= 23488102400 cpu:               0.0 elap:               0.0
 (Enter /sw/apps/gaussian-16.0/g16/l301.exe)
 Standard basis: def2SVP (5D, 7F)
 Ernie: Thresh=  0.10000D-02 Tol=  0.10000D-05 Strict=F.
 There are  1658 symmetry adapted cartesian basis functions of A   symmetry.
 There are  1572 symmetry adapted basis functions of A   symmetry.
  1572 basis functions,  2678 primitive gaussians,  1658 cartesian basis functions
   312 alpha electrons      312 beta electrons
       nuclear repulsion energy     15992.1492712124 Hartrees.
 IExCor=20419 DFT=T Ex+Corr=CAM-B3LYP ExCW=0 ScaHFX=  1.000000
 ScaDFX=  1.000000  1.000000  1.000000  0.810000 ScalE2=  1.000000  1.000000
 IRadAn=      5 IRanWt=     -1 IRanGd=            0 ICorTp=0 IEmpDi=  4
 HFx  wShort=  0.000000 wLong=  0.330000 cFull=  0.190000 cShort=  0.000000 cLong=  0.460000
 DFx  wShort=  0.000000 wLong=  0.330000 cFull=  0.190000 cShort=  0.000000 cLong=  0.460000
 NAtoms=  158 NActive=  158 NUniq=  158 SFac= 1.00D+00 NAtFMM=   60 NAOKFM=T Big=T
 Integral buffers will be    131072 words long.
 Raffenetti 1 integral format.
 Two-electron integral symmetry is turned on.
 Leave Link  301 at Fri Sep 10 01:20:45 2021, MaxMem= 23488102400 cpu:               1.5 elap:               0.1
 (Enter /sw/apps/gaussian-16.0/g16/l302.exe)
 NPDir=0 NMtPBC=     1 NCelOv=     1 NCel=       1 NClECP=     1 NCelD=      1
         NCelK=      1 NCelE2=     1 NClLst=     1 CellRange=     0.0.
 One-electron integrals computed using PRISM.
 One-electron integral symmetry used in STVInt
   1 Symmetry operations used in ECPInt.
 ECPInt:  NShTT=  271216 NPrTT=  987664 LenC2=  160322 LenP2D=  338263.
 LDataN:  DoStor=T MaxTD1= 4 Len=   56
 NBasis=  1572 RedAO= T EigKep=  3.29D-04  NBF=  1572
 NBsUse=  1572 1.00D-06 EigRej= -1.00D+00 NBFU=  1572
 Precomputing XC quadrature grid using
 IXCGrd= 4 IRadAn=           5 IRanWt=          -1 IRanGd=           0 AccXCQ= 0.00D+00.
 Generated NRdTot=       0 NPtTot=           0 NUsed=           0 NTot=          32
 NSgBfM=  1416  1397  1403  1413  1416 MxSgAt=   158 MxSgA2=   158.
 Leave Link  302 at Fri Sep 10 01:20:51 2021, MaxMem= 23488102400 cpu:             141.2 elap:               5.9
 (Enter /sw/apps/gaussian-16.0/g16/l303.exe)
 DipDrv:  MaxL=1.
 Leave Link  303 at Fri Sep 10 01:20:52 2021, MaxMem= 23488102400 cpu:              10.1 elap:               0.5
 (Enter /sw/apps/gaussian-16.0/g16/l308.exe)
 Leave Link  308 at Fri Sep 10 01:20:53 2021, MaxMem= 23488102400 cpu:              18.5 elap:               0.9
 (Enter /sw/apps/gaussian-16.0/g16/l401.exe)
 ExpMin= 3.36D-02 ExpMax= 4.95D+03 ExpMxC= 7.45D+02 IAcc=3 IRadAn=         5 AccDes= 0.00D+00
 Harris functional with IExCor=20419 and IRadAn=       5 diagonalized for initial guess.
 HarFok:  IExCor=20419 AccDes= 0.00D+00 IRadAn=         5 IDoV= 1 UseB2=F ITyADJ=14
 ICtDFT=  3500011 ScaDFX=  1.000000  1.000000  1.000000  1.000000
 FoFCou: FMM=F IPFlag=           0 FMFlag=      100000 FMFlg1=        2001
         NFxFlg=           0 DoJE=T BraDBF=F KetDBF=T FulRan=T
         wScrn=  0.000000 ICntrl=       500 IOpCl=  0 I1Cent=   200000004 NGrid=           0
         NMat0=    1 NMatS0=      1 NMatT0=    0 NMatD0=    1 NMtDS0=    0 NMtDT0=    0
 Petite list used in FoFCou.
 Harris En= -3918.66156117140    
 JPrj=0 DoOrth=F DoCkMO=F.
 Leave Link  401 at Fri Sep 10 01:21:01 2021, MaxMem= 23488102400 cpu:             210.5 elap:               8.8
 (Enter /sw/apps/gaussian-16.0/g16/l502.exe)
 Integral symmetry usage will be decided dynamically.
 Closed shell SCF:
 Using DIIS extrapolation, IDIIS=  1040.
 NGot= 23488102400 LenX= 23482547354 LenY= 23479796732
 Requested convergence on RMS density matrix=1.00D-08 within 128 cycles.
 Requested convergence on MAX density matrix=1.00D-06.
 Requested convergence on             energy=1.00D-06.
 No special actions if energy rises.
 Fock matrices will be formed incrementally for  20 cycles.

 Cycle   1  Pass 1  IDiag  1:
 FoFJK:  IHMeth= 1 ICntrl=       0 DoSepK=T KAlg= 0 I1Cent=           0 FoldK=F
 IRaf=         1 NMat=       1 IRICut=       1 DoRegI=T DoRafI=F ISym2E= 0 IDoP0=0 IntGTp=1.
 FoFCou: FMM=T IPFlag=           0 FMFlag=      100000 FMFlg1=        2001
         NFxFlg=           0 DoJE=T BraDBF=F KetDBF=F FulRan=T
         wScrn=  0.000000 ICntrl=       500 IOpCl=  0 I1Cent=           0 NGrid=           0
         NMat0=    1 NMatS0=      1 NMatT0=    0 NMatD0=    1 NMtDS0=    0 NMtDT0=    0
 Symmetry not used in FoFCou.
 FMM levels:  10  Number of levels for PrismC:   9
 E= -4068.94796918439    
 DIIS: error= 2.42D-02 at cycle   1 NSaved=   1.
 NSaved= 1 IEnMin= 1 EnMin= -4068.94796918439     IErMin= 1 ErrMin= 2.42D-02
 ErrMax= 2.42D-02  0.00D+00 EMaxC= 1.00D-01 BMatC= 1.69D+00 BMatP= 1.69D+00
 IDIUse=3 WtCom= 7.58D-01 WtEn= 2.42D-01
 Coeff-Com:  0.100D+01
 Coeff-En:   0.100D+01
 Coeff:      0.100D+01
 Gap=     0.123 Goal=   None    Shift=    0.000
 GapD=    0.123 DampG=1.000 DampE=0.500 DampFc=0.5000 IDamp=-1.
 Damping current iteration by 5.00D-01
 RMSDP=1.59D-03 MaxDP=1.41D-01              OVMax= 2.15D-01

 Cycle   2  Pass 1  IDiag  1:
 RMSU=  7.76D-04    CP:  9.82D-01
 E= -4069.33866164060     Delta-E=       -0.390692456203 Rises=F Damp=T
 DIIS: error= 1.46D-02 at cycle   2 NSaved=   2.
 NSaved= 2 IEnMin= 2 EnMin= -4069.33866164060     IErMin= 2 ErrMin= 1.46D-02
 ErrMax= 1.46D-02  0.00D+00 EMaxC= 1.00D-01 BMatC= 3.06D-01 BMatP= 1.69D+00
 IDIUse=3 WtCom= 8.54D-01 WtEn= 1.46D-01
 Coeff-Com: -0.217D+00 0.122D+01
 Coeff-En:   0.000D+00 0.100D+01
 Coeff:     -0.185D+00 0.119D+01
 Gap=     0.131 Goal=   None    Shift=    0.000
 RMSDP=7.71D-04 MaxDP=9.45D-02 DE=-3.91D-01 OVMax= 1.93D-01

 Cycle   3  Pass 1  IDiag  1:
 RMSU=  7.38D-04    CP:  9.68D-01  1.24D+00
 E= -4069.63060096644     Delta-E=       -0.291939325842 Rises=F Damp=F
 DIIS: error= 1.53D-02 at cycle   3 NSaved=   3.
 NSaved= 3 IEnMin= 3 EnMin= -4069.63060096644     IErMin= 2 ErrMin= 1.46D-02
 ErrMax= 1.53D-02  0.00D+00 EMaxC= 1.00D-01 BMatC= 1.96D-01 BMatP= 3.06D-01
 IDIUse=3 WtCom= 8.47D-01 WtEn= 1.53D-01
 Coeff-Com: -0.265D+00 0.647D+00 0.618D+00
 Coeff-En:   0.000D+00 0.000D+00 0.100D+01
 Coeff:     -0.225D+00 0.549D+00 0.676D+00
 Gap=     0.116 Goal=   None    Shift=    0.000
 RMSDP=5.15D-04 MaxDP=4.73D-02 DE=-2.92D-01 OVMax= 1.57D-01

 Cycle   4  Pass 1  IDiag  1:
 RMSU=  2.70D-04    CP:  9.64D-01  1.55D+00  5.02D-01
 E= -4069.76536525946     Delta-E=       -0.134764293023 Rises=F Damp=F
 DIIS: error= 6.62D-03 at cycle   4 NSaved=   4.
 NSaved= 4 IEnMin= 4 EnMin= -4069.76536525946     IErMin= 4 ErrMin= 6.62D-03
 ErrMax= 6.62D-03  0.00D+00 EMaxC= 1.00D-01 BMatC= 4.87D-02 BMatP= 1.96D-01
 IDIUse=3 WtCom= 9.34D-01 WtEn= 6.62D-02
 Coeff-Com: -0.109D+00 0.227D+00 0.409D+00 0.473D+00
 Coeff-En:   0.000D+00 0.000D+00 0.226D+00 0.774D+00
 Coeff:     -0.102D+00 0.212D+00 0.397D+00 0.493D+00
 Gap=     0.117 Goal=   None    Shift=    0.000
 RMSDP=2.08D-04 MaxDP=1.66D-02 DE=-1.35D-01 OVMax= 7.22D-02

 Cycle   5  Pass 1  IDiag  1:
 RMSU=  8.09D-05    CP:  9.64D-01  1.49D+00  6.90D-01  5.42D-01
 E= -4069.81143388429     Delta-E=       -0.046068624830 Rises=F Damp=F
 DIIS: error= 6.00D-04 at cycle   5 NSaved=   5.
 NSaved= 5 IEnMin= 5 EnMin= -4069.81143388429     IErMin= 5 ErrMin= 6.00D-04
 ErrMax= 6.00D-04  0.00D+00 EMaxC= 1.00D-01 BMatC= 1.32D-03 BMatP= 4.87D-02
 IDIUse=3 WtCom= 9.94D-01 WtEn= 6.00D-03
 Coeff-Com: -0.387D-01 0.764D-01 0.176D+00 0.258D+00 0.529D+00
 Coeff-En:   0.000D+00 0.000D+00 0.000D+00 0.000D+00 0.100D+01
 Coeff:     -0.385D-01 0.759D-01 0.175D+00 0.256D+00 0.532D+00
 Gap=     0.116 Goal=   None    Shift=    0.000
 RMSDP=4.78D-05 MaxDP=5.01D-03 DE=-4.61D-02 OVMax= 2.24D-02

 Cycle   6  Pass 1  IDiag  1:
 RMSU=  3.40D-05    CP:  9.64D-01  1.50D+00  6.79D-01  6.22D-01  7.08D-01
 E= -4069.81268907964     Delta-E=       -0.001255195348 Rises=F Damp=F
 DIIS: error= 1.88D-04 at cycle   6 NSaved=   6.
 NSaved= 6 IEnMin= 6 EnMin= -4069.81268907964     IErMin= 6 ErrMin= 1.88D-04
 ErrMax= 1.88D-04  0.00D+00 EMaxC= 1.00D-01 BMatC= 2.31D-04 BMatP= 1.32D-03
 IDIUse=3 WtCom= 9.98D-01 WtEn= 1.88D-03
 Coeff-Com:  0.115D-02-0.459D-02 0.163D-01 0.462D-01 0.316D+00 0.625D+00
 Coeff-En:   0.000D+00 0.000D+00 0.000D+00 0.000D+00 0.147D+00 0.853D+00
 Coeff:      0.115D-02-0.458D-02 0.162D-01 0.461D-01 0.315D+00 0.626D+00
 Gap=     0.116 Goal=   None    Shift=    0.000
 RMSDP=1.89D-05 MaxDP=1.34D-03 DE=-1.26D-03 OVMax= 8.66D-03

 Cycle   7  Pass 1  IDiag  1:
 RMSU=  1.18D-05    CP:  9.64D-01  1.50D+00  6.86D-01  6.18D-01  8.29D-01
                    CP:  7.17D-01
 E= -4069.81295773468     Delta-E=       -0.000268655043 Rises=F Damp=F
 DIIS: error= 1.48D-04 at cycle   7 NSaved=   7.
 NSaved= 7 IEnMin= 7 EnMin= -4069.81295773468     IErMin= 7 ErrMin= 1.48D-04
 ErrMax= 1.48D-04  0.00D+00 EMaxC= 1.00D-01 BMatC= 2.91D-05 BMatP= 2.31D-04
 IDIUse=3 WtCom= 9.99D-01 WtEn= 1.48D-03
 Coeff-Com:  0.458D-02-0.101D-01-0.847D-02-0.271D-02 0.115D+00 0.337D+00
 Coeff-Com:  0.565D+00
 Coeff-En:   0.000D+00 0.000D+00 0.000D+00 0.000D+00 0.000D+00 0.000D+00
 Coeff-En:   0.100D+01
 Coeff:      0.457D-02-0.101D-01-0.846D-02-0.270D-02 0.115D+00 0.336D+00
 Coeff:      0.565D+00
 Gap=     0.117 Goal=   None    Shift=    0.000
 RMSDP=7.04D-06 MaxDP=1.19D-03 DE=-2.69D-04 OVMax= 3.51D-03

 Cycle   8  Pass 1  IDiag  1:
 RMSU=  5.08D-06    CP:  9.64D-01  1.50D+00  6.87D-01  6.23D-01  8.29D-01
                    CP:  8.36D-01  8.20D-01
 E= -4069.81299324641     Delta-E=       -0.000035511726 Rises=F Damp=F
 DIIS: error= 5.31D-05 at cycle   8 NSaved=   8.
 NSaved= 8 IEnMin= 8 EnMin= -4069.81299324641     IErMin= 8 ErrMin= 5.31D-05
 ErrMax= 5.31D-05  0.00D+00 EMaxC= 1.00D-01 BMatC= 5.18D-06 BMatP= 2.91D-05
 IDIUse=1 WtCom= 1.00D+00 WtEn= 0.00D+00
 Coeff-Com:  0.228D-02-0.453D-02-0.806D-02-0.125D-01-0.739D-02 0.284D-01
 Coeff-Com:  0.307D+00 0.695D+00
 Coeff:      0.228D-02-0.453D-02-0.806D-02-0.125D-01-0.739D-02 0.284D-01
 Coeff:      0.307D+00 0.695D+00
 Gap=     0.117 Goal=   None    Shift=    0.000
 RMSDP=3.59D-06 MaxDP=4.43D-04 DE=-3.55D-05 OVMax= 1.34D-03

 Cycle   9  Pass 1  IDiag  1:
 RMSU=  2.13D-06    CP:  9.64D-01  1.50D+00  6.87D-01  6.25D-01  8.46D-01
                    CP:  8.66D-01  1.01D+00  9.79D-01
 E= -4069.81300185265     Delta-E=       -0.000008606239 Rises=F Damp=F
 DIIS: error= 1.77D-05 at cycle   9 NSaved=   9.
 NSaved= 9 IEnMin= 9 EnMin= -4069.81300185265     IErMin= 9 ErrMin= 1.77D-05
 ErrMax= 1.77D-05  0.00D+00 EMaxC= 1.00D-01 BMatC= 9.18D-07 BMatP= 5.18D-06
 IDIUse=1 WtCom= 1.00D+00 WtEn= 0.00D+00
 Coeff-Com:  0.549D-03-0.930D-03-0.299D-02-0.648D-02-0.197D-01-0.425D-01
 Coeff-Com:  0.904D-01 0.358D+00 0.624D+00
 Coeff:      0.549D-03-0.930D-03-0.299D-02-0.648D-02-0.197D-01-0.425D-01
 Coeff:      0.904D-01 0.358D+00 0.624D+00
 Gap=     0.117 Goal=   None    Shift=    0.000
 RMSDP=1.59D-06 MaxDP=1.53D-04 DE=-8.61D-06 OVMax= 8.14D-04

 Cycle  10  Pass 1  IDiag  1:
 RMSU=  1.05D-06    CP:  9.64D-01  1.50D+00  6.87D-01  6.26D-01  8.51D-01
                    CP:  8.76D-01  1.06D+00  1.16D+00  1.05D+00
 E= -4069.81300390386     Delta-E=       -0.000002051209 Rises=F Damp=F
 DIIS: error= 8.35D-06 at cycle  10 NSaved=  10.
 NSaved=10 IEnMin=10 EnMin= -4069.81300390386     IErMin=10 ErrMin= 8.35D-06
 ErrMax= 8.35D-06  0.00D+00 EMaxC= 1.00D-01 BMatC= 2.13D-07 BMatP= 9.18D-07
 IDIUse=1 WtCom= 1.00D+00 WtEn= 0.00D+00
 Coeff-Com: -0.431D-03 0.913D-03 0.120D-02 0.920D-03-0.396D-02-0.334D-01
 Coeff-Com: -0.425D-01-0.591D-01 0.232D+00 0.904D+00
 Coeff:     -0.431D-03 0.913D-03 0.120D-02 0.920D-03-0.396D-02-0.334D-01
 Coeff:     -0.425D-01-0.591D-01 0.232D+00 0.904D+00
 Gap=     0.117 Goal=   None    Shift=    0.000
 RMSDP=1.37D-06 MaxDP=1.32D-04 DE=-2.05D-06 OVMax= 7.53D-04

 Cycle  11  Pass 1  IDiag  1:
 RMSU=  6.27D-07    CP:  9.64D-01  1.50D+00  6.87D-01  6.26D-01  8.53D-01
                    CP:  8.86D-01  1.10D+00  1.27D+00  1.41D+00  1.32D+00
 E= -4069.81300490563     Delta-E=       -0.000001001772 Rises=F Damp=F
 DIIS: error= 4.43D-06 at cycle  11 NSaved=  11.
 NSaved=11 IEnMin=11 EnMin= -4069.81300490563     IErMin=11 ErrMin= 4.43D-06
 ErrMax= 4.43D-06  0.00D+00 EMaxC= 1.00D-01 BMatC= 1.06D-07 BMatP= 2.13D-07
 IDIUse=1 WtCom= 1.00D+00 WtEn= 0.00D+00
 Coeff-Com: -0.396D-03 0.775D-03 0.155D-02 0.233D-02 0.454D-02-0.108D-01
 Coeff-Com: -0.446D-01-0.139D+00-0.496D-01 0.551D+00 0.684D+00
 Coeff:     -0.396D-03 0.775D-03 0.155D-02 0.233D-02 0.454D-02-0.108D-01
 Coeff:     -0.446D-01-0.139D+00-0.496D-01 0.551D+00 0.684D+00
 Gap=     0.117 Goal=   None    Shift=    0.000
 RMSDP=8.24D-07 MaxDP=7.91D-05 DE=-1.00D-06 OVMax= 4.33D-04

 Cycle  12  Pass 1  IDiag  1:
 RMSU=  3.06D-07    CP:  9.64D-01  1.50D+00  6.87D-01  6.26D-01  8.54D-01
                    CP:  8.89D-01  1.13D+00  1.35D+00  1.57D+00  1.74D+00
                    CP:  1.14D+00
 E= -4069.81300528864     Delta-E=       -0.000000383017 Rises=F Damp=F
 DIIS: error= 3.09D-06 at cycle  12 NSaved=  12.
 NSaved=12 IEnMin=12 EnMin= -4069.81300528864     IErMin=12 ErrMin= 3.09D-06
 ErrMax= 3.09D-06  0.00D+00 EMaxC= 1.00D-01 BMatC= 2.45D-08 BMatP= 1.06D-07
 IDIUse=1 WtCom= 1.00D+00 WtEn= 0.00D+00
 Coeff-Com: -0.486D-04 0.759D-04 0.387D-03 0.811D-03 0.435D-02 0.307D-02
 Coeff-Com: -0.191D-02-0.484D-01-0.937D-01 0.132D-01 0.262D+00 0.860D+00
 Coeff:     -0.486D-04 0.759D-04 0.387D-03 0.811D-03 0.435D-02 0.307D-02
 Coeff:     -0.191D-02-0.484D-01-0.937D-01 0.132D-01 0.262D+00 0.860D+00
 Gap=     0.117 Goal=   None    Shift=    0.000
 RMSDP=5.01D-07 MaxDP=3.11D-05 DE=-3.83D-07 OVMax= 2.87D-04

 Cycle  13  Pass 1  IDiag  1:
 RMSU=  1.80D-07    CP:  9.64D-01  1.50D+00  6.87D-01  6.26D-01  8.54D-01
                    CP:  8.89D-01  1.13D+00  1.38D+00  1.69D+00  1.96D+00
                    CP:  1.54D+00  1.24D+00
 E= -4069.81300541785     Delta-E=       -0.000000129203 Rises=F Damp=F
 DIIS: error= 1.90D-06 at cycle  13 NSaved=  13.
 NSaved=13 IEnMin=13 EnMin= -4069.81300541785     IErMin=13 ErrMin= 1.90D-06
 ErrMax= 1.90D-06  0.00D+00 EMaxC= 1.00D-01 BMatC= 1.14D-08 BMatP= 2.45D-08
 IDIUse=1 WtCom= 1.00D+00 WtEn= 0.00D+00
 Coeff-Com:  0.122D-03-0.252D-03-0.364D-03-0.443D-03 0.104D-02 0.482D-02
 Coeff-Com:  0.183D-01 0.232D-01-0.383D-01-0.218D+00-0.176D+00 0.525D+00
 Coeff-Com:  0.861D+00
 Coeff:      0.122D-03-0.252D-03-0.364D-03-0.443D-03 0.104D-02 0.482D-02
 Coeff:      0.183D-01 0.232D-01-0.383D-01-0.218D+00-0.176D+00 0.525D+00
 Coeff:      0.861D+00
 Gap=     0.117 Goal=   None    Shift=    0.000
 RMSDP=4.21D-07 MaxDP=2.65D-05 DE=-1.29D-07 OVMax= 2.50D-04

 Cycle  14  Pass 1  IDiag  1:
 RMSU=  8.67D-08    CP:  9.64D-01  1.50D+00  6.87D-01  6.26D-01  8.55D-01
                    CP:  8.89D-01  1.14D+00  1.41D+00  1.78D+00  2.18D+00
                    CP:  1.80D+00  1.76D+00  1.21D+00
 E= -4069.81300547282     Delta-E=       -0.000000054970 Rises=F Damp=F
 DIIS: error= 1.06D-06 at cycle  14 NSaved=  14.
 NSaved=14 IEnMin=14 EnMin= -4069.81300547282     IErMin=14 ErrMin= 1.06D-06
 ErrMax= 1.06D-06  0.00D+00 EMaxC= 1.00D-01 BMatC= 1.80D-09 BMatP= 1.14D-08
 IDIUse=1 WtCom= 1.00D+00 WtEn= 0.00D+00
 Coeff-Com:  0.768D-04-0.152D-03-0.284D-03-0.441D-03-0.418D-03 0.122D-02
 Coeff-Com:  0.106D-01 0.223D-01 0.579D-02-0.103D+00-0.153D+00 0.486D-01
 Coeff-Com:  0.428D+00 0.740D+00
 Coeff:      0.768D-04-0.152D-03-0.284D-03-0.441D-03-0.418D-03 0.122D-02
 Coeff:      0.106D-01 0.223D-01 0.579D-02-0.103D+00-0.153D+00 0.486D-01
 Coeff:      0.428D+00 0.740D+00
 Gap=     0.117 Goal=   None    Shift=    0.000
 RMSDP=1.36D-07 MaxDP=9.08D-06 DE=-5.50D-08 OVMax= 7.97D-05

 Cycle  15  Pass 1  IDiag  1:
 RMSU=  4.29D-08    CP:  9.64D-01  1.50D+00  6.87D-01  6.26D-01  8.55D-01
                    CP:  8.89D-01  1.14D+00  1.41D+00  1.80D+00  2.23D+00
                    CP:  1.92D+00  1.93D+00  1.46D+00  1.06D+00
 E= -4069.81300547901     Delta-E=       -0.000000006188 Rises=F Damp=F
 DIIS: error= 4.86D-07 at cycle  15 NSaved=  15.
 NSaved=15 IEnMin=15 EnMin= -4069.81300547901     IErMin=15 ErrMin= 4.86D-07
 ErrMax= 4.86D-07  0.00D+00 EMaxC= 1.00D-01 BMatC= 2.84D-10 BMatP= 1.80D-09
 IDIUse=1 WtCom= 1.00D+00 WtEn= 0.00D+00
 Coeff-Com:  0.106D-04-0.192D-04-0.526D-04-0.112D-03-0.314D-03-0.487D-03
 Coeff-Com:  0.155D-02 0.414D-02 0.946D-02-0.560D-02-0.325D-01-0.683D-01
 Coeff-Com:  0.474D-01 0.312D+00 0.733D+00
 Coeff:      0.106D-04-0.192D-04-0.526D-04-0.112D-03-0.314D-03-0.487D-03
 Coeff:      0.155D-02 0.414D-02 0.946D-02-0.560D-02-0.325D-01-0.683D-01
 Coeff:      0.474D-01 0.312D+00 0.733D+00
 Gap=     0.117 Goal=   None    Shift=    0.000
 RMSDP=3.78D-08 MaxDP=2.44D-06 DE=-6.19D-09 OVMax= 2.48D-05

 Cycle  16  Pass 1  IDiag  1:
 RMSU=  2.00D-08    CP:  9.64D-01  1.50D+00  6.87D-01  6.26D-01  8.55D-01
                    CP:  8.89D-01  1.14D+00  1.41D+00  1.80D+00  2.24D+00
                    CP:  1.94D+00  1.97D+00  1.53D+00  1.24D+00  1.14D+00
 E= -4069.81300547979     Delta-E=       -0.000000000786 Rises=F Damp=F
 DIIS: error= 2.19D-07 at cycle  16 NSaved=  16.
 NSaved=16 IEnMin=16 EnMin= -4069.81300547979     IErMin=16 ErrMin= 2.19D-07
 ErrMax= 2.19D-07  0.00D+00 EMaxC= 1.00D-01 BMatC= 1.01D-10 BMatP= 2.84D-10
 IDIUse=1 WtCom= 1.00D+00 WtEn= 0.00D+00
 Coeff-Com: -0.142D-04 0.289D-04 0.459D-04 0.503D-04-0.507D-04-0.624D-03
 Coeff-Com: -0.175D-02-0.416D-02 0.431D-02 0.226D-01 0.232D-01-0.535D-01
 Coeff-Com: -0.832D-01-0.380D-01 0.371D+00 0.760D+00
 Coeff:     -0.142D-04 0.289D-04 0.459D-04 0.503D-04-0.507D-04-0.624D-03
 Coeff:     -0.175D-02-0.416D-02 0.431D-02 0.226D-01 0.232D-01-0.535D-01
 Coeff:     -0.832D-01-0.380D-01 0.371D+00 0.760D+00
 Gap=     0.117 Goal=   None    Shift=    0.000
 RMSDP=2.61D-08 MaxDP=1.62D-06 DE=-7.86D-10 OVMax= 1.61D-05

 Cycle  17  Pass 1  IDiag  1:
 RMSU=  1.15D-08    CP:  9.64D-01  1.50D+00  6.87D-01  6.26D-01  8.55D-01
                    CP:  8.89D-01  1.14D+00  1.41D+00  1.81D+00  2.25D+00
                    CP:  1.95D+00  1.99D+00  1.58D+00  1.34D+00  1.42D+00
                    CP:  1.26D+00
 E= -4069.81300547995     Delta-E=       -0.000000000164 Rises=F Damp=F
 DIIS: error= 1.13D-07 at cycle  17 NSaved=  17.
 NSaved=17 IEnMin=17 EnMin= -4069.81300547995     IErMin=17 ErrMin= 1.13D-07
 ErrMax= 1.13D-07  0.00D+00 EMaxC= 1.00D-01 BMatC= 2.35D-11 BMatP= 1.01D-10
 IDIUse=1 WtCom= 1.00D+00 WtEn= 0.00D+00
 Coeff-Com: -0.895D-05 0.175D-04 0.343D-04 0.493D-04 0.778D-04-0.160D-03
 Coeff-Com: -0.102D-02-0.319D-02-0.361D-04 0.105D-01 0.192D-01-0.678D-02
 Coeff-Com: -0.426D-01-0.963D-01-0.269D-01 0.327D+00 0.820D+00
 Coeff:     -0.895D-05 0.175D-04 0.343D-04 0.493D-04 0.778D-04-0.160D-03
 Coeff:     -0.102D-02-0.319D-02-0.361D-04 0.105D-01 0.192D-01-0.678D-02
 Coeff:     -0.426D-01-0.963D-01-0.269D-01 0.327D+00 0.820D+00
 Gap=     0.117 Goal=   None    Shift=    0.000
 RMSDP=1.41D-08 MaxDP=7.71D-07 DE=-1.64D-10 OVMax= 8.30D-06

 Cycle  18  Pass 1  IDiag  1:
 RMSU=  5.41D-09    CP:  9.64D-01  1.50D+00  6.87D-01  6.26D-01  8.55D-01
                    CP:  8.89D-01  1.15D+00  1.41D+00  1.81D+00  2.25D+00
                    CP:  1.95D+00  2.00D+00  1.60D+00  1.40D+00  1.58D+00
                    CP:  1.64D+00  1.37D+00
 E= -4069.81300547998     Delta-E=       -0.000000000022 Rises=F Damp=F
 DIIS: error= 5.93D-08 at cycle  18 NSaved=  18.
 NSaved=18 IEnMin=18 EnMin= -4069.81300547998     IErMin=18 ErrMin= 5.93D-08
 ErrMax= 5.93D-08  0.00D+00 EMaxC= 1.00D-01 BMatC= 8.05D-12 BMatP= 2.35D-11
 IDIUse=1 WtCom= 1.00D+00 WtEn= 0.00D+00
 Coeff-Com:  0.918D-06-0.219D-05-0.357D-06 0.393D-05 0.684D-04 0.147D-03
 Coeff-Com:  0.250D-03-0.694D-04-0.123D-02-0.391D-02 0.769D-03 0.149D-01
 Coeff-Com:  0.134D-01-0.318D-01-0.152D+00-0.135D+00 0.356D+00 0.939D+00
 Coeff:      0.918D-06-0.219D-05-0.357D-06 0.393D-05 0.684D-04 0.147D-03
 Coeff:      0.250D-03-0.694D-04-0.123D-02-0.391D-02 0.769D-03 0.149D-01
 Coeff:      0.134D-01-0.318D-01-0.152D+00-0.135D+00 0.356D+00 0.939D+00
 Gap=     0.117 Goal=   None    Shift=    0.000
 RMSDP=1.14D-08 MaxDP=6.17D-07 DE=-2.18D-11 OVMax= 7.07D-06

 Cycle  19  Pass 1  IDiag  1:
 RMSU=  3.20D-09    CP:  9.64D-01  1.50D+00  6.87D-01  6.26D-01  8.55D-01
                    CP:  8.89D-01  1.15D+00  1.41D+00  1.81D+00  2.25D+00
                    CP:  1.96D+00  2.00D+00  1.61D+00  1.44D+00  1.71D+00
                    CP:  1.94D+00  1.87D+00  1.28D+00
 E= -4069.81300548022     Delta-E=       -0.000000000247 Rises=F Damp=F
 DIIS: error= 3.00D-08 at cycle  19 NSaved=  19.
 NSaved=19 IEnMin=19 EnMin= -4069.81300548022     IErMin=19 ErrMin= 3.00D-08
 ErrMax= 3.00D-08  0.00D+00 EMaxC= 1.00D-01 BMatC= 2.34D-12 BMatP= 8.05D-12
 IDIUse=1 WtCom= 1.00D+00 WtEn= 0.00D+00
 Coeff-Com:  0.317D-05-0.644D-05-0.106D-04-0.127D-04 0.205D-04 0.130D-03
 Coeff-Com:  0.464D-03 0.885D-03-0.647D-03-0.580D-02-0.552D-02 0.103D-01
 Coeff-Com:  0.217D-01 0.114D-01-0.802D-01-0.184D+00-0.466D-01 0.529D+00
 Coeff-Com:  0.748D+00
 Coeff:      0.317D-05-0.644D-05-0.106D-04-0.127D-04 0.205D-04 0.130D-03
 Coeff:      0.464D-03 0.885D-03-0.647D-03-0.580D-02-0.552D-02 0.103D-01
 Coeff:      0.217D-01 0.114D-01-0.802D-01-0.184D+00-0.466D-01 0.529D+00
 Coeff:      0.748D+00
 Gap=     0.117 Goal=   None    Shift=    0.000
 RMSDP=5.94D-09 MaxDP=3.29D-07 DE=-2.47D-10 OVMax= 3.18D-06

 SCF Done:  E(RCAM-B3LYP) =  -4069.81300548     A.U. after   19 cycles
            NFock= 19  Conv=0.59D-08     -V/T= 2.0102
 KE= 4.028782564884D+03 PE=-4.146517937110D+04 EE= 1.737443452952D+04
 Leave Link  502 at Fri Sep 10 01:34:46 2021, MaxMem= 23488102400 cpu:           19084.3 elap:             824.6
 (Enter /sw/apps/gaussian-16.0/g16/l801.exe)
 DoSCS=F DFT=T ScalE2(SS,OS)=  1.000000  1.000000
 ExpMin= 3.36D-02 ExpMax= 4.95D+03 ExpMxC= 7.45D+02 IAcc=3 IRadAn=         5 AccDes= 0.00D+00
 HarFok:  IExCor=  205 AccDes= 0.00D+00 IRadAn=         5 IDoV=-2 UseB2=F ITyADJ=14
 ICtDFT= 12500011 ScaDFX=  1.000000  1.000000  1.000000  1.000000
 GSVD:  LWork=       -9588 too small for GESVD, short by       45590 words or       45590 for optimal perf.
 Largest valence mixing into a core orbital is  2.03D-04
 Largest core mixing into a valence orbital is  5.24D-05
 Range of M.O.s used for correlation:    95  1572
 NBasis=  1572 NAE=   312 NBE=   312 NFC=    94 NFV=     0
 NROrb=   1478 NOA=   218 NOB=   218 NVA=  1260 NVB=  1260
 Leave Link  801 at Fri Sep 10 01:34:47 2021, MaxMem= 23488102400 cpu:               7.7 elap:               0.3
 (Enter /sw/apps/gaussian-16.0/g16/l914.exe)
 RHF ground state
 Two-electron integrals replicated using symmetry.
 MDV= 23488102400 DFT=T DoStab=F Mixed=T DoRPA=T DoScal=F NonHer=T
 Making orbital integer symmetry assigments:
 Orbital symmetries:
       Occupied  (A) (A) (A) (A) (A) (A) (A) (A) (A) (A) (A) (A)
                 (A) (A) (A) (A) (A) (A) (A) (A) (A) (A) (A) (A)
                 (A) (A) (A) (A) (A) (A) (A) (A) (A) (A) (A) (A)
                 (A) (A) (A) (A) (A) (A) (A) (A) (A) (A) (A) (A)
                 (A) (A) (A) (A) (A) (A) (A) (A) (A) (A) (A) (A)
                 (A) (A) (A) (A) (A) (A) (A) (A) (A) (A) (A) (A)
                 (A) (A) (A) (A) (A) (A) (A) (A) (A) (A) (A) (A)
                 (A) (A) (A) (A) (A) (A) (A) (A) (A) (A) (A) (A)
                 (A) (A) (A) (A) (A) (A) (A) (A) (A) (A) (A) (A)
                 (A) (A) (A) (A) (A) (A) (A) (A) (A) (A) (A) (A)
                 (A) (A) (A) (A) (A) (A) (A) (A) (A) (A) (A) (A)
                 (A) (A) (A) (A) (A) (A) (A) (A) (A) (A) (A) (A)
                 (A) (A) (A) (A) (A) (A) (A) (A) (A) (A) (A) (A)
                 (A) (A) (A) (A) (A) (A) (A) (A) (A) (A) (A) (A)
                 (A) (A) (A) (A) (A) (A) (A) (A) (A) (A) (A) (A)
                 (A) (A) (A) (A) (A) (A) (A) (A) (A) (A) (A) (A)
                 (A) (A) (A) (A) (A) (A) (A) (A) (A) (A) (A) (A)
                 (A) (A) (A) (A) (A) (A) (A) (A) (A) (A) (A) (A)
                 (A) (A) (A) (A) (A) (A) (A) (A) (A) (A) (A) (A)
                 (A) (A) (A) (A) (A) (A) (A) (A) (A) (A) (A) (A)
                 (A) (A) (A) (A) (A) (A) (A) (A) (A) (A) (A) (A)
                 (A) (A) (A) (A) (A) (A) (A) (A) (A) (A) (A) (A)
                 (A) (A) (A) (A) (A) (A) (A) (A) (A) (A) (A) (A)
                 (A) (A) (A) (A) (A) (A) (A) (A) (A) (A) (A) (A)
                 (A) (A) (A) (A) (A) (A) (A) (A) (A) (A) (A) (A)
                 (A) (A) (A) (A) (A) (A) (A) (A) (A) (A) (A) (A)
       Virtual   (A) (A) (A) (A) (A) (A) (A) (A) (A) (A) (A) (A)
                 (A) (A) (A) (A) (A) (A) (A) (A) (A) (A) (A) (A)
                 (A) (A) (A) (A) (A) (A) (A) (A) (A) (A) (A) (A)
                 (A) (A) (A) (A) (A) (A) (A) (A) (A) (A) (A) (A)
                 (A) (A) (A) (A) (A) (A) (A) (A) (A) (A) (A) (A)
                 (A) (A) (A) (A) (A) (A) (A) (A) (A) (A) (A) (A)
                 (A) (A) (A) (A) (A) (A) (A) (A) (A) (A) (A) (A)
                 (A) (A) (A) (A) (A) (A) (A) (A) (A) (A) (A) (A)
                 (A) (A) (A) (A) (A) (A) (A) (A) (A) (A) (A) (A)
                 (A) (A) (A) (A) (A) (A) (A) (A) (A) (A) (A) (A)
                 (A) (A) (A) (A) (A) (A) (A) (A) (A) (A) (A) (A)
                 (A) (A) (A) (A) (A) (A) (A) (A) (A) (A) (A) (A)
                 (A) (A) (A) (A) (A) (A) (A) (A) (A) (A) (A) (A)
                 (A) (A) (A) (A) (A) (A) (A) (A) (A) (A) (A) (A)
                 (A) (A) (A) (A) (A) (A) (A) (A) (A) (A) (A) (A)
                 (A) (A) (A) (A) (A) (A) (A) (A) (A) (A) (A) (A)
                 (A) (A) (A) (A) (A) (A) (A) (A) (A) (A) (A) (A)
                 (A) (A) (A) (A) (A) (A) (A) (A) (A) (A) (A) (A)
                 (A) (A) (A) (A) (A) (A) (A) (A) (A) (A) (A) (A)
                 (A) (A) (A) (A) (A) (A) (A) (A) (A) (A) (A) (A)
                 (A) (A) (A) (A) (A) (A) (A) (A) (A) (A) (A) (A)
                 (A) (A) (A) (A) (A) (A) (A) (A) (A) (A) (A) (A)
                 (A) (A) (A) (A) (A) (A) (A) (A) (A) (A) (A) (A)
                 (A) (A) (A) (A) (A) (A) (A) (A) (A) (A) (A) (A)
                 (A) (A) (A) (A) (A) (A) (A) (A) (A) (A) (A) (A)
                 (A) (A) (A) (A) (A) (A) (A) (A) (A) (A) (A) (A)
                 (A) (A) (A) (A) (A) (A) (A) (A) (A) (A) (A) (A)
                 (A) (A) (A) (A) (A) (A) (A) (A) (A) (A) (A) (A)
                 (A) (A) (A) (A) (A) (A) (A) (A) (A) (A) (A) (A)
                 (A) (A) (A) (A) (A) (A) (A) (A) (A) (A) (A) (A)
                 (A) (A) (A) (A) (A) (A) (A) (A) (A) (A) (A) (A)
                 (A) (A) (A) (A) (A) (A) (A) (A) (A) (A) (A) (A)
                 (A) (A) (A) (A) (A) (A) (A) (A) (A) (A) (A) (A)
                 (A) (A) (A) (A) (A) (A) (A) (A) (A) (A) (A) (A)
                 (A) (A) (A) (A) (A) (A) (A) (A) (A) (A) (A) (A)
                 (A) (A) (A) (A) (A) (A) (A) (A) (A) (A) (A) (A)
                 (A) (A) (A) (A) (A) (A) (A) (A) (A) (A) (A) (A)
                 (A) (A) (A) (A) (A) (A) (A) (A) (A) (A) (A) (A)
                 (A) (A) (A) (A) (A) (A) (A) (A) (A) (A) (A) (A)
                 (A) (A) (A) (A) (A) (A) (A) (A) (A) (A) (A) (A)
                 (A) (A) (A) (A) (A) (A) (A) (A) (A) (A) (A) (A)
                 (A) (A) (A) (A) (A) (A) (A) (A) (A) (A) (A) (A)
                 (A) (A) (A) (A) (A) (A) (A) (A) (A) (A) (A) (A)
                 (A) (A) (A) (A) (A) (A) (A) (A) (A) (A) (A) (A)
                 (A) (A) (A) (A) (A) (A) (A) (A) (A) (A) (A) (A)
                 (A) (A) (A) (A) (A) (A) (A) (A) (A) (A) (A) (A)
                 (A) (A) (A) (A) (A) (A) (A) (A) (A) (A) (A) (A)
                 (A) (A) (A) (A) (A) (A) (A) (A) (A) (A) (A) (A)
                 (A) (A) (A) (A) (A) (A) (A) (A) (A) (A) (A) (A)
                 (A) (A) (A) (A) (A) (A) (A) (A) (A) (A) (A) (A)
                 (A) (A) (A) (A) (A) (A) (A) (A) (A) (A) (A) (A)
                 (A) (A) (A) (A) (A) (A) (A) (A) (A) (A) (A) (A)
                 (A) (A) (A) (A) (A) (A) (A) (A) (A) (A) (A) (A)
                 (A) (A) (A) (A) (A) (A) (A) (A) (A) (A) (A) (A)
                 (A) (A) (A) (A) (A) (A) (A) (A) (A) (A) (A) (A)
                 (A) (A) (A) (A) (A) (A) (A) (A) (A) (A) (A) (A)
                 (A) (A) (A) (A) (A) (A) (A) (A) (A) (A) (A) (A)
                 (A) (A) (A) (A) (A) (A) (A) (A) (A) (A) (A) (A)
                 (A) (A) (A) (A) (A) (A) (A) (A) (A) (A) (A) (A)
                 (A) (A) (A) (A) (A) (A) (A) (A) (A) (A) (A) (A)
                 (A) (A) (A) (A) (A) (A) (A) (A) (A) (A) (A) (A)
                 (A) (A) (A) (A) (A) (A) (A) (A) (A) (A) (A) (A)
                 (A) (A) (A) (A) (A) (A) (A) (A) (A) (A) (A) (A)
                 (A) (A) (A) (A) (A) (A) (A) (A) (A) (A) (A) (A)
                 (A) (A) (A) (A) (A) (A) (A) (A) (A) (A) (A) (A)
                 (A) (A) (A) (A) (A) (A) (A) (A) (A) (A) (A) (A)
                 (A) (A) (A) (A) (A) (A) (A) (A) (A) (A) (A) (A)
                 (A) (A) (A) (A) (A) (A) (A) (A) (A) (A) (A) (A)
                 (A) (A) (A) (A) (A) (A) (A) (A) (A) (A) (A) (A)
                 (A) (A) (A) (A) (A) (A) (A) (A) (A) (A) (A) (A)
                 (A) (A) (A) (A) (A) (A) (A) (A) (A) (A) (A) (A)
                 (A) (A) (A) (A) (A) (A) (A) (A) (A) (A) (A) (A)
                 (A) (A) (A) (A) (A) (A) (A) (A) (A) (A) (A) (A)
                 (A) (A) (A) (A) (A) (A) (A) (A) (A) (A) (A) (A)
                 (A) (A) (A) (A) (A) (A) (A) (A) (A) (A) (A) (A)
                 (A) (A) (A) (A) (A) (A) (A) (A) (A) (A) (A) (A)
                 (A) (A) (A) (A) (A) (A) (A) (A) (A) (A) (A) (A)
                 (A) (A) (A) (A) (A) (A) (A) (A) (A) (A) (A) (A)
                 (A) (A) (A) (A) (A) (A) (A) (A) (A) (A) (A) (A)
                 (A) (A) (A) (A) (A) (A) (A) (A) (A) (A) (A) (A)
                 (A) (A) (A) (A) (A) (A) (A) (A) (A) (A) (A) (A)
                 (A) (A) (A) (A) (A) (A) (A) (A) (A) (A) (A) (A)
                 (A) (A) (A) (A) (A) (A) (A) (A) (A) (A) (A) (A)
                 (A) (A) (A) (A) (A) (A) (A) (A) (A) (A) (A) (A)
                 (A) (A) (A) (A) (A) (A) (A) (A) (A) (A) (A) (A)
                 (A) (A) (A) (A) (A) (A) (A) (A) (A) (A) (A) (A)
                 (A) (A) (A) (A) (A) (A) (A) (A) (A) (A) (A) (A)
                 (A) (A) (A) (A) (A) (A) (A) (A) (A) (A) (A) (A)
                 (A) (A) (A) (A) (A) (A) (A) (A) (A) (A) (A) (A)
                 (A) (A) (A) (A) (A) (A) (A) (A) (A) (A) (A) (A)
                 (A) (A) (A) (A) (A) (A) (A) (A) (A) (A) (A) (A)
                 (A) (A) (A) (A) (A) (A) (A) (A) (A) (A) (A) (A)
                 (A) (A) (A) (A) (A) (A) (A) (A) (A) (A) (A) (A)
                 (A) (A) (A) (A) (A) (A) (A) (A) (A) (A) (A) (A)
                 (A) (A) (A) (A) (A) (A) (A) (A) (A) (A) (A) (A)
                 (A) (A) (A) (A) (A) (A) (A) (A) (A) (A) (A) (A)
                 (A) (A) (A) (A) (A) (A) (A) (A) (A) (A) (A) (A)
                 (A) (A) (A) (A) (A) (A) (A) (A) (A) (A) (A) (A)
                 (A) (A) (A) (A) (A) (A) (A) (A) (A) (A) (A) (A)
                 (A) (A) (A) (A) (A) (A) (A) (A) (A) (A) (A) (A)
                 (A) (A) (A) (A) (A) (A) (A) (A) (A) (A) (A) (A)
                 (A) (A) (A) (A) (A) (A) (A) (A) (A) (A) (A) (A)
                 (A) (A) (A) (A) (A) (A) (A) (A) (A) (A) (A) (A)
                 (A) (A) (A) (A) (A) (A) (A) (A) (A) (A) (A) (A)
                 (A) (A) (A) (A) (A) (A) (A) (A) (A) (A) (A) (A)
    20 initial guesses have been made.
 Convergence on wavefunction:    0.001000000000000
 Davidson Disk Diagonalization:  ConvIn= 1.00D-03 SkipCon=T Conv= 1.00D-03.
 Max sub-space:  2000 roots to seek:    20 dimension of matrix:       549360
 Iteration     1 Dimension    20 NMult     0 NNew     20
 CISAX will form    20 AO SS matrices at one time.
 NMat=    20 NSing=    20 JSym2X= 0.
 FoFJK:  IHMeth= 1 ICntrl=       0 DoSepK=T KAlg= 0 I1Cent=           0 FoldK=F
 IRaf=         1 NMat=      40 IRICut=       1 DoRegI=T DoRafI=F ISym2E= 0 IDoP0=3 IntGTp=3.
 FoFCou: FMM=T IPFlag=           0 FMFlag=      100000 FMFlg1=        2001
         NFxFlg=           0 DoJE=F BraDBF=F KetDBF=F FulRan=T
         wScrn=  0.000000 ICntrl=       500 IOpCl=  0 I1Cent=           0 NGrid=           0
         NMat0=   20 NMatS0=     20 NMatT0=    0 NMatD0=   20 NMtDS0=    0 NMtDT0=    0
 Symmetry not used in FoFCou.
 FMM levels:  10  Number of levels for PrismC:   9
 New state      2 was old state      3
 New state      3 was old state      4
 New state      4 was old state      7
 New state      5 was old state      6
 Excitation Energies [eV] at current iteration:
 Root      1 :     2.223671345489220
 Root      2 :     2.591407017636670
 Root      3 :     2.597379100128214
 Root      4 :     2.621741227703484
 Root      5 :     2.624585487208780
 Root      6 :     2.762855649808359
 Root      7 :     2.994331969082999
 Root      8 :     3.393393032203815
 Root      9 :     3.613214436306668
 Root     10 :     3.661130491798469
 Root     11 :     3.745629132483308
 Root     12 :     3.765644042906146
 Root     13 :     4.122510927857651
 Root     14 :     4.265751389393756
 Root     15 :     4.339405151292309
 Root     16 :     4.450581441287064
 Root     17 :     4.517780177197761
 Root     18 :     4.548640338210778
 Root     19 :     4.550238627225712
 Root     20 :     4.608549220740756
 Iteration     2 Dimension    30 NMult    20 NNew     10
 CISAX will form    10 AO SS matrices at one time.
 NMat=    10 NSing=    10 JSym2X= 0.
 New state      1 was old state      2
 Root      1 not converged, maximum delta is    0.304947860147204
 New state      2 was old state      1
 Root      2 not converged, maximum delta is    0.259309054682845
 New state      3 was old state      5
 Root      3 not converged, maximum delta is    0.267019582220109
 Root      4 not converged, maximum delta is    0.187223828929394
 New state      5 was old state      6
 Root      5 not converged, maximum delta is    0.107823366979899
 Excitation Energies [eV] at current iteration:
 Root      1 :     1.763415891542512   Change is   -0.827991126094158
 Root      2 :     2.212356605144553   Change is   -0.011314740344666
 Root      3 :     2.227569684711093   Change is   -0.397015802497687
 Root      4 :     2.241476992953310   Change is   -0.380264234750174
 Root      5 :     2.353011644237508   Change is   -0.409844005570851
 Iteration     3 Dimension    40 NMult    30 NNew     10
 CISAX will form    10 AO SS matrices at one time.
 NMat=    10 NSing=    10 JSym2X= 0.
 Root      1 not converged, maximum delta is    0.052136925652341
 New state      2 was old state      5
 Root      2 not converged, maximum delta is    0.133469079172644
 Root      3 not converged, maximum delta is    0.372647820808257
 Root      4 not converged, maximum delta is    0.470208309801025
 New state      5 was old state      2
 Root      5 not converged, maximum delta is    0.526031402396308
 Excitation Energies [eV] at current iteration:
 Root      1 :     1.660284211814940   Change is   -0.103131679727572
 Root      2 :     1.780953312896913   Change is   -0.572058331340596
 Root      3 :     2.186681402632579   Change is   -0.040888282078513
 Root      4 :     2.199053929394376   Change is   -0.042423063558934
 Root      5 :     2.220794411947215   Change is    0.008437806802661
 Iteration     4 Dimension    50 NMult    40 NNew     10
 CISAX will form    10 AO SS matrices at one time.
 NMat=    10 NSing=    10 JSym2X= 0.
 Root      1 not converged, maximum delta is    0.014079673492920
 Root      2 not converged, maximum delta is    0.028470985656399
 Root      3 not converged, maximum delta is    0.023810891064319
 Root      4 not converged, maximum delta is    0.058805316196085
 Root      5 not converged, maximum delta is    0.053977460629051
 Excitation Energies [eV] at current iteration:
 Root      1 :     1.643761049931204   Change is   -0.016523161883736
 Root      2 :     1.718558436176605   Change is   -0.062394876720307
 Root      3 :     2.179725310426334   Change is   -0.006956092206245
 Root      4 :     2.192359629239213   Change is   -0.006694300155163
 Root      5 :     2.219851668710841   Change is   -0.000942743236374
 Iteration     5 Dimension    60 NMult    50 NNew     10
 CISAX will form    10 AO SS matrices at one time.
 NMat=    10 NSing=    10 JSym2X= 0.
 Root      1 not converged, maximum delta is    0.002305300548864
 Root      2 not converged, maximum delta is    0.016464347403673
 Root      3 not converged, maximum delta is    0.004851181021831
 Root      4 not converged, maximum delta is    0.005173554446248
 Root      5 not converged, maximum delta is    0.004980432380996
 Excitation Energies [eV] at current iteration:
 Root      1 :     1.642052856755037   Change is   -0.001708193176167
 Root      2 :     1.706520286266770   Change is   -0.012038149909836
 Root      3 :     2.178905978534611   Change is   -0.000819331891724
 Root      4 :     2.191561928240233   Change is   -0.000797700998980
 Root      5 :     2.219774149071883   Change is   -0.000077519638958
 Iteration     6 Dimension    70 NMult    60 NNew     10
 CISAX will form    10 AO SS matrices at one time.
 NMat=    10 NSing=    10 JSym2X= 0.
 Root      1 has converged.
 Root      2 not converged, maximum delta is    0.001778708506013
 Root      3 has converged.
 Root      4 has converged.
 Root      5 has converged.
 Excitation Energies [eV] at current iteration:
 Root      1 :     1.641811914306315   Change is   -0.000240942448722
 Root      2 :     1.705541880052369   Change is   -0.000978406214400
 Root      3 :     2.178784487779875   Change is   -0.000121490754735
 Root      4 :     2.191451094386833   Change is   -0.000110833853400
 Root      5 :     2.219763243952988   Change is   -0.000010905118895
 Iteration     7 Dimension    72 NMult    70 NNew      2
 CISAX will form     2 AO SS matrices at one time.
 NMat=     2 NSing=     2 JSym2X= 0.
 Root      1 has converged.
 Root      2 has converged.
 Root      3 has converged.
 Root      4 has converged.
 Root      5 has converged.
[...]
 Alpha virt. eigenvalues --    1.83760   1.84074   1.84262   1.84472   1.84635
 Alpha virt. eigenvalues --    1.84710   1.84880   1.84941   1.85144   1.85333
 Alpha virt. eigenvalues --    1.85442   1.85562   1.85660   1.85975   1.86113
 Alpha virt. eigenvalues --    1.86178   1.86402   1.86488   1.86625   1.86645
 Alpha virt. eigenvalues --    1.86821   1.86915   1.87071   1.87176   1.87373
 Alpha virt. eigenvalues --    1.87473   1.87836   1.87920   1.87979   1.88230
 Alpha virt. eigenvalues --    1.88285   1.88392   1.88643   1.88762   1.88927
 Alpha virt. eigenvalues --    1.89159   1.89349   1.89402   1.89766   1.89969
 Alpha virt. eigenvalues --    1.90078   1.90179   1.90317   1.90729   1.90985
 Alpha virt. eigenvalues --    1.91169   1.91287   1.91653   1.91702   1.91976
 Alpha virt. eigenvalues --    1.92298   1.92521   1.92809   1.93105   1.93230
 Alpha virt. eigenvalues --    1.93445   1.93712   1.94138   1.94431   1.94637
 Alpha virt. eigenvalues --    1.94910   1.95129   1.95383   1.95547   1.95832
 Alpha virt. eigenvalues --    1.95840   1.96007   1.96046   1.96441   1.96529
 Alpha virt. eigenvalues --    1.96583   1.96695   1.97129   1.97395   1.97460
 Alpha virt. eigenvalues --    1.97726   1.97944   1.98157   1.98191   1.98328
 Alpha virt. eigenvalues --    1.98581   1.98751   1.99059   1.99488   1.99694
 Alpha virt. eigenvalues --    2.00085   2.00426   2.00919   2.01226   2.01395
 Alpha virt. eigenvalues --    2.01450   2.01555   2.01732   2.01816   2.02255
 Alpha virt. eigenvalues --    2.02572   2.02747   2.02973   2.03097   2.03182
 Alpha virt. eigenvalues --    2.03249   2.03626   2.03982   2.04029   2.04336
 Alpha virt. eigenvalues --    2.04796   2.04875   2.05138   2.05374   2.05533
 Alpha virt. eigenvalues --    2.06008   2.06346   2.06810   2.07149   2.07452
 Alpha virt. eigenvalues --    2.07695   2.08200   2.08400   2.08767   2.09005
 Alpha virt. eigenvalues --    2.09545   2.09795   2.10342   2.10659   2.10955
 Alpha virt. eigenvalues --    2.11287   2.11470   2.11537   2.11831   2.12242
 Alpha virt. eigenvalues --    2.12338   2.12552   2.12748   2.13046   2.13246
 Alpha virt. eigenvalues --    2.13634   2.13714   2.14031   2.14482   2.14621
 Alpha virt. eigenvalues --    2.14875   2.15226   2.15733   2.15933   2.16311
 Alpha virt. eigenvalues --    2.16532   2.16588   2.17118   2.17323   2.17543
 Alpha virt. eigenvalues --    2.17580   2.17871   2.17976   2.18251   2.18433
 Alpha virt. eigenvalues --    2.18568   2.19085   2.19419   2.19536   2.19987
 Alpha virt. eigenvalues --    2.20130   2.20465   2.20522   2.20929   2.21004
 Alpha virt. eigenvalues --    2.21316   2.21431   2.21471   2.21792   2.22375
 Alpha virt. eigenvalues --    2.22516   2.22907   2.23081   2.23495   2.23769
 Alpha virt. eigenvalues --    2.24188   2.24698   2.24836   2.25259   2.26109
 Alpha virt. eigenvalues --    2.26523   2.26751   2.27063   2.27436   2.27862
 Alpha virt. eigenvalues --    2.28166   2.29103   2.29188   2.29765   2.29988
 Alpha virt. eigenvalues --    2.30278   2.30753   2.30961   2.31027   2.31560
 Alpha virt. eigenvalues --    2.31786   2.32046   2.32278   2.32560   2.32982
 Alpha virt. eigenvalues --    2.33304   2.33657   2.33854   2.34005   2.34632
 Alpha virt. eigenvalues --    2.35159   2.35541   2.36202   2.36231   2.36357
 Alpha virt. eigenvalues --    2.36608   2.36846   2.36932   2.37503   2.37986
 Alpha virt. eigenvalues --    2.38039   2.38609   2.38694   2.39391   2.39770
 Alpha virt. eigenvalues --    2.39983   2.40149   2.40382   2.40771   2.41206
 Alpha virt. eigenvalues --    2.41281   2.41465   2.41846   2.41973   2.42385
 Alpha virt. eigenvalues --    2.42764   2.42876   2.43137   2.43154   2.43875
 Alpha virt. eigenvalues --    2.44389   2.44510   2.44679   2.44767   2.45154
 Alpha virt. eigenvalues --    2.45226   2.45651   2.45993   2.46099   2.46244
 Alpha virt. eigenvalues --    2.46650   2.46700   2.46895   2.47105   2.47416
 Alpha virt. eigenvalues --    2.47576   2.47882   2.48273   2.49109   2.49605
 Alpha virt. eigenvalues --    2.49823   2.50090   2.50303   2.50764   2.51182
 Alpha virt. eigenvalues --    2.51720   2.51864   2.52004   2.52393   2.52805
 Alpha virt. eigenvalues --    2.53178   2.53644   2.53880   2.54073   2.54333
 Alpha virt. eigenvalues --    2.54491   2.54678   2.55171   2.55363   2.56037
 Alpha virt. eigenvalues --    2.57590   2.58387   2.58392   2.59393   2.59958
 Alpha virt. eigenvalues --    2.60317   2.60942   2.61346   2.61494   2.62141
 Alpha virt. eigenvalues --    2.62283   2.62643   2.63020   2.63520   2.63723
 Alpha virt. eigenvalues --    2.64111   2.64549   2.64634   2.64909   2.65415
 Alpha virt. eigenvalues --    2.65628   2.66330   2.66568   2.66637   2.67063
 Alpha virt. eigenvalues --    2.67385   2.67739   2.68256   2.68614   2.68835
 Alpha virt. eigenvalues --    2.69115   2.69137   2.69649   2.69808   2.70105
 Alpha virt. eigenvalues --    2.70452   2.70763   2.71577   2.71896   2.72299
 Alpha virt. eigenvalues --    2.72430   2.73017   2.73088   2.73116   2.73431
 Alpha virt. eigenvalues --    2.73544   2.74015   2.74270   2.74553   2.74888
 Alpha virt. eigenvalues --    2.75261   2.75617   2.76397   2.76820   2.77074
 Alpha virt. eigenvalues --    2.77186   2.77462   2.77880   2.77940   2.78490
 Alpha virt. eigenvalues --    2.78547   2.78896   2.79030   2.79701   2.80045
 Alpha virt. eigenvalues --    2.80304   2.80574   2.80859   2.81301   2.81486
 Alpha virt. eigenvalues --    2.81661   2.82085   2.82465   2.82650   2.83464
 Alpha virt. eigenvalues --    2.83577   2.84077   2.84288   2.84561   2.84634
 Alpha virt. eigenvalues --    2.84779   2.85121   2.85378   2.85974   2.86715
 Alpha virt. eigenvalues --    2.87090   2.87418   2.87963   2.88279   2.88478
 Alpha virt. eigenvalues --    2.88743   2.88833   2.89034   2.89346   2.90266
 Alpha virt. eigenvalues --    2.91022   2.91079   2.91673   2.92970   2.93699
 Alpha virt. eigenvalues --    2.94033   2.94314   2.94343   2.94771   2.95218
 Alpha virt. eigenvalues --    2.95965   2.96225   2.96401   2.96884   2.97019
 Alpha virt. eigenvalues --    2.97363   2.97824   2.98013   2.98124   2.98277
 Alpha virt. eigenvalues --    2.98356   2.98656   2.98808   2.99016   2.99164
 Alpha virt. eigenvalues --    2.99300   2.99320   2.99508   2.99838   3.00032
 Alpha virt. eigenvalues --    3.00085   3.00315   3.00570   3.01083   3.01678
 Alpha virt. eigenvalues --    3.01802   3.01875   3.02318   3.02699   3.02836
 Alpha virt. eigenvalues --    3.02973   3.03067   3.03677   3.03988   3.04048
 Alpha virt. eigenvalues --    3.04187   3.04324   3.04369   3.04852   3.05117
 Alpha virt. eigenvalues --    3.05176   3.05500   3.05769   3.05935   3.06574
 Alpha virt. eigenvalues --    3.06755   3.07809   3.07894   3.08254   3.09318
 Alpha virt. eigenvalues --    3.09546   3.10119   3.10261   3.11093   3.11318
 Alpha virt. eigenvalues --    3.11610   3.11697   3.11989   3.12012   3.12371
 Alpha virt. eigenvalues --    3.13218   3.13372   3.13819   3.13939   3.14405
 Alpha virt. eigenvalues --    3.14626   3.15742   3.15892   3.16133   3.17100
 Alpha virt. eigenvalues --    3.17789   3.17916   3.18064   3.18850   3.19262
 Alpha virt. eigenvalues --    3.22155   3.23462   3.23711   3.24417   3.24813
 Alpha virt. eigenvalues --    3.25695   3.26244   3.26947   3.27401   3.27799
 Alpha virt. eigenvalues --    3.28968   3.30117   3.31257   3.31738   3.33121
 Alpha virt. eigenvalues --    3.33441   3.40093   3.41893   3.42522   3.43032
 Alpha virt. eigenvalues --    3.48388   3.49040   3.49776   3.50543   3.51137
 Alpha virt. eigenvalues --    3.51302   3.56261   3.57250   3.58965   3.59562
 Alpha virt. eigenvalues --    3.62672   3.62830   3.65897   3.66296   3.67210
 Alpha virt. eigenvalues --    3.68630   3.73626   3.74800   3.77025   3.77562
          Condensed to atoms (all electrons):
 Mulliken charges:
               1
     1  Mg   0.816284
     2  C   -0.004180
     3  C   -0.093510
     4  C   -0.043932
     5  C   -0.062074
     6  N   -0.252703
     7  C   -0.058623
     8  C    0.002973
     9  C   -0.086701
    10  C    0.043220
    11  C    0.104825
    12  C    0.004751
    13  C   -0.069703
    14  H    0.038416
    15  N   -0.436525
    16  C    0.163859
    17  C   -0.178947
    18  C   -0.006035
    19  C    0.148412
    20  C    0.110571
    21  C    0.011704
    22  O   -0.248412
    23  C    0.063269
    24  N   -0.337236
    25  C    0.039711
    26  C   -0.027903
    27  C   -0.024572
    28  C    0.075576
    29  C    0.075880
    30  C    0.034841
    31  C   -0.004932
    32  N   -0.310365
    33  C    0.080198
    34  C   -0.168257
    35  C    0.009685
    36  C    0.080619
    37  C    0.126611
    38  C    0.049204
    39  O   -0.185182
    40  C   -0.008184
    41  C    0.215047
    42  O   -0.253826
    43  O   -0.303581
    44  C    0.165955
    45  H   -0.017839
    46  H   -0.016555
    47  H   -0.040440
    48  H   -0.000220
    49  H   -0.004269
    50  H    0.026064
    51  H    0.017303
    52  H    0.017359
    53  H    0.013327
    54  H    0.078977
    55  H    0.018393
    56  H    0.018258
    57  H    0.006068
    58  H    0.027897
    59  H    0.037118
    60  H    0.038229
    61  H    0.036590
    62  H    0.028374
    63  H    0.017126
    64  H    0.010279
    65  H    0.023901
    66  H    0.012644
    67  H    0.005413
    68  H    0.007190
    69  H    0.005596
    70  H    0.009135
    71  H    0.019536
    72  H    0.028453
    73  H    0.050741
    74  H    0.010009
    75  H    0.046618
    76  H    0.036307
    77  H    0.044002
    78  H    0.046760
    79  H    0.033552
    80  Mg   0.836774
    81  C   -0.017424
    82  C   -0.087764
    83  C   -0.045961
    84  C   -0.066308
    85  N   -0.253939
    86  C   -0.051056
    87  C   -0.021690
    88  C   -0.092637
    89  C    0.044549
    90  C    0.079348
    91  C    0.067963
    92  C   -0.078657
    93  H    0.029084
    94  N   -0.423296
    95  C    0.162141
    96  C   -0.174975
    97  C   -0.008536
    98  C    0.151875
    99  C    0.100061
   100  C    0.015163
   101  O   -0.253971
   102  C    0.061377
   103  N   -0.350362
   104  C    0.037171
   105  C   -0.019543
   106  C   -0.034806
   107  C    0.089546
   108  C    0.073916
   109  C    0.034894
   110  C   -0.007548
   111  N   -0.324284
   112  C    0.079194
   113  C   -0.164071
   114  C    0.003317
   115  C    0.095454
   116  C    0.131644
   117  C    0.041307
   118  O   -0.185102
   119  C    0.004528
   120  C    0.206187
   121  O   -0.257984
   122  O   -0.287503
   123  C    0.162022
   124  H   -0.020976
   125  H   -0.016450
   126  H   -0.041213
   127  H    0.017562
   128  H   -0.005321
   129  H    0.037760
   130  H    0.016517
   131  H    0.043807
   132  H    0.009639
   133  H    0.038129
   134  H    0.023418
   135  H    0.012797
   136  H    0.006244
   137  H    0.025174
   138  H    0.038345
   139  H    0.037713
   140  H    0.035593
   141  H    0.033203
   142  H    0.013844
   143  H    0.011782
   144  H    0.024484
   145  H    0.011759
   146  H    0.004858
   147  H    0.005669
   148  H    0.003345
   149  H    0.010663
   150  H    0.017453
   151  H    0.030542
   152  H    0.046247
   153  H    0.007674
   154  H    0.046590
   155  H    0.044021
   156  H    0.050938
   157  H    0.047698
   158  H    0.042271
 Sum of Mulliken charges =  -0.00000
 Mulliken charges with hydrogens summed into heavy atoms:
               1
     1  Mg   0.816284
     2  C   -0.004180
     3  C   -0.111349
     4  C   -0.060486
     5  C   -0.102514
     6  N   -0.252703
     7  C   -0.058623
     8  C    0.002753
     9  C   -0.090970
    10  C    0.043220
    11  C    0.165550
    12  C    0.097054
    13  C    0.005364
    15  N   -0.436525
    16  C    0.163859
    17  C   -0.178947
    18  C   -0.006035
    19  C    0.148412
    20  C    0.181654
    21  C    0.011704
    22  O   -0.248412
    23  C    0.166461
    24  N   -0.337236
    25  C    0.039711
    26  C   -0.010777
    27  C   -0.014293
    28  C    0.075576
    29  C    0.117838
    30  C    0.047626
    31  C    0.052192
    32  N   -0.310365
    33  C    0.080198
    34  C   -0.168257
    35  C    0.009685
    36  C    0.080619
    37  C    0.233979
    38  C    0.049204
    39  O   -0.185182
    40  C    0.028123
    41  C    0.215047
    42  O   -0.253826
    43  O   -0.303581
    44  C    0.290268
    80  Mg   0.836774
    81  C   -0.017424
    82  C   -0.108740
    83  C   -0.062411
    84  C   -0.107521
    85  N   -0.253939
    86  C   -0.051056
    87  C   -0.004128
    88  C   -0.097958
    89  C    0.044549
    90  C    0.177433
    91  C    0.115731
    92  C   -0.013357
    94  N   -0.423296
    95  C    0.162141
    96  C   -0.174975
    97  C   -0.008536
    98  C    0.151875
    99  C    0.169824
   100  C    0.015163
   101  O   -0.253971
   102  C    0.167886
   103  N   -0.350362
   104  C    0.037171
   105  C   -0.005699
   106  C   -0.023024
   107  C    0.089546
   108  C    0.115016
   109  C    0.043909
   110  C    0.051110
   111  N   -0.324284
   112  C    0.079194
   113  C   -0.164071
   114  C    0.003317
   115  C    0.095454
   116  C    0.232155
   117  C    0.041307
   118  O   -0.185102
   119  C    0.048549
   120  C    0.206187
   121  O   -0.257984
   122  O   -0.287503
   123  C    0.302930
 Electronic spatial extent (au):  <R**2>=          92934.6862
 Charge=             -0.0000 electrons
 Dipole moment (field-independent basis, Debye):
    X=              4.6155    Y=              5.9376    Z=             -3.4691  Tot=              8.2821
 Quadrupole moment (field-independent basis, Debye-Ang):
   XX=           -500.5037   YY=           -563.0211   ZZ=           -459.1787
   XY=             17.0207   XZ=            -37.2531   YZ=             -3.1012
 Traceless Quadrupole moment (field-independent basis, Debye-Ang):
   XX=              7.0641   YY=            -55.4533   ZZ=             48.3892
   XY=             17.0207   XZ=            -37.2531   YZ=             -3.1012
 Octapole moment (field-independent basis, Debye-Ang**2):
  XXX=            141.6988  YYY=             42.5689  ZZZ=             61.8233  XYY=            105.5087
  XXY=           -139.5790  XXZ=             57.1825  XZZ=             82.3765  YZZ=             74.1662
  YYZ=           -266.5701  XYZ=             96.4187
 Hexadecapole moment (field-independent basis, Debye-Ang**3):
 XXXX=         -70558.7431 YYYY=         -37829.1995 ZZZZ=         -19522.6802 XXXY=           2265.4083
 XXXZ=          -2332.3607 YYYX=           -625.8039 YYYZ=             51.1201 ZZZX=            340.3646
 ZZZY=             52.5818 XXYY=         -18666.2934 XXZZ=         -14123.5824 YYZZ=          -8712.7096
 XXYZ=             32.8778 YYXZ=           -856.4758 ZZXY=           -104.7257
 N-N= 1.599214927121D+04 E-N=-4.146517935919D+04  KE= 4.028782564884D+03
 Leave Link  601 at Fri Sep 10 02:05:35 2021, MaxMem= 23488102400 cpu:              19.7 elap:               1.0
 (Enter /sw/apps/gaussian-16.0/g16/l9999.exe)
 1\1\GINC-BP1-COMPUTE00099\SP\RCAM-B3LYP TD-FC\def2SVP\C68H72Mg2N8O8\OF
 15641\10-Sep-2021\0\\#p cam-b3lyp/Def2SVP td=(nstates=5)\\TDDFT excite
 d states in gaussian\\0,1\Mg,0,0.,0.,0.\C,0,-0.217,-2.218,2.801\C,0,-1
 .255,2.442,2.026\C,0,-0.245,1.85,-2.564\C,0,0.146,-2.824,-2.037\N,0,-0
 .617,-0.009,2.126\C,0,-0.594,-0.908,3.105\C,0,-0.936,-0.309,4.502\C,0,
 -1.773,0.964,4.032\C,0,-1.155,1.168,2.66\C,0,-3.263,0.685,3.863\C,0,0.
 345,0.11,5.299\C,0,0.124,0.397,6.787\H,0,1.168,0.033,7.733\N,0,-0.185,
 1.961,-0.152\C,0,-0.703,2.8,0.777\C,0,-0.62,4.156,0.193\C,0,-0.187,4.0
 15,-1.225\C,0,-0.214,2.583,-1.38\C,0,-0.887,5.406,0.974\C,0,0.181,5.01
 3,-2.277\O,0,0.303,4.69,-3.508\C,0,0.31,6.414,-1.837\N,0,-0.265,-0.413
 ,-2.029\C,0,-0.279,0.569,-2.937\C,0,-0.196,0.024,-4.332\C,0,0.124,-1.5
 33,-4.18\C,0,0.086,-1.632,-2.635\C,0,-1.451,0.205,-5.197\C,0,1.373,-2.
 07,-4.923\C,0,2.626,-1.49,-4.306\N,0,0.15,-2.144,0.303\C,0,0.173,-3.13
 6,-0.688\C,0,0.173,-4.438,0.004\C,0,0.133,-4.111,1.358\C,0,0.083,-2.69
 5,1.502\C,0,0.149,-5.715,-0.623\C,0,0.096,-4.629,2.716\O,0,0.208,-5.74
 7,3.221\C,0,-0.255,-3.428,3.701\C,0,0.717,-3.482,4.848\O,0,1.931,-3.25
 5,4.669\O,0,0.038,-3.556,6.003\C,0,0.943,-3.583,7.183\H,0,-1.859,3.22,
 2.497\H,0,-0.218,2.453,-3.474\H,0,0.276,-3.747,-2.605\H,0,-1.554,-0.94
 9,5.132\H,0,-1.585,1.831,4.665\H,0,-3.484,-0.377,3.969\H,0,-3.511,1.02
 7,2.858\H,0,-3.852,1.301,4.543\H,0,0.669,1.096,4.966\H,0,1.13,-0.639,5
 .189\H,0,-0.844,0.026,7.125\H,0,0.062,1.477,6.921\H,0,-1.344,5.186,1.9
 38\H,0,-1.651,5.963,0.432\H,0,0.007,6.02,1.084\H,0,-0.635,6.744,-1.405
 \H,0,0.665,6.97,-2.704\H,0,1.048,6.466,-1.036\H,0,0.608,0.501,-4.891\H
 ,0,-0.692,-2.156,-4.547\H,0,-1.267,0.74,-6.129\H,0,-2.204,0.714,-4.596
 \H,0,-1.967,-0.72,-5.453\H,0,1.356,-1.759,-5.967\H,0,1.452,-3.157,-4.9
 02\H,0,2.714,-0.522,-4.798\H,0,3.487,-2.121,-4.529\H,0,2.495,-1.303,-3
 .24\H,0,0.867,-6.333,-0.084\H,0,0.404,-5.642,-1.68\H,0,-0.891,-5.999,-
 0.463\H,0,-1.283,-3.581,4.028\H,0,0.698,-4.478,7.755\H,0,0.833,-2.619,
 7.68\H,0,2.,-3.754,6.976\Mg,0,8.93298,0.8089,0.68816\C,0,6.9831,-1.677
 71,2.38928\C,0,6.35115,2.97594,1.21038\C,0,10.42627,2.88491,-1.19006\C
 ,0,10.80953,-1.79339,-0.67286\N,0,6.97354,0.5633,1.68442\C,0,6.36733,-
 0.40941,2.34826\C,0,5.06418,0.02167,3.07319\C,0,4.69411,1.29415,2.1661
 6\C,0,6.09409,1.66302,1.6797\C,0,3.84474,0.94382,0.95571\C,0,5.31885,0
 .43449,4.56541\C,0,4.05645,0.56947,5.41974\H,0,4.12181,0.17764,6.82497
 \N,0,8.70275,2.77155,0.50491\C,0,7.59502,3.49041,0.78322\C,0,7.92998,4
 .88633,0.46174\C,0,9.2704,4.91024,-0.18434\C,0,9.51477,3.49001,-0.3370
 8\C,0,7.05011,6.04217,0.84028\C,0,10.17606,6.02678,-0.60778\O,0,11.188
 96,5.82151,-1.36589\C,0,9.78904,7.38082,-0.18555\N,0,10.26667,0.57695,
 -0.88976\C,0,10.80731,1.64573,-1.50078\C,0,11.93914,1.2377,-2.41339\C,
 0,12.20557,-0.30828,-2.10266\C,0,11.07284,-0.56041,-1.08347\C,0,11.685
 68,1.41945,-3.90976\C,0,13.6546,-0.70789,-1.71116\C,0,14.00784,-0.1152
 7,-0.36602\N,0,9.04552,-1.33224,0.95448\C,0,9.88423,-2.2347,0.2644\C,0
 ,9.51779,-3.59545,0.70769\C,0,8.46742,-3.39005,1.61489\C,0,8.18474,-2.
 00087,1.71371\C,0,10.09847,-4.80762,0.23909\C,0,7.5264,-4.0333,2.50338
 \O,0,7.35122,-5.18596,2.89636\C,0,6.43914,-2.96286,2.94883\C,0,6.27289
 ,-3.06274,4.44044\O,0,7.20948,-2.76416,5.20219\O,0,4.97656,-3.28323,4.
 72554\C,0,4.75944,-3.37883,6.19371\H,0,5.51339,3.66795,1.1201\H,0,11.0
 4464,3.56602,-1.77928\H,0,11.41316,-2.65127,-0.97672\H,0,4.26246,-0.70
 617,3.0375\H,0,4.27465,2.09794,2.76562\H,0,3.72868,-0.12358,0.84028\H,
 0,4.36184,1.36265,0.10234\H,0,2.8822,1.46063,1.00829\H,0,5.67677,1.471
 71,4.59388\H,0,6.00339,-0.24361,5.03681\H,0,3.18109,0.11961,4.93565\H,
 0,3.80328,1.62943,5.49976\H,0,6.0556,5.70398,1.15646\H,0,6.864,6.61535
 ,-0.07443\H,0,7.51227,6.69852,1.58074\H,0,8.79809,7.60969,-0.57039\H,0
 ,10.60496,8.03138,-0.50637\H,0,9.71397,7.3984,0.90746\H,0,12.83732,1.8
 0069,-2.19108\H,0,11.99005,-0.94229,-2.97525\H,0,12.43896,2.06059,-4.4
 0533\H,0,10.69276,1.82877,-4.04052\H,0,11.63262,0.49646,-4.48462\H,0,1
 4.36814,-0.29577,-2.42892\H,0,13.81313,-1.78067,-1.67924\H,0,14.31778,
 0.90314,-0.61875\H,0,14.82052,-0.6719,0.09632\H,0,13.12241,-0.04063,0.
 27592\H,0,10.26055,-5.43149,1.10801\H,0,11.0269,-4.62244,-0.29711\H,0,
 9.30452,-5.16043,-0.42457\H,0,5.51507,-3.19392,2.41753\H,0,4.26918,-4.
 33891,6.38233\H,0,4.20209,-2.4651,6.4734\H,0,5.63596,-3.46118,6.82567\
 \Version=ES64L-G16RevA.03\State=1-A\HF=-4069.8130055\RMSD=5.938e-09\PG
 =C01 [X(C68H72Mg2N8O8)]\\@


 OF ALL THE WONDERS OF THE UNIVERSE, THE GREATEST IS MAN.

                                    -- ARISTOTLE
 Job cpu time:       0 days 17 hours 37 minutes 16.9 seconds.
 Elapsed time:       0 days  0 hours 44 minutes 46.9 seconds.
 File lengths (MBytes):  RWF=  13225 Int=      0 D2E=      0 Chk=    574 Scr=      1
 Normal termination of Gaussian 16 at Fri Sep 10 02:05:36 2021.
