 Entering Gaussian System, Link 0=g16
 Initial command:
 /sw/apps/gaussian-16.0/g16/l1.exe "/tmp/Gau-126883.inp" -scrdir="/tmp/"
 Entering Link 1 = /sw/apps/gaussian-16.0/g16/l1.exe PID=    126884.
  
 Copyright (c) 1988,1990,1992,1993,1995,1998,2003,2009,2016,
            Gaussian, Inc.  All Rights Reserved.
  
 This is part of the Gaussian(R) 16 program.  It is based on
 the Gaussian(R) 09 system (copyright 2009, Gaussian, Inc.),
 the Gaussian(R) 03 system (copyright 2003, Gaussian, Inc.),
 the Gaussian(R) 98 system (copyright 1998, Gaussian, Inc.),
 the Gaussian(R) 94 system (copyright 1995, Gaussian, Inc.),
 the Gaussian 92(TM) system (copyright 1992, Gaussian, Inc.),
 the Gaussian 90(TM) system (copyright 1990, Gaussian, Inc.),
 the Gaussian 88(TM) system (copyright 1988, Gaussian, Inc.),
 the Gaussian 86(TM) system (copyright 1986, Carnegie Mellon
 University), and the Gaussian 82(TM) system (copyright 1983,
 Carnegie Mellon University). Gaussian is a federally registered
 trademark of Gaussian, Inc.
  
 This software contains proprietary and confidential information,
 including trade secrets, belonging to Gaussian, Inc.
  
 This software is provided under written license and may be
 used, copied, transmitted, or stored only in accord with that
 written license.
  
 The following legend is applicable only to US Government
 contracts under FAR:
  
                    RESTRICTED RIGHTS LEGEND
  
 Use, reproduction and disclosure by the US Government is
 subject to restrictions as set forth in subparagraphs (a)
 and (c) of the Commercial Computer Software - Restricted
 Rights clause in FAR 52.227-19.
  
 Gaussian, Inc.
 340 Quinnipiac St., Bldg. 40, Wallingford CT 06492
  
  
 ---------------------------------------------------------------
 Warning -- This program may not be used in any manner that
 competes with the business of Gaussian, Inc. or will provide
 assistance to any competitor of Gaussian, Inc.  The licensee
 of this program is prohibited from giving any competitor of
 Gaussian, Inc. access to this program.  By using this program,
 the user acknowledges that Gaussian, Inc. is engaged in the
 business of creating and licensing software in the field of
 computational chemistry and represents and warrants to the
 licensee that it is not a competitor of Gaussian, Inc. and that
 it will not use this program in any manner prohibited above.
 ---------------------------------------------------------------
  

 Cite this work as:
 Gaussian 16, Revision A.03,
 M. J. Frisch, G. W. Trucks, H. B. Schlegel, G. E. Scuseria, 
 M. A. Robb, J. R. Cheeseman, G. Scalmani, V. Barone, 
 G. A. Petersson, H. Nakatsuji, X. Li, M. Caricato, A. V. Marenich, 
 J. Bloino, B. G. Janesko, R. Gomperts, B. Mennucci, H. P. Hratchian, 
 J. V. Ortiz, A. F. Izmaylov, J. L. Sonnenberg, D. Williams-Young, 
 F. Ding, F. Lipparini, F. Egidi, J. Goings, B. Peng, A. Petrone, 
 T. Henderson, D. Ranasinghe, V. G. Zakrzewski, J. Gao, N. Rega, 
 G. Zheng, W. Liang, M. Hada, M. Ehara, K. Toyota, R. Fukuda, 
 J. Hasegawa, M. Ishida, T. Nakajima, Y. Honda, O. Kitao, H. Nakai, 
 T. Vreven, K. Throssell, J. A. Montgomery, Jr., J. E. Peralta, 
 F. Ogliaro, M. J. Bearpark, J. J. Heyd, E. N. Brothers, K. N. Kudin, 
 V. N. Staroverov, T. A. Keith, R. Kobayashi, J. Normand, 
 K. Raghavachari, A. P. Rendell, J. C. Burant, S. S. Iyengar, 
 J. Tomasi, M. Cossi, J. M. Millam, M. Klene, C. Adamo, R. Cammi, 
 J. W. Ochterski, R. L. Martin, K. Morokuma, O. Farkas, 
 J. B. Foresman, and D. J. Fox, Gaussian, Inc., Wallingford CT, 2016.
 
 ******************************************
 Gaussian 16:  ES64L-G16RevA.03 25-Dec-2016
                 4-Sep-2021 
 ******************************************
 %nproc=24
 Will use up to   24 processors via shared memory.
 %mem=175gb
 -----------------------------------
 #p cam-b3lyp/Def2SVP td=(nstates=5)
 -----------------------------------
 1/38=1,172=1/1;
 2/12=2,17=6,18=5,40=1/2;
 3/5=43,7=101,11=9,25=1,30=1,74=-40/1,2,3,8;
 4//1;
 5/5=2,38=5/2;
 8/6=1,10=1,108=5/1;
 9/41=5,42=1,70=2/14;
 6/7=2,8=2,9=2,10=2/1;
 99/5=1,9=1/99;
 Leave Link    1 at Sat Sep  4 13:20:06 2021, MaxMem= 23488102400 cpu:               0.8 elap:               0.0
 (Enter /sw/apps/gaussian-16.0/g16/l101.exe)
 --------------------------------
 TDDFT excited states in gaussian
 --------------------------------
 Symbolic Z-matrix:
 Charge =  0 Multiplicity = 1
 Mg                    0.        0.        0. 
 C                    -0.217    -2.218     2.801 
 C                    -1.255     2.442     2.026 
 C                    -0.245     1.85     -2.564 
 C                     0.146    -2.824    -2.037 
 N                    -0.617    -0.009     2.126 
 C                    -0.594    -0.908     3.105 
 C                    -0.936    -0.309     4.502 
 C                    -1.773     0.964     4.032 
 C                    -1.155     1.168     2.66 
 C                    -3.263     0.685     3.863 
 C                     0.345     0.11      5.299 
 C                     0.124     0.397     6.787 
 H                     1.168     0.033     7.733 
 N                    -0.185     1.961    -0.152 
 C                    -0.703     2.8       0.777 
 C                    -0.62      4.156     0.193 
 C                    -0.187     4.015    -1.225 
 C                    -0.214     2.583    -1.38 
 C                    -0.887     5.406     0.974 
 C                     0.181     5.013    -2.277 
 O                     0.303     4.69     -3.508 
 C                     0.31      6.414    -1.837 
 N                    -0.265    -0.413    -2.029 
 C                    -0.279     0.569    -2.937 
 C                    -0.196     0.024    -4.332 
 C                     0.124    -1.533    -4.18 
 C                     0.086    -1.632    -2.635 
 C                    -1.451     0.205    -5.197 
 C                     1.373    -2.07     -4.923 
 C                     2.626    -1.49     -4.306 
 N                     0.15     -2.144     0.303 
 C                     0.173    -3.136    -0.688 
 C                     0.173    -4.438     0.004 
 C                     0.133    -4.111     1.358 
 C                     0.083    -2.695     1.502 
 C                     0.149    -5.715    -0.623 
 C                     0.096    -4.629     2.716 
 O                     0.208    -5.747     3.221 
 C                    -0.255    -3.428     3.701 
 C                     0.717    -3.482     4.848 
 O                     1.931    -3.255     4.669 
 O                     0.038    -3.556     6.003 
 C                     0.943    -3.583     7.183 
 H                    -1.859     3.22      2.497 
 H                    -0.218     2.453    -3.474 
 H                     0.276    -3.747    -2.605 
 H                    -1.554    -0.949     5.132 
 H                    -1.585     1.831     4.665 
 H                    -3.484    -0.377     3.969 
 H                    -3.511     1.027     2.858 
 H                    -3.852     1.301     4.543 
 H                     0.669     1.096     4.966 
 H                     1.13     -0.639     5.189 
 H                    -0.844     0.026     7.125 
 H                     0.062     1.477     6.921 
 H                    -1.344     5.186     1.938 
 H                    -1.651     5.963     0.432 
 H                     0.007     6.02      1.084 
 H                    -0.635     6.744    -1.405 
 H                     0.665     6.97     -2.704 
 H                     1.048     6.466    -1.036 
 H                     0.608     0.501    -4.891 
 H                    -0.692    -2.156    -4.547 
 H                    -1.267     0.74     -6.129 
 H                    -2.204     0.714    -4.596 
 H                    -1.967    -0.72     -5.453 
 H                     1.356    -1.759    -5.967 
 H                     1.452    -3.157    -4.902 
 H                     2.714    -0.522    -4.798 
 H                     3.487    -2.121    -4.529 
 H                     2.495    -1.303    -3.24 
 H                     0.867    -6.333    -0.084 
 H                     0.404    -5.642    -1.68 
 H                    -0.891    -5.999    -0.463 
 H                    -1.283    -3.581     4.028 
 H                     0.698    -4.478     7.755 
 H                     0.833    -2.619     7.68 
 H                     2.       -3.754     6.976 
 Mg                    15.77396   1.42115   1.19057 
 C                     15.30197   4.91662   0.52877 
 C                     15.19243   0.86774  -2.12457 
 C                     15.73732  -1.68891   1.81796 
 C                     15.18639   2.12064   4.55378 
 N                     15.31825   2.79566  -0.48134 
 C                     15.2249   4.10905  -0.62506 
 C                     15.11879   4.58903  -2.09745 
 C                     14.52399   3.24572  -2.74599 
 C                     15.07089   2.22873  -1.74634 
 C                     13.00611   3.18136  -2.71079 
 C                     16.51696   4.95233  -2.70993 
 C                     16.45983   5.71795  -4.03368 
 H                     17.47752   6.7319   -4.29579 
 N                     15.98991  -0.13597  -0.02076 
 C                     15.72907  -0.17976  -1.34413 
 C                     16.03083  -1.55567  -1.76836 
 C                     16.33359  -2.36448  -0.55638 
 C                     16.0045  -1.41206   0.4851 
 C                     16.09115  -1.96779  -3.21056 
 C                     16.82431  -3.76775  -0.36604 
 O                     16.79012  -4.34361   0.77853 
 C                     17.25909  -4.48007  -1.57644 
 N                     15.29411   0.33224   2.89538 
 C                     15.41331  -1.00688   2.91668 
 C                     15.28007  -1.54411   4.32168 
 C                     15.28781  -0.26017   5.2751 
 C                     15.33657   0.85071   4.20321 
 C                     14.02864  -2.37659   4.59968 
 C                     16.34398  -0.23548   6.41377 
 C                     17.73275  -0.12301   5.8272 
 N                     15.50736   3.20137   2.38547 
 C                     15.24745   3.26708   3.77191 
 C                     15.02931   4.68923   4.10705 
 C                     15.1557   5.35501   2.87853 
 C                     15.41301   4.41201   1.84702 
 C                     14.70901   5.20042   5.39632 
 C                     15.1194   6.63999   2.21806 
 O                     15.02794   7.80781   2.59429 
 C                     15.08703   6.4       0.64715 
 C                     16.10734   7.30824   0.0174 
 O                     17.31976   7.15095   0.24523 
 O                     15.50454   8.06919  -0.91424 
 C                     16.47789   8.97919  -1.57478 
 H                     14.8018   0.56225  -3.09563 
 H                     15.8219  -2.73888   2.10758 
 H                     15.09486   2.43142   5.59672 
 H                     14.43502   5.41389  -2.25818 
 H                     14.93742   3.06814  -3.73539 
 H                     12.58118   3.99859  -2.14714 
 H                     12.76251   2.23464  -2.24666 
 H                     12.60731   3.1298   -3.72796 
 H                     17.01057   4.03159  -3.04657 
 H                     17.11273   5.49653  -2.00316 
 H                     15.45852   6.11715  -4.23608 
 H                     16.63756   5.01354  -4.84992 
 H                     15.66101  -1.20081  -3.8664 
 H                     15.42369  -2.82872  -3.32529 
 H                     17.09667  -2.25584  -3.52462 
 H                     16.43588  -4.52282  -2.28563 
 H                     17.65854  -5.43395  -1.22655 
 H                     18.05715  -3.90164  -2.05512 
 H                     16.12256  -2.17558   4.57577 
 H                     14.33234  -0.14189   5.80702 
 H                     14.25471  -3.39243   4.97521 
 H                     13.44434  -2.42854   3.69059 
 H                     13.32493  -1.93229   5.30153 
 H                     16.31875  -1.17331   6.97412 
 H                     16.19294   0.56916   7.12562 
 H                     17.97769  -1.1585    5.57257 
 H                     18.42779   0.27767   6.56233 
 H                     17.72042   0.45187   4.89392 
 H                     15.31443   6.08555   5.53952 
 H                     14.89302   4.46189   6.17381 
 H                     13.64248   5.40272   5.26648 
 H                     14.07564   6.61955   0.30298 
 H                     16.09187   9.99689  -1.46089 
 H                     16.59226   8.59634  -2.60633 
 H                     17.45972   9.07394  -1.1259 
 
 ITRead=  0  0  0  0  0  0  0  0  0  0  0  0  0  0  0  0  0  0  0  0
 ITRead=  0  0  0  0  0  0  0  0  0  0  0  0  0  0  0  0  0  0  0  0
 ITRead=  0  0  0  0  0  0  0  0  0  0  0  0  0  0  0  0  0  0  0  0
 ITRead=  0  0  0  0  0  0  0  0  0  0  0  0  0  0  0  0  0  0  0  0
 ITRead=  0  0  0  0  0  0  0  0  0  0  0  0  0  0  0  0  0  0  0  0
 ITRead=  0  0  0  0  0  0  0  0  0  0  0  0  0  0  0  0  0  0  0  0
 ITRead=  0  0  0  0  0  0  0  0  0  0  0  0  0  0  0  0  0  0  0  0
 ITRead=  0  0  0  0  0  0  0  0  0  0  0  0  0  0  0  0  0  0
 MicOpt= -1 -1 -1 -1 -1 -1 -1 -1 -1 -1 -1 -1 -1 -1 -1 -1 -1 -1 -1 -1
 MicOpt= -1 -1 -1 -1 -1 -1 -1 -1 -1 -1 -1 -1 -1 -1 -1 -1 -1 -1 -1 -1
 MicOpt= -1 -1 -1 -1 -1 -1 -1 -1 -1 -1 -1 -1 -1 -1 -1 -1 -1 -1 -1 -1
 MicOpt= -1 -1 -1 -1 -1 -1 -1 -1 -1 -1 -1 -1 -1 -1 -1 -1 -1 -1 -1 -1
 MicOpt= -1 -1 -1 -1 -1 -1 -1 -1 -1 -1 -1 -1 -1 -1 -1 -1 -1 -1 -1 -1
 MicOpt= -1 -1 -1 -1 -1 -1 -1 -1 -1 -1 -1 -1 -1 -1 -1 -1 -1 -1 -1 -1
 MicOpt= -1 -1 -1 -1 -1 -1 -1 -1 -1 -1 -1 -1 -1 -1 -1 -1 -1 -1 -1 -1
 MicOpt= -1 -1 -1 -1 -1 -1 -1 -1 -1 -1 -1 -1 -1 -1 -1 -1 -1 -1
 NAtoms=    158 NQM=      158 NQMF=       0 NMMI=      0 NMMIF=      0
                NMic=       0 NMicF=      0.
                    Isotopes and Nuclear Properties:
 (Nuclear quadrupole moments (NQMom) in fm**2, nuclear magnetic moments (NMagM)
  in nuclear magnetons)

  Atom         1           2           3           4           5           6           7           8           9          10
 IAtWgt=          24          12          12          12          12          14          12          12          12          12
 AtmWgt=  23.9850450  12.0000000  12.0000000  12.0000000  12.0000000  14.0030740  12.0000000  12.0000000  12.0000000  12.0000000
 NucSpn=           0           0           0           0           0           2           0           0           0           0
 AtZEff=  -0.0000000  -0.0000000  -0.0000000  -0.0000000  -0.0000000  -0.0000000  -0.0000000  -0.0000000  -0.0000000  -0.0000000
 NQMom=    0.0000000   0.0000000   0.0000000   0.0000000   0.0000000   2.0440000   0.0000000   0.0000000   0.0000000   0.0000000
 NMagM=    0.0000000   0.0000000   0.0000000   0.0000000   0.0000000   0.4037610   0.0000000   0.0000000   0.0000000   0.0000000
 AtZNuc=  12.0000000   6.0000000   6.0000000   6.0000000   6.0000000   7.0000000   6.0000000   6.0000000   6.0000000   6.0000000

  Atom        11          12          13          14          15          16          17          18          19          20
 IAtWgt=          12          12          12           1          14          12          12          12          12          12
 AtmWgt=  12.0000000  12.0000000  12.0000000   1.0078250  14.0030740  12.0000000  12.0000000  12.0000000  12.0000000  12.0000000
 NucSpn=           0           0           0           1           2           0           0           0           0           0
 AtZEff=  -0.0000000  -0.0000000  -0.0000000  -0.0000000  -0.0000000  -0.0000000  -0.0000000  -0.0000000  -0.0000000  -0.0000000
 NQMom=    0.0000000   0.0000000   0.0000000   0.0000000   2.0440000   0.0000000   0.0000000   0.0000000   0.0000000   0.0000000
 NMagM=    0.0000000   0.0000000   0.0000000   2.7928460   0.4037610   0.0000000   0.0000000   0.0000000   0.0000000   0.0000000
 AtZNuc=   6.0000000   6.0000000   6.0000000   1.0000000   7.0000000   6.0000000   6.0000000   6.0000000   6.0000000   6.0000000

  Atom        21          22          23          24          25          26          27          28          29          30
 IAtWgt=          12          16          12          14          12          12          12          12          12          12
 AtmWgt=  12.0000000  15.9949146  12.0000000  14.0030740  12.0000000  12.0000000  12.0000000  12.0000000  12.0000000  12.0000000
 NucSpn=           0           0           0           2           0           0           0           0           0           0
 AtZEff=  -0.0000000  -0.0000000  -0.0000000  -0.0000000  -0.0000000  -0.0000000  -0.0000000  -0.0000000  -0.0000000  -0.0000000
 NQMom=    0.0000000   0.0000000   0.0000000   2.0440000   0.0000000   0.0000000   0.0000000   0.0000000   0.0000000   0.0000000
 NMagM=    0.0000000   0.0000000   0.0000000   0.4037610   0.0000000   0.0000000   0.0000000   0.0000000   0.0000000   0.0000000
 AtZNuc=   6.0000000   8.0000000   6.0000000   7.0000000   6.0000000   6.0000000   6.0000000   6.0000000   6.0000000   6.0000000

  Atom        31          32          33          34          35          36          37          38          39          40
 IAtWgt=          12          14          12          12          12          12          12          12          16          12
 AtmWgt=  12.0000000  14.0030740  12.0000000  12.0000000  12.0000000  12.0000000  12.0000000  12.0000000  15.9949146  12.0000000
 NucSpn=           0           2           0           0           0           0           0           0           0           0
 AtZEff=  -0.0000000  -0.0000000  -0.0000000  -0.0000000  -0.0000000  -0.0000000  -0.0000000  -0.0000000  -0.0000000  -0.0000000
 NQMom=    0.0000000   2.0440000   0.0000000   0.0000000   0.0000000   0.0000000   0.0000000   0.0000000   0.0000000   0.0000000
 NMagM=    0.0000000   0.4037610   0.0000000   0.0000000   0.0000000   0.0000000   0.0000000   0.0000000   0.0000000   0.0000000
 AtZNuc=   6.0000000   7.0000000   6.0000000   6.0000000   6.0000000   6.0000000   6.0000000   6.0000000   8.0000000   6.0000000

  Atom        41          42          43          44          45          46          47          48          49          50
 IAtWgt=          12          16          16          12           1           1           1           1           1           1
 AtmWgt=  12.0000000  15.9949146  15.9949146  12.0000000   1.0078250   1.0078250   1.0078250   1.0078250   1.0078250   1.0078250
 NucSpn=           0           0           0           0           1           1           1           1           1           1
 AtZEff=  -0.0000000  -0.0000000  -0.0000000  -0.0000000  -0.0000000  -0.0000000  -0.0000000  -0.0000000  -0.0000000  -0.0000000
 NQMom=    0.0000000   0.0000000   0.0000000   0.0000000   0.0000000   0.0000000   0.0000000   0.0000000   0.0000000   0.0000000
 NMagM=    0.0000000   0.0000000   0.0000000   0.0000000   2.7928460   2.7928460   2.7928460   2.7928460   2.7928460   2.7928460
 AtZNuc=   6.0000000   8.0000000   8.0000000   6.0000000   1.0000000   1.0000000   1.0000000   1.0000000   1.0000000   1.0000000

  Atom        51          52          53          54          55          56          57          58          59          60
 IAtWgt=           1           1           1           1           1           1           1           1           1           1
 AtmWgt=   1.0078250   1.0078250   1.0078250   1.0078250   1.0078250   1.0078250   1.0078250   1.0078250   1.0078250   1.0078250
 NucSpn=           1           1           1           1           1           1           1           1           1           1
 AtZEff=  -0.0000000  -0.0000000  -0.0000000  -0.0000000  -0.0000000  -0.0000000  -0.0000000  -0.0000000  -0.0000000  -0.0000000
 NQMom=    0.0000000   0.0000000   0.0000000   0.0000000   0.0000000   0.0000000   0.0000000   0.0000000   0.0000000   0.0000000
 NMagM=    2.7928460   2.7928460   2.7928460   2.7928460   2.7928460   2.7928460   2.7928460   2.7928460   2.7928460   2.7928460
 AtZNuc=   1.0000000   1.0000000   1.0000000   1.0000000   1.0000000   1.0000000   1.0000000   1.0000000   1.0000000   1.0000000

  Atom        61          62          63          64          65          66          67          68          69          70
 IAtWgt=           1           1           1           1           1           1           1           1           1           1
 AtmWgt=   1.0078250   1.0078250   1.0078250   1.0078250   1.0078250   1.0078250   1.0078250   1.0078250   1.0078250   1.0078250
 NucSpn=           1           1           1           1           1           1           1           1           1           1
 AtZEff=  -0.0000000  -0.0000000  -0.0000000  -0.0000000  -0.0000000  -0.0000000  -0.0000000  -0.0000000  -0.0000000  -0.0000000
 NQMom=    0.0000000   0.0000000   0.0000000   0.0000000   0.0000000   0.0000000   0.0000000   0.0000000   0.0000000   0.0000000
 NMagM=    2.7928460   2.7928460   2.7928460   2.7928460   2.7928460   2.7928460   2.7928460   2.7928460   2.7928460   2.7928460
 AtZNuc=   1.0000000   1.0000000   1.0000000   1.0000000   1.0000000   1.0000000   1.0000000   1.0000000   1.0000000   1.0000000

  Atom        71          72          73          74          75          76          77          78          79          80
 IAtWgt=           1           1           1           1           1           1           1           1           1          24
 AtmWgt=   1.0078250   1.0078250   1.0078250   1.0078250   1.0078250   1.0078250   1.0078250   1.0078250   1.0078250  23.9850450
 NucSpn=           1           1           1           1           1           1           1           1           1           0
 AtZEff=  -0.0000000  -0.0000000  -0.0000000  -0.0000000  -0.0000000  -0.0000000  -0.0000000  -0.0000000  -0.0000000  -0.0000000
 NQMom=    0.0000000   0.0000000   0.0000000   0.0000000   0.0000000   0.0000000   0.0000000   0.0000000   0.0000000   0.0000000
 NMagM=    2.7928460   2.7928460   2.7928460   2.7928460   2.7928460   2.7928460   2.7928460   2.7928460   2.7928460   0.0000000
 AtZNuc=   1.0000000   1.0000000   1.0000000   1.0000000   1.0000000   1.0000000   1.0000000   1.0000000   1.0000000  12.0000000

  Atom        81          82          83          84          85          86          87          88          89          90
 IAtWgt=          12          12          12          12          14          12          12          12          12          12
 AtmWgt=  12.0000000  12.0000000  12.0000000  12.0000000  14.0030740  12.0000000  12.0000000  12.0000000  12.0000000  12.0000000
 NucSpn=           0           0           0           0           2           0           0           0           0           0
 AtZEff=  -0.0000000  -0.0000000  -0.0000000  -0.0000000  -0.0000000  -0.0000000  -0.0000000  -0.0000000  -0.0000000  -0.0000000
 NQMom=    0.0000000   0.0000000   0.0000000   0.0000000   2.0440000   0.0000000   0.0000000   0.0000000   0.0000000   0.0000000
 NMagM=    0.0000000   0.0000000   0.0000000   0.0000000   0.4037610   0.0000000   0.0000000   0.0000000   0.0000000   0.0000000
 AtZNuc=   6.0000000   6.0000000   6.0000000   6.0000000   7.0000000   6.0000000   6.0000000   6.0000000   6.0000000   6.0000000

  Atom        91          92          93          94          95          96          97          98          99         100
 IAtWgt=          12          12           1          14          12          12          12          12          12          12
 AtmWgt=  12.0000000  12.0000000   1.0078250  14.0030740  12.0000000  12.0000000  12.0000000  12.0000000  12.0000000  12.0000000
 NucSpn=           0           0           1           2           0           0           0           0           0           0
 AtZEff=  -0.0000000  -0.0000000  -0.0000000  -0.0000000  -0.0000000  -0.0000000  -0.0000000  -0.0000000  -0.0000000  -0.0000000
 NQMom=    0.0000000   0.0000000   0.0000000   2.0440000   0.0000000   0.0000000   0.0000000   0.0000000   0.0000000   0.0000000
 NMagM=    0.0000000   0.0000000   2.7928460   0.4037610   0.0000000   0.0000000   0.0000000   0.0000000   0.0000000   0.0000000
 AtZNuc=   6.0000000   6.0000000   1.0000000   7.0000000   6.0000000   6.0000000   6.0000000   6.0000000   6.0000000   6.0000000

  Atom       101         102         103         104         105         106         107         108         109         110
 IAtWgt=          16          12          14          12          12          12          12          12          12          12
 AtmWgt=  15.9949146  12.0000000  14.0030740  12.0000000  12.0000000  12.0000000  12.0000000  12.0000000  12.0000000  12.0000000
 NucSpn=           0           0           2           0           0           0           0           0           0           0
 AtZEff=  -0.0000000  -0.0000000  -0.0000000  -0.0000000  -0.0000000  -0.0000000  -0.0000000  -0.0000000  -0.0000000  -0.0000000
 NQMom=    0.0000000   0.0000000   2.0440000   0.0000000   0.0000000   0.0000000   0.0000000   0.0000000   0.0000000   0.0000000
 NMagM=    0.0000000   0.0000000   0.4037610   0.0000000   0.0000000   0.0000000   0.0000000   0.0000000   0.0000000   0.0000000
 AtZNuc=   8.0000000   6.0000000   7.0000000   6.0000000   6.0000000   6.0000000   6.0000000   6.0000000   6.0000000   6.0000000

  Atom       111         112         113         114         115         116         117         118         119         120
 IAtWgt=          14          12          12          12          12          12          12          16          12          12
 AtmWgt=  14.0030740  12.0000000  12.0000000  12.0000000  12.0000000  12.0000000  12.0000000  15.9949146  12.0000000  12.0000000
 NucSpn=           2           0           0           0           0           0           0           0           0           0
 AtZEff=  -0.0000000  -0.0000000  -0.0000000  -0.0000000  -0.0000000  -0.0000000  -0.0000000  -0.0000000  -0.0000000  -0.0000000
 NQMom=    2.0440000   0.0000000   0.0000000   0.0000000   0.0000000   0.0000000   0.0000000   0.0000000   0.0000000   0.0000000
 NMagM=    0.4037610   0.0000000   0.0000000   0.0000000   0.0000000   0.0000000   0.0000000   0.0000000   0.0000000   0.0000000
 AtZNuc=   7.0000000   6.0000000   6.0000000   6.0000000   6.0000000   6.0000000   6.0000000   8.0000000   6.0000000   6.0000000

  Atom       121         122         123         124         125         126         127         128         129         130
 IAtWgt=          16          16          12           1           1           1           1           1           1           1
 AtmWgt=  15.9949146  15.9949146  12.0000000   1.0078250   1.0078250   1.0078250   1.0078250   1.0078250   1.0078250   1.0078250
 NucSpn=           0           0           0           1           1           1           1           1           1           1
 AtZEff=  -0.0000000  -0.0000000  -0.0000000  -0.0000000  -0.0000000  -0.0000000  -0.0000000  -0.0000000  -0.0000000  -0.0000000
 NQMom=    0.0000000   0.0000000   0.0000000   0.0000000   0.0000000   0.0000000   0.0000000   0.0000000   0.0000000   0.0000000
 NMagM=    0.0000000   0.0000000   0.0000000   2.7928460   2.7928460   2.7928460   2.7928460   2.7928460   2.7928460   2.7928460
 AtZNuc=   8.0000000   8.0000000   6.0000000   1.0000000   1.0000000   1.0000000   1.0000000   1.0000000   1.0000000   1.0000000

  Atom       131         132         133         134         135         136         137         138         139         140
 IAtWgt=           1           1           1           1           1           1           1           1           1           1
 AtmWgt=   1.0078250   1.0078250   1.0078250   1.0078250   1.0078250   1.0078250   1.0078250   1.0078250   1.0078250   1.0078250
 NucSpn=           1           1           1           1           1           1           1           1           1           1
 AtZEff=  -0.0000000  -0.0000000  -0.0000000  -0.0000000  -0.0000000  -0.0000000  -0.0000000  -0.0000000  -0.0000000  -0.0000000
 NQMom=    0.0000000   0.0000000   0.0000000   0.0000000   0.0000000   0.0000000   0.0000000   0.0000000   0.0000000   0.0000000
 NMagM=    2.7928460   2.7928460   2.7928460   2.7928460   2.7928460   2.7928460   2.7928460   2.7928460   2.7928460   2.7928460
 AtZNuc=   1.0000000   1.0000000   1.0000000   1.0000000   1.0000000   1.0000000   1.0000000   1.0000000   1.0000000   1.0000000

  Atom       141         142         143         144         145         146         147         148         149         150
 IAtWgt=           1           1           1           1           1           1           1           1           1           1
 AtmWgt=   1.0078250   1.0078250   1.0078250   1.0078250   1.0078250   1.0078250   1.0078250   1.0078250   1.0078250   1.0078250
 NucSpn=           1           1           1           1           1           1           1           1           1           1
 AtZEff=  -0.0000000  -0.0000000  -0.0000000  -0.0000000  -0.0000000  -0.0000000  -0.0000000  -0.0000000  -0.0000000  -0.0000000
 NQMom=    0.0000000   0.0000000   0.0000000   0.0000000   0.0000000   0.0000000   0.0000000   0.0000000   0.0000000   0.0000000
 NMagM=    2.7928460   2.7928460   2.7928460   2.7928460   2.7928460   2.7928460   2.7928460   2.7928460   2.7928460   2.7928460
 AtZNuc=   1.0000000   1.0000000   1.0000000   1.0000000   1.0000000   1.0000000   1.0000000   1.0000000   1.0000000   1.0000000

  Atom       151         152         153         154         155         156         157         158
 IAtWgt=           1           1           1           1           1           1           1           1
 AtmWgt=   1.0078250   1.0078250   1.0078250   1.0078250   1.0078250   1.0078250   1.0078250   1.0078250
 NucSpn=           1           1           1           1           1           1           1           1
 AtZEff=  -0.0000000  -0.0000000  -0.0000000  -0.0000000  -0.0000000  -0.0000000  -0.0000000  -0.0000000
 NQMom=    0.0000000   0.0000000   0.0000000   0.0000000   0.0000000   0.0000000   0.0000000   0.0000000
 NMagM=    2.7928460   2.7928460   2.7928460   2.7928460   2.7928460   2.7928460   2.7928460   2.7928460
 AtZNuc=   1.0000000   1.0000000   1.0000000   1.0000000   1.0000000   1.0000000   1.0000000   1.0000000
 Leave Link  101 at Sat Sep  4 13:20:06 2021, MaxMem= 23488102400 cpu:               3.8 elap:               0.2
 (Enter /sw/apps/gaussian-16.0/g16/l202.exe)
 Stoichiometry    C68H72Mg2N8O8
 Framework group  C1[X(C68H72Mg2N8O8)]
 Deg. of freedom   468
 Full point group                 C1      NOp   1
 Largest Abelian subgroup         C1      NOp   1
 Largest concise Abelian subgroup C1      NOp   1
                         Standard orientation:                         
 ---------------------------------------------------------------------
 Center     Atomic      Atomic             Coordinates (Angstroms)
 Number     Number       Type             X           Y           Z
 ---------------------------------------------------------------------
      1         12           0        7.807711    0.845255    0.339729
      2          6           0        8.397265   -2.519953   -0.727986
      3          6           0        8.604728    1.832176   -2.827891
      4          6           0        7.736444    3.842786    1.372369
      5          6           0        8.169575   -0.287167    3.615753
      6          7           0        8.406472   -0.293556   -1.461727
      7          6           0        8.536953   -1.583610   -1.754823
      8          6           0        8.761752   -1.852614   -3.272873
      9          6           0        9.364510   -0.437548   -3.692720
     10          6           0        8.726901    0.426322   -2.618892
     11          6           0       10.881145   -0.355568   -3.552724
     12          6           0        7.423268   -2.152064   -4.028201
     13          6           0        7.583287   -2.742143   -5.432322
     14          1           0        6.614869   -3.725558   -5.893200
     15          7           0        7.646284    2.541343   -0.660309
     16          6           0        8.004465    2.759160   -1.948544
     17          6           0        7.687499    4.176712   -2.225603
     18          6           0        7.292806    4.814590   -0.938971
     19          6           0        7.571540    3.751388   -0.007688
     20          6           0        7.727135    4.775680   -3.597979
     21          6           0        6.760374    6.171209   -0.600990
     22          8           0        6.702900    6.598890    0.602488
     23          6           0        6.385296    7.031629   -1.737668
     24          7           0        8.150862    1.712332    2.207364
     25          6           0        7.996608    3.027413    2.396443
     26          6           0        8.017292    3.375414    3.855349
     27          6           0        7.974889    1.986365    4.641796
     28          6           0        8.022246    1.026218    3.427652
     29          6           0        9.225169    4.194470    4.330944
     30          6           0        6.843156    1.802518    5.683813
     31          6           0        5.504837    1.740150    4.982308
     32          7           0        8.034995   -1.080159    1.315521
     33          6           0        8.191281   -1.316066    2.689055
     34          6           0        8.416537   -2.763652    2.855859
     35          6           0        8.391991   -3.270182    1.557911
     36          6           0        8.191922   -2.202722    0.636612
     37          6           0        8.667376   -3.431614    4.086851
     38          6           0        8.512825   -4.461483    0.733254
     39          8           0        8.596418   -5.669169    0.961287
     40          6           0        8.642778   -4.007143   -0.787441
     41          6           0        7.689848   -4.845389   -1.595264
     42          8           0        6.455727   -4.730910   -1.449648
     43          8           0        8.365729   -5.471333   -2.570929
     44          6           0        7.473860   -6.297245   -3.428013
     45          1           0        9.060484    2.275422   -3.715450
     46          1           0        7.608376    4.847312    1.780983
     47          1           0        8.206374   -0.724948    4.614976
     48          1           0        9.479477   -2.643090   -3.492972
     49          1           0        9.024172   -0.127111   -4.680405
     50          1           0       11.284649   -1.242343   -3.064119
     51          1           0       11.070082    0.531557   -2.947906
     52          1           0       11.349570   -0.164999   -4.518663
     53          1           0        6.932800   -1.211054   -4.277203
     54          1           0        6.782497   -2.804377   -3.433873
     55          1           0        8.599749   -3.098715   -5.601350
     56          1           0        7.454069   -1.938464   -6.157306
     57          1           0        8.211018    4.110039   -4.311648
     58          1           0        8.384078    5.643783   -3.547651
     59          1           0        6.738706    5.082042   -3.940734
     60          1           0        7.255592    7.183751   -2.376410
     61          1           0        5.942371    7.927274   -1.303516
     62          1           0        5.645784    6.510299   -2.346180
     63          1           0        7.144734    3.967371    4.128580
     64          1           0        8.889348    1.809043    5.208361
     65          1           0        8.954586    5.134559    4.812320
     66          1           0        9.874210    4.367104    3.472904
     67          1           0        9.896777    3.667415    5.008124
     68          1           0        6.810314    2.654371    6.362204
     69          1           0        6.956122    0.901942    6.287513
     70          1           0        5.250625    2.791081    4.849069
     71          1           0        4.769074    1.237127    5.610665
     72          1           0        5.595841    1.298544    3.989742
     73          1           0        8.066443   -4.340741    4.068554
     74          1           0        8.408609   -2.802806    4.938463
     75          1           0        9.740301   -3.605770    4.007116
     76          1           0        9.680087   -4.172979   -1.076595
     77          1           0        7.869430   -7.312949   -3.417879
     78          1           0        7.410515   -5.788495   -4.390076
     79          1           0        6.464307   -6.465807   -3.051544
     80         12           0       -7.976292   -0.916512    0.211854
     81          6           0       -8.122136    2.350873   -1.265302
     82          6           0       -7.290693    0.619129    3.179404
     83          6           0       -7.397224   -3.781293    1.446821
     84          6           0       -7.536842   -2.196783   -2.999610
     85          7           0       -7.760938    1.215612    0.759488
     86          6           0       -7.898932    2.371290    0.127248
     87          6           0       -7.871655    3.617671    1.052107
     88          6           0       -7.047143    2.989098    2.278463
     89          6           0       -7.411804    1.518023    2.089704
     90          6           0       -5.541727    3.131215    2.127249
     91          6           0       -9.308928    4.064644    1.495344
     92          6           0       -9.380734    5.449468    2.142536
     93          1           0      -10.559358    6.274493    1.892196
     94          7           0       -7.909683   -1.509504    2.104603
     95          6           0       -7.638843   -0.749472    3.186388
     96          6           0       -7.692310   -1.659479    4.341025
     97          6           0       -7.854196   -3.049767    3.835433
     98          6           0       -7.702443   -2.831539    2.410852
     99          6           0       -7.672400   -1.173966    5.761343
    100          6           0       -8.091840   -4.360804    4.521663
    101          8           0       -7.962587   -5.476864    3.904795
    102          6           0       -8.388980   -4.303324    5.960379
    103          7           0       -7.320929   -2.704918   -0.621491
    104          6           0       -7.203276   -3.814841    0.128264
    105          6           0       -6.984548   -5.035021   -0.734125
    106          6           0       -7.222169   -4.546267   -2.238196
    107          6           0       -7.460046   -3.042074   -1.980904
    108          6           0       -5.607754   -5.689686   -0.623516
    109          6           0       -8.271735   -5.328103   -3.074747
    110          6           0       -9.655842   -5.097116   -2.512351
    111          7           0       -8.032129   -0.126875   -1.798470
    112          6           0       -7.794465   -0.831865   -2.998717
    113          6           0       -7.831008    0.154730   -4.097675
    114          6           0       -8.066410    1.378478   -3.453062
    115          6           0       -8.149200    1.172270   -2.049462
    116          6           0       -7.611636   -0.126462   -5.475693
    117          6           0       -8.253094    2.799376   -3.639903
    118          8           0       -8.369893    3.539251   -4.615947
    119          6           0       -8.171536    3.510686   -2.220824
    120          6           0       -9.332411    4.460748   -2.110066
    121          8           0      -10.499467    4.032068   -2.081379
    122          8           0       -8.868095    5.694063   -1.838568
    123          6           0       -9.982901    6.669823   -1.708481
    124          1           0       -6.847830    0.984300    4.106439
    125          1           0       -7.297545   -4.806741    1.810126
    126          1           0       -7.506314   -2.530832   -4.038920
    127          1           0       -7.342557    4.472111    0.647439
    128          1           0       -7.418210    3.354537    3.232473
    129          1           0       -5.269590    3.527744    1.160379
    130          1           0       -5.137936    2.135398    2.255068
    131          1           0       -5.135180    3.728933    2.948095
    132          1           0       -9.631597    3.444748    2.341721
    133          1           0       -9.994380    4.014688    0.671767
    134          1           0       -8.464100    6.029036    1.978732
    135          1           0       -9.428105    5.323680    3.226954
    136          1           0       -7.380446   -0.118244    5.821498
    137          1           0       -6.863614   -1.708905    6.270825
    138          1           0       -8.610208   -1.368374    6.286128
    139          1           0       -7.567649   -3.815126    6.479543
    140          1           0       -8.616437   -5.330201    6.253052
    141          1           0       -9.273884   -3.674697    6.110008
    142          1           0       -7.704301   -5.809280   -0.498364
    143          1           0       -6.304876   -4.620834   -2.840578
    144          1           0       -5.653771   -6.756800   -0.335052
    145          1           0       -5.019042   -5.128052    0.089601
    146          1           0       -4.996362   -5.634040   -1.522575
    147          1           0       -8.084943   -6.402720   -3.007958
    148          1           0       -8.267734   -5.065343   -4.127330
    149          1           0       -9.713954   -5.821544   -1.694489
    150          1           0      -10.413960   -5.293183   -3.267901
    151          1           0       -9.740142   -4.096392   -2.072924
    152          1           0       -8.363732    0.420448   -6.028626
    153          1           0       -7.666866   -1.194210   -5.677287
    154          1           0       -6.596576    0.261788   -5.594793
    155          1           0       -7.212756    4.027933   -2.168262
    156          1           0       -9.782101    7.480477   -2.415740
    157          1           0      -10.023316    6.935947   -0.635497
    158          1           0      -10.968264    6.350421   -2.027077
 ---------------------------------------------------------------------
 Rotational constants (GHZ):           0.0203616           0.0058926           0.0055563
 Leave Link  202 at Sat Sep  4 13:20:06 2021, MaxMem= 23488102400 cpu:               0.2 elap:               0.0
 (Enter /sw/apps/gaussian-16.0/g16/l301.exe)
 Standard basis: def2SVP (5D, 7F)
 Ernie: Thresh=  0.10000D-02 Tol=  0.10000D-05 Strict=F.
 There are  1658 symmetry adapted cartesian basis functions of A   symmetry.
 There are  1572 symmetry adapted basis functions of A   symmetry.
  1572 basis functions,  2678 primitive gaussians,  1658 cartesian basis functions
   312 alpha electrons      312 beta electrons
       nuclear repulsion energy     13730.3084541081 Hartrees.
 IExCor=20419 DFT=T Ex+Corr=CAM-B3LYP ExCW=0 ScaHFX=  1.000000
 ScaDFX=  1.000000  1.000000  1.000000  0.810000 ScalE2=  1.000000  1.000000
 IRadAn=      5 IRanWt=     -1 IRanGd=            0 ICorTp=0 IEmpDi=  4
 HFx  wShort=  0.000000 wLong=  0.330000 cFull=  0.190000 cShort=  0.000000 cLong=  0.460000
 DFx  wShort=  0.000000 wLong=  0.330000 cFull=  0.190000 cShort=  0.000000 cLong=  0.460000
 NAtoms=  158 NActive=  158 NUniq=  158 SFac= 1.00D+00 NAtFMM=   60 NAOKFM=T Big=T
 Integral buffers will be    131072 words long.
 Raffenetti 1 integral format.
 Two-electron integral symmetry is turned on.
 Leave Link  301 at Sat Sep  4 13:20:06 2021, MaxMem= 23488102400 cpu:               1.3 elap:               0.1
 (Enter /sw/apps/gaussian-16.0/g16/l302.exe)
 NPDir=0 NMtPBC=     1 NCelOv=     1 NCel=       1 NClECP=     1 NCelD=      1
         NCelK=      1 NCelE2=     1 NClLst=     1 CellRange=     0.0.
 One-electron integrals computed using PRISM.
 One-electron integral symmetry used in STVInt
   1 Symmetry operations used in ECPInt.
 ECPInt:  NShTT=  271216 NPrTT=  987664 LenC2=  107302 LenP2D=  244268.
 LDataN:  DoStor=T MaxTD1= 4 Len=   56
 NBasis=  1572 RedAO= T EigKep=  3.36D-04  NBF=  1572
 NBsUse=  1572 1.00D-06 EigRej= -1.00D+00 NBFU=  1572
 Precomputing XC quadrature grid using
 IXCGrd= 4 IRadAn=           5 IRanWt=          -1 IRanGd=           0 AccXCQ= 0.00D+00.
 Generated NRdTot=       0 NPtTot=           0 NUsed=           0 NTot=          32
 NSgBfM=   891   891   891   891   891 MxSgAt=   158 MxSgA2=   139.
 Leave Link  302 at Sat Sep  4 13:20:11 2021, MaxMem= 23488102400 cpu:             102.9 elap:               4.3
 (Enter /sw/apps/gaussian-16.0/g16/l303.exe)
 DipDrv:  MaxL=1.
 Leave Link  303 at Sat Sep  4 13:20:11 2021, MaxMem= 23488102400 cpu:               8.3 elap:               0.4
 (Enter /sw/apps/gaussian-16.0/g16/l308.exe)
 Leave Link  308 at Sat Sep  4 13:20:12 2021, MaxMem= 23488102400 cpu:              13.6 elap:               0.6
 (Enter /sw/apps/gaussian-16.0/g16/l401.exe)
 ExpMin= 3.36D-02 ExpMax= 4.95D+03 ExpMxC= 7.45D+02 IAcc=3 IRadAn=         5 AccDes= 0.00D+00
 Harris functional with IExCor=20419 and IRadAn=       5 diagonalized for initial guess.
 HarFok:  IExCor=20419 AccDes= 0.00D+00 IRadAn=         5 IDoV= 1 UseB2=F ITyADJ=14
 ICtDFT=  3500011 ScaDFX=  1.000000  1.000000  1.000000  1.000000
 FoFCou: FMM=F IPFlag=           0 FMFlag=      100000 FMFlg1=        2001
         NFxFlg=           0 DoJE=T BraDBF=F KetDBF=T FulRan=T
         wScrn=  0.000000 ICntrl=       500 IOpCl=  0 I1Cent=   200000004 NGrid=           0
         NMat0=    1 NMatS0=      1 NMatT0=    0 NMatD0=    1 NMtDS0=    0 NMtDT0=    0
 Petite list used in FoFCou.
 Harris En= -3918.65801344476    
 JPrj=0 DoOrth=F DoCkMO=F.
 Leave Link  401 at Sat Sep  4 13:20:18 2021, MaxMem= 23488102400 cpu:             157.4 elap:               6.6
 (Enter /sw/apps/gaussian-16.0/g16/l502.exe)
 Integral symmetry usage will be decided dynamically.
 Closed shell SCF:
 Using DIIS extrapolation, IDIIS=  1040.
 NGot= 23488102400 LenX= 23482547354 LenY= 23479796732
 Requested convergence on RMS density matrix=1.00D-08 within 128 cycles.
 Requested convergence on MAX density matrix=1.00D-06.
 Requested convergence on             energy=1.00D-06.
 No special actions if energy rises.
 Fock matrices will be formed incrementally for  20 cycles.

 Cycle   1  Pass 1  IDiag  1:
 FoFJK:  IHMeth= 1 ICntrl=       0 DoSepK=T KAlg= 0 I1Cent=           0 FoldK=F
 IRaf=         1 NMat=       1 IRICut=       1 DoRegI=T DoRafI=F ISym2E= 0 IDoP0=0 IntGTp=1.
 FoFCou: FMM=T IPFlag=           0 FMFlag=      100000 FMFlg1=        2001
         NFxFlg=           0 DoJE=T BraDBF=F KetDBF=F FulRan=T
         wScrn=  0.000000 ICntrl=       500 IOpCl=  0 I1Cent=           0 NGrid=           0
         NMat0=    1 NMatS0=      1 NMatT0=    0 NMatD0=    1 NMtDS0=    0 NMtDT0=    0
 Symmetry not used in FoFCou.
 FMM levels:  10  Number of levels for PrismC:   9
 E= -4068.94950150219    
 DIIS: error= 2.04D-02 at cycle   1 NSaved=   1.
 NSaved= 1 IEnMin= 1 EnMin= -4068.94950150219     IErMin= 1 ErrMin= 2.04D-02
 ErrMax= 2.04D-02  0.00D+00 EMaxC= 1.00D-01 BMatC= 1.69D+00 BMatP= 1.69D+00
 IDIUse=3 WtCom= 7.96D-01 WtEn= 2.04D-01
 Coeff-Com:  0.100D+01
 Coeff-En:   0.100D+01
 Coeff:      0.100D+01
 Gap=     0.120 Goal=   None    Shift=    0.000
 GapD=    0.120 DampG=1.000 DampE=0.500 DampFc=0.5000 IDamp=-1.
 Damping current iteration by 5.00D-01
 RMSDP=1.57D-03 MaxDP=1.35D-01              OVMax= 2.02D-01

 Cycle   2  Pass 1  IDiag  1:
 RMSU=  7.69D-04    CP:  9.82D-01
 E= -4069.33844100142     Delta-E=       -0.388939499237 Rises=F Damp=T
 DIIS: error= 1.27D-02 at cycle   2 NSaved=   2.
 NSaved= 2 IEnMin= 2 EnMin= -4069.33844100142     IErMin= 2 ErrMin= 1.27D-02
 ErrMax= 1.27D-02  0.00D+00 EMaxC= 1.00D-01 BMatC= 3.07D-01 BMatP= 1.69D+00
 IDIUse=3 WtCom= 8.73D-01 WtEn= 1.27D-01
 Coeff-Com: -0.213D+00 0.121D+01
 Coeff-En:   0.000D+00 0.100D+01
 Coeff:     -0.186D+00 0.119D+01
 Gap=     0.136 Goal=   None    Shift=    0.000
 RMSDP=7.64D-04 MaxDP=9.42D-02 DE=-3.89D-01 OVMax= 1.88D-01

 Cycle   3  Pass 1  IDiag  1:
 RMSU=  7.31D-04    CP:  9.68D-01  1.24D+00
 E= -4069.62858197105     Delta-E=       -0.290140969624 Rises=F Damp=F
 DIIS: error= 1.57D-02 at cycle   3 NSaved=   3.
 NSaved= 3 IEnMin= 3 EnMin= -4069.62858197105     IErMin= 2 ErrMin= 1.27D-02
 ErrMax= 1.57D-02  0.00D+00 EMaxC= 1.00D-01 BMatC= 2.01D-01 BMatP= 3.07D-01
 IDIUse=3 WtCom= 8.43D-01 WtEn= 1.57D-01
 Coeff-Com: -0.267D+00 0.651D+00 0.616D+00
 Coeff-En:   0.000D+00 0.000D+00 0.100D+01
 Coeff:     -0.225D+00 0.549D+00 0.676D+00
 Gap=     0.124 Goal=   None    Shift=    0.000
 RMSDP=5.06D-04 MaxDP=4.90D-02 DE=-2.90D-01 OVMax= 1.42D-01

 Cycle   4  Pass 1  IDiag  1:
 RMSU=  2.65D-04    CP:  9.65D-01  1.55D+00  5.07D-01
 E= -4069.76554831774     Delta-E=       -0.136966346694 Rises=F Damp=F
 DIIS: error= 7.30D-03 at cycle   4 NSaved=   4.
 NSaved= 4 IEnMin= 4 EnMin= -4069.76554831774     IErMin= 4 ErrMin= 7.30D-03
 ErrMax= 7.30D-03  0.00D+00 EMaxC= 1.00D-01 BMatC= 5.01D-02 BMatP= 2.01D-01
 IDIUse=3 WtCom= 9.27D-01 WtEn= 7.30D-02
 Coeff-Com: -0.109D+00 0.225D+00 0.408D+00 0.475D+00
 Coeff-En:   0.000D+00 0.000D+00 0.219D+00 0.781D+00
 Coeff:     -0.101D+00 0.209D+00 0.395D+00 0.497D+00
 Gap=     0.122 Goal=   None    Shift=    0.000
 RMSDP=1.98D-04 MaxDP=2.06D-02 DE=-1.37D-01 OVMax= 6.11D-02

 Cycle   5  Pass 1  IDiag  1:
 RMSU=  7.52D-05    CP:  9.64D-01  1.49D+00  6.89D-01  5.52D-01
 E= -4069.81062789128     Delta-E=       -0.045079573534 Rises=F Damp=F
 DIIS: error= 8.02D-04 at cycle   5 NSaved=   5.
 NSaved= 5 IEnMin= 5 EnMin= -4069.81062789128     IErMin= 5 ErrMin= 8.02D-04
 ErrMax= 8.02D-04  0.00D+00 EMaxC= 1.00D-01 BMatC= 1.14D-03 BMatP= 5.01D-02
 IDIUse=3 WtCom= 9.92D-01 WtEn= 8.02D-03
 Coeff-Com: -0.354D-01 0.694D-01 0.164D+00 0.248D+00 0.554D+00
 Coeff-En:   0.000D+00 0.000D+00 0.000D+00 0.000D+00 0.100D+01
 Coeff:     -0.351D-01 0.689D-01 0.162D+00 0.246D+00 0.558D+00
 Gap=     0.122 Goal=   None    Shift=    0.000
 RMSDP=4.00D-05 MaxDP=4.19D-03 DE=-4.51D-02 OVMax= 1.63D-02

 Cycle   6  Pass 1  IDiag  1:
 RMSU=  2.98D-05    CP:  9.64D-01  1.49D+00  6.82D-01  6.22D-01  7.65D-01
 E= -4069.81160234016     Delta-E=       -0.000974448882 Rises=F Damp=F
 DIIS: error= 2.24D-04 at cycle   6 NSaved=   6.
 NSaved= 6 IEnMin= 6 EnMin= -4069.81160234016     IErMin= 6 ErrMin= 2.24D-04
 ErrMax= 2.24D-04  0.00D+00 EMaxC= 1.00D-01 BMatC= 1.71D-04 BMatP= 1.14D-03
 IDIUse=3 WtCom= 9.98D-01 WtEn= 2.24D-03
 Coeff-Com:  0.239D-02-0.692D-02 0.104D-01 0.391D-01 0.306D+00 0.649D+00
 Coeff-En:   0.000D+00 0.000D+00 0.000D+00 0.000D+00 0.993D-01 0.901D+00
 Coeff:      0.239D-02-0.691D-02 0.104D-01 0.390D-01 0.306D+00 0.649D+00
 Gap=     0.122 Goal=   None    Shift=    0.000
 RMSDP=1.55D-05 MaxDP=1.28D-03 DE=-9.74D-04 OVMax= 7.25D-03

 Cycle   7  Pass 1  IDiag  1:
 RMSU=  1.05D-05    CP:  9.64D-01  1.50D+00  6.87D-01  6.22D-01  8.63D-01
                    CP:  7.53D-01
 E= -4069.81178479138     Delta-E=       -0.000182451222 Rises=F Damp=F
 DIIS: error= 8.58D-05 at cycle   7 NSaved=   7.
 NSaved= 7 IEnMin= 7 EnMin= -4069.81178479138     IErMin= 7 ErrMin= 8.58D-05
 ErrMax= 8.58D-05  0.00D+00 EMaxC= 1.00D-01 BMatC= 1.96D-05 BMatP= 1.71D-04
 IDIUse=1 WtCom= 1.00D+00 WtEn= 0.00D+00
 Coeff-Com:  0.442D-02-0.966D-02-0.903D-02-0.411D-02 0.100D+00 0.326D+00
 Coeff-Com:  0.593D+00
 Coeff:      0.442D-02-0.966D-02-0.903D-02-0.411D-02 0.100D+00 0.326D+00
 Coeff:      0.593D+00
 Gap=     0.122 Goal=   None    Shift=    0.000
 RMSDP=6.39D-06 MaxDP=1.16D-03 DE=-1.82D-04 OVMax= 3.50D-03

 Cycle   8  Pass 1  IDiag  1:
 RMSU=  4.61D-06    CP:  9.64D-01  1.50D+00  6.88D-01  6.27D-01  8.68D-01
                    CP:  8.79D-01  8.30D-01
 E= -4069.81180915188     Delta-E=       -0.000024360503 Rises=F Damp=F
 DIIS: error= 5.02D-05 at cycle   8 NSaved=   8.
 NSaved= 8 IEnMin= 8 EnMin= -4069.81180915188     IErMin= 8 ErrMin= 5.02D-05
 ErrMax= 5.02D-05  0.00D+00 EMaxC= 1.00D-01 BMatC= 4.68D-06 BMatP= 1.96D-05
 IDIUse=1 WtCom= 1.00D+00 WtEn= 0.00D+00
 Coeff-Com:  0.212D-02-0.420D-02-0.769D-02-0.121D-01-0.126D-01 0.330D-01
 Coeff-Com:  0.348D+00 0.654D+00
 Coeff:      0.212D-02-0.420D-02-0.769D-02-0.121D-01-0.126D-01 0.330D-01
 Coeff:      0.348D+00 0.654D+00
 Gap=     0.122 Goal=   None    Shift=    0.000
 RMSDP=3.23D-06 MaxDP=3.72D-04 DE=-2.44D-05 OVMax= 1.17D-03

 Cycle   9  Pass 1  IDiag  1:
 RMSU=  1.89D-06    CP:  9.64D-01  1.50D+00  6.88D-01  6.28D-01  8.85D-01
                    CP:  9.04D-01  1.03D+00  9.33D-01
 E= -4069.81181663748     Delta-E=       -0.000007485600 Rises=F Damp=F
 DIIS: error= 1.97D-05 at cycle   9 NSaved=   9.
 NSaved= 9 IEnMin= 9 EnMin= -4069.81181663748     IErMin= 9 ErrMin= 1.97D-05
 ErrMax= 1.97D-05  0.00D+00 EMaxC= 1.00D-01 BMatC= 6.69D-07 BMatP= 4.68D-06
 IDIUse=1 WtCom= 1.00D+00 WtEn= 0.00D+00
 Coeff-Com:  0.457D-03-0.758D-03-0.264D-02-0.594D-02-0.215D-01-0.379D-01
 Coeff-Com:  0.106D+00 0.326D+00 0.637D+00
 Coeff:      0.457D-03-0.758D-03-0.264D-02-0.594D-02-0.215D-01-0.379D-01
 Coeff:      0.106D+00 0.326D+00 0.637D+00
 Gap=     0.122 Goal=   None    Shift=    0.000
 RMSDP=1.40D-06 MaxDP=1.58D-04 DE=-7.49D-06 OVMax= 7.66D-04

 Cycle  10  Pass 1  IDiag  1:
 RMSU=  9.28D-07    CP:  9.64D-01  1.50D+00  6.88D-01  6.29D-01  8.88D-01
                    CP:  9.18D-01  1.07D+00  1.10D+00  1.05D+00
 E= -4069.81181817951     Delta-E=       -0.000001542023 Rises=F Damp=F
 DIIS: error= 1.08D-05 at cycle  10 NSaved=  10.
 NSaved=10 IEnMin=10 EnMin= -4069.81181817951     IErMin=10 ErrMin= 1.08D-05
 ErrMax= 1.08D-05  0.00D+00 EMaxC= 1.00D-01 BMatC= 1.67D-07 BMatP= 6.69D-07
 IDIUse=1 WtCom= 1.00D+00 WtEn= 0.00D+00
 Coeff-Com: -0.426D-03 0.892D-03 0.124D-02 0.114D-02-0.380D-02-0.306D-01
 Coeff-Com: -0.480D-01-0.758D-01 0.259D+00 0.897D+00
 Coeff:     -0.426D-03 0.892D-03 0.124D-02 0.114D-02-0.380D-02-0.306D-01
 Coeff:     -0.480D-01-0.758D-01 0.259D+00 0.897D+00
 Gap=     0.122 Goal=   None    Shift=    0.000
 RMSDP=1.21D-06 MaxDP=1.32D-04 DE=-1.54D-06 OVMax= 6.01D-04

 Cycle  11  Pass 1  IDiag  1:
 RMSU=  5.07D-07    CP:  9.64D-01  1.50D+00  6.89D-01  6.29D-01  8.91D-01
                    CP:  9.29D-01  1.12D+00  1.21D+00  1.39D+00  1.37D+00
 E= -4069.81181894708     Delta-E=       -0.000000767574 Rises=F Damp=F
 DIIS: error= 3.78D-06 at cycle  11 NSaved=  11.
 NSaved=11 IEnMin=11 EnMin= -4069.81181894708     IErMin=11 ErrMin= 3.78D-06
 ErrMax= 3.78D-06  0.00D+00 EMaxC= 1.00D-01 BMatC= 5.80D-08 BMatP= 1.67D-07
 IDIUse=1 WtCom= 1.00D+00 WtEn= 0.00D+00
 Coeff-Com: -0.322D-03 0.627D-03 0.131D-02 0.211D-02 0.439D-02-0.818D-02
 Coeff-Com: -0.445D-01-0.131D+00-0.204D-01 0.460D+00 0.736D+00
 Coeff:     -0.322D-03 0.627D-03 0.131D-02 0.211D-02 0.439D-02-0.818D-02
 Coeff:     -0.445D-01-0.131D+00-0.204D-01 0.460D+00 0.736D+00
 Gap=     0.122 Goal=   None    Shift=    0.000
 RMSDP=6.73D-07 MaxDP=5.57D-05 DE=-7.68D-07 OVMax= 3.50D-04

 Cycle  12  Pass 1  IDiag  1:
 RMSU=  2.58D-07    CP:  9.64D-01  1.50D+00  6.89D-01  6.29D-01  8.91D-01
                    CP:  9.31D-01  1.15D+00  1.27D+00  1.55D+00  1.75D+00
                    CP:  1.21D+00
 E= -4069.81181920050     Delta-E=       -0.000000253418 Rises=F Damp=F
 DIIS: error= 2.42D-06 at cycle  12 NSaved=  12.
 NSaved=12 IEnMin=12 EnMin= -4069.81181920050     IErMin=12 ErrMin= 2.42D-06
 ErrMax= 2.42D-06  0.00D+00 EMaxC= 1.00D-01 BMatC= 1.37D-08 BMatP= 5.80D-08
 IDIUse=1 WtCom= 1.00D+00 WtEn= 0.00D+00
 Coeff-Com:  0.543D-05-0.270D-04 0.156D-03 0.475D-03 0.320D-02 0.422D-02
 Coeff-Com:  0.332D-02-0.329D-01-0.675D-01-0.833D-01 0.241D+00 0.932D+00
 Coeff:      0.543D-05-0.270D-04 0.156D-03 0.475D-03 0.320D-02 0.422D-02
 Coeff:      0.332D-02-0.329D-01-0.675D-01-0.833D-01 0.241D+00 0.932D+00
 Gap=     0.122 Goal=   None    Shift=    0.000
 RMSDP=4.36D-07 MaxDP=3.07D-05 DE=-2.53D-07 OVMax= 2.50D-04

 Cycle  13  Pass 1  IDiag  1:
 RMSU=  1.63D-07    CP:  9.64D-01  1.50D+00  6.89D-01  6.29D-01  8.92D-01
                    CP:  9.31D-01  1.15D+00  1.30D+00  1.66D+00  1.98D+00
                    CP:  1.62D+00  1.29D+00
 E= -4069.81181928993     Delta-E=       -0.000000089429 Rises=F Damp=F
 DIIS: error= 1.35D-06 at cycle  13 NSaved=  13.
 NSaved=13 IEnMin=13 EnMin= -4069.81181928993     IErMin=13 ErrMin= 1.35D-06
 ErrMax= 1.35D-06  0.00D+00 EMaxC= 1.00D-01 BMatC= 7.83D-09 BMatP= 1.37D-08
 IDIUse=1 WtCom= 1.00D+00 WtEn= 0.00D+00
 Coeff-Com:  0.119D-03-0.244D-03-0.370D-03-0.459D-03 0.529D-03 0.510D-02
 Coeff-Com:  0.199D-01 0.227D-01-0.351D-01-0.240D+00-0.158D+00 0.611D+00
 Coeff-Com:  0.775D+00
 Coeff:      0.119D-03-0.244D-03-0.370D-03-0.459D-03 0.529D-03 0.510D-02
 Coeff:      0.199D-01 0.227D-01-0.351D-01-0.240D+00-0.158D+00 0.611D+00
 Coeff:      0.775D+00
 Gap=     0.122 Goal=   None    Shift=    0.000
 RMSDP=3.29D-07 MaxDP=2.18D-05 DE=-8.94D-08 OVMax= 1.79D-04

 Cycle  14  Pass 1  IDiag  1:
 RMSU=  7.53D-08    CP:  9.64D-01  1.50D+00  6.89D-01  6.29D-01  8.92D-01
                    CP:  9.32D-01  1.16D+00  1.32D+00  1.74D+00  2.17D+00
                    CP:  1.88D+00  1.80D+00  1.08D+00
 E= -4069.81181932411     Delta-E=       -0.000000034186 Rises=F Damp=F
 DIIS: error= 7.66D-07 at cycle  14 NSaved=  14.
 NSaved=14 IEnMin=14 EnMin= -4069.81181932411     IErMin=14 ErrMin= 7.66D-07
 ErrMax= 7.66D-07  0.00D+00 EMaxC= 1.00D-01 BMatC= 1.18D-09 BMatP= 7.83D-09
 IDIUse=1 WtCom= 1.00D+00 WtEn= 0.00D+00
 Coeff-Com:  0.654D-04-0.129D-03-0.243D-03-0.383D-03-0.491D-03 0.130D-02
 Coeff-Com:  0.108D-01 0.189D-01 0.302D-02-0.979D-01-0.142D+00 0.102D+00
 Coeff-Com:  0.396D+00 0.709D+00
 Coeff:      0.654D-04-0.129D-03-0.243D-03-0.383D-03-0.491D-03 0.130D-02
 Coeff:      0.108D-01 0.189D-01 0.302D-02-0.979D-01-0.142D+00 0.102D+00
 Coeff:      0.396D+00 0.709D+00
 Gap=     0.122 Goal=   None    Shift=    0.000
 RMSDP=9.86D-08 MaxDP=6.51D-06 DE=-3.42D-08 OVMax= 6.06D-05

 Cycle  15  Pass 1  IDiag  1:
 RMSU=  3.84D-08    CP:  9.64D-01  1.50D+00  6.89D-01  6.29D-01  8.92D-01
                    CP:  9.32D-01  1.16D+00  1.33D+00  1.75D+00  2.21D+00
                    CP:  1.99D+00  1.94D+00  1.31D+00  1.01D+00
 E= -4069.81181932813     Delta-E=       -0.000000004020 Rises=F Damp=F
 DIIS: error= 4.52D-07 at cycle  15 NSaved=  15.
 NSaved=15 IEnMin=15 EnMin= -4069.81181932813     IErMin=15 ErrMin= 4.52D-07
 ErrMax= 4.52D-07  0.00D+00 EMaxC= 1.00D-01 BMatC= 2.44D-10 BMatP= 1.18D-09
 IDIUse=1 WtCom= 1.00D+00 WtEn= 0.00D+00
 Coeff-Com:  0.608D-05-0.103D-04-0.354D-04-0.863D-04-0.313D-03-0.492D-03
 Coeff-Com:  0.128D-02 0.286D-02 0.881D-02 0.896D-03-0.341D-01-0.698D-01
 Coeff-Com:  0.279D-01 0.320D+00 0.743D+00
 Coeff:      0.608D-05-0.103D-04-0.354D-04-0.863D-04-0.313D-03-0.492D-03
 Coeff:      0.128D-02 0.286D-02 0.881D-02 0.896D-03-0.341D-01-0.698D-01
 Coeff:      0.279D-01 0.320D+00 0.743D+00
 Gap=     0.122 Goal=   None    Shift=    0.000
 RMSDP=4.11D-08 MaxDP=2.65D-06 DE=-4.02D-09 OVMax= 2.35D-05

 Cycle  16  Pass 1  IDiag  1:
 RMSU=  1.87D-08    CP:  9.64D-01  1.50D+00  6.89D-01  6.29D-01  8.92D-01
                    CP:  9.32D-01  1.16D+00  1.33D+00  1.76D+00  2.23D+00
                    CP:  2.01D+00  2.00D+00  1.39D+00  1.24D+00  1.13D+00
 E= -4069.81181932891     Delta-E=       -0.000000000779 Rises=F Damp=F
 DIIS: error= 2.42D-07 at cycle  16 NSaved=  16.
 NSaved=16 IEnMin=16 EnMin= -4069.81181932891     IErMin=16 ErrMin= 2.42D-07
 ErrMax= 2.42D-07  0.00D+00 EMaxC= 1.00D-01 BMatC= 7.74D-11 BMatP= 2.44D-10
 IDIUse=1 WtCom= 1.00D+00 WtEn= 0.00D+00
 Coeff-Com: -0.139D-04 0.282D-04 0.460D-04 0.523D-04-0.294D-04-0.632D-03
 Coeff-Com: -0.199D-02-0.415D-02 0.475D-02 0.254D-01 0.195D-01-0.644D-01
 Coeff-Com: -0.866D-01-0.187D-01 0.384D+00 0.742D+00
 Coeff:     -0.139D-04 0.282D-04 0.460D-04 0.523D-04-0.294D-04-0.632D-03
 Coeff:     -0.199D-02-0.415D-02 0.475D-02 0.254D-01 0.195D-01-0.644D-01
 Coeff:     -0.866D-01-0.187D-01 0.384D+00 0.742D+00
 Gap=     0.122 Goal=   None    Shift=    0.000
 RMSDP=2.29D-08 MaxDP=1.56D-06 DE=-7.79D-10 OVMax= 1.61D-05

 Cycle  17  Pass 1  IDiag  1:
 RMSU=  1.12D-08    CP:  9.64D-01  1.50D+00  6.89D-01  6.29D-01  8.92D-01
                    CP:  9.32D-01  1.16D+00  1.33D+00  1.76D+00  2.23D+00
                    CP:  2.02D+00  2.02D+00  1.44D+00  1.33D+00  1.43D+00
                    CP:  1.22D+00
 E= -4069.81181932920     Delta-E=       -0.000000000291 Rises=F Damp=F
 DIIS: error= 1.30D-07 at cycle  17 NSaved=  17.
 NSaved=17 IEnMin=17 EnMin= -4069.81181932920     IErMin=17 ErrMin= 1.30D-07
 ErrMax= 1.30D-07  0.00D+00 EMaxC= 1.00D-01 BMatC= 2.16D-11 BMatP= 7.74D-11
 IDIUse=1 WtCom= 1.00D+00 WtEn= 0.00D+00
 Coeff-Com: -0.830D-05 0.162D-04 0.322D-04 0.471D-04 0.815D-04-0.172D-03
 Coeff-Com: -0.117D-02-0.309D-02 0.524D-03 0.114D-01 0.190D-01-0.121D-01
 Coeff-Com: -0.467D-01-0.996D-01-0.238D-01 0.362D+00 0.794D+00
 Coeff:     -0.830D-05 0.162D-04 0.322D-04 0.471D-04 0.815D-04-0.172D-03
 Coeff:     -0.117D-02-0.309D-02 0.524D-03 0.114D-01 0.190D-01-0.121D-01
 Coeff:     -0.467D-01-0.996D-01-0.238D-01 0.362D+00 0.794D+00
 Gap=     0.122 Goal=   None    Shift=    0.000
 RMSDP=1.40D-08 MaxDP=9.71D-07 DE=-2.91D-10 OVMax= 8.12D-06

 Cycle  18  Pass 1  IDiag  1:
 RMSU=  5.37D-09    CP:  9.64D-01  1.50D+00  6.89D-01  6.29D-01  8.92D-01
                    CP:  9.32D-01  1.16D+00  1.33D+00  1.76D+00  2.23D+00
                    CP:  2.03D+00  2.03D+00  1.46D+00  1.41D+00  1.60D+00
                    CP:  1.62D+00  1.30D+00
 E= -4069.81181932904     Delta-E=        0.000000000160 Rises=F Damp=F
 DIIS: error= 6.84D-08 at cycle  18 NSaved=  18.
 NSaved=18 IEnMin=17 EnMin= -4069.81181932920     IErMin=18 ErrMin= 6.84D-08
 ErrMax= 6.84D-08  0.00D+00 EMaxC= 1.00D-01 BMatC= 6.99D-12 BMatP= 2.16D-11
 IDIUse=1 WtCom= 1.00D+00 WtEn= 0.00D+00
 Coeff-Com:  0.731D-06-0.180D-05 0.328D-06 0.507D-05 0.658D-04 0.147D-03
 Coeff-Com:  0.209D-03-0.249D-03-0.117D-02-0.410D-02 0.269D-02 0.177D-01
 Coeff-Com:  0.102D-01-0.439D-01-0.154D+00-0.904D-01 0.375D+00 0.888D+00
 Coeff:      0.731D-06-0.180D-05 0.328D-06 0.507D-05 0.658D-04 0.147D-03
 Coeff:      0.209D-03-0.249D-03-0.117D-02-0.410D-02 0.269D-02 0.177D-01
 Coeff:      0.102D-01-0.439D-01-0.154D+00-0.904D-01 0.375D+00 0.888D+00
 Gap=     0.122 Goal=   None    Shift=    0.000
 RMSDP=1.05D-08 MaxDP=8.58D-07 DE= 1.60D-10 OVMax= 7.32D-06

 Cycle  19  Pass 1  IDiag  1:
 RMSU=  3.30D-09    CP:  9.64D-01  1.50D+00  6.89D-01  6.29D-01  8.92D-01
                    CP:  9.32D-01  1.16D+00  1.33D+00  1.76D+00  2.23D+00
                    CP:  2.03D+00  2.04D+00  1.47D+00  1.45D+00  1.73D+00
                    CP:  1.90D+00  1.80D+00  1.17D+00
 E= -4069.81181932944     Delta-E=       -0.000000000400 Rises=F Damp=F
 DIIS: error= 3.45D-08 at cycle  19 NSaved=  19.
 NSaved=19 IEnMin=19 EnMin= -4069.81181932944     IErMin=19 ErrMin= 3.45D-08
 ErrMax= 3.45D-08  0.00D+00 EMaxC= 1.00D-01 BMatC= 3.03D-12 BMatP= 6.99D-12
 IDIUse=1 WtCom= 1.00D+00 WtEn= 0.00D+00
 Coeff-Com:  0.335D-05-0.679D-05-0.111D-04-0.132D-04 0.189D-04 0.155D-03
 Coeff-Com:  0.566D-03 0.886D-03-0.877D-03-0.707D-02-0.504D-02 0.160D-01
 Coeff-Com:  0.238D-01 0.556D-02-0.992D-01-0.199D+00-0.482D-01 0.592D+00
 Coeff-Com:  0.720D+00
 Coeff:      0.335D-05-0.679D-05-0.111D-04-0.132D-04 0.189D-04 0.155D-03
 Coeff:      0.566D-03 0.886D-03-0.877D-03-0.707D-02-0.504D-02 0.160D-01
 Coeff:      0.238D-01 0.556D-02-0.992D-01-0.199D+00-0.482D-01 0.592D+00
 Coeff:      0.720D+00
 Gap=     0.122 Goal=   None    Shift=    0.000
 RMSDP=6.71D-09 MaxDP=4.46D-07 DE=-4.00D-10 OVMax= 3.70D-06

 SCF Done:  E(RCAM-B3LYP) =  -4069.81181933     A.U. after   19 cycles
            NFock= 19  Conv=0.67D-08     -V/T= 2.0102
 KE= 4.028801936133D+03 PE=-3.694152691885D+04 EE= 1.511260470928D+04
 Leave Link  502 at Sat Sep  4 13:28:45 2021, MaxMem= 23488102400 cpu:           11568.5 elap:             506.1
 (Enter /sw/apps/gaussian-16.0/g16/l801.exe)
 DoSCS=F DFT=T ScalE2(SS,OS)=  1.000000  1.000000
 ExpMin= 3.36D-02 ExpMax= 4.95D+03 ExpMxC= 7.45D+02 IAcc=3 IRadAn=         5 AccDes= 0.00D+00
 HarFok:  IExCor=  205 AccDes= 0.00D+00 IRadAn=         5 IDoV=-2 UseB2=F ITyADJ=14
 ICtDFT= 12500011 ScaDFX=  1.000000  1.000000  1.000000  1.000000
 GSVD:  LWork=       -9588 too small for GESVD, short by       45590 words or       45590 for optimal perf.
 Largest valence mixing into a core orbital is  2.03D-04
 Largest core mixing into a valence orbital is  5.24D-05
 Range of M.O.s used for correlation:    95  1572
 NBasis=  1572 NAE=   312 NBE=   312 NFC=    94 NFV=     0
 NROrb=   1478 NOA=   218 NOB=   218 NVA=  1260 NVB=  1260
 Leave Link  801 at Sat Sep  4 13:28:45 2021, MaxMem= 23488102400 cpu:               8.0 elap:               0.4
 (Enter /sw/apps/gaussian-16.0/g16/l914.exe)
 RHF ground state
 Two-electron integrals replicated using symmetry.
 MDV= 23488102400 DFT=T DoStab=F Mixed=T DoRPA=T DoScal=F NonHer=T
 Making orbital integer symmetry assigments:
 Orbital symmetries:
       Occupied  (A) (A) (A) (A) (A) (A) (A) (A) (A) (A) (A) (A)
                 (A) (A) (A) (A) (A) (A) (A) (A) (A) (A) (A) (A)
                 (A) (A) (A) (A) (A) (A) (A) (A) (A) (A) (A) (A)
                 (A) (A) (A) (A) (A) (A) (A) (A) (A) (A) (A) (A)
                 (A) (A) (A) (A) (A) (A) (A) (A) (A) (A) (A) (A)
                 (A) (A) (A) (A) (A) (A) (A) (A) (A) (A) (A) (A)
                 (A) (A) (A) (A) (A) (A) (A) (A) (A) (A) (A) (A)
                 (A) (A) (A) (A) (A) (A) (A) (A) (A) (A) (A) (A)
                 (A) (A) (A) (A) (A) (A) (A) (A) (A) (A) (A) (A)
                 (A) (A) (A) (A) (A) (A) (A) (A) (A) (A) (A) (A)
                 (A) (A) (A) (A) (A) (A) (A) (A) (A) (A) (A) (A)
                 (A) (A) (A) (A) (A) (A) (A) (A) (A) (A) (A) (A)
                 (A) (A) (A) (A) (A) (A) (A) (A) (A) (A) (A) (A)
                 (A) (A) (A) (A) (A) (A) (A) (A) (A) (A) (A) (A)
                 (A) (A) (A) (A) (A) (A) (A) (A) (A) (A) (A) (A)
                 (A) (A) (A) (A) (A) (A) (A) (A) (A) (A) (A) (A)
                 (A) (A) (A) (A) (A) (A) (A) (A) (A) (A) (A) (A)
                 (A) (A) (A) (A) (A) (A) (A) (A) (A) (A) (A) (A)
                 (A) (A) (A) (A) (A) (A) (A) (A) (A) (A) (A) (A)
                 (A) (A) (A) (A) (A) (A) (A) (A) (A) (A) (A) (A)
                 (A) (A) (A) (A) (A) (A) (A) (A) (A) (A) (A) (A)
                 (A) (A) (A) (A) (A) (A) (A) (A) (A) (A) (A) (A)
                 (A) (A) (A) (A) (A) (A) (A) (A) (A) (A) (A) (A)
                 (A) (A) (A) (A) (A) (A) (A) (A) (A) (A) (A) (A)
                 (A) (A) (A) (A) (A) (A) (A) (A) (A) (A) (A) (A)
                 (A) (A) (A) (A) (A) (A) (A) (A) (A) (A) (A) (A)
       Virtual   (A) (A) (A) (A) (A) (A) (A) (A) (A) (A) (A) (A)
                 (A) (A) (A) (A) (A) (A) (A) (A) (A) (A) (A) (A)
                 (A) (A) (A) (A) (A) (A) (A) (A) (A) (A) (A) (A)
                 (A) (A) (A) (A) (A) (A) (A) (A) (A) (A) (A) (A)
                 (A) (A) (A) (A) (A) (A) (A) (A) (A) (A) (A) (A)
                 (A) (A) (A) (A) (A) (A) (A) (A) (A) (A) (A) (A)
                 (A) (A) (A) (A) (A) (A) (A) (A) (A) (A) (A) (A)
                 (A) (A) (A) (A) (A) (A) (A) (A) (A) (A) (A) (A)
                 (A) (A) (A) (A) (A) (A) (A) (A) (A) (A) (A) (A)
                 (A) (A) (A) (A) (A) (A) (A) (A) (A) (A) (A) (A)
                 (A) (A) (A) (A) (A) (A) (A) (A) (A) (A) (A) (A)
                 (A) (A) (A) (A) (A) (A) (A) (A) (A) (A) (A) (A)
                 (A) (A) (A) (A) (A) (A) (A) (A) (A) (A) (A) (A)
                 (A) (A) (A) (A) (A) (A) (A) (A) (A) (A) (A) (A)
                 (A) (A) (A) (A) (A) (A) (A) (A) (A) (A) (A) (A)
                 (A) (A) (A) (A) (A) (A) (A) (A) (A) (A) (A) (A)
                 (A) (A) (A) (A) (A) (A) (A) (A) (A) (A) (A) (A)
                 (A) (A) (A) (A) (A) (A) (A) (A) (A) (A) (A) (A)
                 (A) (A) (A) (A) (A) (A) (A) (A) (A) (A) (A) (A)
                 (A) (A) (A) (A) (A) (A) (A) (A) (A) (A) (A) (A)
                 (A) (A) (A) (A) (A) (A) (A) (A) (A) (A) (A) (A)
                 (A) (A) (A) (A) (A) (A) (A) (A) (A) (A) (A) (A)
                 (A) (A) (A) (A) (A) (A) (A) (A) (A) (A) (A) (A)
                 (A) (A) (A) (A) (A) (A) (A) (A) (A) (A) (A) (A)
                 (A) (A) (A) (A) (A) (A) (A) (A) (A) (A) (A) (A)
                 (A) (A) (A) (A) (A) (A) (A) (A) (A) (A) (A) (A)
                 (A) (A) (A) (A) (A) (A) (A) (A) (A) (A) (A) (A)
                 (A) (A) (A) (A) (A) (A) (A) (A) (A) (A) (A) (A)
                 (A) (A) (A) (A) (A) (A) (A) (A) (A) (A) (A) (A)
                 (A) (A) (A) (A) (A) (A) (A) (A) (A) (A) (A) (A)
                 (A) (A) (A) (A) (A) (A) (A) (A) (A) (A) (A) (A)
                 (A) (A) (A) (A) (A) (A) (A) (A) (A) (A) (A) (A)
                 (A) (A) (A) (A) (A) (A) (A) (A) (A) (A) (A) (A)
                 (A) (A) (A) (A) (A) (A) (A) (A) (A) (A) (A) (A)
                 (A) (A) (A) (A) (A) (A) (A) (A) (A) (A) (A) (A)
                 (A) (A) (A) (A) (A) (A) (A) (A) (A) (A) (A) (A)
                 (A) (A) (A) (A) (A) (A) (A) (A) (A) (A) (A) (A)
                 (A) (A) (A) (A) (A) (A) (A) (A) (A) (A) (A) (A)
                 (A) (A) (A) (A) (A) (A) (A) (A) (A) (A) (A) (A)
                 (A) (A) (A) (A) (A) (A) (A) (A) (A) (A) (A) (A)
                 (A) (A) (A) (A) (A) (A) (A) (A) (A) (A) (A) (A)
                 (A) (A) (A) (A) (A) (A) (A) (A) (A) (A) (A) (A)
                 (A) (A) (A) (A) (A) (A) (A) (A) (A) (A) (A) (A)
                 (A) (A) (A) (A) (A) (A) (A) (A) (A) (A) (A) (A)
                 (A) (A) (A) (A) (A) (A) (A) (A) (A) (A) (A) (A)
                 (A) (A) (A) (A) (A) (A) (A) (A) (A) (A) (A) (A)
                 (A) (A) (A) (A) (A) (A) (A) (A) (A) (A) (A) (A)
                 (A) (A) (A) (A) (A) (A) (A) (A) (A) (A) (A) (A)
                 (A) (A) (A) (A) (A) (A) (A) (A) (A) (A) (A) (A)
                 (A) (A) (A) (A) (A) (A) (A) (A) (A) (A) (A) (A)
                 (A) (A) (A) (A) (A) (A) (A) (A) (A) (A) (A) (A)
                 (A) (A) (A) (A) (A) (A) (A) (A) (A) (A) (A) (A)
                 (A) (A) (A) (A) (A) (A) (A) (A) (A) (A) (A) (A)
                 (A) (A) (A) (A) (A) (A) (A) (A) (A) (A) (A) (A)
                 (A) (A) (A) (A) (A) (A) (A) (A) (A) (A) (A) (A)
                 (A) (A) (A) (A) (A) (A) (A) (A) (A) (A) (A) (A)
                 (A) (A) (A) (A) (A) (A) (A) (A) (A) (A) (A) (A)
                 (A) (A) (A) (A) (A) (A) (A) (A) (A) (A) (A) (A)
                 (A) (A) (A) (A) (A) (A) (A) (A) (A) (A) (A) (A)
                 (A) (A) (A) (A) (A) (A) (A) (A) (A) (A) (A) (A)
                 (A) (A) (A) (A) (A) (A) (A) (A) (A) (A) (A) (A)
                 (A) (A) (A) (A) (A) (A) (A) (A) (A) (A) (A) (A)
                 (A) (A) (A) (A) (A) (A) (A) (A) (A) (A) (A) (A)
                 (A) (A) (A) (A) (A) (A) (A) (A) (A) (A) (A) (A)
                 (A) (A) (A) (A) (A) (A) (A) (A) (A) (A) (A) (A)
                 (A) (A) (A) (A) (A) (A) (A) (A) (A) (A) (A) (A)
                 (A) (A) (A) (A) (A) (A) (A) (A) (A) (A) (A) (A)
                 (A) (A) (A) (A) (A) (A) (A) (A) (A) (A) (A) (A)
                 (A) (A) (A) (A) (A) (A) (A) (A) (A) (A) (A) (A)
                 (A) (A) (A) (A) (A) (A) (A) (A) (A) (A) (A) (A)
                 (A) (A) (A) (A) (A) (A) (A) (A) (A) (A) (A) (A)
                 (A) (A) (A) (A) (A) (A) (A) (A) (A) (A) (A) (A)
                 (A) (A) (A) (A) (A) (A) (A) (A) (A) (A) (A) (A)
                 (A) (A) (A) (A) (A) (A) (A) (A) (A) (A) (A) (A)
                 (A) (A) (A) (A) (A) (A) (A) (A) (A) (A) (A) (A)
                 (A) (A) (A) (A) (A) (A) (A) (A) (A) (A) (A) (A)
                 (A) (A) (A) (A) (A) (A) (A) (A) (A) (A) (A) (A)
                 (A) (A) (A) (A) (A) (A) (A) (A) (A) (A) (A) (A)
                 (A) (A) (A) (A) (A) (A) (A) (A) (A) (A) (A) (A)
                 (A) (A) (A) (A) (A) (A) (A) (A) (A) (A) (A) (A)
                 (A) (A) (A) (A) (A) (A) (A) (A) (A) (A) (A) (A)
                 (A) (A) (A) (A) (A) (A) (A) (A) (A) (A) (A) (A)
                 (A) (A) (A) (A) (A) (A) (A) (A) (A) (A) (A) (A)
                 (A) (A) (A) (A) (A) (A) (A) (A) (A) (A) (A) (A)
                 (A) (A) (A) (A) (A) (A) (A) (A) (A) (A) (A) (A)
                 (A) (A) (A) (A) (A) (A) (A) (A) (A) (A) (A) (A)
                 (A) (A) (A) (A) (A) (A) (A) (A) (A) (A) (A) (A)
                 (A) (A) (A) (A) (A) (A) (A) (A) (A) (A) (A) (A)
                 (A) (A) (A) (A) (A) (A) (A) (A) (A) (A) (A) (A)
                 (A) (A) (A) (A) (A) (A) (A) (A) (A) (A) (A) (A)
                 (A) (A) (A) (A) (A) (A) (A) (A) (A) (A) (A) (A)
                 (A) (A) (A) (A) (A) (A) (A) (A) (A) (A) (A) (A)
                 (A) (A) (A) (A) (A) (A) (A) (A) (A) (A) (A) (A)
                 (A) (A) (A) (A) (A) (A) (A) (A) (A) (A) (A) (A)
                 (A) (A) (A) (A) (A) (A) (A) (A) (A) (A) (A) (A)
                 (A) (A) (A) (A) (A) (A) (A) (A) (A) (A) (A) (A)
                 (A) (A) (A) (A) (A) (A) (A) (A) (A) (A) (A) (A)
                 (A) (A) (A) (A) (A) (A) (A) (A) (A) (A) (A) (A)
                 (A) (A) (A) (A) (A) (A) (A) (A) (A) (A) (A) (A)
                 (A) (A) (A) (A) (A) (A) (A) (A) (A) (A) (A) (A)
                 (A) (A) (A) (A) (A) (A) (A) (A) (A) (A) (A) (A)
                 (A) (A) (A) (A) (A) (A) (A) (A) (A) (A) (A) (A)
                 (A) (A) (A) (A) (A) (A) (A) (A) (A) (A) (A) (A)
                 (A) (A) (A) (A) (A) (A) (A) (A) (A) (A) (A) (A)
                 (A) (A) (A) (A) (A) (A) (A) (A) (A) (A) (A) (A)
    20 initial guesses have been made.
 Convergence on wavefunction:    0.001000000000000
 Davidson Disk Diagonalization:  ConvIn= 1.00D-03 SkipCon=T Conv= 1.00D-03.
 Max sub-space:  2000 roots to seek:    20 dimension of matrix:       549360
 Iteration     1 Dimension    20 NMult     0 NNew     20
 CISAX will form    20 AO SS matrices at one time.
 NMat=    20 NSing=    20 JSym2X= 0.
 FoFJK:  IHMeth= 1 ICntrl=       0 DoSepK=T KAlg= 0 I1Cent=           0 FoldK=F
 IRaf=         1 NMat=      40 IRICut=       1 DoRegI=T DoRafI=F ISym2E= 0 IDoP0=3 IntGTp=3.
 FoFCou: FMM=T IPFlag=           0 FMFlag=      100000 FMFlg1=        2001
         NFxFlg=           0 DoJE=F BraDBF=F KetDBF=F FulRan=T
         wScrn=  0.000000 ICntrl=       500 IOpCl=  0 I1Cent=           0 NGrid=           0
         NMat0=   20 NMatS0=     20 NMatT0=    0 NMatD0=   20 NMtDS0=    0 NMtDT0=    0
 Symmetry not used in FoFCou.
 FMM levels:  10  Number of levels for PrismC:   9
 New state      1 was old state      7
 New state      2 was old state      6
 New state      3 was old state      2
 New state      4 was old state      3
 New state      5 was old state      1
 Excitation Energies [eV] at current iteration:
 Root      1 :     2.614325210143519
 Root      2 :     2.619090882674085
 Root      3 :     2.671688160250654
 Root      4 :     2.698973505829874
 Root      5 :     2.766279178892765
 Root      6 :     2.823851251798509
 Root      7 :     3.557569373368953
 Root      8 :     3.625656499075991
 Root      9 :     3.631119073819332
 Root     10 :     3.669321935391831
 Root     11 :     3.735079554199807
 Root     12 :     3.758526493373149
 Root     13 :     4.295219710444365
 Root     14 :     4.315441258870945
 Root     15 :     4.673447679310154
 Root     16 :     4.758320830426408
 Root     17 :     4.979838730907106
 Root     18 :     5.013068836488271
 Root     19 :     5.050539502494536
 Root     20 :     5.082806212139324
 Iteration     2 Dimension    30 NMult    20 NNew     10
 CISAX will form    10 AO SS matrices at one time.
 NMat=    10 NSing=    10 JSym2X= 0.
 New state      1 was old state      3
 Root      1 not converged, maximum delta is    0.161296100168493
 New state      2 was old state      4
 Root      2 not converged, maximum delta is    0.164160438772561
 New state      3 was old state      2
 Root      3 not converged, maximum delta is    0.399747296520630
 New state      4 was old state      1
 Root      4 not converged, maximum delta is    0.393067645077816
 Root      5 has converged.
 Excitation Energies [eV] at current iteration:
 Root      1 :     1.797384636942651   Change is   -0.874303523308003
 Root      2 :     1.810989893272960   Change is   -0.887983612556914
 Root      3 :     2.235063736642819   Change is   -0.384027146031267
 Root      4 :     2.239880716413376   Change is   -0.374444493730143
 Root      5 :     2.766196831287346   Change is   -0.000082347605419
 Iteration     3 Dimension    38 NMult    30 NNew      8
 CISAX will form     8 AO SS matrices at one time.
 NMat=     8 NSing=     8 JSym2X= 0.
 Root      1 not converged, maximum delta is    0.058298228616473
 Root      2 not converged, maximum delta is    0.059214461286915
 Root      3 not converged, maximum delta is    0.072705691943029
 Root      4 not converged, maximum delta is    0.072359809305504
 Root      5 has converged.
 Excitation Energies [eV] at current iteration:
 Root      1 :     1.690352036799559   Change is   -0.107032600143091
 Root      2 :     1.702467810457664   Change is   -0.108522082815296
 Root      3 :     2.193940374450529   Change is   -0.041123362192290
 Root      4 :     2.200684437676633   Change is   -0.039196278736742
 Root      5 :     2.766196831287376   Change is    0.000000000000030
 Iteration     4 Dimension    46 NMult    38 NNew      8
 CISAX will form     8 AO SS matrices at one time.
 NMat=     8 NSing=     8 JSym2X= 0.
 Root      1 not converged, maximum delta is    0.011273747455414
 Root      2 not converged, maximum delta is    0.011316185259887
 Root      3 not converged, maximum delta is    0.010371961850285
 Root      4 not converged, maximum delta is    0.010270061408689
 Root      5 has converged.
 Excitation Energies [eV] at current iteration:
 Root      1 :     1.673616456152804   Change is   -0.016735580646755
 Root      2 :     1.685607502641372   Change is   -0.016860307816292
 Root      3 :     2.186687112580892   Change is   -0.007253261869637
 Root      4 :     2.193876985072426   Change is   -0.006807452604207
 Root      5 :     2.766196831287376   Change is    0.000000000000000
 Iteration     5 Dimension    54 NMult    46 NNew      8
 CISAX will form     8 AO SS matrices at one time.
 NMat=     8 NSing=     8 JSym2X= 0.
 Root      1 not converged, maximum delta is    0.001850542093768
 Root      2 not converged, maximum delta is    0.001851618058257
 Root      3 not converged, maximum delta is    0.002468288664656
 Root      4 not converged, maximum delta is    0.002348767669707
 Root      5 has converged.
 Excitation Energies [eV] at current iteration:
 Root      1 :     1.671849860114067   Change is   -0.001766596038737
 Root      2 :     1.683823917474415   Change is   -0.001783585166957
 Root      3 :     2.185845611054444   Change is   -0.000841501526448
 Root      4 :     2.193096490108174   Change is   -0.000780494964252
 Root      5 :     2.766196831287286   Change is   -0.000000000000089
 Iteration     6 Dimension    62 NMult    54 NNew      8
 CISAX will form     8 AO SS matrices at one time.
 NMat=     8 NSing=     8 JSym2X= 0.
 Root      1 not converged, maximum delta is    0.001147010308039
 Root      2 not converged, maximum delta is    0.001160817122247
 Root      3 not converged, maximum delta is    0.001045832320334
 Root      4 has converged.
 Root      5 has converged.
 Excitation Energies [eV] at current iteration:
 Root      1 :     1.671598098984013   Change is   -0.000251761130054
 Root      2 :     1.683567806031479   Change is   -0.000256111442936
 Root      3 :     2.185718149808200   Change is   -0.000127461246244
 Root      4 :     2.192977947449622   Change is   -0.000118542658552
 Root      5 :     2.766196831287316   Change is    0.000000000000029
 Iteration     7 Dimension    68 NMult    62 NNew      6
 CISAX will form     6 AO SS matrices at one time.
 NMat=     6 NSing=     6 JSym2X= 0.
 Root      1 has converged.
 Root      2 has converged.
 Root      3 has converged.
 Root      4 has converged.
 Root      5 has converged.
 Excitation Energies [eV] at current iteration:
 Root      1 :     1.671573682378330   Change is   -0.000024416605683
 Root      2 :     1.683543479868222   Change is   -0.000024326163257
[...]
 Alpha virt. eigenvalues --    1.83529   1.83755   1.83921   1.84021   1.84221
 Alpha virt. eigenvalues --    1.84443   1.84548   1.84808   1.84814   1.85086
 Alpha virt. eigenvalues --    1.85143   1.85274   1.85369   1.85488   1.85510
 Alpha virt. eigenvalues --    1.85864   1.85920   1.86353   1.86410   1.86553
 Alpha virt. eigenvalues --    1.86673   1.86777   1.86857   1.87027   1.87054
 Alpha virt. eigenvalues --    1.87441   1.87498   1.87680   1.87786   1.87864
 Alpha virt. eigenvalues --    1.88037   1.88044   1.88198   1.88538   1.88597
 Alpha virt. eigenvalues --    1.88830   1.88961   1.89101   1.89112   1.89628
 Alpha virt. eigenvalues --    1.89683   1.89748   1.89897   1.90120   1.90208
 Alpha virt. eigenvalues --    1.90750   1.90915   1.91347   1.91436   1.91465
 Alpha virt. eigenvalues --    1.91606   1.92153   1.92196   1.92631   1.92675
 Alpha virt. eigenvalues --    1.92979   1.93172   1.93327   1.93531   1.94268
 Alpha virt. eigenvalues --    1.94331   1.94685   1.94845   1.95457   1.95628
 Alpha virt. eigenvalues --    1.95728   1.95825   1.95996   1.96071   1.96138
 Alpha virt. eigenvalues --    1.96183   1.96501   1.96587   1.96900   1.96958
 Alpha virt. eigenvalues --    1.97442   1.97556   1.97813   1.97825   1.98172
 Alpha virt. eigenvalues --    1.98183   1.98354   1.98680   1.99096   1.99137
 Alpha virt. eigenvalues --    1.99829   1.99945   2.00654   2.00744   2.00999
 Alpha virt. eigenvalues --    2.01110   2.01486   2.01535   2.01615   2.01662
 Alpha virt. eigenvalues --    2.01722   2.01833   2.02727   2.02785   2.03175
 Alpha virt. eigenvalues --    2.03226   2.03391   2.03406   2.03488   2.03531
 Alpha virt. eigenvalues --    2.04034   2.04042   2.04957   2.04998   2.05512
 Alpha virt. eigenvalues --    2.05651   2.06079   2.06302   2.06908   2.07035
 Alpha virt. eigenvalues --    2.07181   2.07360   2.08581   2.08583   2.08983
 Alpha virt. eigenvalues --    2.09015   2.09594   2.09623   2.10759   2.11062
 Alpha virt. eigenvalues --    2.11182   2.11421   2.11539   2.11544   2.11731
 Alpha virt. eigenvalues --    2.11881   2.12466   2.12477   2.12804   2.12822
 Alpha virt. eigenvalues --    2.12832   2.12884   2.13640   2.13776   2.14124
 Alpha virt. eigenvalues --    2.14291   2.15334   2.15424   2.15928   2.16097
 Alpha virt. eigenvalues --    2.16515   2.16612   2.16756   2.17180   2.17411
 Alpha virt. eigenvalues --    2.17683   2.17700   2.17948   2.18026   2.18056
 Alpha virt. eigenvalues --    2.18329   2.18677   2.18872   2.19239   2.19643
 Alpha virt. eigenvalues --    2.19826   2.20043   2.20209   2.20251   2.20449
 Alpha virt. eigenvalues --    2.21131   2.21203   2.21668   2.21746   2.21771
 Alpha virt. eigenvalues --    2.21880   2.22677   2.22717   2.23303   2.23359
 Alpha virt. eigenvalues --    2.24390   2.24435   2.24937   2.25029   2.26301
 Alpha virt. eigenvalues --    2.26449   2.26772   2.27022   2.27104   2.27210
 Alpha virt. eigenvalues --    2.28138   2.28327   2.29265   2.29454   2.29737
 Alpha virt. eigenvalues --    2.29889   2.30457   2.30624   2.30822   2.31077
 Alpha virt. eigenvalues --    2.31185   2.31217   2.32112   2.32263   2.33136
 Alpha virt. eigenvalues --    2.33243   2.33454   2.33496   2.34126   2.34161
 Alpha virt. eigenvalues --    2.35298   2.35372   2.35801   2.35919   2.36334
 Alpha virt. eigenvalues --    2.36345   2.36470   2.36625   2.37641   2.37692
 Alpha virt. eigenvalues --    2.38252   2.38400   2.38786   2.38864   2.39610
 Alpha virt. eigenvalues --    2.39677   2.40167   2.40288   2.40488   2.40831
 Alpha virt. eigenvalues --    2.41215   2.41271   2.41672   2.41704   2.42041
 Alpha virt. eigenvalues --    2.42126   2.42846   2.42925   2.43046   2.43538
 Alpha virt. eigenvalues --    2.43987   2.44170   2.44731   2.44814   2.44901
 Alpha virt. eigenvalues --    2.44996   2.45541   2.45577   2.46293   2.46301
 Alpha virt. eigenvalues --    2.46476   2.46500   2.46797   2.46800   2.47243
 Alpha virt. eigenvalues --    2.47385   2.47706   2.47900   2.49300   2.49415
 Alpha virt. eigenvalues --    2.49903   2.50048   2.50465   2.50534   2.51121
 Alpha virt. eigenvalues --    2.51265   2.51616   2.51886   2.52390   2.52440
 Alpha virt. eigenvalues --    2.52808   2.53166   2.53911   2.53981   2.54146
 Alpha virt. eigenvalues --    2.54301   2.54778   2.54811   2.55513   2.55674
 Alpha virt. eigenvalues --    2.57861   2.58087   2.58634   2.58917   2.60207
 Alpha virt. eigenvalues --    2.60291   2.60614   2.60924   2.61705   2.61830
 Alpha virt. eigenvalues --    2.62432   2.62531   2.62950   2.63126   2.63936
 Alpha virt. eigenvalues --    2.64219   2.64219   2.64448   2.65070   2.65104
 Alpha virt. eigenvalues --    2.65789   2.65856   2.66759   2.66823   2.66905
 Alpha virt. eigenvalues --    2.67061   2.67897   2.67985   2.68818   2.68851
 Alpha virt. eigenvalues --    2.69017   2.69021   2.69372   2.69590   2.69986
 Alpha virt. eigenvalues --    2.70136   2.70970   2.71059   2.71882   2.72047
 Alpha virt. eigenvalues --    2.72474   2.72651   2.72719   2.72829   2.73253
 Alpha virt. eigenvalues --    2.73292   2.73441   2.73531   2.74498   2.74503
 Alpha virt. eigenvalues --    2.74969   2.75045   2.76517   2.76576   2.77052
 Alpha virt. eigenvalues --    2.77228   2.77451   2.77601   2.78183   2.78296
 Alpha virt. eigenvalues --    2.78687   2.78723   2.79127   2.79144   2.80259
 Alpha virt. eigenvalues --    2.80341   2.80589   2.80668   2.81112   2.81135
 Alpha virt. eigenvalues --    2.81932   2.81968   2.82327   2.82329   2.83749
 Alpha virt. eigenvalues --    2.83765   2.83840   2.83880   2.84518   2.84535
 Alpha virt. eigenvalues --    2.84866   2.84885   2.85659   2.85686   2.86642
 Alpha virt. eigenvalues --    2.86984   2.87143   2.87605   2.88151   2.88230
 Alpha virt. eigenvalues --    2.88497   2.88599   2.88858   2.88924   2.90489
 Alpha virt. eigenvalues --    2.90645   2.91067   2.91169   2.93153   2.93308
 Alpha virt. eigenvalues --    2.93760   2.94191   2.94542   2.94571   2.95368
 Alpha virt. eigenvalues --    2.95455   2.95799   2.96198   2.96360   2.96422
 Alpha virt. eigenvalues --    2.96839   2.97174   2.97818   2.98026   2.98209
 Alpha virt. eigenvalues --    2.98331   2.98353   2.98558   2.98597   2.98750
 Alpha virt. eigenvalues --    2.98875   2.98908   2.99566   2.99790   2.99985
 Alpha virt. eigenvalues --    3.00032   3.00218   3.00324   3.00459   3.00977
 Alpha virt. eigenvalues --    3.01896   3.01964   3.02034   3.02099   3.02737
 Alpha virt. eigenvalues --    3.02796   3.02976   3.03308   3.03323   3.03691
 Alpha virt. eigenvalues --    3.04039   3.04146   3.04417   3.04441   3.04528
 Alpha virt. eigenvalues --    3.04697   3.05282   3.05352   3.06105   3.06169
 Alpha virt. eigenvalues --    3.06804   3.06930   3.07917   3.08136   3.09361
 Alpha virt. eigenvalues --    3.09400   3.09690   3.10405   3.10440   3.10723
 Alpha virt. eigenvalues --    3.11310   3.11495   3.11894   3.11946   3.12137
 Alpha virt. eigenvalues --    3.12284   3.13283   3.13623   3.13626   3.13680
 Alpha virt. eigenvalues --    3.14095   3.14434   3.15887   3.15979   3.17258
 Alpha virt. eigenvalues --    3.17496   3.17872   3.18068   3.19018   3.19119
 Alpha virt. eigenvalues --    3.22307   3.22560   3.23944   3.24414   3.24673
 Alpha virt. eigenvalues --    3.25161   3.26499   3.26637   3.27376   3.27616
 Alpha virt. eigenvalues --    3.29103   3.29180   3.31359   3.31521   3.33169
 Alpha virt. eigenvalues --    3.33413   3.40213   3.40636   3.42808   3.42813
 Alpha virt. eigenvalues --    3.48657   3.48671   3.50018   3.50266   3.50820
 Alpha virt. eigenvalues --    3.51471   3.56545   3.56990   3.59090   3.59329
 Alpha virt. eigenvalues --    3.62493   3.62834   3.66109   3.66181   3.67190
 Alpha virt. eigenvalues --    3.67499   3.73274   3.73979   3.76059   3.76639
          Condensed to atoms (all electrons):
 Mulliken charges:
               1
     1  Mg   0.838635
     2  C   -0.002909
     3  C   -0.093924
     4  C   -0.045991
     5  C   -0.064072
     6  N   -0.256782
     7  C   -0.052444
     8  C   -0.014019
     9  C   -0.087031
    10  C    0.046314
    11  C    0.104780
    12  C    0.053421
    13  C   -0.071871
    14  H    0.036162
    15  N   -0.433173
    16  C    0.168388
    17  C   -0.176988
    18  C   -0.004021
    19  C    0.148693
    20  C    0.110105
    21  C    0.012207
    22  O   -0.249872
    23  C    0.062478
    24  N   -0.341099
    25  C    0.041247
    26  C   -0.028164
    27  C   -0.023915
    28  C    0.074752
    29  C    0.076168
    30  C    0.035193
    31  C   -0.004431
    32  N   -0.310468
    33  C    0.080336
    34  C   -0.169792
    35  C    0.008406
    36  C    0.082917
    37  C    0.127330
    38  C    0.046119
    39  O   -0.188357
    40  C   -0.005342
    41  C    0.212941
    42  O   -0.257166
    43  O   -0.304769
    44  C    0.157685
    45  H   -0.017407
    46  H   -0.016978
    47  H   -0.041635
    48  H    0.001002
    49  H   -0.003853
    50  H    0.025491
    51  H    0.016429
    52  H    0.016815
    53  H    0.011287
    54  H    0.044050
    55  H    0.017920
    56  H    0.018128
    57  H    0.006042
    58  H    0.026924
    59  H    0.039856
    60  H    0.037510
    61  H    0.035596
    62  H    0.031701
    63  H    0.016247
    64  H    0.009507
    65  H    0.023079
    66  H    0.012717
    67  H    0.004779
    68  H    0.006146
    69  H    0.004724
    70  H    0.008477
    71  H    0.017620
    72  H    0.029201
    73  H    0.047585
    74  H    0.008944
    75  H    0.046068
    76  H    0.035239
    77  H    0.043013
    78  H    0.046465
    79  H    0.053632
    80  Mg   0.837985
    81  C   -0.016921
    82  C   -0.087783
    83  C   -0.045253
    84  C   -0.064720
    85  N   -0.254591
    86  C   -0.049895
    87  C   -0.015082
    88  C   -0.090538
    89  C    0.045834
    90  C    0.114345
    91  C    0.062554
    92  C   -0.077829
    93  H    0.034643
    94  N   -0.423564
    95  C    0.163063
    96  C   -0.174458
    97  C   -0.007589
    98  C    0.152178
    99  C    0.099298
   100  C    0.015682
   101  O   -0.252889
   102  C    0.061185
   103  N   -0.350009
   104  C    0.037719
   105  C   -0.019994
   106  C   -0.034713
   107  C    0.088868
   108  C    0.073371
   109  C    0.034719
   110  C   -0.007642
   111  N   -0.324047
   112  C    0.078368
   113  C   -0.163271
   114  C    0.002071
   115  C    0.096188
   116  C    0.131520
   117  C    0.042182
   118  O   -0.188392
   119  C    0.000981
   120  C    0.211176
   121  O   -0.251059
   122  O   -0.305648
   123  C    0.152093
   124  H   -0.019578
   125  H   -0.015246
   126  H   -0.040618
   127  H   -0.000768
   128  H   -0.004413
   129  H    0.022398
   130  H    0.014792
   131  H    0.016365
   132  H    0.013900
   133  H    0.037570
   134  H    0.020792
   135  H    0.019594
   136  H    0.008723
   137  H    0.026403
   138  H    0.039702
   139  H    0.038385
   140  H    0.036464
   141  H    0.033710
   142  H    0.014317
   143  H    0.012603
   144  H    0.025365
   145  H    0.012386
   146  H    0.006163
   147  H    0.006366
   148  H    0.003408
   149  H    0.010981
   150  H    0.017689
   151  H    0.030019
   152  H    0.045721
   153  H    0.008443
   154  H    0.046667
   155  H    0.034846
   156  H    0.043679
   157  H    0.049539
   158  H    0.053496
 Sum of Mulliken charges =  -0.00000
 Mulliken charges with hydrogens summed into heavy atoms:
               1
     1  Mg   0.838635
     2  C   -0.002909
     3  C   -0.111332
     4  C   -0.062969
     5  C   -0.105707
     6  N   -0.256782
     7  C   -0.052444
     8  C   -0.013017
     9  C   -0.090884
    10  C    0.046314
    11  C    0.163516
    12  C    0.108759
    13  C    0.000339
    15  N   -0.433173
    16  C    0.168388
    17  C   -0.176988
    18  C   -0.004021
    19  C    0.148693
    20  C    0.182926
    21  C    0.012207
    22  O   -0.249872
    23  C    0.167285
    24  N   -0.341099
    25  C    0.041247
    26  C   -0.011917
    27  C   -0.014408
    28  C    0.074752
    29  C    0.116742
    30  C    0.046063
    31  C    0.050868
    32  N   -0.310468
    33  C    0.080336
    34  C   -0.169792
    35  C    0.008406
    36  C    0.082917
    37  C    0.229928
    38  C    0.046119
    39  O   -0.188357
    40  C    0.029898
    41  C    0.212941
    42  O   -0.257166
    43  O   -0.304769
    44  C    0.300795
    80  Mg   0.837985
    81  C   -0.016921
    82  C   -0.107361
    83  C   -0.060499
    84  C   -0.105338
    85  N   -0.254591
    86  C   -0.049895
    87  C   -0.015851
    88  C   -0.094951
    89  C    0.045834
    90  C    0.167900
    91  C    0.114024
    92  C   -0.002800
    94  N   -0.423564
    95  C    0.163063
    96  C   -0.174458
    97  C   -0.007589
    98  C    0.152178
    99  C    0.174126
   100  C    0.015682
   101  O   -0.252889
   102  C    0.169744
   103  N   -0.350009
   104  C    0.037719
   105  C   -0.005677
   106  C   -0.022109
   107  C    0.088868
   108  C    0.117284
   109  C    0.044493
   110  C    0.051048
   111  N   -0.324047
   112  C    0.078368
   113  C   -0.163271
   114  C    0.002071
   115  C    0.096188
   116  C    0.232352
   117  C    0.042182
   118  O   -0.188392
   119  C    0.035827
   120  C    0.211176
   121  O   -0.251059
   122  O   -0.305648
   123  C    0.298808
 Electronic spatial extent (au):  <R**2>=         193885.9937
 Charge=             -0.0000 electrons
 Dipole moment (field-independent basis, Debye):
    X=              3.7047    Y=              3.2526    Z=              0.8178  Tot=              4.9973
 Quadrupole moment (field-independent basis, Debye-Ang):
   XX=           -520.7361   YY=           -537.4402   ZZ=           -460.6262
   XY=             20.7121   XZ=            -65.2103   YZ=             34.6304
 Traceless Quadrupole moment (field-independent basis, Debye-Ang):
   XX=            -14.4686   YY=            -31.1727   ZZ=             45.6413
   XY=             20.7121   XZ=            -65.2103   YZ=             34.6304
 Octapole moment (field-independent basis, Debye-Ang**2):
  XXX=            726.8397  YYY=            180.3105  ZZZ=            187.3561  XYY=           -282.9677
  XXY=            203.1860  XXZ=            111.5840  XZZ=            278.6440  YZZ=            -89.8747
  YYZ=           -270.7421  XYZ=           -254.5191
 Hexadecapole moment (field-independent basis, Debye-Ang**3):
 XXXX=        -201716.4481 YYYY=         -40219.0666 ZZZZ=         -26080.6950 XXXY=           1234.8915
 XXXZ=          -5335.1854 YYYX=          -2274.4137 YYYZ=            661.4950 ZZZX=          -1269.8316
 ZZZY=            391.8007 XXYY=         -40771.9342 XXZZ=         -34688.6550 YYZZ=         -10909.8891
 XXYZ=           2156.0634 YYXZ=           -769.6344 ZZXY=            824.9714
 N-N= 1.373030845411D+04 E-N=-3.694152691698D+04  KE= 4.028801936133D+03
 Leave Link  601 at Sat Sep  4 13:47:41 2021, MaxMem= 23488102400 cpu:              16.8 elap:               0.8
 (Enter /sw/apps/gaussian-16.0/g16/l9999.exe)
 1\1\GINC-BP1-COMPUTE00084\SP\RCAM-B3LYP TD-FC\def2SVP\C68H72Mg2N8O8\OF
 15641\04-Sep-2021\0\\#p cam-b3lyp/Def2SVP td=(nstates=5)\\TDDFT excite
 d states in gaussian\\0,1\Mg,0,0.,0.,0.\C,0,-0.217,-2.218,2.801\C,0,-1
 .255,2.442,2.026\C,0,-0.245,1.85,-2.564\C,0,0.146,-2.824,-2.037\N,0,-0
 .617,-0.009,2.126\C,0,-0.594,-0.908,3.105\C,0,-0.936,-0.309,4.502\C,0,
 -1.773,0.964,4.032\C,0,-1.155,1.168,2.66\C,0,-3.263,0.685,3.863\C,0,0.
 345,0.11,5.299\C,0,0.124,0.397,6.787\H,0,1.168,0.033,7.733\N,0,-0.185,
 1.961,-0.152\C,0,-0.703,2.8,0.777\C,0,-0.62,4.156,0.193\C,0,-0.187,4.0
 15,-1.225\C,0,-0.214,2.583,-1.38\C,0,-0.887,5.406,0.974\C,0,0.181,5.01
 3,-2.277\O,0,0.303,4.69,-3.508\C,0,0.31,6.414,-1.837\N,0,-0.265,-0.413
 ,-2.029\C,0,-0.279,0.569,-2.937\C,0,-0.196,0.024,-4.332\C,0,0.124,-1.5
 33,-4.18\C,0,0.086,-1.632,-2.635\C,0,-1.451,0.205,-5.197\C,0,1.373,-2.
 07,-4.923\C,0,2.626,-1.49,-4.306\N,0,0.15,-2.144,0.303\C,0,0.173,-3.13
 6,-0.688\C,0,0.173,-4.438,0.004\C,0,0.133,-4.111,1.358\C,0,0.083,-2.69
 5,1.502\C,0,0.149,-5.715,-0.623\C,0,0.096,-4.629,2.716\O,0,0.208,-5.74
 7,3.221\C,0,-0.255,-3.428,3.701\C,0,0.717,-3.482,4.848\O,0,1.931,-3.25
 5,4.669\O,0,0.038,-3.556,6.003\C,0,0.943,-3.583,7.183\H,0,-1.859,3.22,
 2.497\H,0,-0.218,2.453,-3.474\H,0,0.276,-3.747,-2.605\H,0,-1.554,-0.94
 9,5.132\H,0,-1.585,1.831,4.665\H,0,-3.484,-0.377,3.969\H,0,-3.511,1.02
 7,2.858\H,0,-3.852,1.301,4.543\H,0,0.669,1.096,4.966\H,0,1.13,-0.639,5
 .189\H,0,-0.844,0.026,7.125\H,0,0.062,1.477,6.921\H,0,-1.344,5.186,1.9
 38\H,0,-1.651,5.963,0.432\H,0,0.007,6.02,1.084\H,0,-0.635,6.744,-1.405
 \H,0,0.665,6.97,-2.704\H,0,1.048,6.466,-1.036\H,0,0.608,0.501,-4.891\H
 ,0,-0.692,-2.156,-4.547\H,0,-1.267,0.74,-6.129\H,0,-2.204,0.714,-4.596
 \H,0,-1.967,-0.72,-5.453\H,0,1.356,-1.759,-5.967\H,0,1.452,-3.157,-4.9
 02\H,0,2.714,-0.522,-4.798\H,0,3.487,-2.121,-4.529\H,0,2.495,-1.303,-3
 .24\H,0,0.867,-6.333,-0.084\H,0,0.404,-5.642,-1.68\H,0,-0.891,-5.999,-
 0.463\H,0,-1.283,-3.581,4.028\H,0,0.698,-4.478,7.755\H,0,0.833,-2.619,
 7.68\H,0,2.,-3.754,6.976\Mg,0,15.77396,1.42115,1.19057\C,0,15.30197,4.
 91662,0.52877\C,0,15.19243,0.86774,-2.12457\C,0,15.73732,-1.68891,1.81
 796\C,0,15.18639,2.12064,4.55378\N,0,15.31825,2.79566,-0.48134\C,0,15.
 2249,4.10905,-0.62506\C,0,15.11879,4.58903,-2.09745\C,0,14.52399,3.245
 72,-2.74599\C,0,15.07089,2.22873,-1.74634\C,0,13.00611,3.18136,-2.7107
 9\C,0,16.51696,4.95233,-2.70993\C,0,16.45983,5.71795,-4.03368\H,0,17.4
 7752,6.7319,-4.29579\N,0,15.98991,-0.13597,-0.02076\C,0,15.72907,-0.17
 976,-1.34413\C,0,16.03083,-1.55567,-1.76836\C,0,16.33359,-2.36448,-0.5
 5638\C,0,16.0045,-1.41206,0.4851\C,0,16.09115,-1.96779,-3.21056\C,0,16
 .82431,-3.76775,-0.36604\O,0,16.79012,-4.34361,0.77853\C,0,17.25909,-4
 .48007,-1.57644\N,0,15.29411,0.33224,2.89538\C,0,15.41331,-1.00688,2.9
 1668\C,0,15.28007,-1.54411,4.32168\C,0,15.28781,-0.26017,5.2751\C,0,15
 .33657,0.85071,4.20321\C,0,14.02864,-2.37659,4.59968\C,0,16.34398,-0.2
 3548,6.41377\C,0,17.73275,-0.12301,5.8272\N,0,15.50736,3.20137,2.38547
 \C,0,15.24745,3.26708,3.77191\C,0,15.02931,4.68923,4.10705\C,0,15.1557
 ,5.35501,2.87853\C,0,15.41301,4.41201,1.84702\C,0,14.70901,5.20042,5.3
 9632\C,0,15.1194,6.63999,2.21806\O,0,15.02794,7.80781,2.59429\C,0,15.0
 8703,6.4,0.64715\C,0,16.10734,7.30824,0.0174\O,0,17.31976,7.15095,0.24
 523\O,0,15.50454,8.06919,-0.91424\C,0,16.47789,8.97919,-1.57478\H,0,14
 .8018,0.56225,-3.09563\H,0,15.8219,-2.73888,2.10758\H,0,15.09486,2.431
 42,5.59672\H,0,14.43502,5.41389,-2.25818\H,0,14.93742,3.06814,-3.73539
 \H,0,12.58118,3.99859,-2.14714\H,0,12.76251,2.23464,-2.24666\H,0,12.60
 731,3.1298,-3.72796\H,0,17.01057,4.03159,-3.04657\H,0,17.11273,5.49653
 ,-2.00316\H,0,15.45852,6.11715,-4.23608\H,0,16.63756,5.01354,-4.84992\
 H,0,15.66101,-1.20081,-3.8664\H,0,15.42369,-2.82872,-3.32529\H,0,17.09
 667,-2.25584,-3.52462\H,0,16.43588,-4.52282,-2.28563\H,0,17.65854,-5.4
 3395,-1.22655\H,0,18.05715,-3.90164,-2.05512\H,0,16.12256,-2.17558,4.5
 7577\H,0,14.33234,-0.14189,5.80702\H,0,14.25471,-3.39243,4.97521\H,0,1
 3.44434,-2.42854,3.69059\H,0,13.32493,-1.93229,5.30153\H,0,16.31875,-1
 .17331,6.97412\H,0,16.19294,0.56916,7.12562\H,0,17.97769,-1.1585,5.572
 57\H,0,18.42779,0.27767,6.56233\H,0,17.72042,0.45187,4.89392\H,0,15.31
 443,6.08555,5.53952\H,0,14.89302,4.46189,6.17381\H,0,13.64248,5.40272,
 5.26648\H,0,14.07564,6.61955,0.30298\H,0,16.09187,9.99689,-1.46089\H,0
 ,16.59226,8.59634,-2.60633\H,0,17.45972,9.07394,-1.1259\\Version=ES64L
 -G16RevA.03\State=1-A\HF=-4069.8118193\RMSD=6.708e-09\PG=C01 [X(C68H72
 Mg2N8O8)]\\@


 THE ATTENTION SPAN OF A COMPUTER IS AS LONG
 AS ITS EXTENSION CORD.
 Job cpu time:       0 days 10 hours 48 minutes 11.9 seconds.
 Elapsed time:       0 days  0 hours 27 minutes 35.6 seconds.
 File lengths (MBytes):  RWF=  13225 Int=      0 D2E=      0 Chk=    574 Scr=      1
 Normal termination of Gaussian 16 at Sat Sep  4 13:47:42 2021.
