 Entering Gaussian System, Link 0=g16
 Initial command:
 /sw/apps/gaussian-16.0/g16/l1.exe "/tmp/Gau-121752.inp" -scrdir="/tmp/"
 Entering Link 1 = /sw/apps/gaussian-16.0/g16/l1.exe PID=    121753.
  
 Copyright (c) 1988,1990,1992,1993,1995,1998,2003,2009,2016,
            Gaussian, Inc.  All Rights Reserved.
  
 This is part of the Gaussian(R) 16 program.  It is based on
 the Gaussian(R) 09 system (copyright 2009, Gaussian, Inc.),
 the Gaussian(R) 03 system (copyright 2003, Gaussian, Inc.),
 the Gaussian(R) 98 system (copyright 1998, Gaussian, Inc.),
 the Gaussian(R) 94 system (copyright 1995, Gaussian, Inc.),
 the Gaussian 92(TM) system (copyright 1992, Gaussian, Inc.),
 the Gaussian 90(TM) system (copyright 1990, Gaussian, Inc.),
 the Gaussian 88(TM) system (copyright 1988, Gaussian, Inc.),
 the Gaussian 86(TM) system (copyright 1986, Carnegie Mellon
 University), and the Gaussian 82(TM) system (copyright 1983,
 Carnegie Mellon University). Gaussian is a federally registered
 trademark of Gaussian, Inc.
  
 This software contains proprietary and confidential information,
 including trade secrets, belonging to Gaussian, Inc.
  
 This software is provided under written license and may be
 used, copied, transmitted, or stored only in accord with that
 written license.
  
 The following legend is applicable only to US Government
 contracts under FAR:
  
                    RESTRICTED RIGHTS LEGEND
  
 Use, reproduction and disclosure by the US Government is
 subject to restrictions as set forth in subparagraphs (a)
 and (c) of the Commercial Computer Software - Restricted
 Rights clause in FAR 52.227-19.
  
 Gaussian, Inc.
 340 Quinnipiac St., Bldg. 40, Wallingford CT 06492
  
  
 ---------------------------------------------------------------
 Warning -- This program may not be used in any manner that
 competes with the business of Gaussian, Inc. or will provide
 assistance to any competitor of Gaussian, Inc.  The licensee
 of this program is prohibited from giving any competitor of
 Gaussian, Inc. access to this program.  By using this program,
 the user acknowledges that Gaussian, Inc. is engaged in the
 business of creating and licensing software in the field of
 computational chemistry and represents and warrants to the
 licensee that it is not a competitor of Gaussian, Inc. and that
 it will not use this program in any manner prohibited above.
 ---------------------------------------------------------------
  

 Cite this work as:
 Gaussian 16, Revision A.03,
 M. J. Frisch, G. W. Trucks, H. B. Schlegel, G. E. Scuseria, 
 M. A. Robb, J. R. Cheeseman, G. Scalmani, V. Barone, 
 G. A. Petersson, H. Nakatsuji, X. Li, M. Caricato, A. V. Marenich, 
 J. Bloino, B. G. Janesko, R. Gomperts, B. Mennucci, H. P. Hratchian, 
 J. V. Ortiz, A. F. Izmaylov, J. L. Sonnenberg, D. Williams-Young, 
 F. Ding, F. Lipparini, F. Egidi, J. Goings, B. Peng, A. Petrone, 
 T. Henderson, D. Ranasinghe, V. G. Zakrzewski, J. Gao, N. Rega, 
 G. Zheng, W. Liang, M. Hada, M. Ehara, K. Toyota, R. Fukuda, 
 J. Hasegawa, M. Ishida, T. Nakajima, Y. Honda, O. Kitao, H. Nakai, 
 T. Vreven, K. Throssell, J. A. Montgomery, Jr., J. E. Peralta, 
 F. Ogliaro, M. J. Bearpark, J. J. Heyd, E. N. Brothers, K. N. Kudin, 
 V. N. Staroverov, T. A. Keith, R. Kobayashi, J. Normand, 
 K. Raghavachari, A. P. Rendell, J. C. Burant, S. S. Iyengar, 
 J. Tomasi, M. Cossi, J. M. Millam, M. Klene, C. Adamo, R. Cammi, 
 J. W. Ochterski, R. L. Martin, K. Morokuma, O. Farkas, 
 J. B. Foresman, and D. J. Fox, Gaussian, Inc., Wallingford CT, 2016.
 
 ******************************************
 Gaussian 16:  ES64L-G16RevA.03 25-Dec-2016
                 4-Sep-2021 
 ******************************************
 %nproc=24
 Will use up to   24 processors via shared memory.
 %mem=175gb
 -----------------------------------
 #p cam-b3lyp/Def2SVP td=(nstates=5)
 -----------------------------------
 1/38=1,172=1/1;
 2/12=2,17=6,18=5,40=1/2;
 3/5=43,7=101,11=9,25=1,30=1,74=-40/1,2,3,8;
 4//1;
 5/5=2,38=5/2;
 8/6=1,10=1,108=5/1;
 9/41=5,42=1,70=2/14;
 6/7=2,8=2,9=2,10=2/1;
 99/5=1,9=1/99;
 Leave Link    1 at Sat Sep  4 06:12:42 2021, MaxMem= 23488102400 cpu:               0.8 elap:               0.0
 (Enter /sw/apps/gaussian-16.0/g16/l101.exe)
 --------------------------------
 TDDFT excited states in gaussian
 --------------------------------
 Symbolic Z-matrix:
 Charge =  0 Multiplicity = 1
 Mg                    0.        0.        0. 
 C                    -0.217    -2.218     2.801 
 C                    -1.255     2.442     2.026 
 C                    -0.245     1.85     -2.564 
 C                     0.146    -2.824    -2.037 
 N                    -0.617    -0.009     2.126 
 C                    -0.594    -0.908     3.105 
 C                    -0.936    -0.309     4.502 
 C                    -1.773     0.964     4.032 
 C                    -1.155     1.168     2.66 
 C                    -3.263     0.685     3.863 
 C                     0.345     0.11      5.299 
 C                     0.124     0.397     6.787 
 H                     1.168     0.033     7.733 
 N                    -0.185     1.961    -0.152 
 C                    -0.703     2.8       0.777 
 C                    -0.62      4.156     0.193 
 C                    -0.187     4.015    -1.225 
 C                    -0.214     2.583    -1.38 
 C                    -0.887     5.406     0.974 
 C                     0.181     5.013    -2.277 
 O                     0.303     4.69     -3.508 
 C                     0.31      6.414    -1.837 
 N                    -0.265    -0.413    -2.029 
 C                    -0.279     0.569    -2.937 
 C                    -0.196     0.024    -4.332 
 C                     0.124    -1.533    -4.18 
 C                     0.086    -1.632    -2.635 
 C                    -1.451     0.205    -5.197 
 C                     1.373    -2.07     -4.923 
 C                     2.626    -1.49     -4.306 
 N                     0.15     -2.144     0.303 
 C                     0.173    -3.136    -0.688 
 C                     0.173    -4.438     0.004 
 C                     0.133    -4.111     1.358 
 C                     0.083    -2.695     1.502 
 C                     0.149    -5.715    -0.623 
 C                     0.096    -4.629     2.716 
 O                     0.208    -5.747     3.221 
 C                    -0.255    -3.428     3.701 
 C                     0.717    -3.482     4.848 
 O                     1.931    -3.255     4.669 
 O                     0.038    -3.556     6.003 
 C                     0.943    -3.583     7.183 
 H                    -1.859     3.22      2.497 
 H                    -0.218     2.453    -3.474 
 H                     0.276    -3.747    -2.605 
 H                    -1.554    -0.949     5.132 
 H                    -1.585     1.831     4.665 
 H                    -3.484    -0.377     3.969 
 H                    -3.511     1.027     2.858 
 H                    -3.852     1.301     4.543 
 H                     0.669     1.096     4.966 
 H                     1.13     -0.639     5.189 
 H                    -0.844     0.026     7.125 
 H                     0.062     1.477     6.921 
 H                    -1.344     5.186     1.938 
 H                    -1.651     5.963     0.432 
 H                     0.007     6.02      1.084 
 H                    -0.635     6.744    -1.405 
 H                     0.665     6.97     -2.704 
 H                     1.048     6.466    -1.036 
 H                     0.608     0.501    -4.891 
 H                    -0.692    -2.156    -4.547 
 H                    -1.267     0.74     -6.129 
 H                    -2.204     0.714    -4.596 
 H                    -1.967    -0.72     -5.453 
 H                     1.356    -1.759    -5.967 
 H                     1.452    -3.157    -4.902 
 H                     2.714    -0.522    -4.798 
 H                     3.487    -2.121    -4.529 
 H                     2.495    -1.303    -3.24 
 H                     0.867    -6.333    -0.084 
 H                     0.404    -5.642    -1.68 
 H                    -0.891    -5.999    -0.463 
 H                    -1.283    -3.581     4.028 
 H                     0.698    -4.478     7.755 
 H                     0.833    -2.619     7.68 
 H                     2.       -3.754     6.976 
 Mg                    10.51837   0.94018   0.80278 
 C                     10.73242  -1.70099  -1.61744 
 C                     9.67456  -1.43562   3.1002 
 C                     9.88326   3.28334   2.84574 
 C                     10.25073   3.17141  -1.86099 
 N                     10.26898  -1.25162   0.6414 
 C                     10.43672  -2.153    -0.31449 
 C                     10.35781  -3.62585   0.1693 
 C                     9.47205  -3.39824   1.48933 
 C                     9.85002  -1.9494    1.79048 
 C                     7.97622  -3.45717   1.22791 
 C                     11.76877  -4.21649   0.51912 
 C                     11.80295  -5.73554   0.70099 
 H                     12.99082  -6.46256   0.26182 
 N                     10.35456   0.9106    2.78037 
 C                     10.02554  -0.14517   3.55392 
 C                     10.02105   0.35549   4.93721 
 C                     10.21285   1.83086   4.90271 
 C                     10.13515   2.07349   3.47611 
 C                     9.92566  -0.55063   6.13022 
 C                     10.41784   2.85568   5.97692 
 O                     10.32398   4.11116   5.73653 
 C                     10.63926   2.34412   7.33736 
 N                     9.91223   2.91182   0.54281 
 C                     9.75856   3.73252   1.59674 
 C                     9.58845   5.16556   1.15193 
 C                     9.90301   5.16893  -0.41607 
 C                     10.12309   3.65573  -0.63327 
 C                     8.20952   5.77846   1.39542 
 C                     10.99695   6.15369  -0.91229 
 C                     12.34916   5.73173  -0.38421 
 N                     10.67704   0.82018  -1.34861 
 C                     10.5043   1.87049  -2.27656 
 C                     10.59556   1.27796  -3.62674 
 C                     10.79368  -0.09047  -3.38873 
 C                     10.80358  -0.33661  -1.98915 
 C                     10.44923   1.98138  -4.85553 
 C                     10.98606  -1.38429  -4.00331 
 O                     11.1517  -1.78268  -5.15552 
 C                     10.82857  -2.5032   -2.88544 
 C                     11.97952  -3.46188  -3.02243 
 O                     13.14462  -3.08605  -2.8036 
 O                     11.49834  -4.70907  -3.17527 
 C                     12.60221  -5.69733  -3.30425 
 H                     9.18289  -2.06472   3.84274 
 H                     9.76749   4.14474   3.5076 
 H                     10.27544   3.81516  -2.74284 
 H                     9.84829  -4.30001  -0.50869 
 H                     9.79179  -4.05148   2.29704 
 H                     7.7539   -3.52512   0.17335 
 H                     7.56897  -2.54425   1.64237 
 H                     7.52574  -4.2744    1.79846 
 H                     12.04844  -3.89964   1.5321 
 H                     12.49645  -3.92369  -0.21257 
 H                     10.89458  -6.21697   0.31885 
 H                     11.79394  -5.95722   1.77094 
 H                     9.62813  -1.56619   5.84123 
 H                     9.0928   -0.1873    6.74194 
 H                     10.83529  -0.54849   6.73457 
 H                     9.79061   1.73336   7.63609 
 H                     10.85386   3.22284   7.94865 
 H                     11.51344   1.68363   7.32479 
 H                     10.29698   5.81298   1.65388 
 H                     9.01865   5.44609  -1.00846 
 H                     8.24327   6.70014   2.00652 
 H                     7.58285   5.03274   1.8663 
 H                     7.64579   6.01928   0.49575 
 H                     10.80981   7.15644  -0.52034 
 H                     11.04724   6.23454  -1.993 
 H                     12.3664   6.16176   0.6217 
 H                     13.14623   6.14051  -1.00195 
 H                     12.4077   4.64226  -0.27799 
 H                     11.22772   1.62138  -5.51497 
 H                     10.51778   3.05721  -4.70839 
 H                     9.44074   1.66941  -5.13995 
 H                     9.86696  -2.99254  -3.04492 
 H                     12.43647  -6.24121  -4.23935 
 H                     12.5858  -6.28735  -2.36865 
 H                     13.60372  -5.31285  -3.45788 
 
 ITRead=  0  0  0  0  0  0  0  0  0  0  0  0  0  0  0  0  0  0  0  0
 ITRead=  0  0  0  0  0  0  0  0  0  0  0  0  0  0  0  0  0  0  0  0
 ITRead=  0  0  0  0  0  0  0  0  0  0  0  0  0  0  0  0  0  0  0  0
 ITRead=  0  0  0  0  0  0  0  0  0  0  0  0  0  0  0  0  0  0  0  0
 ITRead=  0  0  0  0  0  0  0  0  0  0  0  0  0  0  0  0  0  0  0  0
 ITRead=  0  0  0  0  0  0  0  0  0  0  0  0  0  0  0  0  0  0  0  0
 ITRead=  0  0  0  0  0  0  0  0  0  0  0  0  0  0  0  0  0  0  0  0
 ITRead=  0  0  0  0  0  0  0  0  0  0  0  0  0  0  0  0  0  0
 MicOpt= -1 -1 -1 -1 -1 -1 -1 -1 -1 -1 -1 -1 -1 -1 -1 -1 -1 -1 -1 -1
 MicOpt= -1 -1 -1 -1 -1 -1 -1 -1 -1 -1 -1 -1 -1 -1 -1 -1 -1 -1 -1 -1
 MicOpt= -1 -1 -1 -1 -1 -1 -1 -1 -1 -1 -1 -1 -1 -1 -1 -1 -1 -1 -1 -1
 MicOpt= -1 -1 -1 -1 -1 -1 -1 -1 -1 -1 -1 -1 -1 -1 -1 -1 -1 -1 -1 -1
 MicOpt= -1 -1 -1 -1 -1 -1 -1 -1 -1 -1 -1 -1 -1 -1 -1 -1 -1 -1 -1 -1
 MicOpt= -1 -1 -1 -1 -1 -1 -1 -1 -1 -1 -1 -1 -1 -1 -1 -1 -1 -1 -1 -1
 MicOpt= -1 -1 -1 -1 -1 -1 -1 -1 -1 -1 -1 -1 -1 -1 -1 -1 -1 -1 -1 -1
 MicOpt= -1 -1 -1 -1 -1 -1 -1 -1 -1 -1 -1 -1 -1 -1 -1 -1 -1 -1
 NAtoms=    158 NQM=      158 NQMF=       0 NMMI=      0 NMMIF=      0
                NMic=       0 NMicF=      0.
                    Isotopes and Nuclear Properties:
 (Nuclear quadrupole moments (NQMom) in fm**2, nuclear magnetic moments (NMagM)
  in nuclear magnetons)

  Atom         1           2           3           4           5           6           7           8           9          10
 IAtWgt=          24          12          12          12          12          14          12          12          12          12
 AtmWgt=  23.9850450  12.0000000  12.0000000  12.0000000  12.0000000  14.0030740  12.0000000  12.0000000  12.0000000  12.0000000
 NucSpn=           0           0           0           0           0           2           0           0           0           0
 AtZEff=  -0.0000000  -0.0000000  -0.0000000  -0.0000000  -0.0000000  -0.0000000  -0.0000000  -0.0000000  -0.0000000  -0.0000000
 NQMom=    0.0000000   0.0000000   0.0000000   0.0000000   0.0000000   2.0440000   0.0000000   0.0000000   0.0000000   0.0000000
 NMagM=    0.0000000   0.0000000   0.0000000   0.0000000   0.0000000   0.4037610   0.0000000   0.0000000   0.0000000   0.0000000
 AtZNuc=  12.0000000   6.0000000   6.0000000   6.0000000   6.0000000   7.0000000   6.0000000   6.0000000   6.0000000   6.0000000

  Atom        11          12          13          14          15          16          17          18          19          20
 IAtWgt=          12          12          12           1          14          12          12          12          12          12
 AtmWgt=  12.0000000  12.0000000  12.0000000   1.0078250  14.0030740  12.0000000  12.0000000  12.0000000  12.0000000  12.0000000
 NucSpn=           0           0           0           1           2           0           0           0           0           0
 AtZEff=  -0.0000000  -0.0000000  -0.0000000  -0.0000000  -0.0000000  -0.0000000  -0.0000000  -0.0000000  -0.0000000  -0.0000000
 NQMom=    0.0000000   0.0000000   0.0000000   0.0000000   2.0440000   0.0000000   0.0000000   0.0000000   0.0000000   0.0000000
 NMagM=    0.0000000   0.0000000   0.0000000   2.7928460   0.4037610   0.0000000   0.0000000   0.0000000   0.0000000   0.0000000
 AtZNuc=   6.0000000   6.0000000   6.0000000   1.0000000   7.0000000   6.0000000   6.0000000   6.0000000   6.0000000   6.0000000

  Atom        21          22          23          24          25          26          27          28          29          30
 IAtWgt=          12          16          12          14          12          12          12          12          12          12
 AtmWgt=  12.0000000  15.9949146  12.0000000  14.0030740  12.0000000  12.0000000  12.0000000  12.0000000  12.0000000  12.0000000
 NucSpn=           0           0           0           2           0           0           0           0           0           0
 AtZEff=  -0.0000000  -0.0000000  -0.0000000  -0.0000000  -0.0000000  -0.0000000  -0.0000000  -0.0000000  -0.0000000  -0.0000000
 NQMom=    0.0000000   0.0000000   0.0000000   2.0440000   0.0000000   0.0000000   0.0000000   0.0000000   0.0000000   0.0000000
 NMagM=    0.0000000   0.0000000   0.0000000   0.4037610   0.0000000   0.0000000   0.0000000   0.0000000   0.0000000   0.0000000
 AtZNuc=   6.0000000   8.0000000   6.0000000   7.0000000   6.0000000   6.0000000   6.0000000   6.0000000   6.0000000   6.0000000

  Atom        31          32          33          34          35          36          37          38          39          40
 IAtWgt=          12          14          12          12          12          12          12          12          16          12
 AtmWgt=  12.0000000  14.0030740  12.0000000  12.0000000  12.0000000  12.0000000  12.0000000  12.0000000  15.9949146  12.0000000
 NucSpn=           0           2           0           0           0           0           0           0           0           0
 AtZEff=  -0.0000000  -0.0000000  -0.0000000  -0.0000000  -0.0000000  -0.0000000  -0.0000000  -0.0000000  -0.0000000  -0.0000000
 NQMom=    0.0000000   2.0440000   0.0000000   0.0000000   0.0000000   0.0000000   0.0000000   0.0000000   0.0000000   0.0000000
 NMagM=    0.0000000   0.4037610   0.0000000   0.0000000   0.0000000   0.0000000   0.0000000   0.0000000   0.0000000   0.0000000
 AtZNuc=   6.0000000   7.0000000   6.0000000   6.0000000   6.0000000   6.0000000   6.0000000   6.0000000   8.0000000   6.0000000

  Atom        41          42          43          44          45          46          47          48          49          50
 IAtWgt=          12          16          16          12           1           1           1           1           1           1
 AtmWgt=  12.0000000  15.9949146  15.9949146  12.0000000   1.0078250   1.0078250   1.0078250   1.0078250   1.0078250   1.0078250
 NucSpn=           0           0           0           0           1           1           1           1           1           1
 AtZEff=  -0.0000000  -0.0000000  -0.0000000  -0.0000000  -0.0000000  -0.0000000  -0.0000000  -0.0000000  -0.0000000  -0.0000000
 NQMom=    0.0000000   0.0000000   0.0000000   0.0000000   0.0000000   0.0000000   0.0000000   0.0000000   0.0000000   0.0000000
 NMagM=    0.0000000   0.0000000   0.0000000   0.0000000   2.7928460   2.7928460   2.7928460   2.7928460   2.7928460   2.7928460
 AtZNuc=   6.0000000   8.0000000   8.0000000   6.0000000   1.0000000   1.0000000   1.0000000   1.0000000   1.0000000   1.0000000

  Atom        51          52          53          54          55          56          57          58          59          60
 IAtWgt=           1           1           1           1           1           1           1           1           1           1
 AtmWgt=   1.0078250   1.0078250   1.0078250   1.0078250   1.0078250   1.0078250   1.0078250   1.0078250   1.0078250   1.0078250
 NucSpn=           1           1           1           1           1           1           1           1           1           1
 AtZEff=  -0.0000000  -0.0000000  -0.0000000  -0.0000000  -0.0000000  -0.0000000  -0.0000000  -0.0000000  -0.0000000  -0.0000000
 NQMom=    0.0000000   0.0000000   0.0000000   0.0000000   0.0000000   0.0000000   0.0000000   0.0000000   0.0000000   0.0000000
 NMagM=    2.7928460   2.7928460   2.7928460   2.7928460   2.7928460   2.7928460   2.7928460   2.7928460   2.7928460   2.7928460
 AtZNuc=   1.0000000   1.0000000   1.0000000   1.0000000   1.0000000   1.0000000   1.0000000   1.0000000   1.0000000   1.0000000

  Atom        61          62          63          64          65          66          67          68          69          70
 IAtWgt=           1           1           1           1           1           1           1           1           1           1
 AtmWgt=   1.0078250   1.0078250   1.0078250   1.0078250   1.0078250   1.0078250   1.0078250   1.0078250   1.0078250   1.0078250
 NucSpn=           1           1           1           1           1           1           1           1           1           1
 AtZEff=  -0.0000000  -0.0000000  -0.0000000  -0.0000000  -0.0000000  -0.0000000  -0.0000000  -0.0000000  -0.0000000  -0.0000000
 NQMom=    0.0000000   0.0000000   0.0000000   0.0000000   0.0000000   0.0000000   0.0000000   0.0000000   0.0000000   0.0000000
 NMagM=    2.7928460   2.7928460   2.7928460   2.7928460   2.7928460   2.7928460   2.7928460   2.7928460   2.7928460   2.7928460
 AtZNuc=   1.0000000   1.0000000   1.0000000   1.0000000   1.0000000   1.0000000   1.0000000   1.0000000   1.0000000   1.0000000

  Atom        71          72          73          74          75          76          77          78          79          80
 IAtWgt=           1           1           1           1           1           1           1           1           1          24
 AtmWgt=   1.0078250   1.0078250   1.0078250   1.0078250   1.0078250   1.0078250   1.0078250   1.0078250   1.0078250  23.9850450
 NucSpn=           1           1           1           1           1           1           1           1           1           0
 AtZEff=  -0.0000000  -0.0000000  -0.0000000  -0.0000000  -0.0000000  -0.0000000  -0.0000000  -0.0000000  -0.0000000  -0.0000000
 NQMom=    0.0000000   0.0000000   0.0000000   0.0000000   0.0000000   0.0000000   0.0000000   0.0000000   0.0000000   0.0000000
 NMagM=    2.7928460   2.7928460   2.7928460   2.7928460   2.7928460   2.7928460   2.7928460   2.7928460   2.7928460   0.0000000
 AtZNuc=   1.0000000   1.0000000   1.0000000   1.0000000   1.0000000   1.0000000   1.0000000   1.0000000   1.0000000  12.0000000

  Atom        81          82          83          84          85          86          87          88          89          90
 IAtWgt=          12          12          12          12          14          12          12          12          12          12
 AtmWgt=  12.0000000  12.0000000  12.0000000  12.0000000  14.0030740  12.0000000  12.0000000  12.0000000  12.0000000  12.0000000
 NucSpn=           0           0           0           0           2           0           0           0           0           0
 AtZEff=  -0.0000000  -0.0000000  -0.0000000  -0.0000000  -0.0000000  -0.0000000  -0.0000000  -0.0000000  -0.0000000  -0.0000000
 NQMom=    0.0000000   0.0000000   0.0000000   0.0000000   2.0440000   0.0000000   0.0000000   0.0000000   0.0000000   0.0000000
 NMagM=    0.0000000   0.0000000   0.0000000   0.0000000   0.4037610   0.0000000   0.0000000   0.0000000   0.0000000   0.0000000
 AtZNuc=   6.0000000   6.0000000   6.0000000   6.0000000   7.0000000   6.0000000   6.0000000   6.0000000   6.0000000   6.0000000

  Atom        91          92          93          94          95          96          97          98          99         100
 IAtWgt=          12          12           1          14          12          12          12          12          12          12
 AtmWgt=  12.0000000  12.0000000   1.0078250  14.0030740  12.0000000  12.0000000  12.0000000  12.0000000  12.0000000  12.0000000
 NucSpn=           0           0           1           2           0           0           0           0           0           0
 AtZEff=  -0.0000000  -0.0000000  -0.0000000  -0.0000000  -0.0000000  -0.0000000  -0.0000000  -0.0000000  -0.0000000  -0.0000000
 NQMom=    0.0000000   0.0000000   0.0000000   2.0440000   0.0000000   0.0000000   0.0000000   0.0000000   0.0000000   0.0000000
 NMagM=    0.0000000   0.0000000   2.7928460   0.4037610   0.0000000   0.0000000   0.0000000   0.0000000   0.0000000   0.0000000
 AtZNuc=   6.0000000   6.0000000   1.0000000   7.0000000   6.0000000   6.0000000   6.0000000   6.0000000   6.0000000   6.0000000

  Atom       101         102         103         104         105         106         107         108         109         110
 IAtWgt=          16          12          14          12          12          12          12          12          12          12
 AtmWgt=  15.9949146  12.0000000  14.0030740  12.0000000  12.0000000  12.0000000  12.0000000  12.0000000  12.0000000  12.0000000
 NucSpn=           0           0           2           0           0           0           0           0           0           0
 AtZEff=  -0.0000000  -0.0000000  -0.0000000  -0.0000000  -0.0000000  -0.0000000  -0.0000000  -0.0000000  -0.0000000  -0.0000000
 NQMom=    0.0000000   0.0000000   2.0440000   0.0000000   0.0000000   0.0000000   0.0000000   0.0000000   0.0000000   0.0000000
 NMagM=    0.0000000   0.0000000   0.4037610   0.0000000   0.0000000   0.0000000   0.0000000   0.0000000   0.0000000   0.0000000
 AtZNuc=   8.0000000   6.0000000   7.0000000   6.0000000   6.0000000   6.0000000   6.0000000   6.0000000   6.0000000   6.0000000

  Atom       111         112         113         114         115         116         117         118         119         120
 IAtWgt=          14          12          12          12          12          12          12          16          12          12
 AtmWgt=  14.0030740  12.0000000  12.0000000  12.0000000  12.0000000  12.0000000  12.0000000  15.9949146  12.0000000  12.0000000
 NucSpn=           2           0           0           0           0           0           0           0           0           0
 AtZEff=  -0.0000000  -0.0000000  -0.0000000  -0.0000000  -0.0000000  -0.0000000  -0.0000000  -0.0000000  -0.0000000  -0.0000000
 NQMom=    2.0440000   0.0000000   0.0000000   0.0000000   0.0000000   0.0000000   0.0000000   0.0000000   0.0000000   0.0000000
 NMagM=    0.4037610   0.0000000   0.0000000   0.0000000   0.0000000   0.0000000   0.0000000   0.0000000   0.0000000   0.0000000
 AtZNuc=   7.0000000   6.0000000   6.0000000   6.0000000   6.0000000   6.0000000   6.0000000   8.0000000   6.0000000   6.0000000

  Atom       121         122         123         124         125         126         127         128         129         130
 IAtWgt=          16          16          12           1           1           1           1           1           1           1
 AtmWgt=  15.9949146  15.9949146  12.0000000   1.0078250   1.0078250   1.0078250   1.0078250   1.0078250   1.0078250   1.0078250
 NucSpn=           0           0           0           1           1           1           1           1           1           1
 AtZEff=  -0.0000000  -0.0000000  -0.0000000  -0.0000000  -0.0000000  -0.0000000  -0.0000000  -0.0000000  -0.0000000  -0.0000000
 NQMom=    0.0000000   0.0000000   0.0000000   0.0000000   0.0000000   0.0000000   0.0000000   0.0000000   0.0000000   0.0000000
 NMagM=    0.0000000   0.0000000   0.0000000   2.7928460   2.7928460   2.7928460   2.7928460   2.7928460   2.7928460   2.7928460
 AtZNuc=   8.0000000   8.0000000   6.0000000   1.0000000   1.0000000   1.0000000   1.0000000   1.0000000   1.0000000   1.0000000

  Atom       131         132         133         134         135         136         137         138         139         140
 IAtWgt=           1           1           1           1           1           1           1           1           1           1
 AtmWgt=   1.0078250   1.0078250   1.0078250   1.0078250   1.0078250   1.0078250   1.0078250   1.0078250   1.0078250   1.0078250
 NucSpn=           1           1           1           1           1           1           1           1           1           1
 AtZEff=  -0.0000000  -0.0000000  -0.0000000  -0.0000000  -0.0000000  -0.0000000  -0.0000000  -0.0000000  -0.0000000  -0.0000000
 NQMom=    0.0000000   0.0000000   0.0000000   0.0000000   0.0000000   0.0000000   0.0000000   0.0000000   0.0000000   0.0000000
 NMagM=    2.7928460   2.7928460   2.7928460   2.7928460   2.7928460   2.7928460   2.7928460   2.7928460   2.7928460   2.7928460
 AtZNuc=   1.0000000   1.0000000   1.0000000   1.0000000   1.0000000   1.0000000   1.0000000   1.0000000   1.0000000   1.0000000

  Atom       141         142         143         144         145         146         147         148         149         150
 IAtWgt=           1           1           1           1           1           1           1           1           1           1
 AtmWgt=   1.0078250   1.0078250   1.0078250   1.0078250   1.0078250   1.0078250   1.0078250   1.0078250   1.0078250   1.0078250
 NucSpn=           1           1           1           1           1           1           1           1           1           1
 AtZEff=  -0.0000000  -0.0000000  -0.0000000  -0.0000000  -0.0000000  -0.0000000  -0.0000000  -0.0000000  -0.0000000  -0.0000000
 NQMom=    0.0000000   0.0000000   0.0000000   0.0000000   0.0000000   0.0000000   0.0000000   0.0000000   0.0000000   0.0000000
 NMagM=    2.7928460   2.7928460   2.7928460   2.7928460   2.7928460   2.7928460   2.7928460   2.7928460   2.7928460   2.7928460
 AtZNuc=   1.0000000   1.0000000   1.0000000   1.0000000   1.0000000   1.0000000   1.0000000   1.0000000   1.0000000   1.0000000

  Atom       151         152         153         154         155         156         157         158
 IAtWgt=           1           1           1           1           1           1           1           1
 AtmWgt=   1.0078250   1.0078250   1.0078250   1.0078250   1.0078250   1.0078250   1.0078250   1.0078250
 NucSpn=           1           1           1           1           1           1           1           1
 AtZEff=  -0.0000000  -0.0000000  -0.0000000  -0.0000000  -0.0000000  -0.0000000  -0.0000000  -0.0000000
 NQMom=    0.0000000   0.0000000   0.0000000   0.0000000   0.0000000   0.0000000   0.0000000   0.0000000
 NMagM=    2.7928460   2.7928460   2.7928460   2.7928460   2.7928460   2.7928460   2.7928460   2.7928460
 AtZNuc=   1.0000000   1.0000000   1.0000000   1.0000000   1.0000000   1.0000000   1.0000000   1.0000000
 Leave Link  101 at Sat Sep  4 06:12:42 2021, MaxMem= 23488102400 cpu:               3.4 elap:               0.2
 (Enter /sw/apps/gaussian-16.0/g16/l202.exe)
 Stoichiometry    C68H72Mg2N8O8
 Framework group  C1[X(C68H72Mg2N8O8)]
 Deg. of freedom   468
 Full point group                 C1      NOp   1
 Largest Abelian subgroup         C1      NOp   1
 Largest concise Abelian subgroup C1      NOp   1
                         Standard orientation:                         
 ---------------------------------------------------------------------
 Center     Atomic      Atomic             Coordinates (Angstroms)
 Number     Number       Type             X           Y           Z
 ---------------------------------------------------------------------
      1         12           0        5.132536   -1.029252    0.168884
      2          6           0        5.695942    1.889065   -1.825662
      3          6           0        6.483106    0.684749    2.792093
      4          6           0        5.064789   -3.730890    1.828156
      5          6           0        4.898257   -2.834714   -2.802829
      6          7           0        5.948334    1.021767    0.337530
      7          6           0        6.051489    2.060261   -0.485915
      8          6           0        6.502132    3.370809    0.225956
      9          6           0        7.243234    2.731566    1.484580
     10          6           0        6.490770    1.415142    1.566736
     11          6           0        8.719759    2.438804    1.238272
     12          6           0        5.287928    4.256595    0.665072
     13          6           0        5.638342    5.691612    1.069164
     14          1           0        4.702930    6.758361    0.746056
     15          7           0        5.229806   -1.338687    2.117637
     16          6           0        5.802286   -0.527036    3.038928
     17          6           0        5.614290   -1.195864    4.344305
     18          6           0        5.054230   -2.551228    4.084657
     19          6           0        5.119220   -2.605086    2.646515
     20          6           0        5.907870   -0.536160    5.656689
     21          6           0        4.551528   -3.631232    4.989650
     22          8           0        4.325307   -4.818187    4.571875
     23          6           0        4.413247   -3.282315    6.415195
     24          7           0        5.218928   -3.039567   -0.386817
     25          6           0        5.110492   -4.012654    0.524405
     26          6           0        4.915703   -5.350291   -0.125766
     27          6           0        4.669228   -5.056673   -1.675861
     28          6           0        4.857241   -3.519601   -1.657702
     29          6           0        6.075454   -6.344051    0.027297
     30          6           0        3.376046   -5.634195   -2.304008
     31          6           0        2.166683   -4.941353   -1.717060
     32          7           0        5.091159   -0.560214   -1.949921
     33          6           0        5.010873   -1.470614   -3.013594
     34          6           0        5.124552   -0.690371   -4.259534
     35          6           0        5.280719    0.626375   -3.831005
     36          6           0        5.291877    0.662968   -2.407338
     37          6           0        5.136066   -1.223587   -5.578617
     38          6           0        5.465458    2.007945   -4.244517
     39          8           0        5.443191    2.600271   -5.324400
     40          6           0        5.863761    2.865492   -2.963191
     41          6           0        5.007604    4.102543   -2.960108
     42          8           0        3.774554    4.026724   -2.783460
     43          8           0        5.795371    5.188304   -2.927119
     44          6           0        5.008000    6.449659   -2.892655
     45          1           0        7.099944    1.037760    3.620849
     46          1           0        4.929360   -4.674809    2.360240
     47          1           0        4.749105   -3.319748   -3.769239
     48          1           0        7.200296    3.981920   -0.346349
     49          1           0        7.084269    3.316082    2.390556
     50          1           0        8.988848    2.598635    0.194257
     51          1           0        8.858519    1.392525    1.511292
     52          1           0        9.347477    3.012352    1.920759
     53          1           0        4.897644    3.886899    1.613262
     54          1           0        4.524204    4.277474   -0.113141
     55          1           0        6.647065    5.959525    0.753555
     56          1           0        5.672885    5.741192    2.157534
     57          1           0        6.462058    0.392069    5.523228
     58          1           0        6.595938   -1.188455    6.194073
     59          1           0        5.006294   -0.383974    6.250264
     60          1           0        5.382143   -2.969094    6.804658
     61          1           0        3.957334   -4.148262    6.893869
     62          1           0        3.753143   -2.419096    6.505000
     63          1           0        4.045253   -5.861140    0.283839
     64          1           0        5.469162   -5.455740   -2.299980
     65          1           0        5.784262   -7.289657    0.485271
     66          1           0        6.862774   -5.857214    0.602107
     67          1           0        6.598618   -6.582093   -0.898475
     68          1           0        3.282451   -6.694487   -2.071697
     69          1           0        3.339553   -5.527755   -3.388254
     70          1           0        1.996755   -5.490560   -0.791680
     71          1           0        1.312281   -5.033707   -2.388387
     72          1           0        2.391223   -3.909318   -1.446930
     73          1           0        4.495724   -0.574374   -6.175656
     74          1           0        4.779430   -2.253256   -5.592618
     75          1           0        6.196320   -1.145612   -5.818692
     76          1           0        6.923086    3.101022   -3.060544
     77          1           0        5.339008    7.057769   -3.734599
     78          1           0        5.129008    6.863220   -1.891291
     79          1           0        3.943163    6.359292   -3.110126
     80         12           0       -5.289746    0.723840    0.852407
     81          6           0       -5.634820   -1.468515   -1.967799
     82          6           0       -4.144733    3.092581   -1.318443
     83          6           0       -4.550591    2.522084    3.359879
     84          6           0       -5.358500   -2.106363    2.884872
     85          7           0       -4.976094    0.696462   -1.336908
     86          6           0       -5.200382   -0.171495   -2.311943
     87          6           0       -5.021649    0.406629   -3.741416
     88          6           0       -4.023670    1.614474   -3.389273
     89          6           0       -4.424565    1.846359   -1.933868
     90          6           0       -2.558232    1.213629   -3.422974
     91          6           0       -6.370307    0.933522   -4.346019
     92          6           0       -6.331012    1.226257   -5.847525
     93          1           0       -7.527550    0.958008   -6.640497
     94          7           0       -4.938103    2.673113    0.975909
     95          6           0       -4.498461    3.484643   -0.008682
     96          6           0       -4.381248    4.821473    0.594075
     97          6           0       -4.629758    4.700150    2.056340
     98          6           0       -4.696740    3.259057    2.193661
     99          6           0       -4.139755    6.061398   -0.216908
    100          6           0       -4.769595    5.712985    3.152157
    101          8           0       -4.745347    5.375242    4.388349
    102          6           0       -4.841941    7.121663    2.737540
    103          7           0       -4.784158    0.265481    2.816241
    104          6           0       -4.561590    1.237911    3.717781
    105          6           0       -4.487430    0.677101    5.117920
    106          6           0       -4.949220   -0.849036    4.994471
    107          6           0       -5.132931   -0.934775    3.463365
    108          6           0       -3.115176    0.740691    5.788187
    109          6           0       -6.120882   -1.305742    5.906238
    110          6           0       -7.400408   -0.619702    5.484867
    111          7           0       -5.647244   -1.387739    0.566950
    112          6           0       -5.602177   -2.400973    1.549501
    113          6           0       -5.799179   -3.689908    0.855064
    114          6           0       -5.923204   -3.336287   -0.496997
    115          6           0       -5.791209   -1.928361   -0.637819
    116          6           0       -5.796123   -4.974345    1.468537
    117          6           0       -6.125149   -3.834912   -1.838370
    118          8           0       -6.384528   -4.934004   -2.326692
    119          6           0       -5.821155   -2.660369   -2.865226
    120          6           0       -6.943752   -2.615642   -3.865373
    121          8           0       -8.095910   -2.311972   -3.509128
    122          8           0       -6.433555   -2.724800   -5.105599
    123          6           0       -7.507465   -2.674584   -6.133225
    124          1           0       -3.561969    3.826920   -1.875224
    125          1           0       -4.404420    3.106089    4.271495
    126          1           0       -5.490484   -3.025482    3.459749
    127          1           0       -4.554216   -0.267656   -4.448959
    128          1           0       -4.241030    2.494197   -3.989435
    129          1           0       -2.434594    0.150035   -3.563047
    130          1           0       -2.147464    1.519991   -2.469840
    131          1           0       -2.025818    1.794731   -4.181381
    132          1           0       -6.564124    1.943584   -3.962680
    133          1           0       -7.174418    0.257024   -4.130670
    134          1           0       -5.445847    0.793026   -6.328913
    135          1           0       -6.212376    2.303375   -5.988087
    136          1           0       -3.833715    5.818358   -1.241931
    137          1           0       -3.266598    6.561545    0.215892
    138          1           0       -4.987412    6.749684   -0.196646
    139          1           0       -3.946828    7.379392    2.176450
    140          1           0       -5.029861    7.686378    3.652778
    141          1           0       -5.688405    7.241593    2.052185
    142          1           0       -5.168552    1.197920    5.779691
    143          1           0       -4.135872   -1.543008    5.252742
    144          1           0       -3.124788    1.284538    6.751626
    145          1           0       -2.419580    1.200582    5.098848
    146          1           0       -2.648601   -0.224503    5.977662
    147          1           0       -5.934530   -1.006744    6.940659
    148          1           0       -6.276409   -2.379431    5.904391
    149          1           0       -7.338005    0.349691    5.988315
    150          1           0       -8.267019   -1.184646    5.822282
    151          1           0       -7.408373   -0.430481    4.405152
    152          1           0       -6.619842   -5.527393    1.037105
    153          1           0       -5.890052   -4.898719    2.549840
    154          1           0       -4.808340   -5.332461    1.166361
    155          1           0       -4.861613   -2.877186   -3.336236
    156          1           0       -7.411223   -3.579978   -6.740421
    157          1           0       -7.380622   -1.705152   -6.650770
    158          1           0       -8.532533   -2.757183   -5.791372
 ---------------------------------------------------------------------
 Rotational constants (GHZ):           0.0205025           0.0107956           0.0107204
 Leave Link  202 at Sat Sep  4 06:12:42 2021, MaxMem= 23488102400 cpu:               0.2 elap:               0.0
 (Enter /sw/apps/gaussian-16.0/g16/l301.exe)
 Standard basis: def2SVP (5D, 7F)
 Ernie: Thresh=  0.10000D-02 Tol=  0.10000D-05 Strict=F.
 There are  1658 symmetry adapted cartesian basis functions of A   symmetry.
 There are  1572 symmetry adapted basis functions of A   symmetry.
  1572 basis functions,  2678 primitive gaussians,  1658 cartesian basis functions
   312 alpha electrons      312 beta electrons
       nuclear repulsion energy     14936.3000006101 Hartrees.
 IExCor=20419 DFT=T Ex+Corr=CAM-B3LYP ExCW=0 ScaHFX=  1.000000
 ScaDFX=  1.000000  1.000000  1.000000  0.810000 ScalE2=  1.000000  1.000000
 IRadAn=      5 IRanWt=     -1 IRanGd=            0 ICorTp=0 IEmpDi=  4
 HFx  wShort=  0.000000 wLong=  0.330000 cFull=  0.190000 cShort=  0.000000 cLong=  0.460000
 DFx  wShort=  0.000000 wLong=  0.330000 cFull=  0.190000 cShort=  0.000000 cLong=  0.460000
 NAtoms=  158 NActive=  158 NUniq=  158 SFac= 1.00D+00 NAtFMM=   60 NAOKFM=T Big=T
 Integral buffers will be    131072 words long.
 Raffenetti 1 integral format.
 Two-electron integral symmetry is turned on.
 Leave Link  301 at Sat Sep  4 06:12:42 2021, MaxMem= 23488102400 cpu:               1.3 elap:               0.1
 (Enter /sw/apps/gaussian-16.0/g16/l302.exe)
 NPDir=0 NMtPBC=     1 NCelOv=     1 NCel=       1 NClECP=     1 NCelD=      1
         NCelK=      1 NCelE2=     1 NClLst=     1 CellRange=     0.0.
 One-electron integrals computed using PRISM.
 One-electron integral symmetry used in STVInt
   1 Symmetry operations used in ECPInt.
 ECPInt:  NShTT=  271216 NPrTT=  987664 LenC2=  137309 LenP2D=  286832.
 LDataN:  DoStor=T MaxTD1= 4 Len=   56
 NBasis=  1572 RedAO= T EigKep=  3.36D-04  NBF=  1572
 NBsUse=  1572 1.00D-06 EigRej= -1.00D+00 NBFU=  1572
 Precomputing XC quadrature grid using
 IXCGrd= 4 IRadAn=           5 IRanWt=          -1 IRanGd=           0 AccXCQ= 0.00D+00.
 Generated NRdTot=       0 NPtTot=           0 NUsed=           0 NTot=          32
 NSgBfM=  1170  1158  1159  1164  1170 MxSgAt=   158 MxSgA2=   157.
 Leave Link  302 at Sat Sep  4 06:12:48 2021, MaxMem= 23488102400 cpu:             131.6 elap:               5.5
 (Enter /sw/apps/gaussian-16.0/g16/l303.exe)
 DipDrv:  MaxL=1.
 Leave Link  303 at Sat Sep  4 06:12:48 2021, MaxMem= 23488102400 cpu:               9.1 elap:               0.4
 (Enter /sw/apps/gaussian-16.0/g16/l308.exe)
 Leave Link  308 at Sat Sep  4 06:12:49 2021, MaxMem= 23488102400 cpu:              13.5 elap:               0.6
 (Enter /sw/apps/gaussian-16.0/g16/l401.exe)
 ExpMin= 3.36D-02 ExpMax= 4.95D+03 ExpMxC= 7.45D+02 IAcc=3 IRadAn=         5 AccDes= 0.00D+00
 Harris functional with IExCor=20419 and IRadAn=       5 diagonalized for initial guess.
 HarFok:  IExCor=20419 AccDes= 0.00D+00 IRadAn=         5 IDoV= 1 UseB2=F ITyADJ=14
 ICtDFT=  3500011 ScaDFX=  1.000000  1.000000  1.000000  1.000000
 FoFCou: FMM=F IPFlag=           0 FMFlag=      100000 FMFlg1=        2001
         NFxFlg=           0 DoJE=T BraDBF=F KetDBF=T FulRan=T
         wScrn=  0.000000 ICntrl=       500 IOpCl=  0 I1Cent=   200000004 NGrid=           0
         NMat0=    1 NMatS0=      1 NMatT0=    0 NMatD0=    1 NMtDS0=    0 NMtDT0=    0
 Petite list used in FoFCou.
 Harris En= -3918.65801081319    
 JPrj=0 DoOrth=F DoCkMO=F.
 Leave Link  401 at Sat Sep  4 06:12:56 2021, MaxMem= 23488102400 cpu:             175.4 elap:               7.3
 (Enter /sw/apps/gaussian-16.0/g16/l502.exe)
 Integral symmetry usage will be decided dynamically.
 Closed shell SCF:
 Using DIIS extrapolation, IDIIS=  1040.
 NGot= 23488102400 LenX= 23482547354 LenY= 23479796732
 Requested convergence on RMS density matrix=1.00D-08 within 128 cycles.
 Requested convergence on MAX density matrix=1.00D-06.
 Requested convergence on             energy=1.00D-06.
 No special actions if energy rises.
 Fock matrices will be formed incrementally for  20 cycles.

 Cycle   1  Pass 1  IDiag  1:
 FoFJK:  IHMeth= 1 ICntrl=       0 DoSepK=T KAlg= 0 I1Cent=           0 FoldK=F
 IRaf=         1 NMat=       1 IRICut=       1 DoRegI=T DoRafI=F ISym2E= 0 IDoP0=0 IntGTp=1.
 FoFCou: FMM=T IPFlag=           0 FMFlag=      100000 FMFlg1=        2001
         NFxFlg=           0 DoJE=T BraDBF=F KetDBF=F FulRan=T
         wScrn=  0.000000 ICntrl=       500 IOpCl=  0 I1Cent=           0 NGrid=           0
         NMat0=    1 NMatS0=      1 NMatT0=    0 NMatD0=    1 NMtDS0=    0 NMtDT0=    0
 Symmetry not used in FoFCou.
 FMM levels:  10  Number of levels for PrismC:   9
 E= -4068.95069599566    
 DIIS: error= 2.04D-02 at cycle   1 NSaved=   1.
 NSaved= 1 IEnMin= 1 EnMin= -4068.95069599566     IErMin= 1 ErrMin= 2.04D-02
 ErrMax= 2.04D-02  0.00D+00 EMaxC= 1.00D-01 BMatC= 1.69D+00 BMatP= 1.69D+00
 IDIUse=3 WtCom= 7.96D-01 WtEn= 2.04D-01
 Coeff-Com:  0.100D+01
 Coeff-En:   0.100D+01
 Coeff:      0.100D+01
 Gap=     0.120 Goal=   None    Shift=    0.000
 GapD=    0.120 DampG=1.000 DampE=0.500 DampFc=0.5000 IDamp=-1.
 Damping current iteration by 5.00D-01
 RMSDP=1.57D-03 MaxDP=1.35D-01              OVMax= 1.98D-01

 Cycle   2  Pass 1  IDiag  1:
 RMSU=  7.69D-04    CP:  9.82D-01
 E= -4069.33962073553     Delta-E=       -0.388924739873 Rises=F Damp=T
 DIIS: error= 1.27D-02 at cycle   2 NSaved=   2.
 NSaved= 2 IEnMin= 2 EnMin= -4069.33962073553     IErMin= 2 ErrMin= 1.27D-02
 ErrMax= 1.27D-02  0.00D+00 EMaxC= 1.00D-01 BMatC= 3.06D-01 BMatP= 1.69D+00
 IDIUse=3 WtCom= 8.73D-01 WtEn= 1.27D-01
 Coeff-Com: -0.214D+00 0.121D+01
 Coeff-En:   0.000D+00 0.100D+01
 Coeff:     -0.187D+00 0.119D+01
 Gap=     0.134 Goal=   None    Shift=    0.000
 RMSDP=7.63D-04 MaxDP=9.45D-02 DE=-3.89D-01 OVMax= 1.86D-01

 Cycle   3  Pass 1  IDiag  1:
 RMSU=  7.30D-04    CP:  9.68D-01  1.24D+00
 E= -4069.63056080014     Delta-E=       -0.290940064613 Rises=F Damp=F
 DIIS: error= 1.55D-02 at cycle   3 NSaved=   3.
 NSaved= 3 IEnMin= 3 EnMin= -4069.63056080014     IErMin= 2 ErrMin= 1.27D-02
 ErrMax= 1.55D-02  0.00D+00 EMaxC= 1.00D-01 BMatC= 2.00D-01 BMatP= 3.06D-01
 IDIUse=3 WtCom= 8.45D-01 WtEn= 1.55D-01
 Coeff-Com: -0.267D+00 0.650D+00 0.617D+00
 Coeff-En:   0.000D+00 0.000D+00 0.100D+01
 Coeff:     -0.226D+00 0.549D+00 0.676D+00
 Gap=     0.121 Goal=   None    Shift=    0.000
 RMSDP=5.03D-04 MaxDP=4.75D-02 DE=-2.91D-01 OVMax= 1.35D-01

 Cycle   4  Pass 1  IDiag  1:
 RMSU=  2.63D-04    CP:  9.65D-01  1.55D+00  5.09D-01
 E= -4069.76730174334     Delta-E=       -0.136740943199 Rises=F Damp=F
 DIIS: error= 7.08D-03 at cycle   4 NSaved=   4.
 NSaved= 4 IEnMin= 4 EnMin= -4069.76730174334     IErMin= 4 ErrMin= 7.08D-03
 ErrMax= 7.08D-03  0.00D+00 EMaxC= 1.00D-01 BMatC= 4.88D-02 BMatP= 2.00D-01
 IDIUse=3 WtCom= 9.29D-01 WtEn= 7.08D-02
 Coeff-Com: -0.108D+00 0.225D+00 0.407D+00 0.476D+00
 Coeff-En:   0.000D+00 0.000D+00 0.215D+00 0.785D+00
 Coeff:     -0.101D+00 0.209D+00 0.394D+00 0.498D+00
 Gap=     0.121 Goal=   None    Shift=    0.000
 RMSDP=1.96D-04 MaxDP=2.01D-02 DE=-1.37D-01 OVMax= 5.65D-02

 Cycle   5  Pass 1  IDiag  1:
 RMSU=  7.42D-05    CP:  9.64D-01  1.49D+00  6.90D-01  5.56D-01
 E= -4069.81121149376     Delta-E=       -0.043909750420 Rises=F Damp=F
 DIIS: error= 7.78D-04 at cycle   5 NSaved=   5.
 NSaved= 5 IEnMin= 5 EnMin= -4069.81121149376     IErMin= 5 ErrMin= 7.78D-04
 ErrMax= 7.78D-04  0.00D+00 EMaxC= 1.00D-01 BMatC= 1.08D-03 BMatP= 4.88D-02
 IDIUse=3 WtCom= 9.92D-01 WtEn= 7.78D-03
 Coeff-Com: -0.352D-01 0.689D-01 0.162D+00 0.246D+00 0.558D+00
 Coeff-En:   0.000D+00 0.000D+00 0.000D+00 0.000D+00 0.100D+01
 Coeff:     -0.349D-01 0.684D-01 0.161D+00 0.244D+00 0.561D+00
 Gap=     0.120 Goal=   None    Shift=    0.000
 RMSDP=3.95D-05 MaxDP=4.16D-03 DE=-4.39D-02 OVMax= 1.39D-02

 Cycle   6  Pass 1  IDiag  1:
 RMSU=  2.98D-05    CP:  9.64D-01  1.50D+00  6.82D-01  6.25D-01  7.68D-01
 E= -4069.81213141283     Delta-E=       -0.000919919072 Rises=F Damp=F
 DIIS: error= 2.24D-04 at cycle   6 NSaved=   6.
 NSaved= 6 IEnMin= 6 EnMin= -4069.81213141283     IErMin= 6 ErrMin= 2.24D-04
 ErrMax= 2.24D-04  0.00D+00 EMaxC= 1.00D-01 BMatC= 1.71D-04 BMatP= 1.08D-03
 IDIUse=3 WtCom= 9.98D-01 WtEn= 2.24D-03
 Coeff-Com:  0.226D-02-0.665D-02 0.106D-01 0.393D-01 0.311D+00 0.643D+00
 Coeff-En:   0.000D+00 0.000D+00 0.000D+00 0.000D+00 0.109D+00 0.891D+00
 Coeff:      0.226D-02-0.664D-02 0.106D-01 0.393D-01 0.311D+00 0.644D+00
 Gap=     0.120 Goal=   None    Shift=    0.000
 RMSDP=1.56D-05 MaxDP=1.22D-03 DE=-9.20D-04 OVMax= 6.41D-03

 Cycle   7  Pass 1  IDiag  1:
 RMSU=  1.05D-05    CP:  9.64D-01  1.50D+00  6.88D-01  6.25D-01  8.68D-01
                    CP:  7.44D-01
 E= -4069.81231367606     Delta-E=       -0.000182263229 Rises=F Damp=F
 DIIS: error= 8.15D-05 at cycle   7 NSaved=   7.
 NSaved= 7 IEnMin= 7 EnMin= -4069.81231367606     IErMin= 7 ErrMin= 8.15D-05
 ErrMax= 8.15D-05  0.00D+00 EMaxC= 1.00D-01 BMatC= 2.00D-05 BMatP= 1.71D-04
 IDIUse=1 WtCom= 1.00D+00 WtEn= 0.00D+00
 Coeff-Com:  0.439D-02-0.961D-02-0.890D-02-0.392D-02 0.103D+00 0.327D+00
 Coeff-Com:  0.588D+00
 Coeff:      0.439D-02-0.961D-02-0.890D-02-0.392D-02 0.103D+00 0.327D+00
 Coeff:      0.588D+00
 Gap=     0.121 Goal=   None    Shift=    0.000
 RMSDP=6.47D-06 MaxDP=1.17D-03 DE=-1.82D-04 OVMax= 3.21D-03

 Cycle   8  Pass 1  IDiag  1:
 RMSU=  4.62D-06    CP:  9.64D-01  1.50D+00  6.88D-01  6.29D-01  8.73D-01
                    CP:  8.73D-01  8.22D-01
 E= -4069.81233841927     Delta-E=       -0.000024743211 Rises=F Damp=F
 DIIS: error= 4.47D-05 at cycle   8 NSaved=   8.
 NSaved= 8 IEnMin= 8 EnMin= -4069.81233841927     IErMin= 8 ErrMin= 4.47D-05
 ErrMax= 4.47D-05  0.00D+00 EMaxC= 1.00D-01 BMatC= 4.71D-06 BMatP= 2.00D-05
 IDIUse=1 WtCom= 1.00D+00 WtEn= 0.00D+00
 Coeff-Com:  0.215D-02-0.425D-02-0.774D-02-0.122D-01-0.125D-01 0.344D-01
 Coeff-Com:  0.347D+00 0.653D+00
 Coeff:      0.215D-02-0.425D-02-0.774D-02-0.122D-01-0.125D-01 0.344D-01
 Coeff:      0.347D+00 0.653D+00
 Gap=     0.121 Goal=   None    Shift=    0.000
 RMSDP=3.23D-06 MaxDP=3.42D-04 DE=-2.47D-05 OVMax= 1.12D-03

 Cycle   9  Pass 1  IDiag  1:
 RMSU=  1.88D-06    CP:  9.64D-01  1.50D+00  6.89D-01  6.31D-01  8.89D-01
                    CP:  8.98D-01  1.02D+00  9.29D-01
 E= -4069.81234590779     Delta-E=       -0.000007488517 Rises=F Damp=F
 DIIS: error= 2.10D-05 at cycle   9 NSaved=   9.
 NSaved= 9 IEnMin= 9 EnMin= -4069.81234590779     IErMin= 9 ErrMin= 2.10D-05
 ErrMax= 2.10D-05  0.00D+00 EMaxC= 1.00D-01 BMatC= 6.73D-07 BMatP= 4.71D-06
 IDIUse=1 WtCom= 1.00D+00 WtEn= 0.00D+00
 Coeff-Com:  0.478D-03-0.801D-03-0.270D-02-0.605D-02-0.220D-01-0.371D-01
 Coeff-Com:  0.107D+00 0.328D+00 0.633D+00
 Coeff:      0.478D-03-0.801D-03-0.270D-02-0.605D-02-0.220D-01-0.371D-01
 Coeff:      0.107D+00 0.328D+00 0.633D+00
 Gap=     0.121 Goal=   None    Shift=    0.000
 RMSDP=1.38D-06 MaxDP=1.54D-04 DE=-7.49D-06 OVMax= 7.60D-04

 Cycle  10  Pass 1  IDiag  1:
 RMSU=  9.23D-07    CP:  9.64D-01  1.50D+00  6.89D-01  6.31D-01  8.93D-01
                    CP:  9.12D-01  1.06D+00  1.09D+00  1.04D+00
 E= -4069.81234742370     Delta-E=       -0.000001515909 Rises=F Damp=F
 DIIS: error= 1.04D-05 at cycle  10 NSaved=  10.
 NSaved=10 IEnMin=10 EnMin= -4069.81234742370     IErMin=10 ErrMin= 1.04D-05
 ErrMax= 1.04D-05  0.00D+00 EMaxC= 1.00D-01 BMatC= 1.64D-07 BMatP= 6.73D-07
 IDIUse=1 WtCom= 1.00D+00 WtEn= 0.00D+00
 Coeff-Com: -0.419D-03 0.877D-03 0.120D-02 0.110D-02-0.398D-02-0.304D-01
 Coeff-Com: -0.463D-01-0.739D-01 0.255D+00 0.897D+00
 Coeff:     -0.419D-03 0.877D-03 0.120D-02 0.110D-02-0.398D-02-0.304D-01
 Coeff:     -0.463D-01-0.739D-01 0.255D+00 0.897D+00
 Gap=     0.121 Goal=   None    Shift=    0.000
 RMSDP=1.19D-06 MaxDP=1.18D-04 DE=-1.52D-06 OVMax= 5.99D-04

 Cycle  11  Pass 1  IDiag  1:
 RMSU=  4.99D-07    CP:  9.64D-01  1.50D+00  6.89D-01  6.32D-01  8.95D-01
                    CP:  9.22D-01  1.11D+00  1.20D+00  1.37D+00  1.36D+00
 E= -4069.81234816497     Delta-E=       -0.000000741271 Rises=F Damp=F
 DIIS: error= 3.92D-06 at cycle  11 NSaved=  11.
 NSaved=11 IEnMin=11 EnMin= -4069.81234816497     IErMin=11 ErrMin= 3.92D-06
 ErrMax= 3.92D-06  0.00D+00 EMaxC= 1.00D-01 BMatC= 5.64D-08 BMatP= 1.64D-07
 IDIUse=1 WtCom= 1.00D+00 WtEn= 0.00D+00
 Coeff-Com: -0.322D-03 0.626D-03 0.130D-02 0.210D-02 0.441D-02-0.826D-02
 Coeff-Com: -0.434D-01-0.130D+00-0.207D-01 0.455D+00 0.740D+00
 Coeff:     -0.322D-03 0.626D-03 0.130D-02 0.210D-02 0.441D-02-0.826D-02
 Coeff:     -0.434D-01-0.130D+00-0.207D-01 0.455D+00 0.740D+00
 Gap=     0.121 Goal=   None    Shift=    0.000
 RMSDP=6.60D-07 MaxDP=5.83D-05 DE=-7.41D-07 OVMax= 3.57D-04

 Cycle  12  Pass 1  IDiag  1:
 RMSU=  2.54D-07    CP:  9.64D-01  1.50D+00  6.89D-01  6.32D-01  8.96D-01
                    CP:  9.24D-01  1.14D+00  1.26D+00  1.54D+00  1.74D+00
                    CP:  1.21D+00
 E= -4069.81234840928     Delta-E=       -0.000000244308 Rises=F Damp=F
 DIIS: error= 2.42D-06 at cycle  12 NSaved=  12.
 NSaved=12 IEnMin=12 EnMin= -4069.81234840928     IErMin=12 ErrMin= 2.42D-06
 ErrMax= 2.42D-06  0.00D+00 EMaxC= 1.00D-01 BMatC= 1.37D-08 BMatP= 5.64D-08
 IDIUse=1 WtCom= 1.00D+00 WtEn= 0.00D+00
 Coeff-Com:  0.218D-05-0.202D-04 0.162D-03 0.482D-03 0.322D-02 0.391D-02
 Coeff-Com:  0.330D-02-0.333D-01-0.646D-01-0.831D-01 0.244D+00 0.926D+00
 Coeff:      0.218D-05-0.202D-04 0.162D-03 0.482D-03 0.322D-02 0.391D-02
 Coeff:      0.330D-02-0.333D-01-0.646D-01-0.831D-01 0.244D+00 0.926D+00
 Gap=     0.121 Goal=   None    Shift=    0.000
 RMSDP=4.22D-07 MaxDP=2.93D-05 DE=-2.44D-07 OVMax= 2.44D-04

 Cycle  13  Pass 1  IDiag  1:
 RMSU=  1.60D-07    CP:  9.64D-01  1.50D+00  6.89D-01  6.32D-01  8.96D-01
                    CP:  9.24D-01  1.14D+00  1.29D+00  1.64D+00  1.97D+00
                    CP:  1.62D+00  1.29D+00
 E= -4069.81234849449     Delta-E=       -0.000000085209 Rises=F Damp=F
 DIIS: error= 1.31D-06 at cycle  13 NSaved=  13.
 NSaved=13 IEnMin=13 EnMin= -4069.81234849449     IErMin=13 ErrMin= 1.31D-06
 ErrMax= 1.31D-06  0.00D+00 EMaxC= 1.00D-01 BMatC= 7.56D-09 BMatP= 1.37D-08
 IDIUse=1 WtCom= 1.00D+00 WtEn= 0.00D+00
 Coeff-Com:  0.118D-03-0.242D-03-0.367D-03-0.459D-03 0.528D-03 0.491D-02
 Coeff-Com:  0.198D-01 0.223D-01-0.325D-01-0.240D+00-0.157D+00 0.602D+00
 Coeff-Com:  0.781D+00
 Coeff:      0.118D-03-0.242D-03-0.367D-03-0.459D-03 0.528D-03 0.491D-02
 Coeff:      0.198D-01 0.223D-01-0.325D-01-0.240D+00-0.157D+00 0.602D+00
 Coeff:      0.781D+00
 Gap=     0.121 Goal=   None    Shift=    0.000
 RMSDP=3.23D-07 MaxDP=2.10D-05 DE=-8.52D-08 OVMax= 1.85D-04

 Cycle  14  Pass 1  IDiag  1:
 RMSU=  7.35D-08    CP:  9.64D-01  1.50D+00  6.89D-01  6.32D-01  8.96D-01
                    CP:  9.25D-01  1.15D+00  1.31D+00  1.71D+00  2.15D+00
                    CP:  1.88D+00  1.80D+00  1.08D+00
 E= -4069.81234852722     Delta-E=       -0.000000032727 Rises=F Damp=F
 DIIS: error= 6.97D-07 at cycle  14 NSaved=  14.
 NSaved=14 IEnMin=14 EnMin= -4069.81234852722     IErMin=14 ErrMin= 6.97D-07
 ErrMax= 6.97D-07  0.00D+00 EMaxC= 1.00D-01 BMatC= 1.18D-09 BMatP= 7.56D-09
 IDIUse=1 WtCom= 1.00D+00 WtEn= 0.00D+00
 Coeff-Com:  0.655D-04-0.129D-03-0.242D-03-0.383D-03-0.496D-03 0.126D-02
 Coeff-Com:  0.108D-01 0.187D-01 0.373D-02-0.981D-01-0.142D+00 0.955D-01
 Coeff-Com:  0.403D+00 0.708D+00
 Coeff:      0.655D-04-0.129D-03-0.242D-03-0.383D-03-0.496D-03 0.126D-02
 Coeff:      0.108D-01 0.187D-01 0.373D-02-0.981D-01-0.142D+00 0.955D-01
 Coeff:      0.403D+00 0.708D+00
 Gap=     0.121 Goal=   None    Shift=    0.000
 RMSDP=9.72D-08 MaxDP=6.99D-06 DE=-3.27D-08 OVMax= 5.33D-05

 Cycle  15  Pass 1  IDiag  1:
 RMSU=  3.74D-08    CP:  9.64D-01  1.50D+00  6.89D-01  6.32D-01  8.96D-01
                    CP:  9.25D-01  1.15D+00  1.32D+00  1.73D+00  2.19D+00
                    CP:  1.99D+00  1.94D+00  1.32D+00  1.02D+00
 E= -4069.81234853117     Delta-E=       -0.000000003958 Rises=F Damp=F
 DIIS: error= 3.01D-07 at cycle  15 NSaved=  15.
 NSaved=15 IEnMin=15 EnMin= -4069.81234853117     IErMin=15 ErrMin= 3.01D-07
 ErrMax= 3.01D-07  0.00D+00 EMaxC= 1.00D-01 BMatC= 2.22D-10 BMatP= 1.18D-09
 IDIUse=1 WtCom= 1.00D+00 WtEn= 0.00D+00
 Coeff-Com:  0.507D-05-0.839D-05-0.309D-04-0.786D-04-0.298D-03-0.504D-03
 Coeff-Com:  0.114D-02 0.236D-02 0.858D-02 0.218D-02-0.307D-01-0.733D-01
 Coeff-Com:  0.256D-01 0.300D+00 0.765D+00
 Coeff:      0.507D-05-0.839D-05-0.309D-04-0.786D-04-0.298D-03-0.504D-03
 Coeff:      0.114D-02 0.236D-02 0.858D-02 0.218D-02-0.307D-01-0.733D-01
 Coeff:      0.256D-01 0.300D+00 0.765D+00
 Gap=     0.121 Goal=   None    Shift=    0.000
 RMSDP=4.05D-08 MaxDP=2.56D-06 DE=-3.96D-09 OVMax= 2.71D-05

 Cycle  16  Pass 1  IDiag  1:
 RMSU=  1.80D-08    CP:  9.64D-01  1.50D+00  6.89D-01  6.32D-01  8.96D-01
                    CP:  9.25D-01  1.15D+00  1.32D+00  1.73D+00  2.20D+00
                    CP:  2.01D+00  2.00D+00  1.40D+00  1.24D+00  1.15D+00
 E= -4069.81234853184     Delta-E=       -0.000000000666 Rises=F Damp=F
 DIIS: error= 1.75D-07 at cycle  16 NSaved=  16.
 NSaved=16 IEnMin=16 EnMin= -4069.81234853184     IErMin=16 ErrMin= 1.75D-07
 ErrMax= 1.75D-07  0.00D+00 EMaxC= 1.00D-01 BMatC= 7.74D-11 BMatP= 2.22D-10
 IDIUse=1 WtCom= 1.00D+00 WtEn= 0.00D+00
 Coeff-Com: -0.140D-04 0.284D-04 0.465D-04 0.540D-04-0.222D-04-0.621D-03
 Coeff-Com: -0.196D-02-0.423D-02 0.449D-02 0.253D-01 0.204D-01-0.644D-01
 Coeff-Com: -0.849D-01-0.327D-01 0.396D+00 0.742D+00
 Coeff:     -0.140D-04 0.284D-04 0.465D-04 0.540D-04-0.222D-04-0.621D-03
 Coeff:     -0.196D-02-0.423D-02 0.449D-02 0.253D-01 0.204D-01-0.644D-01
 Coeff:     -0.849D-01-0.327D-01 0.396D+00 0.742D+00
 Gap=     0.121 Goal=   None    Shift=    0.000
 RMSDP=2.21D-08 MaxDP=1.49D-06 DE=-6.66D-10 OVMax= 1.21D-05

 Cycle  17  Pass 1  IDiag  1:
 RMSU=  1.02D-08    CP:  9.64D-01  1.50D+00  6.89D-01  6.32D-01  8.96D-01
                    CP:  9.25D-01  1.15D+00  1.32D+00  1.74D+00  2.21D+00
                    CP:  2.03D+00  2.03D+00  1.45D+00  1.34D+00  1.44D+00
                    CP:  1.25D+00
 E= -4069.81234853231     Delta-E=       -0.000000000469 Rises=F Damp=F
 DIIS: error= 1.03D-07 at cycle  17 NSaved=  17.
 NSaved=17 IEnMin=17 EnMin= -4069.81234853231     IErMin=17 ErrMin= 1.03D-07
 ErrMax= 1.03D-07  0.00D+00 EMaxC= 1.00D-01 BMatC= 1.76D-11 BMatP= 7.74D-11
 IDIUse=1 WtCom= 1.00D+00 WtEn= 0.00D+00
 Coeff-Com: -0.710D-05 0.138D-04 0.281D-04 0.421D-04 0.854D-04-0.123D-03
 Coeff-Com: -0.959D-03-0.278D-02 0.204D-03 0.906D-02 0.173D-01-0.706D-02
 Coeff-Com: -0.377D-01-0.100D+00-0.336D-01 0.300D+00 0.855D+00
 Coeff:     -0.710D-05 0.138D-04 0.281D-04 0.421D-04 0.854D-04-0.123D-03
 Coeff:     -0.959D-03-0.278D-02 0.204D-03 0.906D-02 0.173D-01-0.706D-02
 Coeff:     -0.377D-01-0.100D+00-0.336D-01 0.300D+00 0.855D+00
 Gap=     0.121 Goal=   None    Shift=    0.000
 RMSDP=1.35D-08 MaxDP=9.67D-07 DE=-4.69D-10 OVMax= 8.73D-06

 Cycle  18  Pass 1  IDiag  1:
 RMSU=  4.70D-09    CP:  9.64D-01  1.50D+00  6.89D-01  6.32D-01  8.96D-01
                    CP:  9.25D-01  1.15D+00  1.32D+00  1.74D+00  2.21D+00
                    CP:  2.03D+00  2.03D+00  1.47D+00  1.41D+00  1.61D+00
                    CP:  1.67D+00  1.39D+00
 E= -4069.81234853228     Delta-E=        0.000000000025 Rises=F Damp=F
 DIIS: error= 5.46D-08 at cycle  18 NSaved=  18.
 NSaved=18 IEnMin=17 EnMin= -4069.81234853231     IErMin=18 ErrMin= 5.46D-08
 ErrMax= 5.46D-08  0.00D+00 EMaxC= 1.00D-01 BMatC= 6.60D-12 BMatP= 1.76D-11
 IDIUse=1 WtCom= 1.00D+00 WtEn= 0.00D+00
 Coeff-Com:  0.213D-05-0.455D-05-0.494D-05-0.248D-05 0.580D-04 0.180D-03
 Coeff-Com:  0.421D-03 0.236D-03-0.123D-02-0.635D-02-0.264D-03 0.209D-01
 Coeff-Com:  0.192D-01-0.325D-01-0.165D+00-0.191D+00 0.337D+00 0.102D+01
 Coeff:      0.213D-05-0.455D-05-0.494D-05-0.248D-05 0.580D-04 0.180D-03
 Coeff:      0.421D-03 0.236D-03-0.123D-02-0.635D-02-0.264D-03 0.209D-01
 Coeff:      0.192D-01-0.325D-01-0.165D+00-0.191D+00 0.337D+00 0.102D+01
 Gap=     0.121 Goal=   None    Shift=    0.000
 RMSDP=1.16D-08 MaxDP=7.18D-07 DE= 2.55D-11 OVMax= 6.59D-06

 Cycle  19  Pass 1  IDiag  1:
 RMSU=  2.72D-09    CP:  9.64D-01  1.50D+00  6.89D-01  6.32D-01  8.96D-01
                    CP:  9.25D-01  1.15D+00  1.32D+00  1.74D+00  2.21D+00
                    CP:  2.03D+00  2.04D+00  1.48D+00  1.46D+00  1.76D+00
                    CP:  2.01D+00  1.94D+00  1.40D+00
 E= -4069.81234853230     Delta-E=       -0.000000000018 Rises=F Damp=F
 DIIS: error= 3.38D-08 at cycle  19 NSaved=  19.
 NSaved=19 IEnMin=17 EnMin= -4069.81234853231     IErMin=19 ErrMin= 3.38D-08
 ErrMax= 3.38D-08  0.00D+00 EMaxC= 1.00D-01 BMatC= 1.37D-12 BMatP= 6.60D-12
 IDIUse=1 WtCom= 1.00D+00 WtEn= 0.00D+00
 Coeff-Com:  0.289D-05-0.581D-05-0.993D-05-0.127D-04 0.921D-05 0.115D-03
 Coeff-Com:  0.481D-03 0.789D-03-0.560D-03-0.593D-02-0.489D-02 0.121D-01
 Coeff-Com:  0.203D-01 0.115D-01-0.683D-01-0.176D+00-0.443D-01 0.490D+00
 Coeff-Com:  0.765D+00
 Coeff:      0.289D-05-0.581D-05-0.993D-05-0.127D-04 0.921D-05 0.115D-03
 Coeff:      0.481D-03 0.789D-03-0.560D-03-0.593D-02-0.489D-02 0.121D-01
 Coeff:      0.203D-01 0.115D-01-0.683D-01-0.176D+00-0.443D-01 0.490D+00
 Coeff:      0.765D+00
 Gap=     0.121 Goal=   None    Shift=    0.000
 RMSDP=4.56D-09 MaxDP=3.02D-07 DE=-1.82D-11 OVMax= 2.92D-06

 SCF Done:  E(RCAM-B3LYP) =  -4069.81234853     A.U. after   19 cycles
            NFock= 19  Conv=0.46D-08     -V/T= 2.0102
 KE= 4.028801844099D+03 PE=-3.935362646682D+04 EE= 1.631871227358D+04
 Leave Link  502 at Sat Sep  4 06:22:43 2021, MaxMem= 23488102400 cpu:           13498.4 elap:             586.6
 (Enter /sw/apps/gaussian-16.0/g16/l801.exe)
 DoSCS=F DFT=T ScalE2(SS,OS)=  1.000000  1.000000
 ExpMin= 3.36D-02 ExpMax= 4.95D+03 ExpMxC= 7.45D+02 IAcc=3 IRadAn=         5 AccDes= 0.00D+00
 HarFok:  IExCor=  205 AccDes= 0.00D+00 IRadAn=         5 IDoV=-2 UseB2=F ITyADJ=14
 ICtDFT= 12500011 ScaDFX=  1.000000  1.000000  1.000000  1.000000
 GSVD:  LWork=       -9588 too small for GESVD, short by       45590 words or       45590 for optimal perf.
 Largest valence mixing into a core orbital is  2.03D-04
 Largest core mixing into a valence orbital is  5.23D-05
 Range of M.O.s used for correlation:    95  1572
 NBasis=  1572 NAE=   312 NBE=   312 NFC=    94 NFV=     0
 NROrb=   1478 NOA=   218 NOB=   218 NVA=  1260 NVB=  1260
 Leave Link  801 at Sat Sep  4 06:22:43 2021, MaxMem= 23488102400 cpu:               8.8 elap:               0.4
 (Enter /sw/apps/gaussian-16.0/g16/l914.exe)
 RHF ground state
 Two-electron integrals replicated using symmetry.
 MDV= 23488102400 DFT=T DoStab=F Mixed=T DoRPA=T DoScal=F NonHer=T
 Making orbital integer symmetry assigments:
 Orbital symmetries:
       Occupied  (A) (A) (A) (A) (A) (A) (A) (A) (A) (A) (A) (A)
                 (A) (A) (A) (A) (A) (A) (A) (A) (A) (A) (A) (A)
                 (A) (A) (A) (A) (A) (A) (A) (A) (A) (A) (A) (A)
                 (A) (A) (A) (A) (A) (A) (A) (A) (A) (A) (A) (A)
                 (A) (A) (A) (A) (A) (A) (A) (A) (A) (A) (A) (A)
                 (A) (A) (A) (A) (A) (A) (A) (A) (A) (A) (A) (A)
                 (A) (A) (A) (A) (A) (A) (A) (A) (A) (A) (A) (A)
                 (A) (A) (A) (A) (A) (A) (A) (A) (A) (A) (A) (A)
                 (A) (A) (A) (A) (A) (A) (A) (A) (A) (A) (A) (A)
                 (A) (A) (A) (A) (A) (A) (A) (A) (A) (A) (A) (A)
                 (A) (A) (A) (A) (A) (A) (A) (A) (A) (A) (A) (A)
                 (A) (A) (A) (A) (A) (A) (A) (A) (A) (A) (A) (A)
                 (A) (A) (A) (A) (A) (A) (A) (A) (A) (A) (A) (A)
                 (A) (A) (A) (A) (A) (A) (A) (A) (A) (A) (A) (A)
                 (A) (A) (A) (A) (A) (A) (A) (A) (A) (A) (A) (A)
                 (A) (A) (A) (A) (A) (A) (A) (A) (A) (A) (A) (A)
                 (A) (A) (A) (A) (A) (A) (A) (A) (A) (A) (A) (A)
                 (A) (A) (A) (A) (A) (A) (A) (A) (A) (A) (A) (A)
                 (A) (A) (A) (A) (A) (A) (A) (A) (A) (A) (A) (A)
                 (A) (A) (A) (A) (A) (A) (A) (A) (A) (A) (A) (A)
                 (A) (A) (A) (A) (A) (A) (A) (A) (A) (A) (A) (A)
                 (A) (A) (A) (A) (A) (A) (A) (A) (A) (A) (A) (A)
                 (A) (A) (A) (A) (A) (A) (A) (A) (A) (A) (A) (A)
                 (A) (A) (A) (A) (A) (A) (A) (A) (A) (A) (A) (A)
                 (A) (A) (A) (A) (A) (A) (A) (A) (A) (A) (A) (A)
                 (A) (A) (A) (A) (A) (A) (A) (A) (A) (A) (A) (A)
       Virtual   (A) (A) (A) (A) (A) (A) (A) (A) (A) (A) (A) (A)
                 (A) (A) (A) (A) (A) (A) (A) (A) (A) (A) (A) (A)
                 (A) (A) (A) (A) (A) (A) (A) (A) (A) (A) (A) (A)
                 (A) (A) (A) (A) (A) (A) (A) (A) (A) (A) (A) (A)
                 (A) (A) (A) (A) (A) (A) (A) (A) (A) (A) (A) (A)
                 (A) (A) (A) (A) (A) (A) (A) (A) (A) (A) (A) (A)
                 (A) (A) (A) (A) (A) (A) (A) (A) (A) (A) (A) (A)
                 (A) (A) (A) (A) (A) (A) (A) (A) (A) (A) (A) (A)
                 (A) (A) (A) (A) (A) (A) (A) (A) (A) (A) (A) (A)
                 (A) (A) (A) (A) (A) (A) (A) (A) (A) (A) (A) (A)
                 (A) (A) (A) (A) (A) (A) (A) (A) (A) (A) (A) (A)
                 (A) (A) (A) (A) (A) (A) (A) (A) (A) (A) (A) (A)
                 (A) (A) (A) (A) (A) (A) (A) (A) (A) (A) (A) (A)
                 (A) (A) (A) (A) (A) (A) (A) (A) (A) (A) (A) (A)
                 (A) (A) (A) (A) (A) (A) (A) (A) (A) (A) (A) (A)
                 (A) (A) (A) (A) (A) (A) (A) (A) (A) (A) (A) (A)
                 (A) (A) (A) (A) (A) (A) (A) (A) (A) (A) (A) (A)
                 (A) (A) (A) (A) (A) (A) (A) (A) (A) (A) (A) (A)
                 (A) (A) (A) (A) (A) (A) (A) (A) (A) (A) (A) (A)
                 (A) (A) (A) (A) (A) (A) (A) (A) (A) (A) (A) (A)
                 (A) (A) (A) (A) (A) (A) (A) (A) (A) (A) (A) (A)
                 (A) (A) (A) (A) (A) (A) (A) (A) (A) (A) (A) (A)
                 (A) (A) (A) (A) (A) (A) (A) (A) (A) (A) (A) (A)
                 (A) (A) (A) (A) (A) (A) (A) (A) (A) (A) (A) (A)
                 (A) (A) (A) (A) (A) (A) (A) (A) (A) (A) (A) (A)
                 (A) (A) (A) (A) (A) (A) (A) (A) (A) (A) (A) (A)
                 (A) (A) (A) (A) (A) (A) (A) (A) (A) (A) (A) (A)
                 (A) (A) (A) (A) (A) (A) (A) (A) (A) (A) (A) (A)
                 (A) (A) (A) (A) (A) (A) (A) (A) (A) (A) (A) (A)
                 (A) (A) (A) (A) (A) (A) (A) (A) (A) (A) (A) (A)
                 (A) (A) (A) (A) (A) (A) (A) (A) (A) (A) (A) (A)
                 (A) (A) (A) (A) (A) (A) (A) (A) (A) (A) (A) (A)
                 (A) (A) (A) (A) (A) (A) (A) (A) (A) (A) (A) (A)
                 (A) (A) (A) (A) (A) (A) (A) (A) (A) (A) (A) (A)
                 (A) (A) (A) (A) (A) (A) (A) (A) (A) (A) (A) (A)
                 (A) (A) (A) (A) (A) (A) (A) (A) (A) (A) (A) (A)
                 (A) (A) (A) (A) (A) (A) (A) (A) (A) (A) (A) (A)
                 (A) (A) (A) (A) (A) (A) (A) (A) (A) (A) (A) (A)
                 (A) (A) (A) (A) (A) (A) (A) (A) (A) (A) (A) (A)
                 (A) (A) (A) (A) (A) (A) (A) (A) (A) (A) (A) (A)
                 (A) (A) (A) (A) (A) (A) (A) (A) (A) (A) (A) (A)
                 (A) (A) (A) (A) (A) (A) (A) (A) (A) (A) (A) (A)
                 (A) (A) (A) (A) (A) (A) (A) (A) (A) (A) (A) (A)
                 (A) (A) (A) (A) (A) (A) (A) (A) (A) (A) (A) (A)
                 (A) (A) (A) (A) (A) (A) (A) (A) (A) (A) (A) (A)
                 (A) (A) (A) (A) (A) (A) (A) (A) (A) (A) (A) (A)
                 (A) (A) (A) (A) (A) (A) (A) (A) (A) (A) (A) (A)
                 (A) (A) (A) (A) (A) (A) (A) (A) (A) (A) (A) (A)
                 (A) (A) (A) (A) (A) (A) (A) (A) (A) (A) (A) (A)
                 (A) (A) (A) (A) (A) (A) (A) (A) (A) (A) (A) (A)
                 (A) (A) (A) (A) (A) (A) (A) (A) (A) (A) (A) (A)
                 (A) (A) (A) (A) (A) (A) (A) (A) (A) (A) (A) (A)
                 (A) (A) (A) (A) (A) (A) (A) (A) (A) (A) (A) (A)
                 (A) (A) (A) (A) (A) (A) (A) (A) (A) (A) (A) (A)
                 (A) (A) (A) (A) (A) (A) (A) (A) (A) (A) (A) (A)
                 (A) (A) (A) (A) (A) (A) (A) (A) (A) (A) (A) (A)
                 (A) (A) (A) (A) (A) (A) (A) (A) (A) (A) (A) (A)
                 (A) (A) (A) (A) (A) (A) (A) (A) (A) (A) (A) (A)
                 (A) (A) (A) (A) (A) (A) (A) (A) (A) (A) (A) (A)
                 (A) (A) (A) (A) (A) (A) (A) (A) (A) (A) (A) (A)
                 (A) (A) (A) (A) (A) (A) (A) (A) (A) (A) (A) (A)
                 (A) (A) (A) (A) (A) (A) (A) (A) (A) (A) (A) (A)
                 (A) (A) (A) (A) (A) (A) (A) (A) (A) (A) (A) (A)
                 (A) (A) (A) (A) (A) (A) (A) (A) (A) (A) (A) (A)
                 (A) (A) (A) (A) (A) (A) (A) (A) (A) (A) (A) (A)
                 (A) (A) (A) (A) (A) (A) (A) (A) (A) (A) (A) (A)
                 (A) (A) (A) (A) (A) (A) (A) (A) (A) (A) (A) (A)
                 (A) (A) (A) (A) (A) (A) (A) (A) (A) (A) (A) (A)
                 (A) (A) (A) (A) (A) (A) (A) (A) (A) (A) (A) (A)
                 (A) (A) (A) (A) (A) (A) (A) (A) (A) (A) (A) (A)
                 (A) (A) (A) (A) (A) (A) (A) (A) (A) (A) (A) (A)
                 (A) (A) (A) (A) (A) (A) (A) (A) (A) (A) (A) (A)
                 (A) (A) (A) (A) (A) (A) (A) (A) (A) (A) (A) (A)
                 (A) (A) (A) (A) (A) (A) (A) (A) (A) (A) (A) (A)
                 (A) (A) (A) (A) (A) (A) (A) (A) (A) (A) (A) (A)
                 (A) (A) (A) (A) (A) (A) (A) (A) (A) (A) (A) (A)
                 (A) (A) (A) (A) (A) (A) (A) (A) (A) (A) (A) (A)
                 (A) (A) (A) (A) (A) (A) (A) (A) (A) (A) (A) (A)
                 (A) (A) (A) (A) (A) (A) (A) (A) (A) (A) (A) (A)
                 (A) (A) (A) (A) (A) (A) (A) (A) (A) (A) (A) (A)
                 (A) (A) (A) (A) (A) (A) (A) (A) (A) (A) (A) (A)
                 (A) (A) (A) (A) (A) (A) (A) (A) (A) (A) (A) (A)
                 (A) (A) (A) (A) (A) (A) (A) (A) (A) (A) (A) (A)
                 (A) (A) (A) (A) (A) (A) (A) (A) (A) (A) (A) (A)
                 (A) (A) (A) (A) (A) (A) (A) (A) (A) (A) (A) (A)
                 (A) (A) (A) (A) (A) (A) (A) (A) (A) (A) (A) (A)
                 (A) (A) (A) (A) (A) (A) (A) (A) (A) (A) (A) (A)
                 (A) (A) (A) (A) (A) (A) (A) (A) (A) (A) (A) (A)
                 (A) (A) (A) (A) (A) (A) (A) (A) (A) (A) (A) (A)
                 (A) (A) (A) (A) (A) (A) (A) (A) (A) (A) (A) (A)
                 (A) (A) (A) (A) (A) (A) (A) (A) (A) (A) (A) (A)
                 (A) (A) (A) (A) (A) (A) (A) (A) (A) (A) (A) (A)
                 (A) (A) (A) (A) (A) (A) (A) (A) (A) (A) (A) (A)
                 (A) (A) (A) (A) (A) (A) (A) (A) (A) (A) (A) (A)
                 (A) (A) (A) (A) (A) (A) (A) (A) (A) (A) (A) (A)
                 (A) (A) (A) (A) (A) (A) (A) (A) (A) (A) (A) (A)
                 (A) (A) (A) (A) (A) (A) (A) (A) (A) (A) (A) (A)
                 (A) (A) (A) (A) (A) (A) (A) (A) (A) (A) (A) (A)
                 (A) (A) (A) (A) (A) (A) (A) (A) (A) (A) (A) (A)
                 (A) (A) (A) (A) (A) (A) (A) (A) (A) (A) (A) (A)
                 (A) (A) (A) (A) (A) (A) (A) (A) (A) (A) (A) (A)
                 (A) (A) (A) (A) (A) (A) (A) (A) (A) (A) (A) (A)
                 (A) (A) (A) (A) (A) (A) (A) (A) (A) (A) (A) (A)
                 (A) (A) (A) (A) (A) (A) (A) (A) (A) (A) (A) (A)
                 (A) (A) (A) (A) (A) (A) (A) (A) (A) (A) (A) (A)
    20 initial guesses have been made.
 Convergence on wavefunction:    0.001000000000000
 Davidson Disk Diagonalization:  ConvIn= 1.00D-03 SkipCon=T Conv= 1.00D-03.
 Max sub-space:  2000 roots to seek:    20 dimension of matrix:       549360
 Iteration     1 Dimension    20 NMult     0 NNew     20
 CISAX will form    20 AO SS matrices at one time.
 NMat=    20 NSing=    20 JSym2X= 0.
 FoFJK:  IHMeth= 1 ICntrl=       0 DoSepK=T KAlg= 0 I1Cent=           0 FoldK=F
 IRaf=         1 NMat=      40 IRICut=       1 DoRegI=T DoRafI=F ISym2E= 0 IDoP0=3 IntGTp=3.
 FoFCou: FMM=T IPFlag=           0 FMFlag=      100000 FMFlg1=        2001
         NFxFlg=           0 DoJE=F BraDBF=F KetDBF=F FulRan=T
         wScrn=  0.000000 ICntrl=       500 IOpCl=  0 I1Cent=           0 NGrid=           0
         NMat0=   20 NMatS0=     20 NMatT0=    0 NMatD0=   20 NMtDS0=    0 NMtDT0=    0
 Symmetry not used in FoFCou.
 FMM levels:  10  Number of levels for PrismC:   9
 New state      2 was old state      7
 New state      3 was old state      6
 New state      5 was old state      2
 Excitation Energies [eV] at current iteration:
 Root      1 :     2.476878741162108
 Root      2 :     2.610959803317271
 Root      3 :     2.620227659415943
 Root      4 :     2.629233111966196
 Root      5 :     2.680179747961273
 Root      6 :     2.691136635572952
 Root      7 :     3.263285912237925
 Root      8 :     3.427526630081545
 Root      9 :     3.631515382740756
 Root     10 :     3.673681486166630
 Root     11 :     3.735947420074276
 Root     12 :     3.758859531316395
 Root     13 :     4.299185873649058
 Root     14 :     4.307662535678538
 Root     15 :     4.382713268302335
 Root     16 :     4.560718297784481
 Root     17 :     4.706893009038355
 Root     18 :     4.741902641728313
 Root     19 :     4.858864107615341
 Root     20 :     4.858948410364373
 Iteration     2 Dimension    30 NMult    20 NNew     10
 CISAX will form    10 AO SS matrices at one time.
 NMat=    10 NSing=    10 JSym2X= 0.
 New state      1 was old state      5
 Root      1 not converged, maximum delta is    0.179325579618836
 New state      2 was old state      3
 Root      2 not converged, maximum delta is    0.275688491082417
 New state      3 was old state      2
 Root      3 not converged, maximum delta is    0.309583078605068
 New state      4 was old state      1
 Root      4 not converged, maximum delta is    0.002496669743046
 New state      5 was old state      4
 Root      5 not converged, maximum delta is    0.004475145985704
 Excitation Energies [eV] at current iteration:
 Root      1 :     1.798387722157116   Change is   -0.881792025804157
 Root      2 :     2.185627234167494   Change is   -0.434600425248449
 Root      3 :     2.239083573792809   Change is   -0.371876229524462
 Root      4 :     2.476440120634325   Change is   -0.000438620527783
 Root      5 :     2.628688119661363   Change is   -0.000544992304832
 Iteration     3 Dimension    40 NMult    30 NNew     10
 CISAX will form    10 AO SS matrices at one time.
 NMat=    10 NSing=    10 JSym2X= 0.
 Root      1 not converged, maximum delta is    0.067825118286767
 Root      2 not converged, maximum delta is    0.382265191999490
 Root      3 not converged, maximum delta is    0.052267846489144
 No map to state      4
 New state      5 was old state      4
 Root      5 has converged.
 Excitation Energies [eV] at current iteration:
 Root      1 :     1.691580526653994   Change is   -0.106807195503122
 Root      2 :     1.853399778803720   Change is   -0.332227455363774
 Root      3 :     2.199519340368886   Change is   -0.039564233423923
 Root      4 :     2.249645243961337
 Root      5 :     2.476437443744782   Change is   -0.000002676889543
 Iteration     4 Dimension    48 NMult    40 NNew      8
 CISAX will form     8 AO SS matrices at one time.
 NMat=     8 NSing=     8 JSym2X= 0.
 Root      1 not converged, maximum delta is    0.012698872199686
 Root      2 not converged, maximum delta is    0.121440201324685
 New state      3 was old state      4
 Root      3 not converged, maximum delta is    0.365117544027568
 New state      4 was old state      3
 Root      4 not converged, maximum delta is    0.371878466551672
 Root      5 has converged.
 Excitation Energies [eV] at current iteration:
 Root      1 :     1.674824700269988   Change is   -0.016755826384006
 Root      2 :     1.695945898637258   Change is   -0.157453880166462
 Root      3 :     2.188327022309174   Change is   -0.061318221652164
 Root      4 :     2.194270617738037   Change is   -0.005248722630850
 Root      5 :     2.476437442854901   Change is   -0.000000000889882
 Iteration     5 Dimension    56 NMult    48 NNew      8
 CISAX will form     8 AO SS matrices at one time.
 NMat=     8 NSing=     8 JSym2X= 0.
 Root      1 not converged, maximum delta is    0.009966066255339
 Root      2 not converged, maximum delta is    0.010241255558922
 Root      3 not converged, maximum delta is    0.097789612007084
 Root      4 not converged, maximum delta is    0.097605421760153
 Root      5 has converged.
 Excitation Energies [eV] at current iteration:
 Root      1 :     1.673035769053663   Change is   -0.001788931216325
 Root      2 :     1.681353425716718   Change is   -0.014592472920540
 Root      3 :     2.185707093205153   Change is   -0.002619929104021
 Root      4 :     2.192905148973804   Change is   -0.001365468764232
 Root      5 :     2.476437442249242   Change is   -0.000000000605659
 Iteration     6 Dimension    64 NMult    56 NNew      8
 CISAX will form     8 AO SS matrices at one time.
 NMat=     8 NSing=     8 JSym2X= 0.
 Root      1 not converged, maximum delta is    0.007040753509599
 Root      2 not converged, maximum delta is    0.007117121718628
 Root      3 not converged, maximum delta is    0.017107631725896
 Root      4 not converged, maximum delta is    0.017077563436193
 Root      5 has converged.
 Excitation Energies [eV] at current iteration:
 Root      1 :     1.672779606588888   Change is   -0.000256162464775
 Root      2 :     1.678854026800472   Change is   -0.002499398916246
 Root      3 :     2.185143789793007   Change is   -0.000563303412145
 Root      4 :     2.192695464892161   Change is   -0.000209684081643
 Root      5 :     2.476437442106997   Change is   -0.000000000142244
 Iteration     7 Dimension    72 NMult    64 NNew      8
 CISAX will form     8 AO SS matrices at one time.
 NMat=     8 NSing=     8 JSym2X= 0.
 Root      1 not converged, maximum delta is    0.001391679890379
 Root      2 not converged, maximum delta is    0.001377185512824
 Root      3 not converged, maximum delta is    0.001417017735180
 Root      4 not converged, maximum delta is    0.001494061648126
 Root      5 has converged.
[...]
 Alpha virt. eigenvalues --    1.84407   1.84622   1.84751   1.84951   1.85055
 Alpha virt. eigenvalues --    1.85217   1.85230   1.85437   1.85443   1.85618
 Alpha virt. eigenvalues --    1.85811   1.86038   1.86318   1.86499   1.86504
 Alpha virt. eigenvalues --    1.86730   1.86769   1.86909   1.86969   1.87141
 Alpha virt. eigenvalues --    1.87390   1.87601   1.87622   1.87818   1.87884
 Alpha virt. eigenvalues --    1.87989   1.88113   1.88311   1.88483   1.88731
 Alpha virt. eigenvalues --    1.88759   1.89086   1.89095   1.89237   1.89576
 Alpha virt. eigenvalues --    1.89691   1.89790   1.89982   1.90057   1.90329
 Alpha virt. eigenvalues --    1.90681   1.91028   1.91281   1.91395   1.91497
 Alpha virt. eigenvalues --    1.91806   1.92092   1.92350   1.92553   1.92811
 Alpha virt. eigenvalues --    1.92928   1.93279   1.93300   1.93594   1.94245
 Alpha virt. eigenvalues --    1.94400   1.94644   1.94910   1.95452   1.95653
 Alpha virt. eigenvalues --    1.95660   1.95916   1.95958   1.96120   1.96177
 Alpha virt. eigenvalues --    1.96310   1.96539   1.96602   1.96848   1.97086
 Alpha virt. eigenvalues --    1.97397   1.97641   1.97790   1.97927   1.98100
 Alpha virt. eigenvalues --    1.98322   1.98482   1.98556   1.99064   1.99203
 Alpha virt. eigenvalues --    1.99743   2.00110   2.00609   2.00848   2.00915
 Alpha virt. eigenvalues --    2.01225   2.01386   2.01589   2.01624   2.01636
 Alpha virt. eigenvalues --    2.01746   2.01976   2.02723   2.02833   2.03196
 Alpha virt. eigenvalues --    2.03225   2.03320   2.03394   2.03515   2.03650
 Alpha virt. eigenvalues --    2.03968   2.04148   2.04906   2.05089   2.05460
 Alpha virt. eigenvalues --    2.05734   2.06014   2.06392   2.06793   2.07113
 Alpha virt. eigenvalues --    2.07163   2.07465   2.08541   2.08623   2.08914
 Alpha virt. eigenvalues --    2.09148   2.09510   2.09744   2.10758   2.11106
 Alpha virt. eigenvalues --    2.11114   2.11462   2.11528   2.11666   2.11684
 Alpha virt. eigenvalues --    2.12028   2.12396   2.12617   2.12749   2.12777
 Alpha virt. eigenvalues --    2.12929   2.13016   2.13686   2.13847   2.14104
 Alpha virt. eigenvalues --    2.14319   2.15274   2.15515   2.15850   2.16233
 Alpha virt. eigenvalues --    2.16475   2.16674   2.16727   2.17291   2.17356
 Alpha virt. eigenvalues --    2.17650   2.17718   2.18020   2.18071   2.18132
 Alpha virt. eigenvalues --    2.18228   2.18780   2.18805   2.19395   2.19566
 Alpha virt. eigenvalues --    2.19968   2.19981   2.20130   2.20363   2.20595
 Alpha virt. eigenvalues --    2.21130   2.21236   2.21601   2.21649   2.21888
 Alpha virt. eigenvalues --    2.21982   2.22627   2.22855   2.23260   2.23436
 Alpha virt. eigenvalues --    2.24339   2.24505   2.24943   2.25085   2.26208
 Alpha virt. eigenvalues --    2.26578   2.26724   2.27014   2.27125   2.27335
 Alpha virt. eigenvalues --    2.28073   2.28506   2.29214   2.29586   2.29658
 Alpha virt. eigenvalues --    2.30029   2.30378   2.30773   2.30971   2.30997
 Alpha virt. eigenvalues --    2.31082   2.31313   2.32074   2.32333   2.33055
 Alpha virt. eigenvalues --    2.33389   2.33396   2.33581   2.34099   2.34249
 Alpha virt. eigenvalues --    2.35260   2.35413   2.35726   2.36088   2.36322
 Alpha virt. eigenvalues --    2.36458   2.36522   2.36555   2.37619   2.37764
 Alpha virt. eigenvalues --    2.38210   2.38472   2.38777   2.38969   2.39542
 Alpha virt. eigenvalues --    2.39793   2.40138   2.40341   2.40408   2.40995
 Alpha virt. eigenvalues --    2.41192   2.41373   2.41649   2.41784   2.41934
 Alpha virt. eigenvalues --    2.42248   2.42887   2.42917   2.43163   2.43369
 Alpha virt. eigenvalues --    2.44083   2.44096   2.44662   2.44836   2.44925
 Alpha virt. eigenvalues --    2.45126   2.45481   2.45689   2.46237   2.46400
 Alpha virt. eigenvalues --    2.46405   2.46602   2.46713   2.46922   2.47185
 Alpha virt. eigenvalues --    2.47460   2.47652   2.47979   2.49269   2.49463
 Alpha virt. eigenvalues --    2.49970   2.50040   2.50519   2.50563   2.51034
 Alpha virt. eigenvalues --    2.51400   2.51723   2.51808   2.52354   2.52537
 Alpha virt. eigenvalues --    2.52740   2.53332   2.53864   2.54077   2.54097
 Alpha virt. eigenvalues --    2.54343   2.54723   2.54890   2.55455   2.55759
 Alpha virt. eigenvalues --    2.57803   2.58188   2.58595   2.59023   2.60107
 Alpha virt. eigenvalues --    2.60437   2.60541   2.61090   2.61655   2.61931
 Alpha virt. eigenvalues --    2.62463   2.62551   2.62884   2.63235   2.63869
 Alpha virt. eigenvalues --    2.64223   2.64386   2.64470   2.65021   2.65205
 Alpha virt. eigenvalues --    2.65710   2.66015   2.66737   2.66857   2.66907
 Alpha virt. eigenvalues --    2.67212   2.67854   2.68100   2.68783   2.68914
 Alpha virt. eigenvalues --    2.68934   2.69153   2.69350   2.69721   2.69939
 Alpha virt. eigenvalues --    2.70239   2.70909   2.71202   2.71955   2.71987
 Alpha virt. eigenvalues --    2.72551   2.72584   2.72692   2.72872   2.73246
 Alpha virt. eigenvalues --    2.73351   2.73366   2.73555   2.74432   2.74600
 Alpha virt. eigenvalues --    2.74892   2.75162   2.76537   2.76611   2.77137
 Alpha virt. eigenvalues --    2.77161   2.77388   2.77710   2.78130   2.78370
 Alpha virt. eigenvalues --    2.78636   2.78770   2.79063   2.79271   2.80259
 Alpha virt. eigenvalues --    2.80346   2.80478   2.80793   2.81013   2.81238
 Alpha virt. eigenvalues --    2.81851   2.82092   2.82281   2.82427   2.83641
 Alpha virt. eigenvalues --    2.83704   2.83928   2.83991   2.84476   2.84601
 Alpha virt. eigenvalues --    2.84833   2.84941   2.85609   2.85763   2.86725
 Alpha virt. eigenvalues --    2.86908   2.87262   2.87475   2.88089   2.88311
 Alpha virt. eigenvalues --    2.88440   2.88709   2.88863   2.88947   2.90433
 Alpha virt. eigenvalues --    2.90777   2.91148   2.91153   2.93078   2.93445
 Alpha virt. eigenvalues --    2.93875   2.94136   2.94514   2.94626   2.95290
 Alpha virt. eigenvalues --    2.95639   2.95931   2.96057   2.96390   2.96448
 Alpha virt. eigenvalues --    2.96957   2.97050   2.97712   2.98100   2.98137
 Alpha virt. eigenvalues --    2.98296   2.98492   2.98512   2.98695   2.98819
 Alpha virt. eigenvalues --    2.98893   2.99011   2.99555   2.99857   2.99912
 Alpha virt. eigenvalues --    3.00110   3.00146   3.00377   3.00423   3.01136
 Alpha virt. eigenvalues --    3.01956   3.01957   3.01997   3.02257   3.02594
 Alpha virt. eigenvalues --    3.02895   3.02899   3.03274   3.03452   3.03883
 Alpha virt. eigenvalues --    3.04132   3.04187   3.04363   3.04509   3.04521
 Alpha virt. eigenvalues --    3.04806   3.05266   3.05424   3.06057   3.06226
 Alpha virt. eigenvalues --    3.06729   3.07073   3.08000   3.08106   3.09326
 Alpha virt. eigenvalues --    3.09391   3.09629   3.10376   3.10599   3.10888
 Alpha virt. eigenvalues --    3.11304   3.11497   3.11850   3.11925   3.12176
 Alpha virt. eigenvalues --    3.12451   3.13200   3.13600   3.13742   3.13780
 Alpha virt. eigenvalues --    3.13942   3.14557   3.15913   3.16014   3.17180
 Alpha virt. eigenvalues --    3.17600   3.17923   3.18029   3.19068   3.19100
 Alpha virt. eigenvalues --    3.22141   3.22674   3.23865   3.24523   3.24554
 Alpha virt. eigenvalues --    3.25267   3.26429   3.26746   3.27486   3.27544
 Alpha virt. eigenvalues --    3.28926   3.29294   3.31444   3.31467   3.33278
 Alpha virt. eigenvalues --    3.33350   3.40328   3.40440   3.42756   3.42883
 Alpha virt. eigenvalues --    3.48562   3.48776   3.49956   3.50381   3.50938
 Alpha virt. eigenvalues --    3.51406   3.56483   3.57082   3.59044   3.59413
 Alpha virt. eigenvalues --    3.62593   3.62749   3.66128   3.66153   3.67010
 Alpha virt. eigenvalues --    3.67613   3.73105   3.74089   3.75905   3.76746
          Condensed to atoms (all electrons):
 Mulliken charges:
               1
     1  Mg   0.838767
     2  C   -0.003491
     3  C   -0.093967
     4  C   -0.045685
     5  C   -0.063813
     6  N   -0.256882
     7  C   -0.052490
     8  C   -0.014084
     9  C   -0.087067
    10  C    0.046423
    11  C    0.104731
    12  C    0.053401
    13  C   -0.071606
    14  H    0.035001
    15  N   -0.433219
    16  C    0.168640
    17  C   -0.176924
    18  C   -0.003830
    19  C    0.148844
    20  C    0.110082
    21  C    0.012274
    22  O   -0.249261
    23  C    0.062454
    24  N   -0.341207
    25  C    0.041462
    26  C   -0.028298
    27  C   -0.024065
    28  C    0.074909
    29  C    0.076077
    30  C    0.035015
    31  C   -0.004687
    32  N   -0.310243
    33  C    0.080046
    34  C   -0.170268
    35  C    0.007930
    36  C    0.082538
    37  C    0.127502
    38  C    0.045298
    39  O   -0.189359
    40  C   -0.005055
    41  C    0.212961
    42  O   -0.258847
    43  O   -0.304235
    44  C    0.158190
    45  H   -0.017335
    46  H   -0.016449
    47  H   -0.041251
    48  H    0.000826
    49  H   -0.003762
    50  H    0.025458
    51  H    0.016642
    52  H    0.016920
    53  H    0.011804
    54  H    0.043072
    55  H    0.018059
    56  H    0.018672
    57  H    0.006135
    58  H    0.027088
    59  H    0.039888
    60  H    0.037620
    61  H    0.035706
    62  H    0.031338
    63  H    0.017003
    64  H    0.009614
    65  H    0.023637
    66  H    0.012416
    67  H    0.004993
    68  H    0.007196
    69  H    0.004793
    70  H    0.009218
    71  H    0.019347
    72  H    0.027995
    73  H    0.046502
    74  H    0.009466
    75  H    0.046247
    76  H    0.035425
    77  H    0.043048
    78  H    0.046840
    79  H    0.051863
    80  Mg   0.837931
    81  C   -0.016858
    82  C   -0.086888
    83  C   -0.046021
    84  C   -0.064985
    85  N   -0.254745
    86  C   -0.049354
    87  C   -0.015233
    88  C   -0.090313
    89  C    0.045280
    90  C    0.113727
    91  C    0.062428
    92  C   -0.077719
    93  H    0.033809
    94  N   -0.423624
    95  C    0.162680
    96  C   -0.173626
    97  C   -0.008473
    98  C    0.152610
    99  C    0.099178
   100  C    0.015263
   101  O   -0.254123
   102  C    0.061323
   103  N   -0.350078
   104  C    0.037617
   105  C   -0.019713
   106  C   -0.034832
   107  C    0.088803
   108  C    0.074007
   109  C    0.034884
   110  C   -0.007557
   111  N   -0.324030
   112  C    0.078259
   113  C   -0.163395
   114  C    0.002071
   115  C    0.096120
   116  C    0.131577
   117  C    0.041966
   118  O   -0.188695
   119  C    0.001140
   120  C    0.211269
   121  O   -0.251203
   122  O   -0.305555
   123  C    0.152157
   124  H   -0.016498
   125  H   -0.016545
   126  H   -0.040831
   127  H   -0.000579
   128  H   -0.004015
   129  H    0.021228
   130  H    0.016750
   131  H    0.021213
   132  H    0.013666
   133  H    0.036993
   134  H    0.021463
   135  H    0.019991
   136  H    0.010285
   137  H    0.026347
   138  H    0.039145
   139  H    0.038205
   140  H    0.035567
   141  H    0.033976
   142  H    0.013964
   143  H    0.012320
   144  H    0.023957
   145  H    0.011377
   146  H    0.004959
   147  H    0.005494
   148  H    0.003650
   149  H    0.010573
   150  H    0.017633
   151  H    0.030499
   152  H    0.045525
   153  H    0.008273
   154  H    0.046849
   155  H    0.034894
   156  H    0.043413
   157  H    0.049899
   158  H    0.053284
 Sum of Mulliken charges =  -0.00000
 Mulliken charges with hydrogens summed into heavy atoms:
               1
     1  Mg   0.838767
     2  C   -0.003491
     3  C   -0.111302
     4  C   -0.062134
     5  C   -0.105065
     6  N   -0.256882
     7  C   -0.052490
     8  C   -0.013258
     9  C   -0.090829
    10  C    0.046423
    11  C    0.163750
    12  C    0.108277
    13  C    0.000126
    15  N   -0.433219
    16  C    0.168640
    17  C   -0.176924
    18  C   -0.003830
    19  C    0.148844
    20  C    0.183193
    21  C    0.012274
    22  O   -0.249261
    23  C    0.167119
    24  N   -0.341207
    25  C    0.041462
    26  C   -0.011294
    27  C   -0.014451
    28  C    0.074909
    29  C    0.117124
    30  C    0.047004
    31  C    0.051873
    32  N   -0.310243
    33  C    0.080046
    34  C   -0.170268
    35  C    0.007930
    36  C    0.082538
    37  C    0.229717
    38  C    0.045298
    39  O   -0.189359
    40  C    0.030370
    41  C    0.212961
    42  O   -0.258847
    43  O   -0.304235
    44  C    0.299940
    80  Mg   0.837931
    81  C   -0.016858
    82  C   -0.103386
    83  C   -0.062566
    84  C   -0.105817
    85  N   -0.254745
    86  C   -0.049354
    87  C   -0.015812
    88  C   -0.094327
    89  C    0.045280
    90  C    0.172918
    91  C    0.113086
    92  C   -0.002456
    94  N   -0.423624
    95  C    0.162680
    96  C   -0.173626
    97  C   -0.008473
    98  C    0.152610
    99  C    0.174955
   100  C    0.015263
   101  O   -0.254123
   102  C    0.169071
   103  N   -0.350078
   104  C    0.037617
   105  C   -0.005749
   106  C   -0.022512
   107  C    0.088803
   108  C    0.114300
   109  C    0.044028
   110  C    0.051149
   111  N   -0.324030
   112  C    0.078259
   113  C   -0.163395
   114  C    0.002071
   115  C    0.096120
   116  C    0.232225
   117  C    0.041966
   118  O   -0.188695
   119  C    0.036034
   120  C    0.211269
   121  O   -0.251203
   122  O   -0.305555
   123  C    0.298753
 Electronic spatial extent (au):  <R**2>=         115363.1385
 Charge=             -0.0000 electrons
 Dipole moment (field-independent basis, Debye):
    X=              5.0672    Y=              3.8751    Z=              2.4525  Tot=              6.8343
 Quadrupole moment (field-independent basis, Debye-Ang):
   XX=           -519.5657   YY=           -503.3954   ZZ=           -496.1822
   XY=            -13.7322   XZ=             27.5089   YZ=              0.1877
 Traceless Quadrupole moment (field-independent basis, Debye-Ang):
   XX=            -13.1846   YY=              2.9857   ZZ=             10.1989
   XY=            -13.7322   XZ=             27.5089   YZ=              0.1877
 Octapole moment (field-independent basis, Debye-Ang**2):
  XXX=            494.6896  YYY=            351.3659  ZZZ=             53.0818  XYY=            132.3108
  XXY=            233.8997  XXZ=            166.6030  XZZ=           -143.1762  YZZ=           -173.8237
  YYZ=           -165.7327  XYZ=            311.0606
 Hexadecapole moment (field-independent basis, Debye-Ang**3):
 XXXX=         -92401.5156 YYYY=         -32211.4217 ZZZZ=         -31838.0896 XXXY=           -251.3523
 XXXZ=            948.6403 YYYX=           -168.7956 YYYZ=           -376.6394 ZZZX=           2290.5704
 ZZZY=            229.0645 XXYY=         -20885.6677 XXZZ=         -19526.7049 YYZZ=         -11857.3812
 XXYZ=              4.2027 YYXZ=           -503.7746 ZZXY=            577.1861
 N-N= 1.493630000061D+04 E-N=-3.935362645848D+04  KE= 4.028801844099D+03
 Leave Link  601 at Sat Sep  4 06:49:10 2021, MaxMem= 23488102400 cpu:              17.3 elap:               0.8
 (Enter /sw/apps/gaussian-16.0/g16/l9999.exe)
 1\1\GINC-BP1-COMPUTE00083\SP\RCAM-B3LYP TD-FC\def2SVP\C68H72Mg2N8O8\OF
 15641\04-Sep-2021\0\\#p cam-b3lyp/Def2SVP td=(nstates=5)\\TDDFT excite
 d states in gaussian\\0,1\Mg,0,0.,0.,0.\C,0,-0.217,-2.218,2.801\C,0,-1
 .255,2.442,2.026\C,0,-0.245,1.85,-2.564\C,0,0.146,-2.824,-2.037\N,0,-0
 .617,-0.009,2.126\C,0,-0.594,-0.908,3.105\C,0,-0.936,-0.309,4.502\C,0,
 -1.773,0.964,4.032\C,0,-1.155,1.168,2.66\C,0,-3.263,0.685,3.863\C,0,0.
 345,0.11,5.299\C,0,0.124,0.397,6.787\H,0,1.168,0.033,7.733\N,0,-0.185,
 1.961,-0.152\C,0,-0.703,2.8,0.777\C,0,-0.62,4.156,0.193\C,0,-0.187,4.0
 15,-1.225\C,0,-0.214,2.583,-1.38\C,0,-0.887,5.406,0.974\C,0,0.181,5.01
 3,-2.277\O,0,0.303,4.69,-3.508\C,0,0.31,6.414,-1.837\N,0,-0.265,-0.413
 ,-2.029\C,0,-0.279,0.569,-2.937\C,0,-0.196,0.024,-4.332\C,0,0.124,-1.5
 33,-4.18\C,0,0.086,-1.632,-2.635\C,0,-1.451,0.205,-5.197\C,0,1.373,-2.
 07,-4.923\C,0,2.626,-1.49,-4.306\N,0,0.15,-2.144,0.303\C,0,0.173,-3.13
 6,-0.688\C,0,0.173,-4.438,0.004\C,0,0.133,-4.111,1.358\C,0,0.083,-2.69
 5,1.502\C,0,0.149,-5.715,-0.623\C,0,0.096,-4.629,2.716\O,0,0.208,-5.74
 7,3.221\C,0,-0.255,-3.428,3.701\C,0,0.717,-3.482,4.848\O,0,1.931,-3.25
 5,4.669\O,0,0.038,-3.556,6.003\C,0,0.943,-3.583,7.183\H,0,-1.859,3.22,
 2.497\H,0,-0.218,2.453,-3.474\H,0,0.276,-3.747,-2.605\H,0,-1.554,-0.94
 9,5.132\H,0,-1.585,1.831,4.665\H,0,-3.484,-0.377,3.969\H,0,-3.511,1.02
 7,2.858\H,0,-3.852,1.301,4.543\H,0,0.669,1.096,4.966\H,0,1.13,-0.639,5
 .189\H,0,-0.844,0.026,7.125\H,0,0.062,1.477,6.921\H,0,-1.344,5.186,1.9
 38\H,0,-1.651,5.963,0.432\H,0,0.007,6.02,1.084\H,0,-0.635,6.744,-1.405
 \H,0,0.665,6.97,-2.704\H,0,1.048,6.466,-1.036\H,0,0.608,0.501,-4.891\H
 ,0,-0.692,-2.156,-4.547\H,0,-1.267,0.74,-6.129\H,0,-2.204,0.714,-4.596
 \H,0,-1.967,-0.72,-5.453\H,0,1.356,-1.759,-5.967\H,0,1.452,-3.157,-4.9
 02\H,0,2.714,-0.522,-4.798\H,0,3.487,-2.121,-4.529\H,0,2.495,-1.303,-3
 .24\H,0,0.867,-6.333,-0.084\H,0,0.404,-5.642,-1.68\H,0,-0.891,-5.999,-
 0.463\H,0,-1.283,-3.581,4.028\H,0,0.698,-4.478,7.755\H,0,0.833,-2.619,
 7.68\H,0,2.,-3.754,6.976\Mg,0,10.51837,0.94018,0.80278\C,0,10.73242,-1
 .70099,-1.61744\C,0,9.67456,-1.43562,3.1002\C,0,9.88326,3.28334,2.8457
 4\C,0,10.25073,3.17141,-1.86099\N,0,10.26898,-1.25162,0.6414\C,0,10.43
 672,-2.153,-0.31449\C,0,10.35781,-3.62585,0.1693\C,0,9.47205,-3.39824,
 1.48933\C,0,9.85002,-1.9494,1.79048\C,0,7.97622,-3.45717,1.22791\C,0,1
 1.76877,-4.21649,0.51912\C,0,11.80295,-5.73554,0.70099\H,0,12.99082,-6
 .46256,0.26182\N,0,10.35456,0.9106,2.78037\C,0,10.02554,-0.14517,3.553
 92\C,0,10.02105,0.35549,4.93721\C,0,10.21285,1.83086,4.90271\C,0,10.13
 515,2.07349,3.47611\C,0,9.92566,-0.55063,6.13022\C,0,10.41784,2.85568,
 5.97692\O,0,10.32398,4.11116,5.73653\C,0,10.63926,2.34412,7.33736\N,0,
 9.91223,2.91182,0.54281\C,0,9.75856,3.73252,1.59674\C,0,9.58845,5.1655
 6,1.15193\C,0,9.90301,5.16893,-0.41607\C,0,10.12309,3.65573,-0.63327\C
 ,0,8.20952,5.77846,1.39542\C,0,10.99695,6.15369,-0.91229\C,0,12.34916,
 5.73173,-0.38421\N,0,10.67704,0.82018,-1.34861\C,0,10.5043,1.87049,-2.
 27656\C,0,10.59556,1.27796,-3.62674\C,0,10.79368,-0.09047,-3.38873\C,0
 ,10.80358,-0.33661,-1.98915\C,0,10.44923,1.98138,-4.85553\C,0,10.98606
 ,-1.38429,-4.00331\O,0,11.1517,-1.78268,-5.15552\C,0,10.82857,-2.5032,
 -2.88544\C,0,11.97952,-3.46188,-3.02243\O,0,13.14462,-3.08605,-2.8036\
 O,0,11.49834,-4.70907,-3.17527\C,0,12.60221,-5.69733,-3.30425\H,0,9.18
 289,-2.06472,3.84274\H,0,9.76749,4.14474,3.5076\H,0,10.27544,3.81516,-
 2.74284\H,0,9.84829,-4.30001,-0.50869\H,0,9.79179,-4.05148,2.29704\H,0
 ,7.7539,-3.52512,0.17335\H,0,7.56897,-2.54425,1.64237\H,0,7.52574,-4.2
 744,1.79846\H,0,12.04844,-3.89964,1.5321\H,0,12.49645,-3.92369,-0.2125
 7\H,0,10.89458,-6.21697,0.31885\H,0,11.79394,-5.95722,1.77094\H,0,9.62
 813,-1.56619,5.84123\H,0,9.0928,-0.1873,6.74194\H,0,10.83529,-0.54849,
 6.73457\H,0,9.79061,1.73336,7.63609\H,0,10.85386,3.22284,7.94865\H,0,1
 1.51344,1.68363,7.32479\H,0,10.29698,5.81298,1.65388\H,0,9.01865,5.446
 09,-1.00846\H,0,8.24327,6.70014,2.00652\H,0,7.58285,5.03274,1.8663\H,0
 ,7.64579,6.01928,0.49575\H,0,10.80981,7.15644,-0.52034\H,0,11.04724,6.
 23454,-1.993\H,0,12.3664,6.16176,0.6217\H,0,13.14623,6.14051,-1.00195\
 H,0,12.4077,4.64226,-0.27799\H,0,11.22772,1.62138,-5.51497\H,0,10.5177
 8,3.05721,-4.70839\H,0,9.44074,1.66941,-5.13995\H,0,9.86696,-2.99254,-
 3.04492\H,0,12.43647,-6.24121,-4.23935\H,0,12.5858,-6.28735,-2.36865\H
 ,0,13.60372,-5.31285,-3.45788\\Version=ES64L-G16RevA.03\State=1-A\HF=-
 4069.8123485\RMSD=4.563e-09\PG=C01 [X(C68H72Mg2N8O8)]\\@


 MARY HAD A LITTLE LAMB
      HIS FEET WERE BLACK AS SOOT,
           AND EVERYWHERE THAT MARY WENT
                HIS SOOTY FOOT HE PUT.

                    -- NONAME
 Job cpu time:       0 days 14 hours 19 minutes 37.8 seconds.
 Elapsed time:       0 days  0 hours 36 minutes 27.2 seconds.
 File lengths (MBytes):  RWF=  13225 Int=      0 D2E=      0 Chk=    574 Scr=      1
 Normal termination of Gaussian 16 at Sat Sep  4 06:49:11 2021.
