 Entering Gaussian System, Link 0=g16
 Initial command:
 /sw/apps/gaussian-16.0/g16/l1.exe "/tmp/Gau-74448.inp" -scrdir="/tmp/"
 Entering Link 1 = /sw/apps/gaussian-16.0/g16/l1.exe PID=     74449.
  
 Copyright (c) 1988,1990,1992,1993,1995,1998,2003,2009,2016,
            Gaussian, Inc.  All Rights Reserved.
  
 This is part of the Gaussian(R) 16 program.  It is based on
 the Gaussian(R) 09 system (copyright 2009, Gaussian, Inc.),
 the Gaussian(R) 03 system (copyright 2003, Gaussian, Inc.),
 the Gaussian(R) 98 system (copyright 1998, Gaussian, Inc.),
 the Gaussian(R) 94 system (copyright 1995, Gaussian, Inc.),
 the Gaussian 92(TM) system (copyright 1992, Gaussian, Inc.),
 the Gaussian 90(TM) system (copyright 1990, Gaussian, Inc.),
 the Gaussian 88(TM) system (copyright 1988, Gaussian, Inc.),
 the Gaussian 86(TM) system (copyright 1986, Carnegie Mellon
 University), and the Gaussian 82(TM) system (copyright 1983,
 Carnegie Mellon University). Gaussian is a federally registered
 trademark of Gaussian, Inc.
  
 This software contains proprietary and confidential information,
 including trade secrets, belonging to Gaussian, Inc.
  
 This software is provided under written license and may be
 used, copied, transmitted, or stored only in accord with that
 written license.
  
 The following legend is applicable only to US Government
 contracts under FAR:
  
                    RESTRICTED RIGHTS LEGEND
  
 Use, reproduction and disclosure by the US Government is
 subject to restrictions as set forth in subparagraphs (a)
 and (c) of the Commercial Computer Software - Restricted
 Rights clause in FAR 52.227-19.
  
 Gaussian, Inc.
 340 Quinnipiac St., Bldg. 40, Wallingford CT 06492
  
  
 ---------------------------------------------------------------
 Warning -- This program may not be used in any manner that
 competes with the business of Gaussian, Inc. or will provide
 assistance to any competitor of Gaussian, Inc.  The licensee
 of this program is prohibited from giving any competitor of
 Gaussian, Inc. access to this program.  By using this program,
 the user acknowledges that Gaussian, Inc. is engaged in the
 business of creating and licensing software in the field of
 computational chemistry and represents and warrants to the
 licensee that it is not a competitor of Gaussian, Inc. and that
 it will not use this program in any manner prohibited above.
 ---------------------------------------------------------------
  

 Cite this work as:
 Gaussian 16, Revision A.03,
 M. J. Frisch, G. W. Trucks, H. B. Schlegel, G. E. Scuseria, 
 M. A. Robb, J. R. Cheeseman, G. Scalmani, V. Barone, 
 G. A. Petersson, H. Nakatsuji, X. Li, M. Caricato, A. V. Marenich, 
 J. Bloino, B. G. Janesko, R. Gomperts, B. Mennucci, H. P. Hratchian, 
 J. V. Ortiz, A. F. Izmaylov, J. L. Sonnenberg, D. Williams-Young, 
 F. Ding, F. Lipparini, F. Egidi, J. Goings, B. Peng, A. Petrone, 
 T. Henderson, D. Ranasinghe, V. G. Zakrzewski, J. Gao, N. Rega, 
 G. Zheng, W. Liang, M. Hada, M. Ehara, K. Toyota, R. Fukuda, 
 J. Hasegawa, M. Ishida, T. Nakajima, Y. Honda, O. Kitao, H. Nakai, 
 T. Vreven, K. Throssell, J. A. Montgomery, Jr., J. E. Peralta, 
 F. Ogliaro, M. J. Bearpark, J. J. Heyd, E. N. Brothers, K. N. Kudin, 
 V. N. Staroverov, T. A. Keith, R. Kobayashi, J. Normand, 
 K. Raghavachari, A. P. Rendell, J. C. Burant, S. S. Iyengar, 
 J. Tomasi, M. Cossi, J. M. Millam, M. Klene, C. Adamo, R. Cammi, 
 J. W. Ochterski, R. L. Martin, K. Morokuma, O. Farkas, 
 J. B. Foresman, and D. J. Fox, Gaussian, Inc., Wallingford CT, 2016.
 
 ******************************************
 Gaussian 16:  ES64L-G16RevA.03 25-Dec-2016
                 8-Sep-2021 
 ******************************************
 %nproc=24
 Will use up to   24 processors via shared memory.
 %mem=175gb
 -----------------------------------
 #p cam-b3lyp/Def2SVP td=(nstates=5)
 -----------------------------------
 1/38=1,172=1/1;
 2/12=2,17=6,18=5,40=1/2;
 3/5=43,7=101,11=9,25=1,30=1,74=-40/1,2,3,8;
 4//1;
 5/5=2,38=5/2;
 8/6=1,10=1,108=5/1;
 9/41=5,42=1,70=2/14;
 6/7=2,8=2,9=2,10=2/1;
 99/5=1,9=1/99;
 Leave Link    1 at Wed Sep  8 22:11:38 2021, MaxMem= 23488102400 cpu:               0.8 elap:               0.0
 (Enter /sw/apps/gaussian-16.0/g16/l101.exe)
 --------------------------------
 TDDFT excited states in gaussian
 --------------------------------
 Symbolic Z-matrix:
 Charge =  0 Multiplicity = 1
 Mg                    0.        0.        0. 
 C                    -0.217    -2.218     2.801 
 C                    -1.255     2.442     2.026 
 C                    -0.245     1.85     -2.564 
 C                     0.146    -2.824    -2.037 
 N                    -0.617    -0.009     2.126 
 C                    -0.594    -0.908     3.105 
 C                    -0.936    -0.309     4.502 
 C                    -1.773     0.964     4.032 
 C                    -1.155     1.168     2.66 
 C                    -3.263     0.685     3.863 
 C                     0.345     0.11      5.299 
 C                     0.124     0.397     6.787 
 H                     1.168     0.033     7.733 
 N                    -0.185     1.961    -0.152 
 C                    -0.703     2.8       0.777 
 C                    -0.62      4.156     0.193 
 C                    -0.187     4.015    -1.225 
 C                    -0.214     2.583    -1.38 
 C                    -0.887     5.406     0.974 
 C                     0.181     5.013    -2.277 
 O                     0.303     4.69     -3.508 
 C                     0.31      6.414    -1.837 
 N                    -0.265    -0.413    -2.029 
 C                    -0.279     0.569    -2.937 
 C                    -0.196     0.024    -4.332 
 C                     0.124    -1.533    -4.18 
 C                     0.086    -1.632    -2.635 
 C                    -1.451     0.205    -5.197 
 C                     1.373    -2.07     -4.923 
 C                     2.626    -1.49     -4.306 
 N                     0.15     -2.144     0.303 
 C                     0.173    -3.136    -0.688 
 C                     0.173    -4.438     0.004 
 C                     0.133    -4.111     1.358 
 C                     0.083    -2.695     1.502 
 C                     0.149    -5.715    -0.623 
 C                     0.096    -4.629     2.716 
 O                     0.208    -5.747     3.221 
 C                    -0.255    -3.428     3.701 
 C                     0.717    -3.482     4.848 
 O                     1.931    -3.255     4.669 
 O                     0.038    -3.556     6.003 
 C                     0.943    -3.583     7.183 
 H                    -1.859     3.22      2.497 
 H                    -0.218     2.453    -3.474 
 H                     0.276    -3.747    -2.605 
 H                    -1.554    -0.949     5.132 
 H                    -1.585     1.831     4.665 
 H                    -3.484    -0.377     3.969 
 H                    -3.511     1.027     2.858 
 H                    -3.852     1.301     4.543 
 H                     0.669     1.096     4.966 
 H                     1.13     -0.639     5.189 
 H                    -0.844     0.026     7.125 
 H                     0.062     1.477     6.921 
 H                    -1.344     5.186     1.938 
 H                    -1.651     5.963     0.432 
 H                     0.007     6.02      1.084 
 H                    -0.635     6.744    -1.405 
 H                     0.665     6.97     -2.704 
 H                     1.048     6.466    -1.036 
 H                     0.608     0.501    -4.891 
 H                    -0.692    -2.156    -4.547 
 H                    -1.267     0.74     -6.129 
 H                    -2.204     0.714    -4.596 
 H                    -1.967    -0.72     -5.453 
 H                     1.356    -1.759    -5.967 
 H                     1.452    -3.157    -4.902 
 H                     2.714    -0.522    -4.798 
 H                     3.487    -2.121    -4.529 
 H                     2.495    -1.303    -3.24 
 H                     0.867    -6.333    -0.084 
 H                     0.404    -5.642    -1.68 
 H                    -0.891    -5.999    -0.463 
 H                    -1.283    -3.581     4.028 
 H                     0.698    -4.478     7.755 
 H                     0.833    -2.619     7.68 
 H                     2.       -3.754     6.976 
 Mg                    7.87345   0.71286   0.60175 
 C                     5.89667  -2.08346  -0.47154 
 C                     6.00527   2.64773  -1.49604 
 C                     9.87772   3.1031    1.18233 
 C                     10.26133  -1.57494   1.70165 
 N                     6.19542   0.22934  -0.7557 
 C                     5.4892   -0.856    -1.03434 
 C                     4.23014  -0.59817  -1.90488 
 C                     4.70097   0.76523  -2.61082 
 C                     5.66962   1.27108  -1.54381 
 C                     5.48077   0.53963  -3.89547 
 C                     2.93939  -0.38095  -1.03955 
 C                     1.62492  -0.43158  -1.82143 
 H                     0.45079  -1.00838  -1.17243 
 N                     7.65319   2.66708   0.3352 
 C                     6.83398   3.28118  -0.54404 
 C                     7.05765   4.7238   -0.36237 
 C                     8.19495   4.90716   0.57977 
 C                     8.64259   3.53629   0.72259 
 C                     6.18006   5.76848  -0.9884 
 C                     8.79021   6.1177    1.23282 
 O                     9.9242    6.07236   1.82852 
 C                     8.05103   7.37858   1.07389 
 N                     9.88034   0.77058   1.1416 
 C                     10.49764   1.94022   1.38409 
 C                     11.84966   1.72183   2.02029 
 C                     11.90976   0.16418   2.37765 
 C                     10.55873  -0.28508   1.77909 
 C                     13.0574   2.09335   1.16022 
 C                     12.2251  -0.20789   3.85237 
 C                     11.08108   0.21258   4.74668 
 N                     7.99614  -1.43555   0.79496 
 C                     9.09842  -2.18908   1.2546 
 C                     8.74725  -3.61527   1.09622 
 C                     7.46396  -3.59224   0.52954 
 C                     7.05312  -2.24671   0.32891 
 C                     9.58836  -4.71919   1.41248 
 C                     6.36778  -4.40027   0.04563 
 O                     6.11135  -5.60358   0.04141 
 C                     5.35583  -3.46025  -0.74095 
 C                     3.96438  -3.77241  -0.26247 
 O                     3.63074  -3.53184   0.91117 
 O                     3.19783  -4.09838  -1.31912 
 C                     1.80542  -4.40579  -0.8966 
 H                     5.63341   3.30015  -2.28658 
 H                     10.56495   3.89042   1.50063 
 H                     10.91249  -2.3498    2.11184 
 H                     4.03278  -1.35574  -2.65382 
 H                     3.87012   1.45582  -2.72973 
 H                     5.69213  -0.5065   -4.06005 
 H                     6.40069   1.09836  -3.78317 
 H                     4.95432   0.99254  -4.74049 
 H                     2.91177   0.66009  -0.69281 
 H                     2.90351  -1.08     -0.22673 
 H                     1.75765  -0.85661  -2.82377 
 H                     1.29159   0.59245  -2.00653 
 H                     5.52946   5.33783  -1.75954 
 H                     6.83748   6.45098  -1.53781 
 H                     5.61411   6.34068  -0.25019 
 H                     7.94681   7.60515   0.01547 
 H                     8.58509   8.10936   1.68433 
 H                     7.0377    7.2421    1.46779 
 H                     11.94444   2.29588   2.93385 
 H                     12.6942  -0.35472   1.80737 
 H                     13.72315   2.83545   1.63995 
 H                     12.69824   2.46347   0.20914 
 H                     13.6856   1.2564    0.86009 
 H                     13.10685   0.33605   4.19994 
 H                     12.42034  -1.26497   3.99886 
 H                     11.28805   1.27102   4.93095 
 H                     11.08921  -0.35828   5.67302 
 H                     10.12378   0.15139   4.21614 
 H                     8.96933  -5.44683   1.92025 
 H                     10.43083  -4.41323   2.02925 
 H                     9.90187  -5.01928   0.40902 
 H                     5.47834  -3.66497  -1.80521 
 H                     1.57174  -5.40732  -1.2708 
 H                     1.18713  -3.56993  -1.27449 
 H                     1.61877  -4.5274    0.16397 
 
 ITRead=  0  0  0  0  0  0  0  0  0  0  0  0  0  0  0  0  0  0  0  0
 ITRead=  0  0  0  0  0  0  0  0  0  0  0  0  0  0  0  0  0  0  0  0
 ITRead=  0  0  0  0  0  0  0  0  0  0  0  0  0  0  0  0  0  0  0  0
 ITRead=  0  0  0  0  0  0  0  0  0  0  0  0  0  0  0  0  0  0  0  0
 ITRead=  0  0  0  0  0  0  0  0  0  0  0  0  0  0  0  0  0  0  0  0
 ITRead=  0  0  0  0  0  0  0  0  0  0  0  0  0  0  0  0  0  0  0  0
 ITRead=  0  0  0  0  0  0  0  0  0  0  0  0  0  0  0  0  0  0  0  0
 ITRead=  0  0  0  0  0  0  0  0  0  0  0  0  0  0  0  0  0  0
 MicOpt= -1 -1 -1 -1 -1 -1 -1 -1 -1 -1 -1 -1 -1 -1 -1 -1 -1 -1 -1 -1
 MicOpt= -1 -1 -1 -1 -1 -1 -1 -1 -1 -1 -1 -1 -1 -1 -1 -1 -1 -1 -1 -1
 MicOpt= -1 -1 -1 -1 -1 -1 -1 -1 -1 -1 -1 -1 -1 -1 -1 -1 -1 -1 -1 -1
 MicOpt= -1 -1 -1 -1 -1 -1 -1 -1 -1 -1 -1 -1 -1 -1 -1 -1 -1 -1 -1 -1
 MicOpt= -1 -1 -1 -1 -1 -1 -1 -1 -1 -1 -1 -1 -1 -1 -1 -1 -1 -1 -1 -1
 MicOpt= -1 -1 -1 -1 -1 -1 -1 -1 -1 -1 -1 -1 -1 -1 -1 -1 -1 -1 -1 -1
 MicOpt= -1 -1 -1 -1 -1 -1 -1 -1 -1 -1 -1 -1 -1 -1 -1 -1 -1 -1 -1 -1
 MicOpt= -1 -1 -1 -1 -1 -1 -1 -1 -1 -1 -1 -1 -1 -1 -1 -1 -1 -1
 NAtoms=    158 NQM=      158 NQMF=       0 NMMI=      0 NMMIF=      0
                NMic=       0 NMicF=      0.
                    Isotopes and Nuclear Properties:
 (Nuclear quadrupole moments (NQMom) in fm**2, nuclear magnetic moments (NMagM)
  in nuclear magnetons)

  Atom         1           2           3           4           5           6           7           8           9          10
 IAtWgt=          24          12          12          12          12          14          12          12          12          12
 AtmWgt=  23.9850450  12.0000000  12.0000000  12.0000000  12.0000000  14.0030740  12.0000000  12.0000000  12.0000000  12.0000000
 NucSpn=           0           0           0           0           0           2           0           0           0           0
 AtZEff=  -0.0000000  -0.0000000  -0.0000000  -0.0000000  -0.0000000  -0.0000000  -0.0000000  -0.0000000  -0.0000000  -0.0000000
 NQMom=    0.0000000   0.0000000   0.0000000   0.0000000   0.0000000   2.0440000   0.0000000   0.0000000   0.0000000   0.0000000
 NMagM=    0.0000000   0.0000000   0.0000000   0.0000000   0.0000000   0.4037610   0.0000000   0.0000000   0.0000000   0.0000000
 AtZNuc=  12.0000000   6.0000000   6.0000000   6.0000000   6.0000000   7.0000000   6.0000000   6.0000000   6.0000000   6.0000000

  Atom        11          12          13          14          15          16          17          18          19          20
 IAtWgt=          12          12          12           1          14          12          12          12          12          12
 AtmWgt=  12.0000000  12.0000000  12.0000000   1.0078250  14.0030740  12.0000000  12.0000000  12.0000000  12.0000000  12.0000000
 NucSpn=           0           0           0           1           2           0           0           0           0           0
 AtZEff=  -0.0000000  -0.0000000  -0.0000000  -0.0000000  -0.0000000  -0.0000000  -0.0000000  -0.0000000  -0.0000000  -0.0000000
 NQMom=    0.0000000   0.0000000   0.0000000   0.0000000   2.0440000   0.0000000   0.0000000   0.0000000   0.0000000   0.0000000
 NMagM=    0.0000000   0.0000000   0.0000000   2.7928460   0.4037610   0.0000000   0.0000000   0.0000000   0.0000000   0.0000000
 AtZNuc=   6.0000000   6.0000000   6.0000000   1.0000000   7.0000000   6.0000000   6.0000000   6.0000000   6.0000000   6.0000000

  Atom        21          22          23          24          25          26          27          28          29          30
 IAtWgt=          12          16          12          14          12          12          12          12          12          12
 AtmWgt=  12.0000000  15.9949146  12.0000000  14.0030740  12.0000000  12.0000000  12.0000000  12.0000000  12.0000000  12.0000000
 NucSpn=           0           0           0           2           0           0           0           0           0           0
 AtZEff=  -0.0000000  -0.0000000  -0.0000000  -0.0000000  -0.0000000  -0.0000000  -0.0000000  -0.0000000  -0.0000000  -0.0000000
 NQMom=    0.0000000   0.0000000   0.0000000   2.0440000   0.0000000   0.0000000   0.0000000   0.0000000   0.0000000   0.0000000
 NMagM=    0.0000000   0.0000000   0.0000000   0.4037610   0.0000000   0.0000000   0.0000000   0.0000000   0.0000000   0.0000000
 AtZNuc=   6.0000000   8.0000000   6.0000000   7.0000000   6.0000000   6.0000000   6.0000000   6.0000000   6.0000000   6.0000000

  Atom        31          32          33          34          35          36          37          38          39          40
 IAtWgt=          12          14          12          12          12          12          12          12          16          12
 AtmWgt=  12.0000000  14.0030740  12.0000000  12.0000000  12.0000000  12.0000000  12.0000000  12.0000000  15.9949146  12.0000000
 NucSpn=           0           2           0           0           0           0           0           0           0           0
 AtZEff=  -0.0000000  -0.0000000  -0.0000000  -0.0000000  -0.0000000  -0.0000000  -0.0000000  -0.0000000  -0.0000000  -0.0000000
 NQMom=    0.0000000   2.0440000   0.0000000   0.0000000   0.0000000   0.0000000   0.0000000   0.0000000   0.0000000   0.0000000
 NMagM=    0.0000000   0.4037610   0.0000000   0.0000000   0.0000000   0.0000000   0.0000000   0.0000000   0.0000000   0.0000000
 AtZNuc=   6.0000000   7.0000000   6.0000000   6.0000000   6.0000000   6.0000000   6.0000000   6.0000000   8.0000000   6.0000000

  Atom        41          42          43          44          45          46          47          48          49          50
 IAtWgt=          12          16          16          12           1           1           1           1           1           1
 AtmWgt=  12.0000000  15.9949146  15.9949146  12.0000000   1.0078250   1.0078250   1.0078250   1.0078250   1.0078250   1.0078250
 NucSpn=           0           0           0           0           1           1           1           1           1           1
 AtZEff=  -0.0000000  -0.0000000  -0.0000000  -0.0000000  -0.0000000  -0.0000000  -0.0000000  -0.0000000  -0.0000000  -0.0000000
 NQMom=    0.0000000   0.0000000   0.0000000   0.0000000   0.0000000   0.0000000   0.0000000   0.0000000   0.0000000   0.0000000
 NMagM=    0.0000000   0.0000000   0.0000000   0.0000000   2.7928460   2.7928460   2.7928460   2.7928460   2.7928460   2.7928460
 AtZNuc=   6.0000000   8.0000000   8.0000000   6.0000000   1.0000000   1.0000000   1.0000000   1.0000000   1.0000000   1.0000000

  Atom        51          52          53          54          55          56          57          58          59          60
 IAtWgt=           1           1           1           1           1           1           1           1           1           1
 AtmWgt=   1.0078250   1.0078250   1.0078250   1.0078250   1.0078250   1.0078250   1.0078250   1.0078250   1.0078250   1.0078250
 NucSpn=           1           1           1           1           1           1           1           1           1           1
 AtZEff=  -0.0000000  -0.0000000  -0.0000000  -0.0000000  -0.0000000  -0.0000000  -0.0000000  -0.0000000  -0.0000000  -0.0000000
 NQMom=    0.0000000   0.0000000   0.0000000   0.0000000   0.0000000   0.0000000   0.0000000   0.0000000   0.0000000   0.0000000
 NMagM=    2.7928460   2.7928460   2.7928460   2.7928460   2.7928460   2.7928460   2.7928460   2.7928460   2.7928460   2.7928460
 AtZNuc=   1.0000000   1.0000000   1.0000000   1.0000000   1.0000000   1.0000000   1.0000000   1.0000000   1.0000000   1.0000000

  Atom        61          62          63          64          65          66          67          68          69          70
 IAtWgt=           1           1           1           1           1           1           1           1           1           1
 AtmWgt=   1.0078250   1.0078250   1.0078250   1.0078250   1.0078250   1.0078250   1.0078250   1.0078250   1.0078250   1.0078250
 NucSpn=           1           1           1           1           1           1           1           1           1           1
 AtZEff=  -0.0000000  -0.0000000  -0.0000000  -0.0000000  -0.0000000  -0.0000000  -0.0000000  -0.0000000  -0.0000000  -0.0000000
 NQMom=    0.0000000   0.0000000   0.0000000   0.0000000   0.0000000   0.0000000   0.0000000   0.0000000   0.0000000   0.0000000
 NMagM=    2.7928460   2.7928460   2.7928460   2.7928460   2.7928460   2.7928460   2.7928460   2.7928460   2.7928460   2.7928460
 AtZNuc=   1.0000000   1.0000000   1.0000000   1.0000000   1.0000000   1.0000000   1.0000000   1.0000000   1.0000000   1.0000000

  Atom        71          72          73          74          75          76          77          78          79          80
 IAtWgt=           1           1           1           1           1           1           1           1           1          24
 AtmWgt=   1.0078250   1.0078250   1.0078250   1.0078250   1.0078250   1.0078250   1.0078250   1.0078250   1.0078250  23.9850450
 NucSpn=           1           1           1           1           1           1           1           1           1           0
 AtZEff=  -0.0000000  -0.0000000  -0.0000000  -0.0000000  -0.0000000  -0.0000000  -0.0000000  -0.0000000  -0.0000000  -0.0000000
 NQMom=    0.0000000   0.0000000   0.0000000   0.0000000   0.0000000   0.0000000   0.0000000   0.0000000   0.0000000   0.0000000
 NMagM=    2.7928460   2.7928460   2.7928460   2.7928460   2.7928460   2.7928460   2.7928460   2.7928460   2.7928460   0.0000000
 AtZNuc=   1.0000000   1.0000000   1.0000000   1.0000000   1.0000000   1.0000000   1.0000000   1.0000000   1.0000000  12.0000000

  Atom        81          82          83          84          85          86          87          88          89          90
 IAtWgt=          12          12          12          12          14          12          12          12          12          12
 AtmWgt=  12.0000000  12.0000000  12.0000000  12.0000000  14.0030740  12.0000000  12.0000000  12.0000000  12.0000000  12.0000000
 NucSpn=           0           0           0           0           2           0           0           0           0           0
 AtZEff=  -0.0000000  -0.0000000  -0.0000000  -0.0000000  -0.0000000  -0.0000000  -0.0000000  -0.0000000  -0.0000000  -0.0000000
 NQMom=    0.0000000   0.0000000   0.0000000   0.0000000   2.0440000   0.0000000   0.0000000   0.0000000   0.0000000   0.0000000
 NMagM=    0.0000000   0.0000000   0.0000000   0.0000000   0.4037610   0.0000000   0.0000000   0.0000000   0.0000000   0.0000000
 AtZNuc=   6.0000000   6.0000000   6.0000000   6.0000000   7.0000000   6.0000000   6.0000000   6.0000000   6.0000000   6.0000000

  Atom        91          92          93          94          95          96          97          98          99         100
 IAtWgt=          12          12           1          14          12          12          12          12          12          12
 AtmWgt=  12.0000000  12.0000000   1.0078250  14.0030740  12.0000000  12.0000000  12.0000000  12.0000000  12.0000000  12.0000000
 NucSpn=           0           0           1           2           0           0           0           0           0           0
 AtZEff=  -0.0000000  -0.0000000  -0.0000000  -0.0000000  -0.0000000  -0.0000000  -0.0000000  -0.0000000  -0.0000000  -0.0000000
 NQMom=    0.0000000   0.0000000   0.0000000   2.0440000   0.0000000   0.0000000   0.0000000   0.0000000   0.0000000   0.0000000
 NMagM=    0.0000000   0.0000000   2.7928460   0.4037610   0.0000000   0.0000000   0.0000000   0.0000000   0.0000000   0.0000000
 AtZNuc=   6.0000000   6.0000000   1.0000000   7.0000000   6.0000000   6.0000000   6.0000000   6.0000000   6.0000000   6.0000000

  Atom       101         102         103         104         105         106         107         108         109         110
 IAtWgt=          16          12          14          12          12          12          12          12          12          12
 AtmWgt=  15.9949146  12.0000000  14.0030740  12.0000000  12.0000000  12.0000000  12.0000000  12.0000000  12.0000000  12.0000000
 NucSpn=           0           0           2           0           0           0           0           0           0           0
 AtZEff=  -0.0000000  -0.0000000  -0.0000000  -0.0000000  -0.0000000  -0.0000000  -0.0000000  -0.0000000  -0.0000000  -0.0000000
 NQMom=    0.0000000   0.0000000   2.0440000   0.0000000   0.0000000   0.0000000   0.0000000   0.0000000   0.0000000   0.0000000
 NMagM=    0.0000000   0.0000000   0.4037610   0.0000000   0.0000000   0.0000000   0.0000000   0.0000000   0.0000000   0.0000000
 AtZNuc=   8.0000000   6.0000000   7.0000000   6.0000000   6.0000000   6.0000000   6.0000000   6.0000000   6.0000000   6.0000000

  Atom       111         112         113         114         115         116         117         118         119         120
 IAtWgt=          14          12          12          12          12          12          12          16          12          12
 AtmWgt=  14.0030740  12.0000000  12.0000000  12.0000000  12.0000000  12.0000000  12.0000000  15.9949146  12.0000000  12.0000000
 NucSpn=           2           0           0           0           0           0           0           0           0           0
 AtZEff=  -0.0000000  -0.0000000  -0.0000000  -0.0000000  -0.0000000  -0.0000000  -0.0000000  -0.0000000  -0.0000000  -0.0000000
 NQMom=    2.0440000   0.0000000   0.0000000   0.0000000   0.0000000   0.0000000   0.0000000   0.0000000   0.0000000   0.0000000
 NMagM=    0.4037610   0.0000000   0.0000000   0.0000000   0.0000000   0.0000000   0.0000000   0.0000000   0.0000000   0.0000000
 AtZNuc=   7.0000000   6.0000000   6.0000000   6.0000000   6.0000000   6.0000000   6.0000000   8.0000000   6.0000000   6.0000000

  Atom       121         122         123         124         125         126         127         128         129         130
 IAtWgt=          16          16          12           1           1           1           1           1           1           1
 AtmWgt=  15.9949146  15.9949146  12.0000000   1.0078250   1.0078250   1.0078250   1.0078250   1.0078250   1.0078250   1.0078250
 NucSpn=           0           0           0           1           1           1           1           1           1           1
 AtZEff=  -0.0000000  -0.0000000  -0.0000000  -0.0000000  -0.0000000  -0.0000000  -0.0000000  -0.0000000  -0.0000000  -0.0000000
 NQMom=    0.0000000   0.0000000   0.0000000   0.0000000   0.0000000   0.0000000   0.0000000   0.0000000   0.0000000   0.0000000
 NMagM=    0.0000000   0.0000000   0.0000000   2.7928460   2.7928460   2.7928460   2.7928460   2.7928460   2.7928460   2.7928460
 AtZNuc=   8.0000000   8.0000000   6.0000000   1.0000000   1.0000000   1.0000000   1.0000000   1.0000000   1.0000000   1.0000000

  Atom       131         132         133         134         135         136         137         138         139         140
 IAtWgt=           1           1           1           1           1           1           1           1           1           1
 AtmWgt=   1.0078250   1.0078250   1.0078250   1.0078250   1.0078250   1.0078250   1.0078250   1.0078250   1.0078250   1.0078250
 NucSpn=           1           1           1           1           1           1           1           1           1           1
 AtZEff=  -0.0000000  -0.0000000  -0.0000000  -0.0000000  -0.0000000  -0.0000000  -0.0000000  -0.0000000  -0.0000000  -0.0000000
 NQMom=    0.0000000   0.0000000   0.0000000   0.0000000   0.0000000   0.0000000   0.0000000   0.0000000   0.0000000   0.0000000
 NMagM=    2.7928460   2.7928460   2.7928460   2.7928460   2.7928460   2.7928460   2.7928460   2.7928460   2.7928460   2.7928460
 AtZNuc=   1.0000000   1.0000000   1.0000000   1.0000000   1.0000000   1.0000000   1.0000000   1.0000000   1.0000000   1.0000000

  Atom       141         142         143         144         145         146         147         148         149         150
 IAtWgt=           1           1           1           1           1           1           1           1           1           1
 AtmWgt=   1.0078250   1.0078250   1.0078250   1.0078250   1.0078250   1.0078250   1.0078250   1.0078250   1.0078250   1.0078250
 NucSpn=           1           1           1           1           1           1           1           1           1           1
 AtZEff=  -0.0000000  -0.0000000  -0.0000000  -0.0000000  -0.0000000  -0.0000000  -0.0000000  -0.0000000  -0.0000000  -0.0000000
 NQMom=    0.0000000   0.0000000   0.0000000   0.0000000   0.0000000   0.0000000   0.0000000   0.0000000   0.0000000   0.0000000
 NMagM=    2.7928460   2.7928460   2.7928460   2.7928460   2.7928460   2.7928460   2.7928460   2.7928460   2.7928460   2.7928460
 AtZNuc=   1.0000000   1.0000000   1.0000000   1.0000000   1.0000000   1.0000000   1.0000000   1.0000000   1.0000000   1.0000000

  Atom       151         152         153         154         155         156         157         158
 IAtWgt=           1           1           1           1           1           1           1           1
 AtmWgt=   1.0078250   1.0078250   1.0078250   1.0078250   1.0078250   1.0078250   1.0078250   1.0078250
 NucSpn=           1           1           1           1           1           1           1           1
 AtZEff=  -0.0000000  -0.0000000  -0.0000000  -0.0000000  -0.0000000  -0.0000000  -0.0000000  -0.0000000
 NQMom=    0.0000000   0.0000000   0.0000000   0.0000000   0.0000000   0.0000000   0.0000000   0.0000000
 NMagM=    2.7928460   2.7928460   2.7928460   2.7928460   2.7928460   2.7928460   2.7928460   2.7928460
 AtZNuc=   1.0000000   1.0000000   1.0000000   1.0000000   1.0000000   1.0000000   1.0000000   1.0000000
 Leave Link  101 at Wed Sep  8 22:11:38 2021, MaxMem= 23488102400 cpu:               3.3 elap:               0.2
 (Enter /sw/apps/gaussian-16.0/g16/l202.exe)
 Stoichiometry    C68H72Mg2N8O8
 Framework group  C1[X(C68H72Mg2N8O8)]
 Deg. of freedom   468
 Full point group                 C1      NOp   1
 Largest Abelian subgroup         C1      NOp   1
 Largest concise Abelian subgroup C1      NOp   1
                         Standard orientation:                         
 ---------------------------------------------------------------------
 Center     Atomic      Atomic             Coordinates (Angstroms)
 Number     Number       Type             X           Y           Z
 ---------------------------------------------------------------------
      1         12           0       -3.545283    0.954833    0.111136
      2          6           0       -4.099791   -2.129144    1.841402
      3          6           0       -4.107771    2.547315    3.076043
      4          6           0       -3.509778    3.697758   -1.480002
      5          6           0       -4.148088   -0.771862   -2.855480
      6          7           0       -4.030903    0.195812    2.133191
      7          6           0       -4.156280   -1.010997    2.676388
      8          6           0       -4.278069   -0.979909    4.229313
      9          6           0       -4.832935    0.503993    4.408640
     10          6           0       -4.261229    1.130939    3.149270
     11          6           0       -6.354532    0.596018    4.355960
     12          6           0       -2.893964   -1.163544    4.938018
     13          6           0       -2.962958   -1.470892    6.436728
     14          1           0       -1.976786   -2.372525    7.012811
     15          7           0       -3.294070    2.805839    0.754190
     16          6           0       -3.559010    3.274216    1.997458
     17          6           0       -3.206366    4.710131    1.975768
     18          6           0       -2.894524    5.080863    0.567434
     19          6           0       -3.250295    3.866998   -0.122014
     20          6           0       -3.143081    5.560549    3.207245
     21          6           0       -2.370520    6.334297   -0.059028
     22          8           0       -2.391811    6.523115   -1.323333
     23          6           0       -1.906802    7.385890    0.864097
     24          7           0       -4.007120    1.458339   -1.861381
     25          6           0       -3.850483    2.708938   -2.309099
     26          6           0       -3.968488    2.772841   -3.803064
     27          6           0       -3.997787    1.258720   -4.309357
     28          6           0       -3.972114    0.549152   -2.933085
     29          6           0       -5.196537    3.516418   -4.346204
     30          6           0       -2.943673    0.851101   -5.369125
     31          6           0       -1.560607    0.889867   -4.758613
     32          7           0       -3.863279   -1.114934   -0.459817
     33          6           0       -4.117678   -1.604346   -1.749170
     34          6           0       -4.371527   -3.051030   -1.619811
     35          6           0       -4.262799   -3.301286   -0.253284
     36          6           0       -3.986141   -2.083160    0.430764
     37          6           0       -4.715553   -3.934871   -2.680426
     38          6           0       -4.340342   -4.310091    0.790821
     39          8           0       -4.454239   -5.536600    0.804832
     40          6           0       -4.358571   -3.571048    2.201250
     41          6           0       -3.361931   -4.263689    3.090219
     42          8           0       -2.139648   -4.210243    2.844180
     43          8           0       -3.975766   -4.674897    4.210333
     44          6           0       -3.036453   -5.344502    5.149201
     45          1           0       -4.495212    3.162991    3.890152
     46          1           0       -3.398311    4.602406   -2.081355
     47          1           0       -4.259681   -1.391036   -3.747458
     48          1           0       -4.988250   -1.695564    4.643926
     49          1           0       -4.420910    0.988341    5.293719
     50          1           0       -6.801797   -0.357173    4.074354
     51          1           0       -6.574363    1.356050    3.605948
     52          1           0       -6.752214    0.978994    5.296149
     53          1           0       -2.375980   -0.205002    4.968856
     54          1           0       -2.304086   -1.933151    4.438944
     55          1           0       -3.969428   -1.762941    6.737783
     56          1           0       -2.773840   -0.547263    6.983850
     57          1           0       -3.584124    5.055593    4.065758
     58          1           0       -3.791365    6.419430    3.034733
     59          1           0       -2.129543    5.901598    3.418809
     60          1           0       -2.728600    7.678900    1.517811
     61          1           0       -1.484364    8.170877    0.237846
     62          1           0       -1.133084    6.971638    1.511172
     63          1           0       -3.109966    3.279647   -4.241827
     64          1           0       -4.951560    0.999769   -4.769722
     65          1           0       -4.948759    4.340365   -5.015847
     66          1           0       -5.782114    3.865781   -3.496300
     67          1           0       -5.920007    2.887047   -4.863794
     68          1           0       -2.947829    1.556899   -6.199052
     69          1           0       -3.109307   -0.144904   -5.779964
     70          1           0       -1.285018    1.940170   -4.846626
     71          1           0       -0.876535    0.257880   -5.325931
     72          1           0       -1.587619    0.648021   -3.695943
     73          1           0       -4.125864   -4.838704   -2.527707
     74          1           0       -4.509114   -3.486679   -3.652079
     75          1           0       -5.782352   -4.063507   -2.498087
     76          1           0       -5.375160   -3.652494    2.584701
     77          1           0       -3.444047   -6.333201    5.360330
     78          1           0       -2.900108   -4.663439    5.989420
     79          1           0       -2.057683   -5.607159    4.746263
     80         12           0        4.308461   -0.094636   -0.169591
     81          6           0        1.699302   -1.799173   -1.948877
     82          6           0        2.809227    2.832268   -1.075167
     83          6           0        6.826288    1.441619    0.999974
     84          6           0        6.179460   -3.027142   -0.383028
     85          7           0        2.492806    0.331789   -1.358627
     86          6           0        1.547067   -0.397042   -1.931979
     87          6           0        0.331986    0.418303   -2.449994
     88          6           0        1.056953    1.839322   -2.634439
     89          6           0        2.171434    1.680936   -1.602197
     90          6           0        1.694592    2.016571   -4.002397
     91          6           0       -0.827714    0.497616   -1.396038
     92          6           0       -2.160984    1.010974   -1.944295
     93          1           0       -3.397073    0.446093   -1.409999
     94          7           0        4.517556    1.803318    0.371322
     95          6           0        3.809832    2.860489   -0.079016
     96          6           0        4.360809    4.036976    0.611265
     97          6           0        5.560243    3.609764    1.381685
     98          6           0        5.696356    2.242589    0.920849
     99          6           0        3.706702    5.387357    0.565989
    100          6           0        6.446641    4.318832    2.360325
    101          8           0        7.572567    3.828313    2.727107
    102          6           0        6.001319    5.647532    2.804969
    103          7           0        6.303758   -0.630186    0.063545
    104          6           0        7.179889    0.205091    0.648887
    105          6           0        8.481394   -0.496747    0.955336
    106          6           0        8.210342   -2.047279    0.672540
    107          6           0        6.762211   -1.958544    0.142979
    108          6           0        9.692582   -0.035992    0.144711
    109          6           0        8.514747   -3.037472    1.829920
    110          6           0        7.544967   -2.814896    2.968056
    111          7           0        3.956875   -2.118725   -0.838545
    112          6           0        4.885732   -3.182048   -0.864332
    113          6           0        4.215659   -4.329927   -1.509158
    114          6           0        2.941056   -3.843809   -1.837131
    115          6           0        2.831895   -2.482566   -1.443947
    116          6           0        4.803983   -5.600752   -1.764118
    117          6           0        1.666772   -4.169519   -2.436134
    118          8           0        1.147306   -5.197911   -2.867753
    119          6           0        0.849656   -2.822946   -2.649326
    120          6           0       -0.547931   -3.041812   -2.138083
    121          8           0       -0.754194   -3.242315   -0.928176
    122          8           0       -1.424878   -2.763663   -3.119899
    123          6           0       -2.825406   -2.955358   -2.657727
    124          1           0        2.550238    3.805703   -1.492582
    125          1           0        7.688926    1.891049    1.497310
    126          1           0        6.661879   -4.006782   -0.398865
    127          1           0       -0.070984    0.080743   -3.397328
    128          1           0        0.396800    2.658081   -2.360219
    129          1           0        1.656715    1.108314   -4.585305
    130          1           0        2.721087    2.302462   -3.813671
    131          1           0        1.237473    2.861895   -4.524706
    132          1           0       -0.602196    1.293609   -0.674726
    133          1           0       -0.974687   -0.451885   -0.919088
    134          1           0       -2.182149    1.013566   -3.040880
    135          1           0       -2.265940    2.063920   -1.671719
    136          1           0        2.934788    5.434518   -0.212035
    137          1           0        4.469191    6.101076    0.235727
    138          1           0        3.324826    5.703245    1.539155
    139          1           0        5.892579    6.299601    1.941586
    140          1           0        6.718289    5.955693    3.568440
    141          1           0        5.006380    5.550996    3.253745
    142          1           0        8.752456   -0.371563    1.996472
    143          1           0        8.825978   -2.423750   -0.157571
    144          1           0       10.533047    0.311288    0.774862
    145          1           0        9.373856    0.747669   -0.529696
    146          1           0       10.099738   -0.778315   -0.539671
    147          1           0        9.513707   -2.853442    2.232875
    148          1           0        8.475813   -4.079001    1.528761
    149          1           0        7.993722   -1.980291    3.514994
    150          1           0        7.475784   -3.703854    3.591771
    151          1           0        6.570660   -2.478599    2.594867
    152          1           0        4.066442   -6.344990   -1.494613
    153          1           0        5.726161   -5.731951   -1.201848
    154          1           0        4.986662   -5.519001   -2.838929
    155          1           0        0.864530   -2.596113   -3.716048
    156          1           0       -3.297823   -3.656936   -3.352210
    157          1           0       -3.260395   -1.940267   -2.593534
    158          1           0       -2.976040   -3.461040   -1.711138
 ---------------------------------------------------------------------
 Rotational constants (GHZ):           0.0253325           0.0167583           0.0144749
 Leave Link  202 at Wed Sep  8 22:11:38 2021, MaxMem= 23488102400 cpu:               0.2 elap:               0.0
 (Enter /sw/apps/gaussian-16.0/g16/l301.exe)
 Standard basis: def2SVP (5D, 7F)
 Ernie: Thresh=  0.10000D-02 Tol=  0.10000D-05 Strict=F.
 There are  1658 symmetry adapted cartesian basis functions of A   symmetry.
 There are  1572 symmetry adapted basis functions of A   symmetry.
  1572 basis functions,  2678 primitive gaussians,  1658 cartesian basis functions
   312 alpha electrons      312 beta electrons
       nuclear repulsion energy     16714.3882533569 Hartrees.
 IExCor=20419 DFT=T Ex+Corr=CAM-B3LYP ExCW=0 ScaHFX=  1.000000
 ScaDFX=  1.000000  1.000000  1.000000  0.810000 ScalE2=  1.000000  1.000000
 IRadAn=      5 IRanWt=     -1 IRanGd=            0 ICorTp=0 IEmpDi=  4
 HFx  wShort=  0.000000 wLong=  0.330000 cFull=  0.190000 cShort=  0.000000 cLong=  0.460000
 DFx  wShort=  0.000000 wLong=  0.330000 cFull=  0.190000 cShort=  0.000000 cLong=  0.460000
 NAtoms=  158 NActive=  158 NUniq=  158 SFac= 1.00D+00 NAtFMM=   60 NAOKFM=T Big=T
 Integral buffers will be    131072 words long.
 Raffenetti 1 integral format.
 Two-electron integral symmetry is turned on.
 Leave Link  301 at Wed Sep  8 22:11:38 2021, MaxMem= 23488102400 cpu:               1.4 elap:               0.1
 (Enter /sw/apps/gaussian-16.0/g16/l302.exe)
 NPDir=0 NMtPBC=     1 NCelOv=     1 NCel=       1 NClECP=     1 NCelD=      1
         NCelK=      1 NCelE2=     1 NClLst=     1 CellRange=     0.0.
 One-electron integrals computed using PRISM.
 One-electron integral symmetry used in STVInt
   1 Symmetry operations used in ECPInt.
 ECPInt:  NShTT=  271216 NPrTT=  987664 LenC2=  169469 LenP2D=  361634.
 LDataN:  DoStor=T MaxTD1= 4 Len=   56
 NBasis=  1572 RedAO= T EigKep=  1.80D-04  NBF=  1572
 NBsUse=  1572 1.00D-06 EigRej= -1.00D+00 NBFU=  1572
 Precomputing XC quadrature grid using
 IXCGrd= 4 IRadAn=           5 IRanWt=          -1 IRanGd=           0 AccXCQ= 0.00D+00.
 Generated NRdTot=       0 NPtTot=           0 NUsed=           0 NTot=          32
 NSgBfM=  1449  1430  1439  1446  1449 MxSgAt=   158 MxSgA2=   158.
 Leave Link  302 at Wed Sep  8 22:11:44 2021, MaxMem= 23488102400 cpu:             134.3 elap:               5.6
 (Enter /sw/apps/gaussian-16.0/g16/l303.exe)
 DipDrv:  MaxL=1.
 Leave Link  303 at Wed Sep  8 22:11:44 2021, MaxMem= 23488102400 cpu:               9.3 elap:               0.4
 (Enter /sw/apps/gaussian-16.0/g16/l308.exe)
 Leave Link  308 at Wed Sep  8 22:11:45 2021, MaxMem= 23488102400 cpu:              15.8 elap:               0.8
 (Enter /sw/apps/gaussian-16.0/g16/l401.exe)
 ExpMin= 3.36D-02 ExpMax= 4.95D+03 ExpMxC= 7.45D+02 IAcc=3 IRadAn=         5 AccDes= 0.00D+00
 Harris functional with IExCor=20419 and IRadAn=       5 diagonalized for initial guess.
 HarFok:  IExCor=20419 AccDes= 0.00D+00 IRadAn=         5 IDoV= 1 UseB2=F ITyADJ=14
 ICtDFT=  3500011 ScaDFX=  1.000000  1.000000  1.000000  1.000000
 FoFCou: FMM=F IPFlag=           0 FMFlag=      100000 FMFlg1=        2001
         NFxFlg=           0 DoJE=T BraDBF=F KetDBF=T FulRan=T
         wScrn=  0.000000 ICntrl=       500 IOpCl=  0 I1Cent=   200000004 NGrid=           0
         NMat0=    1 NMatS0=      1 NMatT0=    0 NMatD0=    1 NMtDS0=    0 NMtDT0=    0
 Petite list used in FoFCou.
 Harris En= -3917.90219937619    
 JPrj=0 DoOrth=F DoCkMO=F.
 Leave Link  401 at Wed Sep  8 22:11:55 2021, MaxMem= 23488102400 cpu:             225.3 elap:               9.4
 (Enter /sw/apps/gaussian-16.0/g16/l502.exe)
 Integral symmetry usage will be decided dynamically.
 Closed shell SCF:
 Using DIIS extrapolation, IDIIS=  1040.
 NGot= 23488102400 LenX= 23482546722 LenY= 23479796100
 Requested convergence on RMS density matrix=1.00D-08 within 128 cycles.
 Requested convergence on MAX density matrix=1.00D-06.
 Requested convergence on             energy=1.00D-06.
 No special actions if energy rises.
 Fock matrices will be formed incrementally for  20 cycles.

 Cycle   1  Pass 1  IDiag  1:
 FoFJK:  IHMeth= 1 ICntrl=       0 DoSepK=T KAlg= 0 I1Cent=           0 FoldK=F
 IRaf=         1 NMat=       1 IRICut=       1 DoRegI=T DoRafI=F ISym2E= 0 IDoP0=0 IntGTp=1.
 FoFCou: FMM=T IPFlag=           0 FMFlag=      100000 FMFlg1=        2001
         NFxFlg=           0 DoJE=T BraDBF=F KetDBF=F FulRan=T
         wScrn=  0.000000 ICntrl=       500 IOpCl=  0 I1Cent=           0 NGrid=           0
         NMat0=    1 NMatS0=      1 NMatT0=    0 NMatD0=    1 NMtDS0=    0 NMtDT0=    0
 Symmetry not used in FoFCou.
 FMM levels:  10  Number of levels for PrismC:   9
 E= -4068.20258394770    
 DIIS: error= 2.36D-02 at cycle   1 NSaved=   1.
 NSaved= 1 IEnMin= 1 EnMin= -4068.20258394770     IErMin= 1 ErrMin= 2.36D-02
 ErrMax= 2.36D-02  0.00D+00 EMaxC= 1.00D-01 BMatC= 1.75D+00 BMatP= 1.75D+00
 IDIUse=3 WtCom= 7.64D-01 WtEn= 2.36D-01
 Coeff-Com:  0.100D+01
 Coeff-En:   0.100D+01
 Coeff:      0.100D+01
 Gap=     0.108 Goal=   None    Shift=    0.000
 GapD=    0.108 DampG=1.000 DampE=0.500 DampFc=0.5000 IDamp=-1.
 Damping current iteration by 5.00D-01
 RMSDP=2.02D-03 MaxDP=1.96D-01              OVMax= 4.43D-01

 Cycle   2  Pass 1  IDiag  1:
 RMSU=  9.83D-04    CP:  9.75D-01
 E= -4068.58834832455     Delta-E=       -0.385764376842 Rises=F Damp=T
 DIIS: error= 1.46D-02 at cycle   2 NSaved=   2.
 NSaved= 2 IEnMin= 2 EnMin= -4068.58834832455     IErMin= 2 ErrMin= 1.46D-02
 ErrMax= 1.46D-02  0.00D+00 EMaxC= 1.00D-01 BMatC= 3.30D-01 BMatP= 1.75D+00
 IDIUse=3 WtCom= 8.54D-01 WtEn= 1.46D-01
 Coeff-Com: -0.152D+00 0.115D+01
 Coeff-En:   0.481D-01 0.952D+00
 Coeff:     -0.123D+00 0.112D+01
 Gap=     0.084 Goal=   None    Shift=    0.000
 RMSDP=1.03D-03 MaxDP=1.48D-01 DE=-3.86D-01 OVMax= 4.68D-01

 Cycle   3  Pass 1  IDiag  1:
 RMSU=  1.02D-03    CP:  9.55D-01  1.02D+00
 E= -4068.79192016817     Delta-E=       -0.203571843624 Rises=F Damp=F
 DIIS: error= 1.20D-02 at cycle   3 NSaved=   3.
 NSaved= 3 IEnMin= 3 EnMin= -4068.79192016817     IErMin= 3 ErrMin= 1.20D-02
 ErrMax= 1.20D-02  0.00D+00 EMaxC= 1.00D-01 BMatC= 3.20D-01 BMatP= 3.30D-01
 IDIUse=3 WtCom= 8.80D-01 WtEn= 1.20D-01
 Coeff-Com: -0.254D+00 0.692D+00 0.562D+00
 Coeff-En:   0.000D+00 0.248D+00 0.752D+00
 Coeff:     -0.224D+00 0.639D+00 0.585D+00
 Gap=     0.106 Goal=   None    Shift=    0.000
 RMSDP=9.40D-04 MaxDP=9.08D-02 DE=-2.04D-01 OVMax= 5.25D-01

 Cycle   4  Pass 1  IDiag  1:
 RMSU=  4.91D-04    CP:  9.53D-01  1.49D+00  3.54D-01
 E= -4068.98600681717     Delta-E=       -0.194086648997 Rises=F Damp=F
 DIIS: error= 4.52D-03 at cycle   4 NSaved=   4.
 NSaved= 4 IEnMin= 4 EnMin= -4068.98600681717     IErMin= 4 ErrMin= 4.52D-03
 ErrMax= 4.52D-03  0.00D+00 EMaxC= 1.00D-01 BMatC= 1.18D-01 BMatP= 3.20D-01
 IDIUse=3 WtCom= 9.55D-01 WtEn= 4.52D-02
 Coeff-Com: -0.146D+00 0.326D+00 0.424D+00 0.395D+00
 Coeff-En:   0.000D+00 0.000D+00 0.330D+00 0.670D+00
 Coeff:     -0.139D+00 0.311D+00 0.420D+00 0.408D+00
 Gap=     0.079 Goal=   None    Shift=    0.000
 RMSDP=4.87D-04 MaxDP=6.64D-02 DE=-1.94D-01 OVMax= 3.04D-01

 Cycle   5  Pass 1  IDiag  1:
 RMSU=  2.19D-04    CP:  9.51D-01  1.36D+00  6.29D-01  3.77D-01
 E= -4069.11687959407     Delta-E=       -0.130872776906 Rises=F Damp=F
 DIIS: error= 1.68D-03 at cycle   5 NSaved=   5.
 NSaved= 5 IEnMin= 5 EnMin= -4069.11687959407     IErMin= 5 ErrMin= 1.68D-03
 ErrMax= 1.68D-03  0.00D+00 EMaxC= 1.00D-01 BMatC= 9.70D-03 BMatP= 1.18D-01
 IDIUse=3 WtCom= 9.83D-01 WtEn= 1.68D-02
 Coeff-Com: -0.571D-01 0.115D+00 0.201D+00 0.262D+00 0.479D+00
 Coeff-En:   0.000D+00 0.000D+00 0.000D+00 0.389D-01 0.961D+00
 Coeff:     -0.561D-01 0.113D+00 0.198D+00 0.259D+00 0.487D+00
 Gap=     0.089 Goal=   None    Shift=    0.000
 RMSDP=1.43D-04 MaxDP=1.62D-02 DE=-1.31D-01 OVMax= 9.00D-02

 Cycle   6  Pass 1  IDiag  1:
 RMSU=  9.23D-05    CP:  9.51D-01  1.38D+00  6.04D-01  5.37D-01  6.90D-01
 E= -4069.12679188412     Delta-E=       -0.009912290050 Rises=F Damp=F
 DIIS: error= 4.94D-04 at cycle   6 NSaved=   6.
 NSaved= 6 IEnMin= 6 EnMin= -4069.12679188412     IErMin= 6 ErrMin= 4.94D-04
 ErrMax= 4.94D-04  0.00D+00 EMaxC= 1.00D-01 BMatC= 1.16D-03 BMatP= 9.70D-03
 IDIUse=3 WtCom= 9.95D-01 WtEn= 4.94D-03
 Coeff-Com:  0.203D-02-0.767D-02 0.950D-02 0.304D-01 0.269D+00 0.697D+00
 Coeff-En:   0.000D+00 0.000D+00 0.000D+00 0.000D+00 0.948D-01 0.905D+00
 Coeff:      0.202D-02-0.763D-02 0.945D-02 0.303D-01 0.268D+00 0.698D+00
 Gap=     0.096 Goal=   None    Shift=    0.000
 RMSDP=5.30D-05 MaxDP=5.89D-03 DE=-9.91D-03 OVMax= 2.63D-02

 Cycle   7  Pass 1  IDiag  1:
 RMSU=  3.94D-05    CP:  9.50D-01  1.38D+00  6.11D-01  5.27D-01  8.22D-01
                    CP:  8.01D-01
 E= -4069.12804131669     Delta-E=       -0.001249432564 Rises=F Damp=F
 DIIS: error= 2.02D-04 at cycle   7 NSaved=   7.
 NSaved= 7 IEnMin= 7 EnMin= -4069.12804131669     IErMin= 7 ErrMin= 2.02D-04
 ErrMax= 2.02D-04  0.00D+00 EMaxC= 1.00D-01 BMatC= 2.58D-04 BMatP= 1.16D-03
 IDIUse=3 WtCom= 9.98D-01 WtEn= 2.02D-03
 Coeff-Com:  0.842D-02-0.185D-01-0.189D-01-0.183D-01 0.103D+00 0.426D+00
 Coeff-Com:  0.518D+00
 Coeff-En:   0.000D+00 0.000D+00 0.000D+00 0.000D+00 0.000D+00 0.000D+00
 Coeff-En:   0.100D+01
 Coeff:      0.840D-02-0.184D-01-0.189D-01-0.183D-01 0.103D+00 0.425D+00
 Coeff:      0.519D+00
 Gap=     0.098 Goal=   None    Shift=    0.000
 RMSDP=2.34D-05 MaxDP=3.09D-03 DE=-1.25D-03 OVMax= 9.59D-03

 Cycle   8  Pass 1  IDiag  1:
 RMSU=  1.81D-05    CP:  9.50D-01  1.38D+00  6.13D-01  5.30D-01  8.32D-01
                    CP:  9.40D-01  8.32D-01
 E= -4069.12835371083     Delta-E=       -0.000312394142 Rises=F Damp=F
 DIIS: error= 7.57D-05 at cycle   8 NSaved=   8.
 NSaved= 8 IEnMin= 8 EnMin= -4069.12835371083     IErMin= 8 ErrMin= 7.57D-05
 ErrMax= 7.57D-05  0.00D+00 EMaxC= 1.00D-01 BMatC= 2.59D-05 BMatP= 2.58D-04
 IDIUse=1 WtCom= 1.00D+00 WtEn= 0.00D+00
 Coeff-Com:  0.381D-02-0.764D-02-0.101D-01-0.154D-01 0.789D-02 0.797D-01
 Coeff-Com:  0.254D+00 0.688D+00
 Coeff:      0.381D-02-0.764D-02-0.101D-01-0.154D-01 0.789D-02 0.797D-01
 Coeff:      0.254D+00 0.688D+00
 Gap=     0.098 Goal=   None    Shift=    0.000
 RMSDP=1.07D-05 MaxDP=1.13D-03 DE=-3.12D-04 OVMax= 5.04D-03

 Cycle   9  Pass 1  IDiag  1:
 RMSU=  6.41D-06    CP:  9.50D-01  1.38D+00  6.13D-01  5.32D-01  8.46D-01
                    CP:  9.77D-01  1.01D+00  1.06D+00
 E= -4069.12840738862     Delta-E=       -0.000053677792 Rises=F Damp=F
 DIIS: error= 4.88D-05 at cycle   9 NSaved=   9.
 NSaved= 9 IEnMin= 9 EnMin= -4069.12840738862     IErMin= 9 ErrMin= 4.88D-05
 ErrMax= 4.88D-05  0.00D+00 EMaxC= 1.00D-01 BMatC= 7.87D-06 BMatP= 2.59D-05
 IDIUse=1 WtCom= 1.00D+00 WtEn= 0.00D+00
 Coeff-Com:  0.318D-03-0.176D-03-0.135D-02-0.603D-02-0.238D-01-0.797D-01
 Coeff-Com:  0.247D-01 0.405D+00 0.681D+00
 Coeff:      0.318D-03-0.176D-03-0.135D-02-0.603D-02-0.238D-01-0.797D-01
 Coeff:      0.247D-01 0.405D+00 0.681D+00
 Gap=     0.098 Goal=   None    Shift=    0.000
 RMSDP=7.70D-06 MaxDP=1.00D-03 DE=-5.37D-05 OVMax= 3.54D-03

 Cycle  10  Pass 1  IDiag  1:
 RMSU=  3.48D-06    CP:  9.50D-01  1.38D+00  6.13D-01  5.34D-01  8.55D-01
                    CP:  1.01D+00  1.09D+00  1.32D+00  1.01D+00
 E= -4069.12842736746     Delta-E=       -0.000019978837 Rises=F Damp=F
 DIIS: error= 1.55D-05 at cycle  10 NSaved=  10.
 NSaved=10 IEnMin=10 EnMin= -4069.12842736746     IErMin=10 ErrMin= 1.55D-05
 ErrMax= 1.55D-05  0.00D+00 EMaxC= 1.00D-01 BMatC= 1.68D-06 BMatP= 7.87D-06
 IDIUse=1 WtCom= 1.00D+00 WtEn= 0.00D+00
 Coeff-Com: -0.687D-03 0.159D-02 0.185D-02 0.328D-03-0.121D-01-0.654D-01
 Coeff-Com: -0.401D-01 0.276D-01 0.326D+00 0.761D+00
 Coeff:     -0.687D-03 0.159D-02 0.185D-02 0.328D-03-0.121D-01-0.654D-01
 Coeff:     -0.401D-01 0.276D-01 0.326D+00 0.761D+00
 Gap=     0.098 Goal=   None    Shift=    0.000
 RMSDP=4.19D-06 MaxDP=6.51D-04 DE=-2.00D-05 OVMax= 1.90D-03

 Cycle  11  Pass 1  IDiag  1:
 RMSU=  1.86D-06    CP:  9.50D-01  1.38D+00  6.13D-01  5.35D-01  8.59D-01
                    CP:  1.02D+00  1.14D+00  1.43D+00  1.26D+00  1.27D+00
 E= -4069.12843221071     Delta-E=       -0.000004843248 Rises=F Damp=F
 DIIS: error= 9.04D-06 at cycle  11 NSaved=  11.
 NSaved=11 IEnMin=11 EnMin= -4069.12843221071     IErMin=11 ErrMin= 9.04D-06
 ErrMax= 9.04D-06  0.00D+00 EMaxC= 1.00D-01 BMatC= 4.56D-07 BMatP= 1.68D-06
 IDIUse=1 WtCom= 1.00D+00 WtEn= 0.00D+00
 Coeff-Com: -0.423D-03 0.832D-03 0.144D-02 0.159D-02 0.116D-02-0.171D-01
 Coeff-Com: -0.223D-01-0.888D-01 0.152D-01 0.388D+00 0.721D+00
 Coeff:     -0.423D-03 0.832D-03 0.144D-02 0.159D-02 0.116D-02-0.171D-01
 Coeff:     -0.223D-01-0.888D-01 0.152D-01 0.388D+00 0.721D+00
 Gap=     0.098 Goal=   None    Shift=    0.000
 RMSDP=2.14D-06 MaxDP=2.84D-04 DE=-4.84D-06 OVMax= 1.00D-03

 Cycle  12  Pass 1  IDiag  1:
 RMSU=  9.35D-07    CP:  9.50D-01  1.38D+00  6.13D-01  5.36D-01  8.60D-01
                    CP:  1.03D+00  1.16D+00  1.48D+00  1.35D+00  1.60D+00
                    CP:  1.22D+00
 E= -4069.12843350249     Delta-E=       -0.000001291784 Rises=F Damp=F
 DIIS: error= 3.87D-06 at cycle  12 NSaved=  12.
 NSaved=12 IEnMin=12 EnMin= -4069.12843350249     IErMin=12 ErrMin= 3.87D-06
 ErrMax= 3.87D-06  0.00D+00 EMaxC= 1.00D-01 BMatC= 1.54D-07 BMatP= 4.56D-07
 IDIUse=1 WtCom= 1.00D+00 WtEn= 0.00D+00
 Coeff-Com: -0.459D-04 0.498D-04 0.355D-03 0.544D-03 0.394D-02 0.377D-02
 Coeff-Com:  0.206D-02-0.423D-01-0.416D-01-0.590D-02 0.350D+00 0.729D+00
 Coeff:     -0.459D-04 0.498D-04 0.355D-03 0.544D-03 0.394D-02 0.377D-02
 Coeff:      0.206D-02-0.423D-01-0.416D-01-0.590D-02 0.350D+00 0.729D+00
 Gap=     0.098 Goal=   None    Shift=    0.000
 RMSDP=1.09D-06 MaxDP=1.34D-04 DE=-1.29D-06 OVMax= 5.22D-04

 Cycle  13  Pass 1  IDiag  1:
 RMSU=  4.76D-07    CP:  9.50D-01  1.38D+00  6.13D-01  5.36D-01  8.60D-01
                    CP:  1.03D+00  1.17D+00  1.49D+00  1.40D+00  1.75D+00
                    CP:  1.55D+00  1.30D+00
 E= -4069.12843397206     Delta-E=       -0.000000469565 Rises=F Damp=F
 DIIS: error= 3.49D-06 at cycle  13 NSaved=  13.
 NSaved=13 IEnMin=13 EnMin= -4069.12843397206     IErMin=13 ErrMin= 3.49D-06
 ErrMax= 3.49D-06  0.00D+00 EMaxC= 1.00D-01 BMatC= 6.46D-08 BMatP= 1.54D-07
 IDIUse=1 WtCom= 1.00D+00 WtEn= 0.00D+00
 Coeff-Com:  0.127D-03-0.268D-03-0.260D-03-0.325D-03 0.247D-02 0.744D-02
 Coeff-Com:  0.112D-01 0.583D-02-0.232D-01-0.179D+00-0.556D-01 0.346D+00
 Coeff-Com:  0.885D+00
 Coeff:      0.127D-03-0.268D-03-0.260D-03-0.325D-03 0.247D-02 0.744D-02
 Coeff:      0.112D-01 0.583D-02-0.232D-01-0.179D+00-0.556D-01 0.346D+00
 Coeff:      0.885D+00
 Gap=     0.098 Goal=   None    Shift=    0.000
 RMSDP=1.15D-06 MaxDP=1.48D-04 DE=-4.70D-07 OVMax= 6.12D-04

 Cycle  14  Pass 1  IDiag  1:
 RMSU=  3.27D-07    CP:  9.50D-01  1.38D+00  6.13D-01  5.36D-01  8.60D-01
                    CP:  1.03D+00  1.17D+00  1.51D+00  1.44D+00  1.92D+00
                    CP:  1.85D+00  1.86D+00  1.58D+00
 E= -4069.12843427801     Delta-E=       -0.000000305950 Rises=F Damp=F
 DIIS: error= 2.33D-06 at cycle  14 NSaved=  14.
 NSaved=14 IEnMin=14 EnMin= -4069.12843427801     IErMin=14 ErrMin= 2.33D-06
 ErrMax= 2.33D-06  0.00D+00 EMaxC= 1.00D-01 BMatC= 2.68D-08 BMatP= 6.46D-08
 IDIUse=1 WtCom= 1.00D+00 WtEn= 0.00D+00
 Coeff-Com:  0.936D-04-0.181D-03-0.241D-03-0.446D-03 0.161D-03 0.128D-02
 Coeff-Com:  0.640D-02 0.170D-01 0.128D-01-0.996D-01-0.134D+00-0.129D+00
 Coeff-Com:  0.465D+00 0.860D+00
 Coeff:      0.936D-04-0.181D-03-0.241D-03-0.446D-03 0.161D-03 0.128D-02
 Coeff:      0.640D-02 0.170D-01 0.128D-01-0.996D-01-0.134D+00-0.129D+00
 Coeff:      0.465D+00 0.860D+00
 Gap=     0.098 Goal=   None    Shift=    0.000
 RMSDP=8.11D-07 MaxDP=9.12D-05 DE=-3.06D-07 OVMax= 4.60D-04

 Cycle  15  Pass 1  IDiag  1:
 RMSU=  1.96D-07    CP:  9.50D-01  1.38D+00  6.13D-01  5.37D-01  8.60D-01
                    CP:  1.03D+00  1.17D+00  1.51D+00  1.46D+00  2.01D+00
                    CP:  2.07D+00  2.25D+00  2.27D+00  1.43D+00
 E= -4069.12843441639     Delta-E=       -0.000000138385 Rises=F Damp=F
 DIIS: error= 1.60D-06 at cycle  15 NSaved=  15.
 NSaved=15 IEnMin=15 EnMin= -4069.12843441639     IErMin=15 ErrMin= 1.60D-06
 ErrMax= 1.60D-06  0.00D+00 EMaxC= 1.00D-01 BMatC= 1.23D-08 BMatP= 2.68D-08
 IDIUse=1 WtCom= 1.00D+00 WtEn= 0.00D+00
 Coeff-Com: -0.463D-05 0.173D-04 0.190D-04-0.128D-03-0.850D-03-0.357D-02
 Coeff-Com: -0.130D-02 0.280D-02 0.222D-01 0.226D-01-0.244D-01-0.257D+00
 Coeff-Com: -0.193D+00 0.511D+00 0.922D+00
 Coeff:     -0.463D-05 0.173D-04 0.190D-04-0.128D-03-0.850D-03-0.357D-02
 Coeff:     -0.130D-02 0.280D-02 0.222D-01 0.226D-01-0.244D-01-0.257D+00
 Coeff:     -0.193D+00 0.511D+00 0.922D+00
 Gap=     0.098 Goal=   None    Shift=    0.000
 RMSDP=6.92D-07 MaxDP=7.58D-05 DE=-1.38D-07 OVMax= 4.00D-04

 Cycle  16  Pass 1  IDiag  1:
 RMSU=  1.13D-07    CP:  9.50D-01  1.38D+00  6.13D-01  5.37D-01  8.61D-01
                    CP:  1.04D+00  1.18D+00  1.52D+00  1.48D+00  2.08D+00
                    CP:  2.23D+00  2.58D+00  2.87D+00  2.16D+00  1.45D+00
 E= -4069.12843448038     Delta-E=       -0.000000063988 Rises=F Damp=F
 DIIS: error= 8.64D-07 at cycle  16 NSaved=  16.
 NSaved=16 IEnMin=16 EnMin= -4069.12843448038     IErMin=16 ErrMin= 8.64D-07
 ErrMax= 8.64D-07  0.00D+00 EMaxC= 1.00D-01 BMatC= 3.37D-09 BMatP= 1.23D-08
 IDIUse=1 WtCom= 1.00D+00 WtEn= 0.00D+00
 Coeff-Com: -0.364D-04 0.753D-04 0.116D-03 0.655D-04-0.403D-03-0.280D-02
 Coeff-Com: -0.267D-02-0.599D-02 0.968D-02 0.435D-01 0.417D-01-0.103D+00
 Coeff-Com: -0.268D+00 0.269D-01 0.486D+00 0.774D+00
 Coeff:     -0.364D-04 0.753D-04 0.116D-03 0.655D-04-0.403D-03-0.280D-02
 Coeff:     -0.267D-02-0.599D-02 0.968D-02 0.435D-01 0.417D-01-0.103D+00
 Coeff:     -0.268D+00 0.269D-01 0.486D+00 0.774D+00
 Gap=     0.098 Goal=   None    Shift=    0.000
 RMSDP=3.17D-07 MaxDP=3.07D-05 DE=-6.40D-08 OVMax= 1.85D-04

 Cycle  17  Pass 1  IDiag  1:
 RMSU=  9.78D-08    CP:  9.50D-01  1.38D+00  6.13D-01  5.37D-01  8.61D-01
                    CP:  1.04D+00  1.18D+00  1.52D+00  1.48D+00  2.11D+00
                    CP:  2.30D+00  2.71D+00  3.00D+00  2.52D+00  1.86D+00
                    CP:  1.40D+00
 E= -4069.12843449571     Delta-E=       -0.000000015330 Rises=F Damp=F
 DIIS: error= 5.38D-07 at cycle  17 NSaved=  17.
 NSaved=17 IEnMin=17 EnMin= -4069.12843449571     IErMin=17 ErrMin= 5.38D-07
 ErrMax= 5.38D-07  0.00D+00 EMaxC= 1.00D-01 BMatC= 1.03D-09 BMatP= 3.37D-09
 IDIUse=1 WtCom= 1.00D+00 WtEn= 0.00D+00
 Coeff-Com: -0.185D-04 0.361D-04 0.646D-04 0.545D-04 0.123D-03-0.517D-03
 Coeff-Com: -0.722D-03-0.405D-02-0.359D-03 0.142D-01 0.292D-01 0.135D-01
 Coeff-Com: -0.843D-01-0.108D+00-0.165D-01 0.341D+00 0.816D+00
 Coeff:     -0.185D-04 0.361D-04 0.646D-04 0.545D-04 0.123D-03-0.517D-03
 Coeff:     -0.722D-03-0.405D-02-0.359D-03 0.142D-01 0.292D-01 0.135D-01
 Coeff:     -0.843D-01-0.108D+00-0.165D-01 0.341D+00 0.816D+00
 Gap=     0.098 Goal=   None    Shift=    0.000
 RMSDP=1.49D-07 MaxDP=1.48D-05 DE=-1.53D-08 OVMax= 9.15D-05

 Cycle  18  Pass 1  IDiag  1:
 RMSU=  3.97D-08    CP:  9.50D-01  1.38D+00  6.13D-01  5.37D-01  8.61D-01
                    CP:  1.04D+00  1.18D+00  1.52D+00  1.49D+00  2.12D+00
                    CP:  2.32D+00  2.77D+00  3.00D+00  2.71D+00  2.11D+00
                    CP:  1.85D+00  1.64D+00
 E= -4069.12843449970     Delta-E=       -0.000000003987 Rises=F Damp=F
 DIIS: error= 3.00D-07 at cycle  18 NSaved=  18.
 NSaved=18 IEnMin=18 EnMin= -4069.12843449970     IErMin=18 ErrMin= 3.00D-07
 ErrMax= 3.00D-07  0.00D+00 EMaxC= 1.00D-01 BMatC= 4.29D-10 BMatP= 1.03D-09
 IDIUse=1 WtCom= 1.00D+00 WtEn= 0.00D+00
 Coeff-Com:  0.158D-05-0.418D-05 0.306D-05-0.482D-05 0.269D-03 0.584D-03
 Coeff-Com:  0.690D-03-0.189D-03-0.282D-02-0.704D-02 0.270D-02 0.383D-01
 Coeff-Com:  0.434D-01-0.541D-01-0.174D+00-0.102D+00 0.428D+00 0.826D+00
 Coeff:      0.158D-05-0.418D-05 0.306D-05-0.482D-05 0.269D-03 0.584D-03
 Coeff:      0.690D-03-0.189D-03-0.282D-02-0.704D-02 0.270D-02 0.383D-01
 Coeff:      0.434D-01-0.541D-01-0.174D+00-0.102D+00 0.428D+00 0.826D+00
 Gap=     0.098 Goal=   None    Shift=    0.000
 RMSDP=8.35D-08 MaxDP=6.84D-06 DE=-3.99D-09 OVMax= 4.83D-05

 Cycle  19  Pass 1  IDiag  1:
 RMSU=  2.43D-08    CP:  9.50D-01  1.38D+00  6.13D-01  5.37D-01  8.61D-01
                    CP:  1.04D+00  1.18D+00  1.52D+00  1.49D+00  2.12D+00
                    CP:  2.34D+00  2.80D+00  3.00D+00  2.81D+00  2.27D+00
                    CP:  2.13D+00  2.06D+00  1.23D+00
 E= -4069.12843450089     Delta-E=       -0.000000001193 Rises=F Damp=F
 DIIS: error= 2.18D-07 at cycle  19 NSaved=  19.
 NSaved=19 IEnMin=19 EnMin= -4069.12843450089     IErMin=19 ErrMin= 2.18D-07
 ErrMax= 2.18D-07  0.00D+00 EMaxC= 1.00D-01 BMatC= 1.72D-10 BMatP= 4.29D-10
 IDIUse=1 WtCom= 1.00D+00 WtEn= 0.00D+00
 Coeff-Com:  0.401D-05-0.817D-05-0.894D-05-0.205D-04 0.116D-03 0.306D-03
 Coeff-Com:  0.506D-03 0.756D-03-0.111D-02-0.662D-02-0.615D-02 0.115D-01
 Coeff-Com:  0.392D-01 0.902D-02-0.760D-01-0.149D+00-0.494D-01 0.375D+00
 Coeff-Com:  0.852D+00
 Coeff:      0.401D-05-0.817D-05-0.894D-05-0.205D-04 0.116D-03 0.306D-03
 Coeff:      0.506D-03 0.756D-03-0.111D-02-0.662D-02-0.615D-02 0.115D-01
 Coeff:      0.392D-01 0.902D-02-0.760D-01-0.149D+00-0.494D-01 0.375D+00
 Coeff:      0.852D+00
 Gap=     0.098 Goal=   None    Shift=    0.000
 RMSDP=5.72D-08 MaxDP=5.97D-06 DE=-1.19D-09 OVMax= 3.44D-05

 Cycle  20  Pass 1  IDiag  1:
 RMSU=  1.30D-08    CP:  9.50D-01  1.38D+00  6.13D-01  5.37D-01  8.61D-01
                    CP:  1.04D+00  1.18D+00  1.52D+00  1.49D+00  2.13D+00
                    CP:  2.34D+00  2.82D+00  3.00D+00  2.88D+00  2.36D+00
                    CP:  2.33D+00  2.33D+00  1.60D+00  1.62D+00
 E= -4069.12843450170     Delta-E=       -0.000000000811 Rises=F Damp=F
 DIIS: error= 1.11D-07 at cycle  20 NSaved=  20.
 NSaved=20 IEnMin=20 EnMin= -4069.12843450170     IErMin=20 ErrMin= 1.11D-07
 ErrMax= 1.11D-07  0.00D+00 EMaxC= 1.00D-01 BMatC= 5.97D-11 BMatP= 1.72D-10
 IDIUse=1 WtCom= 1.00D+00 WtEn= 0.00D+00
 Coeff-Com:  0.871D-06-0.143D-05-0.165D-05-0.128D-04-0.260D-04-0.163D-03
 Coeff-Com:  0.893D-05 0.270D-03 0.746D-03 0.124D-03-0.306D-02-0.102D-01
 Coeff-Com:  0.923D-03 0.307D-01 0.335D-01-0.324D-01-0.193D+00-0.152D+00
 Coeff-Com:  0.454D+00 0.871D+00
 Coeff:      0.871D-06-0.143D-05-0.165D-05-0.128D-04-0.260D-04-0.163D-03
 Coeff:      0.893D-05 0.270D-03 0.746D-03 0.124D-03-0.306D-02-0.102D-01
 Coeff:      0.923D-03 0.307D-01 0.335D-01-0.324D-01-0.193D+00-0.152D+00
 Coeff:      0.454D+00 0.871D+00
 Gap=     0.098 Goal=   None    Shift=    0.000
 RMSDP=2.90D-08 MaxDP=1.94D-06 DE=-8.11D-10 OVMax= 1.58D-05

 Cycle  21  Pass 1  IDiag  1:
 Restarting incremental Fock formation.
 E= -4069.12843450193     Delta-E=       -0.000000000226 Rises=F Damp=F
 DIIS: error= 6.60D-08 at cycle  21 NSaved=  20.
 NSaved=20 IEnMin=20 EnMin= -4069.12843450193     IErMin=20 ErrMin= 6.60D-08
 ErrMax= 6.60D-08  0.00D+00 EMaxC= 1.00D-01 BMatC= 2.10D-11 BMatP= 5.97D-11
 IDIUse=1 WtCom= 1.00D+00 WtEn= 0.00D+00
 Coeff-Com:  0.198D-06 0.457D-06-0.508D-05-0.483D-04-0.206D-03-0.119D-03
 Coeff-Com: -0.693D-04 0.817D-03 0.205D-02-0.322D-03-0.107D-01-0.128D-01
 Coeff-Com:  0.167D-01 0.441D-01 0.303D-01-0.991D-01-0.233D+00-0.229D-01
 Coeff-Com:  0.545D+00 0.741D+00
 Coeff:      0.198D-06 0.457D-06-0.508D-05-0.483D-04-0.206D-03-0.119D-03
 Coeff:     -0.693D-04 0.817D-03 0.205D-02-0.322D-03-0.107D-01-0.128D-01
 Coeff:      0.167D-01 0.441D-01 0.303D-01-0.991D-01-0.233D+00-0.229D-01
 Coeff:      0.545D+00 0.741D+00
 Gap=     0.098 Goal=   None    Shift=    0.000
 RMSDP=2.14D-08 MaxDP=1.85D-06 DE=-2.26D-10 OVMax= 1.28D-05

 Cycle  22  Pass 1  IDiag  1:
 RMSU=  2.14D-08    CP:  1.00D+00
 E= -4069.12843450217     Delta-E=       -0.000000000244 Rises=F Damp=F
 DIIS: error= 2.62D-08 at cycle  22 NSaved=  20.
 NSaved=20 IEnMin=20 EnMin= -4069.12843450217     IErMin=20 ErrMin= 2.62D-08
 ErrMax= 2.62D-08  0.00D+00 EMaxC= 1.00D-01 BMatC= 4.34D-12 BMatP= 2.10D-11
 IDIUse=1 WtCom= 1.00D+00 WtEn= 0.00D+00
 Coeff-Com:  0.649D-06 0.580D-09-0.111D-04-0.604D-04-0.391D-04-0.151D-03
 Coeff-Com:  0.193D-03 0.913D-03 0.880D-03-0.216D-02-0.628D-02 0.868D-04
 Coeff-Com:  0.114D-01 0.266D-01 0.114D-01-0.769D-01-0.164D+00 0.723D-02
 Coeff-Com:  0.380D+00 0.812D+00
 Coeff:      0.649D-06 0.580D-09-0.111D-04-0.604D-04-0.391D-04-0.151D-03
 Coeff:      0.193D-03 0.913D-03 0.880D-03-0.216D-02-0.628D-02 0.868D-04
 Coeff:      0.114D-01 0.266D-01 0.114D-01-0.769D-01-0.164D+00 0.723D-02
 Coeff:      0.380D+00 0.812D+00
 Gap=     0.098 Goal=   None    Shift=    0.000
 RMSDP=9.65D-09 MaxDP=7.04D-07 DE=-2.44D-10 OVMax= 5.51D-06

 SCF Done:  E(RCAM-B3LYP) =  -4069.12843450     A.U. after   22 cycles
            NFock= 22  Conv=0.96D-08     -V/T= 2.0093
 KE= 4.031663139500D+03 PE=-4.290990990330D+04 EE= 1.809473007594D+04
 Leave Link  502 at Wed Sep  8 22:32:33 2021, MaxMem= 23488102400 cpu:           28847.7 elap:            1238.7
 (Enter /sw/apps/gaussian-16.0/g16/l801.exe)
 DoSCS=F DFT=T ScalE2(SS,OS)=  1.000000  1.000000
 ExpMin= 3.36D-02 ExpMax= 4.95D+03 ExpMxC= 7.45D+02 IAcc=3 IRadAn=         5 AccDes= 0.00D+00
 HarFok:  IExCor=  205 AccDes= 0.00D+00 IRadAn=         5 IDoV=-2 UseB2=F ITyADJ=14
 ICtDFT= 12500011 ScaDFX=  1.000000  1.000000  1.000000  1.000000
 GSVD:  LWork=       -9588 too small for GESVD, short by       45590 words or       45590 for optimal perf.
 Largest valence mixing into a core orbital is  2.36D-04
 Largest core mixing into a valence orbital is  7.19D-05
 Range of M.O.s used for correlation:    95  1572
 NBasis=  1572 NAE=   312 NBE=   312 NFC=    94 NFV=     0
 NROrb=   1478 NOA=   218 NOB=   218 NVA=  1260 NVB=  1260

 **** Warning!!: The smallest alpha delta epsilon is  0.98478764D-01

 Leave Link  801 at Wed Sep  8 22:32:34 2021, MaxMem= 23488102400 cpu:               8.7 elap:               0.4
 (Enter /sw/apps/gaussian-16.0/g16/l914.exe)
 RHF ground state
 Two-electron integrals replicated using symmetry.
 MDV= 23488102400 DFT=T DoStab=F Mixed=T DoRPA=T DoScal=F NonHer=T
 Making orbital integer symmetry assigments:
 Orbital symmetries:
       Occupied  (A) (A) (A) (A) (A) (A) (A) (A) (A) (A) (A) (A)
                 (A) (A) (A) (A) (A) (A) (A) (A) (A) (A) (A) (A)
                 (A) (A) (A) (A) (A) (A) (A) (A) (A) (A) (A) (A)
                 (A) (A) (A) (A) (A) (A) (A) (A) (A) (A) (A) (A)
                 (A) (A) (A) (A) (A) (A) (A) (A) (A) (A) (A) (A)
                 (A) (A) (A) (A) (A) (A) (A) (A) (A) (A) (A) (A)
                 (A) (A) (A) (A) (A) (A) (A) (A) (A) (A) (A) (A)
                 (A) (A) (A) (A) (A) (A) (A) (A) (A) (A) (A) (A)
                 (A) (A) (A) (A) (A) (A) (A) (A) (A) (A) (A) (A)
                 (A) (A) (A) (A) (A) (A) (A) (A) (A) (A) (A) (A)
                 (A) (A) (A) (A) (A) (A) (A) (A) (A) (A) (A) (A)
                 (A) (A) (A) (A) (A) (A) (A) (A) (A) (A) (A) (A)
                 (A) (A) (A) (A) (A) (A) (A) (A) (A) (A) (A) (A)
                 (A) (A) (A) (A) (A) (A) (A) (A) (A) (A) (A) (A)
                 (A) (A) (A) (A) (A) (A) (A) (A) (A) (A) (A) (A)
                 (A) (A) (A) (A) (A) (A) (A) (A) (A) (A) (A) (A)
                 (A) (A) (A) (A) (A) (A) (A) (A) (A) (A) (A) (A)
                 (A) (A) (A) (A) (A) (A) (A) (A) (A) (A) (A) (A)
                 (A) (A) (A) (A) (A) (A) (A) (A) (A) (A) (A) (A)
                 (A) (A) (A) (A) (A) (A) (A) (A) (A) (A) (A) (A)
                 (A) (A) (A) (A) (A) (A) (A) (A) (A) (A) (A) (A)
                 (A) (A) (A) (A) (A) (A) (A) (A) (A) (A) (A) (A)
                 (A) (A) (A) (A) (A) (A) (A) (A) (A) (A) (A) (A)
                 (A) (A) (A) (A) (A) (A) (A) (A) (A) (A) (A) (A)
                 (A) (A) (A) (A) (A) (A) (A) (A) (A) (A) (A) (A)
                 (A) (A) (A) (A) (A) (A) (A) (A) (A) (A) (A) (A)
       Virtual   (A) (A) (A) (A) (A) (A) (A) (A) (A) (A) (A) (A)
                 (A) (A) (A) (A) (A) (A) (A) (A) (A) (A) (A) (A)
                 (A) (A) (A) (A) (A) (A) (A) (A) (A) (A) (A) (A)
                 (A) (A) (A) (A) (A) (A) (A) (A) (A) (A) (A) (A)
                 (A) (A) (A) (A) (A) (A) (A) (A) (A) (A) (A) (A)
                 (A) (A) (A) (A) (A) (A) (A) (A) (A) (A) (A) (A)
                 (A) (A) (A) (A) (A) (A) (A) (A) (A) (A) (A) (A)
                 (A) (A) (A) (A) (A) (A) (A) (A) (A) (A) (A) (A)
                 (A) (A) (A) (A) (A) (A) (A) (A) (A) (A) (A) (A)
                 (A) (A) (A) (A) (A) (A) (A) (A) (A) (A) (A) (A)
                 (A) (A) (A) (A) (A) (A) (A) (A) (A) (A) (A) (A)
                 (A) (A) (A) (A) (A) (A) (A) (A) (A) (A) (A) (A)
                 (A) (A) (A) (A) (A) (A) (A) (A) (A) (A) (A) (A)
                 (A) (A) (A) (A) (A) (A) (A) (A) (A) (A) (A) (A)
                 (A) (A) (A) (A) (A) (A) (A) (A) (A) (A) (A) (A)
                 (A) (A) (A) (A) (A) (A) (A) (A) (A) (A) (A) (A)
                 (A) (A) (A) (A) (A) (A) (A) (A) (A) (A) (A) (A)
                 (A) (A) (A) (A) (A) (A) (A) (A) (A) (A) (A) (A)
                 (A) (A) (A) (A) (A) (A) (A) (A) (A) (A) (A) (A)
                 (A) (A) (A) (A) (A) (A) (A) (A) (A) (A) (A) (A)
                 (A) (A) (A) (A) (A) (A) (A) (A) (A) (A) (A) (A)
                 (A) (A) (A) (A) (A) (A) (A) (A) (A) (A) (A) (A)
                 (A) (A) (A) (A) (A) (A) (A) (A) (A) (A) (A) (A)
                 (A) (A) (A) (A) (A) (A) (A) (A) (A) (A) (A) (A)
                 (A) (A) (A) (A) (A) (A) (A) (A) (A) (A) (A) (A)
                 (A) (A) (A) (A) (A) (A) (A) (A) (A) (A) (A) (A)
                 (A) (A) (A) (A) (A) (A) (A) (A) (A) (A) (A) (A)
                 (A) (A) (A) (A) (A) (A) (A) (A) (A) (A) (A) (A)
                 (A) (A) (A) (A) (A) (A) (A) (A) (A) (A) (A) (A)
                 (A) (A) (A) (A) (A) (A) (A) (A) (A) (A) (A) (A)
                 (A) (A) (A) (A) (A) (A) (A) (A) (A) (A) (A) (A)
                 (A) (A) (A) (A) (A) (A) (A) (A) (A) (A) (A) (A)
                 (A) (A) (A) (A) (A) (A) (A) (A) (A) (A) (A) (A)
                 (A) (A) (A) (A) (A) (A) (A) (A) (A) (A) (A) (A)
                 (A) (A) (A) (A) (A) (A) (A) (A) (A) (A) (A) (A)
                 (A) (A) (A) (A) (A) (A) (A) (A) (A) (A) (A) (A)
                 (A) (A) (A) (A) (A) (A) (A) (A) (A) (A) (A) (A)
                 (A) (A) (A) (A) (A) (A) (A) (A) (A) (A) (A) (A)
                 (A) (A) (A) (A) (A) (A) (A) (A) (A) (A) (A) (A)
                 (A) (A) (A) (A) (A) (A) (A) (A) (A) (A) (A) (A)
                 (A) (A) (A) (A) (A) (A) (A) (A) (A) (A) (A) (A)
                 (A) (A) (A) (A) (A) (A) (A) (A) (A) (A) (A) (A)
                 (A) (A) (A) (A) (A) (A) (A) (A) (A) (A) (A) (A)
                 (A) (A) (A) (A) (A) (A) (A) (A) (A) (A) (A) (A)
                 (A) (A) (A) (A) (A) (A) (A) (A) (A) (A) (A) (A)
                 (A) (A) (A) (A) (A) (A) (A) (A) (A) (A) (A) (A)
                 (A) (A) (A) (A) (A) (A) (A) (A) (A) (A) (A) (A)
                 (A) (A) (A) (A) (A) (A) (A) (A) (A) (A) (A) (A)
                 (A) (A) (A) (A) (A) (A) (A) (A) (A) (A) (A) (A)
                 (A) (A) (A) (A) (A) (A) (A) (A) (A) (A) (A) (A)
                 (A) (A) (A) (A) (A) (A) (A) (A) (A) (A) (A) (A)
                 (A) (A) (A) (A) (A) (A) (A) (A) (A) (A) (A) (A)
                 (A) (A) (A) (A) (A) (A) (A) (A) (A) (A) (A) (A)
                 (A) (A) (A) (A) (A) (A) (A) (A) (A) (A) (A) (A)
                 (A) (A) (A) (A) (A) (A) (A) (A) (A) (A) (A) (A)
                 (A) (A) (A) (A) (A) (A) (A) (A) (A) (A) (A) (A)
                 (A) (A) (A) (A) (A) (A) (A) (A) (A) (A) (A) (A)
                 (A) (A) (A) (A) (A) (A) (A) (A) (A) (A) (A) (A)
                 (A) (A) (A) (A) (A) (A) (A) (A) (A) (A) (A) (A)
                 (A) (A) (A) (A) (A) (A) (A) (A) (A) (A) (A) (A)
                 (A) (A) (A) (A) (A) (A) (A) (A) (A) (A) (A) (A)
                 (A) (A) (A) (A) (A) (A) (A) (A) (A) (A) (A) (A)
                 (A) (A) (A) (A) (A) (A) (A) (A) (A) (A) (A) (A)
                 (A) (A) (A) (A) (A) (A) (A) (A) (A) (A) (A) (A)
                 (A) (A) (A) (A) (A) (A) (A) (A) (A) (A) (A) (A)
                 (A) (A) (A) (A) (A) (A) (A) (A) (A) (A) (A) (A)
                 (A) (A) (A) (A) (A) (A) (A) (A) (A) (A) (A) (A)
                 (A) (A) (A) (A) (A) (A) (A) (A) (A) (A) (A) (A)
                 (A) (A) (A) (A) (A) (A) (A) (A) (A) (A) (A) (A)
                 (A) (A) (A) (A) (A) (A) (A) (A) (A) (A) (A) (A)
                 (A) (A) (A) (A) (A) (A) (A) (A) (A) (A) (A) (A)
                 (A) (A) (A) (A) (A) (A) (A) (A) (A) (A) (A) (A)
                 (A) (A) (A) (A) (A) (A) (A) (A) (A) (A) (A) (A)
                 (A) (A) (A) (A) (A) (A) (A) (A) (A) (A) (A) (A)
                 (A) (A) (A) (A) (A) (A) (A) (A) (A) (A) (A) (A)
                 (A) (A) (A) (A) (A) (A) (A) (A) (A) (A) (A) (A)
                 (A) (A) (A) (A) (A) (A) (A) (A) (A) (A) (A) (A)
                 (A) (A) (A) (A) (A) (A) (A) (A) (A) (A) (A) (A)
                 (A) (A) (A) (A) (A) (A) (A) (A) (A) (A) (A) (A)
                 (A) (A) (A) (A) (A) (A) (A) (A) (A) (A) (A) (A)
                 (A) (A) (A) (A) (A) (A) (A) (A) (A) (A) (A) (A)
                 (A) (A) (A) (A) (A) (A) (A) (A) (A) (A) (A) (A)
                 (A) (A) (A) (A) (A) (A) (A) (A) (A) (A) (A) (A)
                 (A) (A) (A) (A) (A) (A) (A) (A) (A) (A) (A) (A)
                 (A) (A) (A) (A) (A) (A) (A) (A) (A) (A) (A) (A)
                 (A) (A) (A) (A) (A) (A) (A) (A) (A) (A) (A) (A)
                 (A) (A) (A) (A) (A) (A) (A) (A) (A) (A) (A) (A)
                 (A) (A) (A) (A) (A) (A) (A) (A) (A) (A) (A) (A)
                 (A) (A) (A) (A) (A) (A) (A) (A) (A) (A) (A) (A)
                 (A) (A) (A) (A) (A) (A) (A) (A) (A) (A) (A) (A)
                 (A) (A) (A) (A) (A) (A) (A) (A) (A) (A) (A) (A)
                 (A) (A) (A) (A) (A) (A) (A) (A) (A) (A) (A) (A)
                 (A) (A) (A) (A) (A) (A) (A) (A) (A) (A) (A) (A)
                 (A) (A) (A) (A) (A) (A) (A) (A) (A) (A) (A) (A)
                 (A) (A) (A) (A) (A) (A) (A) (A) (A) (A) (A) (A)
                 (A) (A) (A) (A) (A) (A) (A) (A) (A) (A) (A) (A)
                 (A) (A) (A) (A) (A) (A) (A) (A) (A) (A) (A) (A)
                 (A) (A) (A) (A) (A) (A) (A) (A) (A) (A) (A) (A)
                 (A) (A) (A) (A) (A) (A) (A) (A) (A) (A) (A) (A)
                 (A) (A) (A) (A) (A) (A) (A) (A) (A) (A) (A) (A)
                 (A) (A) (A) (A) (A) (A) (A) (A) (A) (A) (A) (A)
                 (A) (A) (A) (A) (A) (A) (A) (A) (A) (A) (A) (A)
                 (A) (A) (A) (A) (A) (A) (A) (A) (A) (A) (A) (A)
                 (A) (A) (A) (A) (A) (A) (A) (A) (A) (A) (A) (A)
                 (A) (A) (A) (A) (A) (A) (A) (A) (A) (A) (A) (A)
    20 initial guesses have been made.
 Convergence on wavefunction:    0.001000000000000
 Davidson Disk Diagonalization:  ConvIn= 1.00D-03 SkipCon=T Conv= 1.00D-03.
 Max sub-space:  2000 roots to seek:    20 dimension of matrix:       549360
 Iteration     1 Dimension    20 NMult     0 NNew     20
 CISAX will form    20 AO SS matrices at one time.
 NMat=    20 NSing=    20 JSym2X= 0.
 FoFJK:  IHMeth= 1 ICntrl=       0 DoSepK=T KAlg= 0 I1Cent=           0 FoldK=F
 IRaf=         1 NMat=      40 IRICut=       1 DoRegI=T DoRafI=F ISym2E= 0 IDoP0=3 IntGTp=3.
 FoFCou: FMM=T IPFlag=           0 FMFlag=      100000 FMFlg1=        2001
         NFxFlg=           0 DoJE=F BraDBF=F KetDBF=F FulRan=T
         wScrn=  0.000000 ICntrl=       500 IOpCl=  0 I1Cent=           0 NGrid=           0
         NMat0=   20 NMatS0=     20 NMatT0=    0 NMatD0=   20 NMtDS0=    0 NMtDT0=    0
 Symmetry not used in FoFCou.
 FMM levels:  10  Number of levels for PrismC:   9
 New state      3 was old state      9
 New state      4 was old state      3
 New state      5 was old state      6
 Excitation Energies [eV] at current iteration:
 Root      1 :     1.464466276966252
 Root      2 :     1.624643668105911
 Root      3 :     2.025056020454536
 Root      4 :     2.216180586290724
 Root      5 :     2.588871883500258
 Root      6 :     2.685824326249200
 Root      7 :     2.720076016968733
 Root      8 :     2.751549321681560
 Root      9 :     2.981843525340468
 Root     10 :     3.130987922248943
 Root     11 :     3.377165163194463
 Root     12 :     3.508462093457088
 Root     13 :     3.590992045949728
 Root     14 :     3.804605469055499
 Root     15 :     3.959347192137659
 Root     16 :     3.998272228237882
 Root     17 :     4.084203804469487
 Root     18 :     4.253931921528578
 Root     19 :     4.387954009749959
 Root     20 :     4.474070721329620
 Iteration     2 Dimension    30 NMult    20 NNew     10
 CISAX will form    10 AO SS matrices at one time.
 NMat=    10 NSing=    10 JSym2X= 0.
 Root      1 not converged, maximum delta is    0.133613199223721
 Root      2 not converged, maximum delta is    0.061425490474496
 Root      3 not converged, maximum delta is    0.106604915364479
 New state      4 was old state      5
 Root      4 not converged, maximum delta is    0.464970293529362
 New state      5 was old state      4
 Root      5 not converged, maximum delta is    0.094349327874281
 Excitation Energies [eV] at current iteration:
 Root      1 :     0.921917231134808   Change is   -0.542549045831444
 Root      2 :     1.607722789578749   Change is   -0.016920878527162
 Root      3 :     1.623324890350724   Change is   -0.401731130103812
 Root      4 :     1.853541531427741   Change is   -0.735330352072516
 Root      5 :     2.182810499246100   Change is   -0.033370087044624
 Iteration     3 Dimension    40 NMult    30 NNew     10
 CISAX will form    10 AO SS matrices at one time.
 NMat=    10 NSing=    10 JSym2X= 0.
 Root      1 not converged, maximum delta is    0.041877378158819
 New state      2 was old state      3
 Root      2 not converged, maximum delta is    0.060319792003706
 New state      3 was old state      2
 Root      3 not converged, maximum delta is    0.108226540981886
 Root      4 not converged, maximum delta is    0.108336334568014
 Root      5 not converged, maximum delta is    0.118293925760375
[...]
 Alpha virt. eigenvalues --    1.85206   1.85433   1.85667   1.85722   1.85857
 Alpha virt. eigenvalues --    1.86087   1.86139   1.86415   1.86626   1.86746
 Alpha virt. eigenvalues --    1.86844   1.87103   1.87180   1.87231   1.87418
 Alpha virt. eigenvalues --    1.87453   1.87526   1.87948   1.88139   1.88281
 Alpha virt. eigenvalues --    1.88518   1.88559   1.88968   1.89089   1.89132
 Alpha virt. eigenvalues --    1.89323   1.89384   1.89463   1.89717   1.90047
 Alpha virt. eigenvalues --    1.90280   1.90414   1.90561   1.90878   1.90990
 Alpha virt. eigenvalues --    1.91331   1.91558   1.91691   1.91777   1.91869
 Alpha virt. eigenvalues --    1.92062   1.92190   1.92666   1.92876   1.93054
 Alpha virt. eigenvalues --    1.93284   1.93470   1.93672   1.93922   1.94194
 Alpha virt. eigenvalues --    1.94660   1.94864   1.95087   1.95309   1.95591
 Alpha virt. eigenvalues --    1.95882   1.96008   1.96209   1.96567   1.96618
 Alpha virt. eigenvalues --    1.96816   1.96908   1.97068   1.97425   1.97483
 Alpha virt. eigenvalues --    1.97835   1.98032   1.98189   1.98371   1.98752
 Alpha virt. eigenvalues --    1.99160   1.99264   1.99512   1.99654   2.00090
 Alpha virt. eigenvalues --    2.00558   2.00900   2.01107   2.01328   2.01406
 Alpha virt. eigenvalues --    2.01723   2.01795   2.02071   2.02275   2.02735
 Alpha virt. eigenvalues --    2.02888   2.03190   2.03468   2.03501   2.03607
 Alpha virt. eigenvalues --    2.03751   2.04143   2.04549   2.04754   2.04804
 Alpha virt. eigenvalues --    2.05166   2.05401   2.05564   2.05772   2.06072
 Alpha virt. eigenvalues --    2.06210   2.06454   2.06940   2.07312   2.07799
 Alpha virt. eigenvalues --    2.08076   2.08766   2.08850   2.09007   2.09179
 Alpha virt. eigenvalues --    2.09780   2.09844   2.09923   2.10364   2.10996
 Alpha virt. eigenvalues --    2.11338   2.11747   2.11932   2.12152   2.12271
 Alpha virt. eigenvalues --    2.12677   2.12926   2.13079   2.13205   2.13577
 Alpha virt. eigenvalues --    2.13680   2.14004   2.14234   2.14383   2.14725
 Alpha virt. eigenvalues --    2.15025   2.15370   2.15619   2.15804   2.16022
 Alpha virt. eigenvalues --    2.16579   2.16654   2.16877   2.17143   2.17476
 Alpha virt. eigenvalues --    2.17634   2.17867   2.18189   2.18429   2.18556
 Alpha virt. eigenvalues --    2.18619   2.18870   2.19024   2.19250   2.19323
 Alpha virt. eigenvalues --    2.19600   2.19948   2.20265   2.20438   2.20849
 Alpha virt. eigenvalues --    2.21196   2.21315   2.21508   2.21606   2.21964
 Alpha virt. eigenvalues --    2.22174   2.22681   2.22708   2.23214   2.23734
 Alpha virt. eigenvalues --    2.23747   2.23971   2.24681   2.24894   2.25297
 Alpha virt. eigenvalues --    2.25513   2.26202   2.26700   2.27094   2.27391
 Alpha virt. eigenvalues --    2.27564   2.27710   2.28239   2.28520   2.28906
 Alpha virt. eigenvalues --    2.29580   2.30024   2.30203   2.30549   2.30890
 Alpha virt. eigenvalues --    2.31207   2.31512   2.31656   2.32038   2.32093
 Alpha virt. eigenvalues --    2.32446   2.33019   2.33488   2.33633   2.34077
 Alpha virt. eigenvalues --    2.34240   2.34315   2.35094   2.35142   2.35529
 Alpha virt. eigenvalues --    2.35889   2.36531   2.36730   2.36961   2.37132
 Alpha virt. eigenvalues --    2.37566   2.37788   2.37930   2.38278   2.38520
 Alpha virt. eigenvalues --    2.38773   2.38947   2.39593   2.40098   2.40176
 Alpha virt. eigenvalues --    2.40723   2.40980   2.41314   2.41830   2.42071
 Alpha virt. eigenvalues --    2.42180   2.42402   2.42467   2.43003   2.43090
 Alpha virt. eigenvalues --    2.43212   2.43410   2.44128   2.44397   2.44664
 Alpha virt. eigenvalues --    2.44993   2.45518   2.45590   2.45784   2.46090
 Alpha virt. eigenvalues --    2.46364   2.46408   2.46779   2.47025   2.47384
 Alpha virt. eigenvalues --    2.47576   2.47728   2.48111   2.48394   2.48671
 Alpha virt. eigenvalues --    2.49225   2.49576   2.49608   2.50013   2.50477
 Alpha virt. eigenvalues --    2.50859   2.51237   2.51272   2.51413   2.51928
 Alpha virt. eigenvalues --    2.52203   2.52484   2.52771   2.53213   2.53957
 Alpha virt. eigenvalues --    2.54358   2.54501   2.54895   2.54942   2.55348
 Alpha virt. eigenvalues --    2.55428   2.55918   2.56221   2.56593   2.57135
 Alpha virt. eigenvalues --    2.58504   2.58687   2.58824   2.59015   2.59467
 Alpha virt. eigenvalues --    2.59987   2.60452   2.61244   2.62044   2.62094
 Alpha virt. eigenvalues --    2.62357   2.62389   2.62954   2.63365   2.63621
 Alpha virt. eigenvalues --    2.64670   2.64836   2.64986   2.65084   2.65411
 Alpha virt. eigenvalues --    2.65995   2.66233   2.67018   2.67412   2.67550
 Alpha virt. eigenvalues --    2.67778   2.68010   2.68412   2.68702   2.68939
 Alpha virt. eigenvalues --    2.69459   2.69548   2.69767   2.70128   2.70623
 Alpha virt. eigenvalues --    2.71074   2.71378   2.71786   2.72022   2.72455
 Alpha virt. eigenvalues --    2.73014   2.73262   2.73346   2.73869   2.73957
 Alpha virt. eigenvalues --    2.74154   2.74472   2.74807   2.75100   2.75541
 Alpha virt. eigenvalues --    2.76056   2.76339   2.76903   2.77217   2.77499
 Alpha virt. eigenvalues --    2.77776   2.78088   2.78379   2.78470   2.78821
 Alpha virt. eigenvalues --    2.79017   2.79323   2.79999   2.80193   2.80386
 Alpha virt. eigenvalues --    2.80685   2.81150   2.81305   2.81530   2.81869
 Alpha virt. eigenvalues --    2.82103   2.82492   2.82797   2.83297   2.83513
 Alpha virt. eigenvalues --    2.83798   2.84139   2.84369   2.84451   2.85029
 Alpha virt. eigenvalues --    2.85329   2.85684   2.85978   2.86404   2.86848
 Alpha virt. eigenvalues --    2.87008   2.87367   2.87673   2.88132   2.88596
 Alpha virt. eigenvalues --    2.88694   2.89136   2.89425   2.89594   2.90142
 Alpha virt. eigenvalues --    2.90919   2.91431   2.92192   2.92367   2.93119
 Alpha virt. eigenvalues --    2.93664   2.94107   2.94309   2.94977   2.95569
 Alpha virt. eigenvalues --    2.95887   2.96212   2.96622   2.96759   2.97132
 Alpha virt. eigenvalues --    2.97496   2.97927   2.98351   2.98497   2.98916
 Alpha virt. eigenvalues --    2.98953   2.99105   2.99293   2.99574   2.99748
 Alpha virt. eigenvalues --    3.00079   3.00149   3.00212   3.00502   3.00627
 Alpha virt. eigenvalues --    3.00852   3.01258   3.01810   3.01891   3.02276
 Alpha virt. eigenvalues --    3.02514   3.02844   3.03019   3.03118   3.03612
 Alpha virt. eigenvalues --    3.03854   3.03981   3.04434   3.04781   3.04844
 Alpha virt. eigenvalues --    3.05059   3.05256   3.05496   3.05908   3.06075
 Alpha virt. eigenvalues --    3.06513   3.06927   3.07455   3.07569   3.08167
 Alpha virt. eigenvalues --    3.08273   3.08821   3.09500   3.09831   3.10010
 Alpha virt. eigenvalues --    3.10378   3.10764   3.11225   3.11844   3.11966
 Alpha virt. eigenvalues --    3.12221   3.12284   3.12611   3.13193   3.13798
 Alpha virt. eigenvalues --    3.13978   3.14278   3.14522   3.14915   3.16013
 Alpha virt. eigenvalues --    3.16237   3.16825   3.17122   3.18010   3.18352
 Alpha virt. eigenvalues --    3.18834   3.19322   3.20279   3.20542   3.21342
 Alpha virt. eigenvalues --    3.22614   3.22980   3.24457   3.24876   3.25082
 Alpha virt. eigenvalues --    3.25453   3.26361   3.27075   3.27332   3.28114
 Alpha virt. eigenvalues --    3.29248   3.29601   3.30555   3.31159   3.32021
 Alpha virt. eigenvalues --    3.32365   3.33788   3.34240   3.37265   3.38693
 Alpha virt. eigenvalues --    3.41135   3.43382   3.43729   3.47979   3.49229
 Alpha virt. eigenvalues --    3.49572   3.50661   3.50846   3.51815   3.51914
 Alpha virt. eigenvalues --    3.55399   3.57413   3.57464   3.59791   3.61763
 Alpha virt. eigenvalues --    3.62738   3.63048   3.66470   3.66729   3.67509
 Alpha virt. eigenvalues --    3.72512   3.73542   3.76018   3.76211   3.78728
          Condensed to atoms (all electrons):
 Mulliken charges:
               1
     1  Mg   0.558939
     2  C    0.001446
     3  C   -0.102172
     4  C   -0.056532
     5  C   -0.025626
     6  N   -0.244528
     7  C   -0.058347
     8  C   -0.014125
     9  C   -0.083236
    10  C    0.041048
    11  C    0.105899
    12  C    0.052983
    13  C   -0.071237
    14  H    0.035576
    15  N   -0.432656
    16  C    0.165779
    17  C   -0.181043
    18  C   -0.013522
    19  C    0.146042
    20  C    0.111774
    21  C    0.005363
    22  O   -0.259340
    23  C    0.063897
    24  N   -0.288300
    25  C   -0.015888
    26  C    0.024397
    27  C   -0.022066
    28  C   -0.029365
    29  C    0.093511
    30  C    0.080751
    31  C   -0.002059
    32  N   -0.277826
    33  C    0.141496
    34  C   -0.285122
    35  C   -0.015078
    36  C    0.080090
    37  C    0.337293
    38  C    0.040613
    39  O   -0.180987
    40  C   -0.010446
    41  C    0.210336
    42  O   -0.243976
    43  O   -0.306740
    44  C    0.157768
    45  H   -0.022641
    46  H   -0.020686
    47  H   -0.038989
    48  H   -0.001160
    49  H   -0.005475
    50  H    0.021993
    51  H    0.015109
    52  H    0.014814
    53  H    0.012645
    54  H    0.046404
    55  H    0.016639
    56  H    0.017570
    57  H    0.004515
    58  H    0.023248
    59  H    0.035498
    60  H    0.037310
    61  H    0.031125
    62  H    0.028411
    63  H    0.011765
    64  H    0.014948
    65  H    0.023782
    66  H    0.018491
    67  H    0.002665
    68  H    0.005048
    69  H    0.010406
    70  H    0.005379
    71  H    0.023184
    72  H    0.117906
    73  H    0.039339
    74  H    0.010325
    75  H    0.026121
    76  H    0.035422
    77  H    0.041862
    78  H    0.046274
    79  H    0.055838
    80  Mg   0.837338
    81  C   -0.020450
    82  C   -0.087581
    83  C   -0.046537
    84  C   -0.066470
    85  N   -0.256348
    86  C   -0.027550
    87  C   -0.039883
    88  C   -0.093699
    89  C    0.049321
    90  C    0.117953
    91  C    0.179493
    92  C   -0.199584
    93  H    0.279459
    94  N   -0.423100
    95  C    0.161975
    96  C   -0.175174
    97  C   -0.009107
    98  C    0.151907
    99  C    0.098643
   100  C    0.014571
   101  O   -0.254655
   102  C    0.061851
   103  N   -0.350257
   104  C    0.037060
   105  C   -0.019378
   106  C   -0.034653
   107  C    0.089223
   108  C    0.074163
   109  C    0.035052
   110  C   -0.007505
   111  N   -0.324044
   112  C    0.079307
   113  C   -0.163022
   114  C    0.002765
   115  C    0.096568
   116  C    0.131144
   117  C    0.045057
   118  O   -0.189664
   119  C    0.006771
   120  C    0.228238
   121  O   -0.242685
   122  O   -0.303590
   123  C    0.149322
   124  H   -0.017595
   125  H   -0.017093
   126  H   -0.041862
   127  H   -0.006115
   128  H    0.005720
   129  H    0.017575
   130  H    0.013018
   131  H    0.016670
   132  H    0.023691
   133  H    0.065031
   134  H   -0.145457
   135  H    0.066172
   136  H    0.012415
   137  H    0.025030
   138  H    0.036359
   139  H    0.038063
   140  H    0.034805
   141  H    0.032520
   142  H    0.013425
   143  H    0.011357
   144  H    0.023990
   145  H    0.011396
   146  H    0.004627
   147  H    0.005072
   148  H    0.003086
   149  H    0.010174
   150  H    0.017029
   151  H    0.031421
   152  H    0.046575
   153  H    0.007817
   154  H    0.045238
   155  H    0.029470
   156  H    0.029357
   157  H   -0.034498
   158  H    0.053406
 Sum of Mulliken charges =  -0.00000
 Mulliken charges with hydrogens summed into heavy atoms:
               1
     1  Mg   0.558939
     2  C    0.001446
     3  C   -0.124813
     4  C   -0.077218
     5  C   -0.064615
     6  N   -0.244528
     7  C   -0.058347
     8  C   -0.015285
     9  C   -0.088711
    10  C    0.041048
    11  C    0.157815
    12  C    0.112032
    13  C   -0.001452
    15  N   -0.432656
    16  C    0.165779
    17  C   -0.181043
    18  C   -0.013522
    19  C    0.146042
    20  C    0.175034
    21  C    0.005363
    22  O   -0.259340
    23  C    0.160742
    24  N   -0.008841
    25  C   -0.015888
    26  C    0.036162
    27  C   -0.007117
    28  C   -0.029365
    29  C    0.138448
    30  C    0.096205
    31  C    0.144410
    32  N   -0.277826
    33  C    0.141496
    34  C   -0.285122
    35  C   -0.015078
    36  C    0.080090
    37  C    0.413077
    38  C    0.040613
    39  O   -0.180987
    40  C    0.024976
    41  C    0.210336
    42  O   -0.243976
    43  O   -0.306740
    44  C    0.301742
    80  Mg   0.837338
    81  C   -0.020450
    82  C   -0.105176
    83  C   -0.063630
    84  C   -0.108332
    85  N   -0.256348
    86  C   -0.027550
    87  C   -0.045998
    88  C   -0.087979
    89  C    0.049321
    90  C    0.165216
    91  C    0.268215
    92  C   -0.278869
    94  N   -0.423100
    95  C    0.161975
    96  C   -0.175174
    97  C   -0.009107
    98  C    0.151907
    99  C    0.172447
   100  C    0.014571
   101  O   -0.254655
   102  C    0.167238
   103  N   -0.350257
   104  C    0.037060
   105  C   -0.005953
   106  C   -0.023297
   107  C    0.089223
   108  C    0.114176
   109  C    0.043211
   110  C    0.051119
   111  N   -0.324044
   112  C    0.079307
   113  C   -0.163022
   114  C    0.002765
   115  C    0.096568
   116  C    0.230774
   117  C    0.045057
   118  O   -0.189664
   119  C    0.036241
   120  C    0.228238
   121  O   -0.242685
   122  O   -0.303590
   123  C    0.197587
 Electronic spatial extent (au):  <R**2>=          83612.0680
 Charge=              0.0000 electrons
 Dipole moment (field-independent basis, Debye):
    X=             -3.3750    Y=              4.2485    Z=             -0.5789  Tot=              5.4567
 Quadrupole moment (field-independent basis, Debye-Ang):
   XX=           -497.5098   YY=           -543.0798   ZZ=           -468.9992
   XY=            -21.3909   XZ=             -3.5447   YZ=              2.2501
 Traceless Quadrupole moment (field-independent basis, Debye-Ang):
   XX=              5.6865   YY=            -39.8835   ZZ=             34.1971
   XY=            -21.3909   XZ=             -3.5447   YZ=              2.2501
 Octapole moment (field-independent basis, Debye-Ang**2):
  XXX=            -80.2283  YYY=            149.3552  ZZZ=             30.7399  XYY=            153.2635
  XXY=           -260.0958  XXZ=           -100.2249  XZZ=           -236.2522  YZZ=            -43.2643
  YYZ=            207.8169  XYZ=           -121.4080
 Hexadecapole moment (field-independent basis, Debye-Ang**3):
 XXXX=         -60482.3075 YYYY=         -33661.7316 ZZZZ=         -20348.4776 XXXY=          -2167.8635
 XXXZ=           -565.2567 YYYX=             80.2707 YYYZ=            256.4424 ZZZX=           -162.7221
 ZZZY=           -571.5066 XXYY=         -15726.6219 XXZZ=         -13252.4309 YYZZ=          -8559.5946
 XXYZ=           -174.3821 YYXZ=           -244.0448 ZZXY=             61.8911
 N-N= 1.671438825336D+04 E-N=-4.290990990280D+04  KE= 4.031663139500D+03
 Leave Link  601 at Wed Sep  8 23:24:15 2021, MaxMem= 23488102400 cpu:              15.2 elap:               0.8
 (Enter /sw/apps/gaussian-16.0/g16/l9999.exe)
 1\1\GINC-BP1-COMPUTE00116\SP\RCAM-B3LYP TD-FC\def2SVP\C68H72Mg2N8O8\OF
 15641\08-Sep-2021\0\\#p cam-b3lyp/Def2SVP td=(nstates=5)\\TDDFT excite
 d states in gaussian\\0,1\Mg,0,0.,0.,0.\C,0,-0.217,-2.218,2.801\C,0,-1
 .255,2.442,2.026\C,0,-0.245,1.85,-2.564\C,0,0.146,-2.824,-2.037\N,0,-0
 .617,-0.009,2.126\C,0,-0.594,-0.908,3.105\C,0,-0.936,-0.309,4.502\C,0,
 -1.773,0.964,4.032\C,0,-1.155,1.168,2.66\C,0,-3.263,0.685,3.863\C,0,0.
 345,0.11,5.299\C,0,0.124,0.397,6.787\H,0,1.168,0.033,7.733\N,0,-0.185,
 1.961,-0.152\C,0,-0.703,2.8,0.777\C,0,-0.62,4.156,0.193\C,0,-0.187,4.0
 15,-1.225\C,0,-0.214,2.583,-1.38\C,0,-0.887,5.406,0.974\C,0,0.181,5.01
 3,-2.277\O,0,0.303,4.69,-3.508\C,0,0.31,6.414,-1.837\N,0,-0.265,-0.413
 ,-2.029\C,0,-0.279,0.569,-2.937\C,0,-0.196,0.024,-4.332\C,0,0.124,-1.5
 33,-4.18\C,0,0.086,-1.632,-2.635\C,0,-1.451,0.205,-5.197\C,0,1.373,-2.
 07,-4.923\C,0,2.626,-1.49,-4.306\N,0,0.15,-2.144,0.303\C,0,0.173,-3.13
 6,-0.688\C,0,0.173,-4.438,0.004\C,0,0.133,-4.111,1.358\C,0,0.083,-2.69
 5,1.502\C,0,0.149,-5.715,-0.623\C,0,0.096,-4.629,2.716\O,0,0.208,-5.74
 7,3.221\C,0,-0.255,-3.428,3.701\C,0,0.717,-3.482,4.848\O,0,1.931,-3.25
 5,4.669\O,0,0.038,-3.556,6.003\C,0,0.943,-3.583,7.183\H,0,-1.859,3.22,
 2.497\H,0,-0.218,2.453,-3.474\H,0,0.276,-3.747,-2.605\H,0,-1.554,-0.94
 9,5.132\H,0,-1.585,1.831,4.665\H,0,-3.484,-0.377,3.969\H,0,-3.511,1.02
 7,2.858\H,0,-3.852,1.301,4.543\H,0,0.669,1.096,4.966\H,0,1.13,-0.639,5
 .189\H,0,-0.844,0.026,7.125\H,0,0.062,1.477,6.921\H,0,-1.344,5.186,1.9
 38\H,0,-1.651,5.963,0.432\H,0,0.007,6.02,1.084\H,0,-0.635,6.744,-1.405
 \H,0,0.665,6.97,-2.704\H,0,1.048,6.466,-1.036\H,0,0.608,0.501,-4.891\H
 ,0,-0.692,-2.156,-4.547\H,0,-1.267,0.74,-6.129\H,0,-2.204,0.714,-4.596
 \H,0,-1.967,-0.72,-5.453\H,0,1.356,-1.759,-5.967\H,0,1.452,-3.157,-4.9
 02\H,0,2.714,-0.522,-4.798\H,0,3.487,-2.121,-4.529\H,0,2.495,-1.303,-3
 .24\H,0,0.867,-6.333,-0.084\H,0,0.404,-5.642,-1.68\H,0,-0.891,-5.999,-
 0.463\H,0,-1.283,-3.581,4.028\H,0,0.698,-4.478,7.755\H,0,0.833,-2.619,
 7.68\H,0,2.,-3.754,6.976\Mg,0,7.87345,0.71286,0.60175\C,0,5.89667,-2.0
 8346,-0.47154\C,0,6.00527,2.64773,-1.49604\C,0,9.87772,3.1031,1.18233\
 C,0,10.26133,-1.57494,1.70165\N,0,6.19542,0.22934,-0.7557\C,0,5.4892,-
 0.856,-1.03434\C,0,4.23014,-0.59817,-1.90488\C,0,4.70097,0.76523,-2.61
 082\C,0,5.66962,1.27108,-1.54381\C,0,5.48077,0.53963,-3.89547\C,0,2.93
 939,-0.38095,-1.03955\C,0,1.62492,-0.43158,-1.82143\H,0,0.45079,-1.008
 38,-1.17243\N,0,7.65319,2.66708,0.3352\C,0,6.83398,3.28118,-0.54404\C,
 0,7.05765,4.7238,-0.36237\C,0,8.19495,4.90716,0.57977\C,0,8.64259,3.53
 629,0.72259\C,0,6.18006,5.76848,-0.9884\C,0,8.79021,6.1177,1.23282\O,0
 ,9.9242,6.07236,1.82852\C,0,8.05103,7.37858,1.07389\N,0,9.88034,0.7705
 8,1.1416\C,0,10.49764,1.94022,1.38409\C,0,11.84966,1.72183,2.02029\C,0
 ,11.90976,0.16418,2.37765\C,0,10.55873,-0.28508,1.77909\C,0,13.0574,2.
 09335,1.16022\C,0,12.2251,-0.20789,3.85237\C,0,11.08108,0.21258,4.7466
 8\N,0,7.99614,-1.43555,0.79496\C,0,9.09842,-2.18908,1.2546\C,0,8.74725
 ,-3.61527,1.09622\C,0,7.46396,-3.59224,0.52954\C,0,7.05312,-2.24671,0.
 32891\C,0,9.58836,-4.71919,1.41248\C,0,6.36778,-4.40027,0.04563\O,0,6.
 11135,-5.60358,0.04141\C,0,5.35583,-3.46025,-0.74095\C,0,3.96438,-3.77
 241,-0.26247\O,0,3.63074,-3.53184,0.91117\O,0,3.19783,-4.09838,-1.3191
 2\C,0,1.80542,-4.40579,-0.8966\H,0,5.63341,3.30015,-2.28658\H,0,10.564
 95,3.89042,1.50063\H,0,10.91249,-2.3498,2.11184\H,0,4.03278,-1.35574,-
 2.65382\H,0,3.87012,1.45582,-2.72973\H,0,5.69213,-0.5065,-4.06005\H,0,
 6.40069,1.09836,-3.78317\H,0,4.95432,0.99254,-4.74049\H,0,2.91177,0.66
 009,-0.69281\H,0,2.90351,-1.08,-0.22673\H,0,1.75765,-0.85661,-2.82377\
 H,0,1.29159,0.59245,-2.00653\H,0,5.52946,5.33783,-1.75954\H,0,6.83748,
 6.45098,-1.53781\H,0,5.61411,6.34068,-0.25019\H,0,7.94681,7.60515,0.01
 547\H,0,8.58509,8.10936,1.68433\H,0,7.0377,7.2421,1.46779\H,0,11.94444
 ,2.29588,2.93385\H,0,12.6942,-0.35472,1.80737\H,0,13.72315,2.83545,1.6
 3995\H,0,12.69824,2.46347,0.20914\H,0,13.6856,1.2564,0.86009\H,0,13.10
 685,0.33605,4.19994\H,0,12.42034,-1.26497,3.99886\H,0,11.28805,1.27102
 ,4.93095\H,0,11.08921,-0.35828,5.67302\H,0,10.12378,0.15139,4.21614\H,
 0,8.96933,-5.44683,1.92025\H,0,10.43083,-4.41323,2.02925\H,0,9.90187,-
 5.01928,0.40902\H,0,5.47834,-3.66497,-1.80521\H,0,1.57174,-5.40732,-1.
 2708\H,0,1.18713,-3.56993,-1.27449\H,0,1.61877,-4.5274,0.16397\\Versio
 n=ES64L-G16RevA.03\State=1-A\HF=-4069.1284345\RMSD=9.645e-09\PG=C01 [X
 (C68H72Mg2N8O8)]\\@


 "MATHEMATICS IS THE ART OF GIVING THE SAME NAME
 TO DIFFERENT THINGS."
                    - H. POINCARE
 Job cpu time:       1 days  4 hours 38 minutes 45.5 seconds.
 Elapsed time:       0 days  1 hours 12 minutes 36.2 seconds.
 File lengths (MBytes):  RWF=  13225 Int=      0 D2E=      0 Chk=    574 Scr=      1
 Normal termination of Gaussian 16 at Wed Sep  8 23:24:16 2021.
