 Entering Gaussian System, Link 0=g16
 Initial command:
 /sw/apps/gaussian-16.0/g16/l1.exe "/tmp/Gau-252511.inp" -scrdir="/tmp/"
 Entering Link 1 = /sw/apps/gaussian-16.0/g16/l1.exe PID=    252512.
  
 Copyright (c) 1988,1990,1992,1993,1995,1998,2003,2009,2016,
            Gaussian, Inc.  All Rights Reserved.
  
 This is part of the Gaussian(R) 16 program.  It is based on
 the Gaussian(R) 09 system (copyright 2009, Gaussian, Inc.),
 the Gaussian(R) 03 system (copyright 2003, Gaussian, Inc.),
 the Gaussian(R) 98 system (copyright 1998, Gaussian, Inc.),
 the Gaussian(R) 94 system (copyright 1995, Gaussian, Inc.),
 the Gaussian 92(TM) system (copyright 1992, Gaussian, Inc.),
 the Gaussian 90(TM) system (copyright 1990, Gaussian, Inc.),
 the Gaussian 88(TM) system (copyright 1988, Gaussian, Inc.),
 the Gaussian 86(TM) system (copyright 1986, Carnegie Mellon
 University), and the Gaussian 82(TM) system (copyright 1983,
 Carnegie Mellon University). Gaussian is a federally registered
 trademark of Gaussian, Inc.
  
 This software contains proprietary and confidential information,
 including trade secrets, belonging to Gaussian, Inc.
  
 This software is provided under written license and may be
 used, copied, transmitted, or stored only in accord with that
 written license.
  
 The following legend is applicable only to US Government
 contracts under FAR:
  
                    RESTRICTED RIGHTS LEGEND
  
 Use, reproduction and disclosure by the US Government is
 subject to restrictions as set forth in subparagraphs (a)
 and (c) of the Commercial Computer Software - Restricted
 Rights clause in FAR 52.227-19.
  
 Gaussian, Inc.
 340 Quinnipiac St., Bldg. 40, Wallingford CT 06492
  
  
 ---------------------------------------------------------------
 Warning -- This program may not be used in any manner that
 competes with the business of Gaussian, Inc. or will provide
 assistance to any competitor of Gaussian, Inc.  The licensee
 of this program is prohibited from giving any competitor of
 Gaussian, Inc. access to this program.  By using this program,
 the user acknowledges that Gaussian, Inc. is engaged in the
 business of creating and licensing software in the field of
 computational chemistry and represents and warrants to the
 licensee that it is not a competitor of Gaussian, Inc. and that
 it will not use this program in any manner prohibited above.
 ---------------------------------------------------------------
  

 Cite this work as:
 Gaussian 16, Revision A.03,
 M. J. Frisch, G. W. Trucks, H. B. Schlegel, G. E. Scuseria, 
 M. A. Robb, J. R. Cheeseman, G. Scalmani, V. Barone, 
 G. A. Petersson, H. Nakatsuji, X. Li, M. Caricato, A. V. Marenich, 
 J. Bloino, B. G. Janesko, R. Gomperts, B. Mennucci, H. P. Hratchian, 
 J. V. Ortiz, A. F. Izmaylov, J. L. Sonnenberg, D. Williams-Young, 
 F. Ding, F. Lipparini, F. Egidi, J. Goings, B. Peng, A. Petrone, 
 T. Henderson, D. Ranasinghe, V. G. Zakrzewski, J. Gao, N. Rega, 
 G. Zheng, W. Liang, M. Hada, M. Ehara, K. Toyota, R. Fukuda, 
 J. Hasegawa, M. Ishida, T. Nakajima, Y. Honda, O. Kitao, H. Nakai, 
 T. Vreven, K. Throssell, J. A. Montgomery, Jr., J. E. Peralta, 
 F. Ogliaro, M. J. Bearpark, J. J. Heyd, E. N. Brothers, K. N. Kudin, 
 V. N. Staroverov, T. A. Keith, R. Kobayashi, J. Normand, 
 K. Raghavachari, A. P. Rendell, J. C. Burant, S. S. Iyengar, 
 J. Tomasi, M. Cossi, J. M. Millam, M. Klene, C. Adamo, R. Cammi, 
 J. W. Ochterski, R. L. Martin, K. Morokuma, O. Farkas, 
 J. B. Foresman, and D. J. Fox, Gaussian, Inc., Wallingford CT, 2016.
 
 ******************************************
 Gaussian 16:  ES64L-G16RevA.03 25-Dec-2016
                 9-Sep-2021 
 ******************************************
 %nproc=24
 Will use up to   24 processors via shared memory.
 %mem=175gb
 -----------------------------------
 #p cam-b3lyp/Def2SVP td=(nstates=5)
 -----------------------------------
 1/38=1,172=1/1;
 2/12=2,17=6,18=5,40=1/2;
 3/5=43,7=101,11=9,25=1,30=1,74=-40/1,2,3,8;
 4//1;
 5/5=2,38=5/2;
 8/6=1,10=1,108=5/1;
 9/41=5,42=1,70=2/14;
 6/7=2,8=2,9=2,10=2/1;
 99/5=1,9=1/99;
 Leave Link    1 at Thu Sep  9 21:21:21 2021, MaxMem= 23488102400 cpu:               1.0 elap:               0.1
 (Enter /sw/apps/gaussian-16.0/g16/l101.exe)
 --------------------------------
 TDDFT excited states in gaussian
 --------------------------------
 Symbolic Z-matrix:
 Charge =  0 Multiplicity = 1
 Mg                    0.        0.        0. 
 C                    -0.217    -2.218     2.801 
 C                    -1.255     2.442     2.026 
 C                    -0.245     1.85     -2.564 
 C                     0.146    -2.824    -2.037 
 N                    -0.617    -0.009     2.126 
 C                    -0.594    -0.908     3.105 
 C                    -0.936    -0.309     4.502 
 C                    -1.773     0.964     4.032 
 C                    -1.155     1.168     2.66 
 C                    -3.263     0.685     3.863 
 C                     0.345     0.11      5.299 
 C                     0.124     0.397     6.787 
 H                     1.168     0.033     7.733 
 N                    -0.185     1.961    -0.152 
 C                    -0.703     2.8       0.777 
 C                    -0.62      4.156     0.193 
 C                    -0.187     4.015    -1.225 
 C                    -0.214     2.583    -1.38 
 C                    -0.887     5.406     0.974 
 C                     0.181     5.013    -2.277 
 O                     0.303     4.69     -3.508 
 C                     0.31      6.414    -1.837 
 N                    -0.265    -0.413    -2.029 
 C                    -0.279     0.569    -2.937 
 C                    -0.196     0.024    -4.332 
 C                     0.124    -1.533    -4.18 
 C                     0.086    -1.632    -2.635 
 C                    -1.451     0.205    -5.197 
 C                     1.373    -2.07     -4.923 
 C                     2.626    -1.49     -4.306 
 N                     0.15     -2.144     0.303 
 C                     0.173    -3.136    -0.688 
 C                     0.173    -4.438     0.004 
 C                     0.133    -4.111     1.358 
 C                     0.083    -2.695     1.502 
 C                     0.149    -5.715    -0.623 
 C                     0.096    -4.629     2.716 
 O                     0.208    -5.747     3.221 
 C                    -0.255    -3.428     3.701 
 C                     0.717    -3.482     4.848 
 O                     1.931    -3.255     4.669 
 O                     0.038    -3.556     6.003 
 C                     0.943    -3.583     7.183 
 H                    -1.859     3.22      2.497 
 H                    -0.218     2.453    -3.474 
 H                     0.276    -3.747    -2.605 
 H                    -1.554    -0.949     5.132 
 H                    -1.585     1.831     4.665 
 H                    -3.484    -0.377     3.969 
 H                    -3.511     1.027     2.858 
 H                    -3.852     1.301     4.543 
 H                     0.669     1.096     4.966 
 H                     1.13     -0.639     5.189 
 H                    -0.844     0.026     7.125 
 H                     0.062     1.477     6.921 
 H                    -1.344     5.186     1.938 
 H                    -1.651     5.963     0.432 
 H                     0.007     6.02      1.084 
 H                    -0.635     6.744    -1.405 
 H                     0.665     6.97     -2.704 
 H                     1.048     6.466    -1.036 
 H                     0.608     0.501    -4.891 
 H                    -0.692    -2.156    -4.547 
 H                    -1.267     0.74     -6.129 
 H                    -2.204     0.714    -4.596 
 H                    -1.967    -0.72     -5.453 
 H                     1.356    -1.759    -5.967 
 H                     1.452    -3.157    -4.902 
 H                     2.714    -0.522    -4.798 
 H                     3.487    -2.121    -4.529 
 H                     2.495    -1.303    -3.24 
 H                     0.867    -6.333    -0.084 
 H                     0.404    -5.642    -1.68 
 H                    -0.891    -5.999    -0.463 
 H                    -1.283    -3.581     4.028 
 H                     0.698    -4.478     7.755 
 H                     0.833    -2.619     7.68 
 H                     2.       -3.754     6.976 
 Mg                    8.92532   0.80774   0.68331 
 C                     6.72857  -1.95802   0.04775 
 C                     6.73444   2.75552  -1.06049 
 C                     11.04876   3.16037   0.8368 
 C                     11.43248  -1.5177    1.35576 
 N                     7.01335   0.34358  -0.32723 
 C                     6.24654  -0.72941  -0.44987 
 C                     4.85171  -0.45529  -1.07347 
 C                     5.20798   0.88777  -1.87853 
 C                     6.36925   1.38615  -1.02077 
 C                     5.72837   0.62778  -3.28243 
 C                     3.75072  -0.19791   0.01446 
 C                     2.31215  -0.22973  -0.50636 
 H                     1.26973  -0.77159   0.36095 
 N                     8.69677   2.76265   0.42903 
 C                     7.73916   3.38303  -0.29166 
 C                     8.0208    4.82261  -0.18004 
 C                     9.31801   4.9932    0.52908 
 C                     9.75791   3.61473   0.60916 
 C                     7.06169   5.8781   -0.64854 
 C                     10.04853   6.1988    1.03806 
 O                     11.27306   6.13621   1.41148 
 C                     9.31717   7.47357   0.99866 
 N                     10.99859   0.82803   0.83658 
 C                     11.67293   1.98679   0.93891 
 C                     13.11583   1.7469    1.31426 
 C                     13.21179   0.19321   1.68088 
 C                     11.76401  -0.23386   1.35384 
 C                     14.14768   2.07999   0.23689 
 C                     13.791   -0.16608   3.07662 
 C                     12.84346   0.2916    4.16201 
 N                     9.04052  -1.3401    0.88718 
 C                     10.19469  -2.11175   1.14514 
 C                     9.79254  -3.53177   1.07999 
 C                     8.4264   -3.48777   0.76342 
 C                     8.0113   -2.13624   0.6201 
 C                     10.65655  -4.64979   1.2521 
 C                     7.24347  -4.27762   0.50744 
 O                     6.96759  -5.47488   0.57211 
 C                     6.12027  -3.32591  -0.09176 
 C                     4.83755  -3.60065   0.64422 
 O                     4.73478  -3.3371    1.85524 
 O                     3.88018  -3.92357  -0.24435 
 C                     2.58611  -4.19429   0.43676 
 H                     6.23354   3.40544  -1.77853 
 H                     11.7986   3.93639   1.00709 
 H                     12.13394  -2.3013    1.65003 
 H                     4.50272  -1.21821  -1.75898 
 H                     4.38309   1.59501  -1.85161 
 H                     5.88482  -0.42489  -3.4656 
 H                     6.66365   1.16738  -3.3541 
 H                     5.06156   1.08098  -4.02157 
 H                     3.80878   0.84801   0.3422 
 H                     3.85449  -0.88509   0.83155 
 H                     2.24619  -0.67094  -1.50833 
 H                     1.96987   0.7989   -0.6434 
 H                     6.26974   5.45178  -1.2766 
 H                     7.61741   6.53843  -1.32307 
 H                     6.65549   6.47253   0.17263 
 H                     9.0206    7.68827  -0.02526 
 H                     9.97032   8.20037   1.48554 
 H                     8.39331   7.36491   1.5777 
 H                     13.39143   2.33083   2.18384 
 H                     13.86511  -0.35056   0.9828 
 H                     14.90584   2.81344   0.57054 
 H                     13.62366   2.44528  -0.63632 
 H                     14.69211   1.22535  -0.1611 
 H                     14.73266   0.36271   3.24342 
 H                     13.98978  -1.22519   3.20217 
 H                     13.10175   1.34754   4.28594 
 H                     13.01423  -0.26689   5.08014 
 H                     11.80261   0.24463   3.82132 
 H                     10.12984  -5.35666   1.87933 
 H                     11.60554  -4.35444   1.69477 
 H                     10.77033  -4.97014   0.21301 
 H                     6.03691  -3.54748  -1.15644 
 H                     2.26705  -5.19528   0.13031 
 H                     1.92417  -3.35      0.16701 
 H                     2.59947  -4.29757   1.51547 
 
 ITRead=  0  0  0  0  0  0  0  0  0  0  0  0  0  0  0  0  0  0  0  0
 ITRead=  0  0  0  0  0  0  0  0  0  0  0  0  0  0  0  0  0  0  0  0
 ITRead=  0  0  0  0  0  0  0  0  0  0  0  0  0  0  0  0  0  0  0  0
 ITRead=  0  0  0  0  0  0  0  0  0  0  0  0  0  0  0  0  0  0  0  0
 ITRead=  0  0  0  0  0  0  0  0  0  0  0  0  0  0  0  0  0  0  0  0
 ITRead=  0  0  0  0  0  0  0  0  0  0  0  0  0  0  0  0  0  0  0  0
 ITRead=  0  0  0  0  0  0  0  0  0  0  0  0  0  0  0  0  0  0  0  0
 ITRead=  0  0  0  0  0  0  0  0  0  0  0  0  0  0  0  0  0  0
 MicOpt= -1 -1 -1 -1 -1 -1 -1 -1 -1 -1 -1 -1 -1 -1 -1 -1 -1 -1 -1 -1
 MicOpt= -1 -1 -1 -1 -1 -1 -1 -1 -1 -1 -1 -1 -1 -1 -1 -1 -1 -1 -1 -1
 MicOpt= -1 -1 -1 -1 -1 -1 -1 -1 -1 -1 -1 -1 -1 -1 -1 -1 -1 -1 -1 -1
 MicOpt= -1 -1 -1 -1 -1 -1 -1 -1 -1 -1 -1 -1 -1 -1 -1 -1 -1 -1 -1 -1
 MicOpt= -1 -1 -1 -1 -1 -1 -1 -1 -1 -1 -1 -1 -1 -1 -1 -1 -1 -1 -1 -1
 MicOpt= -1 -1 -1 -1 -1 -1 -1 -1 -1 -1 -1 -1 -1 -1 -1 -1 -1 -1 -1 -1
 MicOpt= -1 -1 -1 -1 -1 -1 -1 -1 -1 -1 -1 -1 -1 -1 -1 -1 -1 -1 -1 -1
 MicOpt= -1 -1 -1 -1 -1 -1 -1 -1 -1 -1 -1 -1 -1 -1 -1 -1 -1 -1
 NAtoms=    158 NQM=      158 NQMF=       0 NMMI=      0 NMMIF=      0
                NMic=       0 NMicF=      0.
                    Isotopes and Nuclear Properties:
 (Nuclear quadrupole moments (NQMom) in fm**2, nuclear magnetic moments (NMagM)
  in nuclear magnetons)

  Atom         1           2           3           4           5           6           7           8           9          10
 IAtWgt=          24          12          12          12          12          14          12          12          12          12
 AtmWgt=  23.9850450  12.0000000  12.0000000  12.0000000  12.0000000  14.0030740  12.0000000  12.0000000  12.0000000  12.0000000
 NucSpn=           0           0           0           0           0           2           0           0           0           0
 AtZEff=  -0.0000000  -0.0000000  -0.0000000  -0.0000000  -0.0000000  -0.0000000  -0.0000000  -0.0000000  -0.0000000  -0.0000000
 NQMom=    0.0000000   0.0000000   0.0000000   0.0000000   0.0000000   2.0440000   0.0000000   0.0000000   0.0000000   0.0000000
 NMagM=    0.0000000   0.0000000   0.0000000   0.0000000   0.0000000   0.4037610   0.0000000   0.0000000   0.0000000   0.0000000
 AtZNuc=  12.0000000   6.0000000   6.0000000   6.0000000   6.0000000   7.0000000   6.0000000   6.0000000   6.0000000   6.0000000

  Atom        11          12          13          14          15          16          17          18          19          20
 IAtWgt=          12          12          12           1          14          12          12          12          12          12
 AtmWgt=  12.0000000  12.0000000  12.0000000   1.0078250  14.0030740  12.0000000  12.0000000  12.0000000  12.0000000  12.0000000
 NucSpn=           0           0           0           1           2           0           0           0           0           0
 AtZEff=  -0.0000000  -0.0000000  -0.0000000  -0.0000000  -0.0000000  -0.0000000  -0.0000000  -0.0000000  -0.0000000  -0.0000000
 NQMom=    0.0000000   0.0000000   0.0000000   0.0000000   2.0440000   0.0000000   0.0000000   0.0000000   0.0000000   0.0000000
 NMagM=    0.0000000   0.0000000   0.0000000   2.7928460   0.4037610   0.0000000   0.0000000   0.0000000   0.0000000   0.0000000
 AtZNuc=   6.0000000   6.0000000   6.0000000   1.0000000   7.0000000   6.0000000   6.0000000   6.0000000   6.0000000   6.0000000

  Atom        21          22          23          24          25          26          27          28          29          30
 IAtWgt=          12          16          12          14          12          12          12          12          12          12
 AtmWgt=  12.0000000  15.9949146  12.0000000  14.0030740  12.0000000  12.0000000  12.0000000  12.0000000  12.0000000  12.0000000
 NucSpn=           0           0           0           2           0           0           0           0           0           0
 AtZEff=  -0.0000000  -0.0000000  -0.0000000  -0.0000000  -0.0000000  -0.0000000  -0.0000000  -0.0000000  -0.0000000  -0.0000000
 NQMom=    0.0000000   0.0000000   0.0000000   2.0440000   0.0000000   0.0000000   0.0000000   0.0000000   0.0000000   0.0000000
 NMagM=    0.0000000   0.0000000   0.0000000   0.4037610   0.0000000   0.0000000   0.0000000   0.0000000   0.0000000   0.0000000
 AtZNuc=   6.0000000   8.0000000   6.0000000   7.0000000   6.0000000   6.0000000   6.0000000   6.0000000   6.0000000   6.0000000

  Atom        31          32          33          34          35          36          37          38          39          40
 IAtWgt=          12          14          12          12          12          12          12          12          16          12
 AtmWgt=  12.0000000  14.0030740  12.0000000  12.0000000  12.0000000  12.0000000  12.0000000  12.0000000  15.9949146  12.0000000
 NucSpn=           0           2           0           0           0           0           0           0           0           0
 AtZEff=  -0.0000000  -0.0000000  -0.0000000  -0.0000000  -0.0000000  -0.0000000  -0.0000000  -0.0000000  -0.0000000  -0.0000000
 NQMom=    0.0000000   2.0440000   0.0000000   0.0000000   0.0000000   0.0000000   0.0000000   0.0000000   0.0000000   0.0000000
 NMagM=    0.0000000   0.4037610   0.0000000   0.0000000   0.0000000   0.0000000   0.0000000   0.0000000   0.0000000   0.0000000
 AtZNuc=   6.0000000   7.0000000   6.0000000   6.0000000   6.0000000   6.0000000   6.0000000   6.0000000   8.0000000   6.0000000

  Atom        41          42          43          44          45          46          47          48          49          50
 IAtWgt=          12          16          16          12           1           1           1           1           1           1
 AtmWgt=  12.0000000  15.9949146  15.9949146  12.0000000   1.0078250   1.0078250   1.0078250   1.0078250   1.0078250   1.0078250
 NucSpn=           0           0           0           0           1           1           1           1           1           1
 AtZEff=  -0.0000000  -0.0000000  -0.0000000  -0.0000000  -0.0000000  -0.0000000  -0.0000000  -0.0000000  -0.0000000  -0.0000000
 NQMom=    0.0000000   0.0000000   0.0000000   0.0000000   0.0000000   0.0000000   0.0000000   0.0000000   0.0000000   0.0000000
 NMagM=    0.0000000   0.0000000   0.0000000   0.0000000   2.7928460   2.7928460   2.7928460   2.7928460   2.7928460   2.7928460
 AtZNuc=   6.0000000   8.0000000   8.0000000   6.0000000   1.0000000   1.0000000   1.0000000   1.0000000   1.0000000   1.0000000

  Atom        51          52          53          54          55          56          57          58          59          60
 IAtWgt=           1           1           1           1           1           1           1           1           1           1
 AtmWgt=   1.0078250   1.0078250   1.0078250   1.0078250   1.0078250   1.0078250   1.0078250   1.0078250   1.0078250   1.0078250
 NucSpn=           1           1           1           1           1           1           1           1           1           1
 AtZEff=  -0.0000000  -0.0000000  -0.0000000  -0.0000000  -0.0000000  -0.0000000  -0.0000000  -0.0000000  -0.0000000  -0.0000000
 NQMom=    0.0000000   0.0000000   0.0000000   0.0000000   0.0000000   0.0000000   0.0000000   0.0000000   0.0000000   0.0000000
 NMagM=    2.7928460   2.7928460   2.7928460   2.7928460   2.7928460   2.7928460   2.7928460   2.7928460   2.7928460   2.7928460
 AtZNuc=   1.0000000   1.0000000   1.0000000   1.0000000   1.0000000   1.0000000   1.0000000   1.0000000   1.0000000   1.0000000

  Atom        61          62          63          64          65          66          67          68          69          70
 IAtWgt=           1           1           1           1           1           1           1           1           1           1
 AtmWgt=   1.0078250   1.0078250   1.0078250   1.0078250   1.0078250   1.0078250   1.0078250   1.0078250   1.0078250   1.0078250
 NucSpn=           1           1           1           1           1           1           1           1           1           1
 AtZEff=  -0.0000000  -0.0000000  -0.0000000  -0.0000000  -0.0000000  -0.0000000  -0.0000000  -0.0000000  -0.0000000  -0.0000000
 NQMom=    0.0000000   0.0000000   0.0000000   0.0000000   0.0000000   0.0000000   0.0000000   0.0000000   0.0000000   0.0000000
 NMagM=    2.7928460   2.7928460   2.7928460   2.7928460   2.7928460   2.7928460   2.7928460   2.7928460   2.7928460   2.7928460
 AtZNuc=   1.0000000   1.0000000   1.0000000   1.0000000   1.0000000   1.0000000   1.0000000   1.0000000   1.0000000   1.0000000

  Atom        71          72          73          74          75          76          77          78          79          80
 IAtWgt=           1           1           1           1           1           1           1           1           1          24
 AtmWgt=   1.0078250   1.0078250   1.0078250   1.0078250   1.0078250   1.0078250   1.0078250   1.0078250   1.0078250  23.9850450
 NucSpn=           1           1           1           1           1           1           1           1           1           0
 AtZEff=  -0.0000000  -0.0000000  -0.0000000  -0.0000000  -0.0000000  -0.0000000  -0.0000000  -0.0000000  -0.0000000  -0.0000000
 NQMom=    0.0000000   0.0000000   0.0000000   0.0000000   0.0000000   0.0000000   0.0000000   0.0000000   0.0000000   0.0000000
 NMagM=    2.7928460   2.7928460   2.7928460   2.7928460   2.7928460   2.7928460   2.7928460   2.7928460   2.7928460   0.0000000
 AtZNuc=   1.0000000   1.0000000   1.0000000   1.0000000   1.0000000   1.0000000   1.0000000   1.0000000   1.0000000  12.0000000

  Atom        81          82          83          84          85          86          87          88          89          90
 IAtWgt=          12          12          12          12          14          12          12          12          12          12
 AtmWgt=  12.0000000  12.0000000  12.0000000  12.0000000  14.0030740  12.0000000  12.0000000  12.0000000  12.0000000  12.0000000
 NucSpn=           0           0           0           0           2           0           0           0           0           0
 AtZEff=  -0.0000000  -0.0000000  -0.0000000  -0.0000000  -0.0000000  -0.0000000  -0.0000000  -0.0000000  -0.0000000  -0.0000000
 NQMom=    0.0000000   0.0000000   0.0000000   0.0000000   2.0440000   0.0000000   0.0000000   0.0000000   0.0000000   0.0000000
 NMagM=    0.0000000   0.0000000   0.0000000   0.0000000   0.4037610   0.0000000   0.0000000   0.0000000   0.0000000   0.0000000
 AtZNuc=   6.0000000   6.0000000   6.0000000   6.0000000   7.0000000   6.0000000   6.0000000   6.0000000   6.0000000   6.0000000

  Atom        91          92          93          94          95          96          97          98          99         100
 IAtWgt=          12          12           1          14          12          12          12          12          12          12
 AtmWgt=  12.0000000  12.0000000   1.0078250  14.0030740  12.0000000  12.0000000  12.0000000  12.0000000  12.0000000  12.0000000
 NucSpn=           0           0           1           2           0           0           0           0           0           0
 AtZEff=  -0.0000000  -0.0000000  -0.0000000  -0.0000000  -0.0000000  -0.0000000  -0.0000000  -0.0000000  -0.0000000  -0.0000000
 NQMom=    0.0000000   0.0000000   0.0000000   2.0440000   0.0000000   0.0000000   0.0000000   0.0000000   0.0000000   0.0000000
 NMagM=    0.0000000   0.0000000   2.7928460   0.4037610   0.0000000   0.0000000   0.0000000   0.0000000   0.0000000   0.0000000
 AtZNuc=   6.0000000   6.0000000   1.0000000   7.0000000   6.0000000   6.0000000   6.0000000   6.0000000   6.0000000   6.0000000

  Atom       101         102         103         104         105         106         107         108         109         110
 IAtWgt=          16          12          14          12          12          12          12          12          12          12
 AtmWgt=  15.9949146  12.0000000  14.0030740  12.0000000  12.0000000  12.0000000  12.0000000  12.0000000  12.0000000  12.0000000
 NucSpn=           0           0           2           0           0           0           0           0           0           0
 AtZEff=  -0.0000000  -0.0000000  -0.0000000  -0.0000000  -0.0000000  -0.0000000  -0.0000000  -0.0000000  -0.0000000  -0.0000000
 NQMom=    0.0000000   0.0000000   2.0440000   0.0000000   0.0000000   0.0000000   0.0000000   0.0000000   0.0000000   0.0000000
 NMagM=    0.0000000   0.0000000   0.4037610   0.0000000   0.0000000   0.0000000   0.0000000   0.0000000   0.0000000   0.0000000
 AtZNuc=   8.0000000   6.0000000   7.0000000   6.0000000   6.0000000   6.0000000   6.0000000   6.0000000   6.0000000   6.0000000

  Atom       111         112         113         114         115         116         117         118         119         120
 IAtWgt=          14          12          12          12          12          12          12          16          12          12
 AtmWgt=  14.0030740  12.0000000  12.0000000  12.0000000  12.0000000  12.0000000  12.0000000  15.9949146  12.0000000  12.0000000
 NucSpn=           2           0           0           0           0           0           0           0           0           0
 AtZEff=  -0.0000000  -0.0000000  -0.0000000  -0.0000000  -0.0000000  -0.0000000  -0.0000000  -0.0000000  -0.0000000  -0.0000000
 NQMom=    2.0440000   0.0000000   0.0000000   0.0000000   0.0000000   0.0000000   0.0000000   0.0000000   0.0000000   0.0000000
 NMagM=    0.4037610   0.0000000   0.0000000   0.0000000   0.0000000   0.0000000   0.0000000   0.0000000   0.0000000   0.0000000
 AtZNuc=   7.0000000   6.0000000   6.0000000   6.0000000   6.0000000   6.0000000   6.0000000   8.0000000   6.0000000   6.0000000

  Atom       121         122         123         124         125         126         127         128         129         130
 IAtWgt=          16          16          12           1           1           1           1           1           1           1
 AtmWgt=  15.9949146  15.9949146  12.0000000   1.0078250   1.0078250   1.0078250   1.0078250   1.0078250   1.0078250   1.0078250
 NucSpn=           0           0           0           1           1           1           1           1           1           1
 AtZEff=  -0.0000000  -0.0000000  -0.0000000  -0.0000000  -0.0000000  -0.0000000  -0.0000000  -0.0000000  -0.0000000  -0.0000000
 NQMom=    0.0000000   0.0000000   0.0000000   0.0000000   0.0000000   0.0000000   0.0000000   0.0000000   0.0000000   0.0000000
 NMagM=    0.0000000   0.0000000   0.0000000   2.7928460   2.7928460   2.7928460   2.7928460   2.7928460   2.7928460   2.7928460
 AtZNuc=   8.0000000   8.0000000   6.0000000   1.0000000   1.0000000   1.0000000   1.0000000   1.0000000   1.0000000   1.0000000

  Atom       131         132         133         134         135         136         137         138         139         140
 IAtWgt=           1           1           1           1           1           1           1           1           1           1
 AtmWgt=   1.0078250   1.0078250   1.0078250   1.0078250   1.0078250   1.0078250   1.0078250   1.0078250   1.0078250   1.0078250
 NucSpn=           1           1           1           1           1           1           1           1           1           1
 AtZEff=  -0.0000000  -0.0000000  -0.0000000  -0.0000000  -0.0000000  -0.0000000  -0.0000000  -0.0000000  -0.0000000  -0.0000000
 NQMom=    0.0000000   0.0000000   0.0000000   0.0000000   0.0000000   0.0000000   0.0000000   0.0000000   0.0000000   0.0000000
 NMagM=    2.7928460   2.7928460   2.7928460   2.7928460   2.7928460   2.7928460   2.7928460   2.7928460   2.7928460   2.7928460
 AtZNuc=   1.0000000   1.0000000   1.0000000   1.0000000   1.0000000   1.0000000   1.0000000   1.0000000   1.0000000   1.0000000

  Atom       141         142         143         144         145         146         147         148         149         150
 IAtWgt=           1           1           1           1           1           1           1           1           1           1
 AtmWgt=   1.0078250   1.0078250   1.0078250   1.0078250   1.0078250   1.0078250   1.0078250   1.0078250   1.0078250   1.0078250
 NucSpn=           1           1           1           1           1           1           1           1           1           1
 AtZEff=  -0.0000000  -0.0000000  -0.0000000  -0.0000000  -0.0000000  -0.0000000  -0.0000000  -0.0000000  -0.0000000  -0.0000000
 NQMom=    0.0000000   0.0000000   0.0000000   0.0000000   0.0000000   0.0000000   0.0000000   0.0000000   0.0000000   0.0000000
 NMagM=    2.7928460   2.7928460   2.7928460   2.7928460   2.7928460   2.7928460   2.7928460   2.7928460   2.7928460   2.7928460
 AtZNuc=   1.0000000   1.0000000   1.0000000   1.0000000   1.0000000   1.0000000   1.0000000   1.0000000   1.0000000   1.0000000

  Atom       151         152         153         154         155         156         157         158
 IAtWgt=           1           1           1           1           1           1           1           1
 AtmWgt=   1.0078250   1.0078250   1.0078250   1.0078250   1.0078250   1.0078250   1.0078250   1.0078250
 NucSpn=           1           1           1           1           1           1           1           1
 AtZEff=  -0.0000000  -0.0000000  -0.0000000  -0.0000000  -0.0000000  -0.0000000  -0.0000000  -0.0000000
 NQMom=    0.0000000   0.0000000   0.0000000   0.0000000   0.0000000   0.0000000   0.0000000   0.0000000
 NMagM=    2.7928460   2.7928460   2.7928460   2.7928460   2.7928460   2.7928460   2.7928460   2.7928460
 AtZNuc=   1.0000000   1.0000000   1.0000000   1.0000000   1.0000000   1.0000000   1.0000000   1.0000000
 Leave Link  101 at Thu Sep  9 21:21:21 2021, MaxMem= 23488102400 cpu:               5.6 elap:               0.2
 (Enter /sw/apps/gaussian-16.0/g16/l202.exe)
 Stoichiometry    C68H72Mg2N8O8
 Framework group  C1[X(C68H72Mg2N8O8)]
 Deg. of freedom   468
 Full point group                 C1      NOp   1
 Largest Abelian subgroup         C1      NOp   1
 Largest concise Abelian subgroup C1      NOp   1
                         Standard orientation:                         
 ---------------------------------------------------------------------
 Center     Atomic      Atomic             Coordinates (Angstroms)
 Number     Number       Type             X           Y           Z
 ---------------------------------------------------------------------
      1         12           0       -4.065314    0.942823   -0.152171
      2          6           0       -4.640751   -2.139607    1.574012
      3          6           0       -4.824078    2.544994    2.763372
      4          6           0       -4.007579    3.673116   -1.764247
      5          6           0       -4.466614   -0.821138   -3.130939
      6          7           0       -4.641759    0.188569    1.847693
      7          6           0       -4.768247   -1.016526    2.394426
      8          6           0       -4.974486   -0.976018    3.938187
      9          6           0       -5.572553    0.495697    4.073720
     10          6           0       -4.948328    1.126005    2.841252
     11          6           0       -7.090805    0.551228    3.938332
     12          6           0       -3.626820   -1.121186    4.722059
     13          6           0       -3.769565   -1.418188    6.217641
     14          1           0       -2.795296   -2.291608    6.854262
     15          7           0       -3.892290    2.804302    0.486428
     16          6           0       -4.234852    3.276115    1.709265
     17          6           0       -3.915000    4.719765    1.693392
     18          6           0       -3.536187    5.086601    0.300544
     19          6           0       -3.825879    3.859220   -0.395869
     20          6           0       -3.938143    5.581182    2.918617
     21          6           0       -3.008343    6.347090   -0.308291
     22          8           0       -2.965644    6.525320   -1.573591
     23          6           0       -2.619752    7.416661    0.628757
     24          7           0       -4.431427    1.419590   -2.151243
     25          6           0       -4.279910    2.669959   -2.601359
     26          6           0       -4.318444    2.719200   -4.100035
     27          6           0       -4.285155    1.200842   -4.593225
     28          6           0       -4.317436    0.503017   -3.211101
     29          6           0       -5.532279    3.429144   -4.715334
     30          6           0       -3.166115    0.809920   -5.590897
     31          6           0       -1.819346    0.886280   -4.907173
     32          7           0       -4.303821   -1.138359   -0.720361
     33          6           0       -4.476718   -1.643868   -2.016988
     34          6           0       -4.703516   -3.095089   -1.888187
     35          6           0       -4.663027   -3.331855   -0.515545
     36          6           0       -4.452117   -2.102131    0.171178
     37          6           0       -4.969087   -3.995215   -2.957616
     38          6           0       -4.773439   -4.333903    0.532103
     39          8           0       -4.859407   -5.562616    0.551239
     40          6           0       -4.885040   -3.584338    1.932647
     41          6           0       -3.922088   -4.246102    2.880329
     42          8           0       -2.689865   -4.165667    2.699988
     43          8           0       -4.585853   -4.662842    3.969496
     44          6           0       -3.683361   -5.302540    4.963704
     45          1           0       -5.269153    3.157754    3.549739
     46          1           0       -3.884814    4.575354   -2.367019
     47          1           0       -4.515418   -1.449835   -4.021900
     48          1           0       -5.689225   -1.704987    4.320519
     49          1           0       -5.220333    0.996673    4.975211
     50          1           0       -7.499933   -0.414495    3.641828
     51          1           0       -7.287369    1.299868    3.170612
     52          1           0       -7.547513    0.932119    4.852179
     53          1           0       -3.133666   -0.150427    4.771930
     54          1           0       -2.993111   -1.880536    4.262573
     55          1           0       -4.783781   -1.731602    6.466733
     56          1           0       -3.631802   -0.486028    6.765637
     57          1           0       -4.413097    5.072742    3.756741
     58          1           0       -4.595930    6.423068    2.703552
     59          1           0       -2.945718    5.947814    3.181308
     60          1           0       -3.482268    7.695294    1.234545
     61          1           0       -2.182429    8.206445    0.018970
     62          1           0       -1.872728    7.026000    1.320340
     63          1           0       -3.449464    3.242707   -4.496571
     64          1           0       -5.206377    0.915726   -5.101883
     65          1           0       -5.267874    4.253394   -5.378212
     66          1           0       -6.170896    3.771265   -3.901447
     67          1           0       -6.211900    2.778726   -5.265323
     68          1           0       -3.141800    1.508818   -6.426299
     69          1           0       -3.286121   -0.192957   -6.000882
     70          1           0       -1.563874    1.942087   -4.989872
     71          1           0       -1.091114    0.266198   -5.430993
     72          1           0       -1.898132    0.652297   -3.845321
     73          1           0       -4.367680   -4.883585   -2.765057
     74          1           0       -4.720897   -3.549977   -3.920823
     75          1           0       -6.040907   -4.147638   -2.831815
     76          1           0       -5.918703   -3.686801    2.261531
     77          1           0       -4.078696   -6.298912    5.161660
     78          1           0       -3.608489   -4.611796    5.803747
     79          1           0       -2.678406   -5.545123    4.616491
     80         12           0        4.867035   -0.038872    0.021383
     81          6           0        2.194012   -1.929832   -1.447731
     82          6           0        3.041741    2.767322   -0.632998
     83          6           0        7.385522    1.682517    0.894002
     84          6           0        6.918468   -2.811042   -0.481022
     85          7           0        2.887605    0.252206   -0.921696
     86          6           0        1.936438   -0.544473   -1.385301
     87          6           0        0.605700    0.176111   -1.730937
     88          6           0        1.188555    1.651929   -1.978122
     89          6           0        2.433875    1.573600   -1.097369
     90          6           0        1.631825    1.891591   -3.411793
     91          6           0       -0.413593    0.153410   -0.538234
     92          6           0       -1.841522    0.563840   -0.904725
     93          1           0       -2.952108   -0.102430   -0.230069
     94          7           0        4.994602    1.864813    0.567531
     95          6           0        4.155337    2.866244    0.229817
     96          6           0        4.696112    4.076659    0.867492
     97          6           0        6.013154    3.739467    1.472808
     98          6           0        6.195765    2.391628    0.972719
     99          6           0        3.938396    5.371015    0.930363
    100          6           0        6.958576    4.508102    2.345487
    101          8           0        8.156668    4.105550    2.558465
    102          6           0        6.471134    5.793103    2.867646
    103          7           0        6.911376   -0.415884   -0.008344
    104          6           0        7.786949    0.481254    0.477913
    105          6           0        9.167469   -0.117422    0.604983
    106          6           0        8.984304   -1.682023    0.329224
    107          6           0        7.478227   -1.704177   -0.012321
    108          6           0       10.226494    0.445545   -0.342605
    109          6           0        9.509196   -2.655117    1.420205
    110          6           0        8.677214   -2.520644    2.675234
    111          7           0        4.592131   -2.078481   -0.636246
    112          6           0        5.590172   -3.064186   -0.798714
    113          6           0        4.935174   -4.255982   -1.375798
    114          6           0        3.595321   -3.869994   -1.531675
    115          6           0        3.431239   -2.525334   -1.102203
    116          6           0        5.583568   -5.473586   -1.726694
    117          6           0        2.284619   -4.290792   -1.971792
    118          8           0        1.796281   -5.353391   -2.354062
    119          6           0        1.344719   -3.011719   -2.055050
    120          6           0        0.044570   -3.345733   -1.376400
    121          8           0        0.009650   -3.572812   -0.154186
    122          8           0       -0.968786   -3.129557   -2.234752
    123          6           0       -2.280183   -3.436284   -1.603900
    124          1           0        2.656914    3.720723   -0.996058
    125          1           0        8.266627    2.194754    1.287362
    126          1           0        7.469789   -3.748971   -0.575909
    127          1           0        0.113373   -0.184010   -2.626310
    128          1           0        0.506779    2.413040   -1.607653
    129          1           0        1.591164    0.988440   -4.002392
    130          1           0        2.648565    2.256627   -3.348223
    131          1           0        1.047735    2.702464   -3.856403
    132          1           0       -0.161102    0.958364    0.163927
    133          1           0       -0.424513   -0.808994   -0.064652
    134          1           0       -2.001723    0.574517   -1.989706
    135          1           0       -1.992730    1.602614   -0.601245
    136          1           0        3.072738    5.363501    0.256588
    137          1           0        4.594941    6.146102    0.520436
    138          1           0        3.659592    5.646790    1.949618
    139          1           0        6.203347    6.442124    2.037269
    140          1           0        7.252948    6.150553    3.540618
    141          1           0        5.551703    5.613641    3.436023
    142          1           0        9.557794    0.019655    1.605960
    143          1           0        9.517135   -2.000858   -0.578667
    144          1           0       11.110469    0.853013    0.183357
    145          1           0        9.764772    1.207316   -0.956647
    146          1           0       10.600135   -0.255870   -1.086661
    147          1           0       10.533807   -2.395726    1.697790
    148          1           0        9.513598   -3.693707    1.106674
    149          1           0        9.125339   -1.657865    3.177109
    150          1           0        8.757117   -3.417809    3.285763
    151          1           0        7.640242   -2.259689    2.433912
    152          1           0        4.946361   -6.276574   -1.380740
    153          1           0        6.576993   -5.535952   -1.287391
    154          1           0        5.621539   -5.367971   -2.814206
    155          1           0        1.206479   -2.774912   -3.110700
    156          1           0       -2.780776   -4.167032   -2.246633
    157          1           0       -2.781229   -2.459666   -1.466329
    158          1           0       -2.269723   -3.960788   -0.655614
 ---------------------------------------------------------------------
 Rotational constants (GHZ):           0.0262189           0.0145701           0.0125152
 Leave Link  202 at Thu Sep  9 21:21:21 2021, MaxMem= 23488102400 cpu:               0.3 elap:               0.0
 (Enter /sw/apps/gaussian-16.0/g16/l301.exe)
 Standard basis: def2SVP (5D, 7F)
 Ernie: Thresh=  0.10000D-02 Tol=  0.10000D-05 Strict=F.
 There are  1658 symmetry adapted cartesian basis functions of A   symmetry.
 There are  1572 symmetry adapted basis functions of A   symmetry.
  1572 basis functions,  2678 primitive gaussians,  1658 cartesian basis functions
   312 alpha electrons      312 beta electrons
       nuclear repulsion energy     16262.8750857133 Hartrees.
 IExCor=20419 DFT=T Ex+Corr=CAM-B3LYP ExCW=0 ScaHFX=  1.000000
 ScaDFX=  1.000000  1.000000  1.000000  0.810000 ScalE2=  1.000000  1.000000
 IRadAn=      5 IRanWt=     -1 IRanGd=            0 ICorTp=0 IEmpDi=  4
 HFx  wShort=  0.000000 wLong=  0.330000 cFull=  0.190000 cShort=  0.000000 cLong=  0.460000
 DFx  wShort=  0.000000 wLong=  0.330000 cFull=  0.190000 cShort=  0.000000 cLong=  0.460000
 NAtoms=  158 NActive=  158 NUniq=  158 SFac= 1.00D+00 NAtFMM=   60 NAOKFM=T Big=T
 Integral buffers will be    131072 words long.
 Raffenetti 1 integral format.
 Two-electron integral symmetry is turned on.
 Leave Link  301 at Thu Sep  9 21:21:21 2021, MaxMem= 23488102400 cpu:               1.3 elap:               0.1
 (Enter /sw/apps/gaussian-16.0/g16/l302.exe)
 NPDir=0 NMtPBC=     1 NCelOv=     1 NCel=       1 NClECP=     1 NCelD=      1
         NCelK=      1 NCelE2=     1 NClLst=     1 CellRange=     0.0.
 One-electron integrals computed using PRISM.
 One-electron integral symmetry used in STVInt
   1 Symmetry operations used in ECPInt.
 ECPInt:  NShTT=  271216 NPrTT=  987664 LenC2=  161653 LenP2D=  344760.
 LDataN:  DoStor=T MaxTD1= 4 Len=   56
 NBasis=  1572 RedAO= T EigKep=  2.63D-04  NBF=  1572
 NBsUse=  1572 1.00D-06 EigRej= -1.00D+00 NBFU=  1572
 Precomputing XC quadrature grid using
 IXCGrd= 4 IRadAn=           5 IRanWt=          -1 IRanGd=           0 AccXCQ= 0.00D+00.
 Generated NRdTot=       0 NPtTot=           0 NUsed=           0 NTot=          32
 NSgBfM=  1447  1426  1431  1443  1447 MxSgAt=   158 MxSgA2=   158.
 Leave Link  302 at Thu Sep  9 21:21:27 2021, MaxMem= 23488102400 cpu:             141.4 elap:               5.9
 (Enter /sw/apps/gaussian-16.0/g16/l303.exe)
 DipDrv:  MaxL=1.
 Leave Link  303 at Thu Sep  9 21:21:28 2021, MaxMem= 23488102400 cpu:               9.9 elap:               0.5
 (Enter /sw/apps/gaussian-16.0/g16/l308.exe)
 Leave Link  308 at Thu Sep  9 21:21:28 2021, MaxMem= 23488102400 cpu:              17.7 elap:               0.8
 (Enter /sw/apps/gaussian-16.0/g16/l401.exe)
 ExpMin= 3.36D-02 ExpMax= 4.95D+03 ExpMxC= 7.45D+02 IAcc=3 IRadAn=         5 AccDes= 0.00D+00
 Harris functional with IExCor=20419 and IRadAn=       5 diagonalized for initial guess.
 HarFok:  IExCor=20419 AccDes= 0.00D+00 IRadAn=         5 IDoV= 1 UseB2=F ITyADJ=14
 ICtDFT=  3500011 ScaDFX=  1.000000  1.000000  1.000000  1.000000
 FoFCou: FMM=F IPFlag=           0 FMFlag=      100000 FMFlg1=        2001
         NFxFlg=           0 DoJE=T BraDBF=F KetDBF=T FulRan=T
         wScrn=  0.000000 ICntrl=       500 IOpCl=  0 I1Cent=   200000004 NGrid=           0
         NMat0=    1 NMatS0=      1 NMatT0=    0 NMatD0=    1 NMtDS0=    0 NMtDT0=    0
 Petite list used in FoFCou.
 Harris En= -3918.54224571431    
 JPrj=0 DoOrth=F DoCkMO=F.
 Leave Link  401 at Thu Sep  9 21:21:37 2021, MaxMem= 23488102400 cpu:             214.9 elap:               9.0
 (Enter /sw/apps/gaussian-16.0/g16/l502.exe)
 Integral symmetry usage will be decided dynamically.
 Closed shell SCF:
 Using DIIS extrapolation, IDIIS=  1040.
 NGot= 23488102400 LenX= 23482546722 LenY= 23479796100
 Requested convergence on RMS density matrix=1.00D-08 within 128 cycles.
 Requested convergence on MAX density matrix=1.00D-06.
 Requested convergence on             energy=1.00D-06.
 No special actions if energy rises.
 Fock matrices will be formed incrementally for  20 cycles.

 Cycle   1  Pass 1  IDiag  1:
 FoFJK:  IHMeth= 1 ICntrl=       0 DoSepK=T KAlg= 0 I1Cent=           0 FoldK=F
 IRaf=         1 NMat=       1 IRICut=       1 DoRegI=T DoRafI=F ISym2E= 0 IDoP0=0 IntGTp=1.
 FoFCou: FMM=T IPFlag=           0 FMFlag=      100000 FMFlg1=        2001
         NFxFlg=           0 DoJE=T BraDBF=F KetDBF=F FulRan=T
         wScrn=  0.000000 ICntrl=       500 IOpCl=  0 I1Cent=           0 NGrid=           0
         NMat0=    1 NMatS0=      1 NMatT0=    0 NMatD0=    1 NMtDS0=    0 NMtDT0=    0
 Symmetry not used in FoFCou.
 FMM levels:  10  Number of levels for PrismC:   9
 E= -4068.86289058628    
 DIIS: error= 1.77D-02 at cycle   1 NSaved=   1.
 NSaved= 1 IEnMin= 1 EnMin= -4068.86289058628     IErMin= 1 ErrMin= 1.77D-02
 ErrMax= 1.77D-02  0.00D+00 EMaxC= 1.00D-01 BMatC= 1.70D+00 BMatP= 1.70D+00
 IDIUse=3 WtCom= 8.23D-01 WtEn= 1.77D-01
 Coeff-Com:  0.100D+01
 Coeff-En:   0.100D+01
 Coeff:      0.100D+01
 Gap=     0.107 Goal=   None    Shift=    0.000
 GapD=    0.107 DampG=1.000 DampE=0.500 DampFc=0.5000 IDamp=-1.
 Damping current iteration by 5.00D-01
 RMSDP=1.67D-03 MaxDP=1.97D-01              OVMax= 2.01D-01

 Cycle   2  Pass 1  IDiag  1:
 RMSU=  8.15D-04    CP:  9.79D-01
 E= -4069.25119430253     Delta-E=       -0.388303716252 Rises=F Damp=T
 DIIS: error= 1.10D-02 at cycle   2 NSaved=   2.
 NSaved= 2 IEnMin= 2 EnMin= -4069.25119430253     IErMin= 2 ErrMin= 1.10D-02
 ErrMax= 1.10D-02  0.00D+00 EMaxC= 1.00D-01 BMatC= 3.11D-01 BMatP= 1.70D+00
 IDIUse=3 WtCom= 8.90D-01 WtEn= 1.10D-01
 Coeff-Com: -0.208D+00 0.121D+01
 Coeff-En:   0.000D+00 0.100D+01
 Coeff:     -0.185D+00 0.119D+01
 Gap=     0.132 Goal=   None    Shift=    0.000
 RMSDP=8.05D-04 MaxDP=9.76D-02 DE=-3.88D-01 OVMax= 1.89D-01

 Cycle   3  Pass 1  IDiag  1:
 RMSU=  7.72D-04    CP:  9.65D-01  1.23D+00
 E= -4069.53247409950     Delta-E=       -0.281279796964 Rises=F Damp=F
 DIIS: error= 1.62D-02 at cycle   3 NSaved=   3.
 NSaved= 3 IEnMin= 3 EnMin= -4069.53247409950     IErMin= 2 ErrMin= 1.10D-02
 ErrMax= 1.62D-02  0.00D+00 EMaxC= 1.00D-01 BMatC= 2.18D-01 BMatP= 3.11D-01
 IDIUse=3 WtCom= 8.38D-01 WtEn= 1.62D-01
 Coeff-Com: -0.270D+00 0.662D+00 0.608D+00
 Coeff-En:   0.000D+00 0.000D+00 0.100D+01
 Coeff:     -0.226D+00 0.555D+00 0.672D+00
 Gap=     0.117 Goal=   None    Shift=    0.000
 RMSDP=5.55D-04 MaxDP=7.38D-02 DE=-2.81D-01 OVMax= 1.46D-01

 Cycle   4  Pass 1  IDiag  1:
 RMSU=  2.81D-04    CP:  9.60D-01  1.55D+00  4.80D-01
 E= -4069.67891053783     Delta-E=       -0.146436438332 Rises=F Damp=F
 DIIS: error= 7.63D-03 at cycle   4 NSaved=   4.
 NSaved= 4 IEnMin= 4 EnMin= -4069.67891053783     IErMin= 4 ErrMin= 7.63D-03
 ErrMax= 7.63D-03  0.00D+00 EMaxC= 1.00D-01 BMatC= 5.46D-02 BMatP= 2.18D-01
 IDIUse=3 WtCom= 9.24D-01 WtEn= 7.63D-02
 Coeff-Com: -0.109D+00 0.226D+00 0.407D+00 0.475D+00
 Coeff-En:   0.000D+00 0.000D+00 0.224D+00 0.776D+00
 Coeff:     -0.100D+00 0.209D+00 0.393D+00 0.498D+00
 Gap=     0.116 Goal=   None    Shift=    0.000
 RMSDP=2.19D-04 MaxDP=2.22D-02 DE=-1.46D-01 OVMax= 6.54D-02

 Cycle   5  Pass 1  IDiag  1:
 RMSU=  8.59D-05    CP:  9.60D-01  1.49D+00  6.74D-01  5.58D-01
 E= -4069.72779369916     Delta-E=       -0.048883161333 Rises=F Damp=F
 DIIS: error= 8.56D-04 at cycle   5 NSaved=   5.
 NSaved= 5 IEnMin= 5 EnMin= -4069.72779369916     IErMin= 5 ErrMin= 8.56D-04
 ErrMax= 8.56D-04  0.00D+00 EMaxC= 1.00D-01 BMatC= 1.44D-03 BMatP= 5.46D-02
 IDIUse=3 WtCom= 9.91D-01 WtEn= 8.56D-03
 Coeff-Com: -0.377D-01 0.742D-01 0.173D+00 0.261D+00 0.529D+00
 Coeff-En:   0.000D+00 0.000D+00 0.000D+00 0.000D+00 0.100D+01
 Coeff:     -0.374D-01 0.735D-01 0.172D+00 0.259D+00 0.533D+00
 Gap=     0.115 Goal=   None    Shift=    0.000
 RMSDP=4.86D-05 MaxDP=5.99D-03 DE=-4.89D-02 OVMax= 2.04D-02

 Cycle   6  Pass 1  IDiag  1:
 RMSU=  3.50D-05    CP:  9.60D-01  1.49D+00  6.64D-01  6.31D-01  7.10D-01
 E= -4069.72905228184     Delta-E=       -0.001258582677 Rises=F Damp=F
 DIIS: error= 1.99D-04 at cycle   6 NSaved=   6.
 NSaved= 6 IEnMin= 6 EnMin= -4069.72905228184     IErMin= 6 ErrMin= 1.99D-04
 ErrMax= 1.99D-04  0.00D+00 EMaxC= 1.00D-01 BMatC= 2.41D-04 BMatP= 1.44D-03
 IDIUse=3 WtCom= 9.98D-01 WtEn= 1.99D-03
 Coeff-Com:  0.116D-02-0.468D-02 0.174D-01 0.509D-01 0.316D+00 0.619D+00
 Coeff-En:   0.000D+00 0.000D+00 0.000D+00 0.000D+00 0.140D+00 0.860D+00
 Coeff:      0.115D-02-0.468D-02 0.174D-01 0.508D-01 0.316D+00 0.620D+00
 Gap=     0.116 Goal=   None    Shift=    0.000
 RMSDP=1.96D-05 MaxDP=1.32D-03 DE=-1.26D-03 OVMax= 9.58D-03

 Cycle   7  Pass 1  IDiag  1:
 RMSU=  1.27D-05    CP:  9.60D-01  1.49D+00  6.71D-01  6.29D-01  8.18D-01
                    CP:  7.03D-01
 E= -4069.72931367447     Delta-E=       -0.000261392634 Rises=F Damp=F
 DIIS: error= 1.08D-04 at cycle   7 NSaved=   7.
 NSaved= 7 IEnMin= 7 EnMin= -4069.72931367447     IErMin= 7 ErrMin= 1.08D-04
 ErrMax= 1.08D-04  0.00D+00 EMaxC= 1.00D-01 BMatC= 3.24D-05 BMatP= 2.41D-04
 IDIUse=3 WtCom= 9.99D-01 WtEn= 1.08D-03
 Coeff-Com:  0.445D-02-0.994D-02-0.748D-02-0.130D-03 0.117D+00 0.342D+00
 Coeff-Com:  0.555D+00
 Coeff-En:   0.000D+00 0.000D+00 0.000D+00 0.000D+00 0.000D+00 0.726D-02
 Coeff-En:   0.993D+00
 Coeff:      0.445D-02-0.992D-02-0.747D-02-0.130D-03 0.117D+00 0.341D+00
 Coeff:      0.555D+00
 Gap=     0.116 Goal=   None    Shift=    0.000
 RMSDP=7.69D-06 MaxDP=1.18D-03 DE=-2.61D-04 OVMax= 4.09D-03

 Cycle   8  Pass 1  IDiag  1:
 RMSU=  5.34D-06    CP:  9.60D-01  1.50D+00  6.71D-01  6.34D-01  8.17D-01
                    CP:  8.33D-01  8.00D-01
 E= -4069.72935293582     Delta-E=       -0.000039261344 Rises=F Damp=F
 DIIS: error= 4.37D-05 at cycle   8 NSaved=   8.
 NSaved= 8 IEnMin= 8 EnMin= -4069.72935293582     IErMin= 8 ErrMin= 4.37D-05
 ErrMax= 4.37D-05  0.00D+00 EMaxC= 1.00D-01 BMatC= 5.51D-06 BMatP= 3.24D-05
 IDIUse=1 WtCom= 1.00D+00 WtEn= 0.00D+00
 Coeff-Com:  0.236D-02-0.470D-02-0.824D-02-0.126D-01-0.682D-02 0.405D-01
 Coeff-Com:  0.307D+00 0.683D+00
 Coeff:      0.236D-02-0.470D-02-0.824D-02-0.126D-01-0.682D-02 0.405D-01
 Coeff:      0.307D+00 0.683D+00
 Gap=     0.116 Goal=   None    Shift=    0.000
 RMSDP=3.72D-06 MaxDP=3.97D-04 DE=-3.93D-05 OVMax= 1.41D-03

 Cycle   9  Pass 1  IDiag  1:
 RMSU=  2.21D-06    CP:  9.60D-01  1.50D+00  6.72D-01  6.35D-01  8.34D-01
                    CP:  8.57D-01  9.88D-01  9.72D-01
 E= -4069.72936219267     Delta-E=       -0.000009256852 Rises=F Damp=F
 DIIS: error= 1.91D-05 at cycle   9 NSaved=   9.
 NSaved= 9 IEnMin= 9 EnMin= -4069.72936219267     IErMin= 9 ErrMin= 1.91D-05
 ErrMax= 1.91D-05  0.00D+00 EMaxC= 1.00D-01 BMatC= 9.42D-07 BMatP= 5.51D-06
 IDIUse=1 WtCom= 1.00D+00 WtEn= 0.00D+00
 Coeff-Com:  0.573D-03-0.973D-03-0.317D-02-0.689D-02-0.212D-01-0.373D-01
 Coeff-Com:  0.838D-01 0.356D+00 0.629D+00
 Coeff:      0.573D-03-0.973D-03-0.317D-02-0.689D-02-0.212D-01-0.373D-01
 Coeff:      0.838D-01 0.356D+00 0.629D+00
 Gap=     0.116 Goal=   None    Shift=    0.000
 RMSDP=1.64D-06 MaxDP=1.76D-04 DE=-9.26D-06 OVMax= 7.56D-04

 Cycle  10  Pass 1  IDiag  1:
 RMSU=  1.07D-06    CP:  9.60D-01  1.50D+00  6.72D-01  6.36D-01  8.37D-01
                    CP:  8.71D-01  1.03D+00  1.14D+00  1.07D+00
 E= -4069.72936432965     Delta-E=       -0.000002136978 Rises=F Damp=F
 DIIS: error= 8.18D-06 at cycle  10 NSaved=  10.
 NSaved=10 IEnMin=10 EnMin= -4069.72936432965     IErMin=10 ErrMin= 8.18D-06
 ErrMax= 8.18D-06  0.00D+00 EMaxC= 1.00D-01 BMatC= 1.87D-07 BMatP= 9.42D-07
 IDIUse=1 WtCom= 1.00D+00 WtEn= 0.00D+00
 Coeff-Com: -0.439D-03 0.930D-03 0.120D-02 0.993D-03-0.457D-02-0.311D-01
 Coeff-Com: -0.509D-01-0.615D-01 0.219D+00 0.926D+00
 Coeff:     -0.439D-03 0.930D-03 0.120D-02 0.993D-03-0.457D-02-0.311D-01
 Coeff:     -0.509D-01-0.615D-01 0.219D+00 0.926D+00
 Gap=     0.116 Goal=   None    Shift=    0.000
 RMSDP=1.46D-06 MaxDP=1.42D-04 DE=-2.14D-06 OVMax= 7.35D-04

 Cycle  11  Pass 1  IDiag  1:
 RMSU=  6.40D-07    CP:  9.60D-01  1.50D+00  6.72D-01  6.36D-01  8.39D-01
                    CP:  8.81D-01  1.08D+00  1.26D+00  1.41D+00  1.39D+00
 E= -4069.72936535292     Delta-E=       -0.000001023272 Rises=F Damp=F
 DIIS: error= 4.49D-06 at cycle  11 NSaved=  11.
 NSaved=11 IEnMin=11 EnMin= -4069.72936535292     IErMin=11 ErrMin= 4.49D-06
 ErrMax= 4.49D-06  0.00D+00 EMaxC= 1.00D-01 BMatC= 7.50D-08 BMatP= 1.87D-07
 IDIUse=1 WtCom= 1.00D+00 WtEn= 0.00D+00
 Coeff-Com: -0.371D-03 0.725D-03 0.147D-02 0.233D-02 0.403D-02-0.889D-02
 Coeff-Com: -0.451D-01-0.127D+00-0.516D-01 0.489D+00 0.736D+00
 Coeff:     -0.371D-03 0.725D-03 0.147D-02 0.233D-02 0.403D-02-0.889D-02
 Coeff:     -0.451D-01-0.127D+00-0.516D-01 0.489D+00 0.736D+00
 Gap=     0.116 Goal=   None    Shift=    0.000
 RMSDP=8.15D-07 MaxDP=6.81D-05 DE=-1.02D-06 OVMax= 4.73D-04

 Cycle  12  Pass 1  IDiag  1:
 RMSU=  3.28D-07    CP:  9.60D-01  1.50D+00  6.72D-01  6.36D-01  8.40D-01
                    CP:  8.84D-01  1.10D+00  1.33D+00  1.58D+00  1.79D+00
                    CP:  1.16D+00
 E= -4069.72936570185     Delta-E=       -0.000000348937 Rises=F Damp=F
 DIIS: error= 2.79D-06 at cycle  12 NSaved=  12.
 NSaved=12 IEnMin=12 EnMin= -4069.72936570185     IErMin=12 ErrMin= 2.79D-06
 ErrMax= 2.79D-06  0.00D+00 EMaxC= 1.00D-01 BMatC= 2.05D-08 BMatP= 7.50D-08
 IDIUse=1 WtCom= 1.00D+00 WtEn= 0.00D+00
 Coeff-Com: -0.413D-04 0.618D-04 0.355D-03 0.817D-03 0.379D-02 0.373D-02
 Coeff-Com: -0.248D-02-0.417D-01-0.818D-01-0.419D-01 0.324D+00 0.835D+00
 Coeff:     -0.413D-04 0.618D-04 0.355D-03 0.817D-03 0.379D-02 0.373D-02
 Coeff:     -0.248D-02-0.417D-01-0.818D-01-0.419D-01 0.324D+00 0.835D+00
 Gap=     0.116 Goal=   None    Shift=    0.000
 RMSDP=5.10D-07 MaxDP=3.25D-05 DE=-3.49D-07 OVMax= 3.26D-04

 Cycle  13  Pass 1  IDiag  1:
 RMSU=  2.00D-07    CP:  9.60D-01  1.50D+00  6.72D-01  6.36D-01  8.41D-01
                    CP:  8.84D-01  1.11D+00  1.36D+00  1.70D+00  2.01D+00
                    CP:  1.54D+00  1.18D+00
 E= -4069.72936582010     Delta-E=       -0.000000118249 Rises=F Damp=F
 DIIS: error= 1.98D-06 at cycle  13 NSaved=  13.
 NSaved=13 IEnMin=13 EnMin= -4069.72936582010     IErMin=13 ErrMin= 1.98D-06
 ErrMax= 1.98D-06  0.00D+00 EMaxC= 1.00D-01 BMatC= 1.00D-08 BMatP= 2.05D-08
 IDIUse=1 WtCom= 1.00D+00 WtEn= 0.00D+00
 Coeff-Com:  0.122D-03-0.251D-03-0.360D-03-0.422D-03 0.924D-03 0.521D-02
 Coeff-Com:  0.181D-01 0.227D-01-0.294D-01-0.236D+00-0.123D+00 0.554D+00
 Coeff-Com:  0.789D+00
 Coeff:      0.122D-03-0.251D-03-0.360D-03-0.422D-03 0.924D-03 0.521D-02
 Coeff:      0.181D-01 0.227D-01-0.294D-01-0.236D+00-0.123D+00 0.554D+00
 Coeff:      0.789D+00
 Gap=     0.116 Goal=   None    Shift=    0.000
 RMSDP=3.76D-07 MaxDP=2.41D-05 DE=-1.18D-07 OVMax= 2.14D-04

 Cycle  14  Pass 1  IDiag  1:
 RMSU=  9.63D-08    CP:  9.60D-01  1.50D+00  6.72D-01  6.36D-01  8.41D-01
                    CP:  8.85D-01  1.11D+00  1.38D+00  1.77D+00  2.20D+00
                    CP:  1.78D+00  1.67D+00  1.08D+00
 E= -4069.72936586663     Delta-E=       -0.000000046522 Rises=F Damp=F
 DIIS: error= 9.10D-07 at cycle  14 NSaved=  14.
 NSaved=14 IEnMin=14 EnMin= -4069.72936586663     IErMin=14 ErrMin= 9.10D-07
 ErrMax= 9.10D-07  0.00D+00 EMaxC= 1.00D-01 BMatC= 1.64D-09 BMatP= 1.00D-08
 IDIUse=1 WtCom= 1.00D+00 WtEn= 0.00D+00
 Coeff-Com:  0.771D-04-0.153D-03-0.282D-03-0.433D-03-0.361D-03 0.159D-02
 Coeff-Com:  0.108D-01 0.210D-01 0.544D-02-0.112D+00-0.148D+00 0.103D+00
 Coeff-Com:  0.396D+00 0.723D+00
 Coeff:      0.771D-04-0.153D-03-0.282D-03-0.433D-03-0.361D-03 0.159D-02
 Coeff:      0.108D-01 0.210D-01 0.544D-02-0.112D+00-0.148D+00 0.103D+00
 Coeff:      0.396D+00 0.723D+00
 Gap=     0.116 Goal=   None    Shift=    0.000
 RMSDP=1.36D-07 MaxDP=8.77D-06 DE=-4.65D-08 OVMax= 9.28D-05

 Cycle  15  Pass 1  IDiag  1:
 RMSU=  4.55D-08    CP:  9.60D-01  1.50D+00  6.72D-01  6.36D-01  8.41D-01
                    CP:  8.85D-01  1.11D+00  1.38D+00  1.79D+00  2.25D+00
                    CP:  1.89D+00  1.82D+00  1.30D+00  1.02D+00
 E= -4069.72936587264     Delta-E=       -0.000000006010 Rises=F Damp=F
 DIIS: error= 3.14D-07 at cycle  15 NSaved=  15.
 NSaved=15 IEnMin=15 EnMin= -4069.72936587264     IErMin=15 ErrMin= 3.14D-07
 ErrMax= 3.14D-07  0.00D+00 EMaxC= 1.00D-01 BMatC= 3.46D-10 BMatP= 1.64D-09
 IDIUse=1 WtCom= 1.00D+00 WtEn= 0.00D+00
 Coeff-Com:  0.131D-04-0.241D-04-0.626D-04-0.129D-03-0.330D-03-0.409D-03
 Coeff-Com:  0.183D-02 0.472D-02 0.889D-02-0.336D-02-0.474D-01-0.481D-01
 Coeff-Com:  0.234D-01 0.346D+00 0.715D+00
 Coeff:      0.131D-04-0.241D-04-0.626D-04-0.129D-03-0.330D-03-0.409D-03
 Coeff:      0.183D-02 0.472D-02 0.889D-02-0.336D-02-0.474D-01-0.481D-01
 Coeff:      0.234D-01 0.346D+00 0.715D+00
 Gap=     0.116 Goal=   None    Shift=    0.000
 RMSDP=4.08D-08 MaxDP=3.62D-06 DE=-6.01D-09 OVMax= 2.43D-05

 Cycle  16  Pass 1  IDiag  1:
 RMSU=  2.14D-08    CP:  9.60D-01  1.50D+00  6.72D-01  6.36D-01  8.41D-01
                    CP:  8.85D-01  1.11D+00  1.38D+00  1.80D+00  2.26D+00
                    CP:  1.91D+00  1.87D+00  1.37D+00  1.22D+00  1.10D+00
 E= -4069.72936587372     Delta-E=       -0.000000001080 Rises=F Damp=F
 DIIS: error= 1.46D-07 at cycle  16 NSaved=  16.
 NSaved=16 IEnMin=16 EnMin= -4069.72936587372     IErMin=16 ErrMin= 1.46D-07
 ErrMax= 1.46D-07  0.00D+00 EMaxC= 1.00D-01 BMatC= 9.72D-11 BMatP= 3.46D-10
 IDIUse=1 WtCom= 1.00D+00 WtEn= 0.00D+00
 Coeff-Com: -0.132D-04 0.269D-04 0.412D-04 0.429D-04-0.620D-04-0.654D-03
 Coeff-Com: -0.163D-02-0.358D-02 0.301D-02 0.254D-01 0.948D-02-0.430D-01
 Coeff-Com: -0.931D-01 0.743D-02 0.349D+00 0.748D+00
 Coeff:     -0.132D-04 0.269D-04 0.412D-04 0.429D-04-0.620D-04-0.654D-03
 Coeff:     -0.163D-02-0.358D-02 0.301D-02 0.254D-01 0.948D-02-0.430D-01
 Coeff:     -0.931D-01 0.743D-02 0.349D+00 0.748D+00
 Gap=     0.116 Goal=   None    Shift=    0.000
 RMSDP=2.56D-08 MaxDP=2.72D-06 DE=-1.08D-09 OVMax= 1.91D-05

 Cycle  17  Pass 1  IDiag  1:
 RMSU=  1.32D-08    CP:  9.60D-01  1.50D+00  6.72D-01  6.36D-01  8.41D-01
                    CP:  8.85D-01  1.12D+00  1.38D+00  1.80D+00  2.27D+00
                    CP:  1.92D+00  1.89D+00  1.40D+00  1.29D+00  1.36D+00
                    CP:  1.17D+00
 E= -4069.72936587418     Delta-E=       -0.000000000462 Rises=F Damp=F
 DIIS: error= 9.60D-08 at cycle  17 NSaved=  17.
 NSaved=17 IEnMin=17 EnMin= -4069.72936587418     IErMin=17 ErrMin= 9.60D-08
 ErrMax= 9.60D-08  0.00D+00 EMaxC= 1.00D-01 BMatC= 2.80D-11 BMatP= 9.72D-11
 IDIUse=1 WtCom= 1.00D+00 WtEn= 0.00D+00
 Coeff-Com: -0.874D-05 0.172D-04 0.330D-04 0.470D-04 0.635D-04-0.217D-03
 Coeff-Com: -0.100D-02-0.292D-02-0.324D-03 0.130D-01 0.139D-01-0.484D-02
 Coeff-Com: -0.529D-01-0.723D-01-0.339D-01 0.351D+00 0.790D+00
 Coeff:     -0.874D-05 0.172D-04 0.330D-04 0.470D-04 0.635D-04-0.217D-03
 Coeff:     -0.100D-02-0.292D-02-0.324D-03 0.130D-01 0.139D-01-0.484D-02
 Coeff:     -0.529D-01-0.723D-01-0.339D-01 0.351D+00 0.790D+00
 Gap=     0.116 Goal=   None    Shift=    0.000
 RMSDP=1.47D-08 MaxDP=9.64D-07 DE=-4.62D-10 OVMax= 9.47D-06

 Cycle  18  Pass 1  IDiag  1:
 RMSU=  5.99D-09    CP:  9.60D-01  1.50D+00  6.72D-01  6.36D-01  8.41D-01
                    CP:  8.85D-01  1.12D+00  1.38D+00  1.80D+00  2.27D+00
                    CP:  1.92D+00  1.90D+00  1.42D+00  1.35D+00  1.51D+00
                    CP:  1.53D+00  1.32D+00
 E= -4069.72936587436     Delta-E=       -0.000000000186 Rises=F Damp=F
 DIIS: error= 7.62D-08 at cycle  18 NSaved=  18.
 NSaved=18 IEnMin=18 EnMin= -4069.72936587436     IErMin=18 ErrMin= 7.62D-08
 ErrMax= 7.62D-08  0.00D+00 EMaxC= 1.00D-01 BMatC= 9.41D-12 BMatP= 2.80D-11
 IDIUse=1 WtCom= 1.00D+00 WtEn= 0.00D+00
 Coeff-Com:  0.216D-06-0.800D-06 0.247D-05 0.855D-05 0.715D-04 0.122D-03
 Coeff-Com:  0.178D-03-0.343D-03-0.121D-02-0.282D-02 0.237D-02 0.163D-01
 Coeff-Com:  0.492D-02-0.330D-01-0.154D+00-0.808D-01 0.373D+00 0.875D+00
 Coeff:      0.216D-06-0.800D-06 0.247D-05 0.855D-05 0.715D-04 0.122D-03
 Coeff:      0.178D-03-0.343D-03-0.121D-02-0.282D-02 0.237D-02 0.163D-01
 Coeff:      0.492D-02-0.330D-01-0.154D+00-0.808D-01 0.373D+00 0.875D+00
 Gap=     0.116 Goal=   None    Shift=    0.000
 RMSDP=1.12D-08 MaxDP=9.43D-07 DE=-1.86D-10 OVMax= 7.66D-06

 Cycle  19  Pass 1  IDiag  1:
 RMSU=  3.63D-09    CP:  9.60D-01  1.50D+00  6.72D-01  6.36D-01  8.41D-01
                    CP:  8.85D-01  1.12D+00  1.38D+00  1.80D+00  2.27D+00
                    CP:  1.92D+00  1.90D+00  1.42D+00  1.38D+00  1.62D+00
                    CP:  1.78D+00  1.80D+00  1.20D+00
 E= -4069.72936587419     Delta-E=        0.000000000171 Rises=F Damp=F
 DIIS: error= 3.25D-08 at cycle  19 NSaved=  19.
 NSaved=19 IEnMin=18 EnMin= -4069.72936587436     IErMin=19 ErrMin= 3.25D-08
 ErrMax= 3.25D-08  0.00D+00 EMaxC= 1.00D-01 BMatC= 3.56D-12 BMatP= 9.41D-12
 IDIUse=1 WtCom= 1.00D+00 WtEn= 0.00D+00
 Coeff-Com:  0.334D-05-0.681D-05-0.107D-04-0.123D-04 0.273D-04 0.150D-03
 Coeff-Com:  0.517D-03 0.841D-03-0.598D-03-0.668D-02-0.424D-02 0.130D-01
 Coeff-Com:  0.221D-01 0.875D-02-0.913D-01-0.190D+00-0.840D-01 0.540D+00
 Coeff-Com:  0.791D+00
 Coeff:      0.334D-05-0.681D-05-0.107D-04-0.123D-04 0.273D-04 0.150D-03
 Coeff:      0.517D-03 0.841D-03-0.598D-03-0.668D-02-0.424D-02 0.130D-01
 Coeff:      0.221D-01 0.875D-02-0.913D-01-0.190D+00-0.840D-01 0.540D+00
 Coeff:      0.791D+00
 Gap=     0.116 Goal=   None    Shift=    0.000
 RMSDP=7.73D-09 MaxDP=5.11D-07 DE= 1.71D-10 OVMax= 4.90D-06

 SCF Done:  E(RCAM-B3LYP) =  -4069.72936587     A.U. after   19 cycles
            NFock= 19  Conv=0.77D-08     -V/T= 2.0100
 KE= 4.029385742783D+03 PE=-4.200692651077D+04 EE= 1.764493631640D+04
 Leave Link  502 at Thu Sep  9 21:37:12 2021, MaxMem= 23488102400 cpu:           21741.6 elap:             934.6
 (Enter /sw/apps/gaussian-16.0/g16/l801.exe)
 DoSCS=F DFT=T ScalE2(SS,OS)=  1.000000  1.000000
 ExpMin= 3.36D-02 ExpMax= 4.95D+03 ExpMxC= 7.45D+02 IAcc=3 IRadAn=         5 AccDes= 0.00D+00
 HarFok:  IExCor=  205 AccDes= 0.00D+00 IRadAn=         5 IDoV=-2 UseB2=F ITyADJ=14
 ICtDFT= 12500011 ScaDFX=  1.000000  1.000000  1.000000  1.000000
 GSVD:  LWork=       -9588 too small for GESVD, short by       45590 words or       45590 for optimal perf.
 Largest valence mixing into a core orbital is  2.14D-04
 Largest core mixing into a valence orbital is  5.44D-05
 Range of M.O.s used for correlation:    95  1572
 NBasis=  1572 NAE=   312 NBE=   312 NFC=    94 NFV=     0
 NROrb=   1478 NOA=   218 NOB=   218 NVA=  1260 NVB=  1260
 Leave Link  801 at Thu Sep  9 21:37:13 2021, MaxMem= 23488102400 cpu:              10.1 elap:               0.4
 (Enter /sw/apps/gaussian-16.0/g16/l914.exe)
 RHF ground state
 Two-electron integrals replicated using symmetry.
 MDV= 23488102400 DFT=T DoStab=F Mixed=T DoRPA=T DoScal=F NonHer=T
 Making orbital integer symmetry assigments:
 Orbital symmetries:
       Occupied  (A) (A) (A) (A) (A) (A) (A) (A) (A) (A) (A) (A)
                 (A) (A) (A) (A) (A) (A) (A) (A) (A) (A) (A) (A)
                 (A) (A) (A) (A) (A) (A) (A) (A) (A) (A) (A) (A)
                 (A) (A) (A) (A) (A) (A) (A) (A) (A) (A) (A) (A)
                 (A) (A) (A) (A) (A) (A) (A) (A) (A) (A) (A) (A)
                 (A) (A) (A) (A) (A) (A) (A) (A) (A) (A) (A) (A)
                 (A) (A) (A) (A) (A) (A) (A) (A) (A) (A) (A) (A)
                 (A) (A) (A) (A) (A) (A) (A) (A) (A) (A) (A) (A)
                 (A) (A) (A) (A) (A) (A) (A) (A) (A) (A) (A) (A)
                 (A) (A) (A) (A) (A) (A) (A) (A) (A) (A) (A) (A)
                 (A) (A) (A) (A) (A) (A) (A) (A) (A) (A) (A) (A)
                 (A) (A) (A) (A) (A) (A) (A) (A) (A) (A) (A) (A)
                 (A) (A) (A) (A) (A) (A) (A) (A) (A) (A) (A) (A)
                 (A) (A) (A) (A) (A) (A) (A) (A) (A) (A) (A) (A)
                 (A) (A) (A) (A) (A) (A) (A) (A) (A) (A) (A) (A)
                 (A) (A) (A) (A) (A) (A) (A) (A) (A) (A) (A) (A)
                 (A) (A) (A) (A) (A) (A) (A) (A) (A) (A) (A) (A)
                 (A) (A) (A) (A) (A) (A) (A) (A) (A) (A) (A) (A)
                 (A) (A) (A) (A) (A) (A) (A) (A) (A) (A) (A) (A)
                 (A) (A) (A) (A) (A) (A) (A) (A) (A) (A) (A) (A)
                 (A) (A) (A) (A) (A) (A) (A) (A) (A) (A) (A) (A)
                 (A) (A) (A) (A) (A) (A) (A) (A) (A) (A) (A) (A)
                 (A) (A) (A) (A) (A) (A) (A) (A) (A) (A) (A) (A)
                 (A) (A) (A) (A) (A) (A) (A) (A) (A) (A) (A) (A)
                 (A) (A) (A) (A) (A) (A) (A) (A) (A) (A) (A) (A)
                 (A) (A) (A) (A) (A) (A) (A) (A) (A) (A) (A) (A)
       Virtual   (A) (A) (A) (A) (A) (A) (A) (A) (A) (A) (A) (A)
                 (A) (A) (A) (A) (A) (A) (A) (A) (A) (A) (A) (A)
                 (A) (A) (A) (A) (A) (A) (A) (A) (A) (A) (A) (A)
                 (A) (A) (A) (A) (A) (A) (A) (A) (A) (A) (A) (A)
                 (A) (A) (A) (A) (A) (A) (A) (A) (A) (A) (A) (A)
                 (A) (A) (A) (A) (A) (A) (A) (A) (A) (A) (A) (A)
                 (A) (A) (A) (A) (A) (A) (A) (A) (A) (A) (A) (A)
                 (A) (A) (A) (A) (A) (A) (A) (A) (A) (A) (A) (A)
                 (A) (A) (A) (A) (A) (A) (A) (A) (A) (A) (A) (A)
                 (A) (A) (A) (A) (A) (A) (A) (A) (A) (A) (A) (A)
                 (A) (A) (A) (A) (A) (A) (A) (A) (A) (A) (A) (A)
                 (A) (A) (A) (A) (A) (A) (A) (A) (A) (A) (A) (A)
                 (A) (A) (A) (A) (A) (A) (A) (A) (A) (A) (A) (A)
                 (A) (A) (A) (A) (A) (A) (A) (A) (A) (A) (A) (A)
                 (A) (A) (A) (A) (A) (A) (A) (A) (A) (A) (A) (A)
                 (A) (A) (A) (A) (A) (A) (A) (A) (A) (A) (A) (A)
                 (A) (A) (A) (A) (A) (A) (A) (A) (A) (A) (A) (A)
                 (A) (A) (A) (A) (A) (A) (A) (A) (A) (A) (A) (A)
                 (A) (A) (A) (A) (A) (A) (A) (A) (A) (A) (A) (A)
                 (A) (A) (A) (A) (A) (A) (A) (A) (A) (A) (A) (A)
                 (A) (A) (A) (A) (A) (A) (A) (A) (A) (A) (A) (A)
                 (A) (A) (A) (A) (A) (A) (A) (A) (A) (A) (A) (A)
                 (A) (A) (A) (A) (A) (A) (A) (A) (A) (A) (A) (A)
                 (A) (A) (A) (A) (A) (A) (A) (A) (A) (A) (A) (A)
                 (A) (A) (A) (A) (A) (A) (A) (A) (A) (A) (A) (A)
                 (A) (A) (A) (A) (A) (A) (A) (A) (A) (A) (A) (A)
                 (A) (A) (A) (A) (A) (A) (A) (A) (A) (A) (A) (A)
                 (A) (A) (A) (A) (A) (A) (A) (A) (A) (A) (A) (A)
                 (A) (A) (A) (A) (A) (A) (A) (A) (A) (A) (A) (A)
                 (A) (A) (A) (A) (A) (A) (A) (A) (A) (A) (A) (A)
                 (A) (A) (A) (A) (A) (A) (A) (A) (A) (A) (A) (A)
                 (A) (A) (A) (A) (A) (A) (A) (A) (A) (A) (A) (A)
                 (A) (A) (A) (A) (A) (A) (A) (A) (A) (A) (A) (A)
                 (A) (A) (A) (A) (A) (A) (A) (A) (A) (A) (A) (A)
                 (A) (A) (A) (A) (A) (A) (A) (A) (A) (A) (A) (A)
                 (A) (A) (A) (A) (A) (A) (A) (A) (A) (A) (A) (A)
                 (A) (A) (A) (A) (A) (A) (A) (A) (A) (A) (A) (A)
                 (A) (A) (A) (A) (A) (A) (A) (A) (A) (A) (A) (A)
                 (A) (A) (A) (A) (A) (A) (A) (A) (A) (A) (A) (A)
                 (A) (A) (A) (A) (A) (A) (A) (A) (A) (A) (A) (A)
                 (A) (A) (A) (A) (A) (A) (A) (A) (A) (A) (A) (A)
                 (A) (A) (A) (A) (A) (A) (A) (A) (A) (A) (A) (A)
                 (A) (A) (A) (A) (A) (A) (A) (A) (A) (A) (A) (A)
                 (A) (A) (A) (A) (A) (A) (A) (A) (A) (A) (A) (A)
                 (A) (A) (A) (A) (A) (A) (A) (A) (A) (A) (A) (A)
                 (A) (A) (A) (A) (A) (A) (A) (A) (A) (A) (A) (A)
                 (A) (A) (A) (A) (A) (A) (A) (A) (A) (A) (A) (A)
                 (A) (A) (A) (A) (A) (A) (A) (A) (A) (A) (A) (A)
                 (A) (A) (A) (A) (A) (A) (A) (A) (A) (A) (A) (A)
                 (A) (A) (A) (A) (A) (A) (A) (A) (A) (A) (A) (A)
                 (A) (A) (A) (A) (A) (A) (A) (A) (A) (A) (A) (A)
                 (A) (A) (A) (A) (A) (A) (A) (A) (A) (A) (A) (A)
                 (A) (A) (A) (A) (A) (A) (A) (A) (A) (A) (A) (A)
                 (A) (A) (A) (A) (A) (A) (A) (A) (A) (A) (A) (A)
                 (A) (A) (A) (A) (A) (A) (A) (A) (A) (A) (A) (A)
                 (A) (A) (A) (A) (A) (A) (A) (A) (A) (A) (A) (A)
                 (A) (A) (A) (A) (A) (A) (A) (A) (A) (A) (A) (A)
                 (A) (A) (A) (A) (A) (A) (A) (A) (A) (A) (A) (A)
                 (A) (A) (A) (A) (A) (A) (A) (A) (A) (A) (A) (A)
                 (A) (A) (A) (A) (A) (A) (A) (A) (A) (A) (A) (A)
                 (A) (A) (A) (A) (A) (A) (A) (A) (A) (A) (A) (A)
                 (A) (A) (A) (A) (A) (A) (A) (A) (A) (A) (A) (A)
                 (A) (A) (A) (A) (A) (A) (A) (A) (A) (A) (A) (A)
                 (A) (A) (A) (A) (A) (A) (A) (A) (A) (A) (A) (A)
                 (A) (A) (A) (A) (A) (A) (A) (A) (A) (A) (A) (A)
                 (A) (A) (A) (A) (A) (A) (A) (A) (A) (A) (A) (A)
                 (A) (A) (A) (A) (A) (A) (A) (A) (A) (A) (A) (A)
                 (A) (A) (A) (A) (A) (A) (A) (A) (A) (A) (A) (A)
                 (A) (A) (A) (A) (A) (A) (A) (A) (A) (A) (A) (A)
                 (A) (A) (A) (A) (A) (A) (A) (A) (A) (A) (A) (A)
                 (A) (A) (A) (A) (A) (A) (A) (A) (A) (A) (A) (A)
                 (A) (A) (A) (A) (A) (A) (A) (A) (A) (A) (A) (A)
                 (A) (A) (A) (A) (A) (A) (A) (A) (A) (A) (A) (A)
                 (A) (A) (A) (A) (A) (A) (A) (A) (A) (A) (A) (A)
                 (A) (A) (A) (A) (A) (A) (A) (A) (A) (A) (A) (A)
                 (A) (A) (A) (A) (A) (A) (A) (A) (A) (A) (A) (A)
                 (A) (A) (A) (A) (A) (A) (A) (A) (A) (A) (A) (A)
                 (A) (A) (A) (A) (A) (A) (A) (A) (A) (A) (A) (A)
                 (A) (A) (A) (A) (A) (A) (A) (A) (A) (A) (A) (A)
                 (A) (A) (A) (A) (A) (A) (A) (A) (A) (A) (A) (A)
                 (A) (A) (A) (A) (A) (A) (A) (A) (A) (A) (A) (A)
                 (A) (A) (A) (A) (A) (A) (A) (A) (A) (A) (A) (A)
                 (A) (A) (A) (A) (A) (A) (A) (A) (A) (A) (A) (A)
                 (A) (A) (A) (A) (A) (A) (A) (A) (A) (A) (A) (A)
                 (A) (A) (A) (A) (A) (A) (A) (A) (A) (A) (A) (A)
                 (A) (A) (A) (A) (A) (A) (A) (A) (A) (A) (A) (A)
                 (A) (A) (A) (A) (A) (A) (A) (A) (A) (A) (A) (A)
                 (A) (A) (A) (A) (A) (A) (A) (A) (A) (A) (A) (A)
                 (A) (A) (A) (A) (A) (A) (A) (A) (A) (A) (A) (A)
                 (A) (A) (A) (A) (A) (A) (A) (A) (A) (A) (A) (A)
                 (A) (A) (A) (A) (A) (A) (A) (A) (A) (A) (A) (A)
                 (A) (A) (A) (A) (A) (A) (A) (A) (A) (A) (A) (A)
                 (A) (A) (A) (A) (A) (A) (A) (A) (A) (A) (A) (A)
                 (A) (A) (A) (A) (A) (A) (A) (A) (A) (A) (A) (A)
                 (A) (A) (A) (A) (A) (A) (A) (A) (A) (A) (A) (A)
                 (A) (A) (A) (A) (A) (A) (A) (A) (A) (A) (A) (A)
                 (A) (A) (A) (A) (A) (A) (A) (A) (A) (A) (A) (A)
                 (A) (A) (A) (A) (A) (A) (A) (A) (A) (A) (A) (A)
                 (A) (A) (A) (A) (A) (A) (A) (A) (A) (A) (A) (A)
                 (A) (A) (A) (A) (A) (A) (A) (A) (A) (A) (A) (A)
                 (A) (A) (A) (A) (A) (A) (A) (A) (A) (A) (A) (A)
                 (A) (A) (A) (A) (A) (A) (A) (A) (A) (A) (A) (A)
                 (A) (A) (A) (A) (A) (A) (A) (A) (A) (A) (A) (A)
                 (A) (A) (A) (A) (A) (A) (A) (A) (A) (A) (A) (A)
                 (A) (A) (A) (A) (A) (A) (A) (A) (A) (A) (A) (A)
    20 initial guesses have been made.
 Convergence on wavefunction:    0.001000000000000
 Davidson Disk Diagonalization:  ConvIn= 1.00D-03 SkipCon=T Conv= 1.00D-03.
 Max sub-space:  2000 roots to seek:    20 dimension of matrix:       549360
 Iteration     1 Dimension    20 NMult     0 NNew     20
 CISAX will form    20 AO SS matrices at one time.
 NMat=    20 NSing=    20 JSym2X= 0.
 FoFJK:  IHMeth= 1 ICntrl=       0 DoSepK=T KAlg= 0 I1Cent=           0 FoldK=F
 IRaf=         1 NMat=      40 IRICut=       1 DoRegI=T DoRafI=F ISym2E= 0 IDoP0=3 IntGTp=3.
 FoFCou: FMM=T IPFlag=           0 FMFlag=      100000 FMFlg1=        2001
         NFxFlg=           0 DoJE=F BraDBF=F KetDBF=F FulRan=T
         wScrn=  0.000000 ICntrl=       500 IOpCl=  0 I1Cent=           0 NGrid=           0
         NMat0=   20 NMatS0=     20 NMatT0=    0 NMatD0=   20 NMtDS0=    0 NMtDT0=    0
 Symmetry not used in FoFCou.
 FMM levels:  10  Number of levels for PrismC:   9
 New state      2 was old state      6
 New state      5 was old state      7
 Excitation Energies [eV] at current iteration:
 Root      1 :     2.209282727295078
 Root      2 :     2.534925011589933
 Root      3 :     2.593344322604287
 Root      4 :     2.610603449701925
 Root      5 :     2.629403793723752
 Root      6 :     2.759506061028175
 Root      7 :     2.974538635178740
 Root      8 :     3.336008823695975
 Root      9 :     3.617030237614818
 Root     10 :     3.683765623838929
 Root     11 :     3.746864271227636
 Root     12 :     3.756467446886949
 Root     13 :     4.062438104857189
 Root     14 :     4.237608000196934
 Root     15 :     4.313492807320652
 Root     16 :     4.418142886273676
 Root     17 :     4.466292858630580
 Root     18 :     4.516119793800774
 Root     19 :     4.572635682280522
 Root     20 :     4.589614660777496
 Iteration     2 Dimension    30 NMult    20 NNew     10
 CISAX will form    10 AO SS matrices at one time.
 NMat=    10 NSing=    10 JSym2X= 0.
 New state      1 was old state      3
 Root      1 not converged, maximum delta is    0.260641513122847
 Root      2 not converged, maximum delta is    0.195377664423716
 New state      3 was old state      1
 Root      3 not converged, maximum delta is    0.165630322515144
 New state      4 was old state      5
 Root      4 not converged, maximum delta is    0.276022289985714
 New state      5 was old state      6
 Root      5 not converged, maximum delta is    0.164067799197609
 Excitation Energies [eV] at current iteration:
 Root      1 :     1.740551048471840   Change is   -0.852793274132448
 Root      2 :     2.147500809995755   Change is   -0.387424201594178
 Root      3 :     2.203085579984307   Change is   -0.006197147310772
 Root      4 :     2.231308129002721   Change is   -0.398095664721030
 Root      5 :     2.581354491254537   Change is   -0.178151569773639
 Iteration     3 Dimension    40 NMult    30 NNew     10
 CISAX will form    10 AO SS matrices at one time.
 NMat=    10 NSing=    10 JSym2X= 0.
 Root      1 not converged, maximum delta is    0.063898670542428
 New state      2 was old state      5
 Root      2 not converged, maximum delta is    0.159372491055906
 New state      3 was old state      2
 Root      3 not converged, maximum delta is    0.061415811975506
 Root      4 not converged, maximum delta is    0.344137045726616
 New state      5 was old state      3
 Root      5 not converged, maximum delta is    0.311605235198991
 Excitation Energies [eV] at current iteration:
 Root      1 :     1.637387911911920   Change is   -0.103163136559920
 Root      2 :     1.814987587760692   Change is   -0.766366903493845
 Root      3 :     2.113192087773075   Change is   -0.034308722222680
 Root      4 :     2.186780993740566   Change is   -0.044527135262155
 Root      5 :     2.204424284309310   Change is    0.001338704325004
 Iteration     4 Dimension    50 NMult    40 NNew     10
 CISAX will form    10 AO SS matrices at one time.
 NMat=    10 NSing=    10 JSym2X= 0.
 Root      1 not converged, maximum delta is    0.028597294633929
 Root      2 not converged, maximum delta is    0.047583034624592
 Root      3 not converged, maximum delta is    0.008442457840809
 Root      4 not converged, maximum delta is    0.058495568048483
 Root      5 not converged, maximum delta is    0.053267385025298
 Excitation Energies [eV] at current iteration:
 Root      1 :     1.619991452674553   Change is   -0.017396459237367
 Root      2 :     1.716817342479412   Change is   -0.098170245281280
 Root      3 :     2.107257544854720   Change is   -0.005934542918355
 Root      4 :     2.179833365894403   Change is   -0.006947627846163
 Root      5 :     2.203810089133770   Change is   -0.000614195175541
 Iteration     5 Dimension    60 NMult    50 NNew     10
 CISAX will form    10 AO SS matrices at one time.
 NMat=    10 NSing=    10 JSym2X= 0.
 Root      1 not converged, maximum delta is    0.015186041399932
 Root      2 not converged, maximum delta is    0.017926930988026
 Root      3 not converged, maximum delta is    0.002525720737290
 Root      4 not converged, maximum delta is    0.005082374945466
 Root      5 not converged, maximum delta is    0.004766552510880
 Excitation Energies [eV] at current iteration:
 Root      1 :     1.617838935325433   Change is   -0.002152517349120
 Root      2 :     1.700772407478996   Change is   -0.016044935000415
 Root      3 :     2.106535959863915   Change is   -0.000721584990805
 Root      4 :     2.178974815136221   Change is   -0.000858550758181
 Root      5 :     2.203755307458293   Change is   -0.000054781675477
 Iteration     6 Dimension    70 NMult    60 NNew     10
 CISAX will form    10 AO SS matrices at one time.
 NMat=    10 NSing=    10 JSym2X= 0.
 Root      1 not converged, maximum delta is    0.001914685766745
 Root      2 not converged, maximum delta is    0.003211159745813
 Root      3 has converged.
 Root      4 has converged.
 Root      5 has converged.
 Excitation Energies [eV] at current iteration:
 Root      1 :     1.617547298946563   Change is   -0.000291636378870
 Root      2 :     1.698938599799372   Change is   -0.001833807679624
 Root      3 :     2.106423495029386   Change is   -0.000112464834529
 Root      4 :     2.178848118073814   Change is   -0.000126697062407
 Root      5 :     2.203747055006207   Change is   -0.000008252452086
 Iteration     7 Dimension    74 NMult    70 NNew      4
 CISAX will form     4 AO SS matrices at one time.
 NMat=     4 NSing=     4 JSym2X= 0.
 Root      1 has converged.
 Root      2 has converged.
 Root      3 has converged.
 Root      4 has converged.
 Root      5 has converged.
[...]
 Alpha virt. eigenvalues --    1.85318   1.85336   1.85453   1.85635   1.85774
 Alpha virt. eigenvalues --    1.85904   1.86053   1.86242   1.86519   1.86639
 Alpha virt. eigenvalues --    1.86763   1.86846   1.87013   1.87169   1.87248
 Alpha virt. eigenvalues --    1.87428   1.87582   1.87681   1.87984   1.88249
 Alpha virt. eigenvalues --    1.88281   1.88392   1.88586   1.88637   1.88901
 Alpha virt. eigenvalues --    1.89044   1.89250   1.89361   1.89487   1.89764
 Alpha virt. eigenvalues --    1.89950   1.90183   1.90547   1.90629   1.90744
 Alpha virt. eigenvalues --    1.91006   1.91151   1.91355   1.91557   1.91894
 Alpha virt. eigenvalues --    1.92216   1.92475   1.92663   1.92852   1.93225
 Alpha virt. eigenvalues --    1.93360   1.93443   1.93698   1.94201   1.94322
 Alpha virt. eigenvalues --    1.94536   1.94719   1.95018   1.95180   1.95265
 Alpha virt. eigenvalues --    1.95549   1.95842   1.96014   1.96368   1.96471
 Alpha virt. eigenvalues --    1.96717   1.96836   1.97027   1.97196   1.97464
 Alpha virt. eigenvalues --    1.97733   1.97858   1.98199   1.98269   1.98329
 Alpha virt. eigenvalues --    1.98491   1.98935   1.99121   1.99253   1.99289
 Alpha virt. eigenvalues --    1.99485   2.00159   2.00365   2.00822   2.01047
 Alpha virt. eigenvalues --    2.01299   2.01590   2.01630   2.01836   2.02173
 Alpha virt. eigenvalues --    2.02303   2.02807   2.02887   2.03014   2.03156
 Alpha virt. eigenvalues --    2.03493   2.03654   2.03829   2.03931   2.04255
 Alpha virt. eigenvalues --    2.04482   2.04837   2.05052   2.05283   2.05398
 Alpha virt. eigenvalues --    2.05776   2.05957   2.06199   2.06364   2.07029
 Alpha virt. eigenvalues --    2.07464   2.07694   2.08352   2.08669   2.08840
 Alpha virt. eigenvalues --    2.08941   2.09447   2.09826   2.10031   2.10187
 Alpha virt. eigenvalues --    2.10870   2.11219   2.11485   2.11571   2.11784
 Alpha virt. eigenvalues --    2.11993   2.12391   2.12559   2.12755   2.13028
 Alpha virt. eigenvalues --    2.13103   2.13181   2.13364   2.13652   2.14106
 Alpha virt. eigenvalues --    2.14419   2.14747   2.15346   2.15647   2.16136
 Alpha virt. eigenvalues --    2.16273   2.16583   2.16872   2.17179   2.17291
 Alpha virt. eigenvalues --    2.17414   2.17650   2.17782   2.17913   2.18304
 Alpha virt. eigenvalues --    2.18385   2.18613   2.18763   2.18988   2.19131
 Alpha virt. eigenvalues --    2.19309   2.19921   2.20118   2.20242   2.20468
 Alpha virt. eigenvalues --    2.20902   2.20959   2.21283   2.21390   2.21721
 Alpha virt. eigenvalues --    2.21920   2.22772   2.23079   2.23266   2.23342
 Alpha virt. eigenvalues --    2.23678   2.24057   2.24215   2.24769   2.25096
 Alpha virt. eigenvalues --    2.25277   2.25719   2.26200   2.26812   2.27047
 Alpha virt. eigenvalues --    2.27384   2.27877   2.28246   2.28664   2.29218
 Alpha virt. eigenvalues --    2.29371   2.29885   2.29945   2.30328   2.30603
 Alpha virt. eigenvalues --    2.31087   2.31445   2.31643   2.32151   2.32347
 Alpha virt. eigenvalues --    2.32467   2.32824   2.33239   2.33669   2.34061
 Alpha virt. eigenvalues --    2.34468   2.34557   2.35443   2.35539   2.35786
 Alpha virt. eigenvalues --    2.36337   2.36493   2.36619   2.36778   2.36966
 Alpha virt. eigenvalues --    2.37465   2.37685   2.37935   2.38316   2.38438
 Alpha virt. eigenvalues --    2.38818   2.39055   2.39643   2.39758   2.40368
 Alpha virt. eigenvalues --    2.40501   2.40765   2.40872   2.41535   2.41737
 Alpha virt. eigenvalues --    2.41847   2.42265   2.42734   2.42888   2.43012
 Alpha virt. eigenvalues --    2.43507   2.43770   2.44125   2.44490   2.44636
 Alpha virt. eigenvalues --    2.44913   2.45072   2.45387   2.45733   2.46025
 Alpha virt. eigenvalues --    2.46086   2.46223   2.46401   2.46731   2.46834
 Alpha virt. eigenvalues --    2.47226   2.47507   2.47566   2.48192   2.48576
 Alpha virt. eigenvalues --    2.48917   2.49311   2.49542   2.49888   2.50229
 Alpha virt. eigenvalues --    2.50434   2.50715   2.51047   2.51632   2.51953
 Alpha virt. eigenvalues --    2.52156   2.52639   2.53117   2.53192   2.53870
 Alpha virt. eigenvalues --    2.54001   2.54308   2.54386   2.54618   2.55039
 Alpha virt. eigenvalues --    2.55191   2.55897   2.56074   2.56571   2.57807
 Alpha virt. eigenvalues --    2.58449   2.58559   2.58941   2.59511   2.60303
 Alpha virt. eigenvalues --    2.60915   2.61399   2.61885   2.62095   2.62476
 Alpha virt. eigenvalues --    2.62865   2.63060   2.63746   2.64023   2.64223
 Alpha virt. eigenvalues --    2.64555   2.64698   2.64818   2.65475   2.66078
 Alpha virt. eigenvalues --    2.66317   2.66515   2.66927   2.67104   2.67461
 Alpha virt. eigenvalues --    2.67547   2.68469   2.68545   2.68903   2.69178
 Alpha virt. eigenvalues --    2.69226   2.69634   2.70155   2.70356   2.70625
 Alpha virt. eigenvalues --    2.70775   2.71345   2.71848   2.72147   2.72488
 Alpha virt. eigenvalues --    2.72826   2.72983   2.73351   2.73470   2.73571
 Alpha virt. eigenvalues --    2.73862   2.74741   2.74939   2.75102   2.75220
 Alpha virt. eigenvalues --    2.75735   2.76572   2.76929   2.77193   2.77495
 Alpha virt. eigenvalues --    2.77734   2.77915   2.77990   2.78610   2.78849
 Alpha virt. eigenvalues --    2.79079   2.79128   2.80053   2.80198   2.80556
 Alpha virt. eigenvalues --    2.80877   2.81131   2.81418   2.81792   2.81901
 Alpha virt. eigenvalues --    2.82492   2.82638   2.82804   2.83503   2.83578
 Alpha virt. eigenvalues --    2.84082   2.84229   2.84609   2.84781   2.84939
 Alpha virt. eigenvalues --    2.85176   2.85371   2.85858   2.86439   2.87134
 Alpha virt. eigenvalues --    2.87201   2.87834   2.88323   2.88537   2.88729
 Alpha virt. eigenvalues --    2.88936   2.89119   2.89350   2.90613   2.91180
 Alpha virt. eigenvalues --    2.91678   2.92289   2.93517   2.93726   2.94150
 Alpha virt. eigenvalues --    2.94356   2.94766   2.95031   2.95502   2.96086
 Alpha virt. eigenvalues --    2.96463   2.96609   2.96716   2.97136   2.97939
 Alpha virt. eigenvalues --    2.98015   2.98143   2.98283   2.98452   2.98501
 Alpha virt. eigenvalues --    2.98758   2.99007   2.99085   2.99377   2.99645
 Alpha virt. eigenvalues --    2.99834   3.00198   3.00285   3.00428   3.00577
 Alpha virt. eigenvalues --    3.00702   3.00896   3.01187   3.01950   3.01962
 Alpha virt. eigenvalues --    3.02331   3.02687   3.02838   3.03073   3.03366
 Alpha virt. eigenvalues --    3.03470   3.03984   3.04174   3.04441   3.04683
 Alpha virt. eigenvalues --    3.04759   3.04964   3.05308   3.05380   3.05781
 Alpha virt. eigenvalues --    3.05969   3.06605   3.06840   3.07094   3.07656
 Alpha virt. eigenvalues --    3.08209   3.08761   3.09294   3.09490   3.09633
 Alpha virt. eigenvalues --    3.09833   3.10513   3.10960   3.11281   3.11384
 Alpha virt. eigenvalues --    3.11666   3.12044   3.12083   3.12556   3.13237
 Alpha virt. eigenvalues --    3.13772   3.13874   3.13969   3.14418   3.14925
 Alpha virt. eigenvalues --    3.15687   3.16153   3.17533   3.17807   3.18040
 Alpha virt. eigenvalues --    3.18226   3.18945   3.19119   3.19713   3.20615
 Alpha virt. eigenvalues --    3.22538   3.24253   3.24482   3.24883   3.25043
 Alpha virt. eigenvalues --    3.26051   3.26945   3.27170   3.27757   3.28219
 Alpha virt. eigenvalues --    3.29275   3.30635   3.31721   3.31912   3.33492
 Alpha virt. eigenvalues --    3.33560   3.40941   3.42640   3.43051   3.44931
 Alpha virt. eigenvalues --    3.49093   3.49127   3.50121   3.50574   3.51222
 Alpha virt. eigenvalues --    3.51878   3.56555   3.57269   3.59479   3.59589
 Alpha virt. eigenvalues --    3.62880   3.63000   3.65815   3.66292   3.67515
 Alpha virt. eigenvalues --    3.70501   3.73496   3.75492   3.76390   3.78308
          Condensed to atoms (all electrons):
 Mulliken charges:
               1
     1  Mg   0.403917
     2  C    0.022181
     3  C   -0.095860
     4  C   -0.037333
     5  C   -0.036492
     6  N   -0.246333
     7  C   -0.057219
     8  C   -0.015434
     9  C   -0.086177
    10  C    0.054069
    11  C    0.104833
    12  C    0.052899
    13  C   -0.072529
    14  H    0.039152
    15  N   -0.417054
    16  C    0.174507
    17  C   -0.177357
    18  C   -0.006000
    19  C    0.143511
    20  C    0.110415
    21  C    0.009617
    22  O   -0.249981
    23  C    0.063143
    24  N   -0.303971
    25  C    0.045778
    26  C   -0.026690
    27  C   -0.019068
    28  C    0.051122
    29  C    0.076903
    30  C    0.039118
    31  C    0.016428
    32  N   -0.322839
    33  C    0.094595
    34  C   -0.256306
    35  C   -0.034621
    36  C    0.085170
    37  C    0.152978
    38  C    0.034977
    39  O   -0.179136
    40  C   -0.009536
    41  C    0.210251
    42  O   -0.243387
    43  O   -0.306609
    44  C    0.156363
    45  H   -0.018512
    46  H   -0.018088
    47  H   -0.044331
    48  H    0.001389
    49  H   -0.003407
    50  H    0.026053
    51  H    0.016726
    52  H    0.017414
    53  H    0.011873
    54  H    0.049666
    55  H    0.017479
    56  H    0.017474
    57  H    0.007600
    58  H    0.027601
    59  H    0.039332
    60  H    0.039007
    61  H    0.035509
    62  H    0.030044
    63  H    0.013726
    64  H    0.009949
    65  H    0.023292
    66  H    0.013866
    67  H    0.005866
    68  H    0.007339
    69  H    0.007564
    70  H    0.009606
    71  H    0.022301
    72  H   -0.000797
    73  H    0.051820
    74  H    0.012400
    75  H    0.048372
    76  H    0.035884
    77  H    0.043042
    78  H    0.045668
    79  H    0.058513
    80  Mg   0.837407
    81  C   -0.014302
    82  C   -0.088668
    83  C   -0.046353
    84  C   -0.066011
    85  N   -0.254394
    86  C   -0.047701
    87  C   -0.020076
    88  C   -0.093828
    89  C    0.044408
    90  C    0.114751
    91  C    0.143265
    92  C   -0.168494
    93  H    0.226360
    94  N   -0.423281
    95  C    0.161937
    96  C   -0.175166
    97  C   -0.008827
    98  C    0.151938
    99  C    0.099172
   100  C    0.014860
   101  O   -0.254079
   102  C    0.061638
   103  N   -0.350364
   104  C    0.037303
   105  C   -0.019522
   106  C   -0.034865
   107  C    0.089507
   108  C    0.073966
   109  C    0.034938
   110  C   -0.007570
   111  N   -0.324297
   112  C    0.079158
   113  C   -0.163466
   114  C    0.003379
   115  C    0.095802
   116  C    0.131320
   117  C    0.042874
   118  O   -0.185575
   119  C    0.007530
   120  C    0.213754
   121  O   -0.244140
   122  O   -0.314275
   123  C    0.250672
   124  H   -0.018297
   125  H   -0.016635
   126  H   -0.041074
   127  H   -0.004750
   128  H    0.000548
   129  H    0.021670
   130  H    0.012870
   131  H    0.019899
   132  H    0.013084
   133  H    0.046157
   134  H    0.075841
   135  H    0.129327
   136  H    0.009351
   137  H    0.025674
   138  H    0.036782
   139  H    0.037986
   140  H    0.035361
   141  H    0.032564
   142  H    0.013710
   143  H    0.011936
   144  H    0.024355
   145  H    0.011502
   146  H    0.005091
   147  H    0.005543
   148  H    0.003491
   149  H    0.010389
   150  H    0.017463
   151  H    0.030780
   152  H    0.047013
   153  H    0.007696
   154  H    0.046178
   155  H    0.030597
   156  H    0.004688
   157  H    0.046515
   158  H    0.052774
 Sum of Mulliken charges =  -0.00000
 Mulliken charges with hydrogens summed into heavy atoms:
               1
     1  Mg   0.403917
     2  C    0.022181
     3  C   -0.114372
     4  C   -0.055421
     5  C   -0.080824
     6  N   -0.246333
     7  C   -0.057219
     8  C   -0.014045
     9  C   -0.089584
    10  C    0.054069
    11  C    0.165026
    12  C    0.114437
    13  C    0.001576
    15  N   -0.417054
    16  C    0.174507
    17  C   -0.177357
    18  C   -0.006000
    19  C    0.143511
    20  C    0.184946
    21  C    0.009617
    22  O   -0.249981
    23  C    0.167703
    24  N   -0.303971
    25  C    0.045778
    26  C   -0.012964
    27  C   -0.009119
    28  C    0.051122
    29  C    0.119927
    30  C    0.054021
    31  C    0.047537
    32  N   -0.322839
    33  C    0.094595
    34  C   -0.256306
    35  C   -0.034621
    36  C    0.085170
    37  C    0.265570
    38  C    0.034977
    39  O   -0.179136
    40  C    0.026348
    41  C    0.210251
    42  O   -0.243387
    43  O   -0.306609
    44  C    0.303587
    80  Mg   0.837407
    81  C   -0.014302
    82  C   -0.106965
    83  C   -0.062987
    84  C   -0.107085
    85  N   -0.254394
    86  C   -0.047701
    87  C   -0.024826
    88  C   -0.093280
    89  C    0.044408
    90  C    0.169190
    91  C    0.202506
    92  C    0.263033
    94  N   -0.423281
    95  C    0.161937
    96  C   -0.175166
    97  C   -0.008827
    98  C    0.151938
    99  C    0.170978
   100  C    0.014860
   101  O   -0.254079
   102  C    0.167550
   103  N   -0.350364
   104  C    0.037303
   105  C   -0.005812
   106  C   -0.022929
   107  C    0.089507
   108  C    0.114914
   109  C    0.043971
   110  C    0.051063
   111  N   -0.324297
   112  C    0.079158
   113  C   -0.163466
   114  C    0.003379
   115  C    0.095802
   116  C    0.232207
   117  C    0.042874
   118  O   -0.185575
   119  C    0.038126
   120  C    0.213754
   121  O   -0.244140
   122  O   -0.314275
   123  C    0.354649
 Electronic spatial extent (au):  <R**2>=          92434.3665
 Charge=             -0.0000 electrons
 Dipole moment (field-independent basis, Debye):
    X=             -3.1686    Y=              6.8839    Z=              1.7045  Tot=              7.7674
 Quadrupole moment (field-independent basis, Debye-Ang):
   XX=           -491.1584   YY=           -542.1883   ZZ=           -472.2006
   XY=            -30.5184   XZ=            -19.2997   YZ=              5.7088
 Traceless Quadrupole moment (field-independent basis, Debye-Ang):
   XX=             10.6907   YY=            -40.3392   ZZ=             29.6485
   XY=            -30.5184   XZ=            -19.2997   YZ=              5.7088
 Octapole moment (field-independent basis, Debye-Ang**2):
  XXX=            -70.2612  YYY=            235.3982  ZZZ=             44.5844  XYY=             99.0389
  XXY=           -260.0377  XXZ=            -34.8733  XZZ=           -234.2036  YZZ=            -49.9463
  YYZ=            227.6498  XYZ=           -106.7999
 Hexadecapole moment (field-independent basis, Debye-Ang**3):
 XXXX=         -73612.2810 YYYY=         -33813.7228 ZZZZ=         -18244.4137 XXXY=          -3051.4536
 XXXZ=          -1194.9325 YYYX=           -107.4451 YYYZ=            297.6946 ZZZX=           -246.7395
 ZZZY=           -506.6716 XXYY=         -18258.7224 XXZZ=         -15102.9647 YYZZ=          -8281.9325
 XXYZ=           -173.5445 YYXZ=           -486.3264 ZZXY=            109.2518
 N-N= 1.626287508571D+04 E-N=-4.200692651651D+04  KE= 4.029385742783D+03
 Leave Link  601 at Thu Sep  9 22:11:44 2021, MaxMem= 23488102400 cpu:              20.8 elap:               1.0
 (Enter /sw/apps/gaussian-16.0/g16/l9999.exe)
 1\1\GINC-BP1-COMPUTE00099\SP\RCAM-B3LYP TD-FC\def2SVP\C68H72Mg2N8O8\OF
 15641\09-Sep-2021\0\\#p cam-b3lyp/Def2SVP td=(nstates=5)\\TDDFT excite
 d states in gaussian\\0,1\Mg,0,0.,0.,0.\C,0,-0.217,-2.218,2.801\C,0,-1
 .255,2.442,2.026\C,0,-0.245,1.85,-2.564\C,0,0.146,-2.824,-2.037\N,0,-0
 .617,-0.009,2.126\C,0,-0.594,-0.908,3.105\C,0,-0.936,-0.309,4.502\C,0,
 -1.773,0.964,4.032\C,0,-1.155,1.168,2.66\C,0,-3.263,0.685,3.863\C,0,0.
 345,0.11,5.299\C,0,0.124,0.397,6.787\H,0,1.168,0.033,7.733\N,0,-0.185,
 1.961,-0.152\C,0,-0.703,2.8,0.777\C,0,-0.62,4.156,0.193\C,0,-0.187,4.0
 15,-1.225\C,0,-0.214,2.583,-1.38\C,0,-0.887,5.406,0.974\C,0,0.181,5.01
 3,-2.277\O,0,0.303,4.69,-3.508\C,0,0.31,6.414,-1.837\N,0,-0.265,-0.413
 ,-2.029\C,0,-0.279,0.569,-2.937\C,0,-0.196,0.024,-4.332\C,0,0.124,-1.5
 33,-4.18\C,0,0.086,-1.632,-2.635\C,0,-1.451,0.205,-5.197\C,0,1.373,-2.
 07,-4.923\C,0,2.626,-1.49,-4.306\N,0,0.15,-2.144,0.303\C,0,0.173,-3.13
 6,-0.688\C,0,0.173,-4.438,0.004\C,0,0.133,-4.111,1.358\C,0,0.083,-2.69
 5,1.502\C,0,0.149,-5.715,-0.623\C,0,0.096,-4.629,2.716\O,0,0.208,-5.74
 7,3.221\C,0,-0.255,-3.428,3.701\C,0,0.717,-3.482,4.848\O,0,1.931,-3.25
 5,4.669\O,0,0.038,-3.556,6.003\C,0,0.943,-3.583,7.183\H,0,-1.859,3.22,
 2.497\H,0,-0.218,2.453,-3.474\H,0,0.276,-3.747,-2.605\H,0,-1.554,-0.94
 9,5.132\H,0,-1.585,1.831,4.665\H,0,-3.484,-0.377,3.969\H,0,-3.511,1.02
 7,2.858\H,0,-3.852,1.301,4.543\H,0,0.669,1.096,4.966\H,0,1.13,-0.639,5
 .189\H,0,-0.844,0.026,7.125\H,0,0.062,1.477,6.921\H,0,-1.344,5.186,1.9
 38\H,0,-1.651,5.963,0.432\H,0,0.007,6.02,1.084\H,0,-0.635,6.744,-1.405
 \H,0,0.665,6.97,-2.704\H,0,1.048,6.466,-1.036\H,0,0.608,0.501,-4.891\H
 ,0,-0.692,-2.156,-4.547\H,0,-1.267,0.74,-6.129\H,0,-2.204,0.714,-4.596
 \H,0,-1.967,-0.72,-5.453\H,0,1.356,-1.759,-5.967\H,0,1.452,-3.157,-4.9
 02\H,0,2.714,-0.522,-4.798\H,0,3.487,-2.121,-4.529\H,0,2.495,-1.303,-3
 .24\H,0,0.867,-6.333,-0.084\H,0,0.404,-5.642,-1.68\H,0,-0.891,-5.999,-
 0.463\H,0,-1.283,-3.581,4.028\H,0,0.698,-4.478,7.755\H,0,0.833,-2.619,
 7.68\H,0,2.,-3.754,6.976\Mg,0,8.92532,0.80774,0.68331\C,0,6.72857,-1.9
 5802,0.04775\C,0,6.73444,2.75552,-1.06049\C,0,11.04876,3.16037,0.8368\
 C,0,11.43248,-1.5177,1.35576\N,0,7.01335,0.34358,-0.32723\C,0,6.24654,
 -0.72941,-0.44987\C,0,4.85171,-0.45529,-1.07347\C,0,5.20798,0.88777,-1
 .87853\C,0,6.36925,1.38615,-1.02077\C,0,5.72837,0.62778,-3.28243\C,0,3
 .75072,-0.19791,0.01446\C,0,2.31215,-0.22973,-0.50636\H,0,1.26973,-0.7
 7159,0.36095\N,0,8.69677,2.76265,0.42903\C,0,7.73916,3.38303,-0.29166\
 C,0,8.0208,4.82261,-0.18004\C,0,9.31801,4.9932,0.52908\C,0,9.75791,3.6
 1473,0.60916\C,0,7.06169,5.8781,-0.64854\C,0,10.04853,6.1988,1.03806\O
 ,0,11.27306,6.13621,1.41148\C,0,9.31717,7.47357,0.99866\N,0,10.99859,0
 .82803,0.83658\C,0,11.67293,1.98679,0.93891\C,0,13.11583,1.7469,1.3142
 6\C,0,13.21179,0.19321,1.68088\C,0,11.76401,-0.23386,1.35384\C,0,14.14
 768,2.07999,0.23689\C,0,13.791,-0.16608,3.07662\C,0,12.84346,0.2916,4.
 16201\N,0,9.04052,-1.3401,0.88718\C,0,10.19469,-2.11175,1.14514\C,0,9.
 79254,-3.53177,1.07999\C,0,8.4264,-3.48777,0.76342\C,0,8.0113,-2.13624
 ,0.6201\C,0,10.65655,-4.64979,1.2521\C,0,7.24347,-4.27762,0.50744\O,0,
 6.96759,-5.47488,0.57211\C,0,6.12027,-3.32591,-0.09176\C,0,4.83755,-3.
 60065,0.64422\O,0,4.73478,-3.3371,1.85524\O,0,3.88018,-3.92357,-0.2443
 5\C,0,2.58611,-4.19429,0.43676\H,0,6.23354,3.40544,-1.77853\H,0,11.798
 6,3.93639,1.00709\H,0,12.13394,-2.3013,1.65003\H,0,4.50272,-1.21821,-1
 .75898\H,0,4.38309,1.59501,-1.85161\H,0,5.88482,-0.42489,-3.4656\H,0,6
 .66365,1.16738,-3.3541\H,0,5.06156,1.08098,-4.02157\H,0,3.80878,0.8480
 1,0.3422\H,0,3.85449,-0.88509,0.83155\H,0,2.24619,-0.67094,-1.50833\H,
 0,1.96987,0.7989,-0.6434\H,0,6.26974,5.45178,-1.2766\H,0,7.61741,6.538
 43,-1.32307\H,0,6.65549,6.47253,0.17263\H,0,9.0206,7.68827,-0.02526\H,
 0,9.97032,8.20037,1.48554\H,0,8.39331,7.36491,1.5777\H,0,13.39143,2.33
 083,2.18384\H,0,13.86511,-0.35056,0.9828\H,0,14.90584,2.81344,0.57054\
 H,0,13.62366,2.44528,-0.63632\H,0,14.69211,1.22535,-0.1611\H,0,14.7326
 6,0.36271,3.24342\H,0,13.98978,-1.22519,3.20217\H,0,13.10175,1.34754,4
 .28594\H,0,13.01423,-0.26689,5.08014\H,0,11.80261,0.24463,3.82132\H,0,
 10.12984,-5.35666,1.87933\H,0,11.60554,-4.35444,1.69477\H,0,10.77033,-
 4.97014,0.21301\H,0,6.03691,-3.54748,-1.15644\H,0,2.26705,-5.19528,0.1
 3031\H,0,1.92417,-3.35,0.16701\H,0,2.59947,-4.29757,1.51547\\Version=E
 S64L-G16RevA.03\State=1-A\HF=-4069.7293659\RMSD=7.732e-09\PG=C01 [X(C6
 8H72Mg2N8O8)]\\@


 The theorems and results in mathematical physics are
 not theorems and results about Nature, but about our
 description of it.
                   --Gerard 't Hooft
 Job cpu time:       0 days 19 hours 51 minutes 14.3 seconds.
 Elapsed time:       0 days  0 hours 50 minutes 20.7 seconds.
 File lengths (MBytes):  RWF=  13225 Int=      0 D2E=      0 Chk=    574 Scr=      1
 Normal termination of Gaussian 16 at Thu Sep  9 22:11:45 2021.
