 Entering Gaussian System, Link 0=g16
 Initial command:
 /sw/apps/gaussian-16.0/g16/l1.exe "/tmp/Gau-96370.inp" -scrdir="/tmp/"
 Entering Link 1 = /sw/apps/gaussian-16.0/g16/l1.exe PID=     96371.
  
 Copyright (c) 1988,1990,1992,1993,1995,1998,2003,2009,2016,
            Gaussian, Inc.  All Rights Reserved.
  
 This is part of the Gaussian(R) 16 program.  It is based on
 the Gaussian(R) 09 system (copyright 2009, Gaussian, Inc.),
 the Gaussian(R) 03 system (copyright 2003, Gaussian, Inc.),
 the Gaussian(R) 98 system (copyright 1998, Gaussian, Inc.),
 the Gaussian(R) 94 system (copyright 1995, Gaussian, Inc.),
 the Gaussian 92(TM) system (copyright 1992, Gaussian, Inc.),
 the Gaussian 90(TM) system (copyright 1990, Gaussian, Inc.),
 the Gaussian 88(TM) system (copyright 1988, Gaussian, Inc.),
 the Gaussian 86(TM) system (copyright 1986, Carnegie Mellon
 University), and the Gaussian 82(TM) system (copyright 1983,
 Carnegie Mellon University). Gaussian is a federally registered
 trademark of Gaussian, Inc.
  
 This software contains proprietary and confidential information,
 including trade secrets, belonging to Gaussian, Inc.
  
 This software is provided under written license and may be
 used, copied, transmitted, or stored only in accord with that
 written license.
  
 The following legend is applicable only to US Government
 contracts under FAR:
  
                    RESTRICTED RIGHTS LEGEND
  
 Use, reproduction and disclosure by the US Government is
 subject to restrictions as set forth in subparagraphs (a)
 and (c) of the Commercial Computer Software - Restricted
 Rights clause in FAR 52.227-19.
  
 Gaussian, Inc.
 340 Quinnipiac St., Bldg. 40, Wallingford CT 06492
  
  
 ---------------------------------------------------------------
 Warning -- This program may not be used in any manner that
 competes with the business of Gaussian, Inc. or will provide
 assistance to any competitor of Gaussian, Inc.  The licensee
 of this program is prohibited from giving any competitor of
 Gaussian, Inc. access to this program.  By using this program,
 the user acknowledges that Gaussian, Inc. is engaged in the
 business of creating and licensing software in the field of
 computational chemistry and represents and warrants to the
 licensee that it is not a competitor of Gaussian, Inc. and that
 it will not use this program in any manner prohibited above.
 ---------------------------------------------------------------
  

 Cite this work as:
 Gaussian 16, Revision A.03,
 M. J. Frisch, G. W. Trucks, H. B. Schlegel, G. E. Scuseria, 
 M. A. Robb, J. R. Cheeseman, G. Scalmani, V. Barone, 
 G. A. Petersson, H. Nakatsuji, X. Li, M. Caricato, A. V. Marenich, 
 J. Bloino, B. G. Janesko, R. Gomperts, B. Mennucci, H. P. Hratchian, 
 J. V. Ortiz, A. F. Izmaylov, J. L. Sonnenberg, D. Williams-Young, 
 F. Ding, F. Lipparini, F. Egidi, J. Goings, B. Peng, A. Petrone, 
 T. Henderson, D. Ranasinghe, V. G. Zakrzewski, J. Gao, N. Rega, 
 G. Zheng, W. Liang, M. Hada, M. Ehara, K. Toyota, R. Fukuda, 
 J. Hasegawa, M. Ishida, T. Nakajima, Y. Honda, O. Kitao, H. Nakai, 
 T. Vreven, K. Throssell, J. A. Montgomery, Jr., J. E. Peralta, 
 F. Ogliaro, M. J. Bearpark, J. J. Heyd, E. N. Brothers, K. N. Kudin, 
 V. N. Staroverov, T. A. Keith, R. Kobayashi, J. Normand, 
 K. Raghavachari, A. P. Rendell, J. C. Burant, S. S. Iyengar, 
 J. Tomasi, M. Cossi, J. M. Millam, M. Klene, C. Adamo, R. Cammi, 
 J. W. Ochterski, R. L. Martin, K. Morokuma, O. Farkas, 
 J. B. Foresman, and D. J. Fox, Gaussian, Inc., Wallingford CT, 2016.
 
 ******************************************
 Gaussian 16:  ES64L-G16RevA.03 25-Dec-2016
                12-Sep-2021 
 ******************************************
 %nproc=24
 Will use up to   24 processors via shared memory.
 %mem=175gb
 -----------------------------------
 #p cam-b3lyp/Def2SVP td=(nstates=5)
 -----------------------------------
 1/38=1,172=1/1;
 2/12=2,17=6,18=5,40=1/2;
 3/5=43,7=101,11=9,25=1,30=1,74=-40/1,2,3,8;
 4//1;
 5/5=2,38=5/2;
 8/6=1,10=1,108=5/1;
 9/41=5,42=1,70=2/14;
 6/7=2,8=2,9=2,10=2/1;
 99/5=1,9=1/99;
 Leave Link    1 at Sun Sep 12 12:44:43 2021, MaxMem= 23488102400 cpu:               0.6 elap:               0.0
 (Enter /sw/apps/gaussian-16.0/g16/l101.exe)
 --------------------------------
 TDDFT excited states in gaussian
 --------------------------------
 Symbolic Z-matrix:
 Charge =  0 Multiplicity = 1
 Mg                    0.        0.        0. 
 C                    -0.217    -2.218     2.801 
 C                    -1.255     2.442     2.026 
 C                    -0.245     1.85     -2.564 
 C                     0.146    -2.824    -2.037 
 N                    -0.617    -0.009     2.126 
 C                    -0.594    -0.908     3.105 
 C                    -0.936    -0.309     4.502 
 C                    -1.773     0.964     4.032 
 C                    -1.155     1.168     2.66 
 C                    -3.263     0.685     3.863 
 C                     0.345     0.11      5.299 
 C                     0.124     0.397     6.787 
 H                     1.168     0.033     7.733 
 N                    -0.185     1.961    -0.152 
 C                    -0.703     2.8       0.777 
 C                    -0.62      4.156     0.193 
 C                    -0.187     4.015    -1.225 
 C                    -0.214     2.583    -1.38 
 C                    -0.887     5.406     0.974 
 C                     0.181     5.013    -2.277 
 O                     0.303     4.69     -3.508 
 C                     0.31      6.414    -1.837 
 N                    -0.265    -0.413    -2.029 
 C                    -0.279     0.569    -2.937 
 C                    -0.196     0.024    -4.332 
 C                     0.124    -1.533    -4.18 
 C                     0.086    -1.632    -2.635 
 C                    -1.451     0.205    -5.197 
 C                     1.373    -2.07     -4.923 
 C                     2.626    -1.49     -4.306 
 N                     0.15     -2.144     0.303 
 C                     0.173    -3.136    -0.688 
 C                     0.173    -4.438     0.004 
 C                     0.133    -4.111     1.358 
 C                     0.083    -2.695     1.502 
 C                     0.149    -5.715    -0.623 
 C                     0.096    -4.629     2.716 
 O                     0.208    -5.747     3.221 
 C                    -0.255    -3.428     3.701 
 C                     0.717    -3.482     4.848 
 O                     1.931    -3.255     4.669 
 O                     0.038    -3.556     6.003 
 C                     0.943    -3.583     7.183 
 H                    -1.859     3.22      2.497 
 H                    -0.218     2.453    -3.474 
 H                     0.276    -3.747    -2.605 
 H                    -1.554    -0.949     5.132 
 H                    -1.585     1.831     4.665 
 H                    -3.484    -0.377     3.969 
 H                    -3.511     1.027     2.858 
 H                    -3.852     1.301     4.543 
 H                     0.669     1.096     4.966 
 H                     1.13     -0.639     5.189 
 H                    -0.844     0.026     7.125 
 H                     0.062     1.477     6.921 
 H                    -1.344     5.186     1.938 
 H                    -1.651     5.963     0.432 
 H                     0.007     6.02      1.084 
 H                    -0.635     6.744    -1.405 
 H                     0.665     6.97     -2.704 
 H                     1.048     6.466    -1.036 
 H                     0.608     0.501    -4.891 
 H                    -0.692    -2.156    -4.547 
 H                    -1.267     0.74     -6.129 
 H                    -2.204     0.714    -4.596 
 H                    -1.967    -0.72     -5.453 
 H                     1.356    -1.759    -5.967 
 H                     1.452    -3.157    -4.902 
 H                     2.714    -0.522    -4.798 
 H                     3.487    -2.121    -4.529 
 H                     2.495    -1.303    -3.24 
 H                     0.867    -6.333    -0.084 
 H                     0.404    -5.642    -1.68 
 H                    -0.891    -5.999    -0.463 
 H                    -1.283    -3.581     4.028 
 H                     0.698    -4.478     7.755 
 H                     0.833    -2.619     7.68 
 H                     2.       -3.754     6.976 
 Mg                    31.54087   2.8436    2.39982 
 C                     32.13324   0.687     5.20646 
 C                     31.04677   5.37104   4.63645 
 C                     30.57479   4.65929  -0.01625 
 C                     30.95598  -0.01924   0.50041 
 N                     31.60931   2.89804   4.60994 
 C                     31.90521   2.03144   5.5669 
 C                     32.03877   2.65622   6.9816 
 C                     31.12908   3.96014   6.75548 
 C                     31.29469   4.11477   5.24507 
 C                     29.65735   3.72617   7.05314 
 C                     33.51989   3.04204   7.32723 
 C                     33.7721   3.36924   8.80069 
 H                     35.05231   2.98606   9.38951 
 N                     31.38241   4.81687   2.25954 
 C                     31.20839   5.69319   3.27101 
 C                     31.13153   7.0216    2.64366 
 C                     31.10919   6.84218   1.16649 
 C                     30.99785   5.40002   1.07778 
 C                     31.16707   8.29773   3.43339 
 C                     31.16435   7.80951   0.02307 
 O                     30.891    7.45033  -1.17656 
 C                     31.45662   9.20981   0.36252 
 N                     30.65759   2.40282   0.5701 
 C                     30.38717   3.37459  -0.31898 
 C                     30.0129   2.79587  -1.66263 
 C                     30.32418   1.23071  -1.55806 
 C                     30.75964   1.15762  -0.07805 
 C                     28.56009   2.99795  -2.09263 
 C                     31.2653   0.62675  -2.63613 
 C                     32.66397   1.1745   -2.4656 
 N                     31.71581   0.71188   2.70511 
 C                     31.39411  -0.31069   1.7859 
 C                     31.57004  -1.59848   2.48809 
 C                     31.9628  -1.23219   3.78426 
 C                     32.00758   0.18435   3.88877 
 C                     31.32446  -2.88732   1.93608 
 C                     32.33943  -1.72156   5.09092 
 O                     32.56099  -2.83208   5.57195 
 C                     32.34413  -0.49882   6.10644 
 C                     33.62102  -0.55839   6.89924 
 O                     34.7199  -0.39288   6.34097 
 O                     33.32424  -0.58347   8.21136 
 C                     34.55878  -0.63157   9.03925 
 H                     30.65044   6.17754   5.25401 
 H                     30.33615   5.23642  -0.9126 
 H                     30.88813  -0.95937  -0.05114 
 H                     31.6317   2.05355   7.78463 
 H                     31.53919   4.82268   7.27432 
 H                     29.44743   2.68625   7.25473 
 H                     29.12292   4.0561    6.1719 
 H                     29.32889   4.3791    7.86686 
 H                     33.75078   4.01576   6.87635 
 H                     34.19812   2.27557   7.00605 
 H                     32.94251   3.04787   9.44214 
 H                     33.79473   4.45562   8.91596 
 H                     31.01875   8.11226   4.50437 
 H                     30.29043   8.88287   3.13511 
 H                     32.06675   8.88651   3.24214 
 H                     30.70453   9.57774   1.05639 
 H                     31.54244   9.73041  -0.59325 
 H                     32.4167   9.24909   0.88912 
 H                     30.62081   3.2232   -2.45064 
 H                     29.40934   0.62652  -1.64666 
 H                     28.46077   3.51668  -3.0648 
 H                     28.04703   3.54718  -1.3144 
 H                     27.96786   2.08705  -2.16137 
 H                     30.93578   0.92258  -3.63516 
 H                     31.30377  -0.4573   -2.61756 
 H                     32.61889   2.13386  -2.98971 
 H                     33.39417   0.5093   -2.92206 
 H                     32.87853   1.3846   -1.41134 
 H                     32.14682  -3.51954   2.24351 
 H                     31.23754  -2.84569   0.85235 
 H                     30.3714  -3.12642   2.41543 
 H                     31.46294  -0.59709   6.74159 
 H                     34.47326  -1.50742   9.68984 
 H                     34.6271   0.35677   9.53146 
 H                     35.49464  -0.83533   8.53221 
 
 ITRead=  0  0  0  0  0  0  0  0  0  0  0  0  0  0  0  0  0  0  0  0
 ITRead=  0  0  0  0  0  0  0  0  0  0  0  0  0  0  0  0  0  0  0  0
 ITRead=  0  0  0  0  0  0  0  0  0  0  0  0  0  0  0  0  0  0  0  0
 ITRead=  0  0  0  0  0  0  0  0  0  0  0  0  0  0  0  0  0  0  0  0
 ITRead=  0  0  0  0  0  0  0  0  0  0  0  0  0  0  0  0  0  0  0  0
 ITRead=  0  0  0  0  0  0  0  0  0  0  0  0  0  0  0  0  0  0  0  0
 ITRead=  0  0  0  0  0  0  0  0  0  0  0  0  0  0  0  0  0  0  0  0
 ITRead=  0  0  0  0  0  0  0  0  0  0  0  0  0  0  0  0  0  0
 MicOpt= -1 -1 -1 -1 -1 -1 -1 -1 -1 -1 -1 -1 -1 -1 -1 -1 -1 -1 -1 -1
 MicOpt= -1 -1 -1 -1 -1 -1 -1 -1 -1 -1 -1 -1 -1 -1 -1 -1 -1 -1 -1 -1
 MicOpt= -1 -1 -1 -1 -1 -1 -1 -1 -1 -1 -1 -1 -1 -1 -1 -1 -1 -1 -1 -1
 MicOpt= -1 -1 -1 -1 -1 -1 -1 -1 -1 -1 -1 -1 -1 -1 -1 -1 -1 -1 -1 -1
 MicOpt= -1 -1 -1 -1 -1 -1 -1 -1 -1 -1 -1 -1 -1 -1 -1 -1 -1 -1 -1 -1
 MicOpt= -1 -1 -1 -1 -1 -1 -1 -1 -1 -1 -1 -1 -1 -1 -1 -1 -1 -1 -1 -1
 MicOpt= -1 -1 -1 -1 -1 -1 -1 -1 -1 -1 -1 -1 -1 -1 -1 -1 -1 -1 -1 -1
 MicOpt= -1 -1 -1 -1 -1 -1 -1 -1 -1 -1 -1 -1 -1 -1 -1 -1 -1 -1
 NAtoms=    158 NQM=      158 NQMF=       0 NMMI=      0 NMMIF=      0
                NMic=       0 NMicF=      0.
                    Isotopes and Nuclear Properties:
 (Nuclear quadrupole moments (NQMom) in fm**2, nuclear magnetic moments (NMagM)
  in nuclear magnetons)

  Atom         1           2           3           4           5           6           7           8           9          10
 IAtWgt=          24          12          12          12          12          14          12          12          12          12
 AtmWgt=  23.9850450  12.0000000  12.0000000  12.0000000  12.0000000  14.0030740  12.0000000  12.0000000  12.0000000  12.0000000
 NucSpn=           0           0           0           0           0           2           0           0           0           0
 AtZEff=  -0.0000000  -0.0000000  -0.0000000  -0.0000000  -0.0000000  -0.0000000  -0.0000000  -0.0000000  -0.0000000  -0.0000000
 NQMom=    0.0000000   0.0000000   0.0000000   0.0000000   0.0000000   2.0440000   0.0000000   0.0000000   0.0000000   0.0000000
 NMagM=    0.0000000   0.0000000   0.0000000   0.0000000   0.0000000   0.4037610   0.0000000   0.0000000   0.0000000   0.0000000
 AtZNuc=  12.0000000   6.0000000   6.0000000   6.0000000   6.0000000   7.0000000   6.0000000   6.0000000   6.0000000   6.0000000

  Atom        11          12          13          14          15          16          17          18          19          20
 IAtWgt=          12          12          12           1          14          12          12          12          12          12
 AtmWgt=  12.0000000  12.0000000  12.0000000   1.0078250  14.0030740  12.0000000  12.0000000  12.0000000  12.0000000  12.0000000
 NucSpn=           0           0           0           1           2           0           0           0           0           0
 AtZEff=  -0.0000000  -0.0000000  -0.0000000  -0.0000000  -0.0000000  -0.0000000  -0.0000000  -0.0000000  -0.0000000  -0.0000000
 NQMom=    0.0000000   0.0000000   0.0000000   0.0000000   2.0440000   0.0000000   0.0000000   0.0000000   0.0000000   0.0000000
 NMagM=    0.0000000   0.0000000   0.0000000   2.7928460   0.4037610   0.0000000   0.0000000   0.0000000   0.0000000   0.0000000
 AtZNuc=   6.0000000   6.0000000   6.0000000   1.0000000   7.0000000   6.0000000   6.0000000   6.0000000   6.0000000   6.0000000

  Atom        21          22          23          24          25          26          27          28          29          30
 IAtWgt=          12          16          12          14          12          12          12          12          12          12
 AtmWgt=  12.0000000  15.9949146  12.0000000  14.0030740  12.0000000  12.0000000  12.0000000  12.0000000  12.0000000  12.0000000
 NucSpn=           0           0           0           2           0           0           0           0           0           0
 AtZEff=  -0.0000000  -0.0000000  -0.0000000  -0.0000000  -0.0000000  -0.0000000  -0.0000000  -0.0000000  -0.0000000  -0.0000000
 NQMom=    0.0000000   0.0000000   0.0000000   2.0440000   0.0000000   0.0000000   0.0000000   0.0000000   0.0000000   0.0000000
 NMagM=    0.0000000   0.0000000   0.0000000   0.4037610   0.0000000   0.0000000   0.0000000   0.0000000   0.0000000   0.0000000
 AtZNuc=   6.0000000   8.0000000   6.0000000   7.0000000   6.0000000   6.0000000   6.0000000   6.0000000   6.0000000   6.0000000

  Atom        31          32          33          34          35          36          37          38          39          40
 IAtWgt=          12          14          12          12          12          12          12          12          16          12
 AtmWgt=  12.0000000  14.0030740  12.0000000  12.0000000  12.0000000  12.0000000  12.0000000  12.0000000  15.9949146  12.0000000
 NucSpn=           0           2           0           0           0           0           0           0           0           0
 AtZEff=  -0.0000000  -0.0000000  -0.0000000  -0.0000000  -0.0000000  -0.0000000  -0.0000000  -0.0000000  -0.0000000  -0.0000000
 NQMom=    0.0000000   2.0440000   0.0000000   0.0000000   0.0000000   0.0000000   0.0000000   0.0000000   0.0000000   0.0000000
 NMagM=    0.0000000   0.4037610   0.0000000   0.0000000   0.0000000   0.0000000   0.0000000   0.0000000   0.0000000   0.0000000
 AtZNuc=   6.0000000   7.0000000   6.0000000   6.0000000   6.0000000   6.0000000   6.0000000   6.0000000   8.0000000   6.0000000

  Atom        41          42          43          44          45          46          47          48          49          50
 IAtWgt=          12          16          16          12           1           1           1           1           1           1
 AtmWgt=  12.0000000  15.9949146  15.9949146  12.0000000   1.0078250   1.0078250   1.0078250   1.0078250   1.0078250   1.0078250
 NucSpn=           0           0           0           0           1           1           1           1           1           1
 AtZEff=  -0.0000000  -0.0000000  -0.0000000  -0.0000000  -0.0000000  -0.0000000  -0.0000000  -0.0000000  -0.0000000  -0.0000000
 NQMom=    0.0000000   0.0000000   0.0000000   0.0000000   0.0000000   0.0000000   0.0000000   0.0000000   0.0000000   0.0000000
 NMagM=    0.0000000   0.0000000   0.0000000   0.0000000   2.7928460   2.7928460   2.7928460   2.7928460   2.7928460   2.7928460
 AtZNuc=   6.0000000   8.0000000   8.0000000   6.0000000   1.0000000   1.0000000   1.0000000   1.0000000   1.0000000   1.0000000

  Atom        51          52          53          54          55          56          57          58          59          60
 IAtWgt=           1           1           1           1           1           1           1           1           1           1
 AtmWgt=   1.0078250   1.0078250   1.0078250   1.0078250   1.0078250   1.0078250   1.0078250   1.0078250   1.0078250   1.0078250
 NucSpn=           1           1           1           1           1           1           1           1           1           1
 AtZEff=  -0.0000000  -0.0000000  -0.0000000  -0.0000000  -0.0000000  -0.0000000  -0.0000000  -0.0000000  -0.0000000  -0.0000000
 NQMom=    0.0000000   0.0000000   0.0000000   0.0000000   0.0000000   0.0000000   0.0000000   0.0000000   0.0000000   0.0000000
 NMagM=    2.7928460   2.7928460   2.7928460   2.7928460   2.7928460   2.7928460   2.7928460   2.7928460   2.7928460   2.7928460
 AtZNuc=   1.0000000   1.0000000   1.0000000   1.0000000   1.0000000   1.0000000   1.0000000   1.0000000   1.0000000   1.0000000

  Atom        61          62          63          64          65          66          67          68          69          70
 IAtWgt=           1           1           1           1           1           1           1           1           1           1
 AtmWgt=   1.0078250   1.0078250   1.0078250   1.0078250   1.0078250   1.0078250   1.0078250   1.0078250   1.0078250   1.0078250
 NucSpn=           1           1           1           1           1           1           1           1           1           1
 AtZEff=  -0.0000000  -0.0000000  -0.0000000  -0.0000000  -0.0000000  -0.0000000  -0.0000000  -0.0000000  -0.0000000  -0.0000000
 NQMom=    0.0000000   0.0000000   0.0000000   0.0000000   0.0000000   0.0000000   0.0000000   0.0000000   0.0000000   0.0000000
 NMagM=    2.7928460   2.7928460   2.7928460   2.7928460   2.7928460   2.7928460   2.7928460   2.7928460   2.7928460   2.7928460
 AtZNuc=   1.0000000   1.0000000   1.0000000   1.0000000   1.0000000   1.0000000   1.0000000   1.0000000   1.0000000   1.0000000

  Atom        71          72          73          74          75          76          77          78          79          80
 IAtWgt=           1           1           1           1           1           1           1           1           1          24
 AtmWgt=   1.0078250   1.0078250   1.0078250   1.0078250   1.0078250   1.0078250   1.0078250   1.0078250   1.0078250  23.9850450
 NucSpn=           1           1           1           1           1           1           1           1           1           0
 AtZEff=  -0.0000000  -0.0000000  -0.0000000  -0.0000000  -0.0000000  -0.0000000  -0.0000000  -0.0000000  -0.0000000  -0.0000000
 NQMom=    0.0000000   0.0000000   0.0000000   0.0000000   0.0000000   0.0000000   0.0000000   0.0000000   0.0000000   0.0000000
 NMagM=    2.7928460   2.7928460   2.7928460   2.7928460   2.7928460   2.7928460   2.7928460   2.7928460   2.7928460   0.0000000
 AtZNuc=   1.0000000   1.0000000   1.0000000   1.0000000   1.0000000   1.0000000   1.0000000   1.0000000   1.0000000  12.0000000

  Atom        81          82          83          84          85          86          87          88          89          90
 IAtWgt=          12          12          12          12          14          12          12          12          12          12
 AtmWgt=  12.0000000  12.0000000  12.0000000  12.0000000  14.0030740  12.0000000  12.0000000  12.0000000  12.0000000  12.0000000
 NucSpn=           0           0           0           0           2           0           0           0           0           0
 AtZEff=  -0.0000000  -0.0000000  -0.0000000  -0.0000000  -0.0000000  -0.0000000  -0.0000000  -0.0000000  -0.0000000  -0.0000000
 NQMom=    0.0000000   0.0000000   0.0000000   0.0000000   2.0440000   0.0000000   0.0000000   0.0000000   0.0000000   0.0000000
 NMagM=    0.0000000   0.0000000   0.0000000   0.0000000   0.4037610   0.0000000   0.0000000   0.0000000   0.0000000   0.0000000
 AtZNuc=   6.0000000   6.0000000   6.0000000   6.0000000   7.0000000   6.0000000   6.0000000   6.0000000   6.0000000   6.0000000

  Atom        91          92          93          94          95          96          97          98          99         100
 IAtWgt=          12          12           1          14          12          12          12          12          12          12
 AtmWgt=  12.0000000  12.0000000   1.0078250  14.0030740  12.0000000  12.0000000  12.0000000  12.0000000  12.0000000  12.0000000
 NucSpn=           0           0           1           2           0           0           0           0           0           0
 AtZEff=  -0.0000000  -0.0000000  -0.0000000  -0.0000000  -0.0000000  -0.0000000  -0.0000000  -0.0000000  -0.0000000  -0.0000000
 NQMom=    0.0000000   0.0000000   0.0000000   2.0440000   0.0000000   0.0000000   0.0000000   0.0000000   0.0000000   0.0000000
 NMagM=    0.0000000   0.0000000   2.7928460   0.4037610   0.0000000   0.0000000   0.0000000   0.0000000   0.0000000   0.0000000
 AtZNuc=   6.0000000   6.0000000   1.0000000   7.0000000   6.0000000   6.0000000   6.0000000   6.0000000   6.0000000   6.0000000

  Atom       101         102         103         104         105         106         107         108         109         110
 IAtWgt=          16          12          14          12          12          12          12          12          12          12
 AtmWgt=  15.9949146  12.0000000  14.0030740  12.0000000  12.0000000  12.0000000  12.0000000  12.0000000  12.0000000  12.0000000
 NucSpn=           0           0           2           0           0           0           0           0           0           0
 AtZEff=  -0.0000000  -0.0000000  -0.0000000  -0.0000000  -0.0000000  -0.0000000  -0.0000000  -0.0000000  -0.0000000  -0.0000000
 NQMom=    0.0000000   0.0000000   2.0440000   0.0000000   0.0000000   0.0000000   0.0000000   0.0000000   0.0000000   0.0000000
 NMagM=    0.0000000   0.0000000   0.4037610   0.0000000   0.0000000   0.0000000   0.0000000   0.0000000   0.0000000   0.0000000
 AtZNuc=   8.0000000   6.0000000   7.0000000   6.0000000   6.0000000   6.0000000   6.0000000   6.0000000   6.0000000   6.0000000

  Atom       111         112         113         114         115         116         117         118         119         120
 IAtWgt=          14          12          12          12          12          12          12          16          12          12
 AtmWgt=  14.0030740  12.0000000  12.0000000  12.0000000  12.0000000  12.0000000  12.0000000  15.9949146  12.0000000  12.0000000
 NucSpn=           2           0           0           0           0           0           0           0           0           0
 AtZEff=  -0.0000000  -0.0000000  -0.0000000  -0.0000000  -0.0000000  -0.0000000  -0.0000000  -0.0000000  -0.0000000  -0.0000000
 NQMom=    2.0440000   0.0000000   0.0000000   0.0000000   0.0000000   0.0000000   0.0000000   0.0000000   0.0000000   0.0000000
 NMagM=    0.4037610   0.0000000   0.0000000   0.0000000   0.0000000   0.0000000   0.0000000   0.0000000   0.0000000   0.0000000
 AtZNuc=   7.0000000   6.0000000   6.0000000   6.0000000   6.0000000   6.0000000   6.0000000   8.0000000   6.0000000   6.0000000

  Atom       121         122         123         124         125         126         127         128         129         130
 IAtWgt=          16          16          12           1           1           1           1           1           1           1
 AtmWgt=  15.9949146  15.9949146  12.0000000   1.0078250   1.0078250   1.0078250   1.0078250   1.0078250   1.0078250   1.0078250
 NucSpn=           0           0           0           1           1           1           1           1           1           1
 AtZEff=  -0.0000000  -0.0000000  -0.0000000  -0.0000000  -0.0000000  -0.0000000  -0.0000000  -0.0000000  -0.0000000  -0.0000000
 NQMom=    0.0000000   0.0000000   0.0000000   0.0000000   0.0000000   0.0000000   0.0000000   0.0000000   0.0000000   0.0000000
 NMagM=    0.0000000   0.0000000   0.0000000   2.7928460   2.7928460   2.7928460   2.7928460   2.7928460   2.7928460   2.7928460
 AtZNuc=   8.0000000   8.0000000   6.0000000   1.0000000   1.0000000   1.0000000   1.0000000   1.0000000   1.0000000   1.0000000

  Atom       131         132         133         134         135         136         137         138         139         140
 IAtWgt=           1           1           1           1           1           1           1           1           1           1
 AtmWgt=   1.0078250   1.0078250   1.0078250   1.0078250   1.0078250   1.0078250   1.0078250   1.0078250   1.0078250   1.0078250
 NucSpn=           1           1           1           1           1           1           1           1           1           1
 AtZEff=  -0.0000000  -0.0000000  -0.0000000  -0.0000000  -0.0000000  -0.0000000  -0.0000000  -0.0000000  -0.0000000  -0.0000000
 NQMom=    0.0000000   0.0000000   0.0000000   0.0000000   0.0000000   0.0000000   0.0000000   0.0000000   0.0000000   0.0000000
 NMagM=    2.7928460   2.7928460   2.7928460   2.7928460   2.7928460   2.7928460   2.7928460   2.7928460   2.7928460   2.7928460
 AtZNuc=   1.0000000   1.0000000   1.0000000   1.0000000   1.0000000   1.0000000   1.0000000   1.0000000   1.0000000   1.0000000

  Atom       141         142         143         144         145         146         147         148         149         150
 IAtWgt=           1           1           1           1           1           1           1           1           1           1
 AtmWgt=   1.0078250   1.0078250   1.0078250   1.0078250   1.0078250   1.0078250   1.0078250   1.0078250   1.0078250   1.0078250
 NucSpn=           1           1           1           1           1           1           1           1           1           1
 AtZEff=  -0.0000000  -0.0000000  -0.0000000  -0.0000000  -0.0000000  -0.0000000  -0.0000000  -0.0000000  -0.0000000  -0.0000000
 NQMom=    0.0000000   0.0000000   0.0000000   0.0000000   0.0000000   0.0000000   0.0000000   0.0000000   0.0000000   0.0000000
 NMagM=    2.7928460   2.7928460   2.7928460   2.7928460   2.7928460   2.7928460   2.7928460   2.7928460   2.7928460   2.7928460
 AtZNuc=   1.0000000   1.0000000   1.0000000   1.0000000   1.0000000   1.0000000   1.0000000   1.0000000   1.0000000   1.0000000

  Atom       151         152         153         154         155         156         157         158
 IAtWgt=           1           1           1           1           1           1           1           1
 AtmWgt=   1.0078250   1.0078250   1.0078250   1.0078250   1.0078250   1.0078250   1.0078250   1.0078250
 NucSpn=           1           1           1           1           1           1           1           1
 AtZEff=  -0.0000000  -0.0000000  -0.0000000  -0.0000000  -0.0000000  -0.0000000  -0.0000000  -0.0000000
 NQMom=    0.0000000   0.0000000   0.0000000   0.0000000   0.0000000   0.0000000   0.0000000   0.0000000
 NMagM=    2.7928460   2.7928460   2.7928460   2.7928460   2.7928460   2.7928460   2.7928460   2.7928460
 AtZNuc=   1.0000000   1.0000000   1.0000000   1.0000000   1.0000000   1.0000000   1.0000000   1.0000000
 Leave Link  101 at Sun Sep 12 12:44:43 2021, MaxMem= 23488102400 cpu:               3.5 elap:               0.2
 (Enter /sw/apps/gaussian-16.0/g16/l202.exe)
 Stoichiometry    C68H72Mg2N8O8
 Framework group  C1[X(C68H72Mg2N8O8)]
 Deg. of freedom   468
 Full point group                 C1      NOp   1
 Largest Abelian subgroup         C1      NOp   1
 Largest concise Abelian subgroup C1      NOp   1
                         Standard orientation:                         
 ---------------------------------------------------------------------
 Center     Atomic      Atomic             Coordinates (Angstroms)
 Number     Number       Type             X           Y           Z
 ---------------------------------------------------------------------
      1         12           0      -15.901608   -0.660788    0.077006
      2          6           0      -16.078998    2.913730    0.136754
      3          6           0      -16.769038   -0.500243   -3.219182
      4          6           0      -16.195328   -3.818173    0.112614
      5          6           0      -16.169268   -0.584897    3.550946
      6          7           0      -16.340026    1.048771   -1.259348
      7          6           0      -16.314629    2.371428   -1.128565
      8          6           0      -16.487257    3.129204   -2.478880
      9          6           0      -17.246485    1.997988   -3.307083
     10          6           0      -16.728115    0.772287   -2.575734
     11          6           0      -18.763906    2.051403   -3.161887
     12          6           0      -15.113516    3.495121   -3.135136
     13          6           0      -15.185593    4.511979   -4.278009
     14          1           0      -14.102821    5.472034   -4.430483
     15          7           0      -15.927659   -1.961921   -1.409340
     16          6           0      -16.292712   -1.719799   -2.691291
     17          6           0      -16.140721   -3.004343   -3.407899
     18          6           0      -15.839739   -4.056239   -2.397444
     19          6           0      -16.003534   -3.316103   -1.172394
     20          6           0      -16.233096   -3.131455   -4.897549
     21          6           0      -15.474359   -5.502066   -2.516668
     22          8           0      -15.482548   -6.290887   -1.510553
     23          6           0      -15.188534   -5.997544   -3.875288
     24          7           0      -16.367492   -2.026692    1.585281
     25          6           0      -16.370911   -3.342880    1.347325
     26          6           0      -16.450575   -4.128143    2.622847
     27          6           0      -16.255443   -3.072411    3.804839
     28          6           0      -16.174630   -1.779807    2.955774
     29          6           0      -17.752044   -4.910416    2.846986
     30          6           0      -15.123129   -3.358067    4.823017
     31          6           0      -13.778030   -3.232429    4.143294
     32          7           0      -15.913757    0.871601    1.614108
     33          6           0      -16.058528    0.678918    2.995625
     34          6           0      -16.114544    2.015938    3.614744
     35          6           0      -16.014475    2.899360    2.541713
     36          6           0      -15.929421    2.161130    1.326775
     37          6           0      -16.300752    2.286077    4.999224
     38          6           0      -15.984407    4.295420    2.136779
     39          8           0      -15.928651    5.370830    2.735007
     40          6           0      -16.147645    4.361704    0.554127
     41          6           0      -15.092923    5.296146    0.027163
     42          8           0      -13.882668    5.000199    0.098326
     43          8           0      -15.678434    6.271189   -0.684883
     44          6           0      -14.685174    7.216573   -1.260936
     45          1           0      -17.262452   -0.585521   -4.189342
     46          1           0      -16.191086   -4.907991    0.181292
     47          1           0      -16.167014   -0.483204    4.637734
     48          1           0      -17.104508    4.025916   -2.421148
     49          1           0      -16.932530    1.977640   -4.350511
     50          1           0      -19.066734    2.779247   -2.409252
     51          1           0      -19.063152    1.046865   -2.862139
     52          1           0      -19.239286    2.230314   -4.126658
     53          1           0      -14.733700    2.630646   -3.679639
     54          1           0      -14.408180    3.848444   -2.382149
     55          1           0      -16.151022    5.018277   -4.300738
     56          1           0      -15.142425    3.968522   -5.221932
     57          1           0      -16.626582   -2.223717   -5.353320
     58          1           0      -16.987889   -3.889376   -5.106236
     59          1           0      -15.283190   -3.425917   -5.343983
     60          1           0      -16.062578   -5.839235   -4.507376
     61          1           0      -14.859185   -7.029126   -3.756056
     62          1           0      -14.385408   -5.399868   -4.307400
     63          1           0      -15.656957   -4.872437    2.674063
     64          1           0      -17.149836   -2.978571    4.421223
     65          1           0      -17.599638   -5.978890    3.001390
     66          1           0      -18.406030   -4.727805    1.994785
     67          1           0      -18.365656   -4.549972    3.672200
     68          1           0      -15.198930   -4.378123    5.198097
     69          1           0      -15.137272   -2.686978    5.681906
     70          1           0      -13.647166   -4.209713    3.680020
     71          1           0      -12.996300   -3.041411    4.879242
     72          1           0      -13.804152   -2.493102    3.342544
     73          1           0      -15.597167    3.079002    5.252614
     74          1           0      -16.128222    1.395500    5.603136
     75          1           0      -17.344764    2.598900    5.005291
     76          1           0      -17.154636    4.728592    0.357955
     77          1           0      -14.958996    8.215764   -0.922005
     78          1           0      -14.669856    7.033257   -2.335443
     79          1           0      -13.667625    7.140370   -0.876063
     80         12           0       15.857142   -0.884423    0.135648
     81          6           0       16.489106    2.646709    0.239498
     82          6           0       15.769897   -0.617594   -3.263733
     83          6           0       14.856711   -3.893442    0.024409
     84          6           0       14.871788   -0.665551    3.471346
     85          7           0       16.111672    0.844785   -1.219834
     86          6           0       16.409009    2.126663   -1.069154
     87          6           0       16.712222    2.876630   -2.393984
     88          6           0       15.903575    1.922283   -3.401052
     89          6           0       15.957129    0.622016   -2.601608
     90          6           0       14.446598    2.320544   -3.568204
     91          6           0       18.244628    2.899821   -2.730478
     92          6           0       18.644657    3.874491   -3.840320
     93          1           0       19.930890    4.558027   -3.736120
     94          7           0       15.859470   -2.183961   -1.364278
     95          6           0       15.845952   -1.903174   -2.684228
     96          6           0       15.833270   -3.203516   -3.372049
     97          6           0       15.673977   -4.273334   -2.349876
     98          6           0       15.431020   -3.473062   -1.166394
     99          6           0       16.044250   -3.343480   -4.851691
    100          6           0       15.718578   -5.769392   -2.427328
    101          8           0       15.317317   -6.506069   -1.458236
    102          6           0       16.158167   -6.346846   -3.705920
    103          7           0       14.791402   -2.066318    1.473432
    104          6           0       14.534072   -3.357803    1.201819
    105          6           0       14.001718   -4.075637    2.419072
    106          6           0       14.183582   -3.052702    3.634837
    107          6           0       14.731358   -1.833915    2.860306
    108          6           0       12.541481   -4.520977    2.343100
    109          6           0       14.976845   -3.561128    4.869725
    110          6           0       16.427033   -3.774137    4.499630
    111          7           0       15.871008    0.642054    1.664606
    112          6           0       15.387265    0.529695    2.986519
    113          6           0       15.507988    1.863913    3.609185
    114          6           0       16.036363    2.671708    2.590964
    115          6           0       16.212315    1.900380    1.410452
    116          6           0       15.106934    2.203983    4.931925
    117          6           0       16.475352    4.004000    2.243143
    118          8           0       16.638559    5.054310    2.862778
    119          6           0       16.669660    4.076748    0.667279
    120          6           0       17.997456    4.727919    0.392576
    121          8           0       19.056874    4.168060    0.725421
    122          8           0       17.808596    5.793666   -0.406725
    123          6           0       19.098228    6.466481   -0.716521
    124          1           0       15.497195   -0.605936   -4.319384
    125          1           0       14.596097   -4.953208    0.073885
    126          1           0       14.677479   -0.537752    4.538382
    127          1           0       16.321864    3.886024   -2.444173
    128          1           0       16.428266    1.810581   -4.346347
    129          1           0       14.164553    3.111176   -2.888873
    130          1           0       13.872114    1.425849   -3.366856
    131          1           0       14.244097    2.580356   -4.611197
    132          1           0       18.521237    1.949971   -3.205877
    133          1           0       18.825068    3.096658   -1.850152
    134          1           0       17.845920    4.591061   -4.067260
    135          1           0       18.770860    3.311111   -4.768057
    136          1           0       15.969028   -2.375371   -5.362086
    137          1           0       15.200120   -3.922448   -5.241689
    138          1           0       16.972819   -3.863112   -5.097467
    139          1           0       15.500488   -6.005110   -4.501622
    140          1           0       16.209892   -7.424280   -3.537560
    141          1           0       17.158098   -5.963362   -3.937617
    142          1           0       14.577500   -4.970026    2.623204
    143          1           0       13.215598   -2.746804    4.058229
    144          1           0       12.407882   -5.607881    2.500743
    145          1           0       12.143787   -4.224472    1.381616
    146          1           0       11.868817   -4.018639    3.036195
    147          1           0       14.593150   -4.531971    5.192836
    148          1           0       14.922519   -2.893212    5.722911
    149          1           0       16.422381   -4.770038    4.046580
    150          1           0       17.056725   -3.746967    5.386641
    151          1           0       16.745030   -3.062741    3.728633
    152          1           0       15.893842    2.819365    5.347343
    153          1           0       14.935075    1.315588    5.536059
    154          1           0       14.179411    2.743303    4.721917
    155          1           0       15.838529    4.654468    0.261042
    156          1           0       18.990870    7.514673   -0.420782
    157          1           0       19.292304    6.262274   -1.786282
    158          1           0       19.967975    6.172323   -0.140802
 ---------------------------------------------------------------------
 Rotational constants (GHZ):           0.0207653           0.0016257           0.0015910
 Leave Link  202 at Sun Sep 12 12:44:43 2021, MaxMem= 23488102400 cpu:               0.2 elap:               0.0
 (Enter /sw/apps/gaussian-16.0/g16/l301.exe)
 Standard basis: def2SVP (5D, 7F)
 Ernie: Thresh=  0.10000D-02 Tol=  0.10000D-05 Strict=F.
 There are  1658 symmetry adapted cartesian basis functions of A   symmetry.
 There are  1572 symmetry adapted basis functions of A   symmetry.
  1572 basis functions,  2678 primitive gaussians,  1658 cartesian basis functions
   312 alpha electrons      312 beta electrons
       nuclear repulsion energy     12299.0874993205 Hartrees.
 IExCor=20419 DFT=T Ex+Corr=CAM-B3LYP ExCW=0 ScaHFX=  1.000000
 ScaDFX=  1.000000  1.000000  1.000000  0.810000 ScalE2=  1.000000  1.000000
 IRadAn=      5 IRanWt=     -1 IRanGd=            0 ICorTp=0 IEmpDi=  4
 HFx  wShort=  0.000000 wLong=  0.330000 cFull=  0.190000 cShort=  0.000000 cLong=  0.460000
 DFx  wShort=  0.000000 wLong=  0.330000 cFull=  0.190000 cShort=  0.000000 cLong=  0.460000
 NAtoms=  158 NActive=  158 NUniq=  158 SFac= 1.00D+00 NAtFMM=   60 NAOKFM=T Big=T
 Integral buffers will be    131072 words long.
 Raffenetti 1 integral format.
 Two-electron integral symmetry is turned on.
 Leave Link  301 at Sun Sep 12 12:44:43 2021, MaxMem= 23488102400 cpu:               1.3 elap:               0.1
 (Enter /sw/apps/gaussian-16.0/g16/l302.exe)
 NPDir=0 NMtPBC=     1 NCelOv=     1 NCel=       1 NClECP=     1 NCelD=      1
         NCelK=      1 NCelE2=     1 NClLst=     1 CellRange=     0.0.
 One-electron integrals computed using PRISM.
 One-electron integral symmetry used in STVInt
   1 Symmetry operations used in ECPInt.
 ECPInt:  NShTT=  271216 NPrTT=  987664 LenC2=  103957 LenP2D=  239866.
 LDataN:  DoStor=T MaxTD1= 4 Len=   56
 NBasis=  1572 RedAO= T EigKep=  3.36D-04  NBF=  1572
 NBsUse=  1572 1.00D-06 EigRej= -1.00D+00 NBFU=  1572
 Precomputing XC quadrature grid using
 IXCGrd= 4 IRadAn=           5 IRanWt=          -1 IRanGd=           0 AccXCQ= 0.00D+00.
 Generated NRdTot=       0 NPtTot=           0 NUsed=           0 NTot=          32
 NSgBfM=   812   812   812   812   812 MxSgAt=   158 MxSgA2=    79.
 Leave Link  302 at Sun Sep 12 12:44:47 2021, MaxMem= 23488102400 cpu:              96.4 elap:               4.0
 (Enter /sw/apps/gaussian-16.0/g16/l303.exe)
 DipDrv:  MaxL=1.
 Leave Link  303 at Sun Sep 12 12:44:48 2021, MaxMem= 23488102400 cpu:               7.7 elap:               0.4
 (Enter /sw/apps/gaussian-16.0/g16/l308.exe)
 Leave Link  308 at Sun Sep 12 12:44:48 2021, MaxMem= 23488102400 cpu:              13.7 elap:               0.6
 (Enter /sw/apps/gaussian-16.0/g16/l401.exe)
 ExpMin= 3.36D-02 ExpMax= 4.95D+03 ExpMxC= 7.45D+02 IAcc=3 IRadAn=         5 AccDes= 0.00D+00
 Harris functional with IExCor=20419 and IRadAn=       5 diagonalized for initial guess.
 HarFok:  IExCor=20419 AccDes= 0.00D+00 IRadAn=         5 IDoV= 1 UseB2=F ITyADJ=14
 ICtDFT=  3500011 ScaDFX=  1.000000  1.000000  1.000000  1.000000
 FoFCou: FMM=F IPFlag=           0 FMFlag=      100000 FMFlg1=        2001
         NFxFlg=           0 DoJE=T BraDBF=F KetDBF=T FulRan=T
         wScrn=  0.000000 ICntrl=       500 IOpCl=  0 I1Cent=   200000004 NGrid=           0
         NMat0=    1 NMatS0=      1 NMatT0=    0 NMatD0=    1 NMtDS0=    0 NMtDT0=    0
 Petite list used in FoFCou.
 Harris En= -3918.65801715021    
 JPrj=0 DoOrth=F DoCkMO=F.
 Leave Link  401 at Sun Sep 12 12:44:55 2021, MaxMem= 23488102400 cpu:             154.0 elap:               6.4
 (Enter /sw/apps/gaussian-16.0/g16/l502.exe)
 Integral symmetry usage will be decided dynamically.
 Closed shell SCF:
 Using DIIS extrapolation, IDIIS=  1040.
 NGot= 23488102400 LenX= 23482547354 LenY= 23479796732
 Requested convergence on RMS density matrix=1.00D-08 within 128 cycles.
 Requested convergence on MAX density matrix=1.00D-06.
 Requested convergence on             energy=1.00D-06.
 No special actions if energy rises.
 Fock matrices will be formed incrementally for  20 cycles.

 Cycle   1  Pass 1  IDiag  1:
 FoFJK:  IHMeth= 1 ICntrl=       0 DoSepK=T KAlg= 0 I1Cent=           0 FoldK=F
 IRaf=         1 NMat=       1 IRICut=       1 DoRegI=T DoRafI=F ISym2E= 0 IDoP0=0 IntGTp=1.
 FoFCou: FMM=T IPFlag=           0 FMFlag=      100000 FMFlg1=        2001
         NFxFlg=           0 DoJE=T BraDBF=F KetDBF=F FulRan=T
         wScrn=  0.000000 ICntrl=       500 IOpCl=  0 I1Cent=           0 NGrid=           0
         NMat0=    1 NMatS0=      1 NMatT0=    0 NMatD0=    1 NMtDS0=    0 NMtDT0=    0
 Symmetry not used in FoFCou.
 FMM levels:  10  Number of levels for PrismC:   9
 E= -4068.94926726448    
 DIIS: error= 2.04D-02 at cycle   1 NSaved=   1.
 NSaved= 1 IEnMin= 1 EnMin= -4068.94926726448     IErMin= 1 ErrMin= 2.04D-02
 ErrMax= 2.04D-02  0.00D+00 EMaxC= 1.00D-01 BMatC= 1.69D+00 BMatP= 1.69D+00
 IDIUse=3 WtCom= 7.96D-01 WtEn= 2.04D-01
 Coeff-Com:  0.100D+01
 Coeff-En:   0.100D+01
 Coeff:      0.100D+01
 Gap=     0.120 Goal=   None    Shift=    0.000
 GapD=    0.120 DampG=1.000 DampE=0.500 DampFc=0.5000 IDamp=-1.
 Damping current iteration by 5.00D-01
 RMSDP=1.57D-03 MaxDP=1.35D-01              OVMax= 2.03D-01

 Cycle   2  Pass 1  IDiag  1:
 RMSU=  7.69D-04    CP:  9.82D-01
 E= -4069.33817319551     Delta-E=       -0.388905931020 Rises=F Damp=T
 DIIS: error= 1.27D-02 at cycle   2 NSaved=   2.
 NSaved= 2 IEnMin= 2 EnMin= -4069.33817319551     IErMin= 2 ErrMin= 1.27D-02
 ErrMax= 1.27D-02  0.00D+00 EMaxC= 1.00D-01 BMatC= 3.07D-01 BMatP= 1.69D+00
 IDIUse=3 WtCom= 8.73D-01 WtEn= 1.27D-01
 Coeff-Com: -0.213D+00 0.121D+01
 Coeff-En:   0.000D+00 0.100D+01
 Coeff:     -0.186D+00 0.119D+01
 Gap=     0.138 Goal=   None    Shift=    0.000
 RMSDP=7.65D-04 MaxDP=9.43D-02 DE=-3.89D-01 OVMax= 1.88D-01

 Cycle   3  Pass 1  IDiag  1:
 RMSU=  7.32D-04    CP:  9.68D-01  1.24D+00
 E= -4069.62789165038     Delta-E=       -0.289718454873 Rises=F Damp=F
 DIIS: error= 1.58D-02 at cycle   3 NSaved=   3.
 NSaved= 3 IEnMin= 3 EnMin= -4069.62789165038     IErMin= 2 ErrMin= 1.27D-02
 ErrMax= 1.58D-02  0.00D+00 EMaxC= 1.00D-01 BMatC= 2.02D-01 BMatP= 3.07D-01
 IDIUse=3 WtCom= 8.42D-01 WtEn= 1.58D-01
 Coeff-Com: -0.267D+00 0.652D+00 0.616D+00
 Coeff-En:   0.000D+00 0.000D+00 0.100D+01
 Coeff:     -0.225D+00 0.549D+00 0.676D+00
 Gap=     0.125 Goal=   None    Shift=    0.000
 RMSDP=5.08D-04 MaxDP=4.90D-02 DE=-2.90D-01 OVMax= 1.43D-01

 Cycle   4  Pass 1  IDiag  1:
 RMSU=  2.65D-04    CP:  9.65D-01  1.55D+00  5.06D-01
 E= -4069.76503245219     Delta-E=       -0.137140801815 Rises=F Damp=F
 DIIS: error= 7.32D-03 at cycle   4 NSaved=   4.
 NSaved= 4 IEnMin= 4 EnMin= -4069.76503245219     IErMin= 4 ErrMin= 7.32D-03
 ErrMax= 7.32D-03  0.00D+00 EMaxC= 1.00D-01 BMatC= 5.04D-02 BMatP= 2.02D-01
 IDIUse=3 WtCom= 9.27D-01 WtEn= 7.32D-02
 Coeff-Com: -0.109D+00 0.226D+00 0.409D+00 0.474D+00
 Coeff-En:   0.000D+00 0.000D+00 0.221D+00 0.779D+00
 Coeff:     -0.101D+00 0.209D+00 0.395D+00 0.497D+00
 Gap=     0.123 Goal=   None    Shift=    0.000
 RMSDP=2.00D-04 MaxDP=1.98D-02 DE=-1.37D-01 OVMax= 6.18D-02

 Cycle   5  Pass 1  IDiag  1:
 RMSU=  7.59D-05    CP:  9.64D-01  1.49D+00  6.89D-01  5.49D-01
 E= -4069.81053569826     Delta-E=       -0.045503246067 Rises=F Damp=F
 DIIS: error= 7.85D-04 at cycle   5 NSaved=   5.
 NSaved= 5 IEnMin= 5 EnMin= -4069.81053569826     IErMin= 5 ErrMin= 7.85D-04
 ErrMax= 7.85D-04  0.00D+00 EMaxC= 1.00D-01 BMatC= 1.17D-03 BMatP= 5.04D-02
 IDIUse=3 WtCom= 9.92D-01 WtEn= 7.85D-03
 Coeff-Com: -0.358D-01 0.702D-01 0.165D+00 0.249D+00 0.551D+00
 Coeff-En:   0.000D+00 0.000D+00 0.000D+00 0.000D+00 0.100D+01
 Coeff:     -0.355D-01 0.697D-01 0.164D+00 0.247D+00 0.555D+00
 Gap=     0.123 Goal=   None    Shift=    0.000
 RMSDP=4.08D-05 MaxDP=4.16D-03 DE=-4.55D-02 OVMax= 1.64D-02

 Cycle   6  Pass 1  IDiag  1:
 RMSU=  3.02D-05    CP:  9.64D-01  1.49D+00  6.81D-01  6.21D-01  7.59D-01
 E= -4069.81154554926     Delta-E=       -0.001009851003 Rises=F Damp=F
 DIIS: error= 2.18D-04 at cycle   6 NSaved=   6.
 NSaved= 6 IEnMin= 6 EnMin= -4069.81154554926     IErMin= 6 ErrMin= 2.18D-04
 ErrMax= 2.18D-04  0.00D+00 EMaxC= 1.00D-01 BMatC= 1.76D-04 BMatP= 1.17D-03
 IDIUse=3 WtCom= 9.98D-01 WtEn= 2.18D-03
 Coeff-Com:  0.231D-02-0.677D-02 0.109D-01 0.398D-01 0.306D+00 0.648D+00
 Coeff-En:   0.000D+00 0.000D+00 0.000D+00 0.000D+00 0.103D+00 0.897D+00
 Coeff:      0.230D-02-0.675D-02 0.109D-01 0.397D-01 0.306D+00 0.648D+00
 Gap=     0.123 Goal=   None    Shift=    0.000
 RMSDP=1.58D-05 MaxDP=1.23D-03 DE=-1.01D-03 OVMax= 7.25D-03

 Cycle   7  Pass 1  IDiag  1:
 RMSU=  1.07D-05    CP:  9.64D-01  1.50D+00  6.87D-01  6.21D-01  8.59D-01
                    CP:  7.49D-01
 E= -4069.81173469154     Delta-E=       -0.000189142278 Rises=F Damp=F
 DIIS: error= 8.34D-05 at cycle   7 NSaved=   7.
 NSaved= 7 IEnMin= 7 EnMin= -4069.81173469154     IErMin= 7 ErrMin= 8.34D-05
 ErrMax= 8.34D-05  0.00D+00 EMaxC= 1.00D-01 BMatC= 2.08D-05 BMatP= 1.76D-04
 IDIUse=1 WtCom= 1.00D+00 WtEn= 0.00D+00
 Coeff-Com:  0.446D-02-0.975D-02-0.898D-02-0.381D-02 0.102D+00 0.329D+00
 Coeff-Com:  0.587D+00
 Coeff:      0.446D-02-0.975D-02-0.898D-02-0.381D-02 0.102D+00 0.329D+00
 Coeff:      0.587D+00
 Gap=     0.123 Goal=   None    Shift=    0.000
 RMSDP=6.50D-06 MaxDP=1.11D-03 DE=-1.89D-04 OVMax= 3.40D-03

 Cycle   8  Pass 1  IDiag  1:
 RMSU=  4.67D-06    CP:  9.64D-01  1.50D+00  6.88D-01  6.26D-01  8.64D-01
                    CP:  8.75D-01  8.23D-01
 E= -4069.81176048015     Delta-E=       -0.000025788609 Rises=F Damp=F
 DIIS: error= 5.02D-05 at cycle   8 NSaved=   8.
 NSaved= 8 IEnMin= 8 EnMin= -4069.81176048015     IErMin= 8 ErrMin= 5.02D-05
 ErrMax= 5.02D-05  0.00D+00 EMaxC= 1.00D-01 BMatC= 4.82D-06 BMatP= 2.08D-05
 IDIUse=1 WtCom= 1.00D+00 WtEn= 0.00D+00
 Coeff-Com:  0.215D-02-0.426D-02-0.775D-02-0.121D-01-0.116D-01 0.335D-01
 Coeff-Com:  0.344D+00 0.656D+00
 Coeff:      0.215D-02-0.426D-02-0.775D-02-0.121D-01-0.116D-01 0.335D-01
 Coeff:      0.344D+00 0.656D+00
 Gap=     0.123 Goal=   None    Shift=    0.000
 RMSDP=3.27D-06 MaxDP=3.54D-04 DE=-2.58D-05 OVMax= 1.11D-03

 Cycle   9  Pass 1  IDiag  1:
 RMSU=  1.91D-06    CP:  9.64D-01  1.50D+00  6.88D-01  6.27D-01  8.80D-01
                    CP:  9.01D-01  1.02D+00  9.40D-01
 E= -4069.81176818037     Delta-E=       -0.000007700215 Rises=F Damp=F
 DIIS: error= 1.94D-05 at cycle   9 NSaved=   9.
 NSaved= 9 IEnMin= 9 EnMin= -4069.81176818037     IErMin= 9 ErrMin= 1.94D-05
 ErrMax= 1.94D-05  0.00D+00 EMaxC= 1.00D-01 BMatC= 6.87D-07 BMatP= 4.82D-06
 IDIUse=1 WtCom= 1.00D+00 WtEn= 0.00D+00
 Coeff-Com:  0.462D-03-0.767D-03-0.266D-02-0.598D-02-0.212D-01-0.386D-01
 Coeff-Com:  0.104D+00 0.326D+00 0.639D+00
 Coeff:      0.462D-03-0.767D-03-0.266D-02-0.598D-02-0.212D-01-0.386D-01
 Coeff:      0.104D+00 0.326D+00 0.639D+00
 Gap=     0.123 Goal=   None    Shift=    0.000
 RMSDP=1.41D-06 MaxDP=1.50D-04 DE=-7.70D-06 OVMax= 7.43D-04

 Cycle  10  Pass 1  IDiag  1:
 RMSU=  9.37D-07    CP:  9.64D-01  1.50D+00  6.88D-01  6.28D-01  8.84D-01
                    CP:  9.15D-01  1.07D+00  1.11D+00  1.05D+00
 E= -4069.81176976530     Delta-E=       -0.000001584935 Rises=F Damp=F
 DIIS: error= 1.02D-05 at cycle  10 NSaved=  10.
 NSaved=10 IEnMin=10 EnMin= -4069.81176976530     IErMin=10 ErrMin= 1.02D-05
 ErrMax= 1.02D-05  0.00D+00 EMaxC= 1.00D-01 BMatC= 1.71D-07 BMatP= 6.87D-07
 IDIUse=1 WtCom= 1.00D+00 WtEn= 0.00D+00
 Coeff-Com: -0.427D-03 0.894D-03 0.123D-02 0.112D-02-0.376D-02-0.310D-01
 Coeff-Com: -0.464D-01-0.764D-01 0.255D+00 0.900D+00
 Coeff:     -0.427D-03 0.894D-03 0.123D-02 0.112D-02-0.376D-02-0.310D-01
 Coeff:     -0.464D-01-0.764D-01 0.255D+00 0.900D+00
 Gap=     0.123 Goal=   None    Shift=    0.000
 RMSDP=1.22D-06 MaxDP=1.24D-04 DE=-1.58D-06 OVMax= 6.09D-04

 Cycle  11  Pass 1  IDiag  1:
 RMSU=  5.15D-07    CP:  9.64D-01  1.50D+00  6.88D-01  6.28D-01  8.86D-01
                    CP:  9.25D-01  1.11D+00  1.22D+00  1.39D+00  1.37D+00
 E= -4069.81177055220     Delta-E=       -0.000000786897 Rises=F Damp=F
 DIIS: error= 3.96D-06 at cycle  11 NSaved=  11.
 NSaved=11 IEnMin=11 EnMin= -4069.81177055220     IErMin=11 ErrMin= 3.96D-06
 ErrMax= 3.96D-06  0.00D+00 EMaxC= 1.00D-01 BMatC= 6.12D-08 BMatP= 1.71D-07
 IDIUse=1 WtCom= 1.00D+00 WtEn= 0.00D+00
 Coeff-Com: -0.327D-03 0.636D-03 0.133D-02 0.212D-02 0.441D-02-0.836D-02
 Coeff-Com: -0.435D-01-0.132D+00-0.235D-01 0.465D+00 0.734D+00
 Coeff:     -0.327D-03 0.636D-03 0.133D-02 0.212D-02 0.441D-02-0.836D-02
 Coeff:     -0.435D-01-0.132D+00-0.235D-01 0.465D+00 0.734D+00
 Gap=     0.123 Goal=   None    Shift=    0.000
 RMSDP=6.86D-07 MaxDP=5.85D-05 DE=-7.87D-07 OVMax= 3.73D-04

 Cycle  12  Pass 1  IDiag  1:
 RMSU=  2.63D-07    CP:  9.64D-01  1.50D+00  6.88D-01  6.28D-01  8.87D-01
                    CP:  9.27D-01  1.14D+00  1.28D+00  1.56D+00  1.76D+00
                    CP:  1.20D+00
 E= -4069.81177081459     Delta-E=       -0.000000262398 Rises=F Damp=F
 DIIS: error= 2.34D-06 at cycle  12 NSaved=  12.
 NSaved=12 IEnMin=12 EnMin= -4069.81177081459     IErMin=12 ErrMin= 2.34D-06
 ErrMax= 2.34D-06  0.00D+00 EMaxC= 1.00D-01 BMatC= 1.48D-08 BMatP= 6.12D-08
 IDIUse=1 WtCom= 1.00D+00 WtEn= 0.00D+00
 Coeff-Com: -0.995D-07-0.164D-04 0.180D-03 0.511D-03 0.330D-02 0.405D-02
 Coeff-Com:  0.279D-02-0.349D-01-0.681D-01-0.750D-01 0.251D+00 0.916D+00
 Coeff:     -0.995D-07-0.164D-04 0.180D-03 0.511D-03 0.330D-02 0.405D-02
 Coeff:      0.279D-02-0.349D-01-0.681D-01-0.750D-01 0.251D+00 0.916D+00
 Gap=     0.123 Goal=   None    Shift=    0.000
 RMSDP=4.37D-07 MaxDP=3.10D-05 DE=-2.62D-07 OVMax= 2.49D-04

 Cycle  13  Pass 1  IDiag  1:
 RMSU=  1.65D-07    CP:  9.64D-01  1.50D+00  6.88D-01  6.28D-01  8.87D-01
                    CP:  9.28D-01  1.14D+00  1.31D+00  1.67D+00  1.99D+00
                    CP:  1.61D+00  1.27D+00
 E= -4069.81177090659     Delta-E=       -0.000000091994 Rises=F Damp=F
 DIIS: error= 1.24D-06 at cycle  13 NSaved=  13.
 NSaved=13 IEnMin=13 EnMin= -4069.81177090659     IErMin=13 ErrMin= 1.24D-06
 ErrMax= 1.24D-06  0.00D+00 EMaxC= 1.00D-01 BMatC= 8.13D-09 BMatP= 1.48D-08
 IDIUse=1 WtCom= 1.00D+00 WtEn= 0.00D+00
 Coeff-Com:  0.120D-03-0.245D-03-0.370D-03-0.457D-03 0.574D-03 0.508D-02
 Coeff-Com:  0.197D-01 0.228D-01-0.340D-01-0.241D+00-0.156D+00 0.598D+00
 Coeff-Com:  0.786D+00
 Coeff:      0.120D-03-0.245D-03-0.370D-03-0.457D-03 0.574D-03 0.508D-02
 Coeff:      0.197D-01 0.228D-01-0.340D-01-0.241D+00-0.156D+00 0.598D+00
 Coeff:      0.786D+00
 Gap=     0.123 Goal=   None    Shift=    0.000
 RMSDP=3.40D-07 MaxDP=2.20D-05 DE=-9.20D-08 OVMax= 1.97D-04

 Cycle  14  Pass 1  IDiag  1:
 RMSU=  7.61D-08    CP:  9.64D-01  1.50D+00  6.88D-01  6.28D-01  8.87D-01
                    CP:  9.28D-01  1.15D+00  1.33D+00  1.74D+00  2.18D+00
                    CP:  1.88D+00  1.79D+00  1.09D+00
 E= -4069.81177094256     Delta-E=       -0.000000035976 Rises=F Damp=F
 DIIS: error= 6.38D-07 at cycle  14 NSaved=  14.
 NSaved=14 IEnMin=14 EnMin= -4069.81177094256     IErMin=14 ErrMin= 6.38D-07
 ErrMax= 6.38D-07  0.00D+00 EMaxC= 1.00D-01 BMatC= 1.25D-09 BMatP= 8.13D-09
 IDIUse=1 WtCom= 1.00D+00 WtEn= 0.00D+00
 Coeff-Com:  0.663D-04-0.131D-03-0.246D-03-0.387D-03-0.482D-03 0.129D-02
 Coeff-Com:  0.107D-01 0.192D-01 0.369D-02-0.997D-01-0.142D+00 0.932D-01
 Coeff-Com:  0.405D+00 0.710D+00
 Coeff:      0.663D-04-0.131D-03-0.246D-03-0.387D-03-0.482D-03 0.129D-02
 Coeff:      0.107D-01 0.192D-01 0.369D-02-0.997D-01-0.142D+00 0.932D-01
 Coeff:      0.405D+00 0.710D+00
 Gap=     0.123 Goal=   None    Shift=    0.000
 RMSDP=1.01D-07 MaxDP=7.18D-06 DE=-3.60D-08 OVMax= 5.44D-05

 Cycle  15  Pass 1  IDiag  1:
 RMSU=  3.83D-08    CP:  9.64D-01  1.50D+00  6.88D-01  6.28D-01  8.87D-01
                    CP:  9.28D-01  1.15D+00  1.34D+00  1.76D+00  2.22D+00
                    CP:  1.98D+00  1.92D+00  1.33D+00  1.03D+00
 E= -4069.81177094673     Delta-E=       -0.000000004165 Rises=F Damp=F
 DIIS: error= 3.38D-07 at cycle  15 NSaved=  15.
 NSaved=15 IEnMin=15 EnMin= -4069.81177094673     IErMin=15 ErrMin= 3.38D-07
 ErrMax= 3.38D-07  0.00D+00 EMaxC= 1.00D-01 BMatC= 2.25D-10 BMatP= 1.25D-09
 IDIUse=1 WtCom= 1.00D+00 WtEn= 0.00D+00
 Coeff-Com:  0.519D-05-0.859D-05-0.320D-04-0.809D-04-0.299D-03-0.515D-03
 Coeff-Com:  0.112D-02 0.250D-02 0.875D-02 0.185D-02-0.305D-01-0.731D-01
 Coeff-Com:  0.289D-01 0.296D+00 0.765D+00
 Coeff:      0.519D-05-0.859D-05-0.320D-04-0.809D-04-0.299D-03-0.515D-03
 Coeff:      0.112D-02 0.250D-02 0.875D-02 0.185D-02-0.305D-01-0.731D-01
 Coeff:      0.289D-01 0.296D+00 0.765D+00
 Gap=     0.123 Goal=   None    Shift=    0.000
 RMSDP=4.05D-08 MaxDP=2.88D-06 DE=-4.17D-09 OVMax= 2.69D-05

 Cycle  16  Pass 1  IDiag  1:
 RMSU=  1.87D-08    CP:  9.64D-01  1.50D+00  6.88D-01  6.28D-01  8.87D-01
                    CP:  9.28D-01  1.15D+00  1.34D+00  1.76D+00  2.24D+00
                    CP:  2.00D+00  1.98D+00  1.40D+00  1.24D+00  1.15D+00
 E= -4069.81177094738     Delta-E=       -0.000000000646 Rises=F Damp=F
 DIIS: error= 1.64D-07 at cycle  16 NSaved=  16.
 NSaved=16 IEnMin=16 EnMin= -4069.81177094738     IErMin=16 ErrMin= 1.64D-07
 ErrMax= 1.64D-07  0.00D+00 EMaxC= 1.00D-01 BMatC= 8.17D-11 BMatP= 2.25D-10
 IDIUse=1 WtCom= 1.00D+00 WtEn= 0.00D+00
 Coeff-Com: -0.142D-04 0.288D-04 0.470D-04 0.538D-04-0.269D-04-0.633D-03
 Coeff-Com: -0.198D-02-0.426D-02 0.453D-02 0.256D-01 0.207D-01-0.646D-01
 Coeff-Com: -0.831D-01-0.377D-01 0.398D+00 0.743D+00
 Coeff:     -0.142D-04 0.288D-04 0.470D-04 0.538D-04-0.269D-04-0.633D-03
 Coeff:     -0.198D-02-0.426D-02 0.453D-02 0.256D-01 0.207D-01-0.646D-01
 Coeff:     -0.831D-01-0.377D-01 0.398D+00 0.743D+00
 Gap=     0.123 Goal=   None    Shift=    0.000
 RMSDP=2.29D-08 MaxDP=1.52D-06 DE=-6.46D-10 OVMax= 1.30D-05

 Cycle  17  Pass 1  IDiag  1:
 RMSU=  1.04D-08    CP:  9.64D-01  1.50D+00  6.88D-01  6.28D-01  8.87D-01
                    CP:  9.28D-01  1.15D+00  1.34D+00  1.77D+00  2.24D+00
                    CP:  2.02D+00  2.01D+00  1.45D+00  1.34D+00  1.44D+00
                    CP:  1.25D+00
 E= -4069.81177094767     Delta-E=       -0.000000000291 Rises=F Damp=F
 DIIS: error= 9.34D-08 at cycle  17 NSaved=  17.
 NSaved=17 IEnMin=17 EnMin= -4069.81177094767     IErMin=17 ErrMin= 9.34D-08
 ErrMax= 9.34D-08  0.00D+00 EMaxC= 1.00D-01 BMatC= 1.77D-11 BMatP= 8.17D-11
 IDIUse=1 WtCom= 1.00D+00 WtEn= 0.00D+00
 Coeff-Com: -0.717D-05 0.139D-04 0.285D-04 0.424D-04 0.839D-04-0.122D-03
 Coeff-Com: -0.958D-03-0.279D-02 0.133D-03 0.918D-02 0.174D-01-0.717D-02
 Coeff-Com: -0.366D-01-0.102D+00-0.315D-01 0.293D+00 0.861D+00
 Coeff:     -0.717D-05 0.139D-04 0.285D-04 0.424D-04 0.839D-04-0.122D-03
 Coeff:     -0.958D-03-0.279D-02 0.133D-03 0.918D-02 0.174D-01-0.717D-02
 Coeff:     -0.366D-01-0.102D+00-0.315D-01 0.293D+00 0.861D+00
 Gap=     0.123 Goal=   None    Shift=    0.000
 RMSDP=1.37D-08 MaxDP=1.05D-06 DE=-2.91D-10 OVMax= 8.93D-06

 Cycle  18  Pass 1  IDiag  1:
 RMSU=  4.87D-09    CP:  9.64D-01  1.50D+00  6.88D-01  6.28D-01  8.87D-01
                    CP:  9.28D-01  1.15D+00  1.34D+00  1.77D+00  2.24D+00
                    CP:  2.02D+00  2.02D+00  1.47D+00  1.41D+00  1.61D+00
                    CP:  1.66D+00  1.39D+00
 E= -4069.81177094783     Delta-E=       -0.000000000160 Rises=F Damp=F
 DIIS: error= 5.14D-08 at cycle  18 NSaved=  18.
 NSaved=18 IEnMin=18 EnMin= -4069.81177094783     IErMin=18 ErrMin= 5.14D-08
 ErrMax= 5.14D-08  0.00D+00 EMaxC= 1.00D-01 BMatC= 6.91D-12 BMatP= 1.77D-11
 IDIUse=1 WtCom= 1.00D+00 WtEn= 0.00D+00
 Coeff-Com:  0.207D-05-0.445D-05-0.464D-05-0.181D-05 0.591D-04 0.184D-03
 Coeff-Com:  0.406D-03 0.233D-03-0.129D-02-0.622D-02-0.164D-03 0.202D-01
 Coeff-Com:  0.186D-01-0.324D-01-0.163D+00-0.193D+00 0.349D+00 0.101D+01
 Coeff:      0.207D-05-0.445D-05-0.464D-05-0.181D-05 0.591D-04 0.184D-03
 Coeff:      0.406D-03 0.233D-03-0.129D-02-0.622D-02-0.164D-03 0.202D-01
 Coeff:      0.186D-01-0.324D-01-0.163D+00-0.193D+00 0.349D+00 0.101D+01
 Gap=     0.123 Goal=   None    Shift=    0.000
 RMSDP=1.18D-08 MaxDP=8.08D-07 DE=-1.60D-10 OVMax= 6.80D-06

 Cycle  19  Pass 1  IDiag  1:
 RMSU=  2.79D-09    CP:  9.64D-01  1.50D+00  6.88D-01  6.28D-01  8.87D-01
                    CP:  9.28D-01  1.15D+00  1.34D+00  1.77D+00  2.24D+00
                    CP:  2.03D+00  2.02D+00  1.48D+00  1.46D+00  1.77D+00
                    CP:  1.99D+00  1.94D+00  1.38D+00
 E= -4069.81177094800     Delta-E=       -0.000000000175 Rises=F Damp=F
 DIIS: error= 3.32D-08 at cycle  19 NSaved=  19.
 NSaved=19 IEnMin=19 EnMin= -4069.81177094800     IErMin=19 ErrMin= 3.32D-08
 ErrMax= 3.32D-08  0.00D+00 EMaxC= 1.00D-01 BMatC= 1.40D-12 BMatP= 6.91D-12
 IDIUse=1 WtCom= 1.00D+00 WtEn= 0.00D+00
 Coeff-Com:  0.286D-05-0.577D-05-0.980D-05-0.123D-04 0.107D-04 0.118D-03
 Coeff-Com:  0.471D-03 0.788D-03-0.586D-03-0.589D-02-0.478D-02 0.119D-01
 Coeff-Com:  0.199D-01 0.114D-01-0.677D-01-0.176D+00-0.334D-01 0.487D+00
 Coeff-Com:  0.757D+00
 Coeff:      0.286D-05-0.577D-05-0.980D-05-0.123D-04 0.107D-04 0.118D-03
 Coeff:      0.471D-03 0.788D-03-0.586D-03-0.589D-02-0.478D-02 0.119D-01
 Coeff:      0.199D-01 0.114D-01-0.677D-01-0.176D+00-0.334D-01 0.487D+00
 Coeff:      0.757D+00
 Gap=     0.123 Goal=   None    Shift=    0.000
 RMSDP=4.49D-09 MaxDP=3.20D-07 DE=-1.75D-10 OVMax= 2.93D-06

 SCF Done:  E(RCAM-B3LYP) =  -4069.81177095     A.U. after   19 cycles
            NFock= 19  Conv=0.45D-08     -V/T= 2.0102
 KE= 4.028802043842D+03 PE=-3.407902015386D+04 EE= 1.368131883975D+04
 Leave Link  502 at Sun Sep 12 12:53:16 2021, MaxMem= 23488102400 cpu:           11459.8 elap:             501.3
 (Enter /sw/apps/gaussian-16.0/g16/l801.exe)
 DoSCS=F DFT=T ScalE2(SS,OS)=  1.000000  1.000000
 ExpMin= 3.36D-02 ExpMax= 4.95D+03 ExpMxC= 7.45D+02 IAcc=3 IRadAn=         5 AccDes= 0.00D+00
 HarFok:  IExCor=  205 AccDes= 0.00D+00 IRadAn=         5 IDoV=-2 UseB2=F ITyADJ=14
 ICtDFT= 12500011 ScaDFX=  1.000000  1.000000  1.000000  1.000000
 GSVD:  LWork=       -9588 too small for GESVD, short by       45590 words or       45590 for optimal perf.
 Largest valence mixing into a core orbital is  2.03D-04
 Largest core mixing into a valence orbital is  5.24D-05
 Range of M.O.s used for correlation:    95  1572
 NBasis=  1572 NAE=   312 NBE=   312 NFC=    94 NFV=     0
 NROrb=   1478 NOA=   218 NOB=   218 NVA=  1260 NVB=  1260
 Leave Link  801 at Sun Sep 12 12:53:17 2021, MaxMem= 23488102400 cpu:               8.6 elap:               0.4
 (Enter /sw/apps/gaussian-16.0/g16/l914.exe)
 RHF ground state
 Two-electron integrals replicated using symmetry.
 MDV= 23488102400 DFT=T DoStab=F Mixed=T DoRPA=T DoScal=F NonHer=T
 Making orbital integer symmetry assigments:
 Orbital symmetries:
       Occupied  (A) (A) (A) (A) (A) (A) (A) (A) (A) (A) (A) (A)
                 (A) (A) (A) (A) (A) (A) (A) (A) (A) (A) (A) (A)
                 (A) (A) (A) (A) (A) (A) (A) (A) (A) (A) (A) (A)
                 (A) (A) (A) (A) (A) (A) (A) (A) (A) (A) (A) (A)
                 (A) (A) (A) (A) (A) (A) (A) (A) (A) (A) (A) (A)
                 (A) (A) (A) (A) (A) (A) (A) (A) (A) (A) (A) (A)
                 (A) (A) (A) (A) (A) (A) (A) (A) (A) (A) (A) (A)
                 (A) (A) (A) (A) (A) (A) (A) (A) (A) (A) (A) (A)
                 (A) (A) (A) (A) (A) (A) (A) (A) (A) (A) (A) (A)
                 (A) (A) (A) (A) (A) (A) (A) (A) (A) (A) (A) (A)
                 (A) (A) (A) (A) (A) (A) (A) (A) (A) (A) (A) (A)
                 (A) (A) (A) (A) (A) (A) (A) (A) (A) (A) (A) (A)
                 (A) (A) (A) (A) (A) (A) (A) (A) (A) (A) (A) (A)
                 (A) (A) (A) (A) (A) (A) (A) (A) (A) (A) (A) (A)
                 (A) (A) (A) (A) (A) (A) (A) (A) (A) (A) (A) (A)
                 (A) (A) (A) (A) (A) (A) (A) (A) (A) (A) (A) (A)
                 (A) (A) (A) (A) (A) (A) (A) (A) (A) (A) (A) (A)
                 (A) (A) (A) (A) (A) (A) (A) (A) (A) (A) (A) (A)
                 (A) (A) (A) (A) (A) (A) (A) (A) (A) (A) (A) (A)
                 (A) (A) (A) (A) (A) (A) (A) (A) (A) (A) (A) (A)
                 (A) (A) (A) (A) (A) (A) (A) (A) (A) (A) (A) (A)
                 (A) (A) (A) (A) (A) (A) (A) (A) (A) (A) (A) (A)
                 (A) (A) (A) (A) (A) (A) (A) (A) (A) (A) (A) (A)
                 (A) (A) (A) (A) (A) (A) (A) (A) (A) (A) (A) (A)
                 (A) (A) (A) (A) (A) (A) (A) (A) (A) (A) (A) (A)
                 (A) (A) (A) (A) (A) (A) (A) (A) (A) (A) (A) (A)
       Virtual   (A) (A) (A) (A) (A) (A) (A) (A) (A) (A) (A) (A)
                 (A) (A) (A) (A) (A) (A) (A) (A) (A) (A) (A) (A)
                 (A) (A) (A) (A) (A) (A) (A) (A) (A) (A) (A) (A)
                 (A) (A) (A) (A) (A) (A) (A) (A) (A) (A) (A) (A)
                 (A) (A) (A) (A) (A) (A) (A) (A) (A) (A) (A) (A)
                 (A) (A) (A) (A) (A) (A) (A) (A) (A) (A) (A) (A)
                 (A) (A) (A) (A) (A) (A) (A) (A) (A) (A) (A) (A)
                 (A) (A) (A) (A) (A) (A) (A) (A) (A) (A) (A) (A)
                 (A) (A) (A) (A) (A) (A) (A) (A) (A) (A) (A) (A)
                 (A) (A) (A) (A) (A) (A) (A) (A) (A) (A) (A) (A)
                 (A) (A) (A) (A) (A) (A) (A) (A) (A) (A) (A) (A)
                 (A) (A) (A) (A) (A) (A) (A) (A) (A) (A) (A) (A)
                 (A) (A) (A) (A) (A) (A) (A) (A) (A) (A) (A) (A)
                 (A) (A) (A) (A) (A) (A) (A) (A) (A) (A) (A) (A)
                 (A) (A) (A) (A) (A) (A) (A) (A) (A) (A) (A) (A)
                 (A) (A) (A) (A) (A) (A) (A) (A) (A) (A) (A) (A)
                 (A) (A) (A) (A) (A) (A) (A) (A) (A) (A) (A) (A)
                 (A) (A) (A) (A) (A) (A) (A) (A) (A) (A) (A) (A)
                 (A) (A) (A) (A) (A) (A) (A) (A) (A) (A) (A) (A)
                 (A) (A) (A) (A) (A) (A) (A) (A) (A) (A) (A) (A)
                 (A) (A) (A) (A) (A) (A) (A) (A) (A) (A) (A) (A)
                 (A) (A) (A) (A) (A) (A) (A) (A) (A) (A) (A) (A)
                 (A) (A) (A) (A) (A) (A) (A) (A) (A) (A) (A) (A)
                 (A) (A) (A) (A) (A) (A) (A) (A) (A) (A) (A) (A)
                 (A) (A) (A) (A) (A) (A) (A) (A) (A) (A) (A) (A)
                 (A) (A) (A) (A) (A) (A) (A) (A) (A) (A) (A) (A)
                 (A) (A) (A) (A) (A) (A) (A) (A) (A) (A) (A) (A)
                 (A) (A) (A) (A) (A) (A) (A) (A) (A) (A) (A) (A)
                 (A) (A) (A) (A) (A) (A) (A) (A) (A) (A) (A) (A)
                 (A) (A) (A) (A) (A) (A) (A) (A) (A) (A) (A) (A)
                 (A) (A) (A) (A) (A) (A) (A) (A) (A) (A) (A) (A)
                 (A) (A) (A) (A) (A) (A) (A) (A) (A) (A) (A) (A)
                 (A) (A) (A) (A) (A) (A) (A) (A) (A) (A) (A) (A)
                 (A) (A) (A) (A) (A) (A) (A) (A) (A) (A) (A) (A)
                 (A) (A) (A) (A) (A) (A) (A) (A) (A) (A) (A) (A)
                 (A) (A) (A) (A) (A) (A) (A) (A) (A) (A) (A) (A)
                 (A) (A) (A) (A) (A) (A) (A) (A) (A) (A) (A) (A)
                 (A) (A) (A) (A) (A) (A) (A) (A) (A) (A) (A) (A)
                 (A) (A) (A) (A) (A) (A) (A) (A) (A) (A) (A) (A)
                 (A) (A) (A) (A) (A) (A) (A) (A) (A) (A) (A) (A)
                 (A) (A) (A) (A) (A) (A) (A) (A) (A) (A) (A) (A)
                 (A) (A) (A) (A) (A) (A) (A) (A) (A) (A) (A) (A)
                 (A) (A) (A) (A) (A) (A) (A) (A) (A) (A) (A) (A)
                 (A) (A) (A) (A) (A) (A) (A) (A) (A) (A) (A) (A)
                 (A) (A) (A) (A) (A) (A) (A) (A) (A) (A) (A) (A)
                 (A) (A) (A) (A) (A) (A) (A) (A) (A) (A) (A) (A)
                 (A) (A) (A) (A) (A) (A) (A) (A) (A) (A) (A) (A)
                 (A) (A) (A) (A) (A) (A) (A) (A) (A) (A) (A) (A)
                 (A) (A) (A) (A) (A) (A) (A) (A) (A) (A) (A) (A)
                 (A) (A) (A) (A) (A) (A) (A) (A) (A) (A) (A) (A)
                 (A) (A) (A) (A) (A) (A) (A) (A) (A) (A) (A) (A)
                 (A) (A) (A) (A) (A) (A) (A) (A) (A) (A) (A) (A)
                 (A) (A) (A) (A) (A) (A) (A) (A) (A) (A) (A) (A)
                 (A) (A) (A) (A) (A) (A) (A) (A) (A) (A) (A) (A)
                 (A) (A) (A) (A) (A) (A) (A) (A) (A) (A) (A) (A)
                 (A) (A) (A) (A) (A) (A) (A) (A) (A) (A) (A) (A)
                 (A) (A) (A) (A) (A) (A) (A) (A) (A) (A) (A) (A)
                 (A) (A) (A) (A) (A) (A) (A) (A) (A) (A) (A) (A)
                 (A) (A) (A) (A) (A) (A) (A) (A) (A) (A) (A) (A)
                 (A) (A) (A) (A) (A) (A) (A) (A) (A) (A) (A) (A)
                 (A) (A) (A) (A) (A) (A) (A) (A) (A) (A) (A) (A)
                 (A) (A) (A) (A) (A) (A) (A) (A) (A) (A) (A) (A)
                 (A) (A) (A) (A) (A) (A) (A) (A) (A) (A) (A) (A)
                 (A) (A) (A) (A) (A) (A) (A) (A) (A) (A) (A) (A)
                 (A) (A) (A) (A) (A) (A) (A) (A) (A) (A) (A) (A)
                 (A) (A) (A) (A) (A) (A) (A) (A) (A) (A) (A) (A)
                 (A) (A) (A) (A) (A) (A) (A) (A) (A) (A) (A) (A)
                 (A) (A) (A) (A) (A) (A) (A) (A) (A) (A) (A) (A)
                 (A) (A) (A) (A) (A) (A) (A) (A) (A) (A) (A) (A)
                 (A) (A) (A) (A) (A) (A) (A) (A) (A) (A) (A) (A)
                 (A) (A) (A) (A) (A) (A) (A) (A) (A) (A) (A) (A)
                 (A) (A) (A) (A) (A) (A) (A) (A) (A) (A) (A) (A)
                 (A) (A) (A) (A) (A) (A) (A) (A) (A) (A) (A) (A)
                 (A) (A) (A) (A) (A) (A) (A) (A) (A) (A) (A) (A)
                 (A) (A) (A) (A) (A) (A) (A) (A) (A) (A) (A) (A)
                 (A) (A) (A) (A) (A) (A) (A) (A) (A) (A) (A) (A)
                 (A) (A) (A) (A) (A) (A) (A) (A) (A) (A) (A) (A)
                 (A) (A) (A) (A) (A) (A) (A) (A) (A) (A) (A) (A)
                 (A) (A) (A) (A) (A) (A) (A) (A) (A) (A) (A) (A)
                 (A) (A) (A) (A) (A) (A) (A) (A) (A) (A) (A) (A)
                 (A) (A) (A) (A) (A) (A) (A) (A) (A) (A) (A) (A)
                 (A) (A) (A) (A) (A) (A) (A) (A) (A) (A) (A) (A)
                 (A) (A) (A) (A) (A) (A) (A) (A) (A) (A) (A) (A)
                 (A) (A) (A) (A) (A) (A) (A) (A) (A) (A) (A) (A)
                 (A) (A) (A) (A) (A) (A) (A) (A) (A) (A) (A) (A)
                 (A) (A) (A) (A) (A) (A) (A) (A) (A) (A) (A) (A)
                 (A) (A) (A) (A) (A) (A) (A) (A) (A) (A) (A) (A)
                 (A) (A) (A) (A) (A) (A) (A) (A) (A) (A) (A) (A)
                 (A) (A) (A) (A) (A) (A) (A) (A) (A) (A) (A) (A)
                 (A) (A) (A) (A) (A) (A) (A) (A) (A) (A) (A) (A)
                 (A) (A) (A) (A) (A) (A) (A) (A) (A) (A) (A) (A)
                 (A) (A) (A) (A) (A) (A) (A) (A) (A) (A) (A) (A)
                 (A) (A) (A) (A) (A) (A) (A) (A) (A) (A) (A) (A)
                 (A) (A) (A) (A) (A) (A) (A) (A) (A) (A) (A) (A)
                 (A) (A) (A) (A) (A) (A) (A) (A) (A) (A) (A) (A)
                 (A) (A) (A) (A) (A) (A) (A) (A) (A) (A) (A) (A)
                 (A) (A) (A) (A) (A) (A) (A) (A) (A) (A) (A) (A)
                 (A) (A) (A) (A) (A) (A) (A) (A) (A) (A) (A) (A)
                 (A) (A) (A) (A) (A) (A) (A) (A) (A) (A) (A) (A)
                 (A) (A) (A) (A) (A) (A) (A) (A) (A) (A) (A) (A)
                 (A) (A) (A) (A) (A) (A) (A) (A) (A) (A) (A) (A)
                 (A) (A) (A) (A) (A) (A) (A) (A) (A) (A) (A) (A)
                 (A) (A) (A) (A) (A) (A) (A) (A) (A) (A) (A) (A)
                 (A) (A) (A) (A) (A) (A) (A) (A) (A) (A) (A) (A)
                 (A) (A) (A) (A) (A) (A) (A) (A) (A) (A) (A) (A)
    20 initial guesses have been made.
 Convergence on wavefunction:    0.001000000000000
 Davidson Disk Diagonalization:  ConvIn= 1.00D-03 SkipCon=T Conv= 1.00D-03.
 Max sub-space:  2000 roots to seek:    20 dimension of matrix:       549360
 Iteration     1 Dimension    20 NMult     0 NNew     20
 CISAX will form    20 AO SS matrices at one time.
 NMat=    20 NSing=    20 JSym2X= 0.
 FoFJK:  IHMeth= 1 ICntrl=       0 DoSepK=T KAlg= 0 I1Cent=           0 FoldK=F
 IRaf=         1 NMat=      40 IRICut=       1 DoRegI=T DoRafI=F ISym2E= 0 IDoP0=3 IntGTp=3.
 FoFCou: FMM=T IPFlag=           0 FMFlag=      100000 FMFlg1=        2001
         NFxFlg=           0 DoJE=F BraDBF=F KetDBF=F FulRan=T
         wScrn=  0.000000 ICntrl=       500 IOpCl=  0 I1Cent=           0 NGrid=           0
         NMat0=   20 NMatS0=     20 NMatT0=    0 NMatD0=   20 NMtDS0=    0 NMtDT0=    0
 Symmetry not used in FoFCou.
 FMM levels:  10  Number of levels for PrismC:   9
 New state      1 was old state      8
 New state      2 was old state      5
 New state      3 was old state      1
 New state      5 was old state      2
 Excitation Energies [eV] at current iteration:
 Root      1 :     2.614365790905674
 Root      2 :     2.619266847125234
 Root      3 :     2.680318160826860
 Root      4 :     2.690288711785182
 Root      5 :     3.064782044914159
 Root      6 :     3.069108918097271
 Root      7 :     3.628588134475606
 Root      8 :     3.669140210639688
 Root      9 :     3.735935750732521
 Root     10 :     3.759273969472911
 Root     11 :     3.863266755504566
 Root     12 :     3.868084325235638
 Root     13 :     4.303202798408426
 Root     14 :     4.306776363027717
 Root     15 :     4.979995514776462
 Root     16 :     4.997288745310616
 Root     17 :     5.274403854794262
 Root     18 :     5.293293531481736
 Root     19 :     5.305521946117015
 Root     20 :     5.327456687179621
 Iteration     2 Dimension    30 NMult    20 NNew     10
 CISAX will form    10 AO SS matrices at one time.
 NMat=    10 NSing=    10 JSym2X= 0.
 New state      1 was old state      3
 Root      1 not converged, maximum delta is    0.187177317225357
 New state      2 was old state      4
 Root      2 not converged, maximum delta is    0.188549206302252
 New state      3 was old state      2
 Root      3 not converged, maximum delta is    0.071711048585964
 New state      4 was old state      1
 Root      4 not converged, maximum delta is    0.089634615638155
 Root      5 has converged.
 Excitation Energies [eV] at current iteration:
 Root      1 :     1.801311505430029   Change is   -0.879006655396831
 Root      2 :     1.807432674103827   Change is   -0.882856037681355
 Root      3 :     2.235823889451649   Change is   -0.383442957673585
 Root      4 :     2.239086432221397   Change is   -0.375279358684277
 Root      5 :     3.064774186436463   Change is   -0.000007858477696
 Iteration     3 Dimension    38 NMult    30 NNew      8
 CISAX will form     8 AO SS matrices at one time.
 NMat=     8 NSing=     8 JSym2X= 0.
 Root      1 not converged, maximum delta is    0.069361056453393
 Root      2 not converged, maximum delta is    0.070524865381491
 Root      3 not converged, maximum delta is    0.044023322567696
 Root      4 not converged, maximum delta is    0.042562311339206
 Root      5 has converged.
 Excitation Energies [eV] at current iteration:
 Root      1 :     1.694067520075515   Change is   -0.107243985354514
 Root      2 :     1.699043738156261   Change is   -0.108388935947566
 Root      3 :     2.194362355993881   Change is   -0.041461533457767
 Root      4 :     2.200214202783249   Change is   -0.038872229438148
 Root      5 :     3.064774186436463   Change is    0.000000000000000
 Iteration     4 Dimension    46 NMult    38 NNew      8
 CISAX will form     8 AO SS matrices at one time.
 NMat=     8 NSing=     8 JSym2X= 0.
 Root      1 not converged, maximum delta is    0.013028664850864
 Root      2 not converged, maximum delta is    0.013286461553626
 Root      3 not converged, maximum delta is    0.009740752561636
 Root      4 not converged, maximum delta is    0.008896858895292
 Root      5 has converged.
 Excitation Energies [eV] at current iteration:
 Root      1 :     1.677354349706043   Change is   -0.016713170369472
 Root      2 :     1.682164448765804   Change is   -0.016879289390456
 Root      3 :     2.187058586999601   Change is   -0.007303768994281
 Root      4 :     2.193440077784320   Change is   -0.006774124998928
 Root      5 :     3.064774186436517   Change is    0.000000000000054
 Iteration     5 Dimension    54 NMult    46 NNew      8
 CISAX will form     8 AO SS matrices at one time.
 NMat=     8 NSing=     8 JSym2X= 0.
 Root      1 not converged, maximum delta is    0.002166510198500
 Root      2 not converged, maximum delta is    0.002167461293330
 Root      3 not converged, maximum delta is    0.002500071996217
 Root      4 not converged, maximum delta is    0.002385438732236
 Root      5 has converged.
 Excitation Energies [eV] at current iteration:
 Root      1 :     1.675576265398121   Change is   -0.001778084307922
 Root      2 :     1.680391544541692   Change is   -0.001772904224112
 Root      3 :     2.186212661010480   Change is   -0.000845925989121
 Root      4 :     2.192664153938981   Change is   -0.000775923845340
 Root      5 :     3.064774186436463   Change is   -0.000000000000054
 Iteration     6 Dimension    62 NMult    54 NNew      8
 CISAX will form     8 AO SS matrices at one time.
 NMat=     8 NSing=     8 JSym2X= 0.
 Root      1 not converged, maximum delta is    0.001356482797822
 Root      2 not converged, maximum delta is    0.001377334685180
 Root      3 not converged, maximum delta is    0.001070186896900
 Root      4 not converged, maximum delta is    0.001013749552379
 Root      5 has converged.
 Excitation Energies [eV] at current iteration:
 Root      1 :     1.675322542184705   Change is   -0.000253723213416
 Root      2 :     1.680136434639458   Change is   -0.000255109902234
 Root      3 :     2.186084389086529   Change is   -0.000128271923951
 Root      4 :     2.192546414690773   Change is   -0.000117739248208
 Root      5 :     3.064774186436491   Change is    0.000000000000027
 Iteration     7 Dimension    70 NMult    62 NNew      8
 CISAX will form     8 AO SS matrices at one time.
 NMat=     8 NSing=     8 JSym2X= 0.
 Root      1 has converged.
 Root      2 has converged.
 Root      3 has converged.
 Root      4 has converged.
 Root      5 has converged.
 Excitation Energies [eV] at current iteration:
 Root      1 :     1.675298324398977   Change is   -0.000024217785727
 Root      2 :     1.680112608619319   Change is   -0.000023826020140
[...]
 Alpha virt. eigenvalues --    1.83473   1.83802   1.83847   1.84067   1.84157
 Alpha virt. eigenvalues --    1.84482   1.84493   1.84742   1.84853   1.85080
 Alpha virt. eigenvalues --    1.85146   1.85301   1.85317   1.85442   1.85526
 Alpha virt. eigenvalues --    1.85855   1.85910   1.86337   1.86403   1.86599
 Alpha virt. eigenvalues --    1.86606   1.86780   1.86826   1.86998   1.87082
 Alpha virt. eigenvalues --    1.87436   1.87488   1.87723   1.87725   1.87911
 Alpha virt. eigenvalues --    1.87968   1.88083   1.88132   1.88527   1.88579
 Alpha virt. eigenvalues --    1.88865   1.88892   1.89027   1.89169   1.89613
 Alpha virt. eigenvalues --    1.89669   1.89789   1.89831   1.90143   1.90161
 Alpha virt. eigenvalues --    1.90795   1.90848   1.91381   1.91392   1.91483
 Alpha virt. eigenvalues --    1.91544   1.92136   1.92197   1.92614   1.92668
 Alpha virt. eigenvalues --    1.93025   1.93104   1.93381   1.93456   1.94263
 Alpha virt. eigenvalues --    1.94325   1.94731   1.94769   1.95518   1.95547
 Alpha virt. eigenvalues --    1.95766   1.95770   1.96001   1.96037   1.96126
 Alpha virt. eigenvalues --    1.96195   1.96435   1.96637   1.96888   1.96942
 Alpha virt. eigenvalues --    1.97492   1.97495   1.97754   1.97878   1.98119
 Alpha virt. eigenvalues --    1.98212   1.98301   1.98717   1.99024   1.99178
 Alpha virt. eigenvalues --    1.99864   1.99883   2.00678   2.00702   2.01039
 Alpha virt. eigenvalues --    2.01048   2.01460   2.01522   2.01558   2.01716
 Alpha virt. eigenvalues --    2.01761   2.01775   2.02662   2.02828   2.03094
 Alpha virt. eigenvalues --    2.03278   2.03330   2.03446   2.03472   2.03526
 Alpha virt. eigenvalues --    2.03977   2.04078   2.04928   2.05001   2.05556
 Alpha virt. eigenvalues --    2.05581   2.06121   2.06237   2.06945   2.06984
 Alpha virt. eigenvalues --    2.07226   2.07299   2.08505   2.08628   2.08955
 Alpha virt. eigenvalues --    2.09023   2.09562   2.09631   2.10821   2.10986
 Alpha virt. eigenvalues --    2.11225   2.11357   2.11482   2.11580   2.11769
 Alpha virt. eigenvalues --    2.11815   2.12415   2.12507   2.12751   2.12819
 Alpha virt. eigenvalues --    2.12847   2.12877   2.13579   2.13808   2.14179
 Alpha virt. eigenvalues --    2.14204   2.15357   2.15378   2.15967   2.16031
 Alpha virt. eigenvalues --    2.16542   2.16564   2.16796   2.17123   2.17458
 Alpha virt. eigenvalues --    2.17600   2.17746   2.17882   2.17954   2.18112
 Alpha virt. eigenvalues --    2.18366   2.18621   2.18909   2.19183   2.19682
 Alpha virt. eigenvalues --    2.19767   2.20079   2.20192   2.20253   2.20386
 Alpha virt. eigenvalues --    2.21123   2.21192   2.21711   2.21712   2.21785
 Alpha virt. eigenvalues --    2.21824   2.22649   2.22721   2.23291   2.23355
 Alpha virt. eigenvalues --    2.24368   2.24436   2.24954   2.25000   2.26339
 Alpha virt. eigenvalues --    2.26388   2.26820   2.26956   2.27143   2.27150
 Alpha virt. eigenvalues --    2.28178   2.28261   2.29309   2.29384   2.29775
 Alpha virt. eigenvalues --    2.29825   2.30495   2.30568   2.30772   2.31123
 Alpha virt. eigenvalues --    2.31148   2.31221   2.32161   2.32187   2.33175
 Alpha virt. eigenvalues --    2.33180   2.33430   2.33502   2.34088   2.34180
 Alpha virt. eigenvalues --    2.35245   2.35410   2.35836   2.35854   2.36279
 Alpha virt. eigenvalues --    2.36393   2.36396   2.36664   2.37624   2.37699
 Alpha virt. eigenvalues --    2.38298   2.38327   2.38726   2.38896   2.39613
 Alpha virt. eigenvalues --    2.39650   2.40213   2.40222   2.40525   2.40772
 Alpha virt. eigenvalues --    2.41156   2.41308   2.41639   2.41726   2.42072
 Alpha virt. eigenvalues --    2.42078   2.42768   2.42983   2.43013   2.43572
 Alpha virt. eigenvalues --    2.43920   2.44208   2.44748   2.44770   2.44931
 Alpha virt. eigenvalues --    2.44943   2.45513   2.45586   2.46227   2.46340
 Alpha virt. eigenvalues --    2.46438   2.46517   2.46741   2.46838   2.47293
 Alpha virt. eigenvalues --    2.47320   2.47752   2.47828   2.49336   2.49349
 Alpha virt. eigenvalues --    2.49835   2.50107   2.50396   2.50588   2.51158
 Alpha virt. eigenvalues --    2.51206   2.51551   2.51924   2.52335   2.52477
 Alpha virt. eigenvalues --    2.52847   2.53101   2.53909   2.53957   2.54188
 Alpha virt. eigenvalues --    2.54222   2.54745   2.54826   2.55557   2.55604
 Alpha virt. eigenvalues --    2.57902   2.58015   2.58682   2.58840   2.60235
 Alpha virt. eigenvalues --    2.60244   2.60649   2.60858   2.61748   2.61756
 Alpha virt. eigenvalues --    2.62365   2.62570   2.62993   2.63060   2.63973
 Alpha virt. eigenvalues --    2.64152   2.64282   2.64361   2.65032   2.65117
 Alpha virt. eigenvalues --    2.65793   2.65823   2.66754   2.66815   2.66947
 Alpha virt. eigenvalues --    2.66988   2.67912   2.67946   2.68751   2.68894
 Alpha virt. eigenvalues --    2.68963   2.69060   2.69427   2.69524   2.70035
 Alpha virt. eigenvalues --    2.70069   2.70997   2.71017   2.71823   2.72091
 Alpha virt. eigenvalues --    2.72422   2.72664   2.72690   2.72864   2.73217
 Alpha virt. eigenvalues --    2.73313   2.73397   2.73569   2.74436   2.74547
 Alpha virt. eigenvalues --    2.74983   2.75011   2.76448   2.76628   2.76993
 Alpha virt. eigenvalues --    2.77269   2.77493   2.77532   2.78222   2.78227
 Alpha virt. eigenvalues --    2.78617   2.78766   2.79081   2.79170   2.80190
 Alpha virt. eigenvalues --    2.80381   2.80614   2.80625   2.81076   2.81152
 Alpha virt. eigenvalues --    2.81913   2.81970   2.82259   2.82378   2.83771
 Alpha virt. eigenvalues --    2.83788   2.83804   2.83828   2.84451   2.84581
 Alpha virt. eigenvalues --    2.84810   2.84919   2.85616   2.85704   2.86582
 Alpha virt. eigenvalues --    2.87032   2.87097   2.87643   2.88160   2.88191
 Alpha virt. eigenvalues --    2.88539   2.88544   2.88794   2.88970   2.90533
 Alpha virt. eigenvalues --    2.90581   2.90991   2.91224   2.93191   2.93242
 Alpha virt. eigenvalues --    2.93692   2.94236   2.94495   2.94594   2.95393
 Alpha virt. eigenvalues --    2.95403   2.95761   2.96238   2.96296   2.96477
 Alpha virt. eigenvalues --    2.96793   2.97213   2.97852   2.97953   2.98244
 Alpha virt. eigenvalues --    2.98277   2.98402   2.98493   2.98637   2.98700
 Alpha virt. eigenvalues --    2.98843   2.98919   2.99622   2.99721   2.99937
 Alpha virt. eigenvalues --    3.00067   3.00256   3.00257   3.00497   3.00912
 Alpha virt. eigenvalues --    3.01823   3.02025   3.02035   3.02069   3.02742
 Alpha virt. eigenvalues --    3.02769   3.03014   3.03235   3.03364   3.03628
 Alpha virt. eigenvalues --    3.03972   3.04207   3.04351   3.04486   3.04584
 Alpha virt. eigenvalues --    3.04648   3.05272   3.05332   3.06084   3.06149
 Alpha virt. eigenvalues --    3.06840   3.06855   3.07841   3.08182   3.09277
 Alpha virt. eigenvalues --    3.09438   3.09729   3.10350   3.10478   3.10657
 Alpha virt. eigenvalues --    3.11367   3.11400   3.11819   3.11979   3.12213
 Alpha virt. eigenvalues --    3.12221   3.13319   3.13567   3.13607   3.13677
 Alpha virt. eigenvalues --    3.14129   3.14392   3.15908   3.15958   3.17301
 Alpha virt. eigenvalues --    3.17437   3.17797   3.18116   3.18950   3.19165
 Alpha virt. eigenvalues --    3.22343   3.22515   3.23985   3.24356   3.24712
 Alpha virt. eigenvalues --    3.25110   3.26543   3.26574   3.27312   3.27659
 Alpha virt. eigenvalues --    3.29139   3.29140   3.31295   3.31563   3.33102
 Alpha virt. eigenvalues --    3.33457   3.40179   3.40669   3.42735   3.42856
 Alpha virt. eigenvalues --    3.48614   3.48698   3.50061   3.50199   3.50753
 Alpha virt. eigenvalues --    3.51514   3.56590   3.56922   3.59139   3.59258
 Alpha virt. eigenvalues --    3.62432   3.62877   3.66033   3.66225   3.67225
 Alpha virt. eigenvalues --    3.67461   3.73310   3.73939   3.76096   3.76597
          Condensed to atoms (all electrons):
 Mulliken charges:
               1
     1  Mg   0.838755
     2  C   -0.002983
     3  C   -0.094122
     4  C   -0.045870
     5  C   -0.063975
     6  N   -0.256769
     7  C   -0.052456
     8  C   -0.014026
     9  C   -0.086996
    10  C    0.046318
    11  C    0.104813
    12  C    0.053475
    13  C   -0.071803
    14  H    0.036128
    15  N   -0.433138
    16  C    0.168429
    17  C   -0.177166
    18  C   -0.004004
    19  C    0.148706
    20  C    0.110183
    21  C    0.012281
    22  O   -0.249622
    23  C    0.062475
    24  N   -0.341173
    25  C    0.041256
    26  C   -0.028166
    27  C   -0.024011
    28  C    0.074894
    29  C    0.076169
    30  C    0.035125
    31  C   -0.004506
    32  N   -0.310475
    33  C    0.080414
    34  C   -0.169707
    35  C    0.008360
    36  C    0.082990
    37  C    0.127308
    38  C    0.046126
    39  O   -0.188422
    40  C   -0.005313
    41  C    0.212854
    42  O   -0.257091
    43  O   -0.304795
    44  C    0.157687
    45  H   -0.017615
    46  H   -0.016838
    47  H   -0.041481
    48  H    0.000940
    49  H   -0.004042
    50  H    0.025477
    51  H    0.016447
    52  H    0.016649
    53  H    0.011199
    54  H    0.044130
    55  H    0.017871
    56  H    0.017937
    57  H    0.005866
    58  H    0.026816
    59  H    0.039539
    60  H    0.037339
    61  H    0.035647
    62  H    0.031497
    63  H    0.016556
    64  H    0.009464
    65  H    0.023211
    66  H    0.012541
    67  H    0.004755
    68  H    0.006370
    69  H    0.004740
    70  H    0.008778
    71  H    0.018157
    72  H    0.028980
    73  H    0.047588
    74  H    0.009119
    75  H    0.046011
    76  H    0.035148
    77  H    0.042956
    78  H    0.046390
    79  H    0.053700
    80  Mg   0.837851
    81  C   -0.016848
    82  C   -0.087803
    83  C   -0.045508
    84  C   -0.064843
    85  N   -0.254571
    86  C   -0.049827
    87  C   -0.015107
    88  C   -0.090510
    89  C    0.045777
    90  C    0.114369
    91  C    0.062545
    92  C   -0.077905
    93  H    0.034901
    94  N   -0.423485
    95  C    0.162913
    96  C   -0.174630
    97  C   -0.007809
    98  C    0.152123
    99  C    0.099374
   100  C    0.015568
   101  O   -0.253177
   102  C    0.061193
   103  N   -0.350061
   104  C    0.037541
   105  C   -0.019850
   106  C   -0.034828
   107  C    0.088908
   108  C    0.073641
   109  C    0.034731
   110  C   -0.007677
   111  N   -0.324131
   112  C    0.078468
   113  C   -0.163107
   114  C    0.002248
   115  C    0.096203
   116  C    0.131492
   117  C    0.042406
   118  O   -0.187832
   119  C    0.000927
   120  C    0.211242
   121  O   -0.251014
   122  O   -0.305618
   123  C    0.152021
   124  H   -0.019667
   125  H   -0.015562
   126  H   -0.040416
   127  H   -0.000631
   128  H   -0.004339
   129  H    0.022491
   130  H    0.014440
   131  H    0.016272
   132  H    0.013907
   133  H    0.037677
   134  H    0.020797
   135  H    0.019581
   136  H    0.008748
   137  H    0.026133
   138  H    0.039783
   139  H    0.038244
   140  H    0.036395
   141  H    0.033890
   142  H    0.014401
   143  H    0.012480
   144  H    0.025153
   145  H    0.011647
   146  H    0.005739
   147  H    0.006291
   148  H    0.003679
   149  H    0.010928
   150  H    0.017940
   151  H    0.030083
   152  H    0.046017
   153  H    0.008536
   154  H    0.047012
   155  H    0.035057
   156  H    0.043931
   157  H    0.049482
   158  H    0.053579
 Sum of Mulliken charges =  -0.00000
 Mulliken charges with hydrogens summed into heavy atoms:
               1
     1  Mg   0.838755
     2  C   -0.002983
     3  C   -0.111737
     4  C   -0.062708
     5  C   -0.105456
     6  N   -0.256769
     7  C   -0.052456
     8  C   -0.013086
     9  C   -0.091038
    10  C    0.046318
    11  C    0.163386
    12  C    0.108804
    13  C    0.000133
    15  N   -0.433138
    16  C    0.168429
    17  C   -0.177166
    18  C   -0.004004
    19  C    0.148706
    20  C    0.182403
    21  C    0.012281
    22  O   -0.249622
    23  C    0.166958
    24  N   -0.341173
    25  C    0.041256
    26  C   -0.011610
    27  C   -0.014547
    28  C    0.074894
    29  C    0.116676
    30  C    0.046235
    31  C    0.051410
    32  N   -0.310475
    33  C    0.080414
    34  C   -0.169707
    35  C    0.008360
    36  C    0.082990
    37  C    0.230026
    38  C    0.046126
    39  O   -0.188422
    40  C    0.029835
    41  C    0.212854
    42  O   -0.257091
    43  O   -0.304795
    44  C    0.300733
    80  Mg   0.837851
    81  C   -0.016848
    82  C   -0.107470
    83  C   -0.061070
    84  C   -0.105259
    85  N   -0.254571
    86  C   -0.049827
    87  C   -0.015738
    88  C   -0.094849
    89  C    0.045777
    90  C    0.167572
    91  C    0.114130
    92  C   -0.002627
    94  N   -0.423485
    95  C    0.162913
    96  C   -0.174630
    97  C   -0.007809
    98  C    0.152123
    99  C    0.174038
   100  C    0.015568
   101  O   -0.253177
   102  C    0.169723
   103  N   -0.350061
   104  C    0.037541
   105  C   -0.005449
   106  C   -0.022348
   107  C    0.088908
   108  C    0.116180
   109  C    0.044700
   110  C    0.051273
   111  N   -0.324131
   112  C    0.078468
   113  C   -0.163107
   114  C    0.002248
   115  C    0.096203
   116  C    0.233058
   117  C    0.042406
   118  O   -0.187832
   119  C    0.035984
   120  C    0.211242
   121  O   -0.251014
   122  O   -0.305618
   123  C    0.299014
 Electronic spatial extent (au):  <R**2>=         621327.0784
 Charge=             -0.0000 electrons
 Dipole moment (field-independent basis, Debye):
    X=             -3.3956    Y=             -2.3723    Z=             -8.0207  Tot=              9.0271
 Quadrupole moment (field-independent basis, Debye-Ang):
   XX=           -495.1577   YY=           -554.6025   ZZ=           -446.0405
   XY=              2.7319   XZ=            -17.5906   YZ=            -42.8430
 Traceless Quadrupole moment (field-independent basis, Debye-Ang):
   XX=              3.4426   YY=            -56.0023   ZZ=             52.5597
   XY=              2.7319   XZ=            -17.5906   YZ=            -42.8430
 Octapole moment (field-independent basis, Debye-Ang**2):
  XXX=          -2512.8929  YYY=            356.6594  ZZZ=            -66.3285  XYY=            102.7536
  XXY=           -551.2459  XXZ=          -2477.3346  XZZ=            -88.2639  YZZ=           -207.2057
  YYZ=           -237.8151  XYZ=             16.3310
 Hexadecapole moment (field-independent basis, Debye-Ang**3):
 XXXX=        -784904.3133 YYYY=         -42180.2459 ZZZZ=         -23518.1283 XXXY=          -1019.1786
 XXXZ=         -11247.3266 YYYX=            517.8934 YYYZ=          -1337.4621 ZZZX=             22.2604
 ZZZY=            219.5715 XXYY=        -146919.0536 XXZZ=        -119543.5345 YYZZ=         -10543.2981
 XXYZ=         -11000.6065 YYXZ=            -64.7174 ZZXY=           -142.5226
 N-N= 1.229908749932D+04 E-N=-3.407902014534D+04  KE= 4.028802043842D+03
 Leave Link  601 at Sun Sep 12 13:11:31 2021, MaxMem= 23488102400 cpu:              17.8 elap:               0.9
 (Enter /sw/apps/gaussian-16.0/g16/l9999.exe)
 1\1\GINC-BP1-COMPUTE00082\SP\RCAM-B3LYP TD-FC\def2SVP\C68H72Mg2N8O8\OF
 15641\12-Sep-2021\0\\#p cam-b3lyp/Def2SVP td=(nstates=5)\\TDDFT excite
 d states in gaussian\\0,1\Mg,0,0.,0.,0.\C,0,-0.217,-2.218,2.801\C,0,-1
 .255,2.442,2.026\C,0,-0.245,1.85,-2.564\C,0,0.146,-2.824,-2.037\N,0,-0
 .617,-0.009,2.126\C,0,-0.594,-0.908,3.105\C,0,-0.936,-0.309,4.502\C,0,
 -1.773,0.964,4.032\C,0,-1.155,1.168,2.66\C,0,-3.263,0.685,3.863\C,0,0.
 345,0.11,5.299\C,0,0.124,0.397,6.787\H,0,1.168,0.033,7.733\N,0,-0.185,
 1.961,-0.152\C,0,-0.703,2.8,0.777\C,0,-0.62,4.156,0.193\C,0,-0.187,4.0
 15,-1.225\C,0,-0.214,2.583,-1.38\C,0,-0.887,5.406,0.974\C,0,0.181,5.01
 3,-2.277\O,0,0.303,4.69,-3.508\C,0,0.31,6.414,-1.837\N,0,-0.265,-0.413
 ,-2.029\C,0,-0.279,0.569,-2.937\C,0,-0.196,0.024,-4.332\C,0,0.124,-1.5
 33,-4.18\C,0,0.086,-1.632,-2.635\C,0,-1.451,0.205,-5.197\C,0,1.373,-2.
 07,-4.923\C,0,2.626,-1.49,-4.306\N,0,0.15,-2.144,0.303\C,0,0.173,-3.13
 6,-0.688\C,0,0.173,-4.438,0.004\C,0,0.133,-4.111,1.358\C,0,0.083,-2.69
 5,1.502\C,0,0.149,-5.715,-0.623\C,0,0.096,-4.629,2.716\O,0,0.208,-5.74
 7,3.221\C,0,-0.255,-3.428,3.701\C,0,0.717,-3.482,4.848\O,0,1.931,-3.25
 5,4.669\O,0,0.038,-3.556,6.003\C,0,0.943,-3.583,7.183\H,0,-1.859,3.22,
 2.497\H,0,-0.218,2.453,-3.474\H,0,0.276,-3.747,-2.605\H,0,-1.554,-0.94
 9,5.132\H,0,-1.585,1.831,4.665\H,0,-3.484,-0.377,3.969\H,0,-3.511,1.02
 7,2.858\H,0,-3.852,1.301,4.543\H,0,0.669,1.096,4.966\H,0,1.13,-0.639,5
 .189\H,0,-0.844,0.026,7.125\H,0,0.062,1.477,6.921\H,0,-1.344,5.186,1.9
 38\H,0,-1.651,5.963,0.432\H,0,0.007,6.02,1.084\H,0,-0.635,6.744,-1.405
 \H,0,0.665,6.97,-2.704\H,0,1.048,6.466,-1.036\H,0,0.608,0.501,-4.891\H
 ,0,-0.692,-2.156,-4.547\H,0,-1.267,0.74,-6.129\H,0,-2.204,0.714,-4.596
 \H,0,-1.967,-0.72,-5.453\H,0,1.356,-1.759,-5.967\H,0,1.452,-3.157,-4.9
 02\H,0,2.714,-0.522,-4.798\H,0,3.487,-2.121,-4.529\H,0,2.495,-1.303,-3
 .24\H,0,0.867,-6.333,-0.084\H,0,0.404,-5.642,-1.68\H,0,-0.891,-5.999,-
 0.463\H,0,-1.283,-3.581,4.028\H,0,0.698,-4.478,7.755\H,0,0.833,-2.619,
 7.68\H,0,2.,-3.754,6.976\Mg,0,31.54087,2.8436,2.39982\C,0,32.13324,0.6
 87,5.20646\C,0,31.04677,5.37104,4.63645\C,0,30.57479,4.65929,-0.01625\
 C,0,30.95598,-0.01924,0.50041\N,0,31.60931,2.89804,4.60994\C,0,31.9052
 1,2.03144,5.5669\C,0,32.03877,2.65622,6.9816\C,0,31.12908,3.96014,6.75
 548\C,0,31.29469,4.11477,5.24507\C,0,29.65735,3.72617,7.05314\C,0,33.5
 1989,3.04204,7.32723\C,0,33.7721,3.36924,8.80069\H,0,35.05231,2.98606,
 9.38951\N,0,31.38241,4.81687,2.25954\C,0,31.20839,5.69319,3.27101\C,0,
 31.13153,7.0216,2.64366\C,0,31.10919,6.84218,1.16649\C,0,30.99785,5.40
 002,1.07778\C,0,31.16707,8.29773,3.43339\C,0,31.16435,7.80951,0.02307\
 O,0,30.891,7.45033,-1.17656\C,0,31.45662,9.20981,0.36252\N,0,30.65759,
 2.40282,0.5701\C,0,30.38717,3.37459,-0.31898\C,0,30.0129,2.79587,-1.66
 263\C,0,30.32418,1.23071,-1.55806\C,0,30.75964,1.15762,-0.07805\C,0,28
 .56009,2.99795,-2.09263\C,0,31.2653,0.62675,-2.63613\C,0,32.66397,1.17
 45,-2.4656\N,0,31.71581,0.71188,2.70511\C,0,31.39411,-0.31069,1.7859\C
 ,0,31.57004,-1.59848,2.48809\C,0,31.9628,-1.23219,3.78426\C,0,32.00758
 ,0.18435,3.88877\C,0,31.32446,-2.88732,1.93608\C,0,32.33943,-1.72156,5
 .09092\O,0,32.56099,-2.83208,5.57195\C,0,32.34413,-0.49882,6.10644\C,0
 ,33.62102,-0.55839,6.89924\O,0,34.7199,-0.39288,6.34097\O,0,33.32424,-
 0.58347,8.21136\C,0,34.55878,-0.63157,9.03925\H,0,30.65044,6.17754,5.2
 5401\H,0,30.33615,5.23642,-0.9126\H,0,30.88813,-0.95937,-0.05114\H,0,3
 1.6317,2.05355,7.78463\H,0,31.53919,4.82268,7.27432\H,0,29.44743,2.686
 25,7.25473\H,0,29.12292,4.0561,6.1719\H,0,29.32889,4.3791,7.86686\H,0,
 33.75078,4.01576,6.87635\H,0,34.19812,2.27557,7.00605\H,0,32.94251,3.0
 4787,9.44214\H,0,33.79473,4.45562,8.91596\H,0,31.01875,8.11226,4.50437
 \H,0,30.29043,8.88287,3.13511\H,0,32.06675,8.88651,3.24214\H,0,30.7045
 3,9.57774,1.05639\H,0,31.54244,9.73041,-0.59325\H,0,32.4167,9.24909,0.
 88912\H,0,30.62081,3.2232,-2.45064\H,0,29.40934,0.62652,-1.64666\H,0,2
 8.46077,3.51668,-3.0648\H,0,28.04703,3.54718,-1.3144\H,0,27.96786,2.08
 705,-2.16137\H,0,30.93578,0.92258,-3.63516\H,0,31.30377,-0.4573,-2.617
 56\H,0,32.61889,2.13386,-2.98971\H,0,33.39417,0.5093,-2.92206\H,0,32.8
 7853,1.3846,-1.41134\H,0,32.14682,-3.51954,2.24351\H,0,31.23754,-2.845
 69,0.85235\H,0,30.3714,-3.12642,2.41543\H,0,31.46294,-0.59709,6.74159\
 H,0,34.47326,-1.50742,9.68984\H,0,34.6271,0.35677,9.53146\H,0,35.49464
 ,-0.83533,8.53221\\Version=ES64L-G16RevA.03\State=1-A\HF=-4069.8117709
 \RMSD=4.485e-09\PG=C01 [X(C68H72Mg2N8O8)]\\@


 IN-LAWS ARE LIKE SEEDS. YOU DON'T NEED THEM
 BUT THEY COME WITH THE TOMATO.
 Job cpu time:       0 days 10 hours 29 minutes  0.3 seconds.
 Elapsed time:       0 days  0 hours 26 minutes 47.4 seconds.
 File lengths (MBytes):  RWF=  13225 Int=      0 D2E=      0 Chk=    574 Scr=      1
 Normal termination of Gaussian 16 at Sun Sep 12 13:11:32 2021.
