 Entering Gaussian System, Link 0=g16
 Initial command:
 /sw/apps/gaussian-16.0/g16/l1.exe "/tmp/Gau-39865.inp" -scrdir="/tmp/"
 Entering Link 1 = /sw/apps/gaussian-16.0/g16/l1.exe PID=     39866.
  
 Copyright (c) 1988,1990,1992,1993,1995,1998,2003,2009,2016,
            Gaussian, Inc.  All Rights Reserved.
  
 This is part of the Gaussian(R) 16 program.  It is based on
 the Gaussian(R) 09 system (copyright 2009, Gaussian, Inc.),
 the Gaussian(R) 03 system (copyright 2003, Gaussian, Inc.),
 the Gaussian(R) 98 system (copyright 1998, Gaussian, Inc.),
 the Gaussian(R) 94 system (copyright 1995, Gaussian, Inc.),
 the Gaussian 92(TM) system (copyright 1992, Gaussian, Inc.),
 the Gaussian 90(TM) system (copyright 1990, Gaussian, Inc.),
 the Gaussian 88(TM) system (copyright 1988, Gaussian, Inc.),
 the Gaussian 86(TM) system (copyright 1986, Carnegie Mellon
 University), and the Gaussian 82(TM) system (copyright 1983,
 Carnegie Mellon University). Gaussian is a federally registered
 trademark of Gaussian, Inc.
  
 This software contains proprietary and confidential information,
 including trade secrets, belonging to Gaussian, Inc.
  
 This software is provided under written license and may be
 used, copied, transmitted, or stored only in accord with that
 written license.
  
 The following legend is applicable only to US Government
 contracts under FAR:
  
                    RESTRICTED RIGHTS LEGEND
  
 Use, reproduction and disclosure by the US Government is
 subject to restrictions as set forth in subparagraphs (a)
 and (c) of the Commercial Computer Software - Restricted
 Rights clause in FAR 52.227-19.
  
 Gaussian, Inc.
 340 Quinnipiac St., Bldg. 40, Wallingford CT 06492
  
  
 ---------------------------------------------------------------
 Warning -- This program may not be used in any manner that
 competes with the business of Gaussian, Inc. or will provide
 assistance to any competitor of Gaussian, Inc.  The licensee
 of this program is prohibited from giving any competitor of
 Gaussian, Inc. access to this program.  By using this program,
 the user acknowledges that Gaussian, Inc. is engaged in the
 business of creating and licensing software in the field of
 computational chemistry and represents and warrants to the
 licensee that it is not a competitor of Gaussian, Inc. and that
 it will not use this program in any manner prohibited above.
 ---------------------------------------------------------------
  

 Cite this work as:
 Gaussian 16, Revision A.03,
 M. J. Frisch, G. W. Trucks, H. B. Schlegel, G. E. Scuseria, 
 M. A. Robb, J. R. Cheeseman, G. Scalmani, V. Barone, 
 G. A. Petersson, H. Nakatsuji, X. Li, M. Caricato, A. V. Marenich, 
 J. Bloino, B. G. Janesko, R. Gomperts, B. Mennucci, H. P. Hratchian, 
 J. V. Ortiz, A. F. Izmaylov, J. L. Sonnenberg, D. Williams-Young, 
 F. Ding, F. Lipparini, F. Egidi, J. Goings, B. Peng, A. Petrone, 
 T. Henderson, D. Ranasinghe, V. G. Zakrzewski, J. Gao, N. Rega, 
 G. Zheng, W. Liang, M. Hada, M. Ehara, K. Toyota, R. Fukuda, 
 J. Hasegawa, M. Ishida, T. Nakajima, Y. Honda, O. Kitao, H. Nakai, 
 T. Vreven, K. Throssell, J. A. Montgomery, Jr., J. E. Peralta, 
 F. Ogliaro, M. J. Bearpark, J. J. Heyd, E. N. Brothers, K. N. Kudin, 
 V. N. Staroverov, T. A. Keith, R. Kobayashi, J. Normand, 
 K. Raghavachari, A. P. Rendell, J. C. Burant, S. S. Iyengar, 
 J. Tomasi, M. Cossi, J. M. Millam, M. Klene, C. Adamo, R. Cammi, 
 J. W. Ochterski, R. L. Martin, K. Morokuma, O. Farkas, 
 J. B. Foresman, and D. J. Fox, Gaussian, Inc., Wallingford CT, 2016.
 
 ******************************************
 Gaussian 16:  ES64L-G16RevA.03 25-Dec-2016
                11-Sep-2021 
 ******************************************
 %nproc=24
 Will use up to   24 processors via shared memory.
 %mem=175gb
 -----------------------------------
 #p cam-b3lyp/Def2SVP td=(nstates=5)
 -----------------------------------
 1/38=1,172=1/1;
 2/12=2,17=6,18=5,40=1/2;
 3/5=43,7=101,11=9,25=1,30=1,74=-40/1,2,3,8;
 4//1;
 5/5=2,38=5/2;
 8/6=1,10=1,108=5/1;
 9/41=5,42=1,70=2/14;
 6/7=2,8=2,9=2,10=2/1;
 99/5=1,9=1/99;
 Leave Link    1 at Sat Sep 11 05:01:07 2021, MaxMem= 23488102400 cpu:               0.9 elap:               0.0
 (Enter /sw/apps/gaussian-16.0/g16/l101.exe)
 --------------------------------
 TDDFT excited states in gaussian
 --------------------------------
 Symbolic Z-matrix:
 Charge =  0 Multiplicity = 1
 Mg                    0.        0.        0. 
 C                    -0.217    -2.218     2.801 
 C                    -1.255     2.442     2.026 
 C                    -0.245     1.85     -2.564 
 C                     0.146    -2.824    -2.037 
 N                    -0.617    -0.009     2.126 
 C                    -0.594    -0.908     3.105 
 C                    -0.936    -0.309     4.502 
 C                    -1.773     0.964     4.032 
 C                    -1.155     1.168     2.66 
 C                    -3.263     0.685     3.863 
 C                     0.345     0.11      5.299 
 C                     0.124     0.397     6.787 
 H                     1.168     0.033     7.733 
 N                    -0.185     1.961    -0.152 
 C                    -0.703     2.8       0.777 
 C                    -0.62      4.156     0.193 
 C                    -0.187     4.015    -1.225 
 C                    -0.214     2.583    -1.38 
 C                    -0.887     5.406     0.974 
 C                     0.181     5.013    -2.277 
 O                     0.303     4.69     -3.508 
 C                     0.31      6.414    -1.837 
 N                    -0.265    -0.413    -2.029 
 C                    -0.279     0.569    -2.937 
 C                    -0.196     0.024    -4.332 
 C                     0.124    -1.533    -4.18 
 C                     0.086    -1.632    -2.635 
 C                    -1.451     0.205    -5.197 
 C                     1.373    -2.07     -4.923 
 C                     2.626    -1.49     -4.306 
 N                     0.15     -2.144     0.303 
 C                     0.173    -3.136    -0.688 
 C                     0.173    -4.438     0.004 
 C                     0.133    -4.111     1.358 
 C                     0.083    -2.695     1.502 
 C                     0.149    -5.715    -0.623 
 C                     0.096    -4.629     2.716 
 O                     0.208    -5.747     3.221 
 C                    -0.255    -3.428     3.701 
 C                     0.717    -3.482     4.848 
 O                     1.931    -3.255     4.669 
 O                     0.038    -3.556     6.003 
 C                     0.943    -3.583     7.183 
 H                    -1.859     3.22      2.497 
 H                    -0.218     2.453    -3.474 
 H                     0.276    -3.747    -2.605 
 H                    -1.554    -0.949     5.132 
 H                    -1.585     1.831     4.665 
 H                    -3.484    -0.377     3.969 
 H                    -3.511     1.027     2.858 
 H                    -3.852     1.301     4.543 
 H                     0.669     1.096     4.966 
 H                     1.13     -0.639     5.189 
 H                    -0.844     0.026     7.125 
 H                     0.062     1.477     6.921 
 H                    -1.344     5.186     1.938 
 H                    -1.651     5.963     0.432 
 H                     0.007     6.02      1.084 
 H                    -0.635     6.744    -1.405 
 H                     0.665     6.97     -2.704 
 H                     1.048     6.466    -1.036 
 H                     0.608     0.501    -4.891 
 H                    -0.692    -2.156    -4.547 
 H                    -1.267     0.74     -6.129 
 H                    -2.204     0.714    -4.596 
 H                    -1.967    -0.72     -5.453 
 H                     1.356    -1.759    -5.967 
 H                     1.452    -3.157    -4.902 
 H                     2.714    -0.522    -4.798 
 H                     3.487    -2.121    -4.529 
 H                     2.495    -1.303    -3.24 
 H                     0.867    -6.333    -0.084 
 H                     0.404    -5.642    -1.68 
 H                    -0.891    -5.999    -0.463 
 H                    -1.283    -3.581     4.028 
 H                     0.698    -4.478     7.755 
 H                     0.833    -2.619     7.68 
 H                     2.       -3.754     6.976 
 Mg                    13.14655   1.18767   1.00308 
 C                     13.5768  -0.97983   3.83078 
 C                     12.49493   3.69969   3.21662 
 C                     12.32122   3.00964  -1.45998 
 C                     12.70253  -1.66889  -0.94336 
 N                     13.07563   1.23075   3.21337 
 C                     13.31701   0.36108   4.18278 
 C                     13.35699   0.97918   5.60613 
 C                     12.45403   2.27807   5.32968 
 C                     12.71308   2.4419    3.83344 
 C                     10.96821   2.03251   5.5331 
 C                     14.81068   1.37321   6.04604 
 C                     14.9675   1.69424   7.53403 
 H                     16.21089   1.31664   8.20026 
 N                     12.98315   3.16053   0.86281 
 C                     12.73971   4.03023   1.86563 
 C                     12.69294   5.36142   1.24122 
 C                     12.76471   5.18975  -0.23529 
 C                     12.66943   3.74736  -0.3379 
 C                     12.66971   6.63352   2.03788 
 C                     12.88469   6.16354  -1.36823 
 O                     12.6898   5.80893  -2.58441 
 C                     13.14507   7.56396  -1.00421 
 N                     12.38311   0.75067  -0.88067 
 C                     12.16215   1.72532  -1.78021 
 C                     11.87715   1.15127  -3.14755 
 C                     12.1924  -0.41228  -3.03131 
 C                     12.53454  -0.49031  -1.52724 
 C                     10.45282   1.34575  -3.66701 
 C                     13.20364  -1.00405  -4.05105 
 C                     14.5849  -0.44772  -3.79027 
 N                     13.31715  -0.94442   1.3083 
 C                     13.06112  -1.96422   0.36568 
 C                     13.20177  -3.25452   1.0712 
 C                     13.50972  -2.8925    2.39128 
 C                     13.53774  -1.47627   2.50535 
 C                     13.00053  -4.54203   0.49854 
 C                     13.807   -3.38628   3.71661 
 O                     14.00581  -4.49782   4.20516 
 C                     13.73919  -2.16899   4.73641 
 C                     14.96415  -2.2241    5.60759 
 O                     16.09472  -2.04813   5.12031 
 O                     14.58572  -2.25822   6.89833 
 C                     15.76614  -2.30234   7.80193 
 H                     12.05486   4.50016   3.81199 
 H                     12.13525   3.58991  -2.36672 
 H                     12.67616  -2.6065   -1.5027 
 H                     12.90458   0.36947   6.37901 
 H                     12.82458   3.1406    5.87749 
 H                     10.75346   0.99012   5.71599 
 H                     10.48786   2.3635    4.62164 
 H                     10.58465   2.67883   6.32777 
 H                     15.0625   2.35088   5.61535 
 H                     15.5132   0.61311   5.76437 
 H                     14.10158   1.36381   8.12049 
 H                     14.97511   2.78012   7.65583 
 H                     12.45574   6.44132   3.0965 
 H                     11.80939   7.21427   1.68796 
 H                     13.5754   7.22942   1.90644 
 H                     12.34828   7.92304  -0.35719 
 H                     13.28705   8.09023  -1.95013 
 H                     14.06988   7.60695  -0.41813 
 H                     12.53029   1.58692  -3.89369 
 H                     11.28925  -1.0222   -3.1802 
 H                     10.41106   1.86898  -4.64095 
 H                     9.88798   1.88731  -2.91988 
 H                     9.87258   0.43122  -3.77731 
 H                     12.93544  -0.70513  -5.06735 
 H                     13.2486  -2.0879   -4.03542 
 H                     14.566    0.5141   -4.31146 
 H                     15.34706  -1.10549  -4.2032 
 H                     14.73132  -0.2418   -2.72359 
 H                     13.80645  -5.17027   0.85393 
 H                     12.98157  -4.4952   -0.5883 
 H                     12.02097  -4.79017   0.91586 
 H                     12.82056  -2.27664   5.31443 
 H                     15.64616  -3.18222   8.44154 
 H                     15.79636  -1.3162    8.3023 
 H                     16.73343  -2.49701   7.35371 
 
 ITRead=  0  0  0  0  0  0  0  0  0  0  0  0  0  0  0  0  0  0  0  0
 ITRead=  0  0  0  0  0  0  0  0  0  0  0  0  0  0  0  0  0  0  0  0
 ITRead=  0  0  0  0  0  0  0  0  0  0  0  0  0  0  0  0  0  0  0  0
 ITRead=  0  0  0  0  0  0  0  0  0  0  0  0  0  0  0  0  0  0  0  0
 ITRead=  0  0  0  0  0  0  0  0  0  0  0  0  0  0  0  0  0  0  0  0
 ITRead=  0  0  0  0  0  0  0  0  0  0  0  0  0  0  0  0  0  0  0  0
 ITRead=  0  0  0  0  0  0  0  0  0  0  0  0  0  0  0  0  0  0  0  0
 ITRead=  0  0  0  0  0  0  0  0  0  0  0  0  0  0  0  0  0  0
 MicOpt= -1 -1 -1 -1 -1 -1 -1 -1 -1 -1 -1 -1 -1 -1 -1 -1 -1 -1 -1 -1
 MicOpt= -1 -1 -1 -1 -1 -1 -1 -1 -1 -1 -1 -1 -1 -1 -1 -1 -1 -1 -1 -1
 MicOpt= -1 -1 -1 -1 -1 -1 -1 -1 -1 -1 -1 -1 -1 -1 -1 -1 -1 -1 -1 -1
 MicOpt= -1 -1 -1 -1 -1 -1 -1 -1 -1 -1 -1 -1 -1 -1 -1 -1 -1 -1 -1 -1
 MicOpt= -1 -1 -1 -1 -1 -1 -1 -1 -1 -1 -1 -1 -1 -1 -1 -1 -1 -1 -1 -1
 MicOpt= -1 -1 -1 -1 -1 -1 -1 -1 -1 -1 -1 -1 -1 -1 -1 -1 -1 -1 -1 -1
 MicOpt= -1 -1 -1 -1 -1 -1 -1 -1 -1 -1 -1 -1 -1 -1 -1 -1 -1 -1 -1 -1
 MicOpt= -1 -1 -1 -1 -1 -1 -1 -1 -1 -1 -1 -1 -1 -1 -1 -1 -1 -1
 NAtoms=    158 NQM=      158 NQMF=       0 NMMI=      0 NMMIF=      0
                NMic=       0 NMicF=      0.
                    Isotopes and Nuclear Properties:
 (Nuclear quadrupole moments (NQMom) in fm**2, nuclear magnetic moments (NMagM)
  in nuclear magnetons)

  Atom         1           2           3           4           5           6           7           8           9          10
 IAtWgt=          24          12          12          12          12          14          12          12          12          12
 AtmWgt=  23.9850450  12.0000000  12.0000000  12.0000000  12.0000000  14.0030740  12.0000000  12.0000000  12.0000000  12.0000000
 NucSpn=           0           0           0           0           0           2           0           0           0           0
 AtZEff=  -0.0000000  -0.0000000  -0.0000000  -0.0000000  -0.0000000  -0.0000000  -0.0000000  -0.0000000  -0.0000000  -0.0000000
 NQMom=    0.0000000   0.0000000   0.0000000   0.0000000   0.0000000   2.0440000   0.0000000   0.0000000   0.0000000   0.0000000
 NMagM=    0.0000000   0.0000000   0.0000000   0.0000000   0.0000000   0.4037610   0.0000000   0.0000000   0.0000000   0.0000000
 AtZNuc=  12.0000000   6.0000000   6.0000000   6.0000000   6.0000000   7.0000000   6.0000000   6.0000000   6.0000000   6.0000000

  Atom        11          12          13          14          15          16          17          18          19          20
 IAtWgt=          12          12          12           1          14          12          12          12          12          12
 AtmWgt=  12.0000000  12.0000000  12.0000000   1.0078250  14.0030740  12.0000000  12.0000000  12.0000000  12.0000000  12.0000000
 NucSpn=           0           0           0           1           2           0           0           0           0           0
 AtZEff=  -0.0000000  -0.0000000  -0.0000000  -0.0000000  -0.0000000  -0.0000000  -0.0000000  -0.0000000  -0.0000000  -0.0000000
 NQMom=    0.0000000   0.0000000   0.0000000   0.0000000   2.0440000   0.0000000   0.0000000   0.0000000   0.0000000   0.0000000
 NMagM=    0.0000000   0.0000000   0.0000000   2.7928460   0.4037610   0.0000000   0.0000000   0.0000000   0.0000000   0.0000000
 AtZNuc=   6.0000000   6.0000000   6.0000000   1.0000000   7.0000000   6.0000000   6.0000000   6.0000000   6.0000000   6.0000000

  Atom        21          22          23          24          25          26          27          28          29          30
 IAtWgt=          12          16          12          14          12          12          12          12          12          12
 AtmWgt=  12.0000000  15.9949146  12.0000000  14.0030740  12.0000000  12.0000000  12.0000000  12.0000000  12.0000000  12.0000000
 NucSpn=           0           0           0           2           0           0           0           0           0           0
 AtZEff=  -0.0000000  -0.0000000  -0.0000000  -0.0000000  -0.0000000  -0.0000000  -0.0000000  -0.0000000  -0.0000000  -0.0000000
 NQMom=    0.0000000   0.0000000   0.0000000   2.0440000   0.0000000   0.0000000   0.0000000   0.0000000   0.0000000   0.0000000
 NMagM=    0.0000000   0.0000000   0.0000000   0.4037610   0.0000000   0.0000000   0.0000000   0.0000000   0.0000000   0.0000000
 AtZNuc=   6.0000000   8.0000000   6.0000000   7.0000000   6.0000000   6.0000000   6.0000000   6.0000000   6.0000000   6.0000000

  Atom        31          32          33          34          35          36          37          38          39          40
 IAtWgt=          12          14          12          12          12          12          12          12          16          12
 AtmWgt=  12.0000000  14.0030740  12.0000000  12.0000000  12.0000000  12.0000000  12.0000000  12.0000000  15.9949146  12.0000000
 NucSpn=           0           2           0           0           0           0           0           0           0           0
 AtZEff=  -0.0000000  -0.0000000  -0.0000000  -0.0000000  -0.0000000  -0.0000000  -0.0000000  -0.0000000  -0.0000000  -0.0000000
 NQMom=    0.0000000   2.0440000   0.0000000   0.0000000   0.0000000   0.0000000   0.0000000   0.0000000   0.0000000   0.0000000
 NMagM=    0.0000000   0.4037610   0.0000000   0.0000000   0.0000000   0.0000000   0.0000000   0.0000000   0.0000000   0.0000000
 AtZNuc=   6.0000000   7.0000000   6.0000000   6.0000000   6.0000000   6.0000000   6.0000000   6.0000000   8.0000000   6.0000000

  Atom        41          42          43          44          45          46          47          48          49          50
 IAtWgt=          12          16          16          12           1           1           1           1           1           1
 AtmWgt=  12.0000000  15.9949146  15.9949146  12.0000000   1.0078250   1.0078250   1.0078250   1.0078250   1.0078250   1.0078250
 NucSpn=           0           0           0           0           1           1           1           1           1           1
 AtZEff=  -0.0000000  -0.0000000  -0.0000000  -0.0000000  -0.0000000  -0.0000000  -0.0000000  -0.0000000  -0.0000000  -0.0000000
 NQMom=    0.0000000   0.0000000   0.0000000   0.0000000   0.0000000   0.0000000   0.0000000   0.0000000   0.0000000   0.0000000
 NMagM=    0.0000000   0.0000000   0.0000000   0.0000000   2.7928460   2.7928460   2.7928460   2.7928460   2.7928460   2.7928460
 AtZNuc=   6.0000000   8.0000000   8.0000000   6.0000000   1.0000000   1.0000000   1.0000000   1.0000000   1.0000000   1.0000000

  Atom        51          52          53          54          55          56          57          58          59          60
 IAtWgt=           1           1           1           1           1           1           1           1           1           1
 AtmWgt=   1.0078250   1.0078250   1.0078250   1.0078250   1.0078250   1.0078250   1.0078250   1.0078250   1.0078250   1.0078250
 NucSpn=           1           1           1           1           1           1           1           1           1           1
 AtZEff=  -0.0000000  -0.0000000  -0.0000000  -0.0000000  -0.0000000  -0.0000000  -0.0000000  -0.0000000  -0.0000000  -0.0000000
 NQMom=    0.0000000   0.0000000   0.0000000   0.0000000   0.0000000   0.0000000   0.0000000   0.0000000   0.0000000   0.0000000
 NMagM=    2.7928460   2.7928460   2.7928460   2.7928460   2.7928460   2.7928460   2.7928460   2.7928460   2.7928460   2.7928460
 AtZNuc=   1.0000000   1.0000000   1.0000000   1.0000000   1.0000000   1.0000000   1.0000000   1.0000000   1.0000000   1.0000000

  Atom        61          62          63          64          65          66          67          68          69          70
 IAtWgt=           1           1           1           1           1           1           1           1           1           1
 AtmWgt=   1.0078250   1.0078250   1.0078250   1.0078250   1.0078250   1.0078250   1.0078250   1.0078250   1.0078250   1.0078250
 NucSpn=           1           1           1           1           1           1           1           1           1           1
 AtZEff=  -0.0000000  -0.0000000  -0.0000000  -0.0000000  -0.0000000  -0.0000000  -0.0000000  -0.0000000  -0.0000000  -0.0000000
 NQMom=    0.0000000   0.0000000   0.0000000   0.0000000   0.0000000   0.0000000   0.0000000   0.0000000   0.0000000   0.0000000
 NMagM=    2.7928460   2.7928460   2.7928460   2.7928460   2.7928460   2.7928460   2.7928460   2.7928460   2.7928460   2.7928460
 AtZNuc=   1.0000000   1.0000000   1.0000000   1.0000000   1.0000000   1.0000000   1.0000000   1.0000000   1.0000000   1.0000000

  Atom        71          72          73          74          75          76          77          78          79          80
 IAtWgt=           1           1           1           1           1           1           1           1           1          24
 AtmWgt=   1.0078250   1.0078250   1.0078250   1.0078250   1.0078250   1.0078250   1.0078250   1.0078250   1.0078250  23.9850450
 NucSpn=           1           1           1           1           1           1           1           1           1           0
 AtZEff=  -0.0000000  -0.0000000  -0.0000000  -0.0000000  -0.0000000  -0.0000000  -0.0000000  -0.0000000  -0.0000000  -0.0000000
 NQMom=    0.0000000   0.0000000   0.0000000   0.0000000   0.0000000   0.0000000   0.0000000   0.0000000   0.0000000   0.0000000
 NMagM=    2.7928460   2.7928460   2.7928460   2.7928460   2.7928460   2.7928460   2.7928460   2.7928460   2.7928460   0.0000000
 AtZNuc=   1.0000000   1.0000000   1.0000000   1.0000000   1.0000000   1.0000000   1.0000000   1.0000000   1.0000000  12.0000000

  Atom        81          82          83          84          85          86          87          88          89          90
 IAtWgt=          12          12          12          12          14          12          12          12          12          12
 AtmWgt=  12.0000000  12.0000000  12.0000000  12.0000000  14.0030740  12.0000000  12.0000000  12.0000000  12.0000000  12.0000000
 NucSpn=           0           0           0           0           2           0           0           0           0           0
 AtZEff=  -0.0000000  -0.0000000  -0.0000000  -0.0000000  -0.0000000  -0.0000000  -0.0000000  -0.0000000  -0.0000000  -0.0000000
 NQMom=    0.0000000   0.0000000   0.0000000   0.0000000   2.0440000   0.0000000   0.0000000   0.0000000   0.0000000   0.0000000
 NMagM=    0.0000000   0.0000000   0.0000000   0.0000000   0.4037610   0.0000000   0.0000000   0.0000000   0.0000000   0.0000000
 AtZNuc=   6.0000000   6.0000000   6.0000000   6.0000000   7.0000000   6.0000000   6.0000000   6.0000000   6.0000000   6.0000000

  Atom        91          92          93          94          95          96          97          98          99         100
 IAtWgt=          12          12           1          14          12          12          12          12          12          12
 AtmWgt=  12.0000000  12.0000000   1.0078250  14.0030740  12.0000000  12.0000000  12.0000000  12.0000000  12.0000000  12.0000000
 NucSpn=           0           0           1           2           0           0           0           0           0           0
 AtZEff=  -0.0000000  -0.0000000  -0.0000000  -0.0000000  -0.0000000  -0.0000000  -0.0000000  -0.0000000  -0.0000000  -0.0000000
 NQMom=    0.0000000   0.0000000   0.0000000   2.0440000   0.0000000   0.0000000   0.0000000   0.0000000   0.0000000   0.0000000
 NMagM=    0.0000000   0.0000000   2.7928460   0.4037610   0.0000000   0.0000000   0.0000000   0.0000000   0.0000000   0.0000000
 AtZNuc=   6.0000000   6.0000000   1.0000000   7.0000000   6.0000000   6.0000000   6.0000000   6.0000000   6.0000000   6.0000000

  Atom       101         102         103         104         105         106         107         108         109         110
 IAtWgt=          16          12          14          12          12          12          12          12          12          12
 AtmWgt=  15.9949146  12.0000000  14.0030740  12.0000000  12.0000000  12.0000000  12.0000000  12.0000000  12.0000000  12.0000000
 NucSpn=           0           0           2           0           0           0           0           0           0           0
 AtZEff=  -0.0000000  -0.0000000  -0.0000000  -0.0000000  -0.0000000  -0.0000000  -0.0000000  -0.0000000  -0.0000000  -0.0000000
 NQMom=    0.0000000   0.0000000   2.0440000   0.0000000   0.0000000   0.0000000   0.0000000   0.0000000   0.0000000   0.0000000
 NMagM=    0.0000000   0.0000000   0.4037610   0.0000000   0.0000000   0.0000000   0.0000000   0.0000000   0.0000000   0.0000000
 AtZNuc=   8.0000000   6.0000000   7.0000000   6.0000000   6.0000000   6.0000000   6.0000000   6.0000000   6.0000000   6.0000000

  Atom       111         112         113         114         115         116         117         118         119         120
 IAtWgt=          14          12          12          12          12          12          12          16          12          12
 AtmWgt=  14.0030740  12.0000000  12.0000000  12.0000000  12.0000000  12.0000000  12.0000000  15.9949146  12.0000000  12.0000000
 NucSpn=           2           0           0           0           0           0           0           0           0           0
 AtZEff=  -0.0000000  -0.0000000  -0.0000000  -0.0000000  -0.0000000  -0.0000000  -0.0000000  -0.0000000  -0.0000000  -0.0000000
 NQMom=    2.0440000   0.0000000   0.0000000   0.0000000   0.0000000   0.0000000   0.0000000   0.0000000   0.0000000   0.0000000
 NMagM=    0.4037610   0.0000000   0.0000000   0.0000000   0.0000000   0.0000000   0.0000000   0.0000000   0.0000000   0.0000000
 AtZNuc=   7.0000000   6.0000000   6.0000000   6.0000000   6.0000000   6.0000000   6.0000000   8.0000000   6.0000000   6.0000000

  Atom       121         122         123         124         125         126         127         128         129         130
 IAtWgt=          16          16          12           1           1           1           1           1           1           1
 AtmWgt=  15.9949146  15.9949146  12.0000000   1.0078250   1.0078250   1.0078250   1.0078250   1.0078250   1.0078250   1.0078250
 NucSpn=           0           0           0           1           1           1           1           1           1           1
 AtZEff=  -0.0000000  -0.0000000  -0.0000000  -0.0000000  -0.0000000  -0.0000000  -0.0000000  -0.0000000  -0.0000000  -0.0000000
 NQMom=    0.0000000   0.0000000   0.0000000   0.0000000   0.0000000   0.0000000   0.0000000   0.0000000   0.0000000   0.0000000
 NMagM=    0.0000000   0.0000000   0.0000000   2.7928460   2.7928460   2.7928460   2.7928460   2.7928460   2.7928460   2.7928460
 AtZNuc=   8.0000000   8.0000000   6.0000000   1.0000000   1.0000000   1.0000000   1.0000000   1.0000000   1.0000000   1.0000000

  Atom       131         132         133         134         135         136         137         138         139         140
 IAtWgt=           1           1           1           1           1           1           1           1           1           1
 AtmWgt=   1.0078250   1.0078250   1.0078250   1.0078250   1.0078250   1.0078250   1.0078250   1.0078250   1.0078250   1.0078250
 NucSpn=           1           1           1           1           1           1           1           1           1           1
 AtZEff=  -0.0000000  -0.0000000  -0.0000000  -0.0000000  -0.0000000  -0.0000000  -0.0000000  -0.0000000  -0.0000000  -0.0000000
 NQMom=    0.0000000   0.0000000   0.0000000   0.0000000   0.0000000   0.0000000   0.0000000   0.0000000   0.0000000   0.0000000
 NMagM=    2.7928460   2.7928460   2.7928460   2.7928460   2.7928460   2.7928460   2.7928460   2.7928460   2.7928460   2.7928460
 AtZNuc=   1.0000000   1.0000000   1.0000000   1.0000000   1.0000000   1.0000000   1.0000000   1.0000000   1.0000000   1.0000000

  Atom       141         142         143         144         145         146         147         148         149         150
 IAtWgt=           1           1           1           1           1           1           1           1           1           1
 AtmWgt=   1.0078250   1.0078250   1.0078250   1.0078250   1.0078250   1.0078250   1.0078250   1.0078250   1.0078250   1.0078250
 NucSpn=           1           1           1           1           1           1           1           1           1           1
 AtZEff=  -0.0000000  -0.0000000  -0.0000000  -0.0000000  -0.0000000  -0.0000000  -0.0000000  -0.0000000  -0.0000000  -0.0000000
 NQMom=    0.0000000   0.0000000   0.0000000   0.0000000   0.0000000   0.0000000   0.0000000   0.0000000   0.0000000   0.0000000
 NMagM=    2.7928460   2.7928460   2.7928460   2.7928460   2.7928460   2.7928460   2.7928460   2.7928460   2.7928460   2.7928460
 AtZNuc=   1.0000000   1.0000000   1.0000000   1.0000000   1.0000000   1.0000000   1.0000000   1.0000000   1.0000000   1.0000000

  Atom       151         152         153         154         155         156         157         158
 IAtWgt=           1           1           1           1           1           1           1           1
 AtmWgt=   1.0078250   1.0078250   1.0078250   1.0078250   1.0078250   1.0078250   1.0078250   1.0078250
 NucSpn=           1           1           1           1           1           1           1           1
 AtZEff=  -0.0000000  -0.0000000  -0.0000000  -0.0000000  -0.0000000  -0.0000000  -0.0000000  -0.0000000
 NQMom=    0.0000000   0.0000000   0.0000000   0.0000000   0.0000000   0.0000000   0.0000000   0.0000000
 NMagM=    2.7928460   2.7928460   2.7928460   2.7928460   2.7928460   2.7928460   2.7928460   2.7928460
 AtZNuc=   1.0000000   1.0000000   1.0000000   1.0000000   1.0000000   1.0000000   1.0000000   1.0000000
 Leave Link  101 at Sat Sep 11 05:01:08 2021, MaxMem= 23488102400 cpu:               3.4 elap:               0.2
 (Enter /sw/apps/gaussian-16.0/g16/l202.exe)
 Stoichiometry    C68H72Mg2N8O8
 Framework group  C1[X(C68H72Mg2N8O8)]
 Deg. of freedom   468
 Full point group                 C1      NOp   1
 Largest Abelian subgroup         C1      NOp   1
 Largest concise Abelian subgroup C1      NOp   1
                         Standard orientation:                         
 ---------------------------------------------------------------------
 Center     Atomic      Atomic             Coordinates (Angstroms)
 Number     Number       Type             X           Y           Z
 ---------------------------------------------------------------------
      1         12           0       -6.644743   -0.472302    0.040558
      2          6           0       -6.683942    3.105281    0.148171
      3          6           0       -7.479881   -0.233824   -3.259251
      4          6           0       -7.060858   -3.616085    0.030642
      5          6           0       -6.936017   -0.432836    3.513203
      6          7           0       -7.006278    1.270833   -1.275277
      7          6           0       -6.930655    2.589624   -1.126143
      8          6           0       -7.063381    3.371642   -2.467115
      9          6           0       -7.859471    2.282027   -3.316220
     10          6           0       -7.394636    1.027379   -2.598092
     11          6           0       -9.374756    2.392397   -3.181196
     12          6           0       -5.671478    3.692711   -3.108403
     13          6           0       -5.695290    4.726892   -4.237675
     14          1           0       -4.574987    5.646120   -4.369161
     15          7           0       -6.709742   -1.751315   -1.463686
     16          6           0       -7.055252   -1.477960   -2.744774
     17          6           0       -6.947634   -2.757677   -3.477866
     18          6           0       -6.695433   -3.833978   -2.479835
     19          6           0       -6.839858   -3.104593   -1.245932
     20          6           0       -7.033387   -2.861041   -4.969748
     21          6           0       -6.385446   -5.291173   -2.616302
     22          8           0       -6.431948   -6.092552   -1.621212
     23          6           0       -6.108578   -5.779049   -3.979520
     24          7           0       -7.174812   -1.839252    1.526528
     25          6           0       -7.227398   -3.150991    1.270480
     26          6           0       -7.347255   -3.949664    2.534480
     27          6           0       -7.120472   -2.918316    3.732246
     28          6           0       -6.983092   -1.618515    2.901634
     29          6           0       -8.679748   -4.683728    2.738498
     30          6           0       -6.007955   -3.261427    4.754499
     31          6           0       -4.653802   -3.179005    4.086237
     32          7           0       -6.609344    1.038574    1.598456
     33          6           0       -6.772112    0.833083    2.976118
     34          6           0       -6.781044    2.162815    3.613144
     35          6           0       -6.638554    3.056046    2.553106
     36          6           0       -6.572812    2.331489    1.328775
     37          6           0       -6.967304    2.421324    4.999836
     38          6           0       -6.551292    4.455207    2.167631
     39          8           0       -6.458516    5.519489    2.780973
     40          6           0       -6.699641    4.549080    0.584910
     41          6           0       -5.605474    5.448847    0.078426
     42          8           0       -4.408180    5.105172    0.154196
     43          8           0       -6.147258    6.455398   -0.624331
     44          6           0       -5.113702    7.369147   -1.180189
     45          1           0       -7.968740   -0.286802   -4.234008
     46          1           0       -7.099379   -4.706070    0.084358
     47          1           0       -6.938196   -0.345945    4.601273
     48          1           0       -7.645848    4.290799   -2.401491
     49          1           0       -7.538511    2.263544   -4.357549
     50          1           0       -9.654941    3.121260   -2.420818
     51          1           0       -9.715003    1.396300   -2.897442
     52          1           0       -9.835399    2.602611   -4.146802
     53          1           0       -5.321262    2.821540   -3.662001
     54          1           0       -4.958802    4.008196   -2.345587
     55          1           0       -6.640172    5.270577   -4.260368
     56          1           0       -5.665943    4.194923   -5.188647
     57          1           0       -7.387879   -1.932649   -5.415807
     58          1           0       -7.815353   -3.586188   -5.194247
     59          1           0       -6.092194   -3.186151   -5.413360
     60          1           0       -6.970935   -5.578409   -4.615627
     61          1           0       -5.820378   -6.824160   -3.872121
     62          1           0       -5.279589   -5.207265   -4.397599
     63          1           0       -6.583493   -4.724851    2.581152
     64          1           0       -8.015279   -2.798103    4.343428
     65          1           0       -8.570055   -5.759298    2.879286
     66          1           0       -9.319582   -4.464392    1.884217
     67          1           0       -9.285272   -4.310857    3.564164
     68          1           0       -6.126115   -4.282724    5.114965
     69          1           0       -6.002699   -2.601917    5.622410
     70          1           0       -4.557340   -4.154311    3.610521
     71          1           0       -3.870950   -3.028426    4.830333
     72          1           0       -4.645085   -2.428511    3.295561
     73          1           0       -6.235495    3.182833    5.269146
     74          1           0       -6.834072    1.516669    5.592668
     75          1           0       -7.998426    2.774363    5.002711
     76          1           0       -7.690118    4.957422    0.386580
     77          1           0       -5.351203    8.373569   -0.829526
     78          1           0       -5.097222    7.199853   -2.256977
     79          1           0       -4.102866    7.248294   -0.789108
     80         12           0        6.578985   -1.079248    0.155115
     81          6           0        7.187612    2.455008    0.288041
     82          6           0        6.368507   -0.764395   -3.234750
     83          6           0        5.597925   -4.094315    0.035536
     84          6           0        5.711631   -0.916174    3.526586
     85          7           0        6.771946    0.671219   -1.183131
     86          6           0        7.064807    1.953164   -1.024402
     87          6           0        7.314904    2.724475   -2.348072
     88          6           0        6.478058    1.778184   -3.339585
     89          6           0        6.569896    0.467054   -2.561647
     90          6           0        5.013081    2.167050   -3.448980
     91          6           0        8.834101    2.764821   -2.738463
     92          6           0        9.186925    3.758497   -3.847466
     93          1           0       10.470865    4.450804   -3.779097
     94          7           0        6.537588   -2.357071   -1.362781
     95          6           0        6.474884   -2.057506   -2.677169
     96          6           0        6.447470   -3.347907   -3.383042
     97          6           0        6.332813   -4.433515   -2.371601
     98          6           0        6.126196   -3.652280   -1.168656
     99          6           0        6.606578   -3.464929   -4.871140
    100          6           0        6.385897   -5.927914   -2.472455
    101          8           0        6.025030   -6.681617   -1.500585
    102          6           0        6.783927   -6.483408   -3.774177
    103          7           0        5.570589   -2.288739    1.512535
    104          6           0        5.313471   -3.578230    1.231392
    105          6           0        4.830307   -4.317717    2.456173
    106          6           0        5.047720   -3.310890    3.679535
    107          6           0        5.558309   -2.076758    2.903911
    108          6           0        3.371690   -4.773661    2.425682
    109          6           0        5.888324   -3.830568    4.877862
    110          6           0        7.325951   -4.026564    4.453361
    111          7           0        6.635879    0.425216    1.704767
    112          6           0        6.200466    0.290014    3.041259
    113          6           0        6.333268    1.616088    3.678683
    114          6           0        6.818881    2.442634    2.654230
    115          6           0        6.958402    1.689761    1.457058
    116          6           0        5.977099    1.933921    5.019669
    117          6           0        7.235121    3.783273    2.310535
    118          8           0        7.412404    4.825869    2.939258
    119          6           0        7.372532    3.880182    0.729994
    120          6           0        8.684736    4.545890    0.417787
    121          8           0        9.759545    3.989864    0.704520
    122          8           0        8.459450    5.621444   -0.358624
    123          6           0        9.732112    6.308994   -0.704222
    124          1           0        6.058241   -0.739804   -4.279742
    125          1           0        5.347238   -5.156747    0.078762
    126          1           0        5.554553   -0.805265    4.601619
    127          1           0        6.915398    3.731301   -2.369579
    128          1           0        6.969514    1.684270   -4.304474
    129          1           0        4.749502    2.945562   -2.748560
    130          1           0        4.452913    1.264960   -3.240425
    131          1           0        4.771556    2.440160   -4.480205
    132          1           0        9.100735    1.824143   -3.237238
    133          1           0        9.444090    2.953679   -1.876563
    134          1           0        8.375234    4.471793   -4.035359
    135          1           0        9.284201    3.209516   -4.787246
    136          1           0        6.505905   -2.490234   -5.364328
    137          1           0        5.753459   -4.045031   -5.239290
    138          1           0        7.529669   -3.973490   -5.157350
    139          1           0        6.095723   -6.135604   -4.540894
    140          1           0        6.849750   -7.562693   -3.623529
    141          1           0        7.772043   -6.088604   -4.035648
    142          1           0        5.419721   -5.210269    2.626613
    143          1           0        4.093167   -3.018902    4.141513
    144          1           0        3.251988   -5.863759    2.572075
    145          1           0        2.937716   -4.466612    1.483386
    146          1           0        2.720410   -4.286750    3.149534
    147          1           0        5.523744   -4.809005    5.200187
    148          1           0        5.859446   -3.175415    5.742117
    149          1           0        7.312650   -5.015870    3.986251
    150          1           0        7.986671   -4.007051    5.317727
    151          1           0        7.610878   -3.301650    3.682022
    152          1           0        6.773675    2.549587    5.415796
    153          1           0        5.833612    1.035593    5.616487
    154          1           0        5.038635    2.468710    4.850690
    155          1           0        6.523101    4.456952    0.362054
    156          1           0        9.627467    7.351931   -0.389552
    157          1           0        9.889430    6.121713   -1.783079
    158          1           0       10.624037    6.013615   -0.164159
 ---------------------------------------------------------------------
 Rotational constants (GHZ):           0.0206460           0.0080104           0.0072294
 Leave Link  202 at Sat Sep 11 05:01:08 2021, MaxMem= 23488102400 cpu:               0.2 elap:               0.0
 (Enter /sw/apps/gaussian-16.0/g16/l301.exe)
 Standard basis: def2SVP (5D, 7F)
 Ernie: Thresh=  0.10000D-02 Tol=  0.10000D-05 Strict=F.
 There are  1658 symmetry adapted cartesian basis functions of A   symmetry.
 There are  1572 symmetry adapted basis functions of A   symmetry.
  1572 basis functions,  2678 primitive gaussians,  1658 cartesian basis functions
   312 alpha electrons      312 beta electrons
       nuclear repulsion energy     14227.1684518592 Hartrees.
 IExCor=20419 DFT=T Ex+Corr=CAM-B3LYP ExCW=0 ScaHFX=  1.000000
 ScaDFX=  1.000000  1.000000  1.000000  0.810000 ScalE2=  1.000000  1.000000
 IRadAn=      5 IRanWt=     -1 IRanGd=            0 ICorTp=0 IEmpDi=  4
 HFx  wShort=  0.000000 wLong=  0.330000 cFull=  0.190000 cShort=  0.000000 cLong=  0.460000
 DFx  wShort=  0.000000 wLong=  0.330000 cFull=  0.190000 cShort=  0.000000 cLong=  0.460000
 NAtoms=  158 NActive=  158 NUniq=  158 SFac= 1.00D+00 NAtFMM=   60 NAOKFM=T Big=T
 Integral buffers will be    131072 words long.
 Raffenetti 1 integral format.
 Two-electron integral symmetry is turned on.
 Leave Link  301 at Sat Sep 11 05:01:08 2021, MaxMem= 23488102400 cpu:               1.4 elap:               0.1
 (Enter /sw/apps/gaussian-16.0/g16/l302.exe)
 NPDir=0 NMtPBC=     1 NCelOv=     1 NCel=       1 NClECP=     1 NCelD=      1
         NCelK=      1 NCelE2=     1 NClLst=     1 CellRange=     0.0.
 One-electron integrals computed using PRISM.
 One-electron integral symmetry used in STVInt
   1 Symmetry operations used in ECPInt.
 ECPInt:  NShTT=  271216 NPrTT=  987664 LenC2=  116216 LenP2D=  254896.
 LDataN:  DoStor=T MaxTD1= 4 Len=   56
 NBasis=  1572 RedAO= T EigKep=  3.36D-04  NBF=  1572
 NBsUse=  1572 1.00D-06 EigRej= -1.00D+00 NBFU=  1572
 Precomputing XC quadrature grid using
 IXCGrd= 4 IRadAn=           5 IRanWt=          -1 IRanGd=           0 AccXCQ= 0.00D+00.
 Generated NRdTot=       0 NPtTot=           0 NUsed=           0 NTot=          32
 NSgBfM=   963   936   940   950   963 MxSgAt=   158 MxSgA2=   151.
 Leave Link  302 at Sat Sep 11 05:01:13 2021, MaxMem= 23488102400 cpu:             115.5 elap:               4.8
 (Enter /sw/apps/gaussian-16.0/g16/l303.exe)
 DipDrv:  MaxL=1.
 Leave Link  303 at Sat Sep 11 05:01:13 2021, MaxMem= 23488102400 cpu:               9.8 elap:               0.5
 (Enter /sw/apps/gaussian-16.0/g16/l308.exe)
 Leave Link  308 at Sat Sep 11 05:01:14 2021, MaxMem= 23488102400 cpu:              14.8 elap:               0.7
 (Enter /sw/apps/gaussian-16.0/g16/l401.exe)
 ExpMin= 3.36D-02 ExpMax= 4.95D+03 ExpMxC= 7.45D+02 IAcc=3 IRadAn=         5 AccDes= 0.00D+00
 Harris functional with IExCor=20419 and IRadAn=       5 diagonalized for initial guess.
 HarFok:  IExCor=20419 AccDes= 0.00D+00 IRadAn=         5 IDoV= 1 UseB2=F ITyADJ=14
 ICtDFT=  3500011 ScaDFX=  1.000000  1.000000  1.000000  1.000000
 FoFCou: FMM=F IPFlag=           0 FMFlag=      100000 FMFlg1=        2001
         NFxFlg=           0 DoJE=T BraDBF=F KetDBF=T FulRan=T
         wScrn=  0.000000 ICntrl=       500 IOpCl=  0 I1Cent=   200000004 NGrid=           0
         NMat0=    1 NMatS0=      1 NMatT0=    0 NMatD0=    1 NMtDS0=    0 NMtDT0=    0
 Petite list used in FoFCou.
 Harris En= -3918.65801651610    
 JPrj=0 DoOrth=F DoCkMO=F.
 Leave Link  401 at Sat Sep 11 05:01:21 2021, MaxMem= 23488102400 cpu:             167.4 elap:               7.0
 (Enter /sw/apps/gaussian-16.0/g16/l502.exe)
 Integral symmetry usage will be decided dynamically.
 Closed shell SCF:
 Using DIIS extrapolation, IDIIS=  1040.
 NGot= 23488102400 LenX= 23482547354 LenY= 23479796732
 Requested convergence on RMS density matrix=1.00D-08 within 128 cycles.
 Requested convergence on MAX density matrix=1.00D-06.
 Requested convergence on             energy=1.00D-06.
 No special actions if energy rises.
 Fock matrices will be formed incrementally for  20 cycles.

 Cycle   1  Pass 1  IDiag  1:
 FoFJK:  IHMeth= 1 ICntrl=       0 DoSepK=T KAlg= 0 I1Cent=           0 FoldK=F
 IRaf=         1 NMat=       1 IRICut=       1 DoRegI=T DoRafI=F ISym2E= 0 IDoP0=0 IntGTp=1.
 FoFCou: FMM=T IPFlag=           0 FMFlag=      100000 FMFlg1=        2001
         NFxFlg=           0 DoJE=T BraDBF=F KetDBF=F FulRan=T
         wScrn=  0.000000 ICntrl=       500 IOpCl=  0 I1Cent=           0 NGrid=           0
         NMat0=    1 NMatS0=      1 NMatT0=    0 NMatD0=    1 NMtDS0=    0 NMtDT0=    0
 Symmetry not used in FoFCou.
 FMM levels:  10  Number of levels for PrismC:   9
 E= -4068.94877589191    
 DIIS: error= 2.04D-02 at cycle   1 NSaved=   1.
 NSaved= 1 IEnMin= 1 EnMin= -4068.94877589191     IErMin= 1 ErrMin= 2.04D-02
 ErrMax= 2.04D-02  0.00D+00 EMaxC= 1.00D-01 BMatC= 1.69D+00 BMatP= 1.69D+00
 IDIUse=3 WtCom= 7.96D-01 WtEn= 2.04D-01
 Coeff-Com:  0.100D+01
 Coeff-En:   0.100D+01
 Coeff:      0.100D+01
 Gap=     0.120 Goal=   None    Shift=    0.000
 GapD=    0.120 DampG=1.000 DampE=0.500 DampFc=0.5000 IDamp=-1.
 Damping current iteration by 5.00D-01
 RMSDP=1.57D-03 MaxDP=1.35D-01              OVMax= 2.05D-01

 Cycle   2  Pass 1  IDiag  1:
 RMSU=  7.70D-04    CP:  9.82D-01
 E= -4069.33753791984     Delta-E=       -0.388762027935 Rises=F Damp=T
 DIIS: error= 1.27D-02 at cycle   2 NSaved=   2.
 NSaved= 2 IEnMin= 2 EnMin= -4069.33753791984     IErMin= 2 ErrMin= 1.27D-02
 ErrMax= 1.27D-02  0.00D+00 EMaxC= 1.00D-01 BMatC= 3.07D-01 BMatP= 1.69D+00
 IDIUse=3 WtCom= 8.73D-01 WtEn= 1.27D-01
 Coeff-Com: -0.213D+00 0.121D+01
 Coeff-En:   0.000D+00 0.100D+01
 Coeff:     -0.186D+00 0.119D+01
 Gap=     0.136 Goal=   None    Shift=    0.000
 RMSDP=7.66D-04 MaxDP=9.44D-02 DE=-3.89D-01 OVMax= 1.91D-01

 Cycle   3  Pass 1  IDiag  1:
 RMSU=  7.34D-04    CP:  9.68D-01  1.24D+00
 E= -4069.62610794854     Delta-E=       -0.288570028701 Rises=F Damp=F
 DIIS: error= 1.57D-02 at cycle   3 NSaved=   3.
 NSaved= 3 IEnMin= 3 EnMin= -4069.62610794854     IErMin= 2 ErrMin= 1.27D-02
 ErrMax= 1.57D-02  0.00D+00 EMaxC= 1.00D-01 BMatC= 2.03D-01 BMatP= 3.07D-01
 IDIUse=3 WtCom= 8.43D-01 WtEn= 1.57D-01
 Coeff-Com: -0.267D+00 0.652D+00 0.615D+00
 Coeff-En:   0.000D+00 0.000D+00 0.100D+01
 Coeff:     -0.225D+00 0.550D+00 0.676D+00
 Gap=     0.123 Goal=   None    Shift=    0.000
 RMSDP=5.12D-04 MaxDP=4.90D-02 DE=-2.89D-01 OVMax= 1.47D-01

 Cycle   4  Pass 1  IDiag  1:
 RMSU=  2.67D-04    CP:  9.65D-01  1.55D+00  5.03D-01
 E= -4069.76393215722     Delta-E=       -0.137824208679 Rises=F Damp=F
 DIIS: error= 7.24D-03 at cycle   4 NSaved=   4.
 NSaved= 4 IEnMin= 4 EnMin= -4069.76393215722     IErMin= 4 ErrMin= 7.24D-03
 ErrMax= 7.24D-03  0.00D+00 EMaxC= 1.00D-01 BMatC= 5.09D-02 BMatP= 2.03D-01
 IDIUse=3 WtCom= 9.28D-01 WtEn= 7.24D-02
 Coeff-Com: -0.109D+00 0.227D+00 0.409D+00 0.473D+00
 Coeff-En:   0.000D+00 0.000D+00 0.223D+00 0.777D+00
 Coeff:     -0.101D+00 0.210D+00 0.396D+00 0.495D+00
 Gap=     0.122 Goal=   None    Shift=    0.000
 RMSDP=2.03D-04 MaxDP=1.96D-02 DE=-1.38D-01 OVMax= 6.52D-02

 Cycle   5  Pass 1  IDiag  1:
 RMSU=  7.74D-05    CP:  9.64D-01  1.49D+00  6.88D-01  5.45D-01
 E= -4069.81026786532     Delta-E=       -0.046335708095 Rises=F Damp=F
 DIIS: error= 7.54D-04 at cycle   5 NSaved=   5.
 NSaved= 5 IEnMin= 5 EnMin= -4069.81026786532     IErMin= 5 ErrMin= 7.54D-04
 ErrMax= 7.54D-04  0.00D+00 EMaxC= 1.00D-01 BMatC= 1.24D-03 BMatP= 5.09D-02
 IDIUse=3 WtCom= 9.92D-01 WtEn= 7.54D-03
 Coeff-Com: -0.368D-01 0.724D-01 0.169D+00 0.252D+00 0.543D+00
 Coeff-En:   0.000D+00 0.000D+00 0.000D+00 0.000D+00 0.100D+01
 Coeff:     -0.366D-01 0.719D-01 0.168D+00 0.251D+00 0.547D+00
 Gap=     0.121 Goal=   None    Shift=    0.000
 RMSDP=4.29D-05 MaxDP=4.15D-03 DE=-4.63D-02 OVMax= 1.79D-02

 Cycle   6  Pass 1  IDiag  1:
 RMSU=  3.14D-05    CP:  9.64D-01  1.49D+00  6.80D-01  6.20D-01  7.41D-01
 E= -4069.81136774841     Delta-E=       -0.001099883088 Rises=F Damp=F
 DIIS: error= 1.96D-04 at cycle   6 NSaved=   6.
 NSaved= 6 IEnMin= 6 EnMin= -4069.81136774841     IErMin= 6 ErrMin= 1.96D-04
 ErrMax= 1.96D-04  0.00D+00 EMaxC= 1.00D-01 BMatC= 1.90D-04 BMatP= 1.24D-03
 IDIUse=3 WtCom= 9.98D-01 WtEn= 1.96D-03
 Coeff-Com:  0.206D-02-0.631D-02 0.122D-01 0.415D-01 0.307D+00 0.644D+00
 Coeff-En:   0.000D+00 0.000D+00 0.000D+00 0.000D+00 0.114D+00 0.886D+00
 Coeff:      0.205D-02-0.630D-02 0.121D-01 0.414D-01 0.306D+00 0.644D+00
 Gap=     0.122 Goal=   None    Shift=    0.000
 RMSDP=1.68D-05 MaxDP=1.16D-03 DE=-1.10D-03 OVMax= 7.69D-03

 Cycle   7  Pass 1  IDiag  1:
 RMSU=  1.11D-05    CP:  9.64D-01  1.49D+00  6.86D-01  6.19D-01  8.49D-01
                    CP:  7.40D-01
 E= -4069.81157647250     Delta-E=       -0.000208724090 Rises=F Damp=F
 DIIS: error= 8.84D-05 at cycle   7 NSaved=   7.
 NSaved= 7 IEnMin= 7 EnMin= -4069.81157647250     IErMin= 7 ErrMin= 8.84D-05
 ErrMax= 8.84D-05  0.00D+00 EMaxC= 1.00D-01 BMatC= 2.37D-05 BMatP= 1.90D-04
 IDIUse=1 WtCom= 1.00D+00 WtEn= 0.00D+00
 Coeff-Com:  0.453D-02-0.994D-02-0.886D-02-0.325D-02 0.106D+00 0.336D+00
 Coeff-Com:  0.575D+00
 Coeff:      0.453D-02-0.994D-02-0.886D-02-0.325D-02 0.106D+00 0.336D+00
 Coeff:      0.575D+00
 Gap=     0.122 Goal=   None    Shift=    0.000
 RMSDP=6.69D-06 MaxDP=1.06D-03 DE=-2.09D-04 OVMax= 3.38D-03

 Cycle   8  Pass 1  IDiag  1:
 RMSU=  4.77D-06    CP:  9.64D-01  1.50D+00  6.86D-01  6.24D-01  8.51D-01
                    CP:  8.64D-01  8.13D-01
 E= -4069.81160570844     Delta-E=       -0.000029235940 Rises=F Damp=F
 DIIS: error= 5.35D-05 at cycle   8 NSaved=   8.
 NSaved= 8 IEnMin= 8 EnMin= -4069.81160570844     IErMin= 8 ErrMin= 5.35D-05
 ErrMax= 5.35D-05  0.00D+00 EMaxC= 1.00D-01 BMatC= 4.95D-06 BMatP= 2.37D-05
 IDIUse=1 WtCom= 1.00D+00 WtEn= 0.00D+00
 Coeff-Com:  0.220D-02-0.436D-02-0.783D-02-0.121D-01-0.990D-02 0.336D-01
 Coeff-Com:  0.330D+00 0.669D+00
 Coeff:      0.220D-02-0.436D-02-0.783D-02-0.121D-01-0.990D-02 0.336D-01
 Coeff:      0.330D+00 0.669D+00
 Gap=     0.122 Goal=   None    Shift=    0.000
 RMSDP=3.35D-06 MaxDP=3.71D-04 DE=-2.92D-05 OVMax= 1.06D-03

 Cycle   9  Pass 1  IDiag  1:
 RMSU=  1.95D-06    CP:  9.64D-01  1.50D+00  6.87D-01  6.25D-01  8.68D-01
                    CP:  8.91D-01  1.01D+00  9.58D-01
 E= -4069.81161365460     Delta-E=       -0.000007946161 Rises=F Damp=F
 DIIS: error= 2.03D-05 at cycle   9 NSaved=   9.
 NSaved= 9 IEnMin= 9 EnMin= -4069.81161365460     IErMin= 9 ErrMin= 2.03D-05
 ErrMax= 2.03D-05  0.00D+00 EMaxC= 1.00D-01 BMatC= 7.36D-07 BMatP= 4.95D-06
 IDIUse=1 WtCom= 1.00D+00 WtEn= 0.00D+00
 Coeff-Com:  0.479D-03-0.799D-03-0.272D-02-0.607D-02-0.207D-01-0.397D-01
 Coeff-Com:  0.985D-01 0.333D+00 0.638D+00
 Coeff:      0.479D-03-0.799D-03-0.272D-02-0.607D-02-0.207D-01-0.397D-01
 Coeff:      0.985D-01 0.333D+00 0.638D+00
 Gap=     0.122 Goal=   None    Shift=    0.000
 RMSDP=1.44D-06 MaxDP=1.43D-04 DE=-7.95D-06 OVMax= 7.62D-04

 Cycle  10  Pass 1  IDiag  1:
 RMSU=  9.56D-07    CP:  9.64D-01  1.50D+00  6.87D-01  6.26D-01  8.71D-01
                    CP:  9.03D-01  1.05D+00  1.12D+00  1.06D+00
 E= -4069.81161532385     Delta-E=       -0.000001669250 Rises=F Damp=F
 DIIS: error= 1.05D-05 at cycle  10 NSaved=  10.
 NSaved=10 IEnMin=10 EnMin= -4069.81161532385     IErMin=10 ErrMin= 1.05D-05
 ErrMax= 1.05D-05  0.00D+00 EMaxC= 1.00D-01 BMatC= 1.76D-07 BMatP= 7.36D-07
 IDIUse=1 WtCom= 1.00D+00 WtEn= 0.00D+00
 Coeff-Com: -0.426D-03 0.895D-03 0.122D-02 0.107D-02-0.374D-02-0.313D-01
 Coeff-Com: -0.441D-01-0.735D-01 0.244D+00 0.906D+00
 Coeff:     -0.426D-03 0.895D-03 0.122D-02 0.107D-02-0.374D-02-0.313D-01
 Coeff:     -0.441D-01-0.735D-01 0.244D+00 0.906D+00
 Gap=     0.122 Goal=   None    Shift=    0.000
 RMSDP=1.24D-06 MaxDP=1.23D-04 DE=-1.67D-06 OVMax= 6.36D-04

 Cycle  11  Pass 1  IDiag  1:
 RMSU=  5.35D-07    CP:  9.64D-01  1.50D+00  6.87D-01  6.26D-01  8.74D-01
                    CP:  9.13D-01  1.10D+00  1.23D+00  1.40D+00  1.37D+00
 E= -4069.81161613858     Delta-E=       -0.000000814733 Rises=F Damp=F
 DIIS: error= 4.16D-06 at cycle  11 NSaved=  11.
 NSaved=11 IEnMin=11 EnMin= -4069.81161613858     IErMin=11 ErrMin= 4.16D-06
 ErrMax= 4.16D-06  0.00D+00 EMaxC= 1.00D-01 BMatC= 6.79D-08 BMatP= 1.76D-07
 IDIUse=1 WtCom= 1.00D+00 WtEn= 0.00D+00
 Coeff-Com: -0.337D-03 0.657D-03 0.135D-02 0.213D-02 0.436D-02-0.878D-02
 Coeff-Com: -0.419D-01-0.133D+00-0.314D-01 0.484D+00 0.723D+00
 Coeff:     -0.337D-03 0.657D-03 0.135D-02 0.213D-02 0.436D-02-0.878D-02
 Coeff:     -0.419D-01-0.133D+00-0.314D-01 0.484D+00 0.723D+00
 Gap=     0.122 Goal=   None    Shift=    0.000
 RMSDP=7.05D-07 MaxDP=6.44D-05 DE=-8.15D-07 OVMax= 3.94D-04

 Cycle  12  Pass 1  IDiag  1:
 RMSU=  2.72D-07    CP:  9.64D-01  1.50D+00  6.87D-01  6.26D-01  8.75D-01
                    CP:  9.16D-01  1.12D+00  1.30D+00  1.56D+00  1.76D+00
                    CP:  1.18D+00
 E= -4069.81161641633     Delta-E=       -0.000000277749 Rises=F Damp=F
 DIIS: error= 2.62D-06 at cycle  12 NSaved=  12.
 NSaved=12 IEnMin=12 EnMin= -4069.81161641633     IErMin=12 ErrMin= 2.62D-06
 ErrMax= 2.62D-06  0.00D+00 EMaxC= 1.00D-01 BMatC= 1.65D-08 BMatP= 6.79D-08
 IDIUse=1 WtCom= 1.00D+00 WtEn= 0.00D+00
 Coeff-Com: -0.127D-04 0.804D-05 0.230D-03 0.584D-03 0.349D-02 0.366D-02
 Coeff-Com:  0.146D-02-0.382D-01-0.720D-01-0.516D-01 0.262D+00 0.891D+00
 Coeff:     -0.127D-04 0.804D-05 0.230D-03 0.584D-03 0.349D-02 0.366D-02
 Coeff:      0.146D-02-0.382D-01-0.720D-01-0.516D-01 0.262D+00 0.891D+00
 Gap=     0.122 Goal=   None    Shift=    0.000
 RMSDP=4.40D-07 MaxDP=3.26D-05 DE=-2.78D-07 OVMax= 2.56D-04

 Cycle  13  Pass 1  IDiag  1:
 RMSU=  1.70D-07    CP:  9.64D-01  1.50D+00  6.87D-01  6.26D-01  8.75D-01
                    CP:  9.16D-01  1.13D+00  1.33D+00  1.67D+00  1.98D+00
                    CP:  1.59D+00  1.24D+00
 E= -4069.81161651232     Delta-E=       -0.000000095988 Rises=F Damp=F
 DIIS: error= 1.31D-06 at cycle  13 NSaved=  13.
 NSaved=13 IEnMin=13 EnMin= -4069.81161651232     IErMin=13 ErrMin= 1.31D-06
 ErrMax= 1.31D-06  0.00D+00 EMaxC= 1.00D-01 BMatC= 8.89D-09 BMatP= 1.65D-08
 IDIUse=1 WtCom= 1.00D+00 WtEn= 0.00D+00
 Coeff-Com:  0.120D-03-0.245D-03-0.364D-03-0.443D-03 0.697D-03 0.501D-02
 Coeff-Com:  0.189D-01 0.228D-01-0.337D-01-0.239D+00-0.158D+00 0.584D+00
 Coeff-Com:  0.800D+00
 Coeff:      0.120D-03-0.245D-03-0.364D-03-0.443D-03 0.697D-03 0.501D-02
 Coeff:      0.189D-01 0.228D-01-0.337D-01-0.239D+00-0.158D+00 0.584D+00
 Coeff:      0.800D+00
 Gap=     0.122 Goal=   None    Shift=    0.000
 RMSDP=3.56D-07 MaxDP=2.36D-05 DE=-9.60D-08 OVMax= 2.16D-04

 Cycle  14  Pass 1  IDiag  1:
 RMSU=  7.85D-08    CP:  9.64D-01  1.50D+00  6.87D-01  6.26D-01  8.75D-01
                    CP:  9.17D-01  1.13D+00  1.35D+00  1.75D+00  2.18D+00
                    CP:  1.85D+00  1.76D+00  1.11D+00
 E= -4069.81161655203     Delta-E=       -0.000000039716 Rises=F Damp=F
 DIIS: error= 7.37D-07 at cycle  14 NSaved=  14.
 NSaved=14 IEnMin=14 EnMin= -4069.81161655203     IErMin=14 ErrMin= 7.37D-07
 ErrMax= 7.37D-07  0.00D+00 EMaxC= 1.00D-01 BMatC= 1.37D-09 BMatP= 8.89D-09
 IDIUse=1 WtCom= 1.00D+00 WtEn= 0.00D+00
 Coeff-Com:  0.686D-04-0.135D-03-0.253D-03-0.394D-03-0.449D-03 0.129D-02
 Coeff-Com:  0.105D-01 0.199D-01 0.424D-02-0.102D+00-0.145D+00 0.855D-01
 Coeff-Com:  0.410D+00 0.718D+00
 Coeff:      0.686D-04-0.135D-03-0.253D-03-0.394D-03-0.449D-03 0.129D-02
 Coeff:      0.105D-01 0.199D-01 0.424D-02-0.102D+00-0.145D+00 0.855D-01
 Coeff:      0.410D+00 0.718D+00
 Gap=     0.122 Goal=   None    Shift=    0.000
 RMSDP=1.09D-07 MaxDP=7.66D-06 DE=-3.97D-08 OVMax= 6.03D-05

 Cycle  15  Pass 1  IDiag  1:
 RMSU=  3.90D-08    CP:  9.64D-01  1.50D+00  6.87D-01  6.26D-01  8.75D-01
                    CP:  9.16D-01  1.14D+00  1.36D+00  1.76D+00  2.22D+00
                    CP:  1.96D+00  1.90D+00  1.35D+00  1.04D+00
 E= -4069.81161655629     Delta-E=       -0.000000004260 Rises=F Damp=F
 DIIS: error= 3.37D-07 at cycle  15 NSaved=  15.
 NSaved=15 IEnMin=15 EnMin= -4069.81161655629     IErMin=15 ErrMin= 3.37D-07
 ErrMax= 3.37D-07  0.00D+00 EMaxC= 1.00D-01 BMatC= 2.29D-10 BMatP= 1.37D-09
 IDIUse=1 WtCom= 1.00D+00 WtEn= 0.00D+00
 Coeff-Com:  0.649D-05-0.111D-04-0.368D-04-0.877D-04-0.298D-03-0.507D-03
 Coeff-Com:  0.122D-02 0.290D-02 0.876D-02 0.105D-03-0.310D-01-0.720D-01
 Coeff-Com:  0.350D-01 0.294D+00 0.762D+00
 Coeff:      0.649D-05-0.111D-04-0.368D-04-0.877D-04-0.298D-03-0.507D-03
 Coeff:      0.122D-02 0.290D-02 0.876D-02 0.105D-03-0.310D-01-0.720D-01
 Coeff:      0.350D-01 0.294D+00 0.762D+00
 Gap=     0.122 Goal=   None    Shift=    0.000
 RMSDP=3.94D-08 MaxDP=3.03D-06 DE=-4.26D-09 OVMax= 2.86D-05

 Cycle  16  Pass 1  IDiag  1:
 RMSU=  1.90D-08    CP:  9.64D-01  1.50D+00  6.87D-01  6.26D-01  8.75D-01
                    CP:  9.16D-01  1.14D+00  1.36D+00  1.77D+00  2.24D+00
                    CP:  1.98D+00  1.96D+00  1.42D+00  1.24D+00  1.14D+00
 E= -4069.81161655738     Delta-E=       -0.000000001088 Rises=F Damp=F
 DIIS: error= 1.91D-07 at cycle  16 NSaved=  16.
 NSaved=16 IEnMin=16 EnMin= -4069.81161655738     IErMin=16 ErrMin= 1.91D-07
 ErrMax= 1.91D-07  0.00D+00 EMaxC= 1.00D-01 BMatC= 8.91D-11 BMatP= 2.29D-10
 IDIUse=1 WtCom= 1.00D+00 WtEn= 0.00D+00
 Coeff-Com: -0.140D-04 0.283D-04 0.456D-04 0.508D-04-0.359D-04-0.631D-03
 Coeff-Com: -0.184D-02-0.415D-02 0.429D-02 0.250D-01 0.208D-01-0.635D-01
 Coeff-Com: -0.794D-01-0.407D-01 0.402D+00 0.738D+00
 Coeff:     -0.140D-04 0.283D-04 0.456D-04 0.508D-04-0.359D-04-0.631D-03
 Coeff:     -0.184D-02-0.415D-02 0.429D-02 0.250D-01 0.208D-01-0.635D-01
 Coeff:     -0.794D-01-0.407D-01 0.402D+00 0.738D+00
 Gap=     0.122 Goal=   None    Shift=    0.000
 RMSDP=2.36D-08 MaxDP=1.61D-06 DE=-1.09D-09 OVMax= 1.28D-05

 Cycle  17  Pass 1  IDiag  1:
 RMSU=  1.06D-08    CP:  9.64D-01  1.50D+00  6.87D-01  6.26D-01  8.75D-01
                    CP:  9.16D-01  1.14D+00  1.36D+00  1.77D+00  2.24D+00
                    CP:  2.00D+00  1.98D+00  1.47D+00  1.34D+00  1.44D+00
                    CP:  1.23D+00
 E= -4069.81161655773     Delta-E=       -0.000000000346 Rises=F Damp=F
 DIIS: error= 9.28D-08 at cycle  17 NSaved=  17.
 NSaved=17 IEnMin=17 EnMin= -4069.81161655773     IErMin=17 ErrMin= 9.28D-08
 ErrMax= 9.28D-08  0.00D+00 EMaxC= 1.00D-01 BMatC= 1.84D-11 BMatP= 8.91D-11
 IDIUse=1 WtCom= 1.00D+00 WtEn= 0.00D+00
 Coeff-Com: -0.746D-05 0.145D-04 0.292D-04 0.428D-04 0.799D-04-0.135D-03
 Coeff-Com: -0.924D-03-0.285D-02 0.612D-04 0.965D-02 0.177D-01-0.800D-02
 Coeff-Com: -0.357D-01-0.101D+00-0.207D-01 0.287D+00 0.855D+00
 Coeff:     -0.746D-05 0.145D-04 0.292D-04 0.428D-04 0.799D-04-0.135D-03
 Coeff:     -0.924D-03-0.285D-02 0.612D-04 0.965D-02 0.177D-01-0.800D-02
 Coeff:     -0.357D-01-0.101D+00-0.207D-01 0.287D+00 0.855D+00
 Gap=     0.122 Goal=   None    Shift=    0.000
 RMSDP=1.36D-08 MaxDP=1.07D-06 DE=-3.46D-10 OVMax= 9.73D-06

 Cycle  18  Pass 1  IDiag  1:
 RMSU=  5.19D-09    CP:  9.64D-01  1.50D+00  6.87D-01  6.26D-01  8.75D-01
                    CP:  9.16D-01  1.14D+00  1.36D+00  1.77D+00  2.24D+00
                    CP:  2.00D+00  1.99D+00  1.49D+00  1.40D+00  1.60D+00
                    CP:  1.63D+00  1.37D+00
 E= -4069.81161655768     Delta-E=        0.000000000044 Rises=F Damp=F
 DIIS: error= 6.71D-08 at cycle  18 NSaved=  18.
 NSaved=18 IEnMin=17 EnMin= -4069.81161655773     IErMin=18 ErrMin= 6.71D-08
 ErrMax= 6.71D-08  0.00D+00 EMaxC= 1.00D-01 BMatC= 8.00D-12 BMatP= 1.84D-11
 IDIUse=1 WtCom= 1.00D+00 WtEn= 0.00D+00
 Coeff-Com:  0.127D-05-0.287D-05-0.168D-05 0.232D-05 0.635D-04 0.160D-03
 Coeff-Com:  0.288D-03-0.171D-04-0.121D-02-0.492D-02 0.116D-02 0.175D-01
 Coeff-Com:  0.146D-01-0.376D-01-0.153D+00-0.167D+00 0.401D+00 0.928D+00
 Coeff:      0.127D-05-0.287D-05-0.168D-05 0.232D-05 0.635D-04 0.160D-03
 Coeff:      0.288D-03-0.171D-04-0.121D-02-0.492D-02 0.116D-02 0.175D-01
 Coeff:      0.146D-01-0.376D-01-0.153D+00-0.167D+00 0.401D+00 0.928D+00
 Gap=     0.122 Goal=   None    Shift=    0.000
 RMSDP=1.13D-08 MaxDP=7.91D-07 DE= 4.37D-11 OVMax= 6.04D-06

 Cycle  19  Pass 1  IDiag  1:
 RMSU=  3.08D-09    CP:  9.64D-01  1.50D+00  6.87D-01  6.26D-01  8.75D-01
                    CP:  9.16D-01  1.14D+00  1.36D+00  1.77D+00  2.24D+00
                    CP:  2.00D+00  2.00D+00  1.50D+00  1.44D+00  1.74D+00
                    CP:  1.93D+00  1.90D+00  1.26D+00
 E= -4069.81161655770     Delta-E=       -0.000000000022 Rises=F Damp=F
 DIIS: error= 3.13D-08 at cycle  19 NSaved=  19.
 NSaved=19 IEnMin=17 EnMin= -4069.81161655773     IErMin=19 ErrMin= 3.13D-08
 ErrMax= 3.13D-08  0.00D+00 EMaxC= 1.00D-01 BMatC= 2.02D-12 BMatP= 8.00D-12
 IDIUse=1 WtCom= 1.00D+00 WtEn= 0.00D+00
 Coeff-Com:  0.303D-05-0.614D-05-0.100D-04-0.121D-04 0.174D-04 0.132D-03
 Coeff-Com:  0.482D-03 0.817D-03-0.651D-03-0.627D-02-0.488D-02 0.129D-01
 Coeff-Com:  0.214D-01 0.966D-02-0.803D-01-0.196D+00-0.764D-02 0.528D+00
 Coeff-Com:  0.722D+00
 Coeff:      0.303D-05-0.614D-05-0.100D-04-0.121D-04 0.174D-04 0.132D-03
 Coeff:      0.482D-03 0.817D-03-0.651D-03-0.627D-02-0.488D-02 0.129D-01
 Coeff:      0.214D-01 0.966D-02-0.803D-01-0.196D+00-0.764D-02 0.528D+00
 Coeff:      0.722D+00
 Gap=     0.122 Goal=   None    Shift=    0.000
 RMSDP=5.21D-09 MaxDP=3.82D-07 DE=-2.18D-11 OVMax= 3.80D-06

 SCF Done:  E(RCAM-B3LYP) =  -4069.81161656     A.U. after   19 cycles
            NFock= 19  Conv=0.52D-08     -V/T= 2.0102
 KE= 4.028801964738D+03 PE=-3.793537030787D+04 EE= 1.560958827471D+04
 Leave Link  502 at Sat Sep 11 05:10:15 2021, MaxMem= 23488102400 cpu:           12239.5 elap:             534.6
 (Enter /sw/apps/gaussian-16.0/g16/l801.exe)
 DoSCS=F DFT=T ScalE2(SS,OS)=  1.000000  1.000000
 ExpMin= 3.36D-02 ExpMax= 4.95D+03 ExpMxC= 7.45D+02 IAcc=3 IRadAn=         5 AccDes= 0.00D+00
 HarFok:  IExCor=  205 AccDes= 0.00D+00 IRadAn=         5 IDoV=-2 UseB2=F ITyADJ=14
 ICtDFT= 12500011 ScaDFX=  1.000000  1.000000  1.000000  1.000000
 GSVD:  LWork=       -9588 too small for GESVD, short by       45590 words or       45590 for optimal perf.
 Largest valence mixing into a core orbital is  2.03D-04
 Largest core mixing into a valence orbital is  5.24D-05
 Range of M.O.s used for correlation:    95  1572
 NBasis=  1572 NAE=   312 NBE=   312 NFC=    94 NFV=     0
 NROrb=   1478 NOA=   218 NOB=   218 NVA=  1260 NVB=  1260
 Leave Link  801 at Sat Sep 11 05:10:16 2021, MaxMem= 23488102400 cpu:               9.6 elap:               0.4
 (Enter /sw/apps/gaussian-16.0/g16/l914.exe)
 RHF ground state
 Two-electron integrals replicated using symmetry.
 MDV= 23488102400 DFT=T DoStab=F Mixed=T DoRPA=T DoScal=F NonHer=T
 Making orbital integer symmetry assigments:
 Orbital symmetries:
       Occupied  (A) (A) (A) (A) (A) (A) (A) (A) (A) (A) (A) (A)
                 (A) (A) (A) (A) (A) (A) (A) (A) (A) (A) (A) (A)
                 (A) (A) (A) (A) (A) (A) (A) (A) (A) (A) (A) (A)
                 (A) (A) (A) (A) (A) (A) (A) (A) (A) (A) (A) (A)
                 (A) (A) (A) (A) (A) (A) (A) (A) (A) (A) (A) (A)
                 (A) (A) (A) (A) (A) (A) (A) (A) (A) (A) (A) (A)
                 (A) (A) (A) (A) (A) (A) (A) (A) (A) (A) (A) (A)
                 (A) (A) (A) (A) (A) (A) (A) (A) (A) (A) (A) (A)
                 (A) (A) (A) (A) (A) (A) (A) (A) (A) (A) (A) (A)
                 (A) (A) (A) (A) (A) (A) (A) (A) (A) (A) (A) (A)
                 (A) (A) (A) (A) (A) (A) (A) (A) (A) (A) (A) (A)
                 (A) (A) (A) (A) (A) (A) (A) (A) (A) (A) (A) (A)
                 (A) (A) (A) (A) (A) (A) (A) (A) (A) (A) (A) (A)
                 (A) (A) (A) (A) (A) (A) (A) (A) (A) (A) (A) (A)
                 (A) (A) (A) (A) (A) (A) (A) (A) (A) (A) (A) (A)
                 (A) (A) (A) (A) (A) (A) (A) (A) (A) (A) (A) (A)
                 (A) (A) (A) (A) (A) (A) (A) (A) (A) (A) (A) (A)
                 (A) (A) (A) (A) (A) (A) (A) (A) (A) (A) (A) (A)
                 (A) (A) (A) (A) (A) (A) (A) (A) (A) (A) (A) (A)
                 (A) (A) (A) (A) (A) (A) (A) (A) (A) (A) (A) (A)
                 (A) (A) (A) (A) (A) (A) (A) (A) (A) (A) (A) (A)
                 (A) (A) (A) (A) (A) (A) (A) (A) (A) (A) (A) (A)
                 (A) (A) (A) (A) (A) (A) (A) (A) (A) (A) (A) (A)
                 (A) (A) (A) (A) (A) (A) (A) (A) (A) (A) (A) (A)
                 (A) (A) (A) (A) (A) (A) (A) (A) (A) (A) (A) (A)
                 (A) (A) (A) (A) (A) (A) (A) (A) (A) (A) (A) (A)
       Virtual   (A) (A) (A) (A) (A) (A) (A) (A) (A) (A) (A) (A)
                 (A) (A) (A) (A) (A) (A) (A) (A) (A) (A) (A) (A)
                 (A) (A) (A) (A) (A) (A) (A) (A) (A) (A) (A) (A)
                 (A) (A) (A) (A) (A) (A) (A) (A) (A) (A) (A) (A)
                 (A) (A) (A) (A) (A) (A) (A) (A) (A) (A) (A) (A)
                 (A) (A) (A) (A) (A) (A) (A) (A) (A) (A) (A) (A)
                 (A) (A) (A) (A) (A) (A) (A) (A) (A) (A) (A) (A)
                 (A) (A) (A) (A) (A) (A) (A) (A) (A) (A) (A) (A)
                 (A) (A) (A) (A) (A) (A) (A) (A) (A) (A) (A) (A)
                 (A) (A) (A) (A) (A) (A) (A) (A) (A) (A) (A) (A)
                 (A) (A) (A) (A) (A) (A) (A) (A) (A) (A) (A) (A)
                 (A) (A) (A) (A) (A) (A) (A) (A) (A) (A) (A) (A)
                 (A) (A) (A) (A) (A) (A) (A) (A) (A) (A) (A) (A)
                 (A) (A) (A) (A) (A) (A) (A) (A) (A) (A) (A) (A)
                 (A) (A) (A) (A) (A) (A) (A) (A) (A) (A) (A) (A)
                 (A) (A) (A) (A) (A) (A) (A) (A) (A) (A) (A) (A)
                 (A) (A) (A) (A) (A) (A) (A) (A) (A) (A) (A) (A)
                 (A) (A) (A) (A) (A) (A) (A) (A) (A) (A) (A) (A)
                 (A) (A) (A) (A) (A) (A) (A) (A) (A) (A) (A) (A)
                 (A) (A) (A) (A) (A) (A) (A) (A) (A) (A) (A) (A)
                 (A) (A) (A) (A) (A) (A) (A) (A) (A) (A) (A) (A)
                 (A) (A) (A) (A) (A) (A) (A) (A) (A) (A) (A) (A)
                 (A) (A) (A) (A) (A) (A) (A) (A) (A) (A) (A) (A)
                 (A) (A) (A) (A) (A) (A) (A) (A) (A) (A) (A) (A)
                 (A) (A) (A) (A) (A) (A) (A) (A) (A) (A) (A) (A)
                 (A) (A) (A) (A) (A) (A) (A) (A) (A) (A) (A) (A)
                 (A) (A) (A) (A) (A) (A) (A) (A) (A) (A) (A) (A)
                 (A) (A) (A) (A) (A) (A) (A) (A) (A) (A) (A) (A)
                 (A) (A) (A) (A) (A) (A) (A) (A) (A) (A) (A) (A)
                 (A) (A) (A) (A) (A) (A) (A) (A) (A) (A) (A) (A)
                 (A) (A) (A) (A) (A) (A) (A) (A) (A) (A) (A) (A)
                 (A) (A) (A) (A) (A) (A) (A) (A) (A) (A) (A) (A)
                 (A) (A) (A) (A) (A) (A) (A) (A) (A) (A) (A) (A)
                 (A) (A) (A) (A) (A) (A) (A) (A) (A) (A) (A) (A)
                 (A) (A) (A) (A) (A) (A) (A) (A) (A) (A) (A) (A)
                 (A) (A) (A) (A) (A) (A) (A) (A) (A) (A) (A) (A)
                 (A) (A) (A) (A) (A) (A) (A) (A) (A) (A) (A) (A)
                 (A) (A) (A) (A) (A) (A) (A) (A) (A) (A) (A) (A)
                 (A) (A) (A) (A) (A) (A) (A) (A) (A) (A) (A) (A)
                 (A) (A) (A) (A) (A) (A) (A) (A) (A) (A) (A) (A)
                 (A) (A) (A) (A) (A) (A) (A) (A) (A) (A) (A) (A)
                 (A) (A) (A) (A) (A) (A) (A) (A) (A) (A) (A) (A)
                 (A) (A) (A) (A) (A) (A) (A) (A) (A) (A) (A) (A)
                 (A) (A) (A) (A) (A) (A) (A) (A) (A) (A) (A) (A)
                 (A) (A) (A) (A) (A) (A) (A) (A) (A) (A) (A) (A)
                 (A) (A) (A) (A) (A) (A) (A) (A) (A) (A) (A) (A)
                 (A) (A) (A) (A) (A) (A) (A) (A) (A) (A) (A) (A)
                 (A) (A) (A) (A) (A) (A) (A) (A) (A) (A) (A) (A)
                 (A) (A) (A) (A) (A) (A) (A) (A) (A) (A) (A) (A)
                 (A) (A) (A) (A) (A) (A) (A) (A) (A) (A) (A) (A)
                 (A) (A) (A) (A) (A) (A) (A) (A) (A) (A) (A) (A)
                 (A) (A) (A) (A) (A) (A) (A) (A) (A) (A) (A) (A)
                 (A) (A) (A) (A) (A) (A) (A) (A) (A) (A) (A) (A)
                 (A) (A) (A) (A) (A) (A) (A) (A) (A) (A) (A) (A)
                 (A) (A) (A) (A) (A) (A) (A) (A) (A) (A) (A) (A)
                 (A) (A) (A) (A) (A) (A) (A) (A) (A) (A) (A) (A)
                 (A) (A) (A) (A) (A) (A) (A) (A) (A) (A) (A) (A)
                 (A) (A) (A) (A) (A) (A) (A) (A) (A) (A) (A) (A)
                 (A) (A) (A) (A) (A) (A) (A) (A) (A) (A) (A) (A)
                 (A) (A) (A) (A) (A) (A) (A) (A) (A) (A) (A) (A)
                 (A) (A) (A) (A) (A) (A) (A) (A) (A) (A) (A) (A)
                 (A) (A) (A) (A) (A) (A) (A) (A) (A) (A) (A) (A)
                 (A) (A) (A) (A) (A) (A) (A) (A) (A) (A) (A) (A)
                 (A) (A) (A) (A) (A) (A) (A) (A) (A) (A) (A) (A)
                 (A) (A) (A) (A) (A) (A) (A) (A) (A) (A) (A) (A)
                 (A) (A) (A) (A) (A) (A) (A) (A) (A) (A) (A) (A)
                 (A) (A) (A) (A) (A) (A) (A) (A) (A) (A) (A) (A)
                 (A) (A) (A) (A) (A) (A) (A) (A) (A) (A) (A) (A)
                 (A) (A) (A) (A) (A) (A) (A) (A) (A) (A) (A) (A)
                 (A) (A) (A) (A) (A) (A) (A) (A) (A) (A) (A) (A)
                 (A) (A) (A) (A) (A) (A) (A) (A) (A) (A) (A) (A)
                 (A) (A) (A) (A) (A) (A) (A) (A) (A) (A) (A) (A)
                 (A) (A) (A) (A) (A) (A) (A) (A) (A) (A) (A) (A)
                 (A) (A) (A) (A) (A) (A) (A) (A) (A) (A) (A) (A)
                 (A) (A) (A) (A) (A) (A) (A) (A) (A) (A) (A) (A)
                 (A) (A) (A) (A) (A) (A) (A) (A) (A) (A) (A) (A)
                 (A) (A) (A) (A) (A) (A) (A) (A) (A) (A) (A) (A)
                 (A) (A) (A) (A) (A) (A) (A) (A) (A) (A) (A) (A)
                 (A) (A) (A) (A) (A) (A) (A) (A) (A) (A) (A) (A)
                 (A) (A) (A) (A) (A) (A) (A) (A) (A) (A) (A) (A)
                 (A) (A) (A) (A) (A) (A) (A) (A) (A) (A) (A) (A)
                 (A) (A) (A) (A) (A) (A) (A) (A) (A) (A) (A) (A)
                 (A) (A) (A) (A) (A) (A) (A) (A) (A) (A) (A) (A)
                 (A) (A) (A) (A) (A) (A) (A) (A) (A) (A) (A) (A)
                 (A) (A) (A) (A) (A) (A) (A) (A) (A) (A) (A) (A)
                 (A) (A) (A) (A) (A) (A) (A) (A) (A) (A) (A) (A)
                 (A) (A) (A) (A) (A) (A) (A) (A) (A) (A) (A) (A)
                 (A) (A) (A) (A) (A) (A) (A) (A) (A) (A) (A) (A)
                 (A) (A) (A) (A) (A) (A) (A) (A) (A) (A) (A) (A)
                 (A) (A) (A) (A) (A) (A) (A) (A) (A) (A) (A) (A)
                 (A) (A) (A) (A) (A) (A) (A) (A) (A) (A) (A) (A)
                 (A) (A) (A) (A) (A) (A) (A) (A) (A) (A) (A) (A)
                 (A) (A) (A) (A) (A) (A) (A) (A) (A) (A) (A) (A)
                 (A) (A) (A) (A) (A) (A) (A) (A) (A) (A) (A) (A)
                 (A) (A) (A) (A) (A) (A) (A) (A) (A) (A) (A) (A)
                 (A) (A) (A) (A) (A) (A) (A) (A) (A) (A) (A) (A)
                 (A) (A) (A) (A) (A) (A) (A) (A) (A) (A) (A) (A)
                 (A) (A) (A) (A) (A) (A) (A) (A) (A) (A) (A) (A)
                 (A) (A) (A) (A) (A) (A) (A) (A) (A) (A) (A) (A)
                 (A) (A) (A) (A) (A) (A) (A) (A) (A) (A) (A) (A)
                 (A) (A) (A) (A) (A) (A) (A) (A) (A) (A) (A) (A)
                 (A) (A) (A) (A) (A) (A) (A) (A) (A) (A) (A) (A)
                 (A) (A) (A) (A) (A) (A) (A) (A) (A) (A) (A) (A)
                 (A) (A) (A) (A) (A) (A) (A) (A) (A) (A) (A) (A)
                 (A) (A) (A) (A) (A) (A) (A) (A) (A) (A) (A) (A)
    20 initial guesses have been made.
 Convergence on wavefunction:    0.001000000000000
 Davidson Disk Diagonalization:  ConvIn= 1.00D-03 SkipCon=T Conv= 1.00D-03.
 Max sub-space:  2000 roots to seek:    20 dimension of matrix:       549360
 Iteration     1 Dimension    20 NMult     0 NNew     20
 CISAX will form    20 AO SS matrices at one time.
 NMat=    20 NSing=    20 JSym2X= 0.
 FoFJK:  IHMeth= 1 ICntrl=       0 DoSepK=T KAlg= 0 I1Cent=           0 FoldK=F
 IRaf=         1 NMat=      40 IRICut=       1 DoRegI=T DoRafI=F ISym2E= 0 IDoP0=3 IntGTp=3.
 FoFCou: FMM=T IPFlag=           0 FMFlag=      100000 FMFlg1=        2001
         NFxFlg=           0 DoJE=F BraDBF=F KetDBF=F FulRan=T
         wScrn=  0.000000 ICntrl=       500 IOpCl=  0 I1Cent=           0 NGrid=           0
         NMat0=   20 NMatS0=     20 NMatT0=    0 NMatD0=   20 NMtDS0=    0 NMtDT0=    0
 Symmetry not used in FoFCou.
 FMM levels:  10  Number of levels for PrismC:   9
 New state      1 was old state      7
 New state      2 was old state      6
 New state      3 was old state      1
 New state      4 was old state      2
 New state      5 was old state      3
 Excitation Energies [eV] at current iteration:
 Root      1 :     2.612370602634801
 Root      2 :     2.619987613774071
 Root      3 :     2.656245816139395
 Root      4 :     2.658238351897368
 Root      5 :     2.713105171387574
 Root      6 :     2.735666505492997
 Root      7 :     3.446610215137512
 Root      8 :     3.536102549866081
 Root      9 :     3.624898359958658
 Root     10 :     3.668250894021087
 Root     11 :     3.738873427480614
 Root     12 :     3.759249508861622
 Root     13 :     4.283393072825750
 Root     14 :     4.325871877514114
 Root     15 :     4.562728831839245
 Root     16 :     4.661210972033030
 Root     17 :     4.872286214559420
 Root     18 :     4.905508194985464
 Root     19 :     4.960242317677033
 Root     20 :     4.993347954084236
 Iteration     2 Dimension    30 NMult    20 NNew     10
 CISAX will form    10 AO SS matrices at one time.
 NMat=    10 NSing=    10 JSym2X= 0.
 New state      1 was old state      4
 Root      1 not converged, maximum delta is    0.146589256405495
 New state      2 was old state      5
 Root      2 not converged, maximum delta is    0.152707916334674
 New state      3 was old state      1
 Root      3 not converged, maximum delta is    0.340522608240372
 New state      4 was old state      2
 Root      4 not converged, maximum delta is    0.330110404594887
 New state      5 was old state      3
 Root      5 not converged, maximum delta is    0.002903149559266
 Excitation Energies [eV] at current iteration:
 Root      1 :     1.790628944277532   Change is   -0.867609407619836
 Root      2 :     1.817326988584841   Change is   -0.895778182802732
 Root      3 :     2.233780323851100   Change is   -0.378590278783701
 Root      4 :     2.240573378676877   Change is   -0.379414235097194
 Root      5 :     2.656010506696890   Change is   -0.000235309442505
 Iteration     3 Dimension    40 NMult    30 NNew     10
 CISAX will form    10 AO SS matrices at one time.
 NMat=    10 NSing=    10 JSym2X= 0.
 Root      1 not converged, maximum delta is    0.054368238373875
 Root      2 not converged, maximum delta is    0.055201030395241
 Root      3 not converged, maximum delta is    0.088730679598334
 Root      4 not converged, maximum delta is    0.088261220557837
 Root      5 has converged.
 Excitation Energies [eV] at current iteration:
 Root      1 :     1.684199853074685   Change is   -0.106429091202848
 Root      2 :     1.708298127802400   Change is   -0.109028860782441
 Root      3 :     2.192852998415635   Change is   -0.040927325435465
 Root      4 :     2.201192266916713   Change is   -0.039381111760165
 Root      5 :     2.656009054224595   Change is   -0.000001452472295
 Iteration     4 Dimension    48 NMult    40 NNew      8
 CISAX will form     8 AO SS matrices at one time.
 NMat=     8 NSing=     8 JSym2X= 0.
 Root      1 not converged, maximum delta is    0.010470986646382
 Root      2 not converged, maximum delta is    0.010297855274065
 Root      3 not converged, maximum delta is    0.014320589266980
 Root      4 not converged, maximum delta is    0.014158858981735
 Root      5 has converged.
 Excitation Energies [eV] at current iteration:
 Root      1 :     1.667503463341749   Change is   -0.016696389732936
 Root      2 :     1.691411542586320   Change is   -0.016886585216080
 Root      3 :     2.185613811196385   Change is   -0.007239187219251
 Root      4 :     2.194349392564601   Change is   -0.006842874352111
 Root      5 :     2.656009054220045   Change is   -0.000000000004550
 Iteration     5 Dimension    56 NMult    48 NNew      8
 CISAX will form     8 AO SS matrices at one time.
 NMat=     8 NSing=     8 JSym2X= 0.
 Root      1 not converged, maximum delta is    0.001692700257217
 Root      2 not converged, maximum delta is    0.001733267469098
 Root      3 not converged, maximum delta is    0.002393659186487
 Root      4 not converged, maximum delta is    0.002264594141278
 Root      5 has converged.
 Excitation Energies [eV] at current iteration:
 Root      1 :     1.665754661045184   Change is   -0.001748802296565
 Root      2 :     1.689610406506196   Change is   -0.001801136080124
 Root      3 :     2.184775091963653   Change is   -0.000838719232732
 Root      4 :     2.193568151075250   Change is   -0.000781241489351
 Root      5 :     2.656009054216238   Change is   -0.000000000003807
 Iteration     6 Dimension    64 NMult    56 NNew      8
 CISAX will form     8 AO SS matrices at one time.
 NMat=     8 NSing=     8 JSym2X= 0.
 Root      1 not converged, maximum delta is    0.001053073433256
 Root      2 not converged, maximum delta is    0.001071267438105
 Root      3 not converged, maximum delta is    0.001012382882385
 Root      4 has converged.
 Root      5 has converged.
 Excitation Energies [eV] at current iteration:
 Root      1 :     1.665505945391276   Change is   -0.000248715653908
 Root      2 :     1.689351487482061   Change is   -0.000258919024135
 Root      3 :     2.184647826986548   Change is   -0.000127264977105
 Root      4 :     2.193449196652625   Change is   -0.000118954422625
 Root      5 :     2.656009054214907   Change is   -0.000000000001331
 Iteration     7 Dimension    70 NMult    64 NNew      6
 CISAX will form     6 AO SS matrices at one time.
 NMat=     6 NSing=     6 JSym2X= 0.
 Root      1 has converged.
 Root      2 has converged.
 Root      3 has converged.
 Root      4 has converged.
 Root      5 has converged.
 Excitation Energies [eV] at current iteration:
 Root      1 :     1.665481632900169   Change is   -0.000024312491107
[...]
 Alpha virt. eigenvalues --    1.84450   1.84577   1.84811   1.84840   1.85095
 Alpha virt. eigenvalues --    1.85171   1.85274   1.85379   1.85488   1.85539
 Alpha virt. eigenvalues --    1.85866   1.85955   1.86357   1.86432   1.86557
 Alpha virt. eigenvalues --    1.86700   1.86782   1.86874   1.87038   1.87094
 Alpha virt. eigenvalues --    1.87440   1.87535   1.87683   1.87823   1.87866
 Alpha virt. eigenvalues --    1.88037   1.88068   1.88228   1.88533   1.88622
 Alpha virt. eigenvalues --    1.88819   1.88993   1.89123   1.89129   1.89627
 Alpha virt. eigenvalues --    1.89706   1.89747   1.89924   1.90119   1.90241
 Alpha virt. eigenvalues --    1.90752   1.90951   1.91348   1.91442   1.91481
 Alpha virt. eigenvalues --    1.91645   1.92153   1.92238   1.92614   1.92706
 Alpha virt. eigenvalues --    1.92983   1.93206   1.93337   1.93557   1.94277
 Alpha virt. eigenvalues --    1.94357   1.94690   1.94867   1.95473   1.95647
 Alpha virt. eigenvalues --    1.95724   1.95866   1.95992   1.96098   1.96147
 Alpha virt. eigenvalues --    1.96228   1.96536   1.96593   1.96896   1.96983
 Alpha virt. eigenvalues --    1.97448   1.97591   1.97832   1.97857   1.98167
 Alpha virt. eigenvalues --    1.98222   1.98402   1.98679   1.99126   1.99136
 Alpha virt. eigenvalues --    1.99817   1.99978   2.00659   2.00781   2.00997
 Alpha virt. eigenvalues --    2.01150   2.01474   2.01559   2.01654   2.01671
 Alpha virt. eigenvalues --    2.01720   2.01873   2.02762   2.02783   2.03195
 Alpha virt. eigenvalues --    2.03233   2.03405   2.03429   2.03483   2.03576
 Alpha virt. eigenvalues --    2.04035   2.04078   2.04958   2.05026   2.05514
 Alpha virt. eigenvalues --    2.05676   2.06081   2.06333   2.06906   2.07088
 Alpha virt. eigenvalues --    2.07187   2.07410   2.08589   2.08591   2.08979
 Alpha virt. eigenvalues --    2.09056   2.09586   2.09661   2.10776   2.11086
 Alpha virt. eigenvalues --    2.11183   2.11460   2.11528   2.11577   2.11725
 Alpha virt. eigenvalues --    2.11912   2.12460   2.12512   2.12803   2.12833
 Alpha virt. eigenvalues --    2.12850   2.12925   2.13676   2.13754   2.14140
 Alpha virt. eigenvalues --    2.14312   2.15335   2.15453   2.15925   2.16138
 Alpha virt. eigenvalues --    2.16522   2.16642   2.16759   2.17237   2.17415
 Alpha virt. eigenvalues --    2.17702   2.17706   2.17988   2.18057   2.18070
 Alpha virt. eigenvalues --    2.18326   2.18722   2.18864   2.19286   2.19637
 Alpha virt. eigenvalues --    2.19868   2.20032   2.20214   2.20298   2.20482
 Alpha virt. eigenvalues --    2.21147   2.21220   2.21671   2.21748   2.21818
 Alpha virt. eigenvalues --    2.21927   2.22676   2.22750   2.23313   2.23399
 Alpha virt. eigenvalues --    2.24394   2.24467   2.24954   2.25047   2.26298
 Alpha virt. eigenvalues --    2.26492   2.26778   2.27057   2.27102   2.27256
 Alpha virt. eigenvalues --    2.28132   2.28363   2.29265   2.29486   2.29731
 Alpha virt. eigenvalues --    2.29932   2.30447   2.30669   2.30867   2.31078
 Alpha virt. eigenvalues --    2.31183   2.31254   2.32119   2.32288   2.33131
 Alpha virt. eigenvalues --    2.33280   2.33457   2.33533   2.34133   2.34188
 Alpha virt. eigenvalues --    2.35349   2.35371   2.35791   2.35955   2.36349
 Alpha virt. eigenvalues --    2.36379   2.36494   2.36622   2.37656   2.37728
 Alpha virt. eigenvalues --    2.38257   2.38419   2.38819   2.38845   2.39607
 Alpha virt. eigenvalues --    2.39715   2.40175   2.40313   2.40478   2.40869
 Alpha virt. eigenvalues --    2.41251   2.41255   2.41678   2.41735   2.42039
 Alpha virt. eigenvalues --    2.42179   2.42862   2.42937   2.43105   2.43538
 Alpha virt. eigenvalues --    2.44012   2.44168   2.44727   2.44848   2.44899
 Alpha virt. eigenvalues --    2.45039   2.45546   2.45619   2.46303   2.46323
 Alpha virt. eigenvalues --    2.46477   2.46544   2.46797   2.46847   2.47254
 Alpha virt. eigenvalues --    2.47429   2.47710   2.47930   2.49307   2.49429
 Alpha virt. eigenvalues --    2.49930   2.50059   2.50485   2.50540   2.51113
 Alpha virt. eigenvalues --    2.51312   2.51644   2.51878   2.52426   2.52427
 Alpha virt. eigenvalues --    2.52801   2.53202   2.53914   2.54005   2.54151
 Alpha virt. eigenvalues --    2.54313   2.54787   2.54855   2.55519   2.55709
 Alpha virt. eigenvalues --    2.57860   2.58114   2.58639   2.58943   2.60202
 Alpha virt. eigenvalues --    2.60341   2.60600   2.60955   2.61705   2.61856
 Alpha virt. eigenvalues --    2.62463   2.62522   2.62951   2.63167   2.63927
 Alpha virt. eigenvalues --    2.64237   2.64252   2.64463   2.65072   2.65135
 Alpha virt. eigenvalues --    2.65774   2.65889   2.66768   2.66850   2.66900
 Alpha virt. eigenvalues --    2.67090   2.67902   2.68015   2.68846   2.68850
 Alpha virt. eigenvalues --    2.69018   2.69063   2.69379   2.69624   2.69988
 Alpha virt. eigenvalues --    2.70171   2.70973   2.71097   2.71922   2.72052
 Alpha virt. eigenvalues --    2.72525   2.72651   2.72767   2.72829   2.73266
 Alpha virt. eigenvalues --    2.73316   2.73498   2.73535   2.74507   2.74543
 Alpha virt. eigenvalues --    2.74971   2.75088   2.76553   2.76585   2.77105
 Alpha virt. eigenvalues --    2.77231   2.77452   2.77626   2.78190   2.78313
 Alpha virt. eigenvalues --    2.78719   2.78725   2.79129   2.79180   2.80275
 Alpha virt. eigenvalues --    2.80343   2.80585   2.80714   2.81118   2.81185
 Alpha virt. eigenvalues --    2.81929   2.82021   2.82337   2.82367   2.83751
 Alpha virt. eigenvalues --    2.83765   2.83864   2.83941   2.84543   2.84558
 Alpha virt. eigenvalues --    2.84878   2.84917   2.85663   2.85708   2.86682
 Alpha virt. eigenvalues --    2.86993   2.87196   2.87606   2.88153   2.88252
 Alpha virt. eigenvalues --    2.88503   2.88651   2.88901   2.88930   2.90483
 Alpha virt. eigenvalues --    2.90679   2.91097   2.91182   2.93145   2.93346
 Alpha virt. eigenvalues --    2.93794   2.94192   2.94552   2.94590   2.95349
 Alpha virt. eigenvalues --    2.95486   2.95859   2.96200   2.96388   2.96430
 Alpha virt. eigenvalues --    2.96891   2.97172   2.97806   2.98040   2.98201
 Alpha virt. eigenvalues --    2.98363   2.98376   2.98596   2.98602   2.98824
 Alpha virt. eigenvalues --    2.98880   2.98953   2.99573   2.99806   3.00026
 Alpha virt. eigenvalues --    3.00039   3.00213   3.00345   3.00454   3.01012
 Alpha virt. eigenvalues --    3.01922   3.01977   3.02029   3.02129   3.02734
 Alpha virt. eigenvalues --    3.02831   3.02967   3.03320   3.03324   3.03732
 Alpha virt. eigenvalues --    3.04073   3.04158   3.04445   3.04451   3.04535
 Alpha virt. eigenvalues --    3.04771   3.05292   3.05367   3.06104   3.06188
 Alpha virt. eigenvalues --    3.06788   3.06956   3.07929   3.08137   3.09374
 Alpha virt. eigenvalues --    3.09387   3.09678   3.10430   3.10437   3.10757
 Alpha virt. eigenvalues --    3.11329   3.11503   3.11914   3.11931   3.12162
 Alpha virt. eigenvalues --    3.12319   3.13272   3.13634   3.13665   3.13707
 Alpha virt. eigenvalues --    3.14095   3.14496   3.15909   3.15998   3.17264
 Alpha virt. eigenvalues --    3.17550   3.17888   3.18079   3.19050   3.19126
 Alpha virt. eigenvalues --    3.22310   3.22620   3.23946   3.24468   3.24681
 Alpha virt. eigenvalues --    3.25225   3.26503   3.26684   3.27421   3.27619
 Alpha virt. eigenvalues --    3.29107   3.29244   3.31403   3.31524   3.33209
 Alpha virt. eigenvalues --    3.33416   3.40279   3.40639   3.42819   3.42830
 Alpha virt. eigenvalues --    3.48664   3.48729   3.50019   3.50305   3.50859
 Alpha virt. eigenvalues --    3.51473   3.56551   3.57029   3.59098   3.59365
 Alpha virt. eigenvalues --    3.62543   3.62840   3.66122   3.66193   3.67193
 Alpha virt. eigenvalues --    3.67564   3.73281   3.74049   3.76067   3.76711
          Condensed to atoms (all electrons):
 Mulliken charges:
               1
     1  Mg   0.838636
     2  C   -0.003002
     3  C   -0.094334
     4  C   -0.045790
     5  C   -0.063992
     6  N   -0.256752
     7  C   -0.052514
     8  C   -0.013989
     9  C   -0.086963
    10  C    0.046260
    11  C    0.104810
    12  C    0.053564
    13  C   -0.071627
    14  H    0.035749
    15  N   -0.433150
    16  C    0.168369
    17  C   -0.177277
    18  C   -0.003962
    19  C    0.148684
    20  C    0.110224
    21  C    0.012387
    22  O   -0.249405
    23  C    0.062474
    24  N   -0.341118
    25  C    0.041176
    26  C   -0.028196
    27  C   -0.023998
    28  C    0.074817
    29  C    0.076128
    30  C    0.035141
    31  C   -0.004490
    32  N   -0.310514
    33  C    0.080408
    34  C   -0.169653
    35  C    0.008487
    36  C    0.082992
    37  C    0.127282
    38  C    0.046244
    39  O   -0.188049
    40  C   -0.005375
    41  C    0.212942
    42  O   -0.257083
    43  O   -0.304803
    44  C    0.157586
    45  H   -0.017676
    46  H   -0.016723
    47  H   -0.041447
    48  H    0.001053
    49  H   -0.004266
    50  H    0.025575
    51  H    0.016519
    52  H    0.016621
    53  H    0.010848
    54  H    0.044130
    55  H    0.018094
    56  H    0.017653
    57  H    0.005712
    58  H    0.026901
    59  H    0.039209
    60  H    0.037264
    61  H    0.035921
    62  H    0.031277
    63  H    0.016597
    64  H    0.009577
    65  H    0.023320
    66  H    0.012595
    67  H    0.004809
    68  H    0.006435
    69  H    0.004744
    70  H    0.008906
    71  H    0.017532
    72  H    0.029040
    73  H    0.047820
    74  H    0.009060
    75  H    0.046127
    76  H    0.035217
    77  H    0.043228
    78  H    0.046117
    79  H    0.053888
    80  Mg   0.838098
    81  C   -0.016753
    82  C   -0.087916
    83  C   -0.045532
    84  C   -0.064448
    85  N   -0.254553
    86  C   -0.049483
    87  C   -0.015119
    88  C   -0.090606
    89  C    0.045887
    90  C    0.114403
    91  C    0.062597
    92  C   -0.077708
    93  H    0.034620
    94  N   -0.423434
    95  C    0.162845
    96  C   -0.174981
    97  C   -0.007993
    98  C    0.152037
    99  C    0.099566
   100  C    0.015385
   101  O   -0.253258
   102  C    0.061293
   103  N   -0.349956
   104  C    0.037553
   105  C   -0.019850
   106  C   -0.034840
   107  C    0.089022
   108  C    0.073656
   109  C    0.034737
   110  C   -0.007627
   111  N   -0.324259
   112  C    0.078697
   113  C   -0.162658
   114  C    0.002639
   115  C    0.096277
   116  C    0.131335
   117  C    0.042828
   118  O   -0.187479
   119  C    0.000760
   120  C    0.211156
   121  O   -0.251233
   122  O   -0.305470
   123  C    0.152109
   124  H   -0.020221
   125  H   -0.015670
   126  H   -0.040323
   127  H   -0.000464
   128  H   -0.004820
   129  H    0.023394
   130  H    0.014617
   131  H    0.015522
   132  H    0.013755
   133  H    0.037660
   134  H    0.020764
   135  H    0.019294
   136  H    0.008398
   137  H    0.025530
   138  H    0.039455
   139  H    0.037896
   140  H    0.036166
   141  H    0.033754
   142  H    0.014152
   143  H    0.012679
   144  H    0.024968
   145  H    0.012006
   146  H    0.005771
   147  H    0.006046
   148  H    0.003635
   149  H    0.010819
   150  H    0.017741
   151  H    0.030150
   152  H    0.045845
   153  H    0.008277
   154  H    0.048401
   155  H    0.035848
   156  H    0.043935
   157  H    0.049251
   158  H    0.053428
 Sum of Mulliken charges =  -0.00000
 Mulliken charges with hydrogens summed into heavy atoms:
               1
     1  Mg   0.838636
     2  C   -0.003002
     3  C   -0.112010
     4  C   -0.062513
     5  C   -0.105439
     6  N   -0.256752
     7  C   -0.052514
     8  C   -0.012936
     9  C   -0.091230
    10  C    0.046260
    11  C    0.163526
    12  C    0.108543
    13  C   -0.000132
    15  N   -0.433150
    16  C    0.168369
    17  C   -0.177277
    18  C   -0.003962
    19  C    0.148684
    20  C    0.182045
    21  C    0.012387
    22  O   -0.249405
    23  C    0.166936
    24  N   -0.341118
    25  C    0.041176
    26  C   -0.011599
    27  C   -0.014422
    28  C    0.074817
    29  C    0.116852
    30  C    0.046319
    31  C    0.050989
    32  N   -0.310514
    33  C    0.080408
    34  C   -0.169653
    35  C    0.008487
    36  C    0.082992
    37  C    0.230288
    38  C    0.046244
    39  O   -0.188049
    40  C    0.029842
    41  C    0.212942
    42  O   -0.257083
    43  O   -0.304803
    44  C    0.300820
    80  Mg   0.838098
    81  C   -0.016753
    82  C   -0.108137
    83  C   -0.061202
    84  C   -0.104772
    85  N   -0.254553
    86  C   -0.049483
    87  C   -0.015583
    88  C   -0.095426
    89  C    0.045887
    90  C    0.167937
    91  C    0.114012
    92  C   -0.003031
    94  N   -0.423434
    95  C    0.162845
    96  C   -0.174981
    97  C   -0.007993
    98  C    0.152037
    99  C    0.172948
   100  C    0.015385
   101  O   -0.253258
   102  C    0.169109
   103  N   -0.349956
   104  C    0.037553
   105  C   -0.005699
   106  C   -0.022161
   107  C    0.089022
   108  C    0.116401
   109  C    0.044418
   110  C    0.051082
   111  N   -0.324259
   112  C    0.078697
   113  C   -0.162658
   114  C    0.002639
   115  C    0.096277
   116  C    0.233858
   117  C    0.042828
   118  O   -0.187479
   119  C    0.036608
   120  C    0.211156
   121  O   -0.251233
   122  O   -0.305470
   123  C    0.298723
 Electronic spatial extent (au):  <R**2>=         152200.6207
 Charge=             -0.0000 electrons
 Dipole moment (field-independent basis, Debye):
    X=             -3.6216    Y=             -2.0752    Z=             -7.8606  Tot=              8.9001
 Quadrupole moment (field-independent basis, Debye-Ang):
   XX=           -510.6141   YY=           -553.3461   ZZ=           -446.7236
   XY=             -3.3333   XZ=            -14.0868   YZ=            -44.2079
 Traceless Quadrupole moment (field-independent basis, Debye-Ang):
   XX=             -7.0528   YY=            -49.7848   ZZ=             56.8377
   XY=             -3.3333   XZ=            -14.0868   YZ=            -44.2079
 Octapole moment (field-independent basis, Debye-Ang**2):
  XXX=           -459.6327  YYY=            368.6539  ZZZ=            -69.5787  XYY=             92.9065
  XXY=            -47.2109  XXZ=           -509.6476  XZZ=            -60.4416  YZZ=           -210.0099
  YYZ=           -227.8519  XYZ=              4.1696
 Hexadecapole moment (field-independent basis, Debye-Ang**3):
 XXXX=        -143159.9662 YYYY=         -42406.8678 ZZZZ=         -23641.0451 XXXY=           -199.8099
 XXXZ=          -1847.3023 YYYX=            818.0637 YYYZ=          -1376.9902 ZZZX=            105.0057
 ZZZY=            220.1353 XXYY=         -31433.8391 XXZZ=         -25210.9572 YYZZ=         -10629.5041
 XXYZ=          -2006.4055 YYXZ=           -199.1075 ZZXY=           -152.8352
 N-N= 1.422716845186D+04 E-N=-3.793537030096D+04  KE= 4.028801964738D+03
 Leave Link  601 at Sat Sep 11 05:31:48 2021, MaxMem= 23488102400 cpu:              17.2 elap:               0.8
 (Enter /sw/apps/gaussian-16.0/g16/l9999.exe)
 1\1\GINC-BP1-COMPUTE00091\SP\RCAM-B3LYP TD-FC\def2SVP\C68H72Mg2N8O8\OF
 15641\11-Sep-2021\0\\#p cam-b3lyp/Def2SVP td=(nstates=5)\\TDDFT excite
 d states in gaussian\\0,1\Mg,0,0.,0.,0.\C,0,-0.217,-2.218,2.801\C,0,-1
 .255,2.442,2.026\C,0,-0.245,1.85,-2.564\C,0,0.146,-2.824,-2.037\N,0,-0
 .617,-0.009,2.126\C,0,-0.594,-0.908,3.105\C,0,-0.936,-0.309,4.502\C,0,
 -1.773,0.964,4.032\C,0,-1.155,1.168,2.66\C,0,-3.263,0.685,3.863\C,0,0.
 345,0.11,5.299\C,0,0.124,0.397,6.787\H,0,1.168,0.033,7.733\N,0,-0.185,
 1.961,-0.152\C,0,-0.703,2.8,0.777\C,0,-0.62,4.156,0.193\C,0,-0.187,4.0
 15,-1.225\C,0,-0.214,2.583,-1.38\C,0,-0.887,5.406,0.974\C,0,0.181,5.01
 3,-2.277\O,0,0.303,4.69,-3.508\C,0,0.31,6.414,-1.837\N,0,-0.265,-0.413
 ,-2.029\C,0,-0.279,0.569,-2.937\C,0,-0.196,0.024,-4.332\C,0,0.124,-1.5
 33,-4.18\C,0,0.086,-1.632,-2.635\C,0,-1.451,0.205,-5.197\C,0,1.373,-2.
 07,-4.923\C,0,2.626,-1.49,-4.306\N,0,0.15,-2.144,0.303\C,0,0.173,-3.13
 6,-0.688\C,0,0.173,-4.438,0.004\C,0,0.133,-4.111,1.358\C,0,0.083,-2.69
 5,1.502\C,0,0.149,-5.715,-0.623\C,0,0.096,-4.629,2.716\O,0,0.208,-5.74
 7,3.221\C,0,-0.255,-3.428,3.701\C,0,0.717,-3.482,4.848\O,0,1.931,-3.25
 5,4.669\O,0,0.038,-3.556,6.003\C,0,0.943,-3.583,7.183\H,0,-1.859,3.22,
 2.497\H,0,-0.218,2.453,-3.474\H,0,0.276,-3.747,-2.605\H,0,-1.554,-0.94
 9,5.132\H,0,-1.585,1.831,4.665\H,0,-3.484,-0.377,3.969\H,0,-3.511,1.02
 7,2.858\H,0,-3.852,1.301,4.543\H,0,0.669,1.096,4.966\H,0,1.13,-0.639,5
 .189\H,0,-0.844,0.026,7.125\H,0,0.062,1.477,6.921\H,0,-1.344,5.186,1.9
 38\H,0,-1.651,5.963,0.432\H,0,0.007,6.02,1.084\H,0,-0.635,6.744,-1.405
 \H,0,0.665,6.97,-2.704\H,0,1.048,6.466,-1.036\H,0,0.608,0.501,-4.891\H
 ,0,-0.692,-2.156,-4.547\H,0,-1.267,0.74,-6.129\H,0,-2.204,0.714,-4.596
 \H,0,-1.967,-0.72,-5.453\H,0,1.356,-1.759,-5.967\H,0,1.452,-3.157,-4.9
 02\H,0,2.714,-0.522,-4.798\H,0,3.487,-2.121,-4.529\H,0,2.495,-1.303,-3
 .24\H,0,0.867,-6.333,-0.084\H,0,0.404,-5.642,-1.68\H,0,-0.891,-5.999,-
 0.463\H,0,-1.283,-3.581,4.028\H,0,0.698,-4.478,7.755\H,0,0.833,-2.619,
 7.68\H,0,2.,-3.754,6.976\Mg,0,13.14655,1.18767,1.00308\C,0,13.5768,-0.
 97983,3.83078\C,0,12.49493,3.69969,3.21662\C,0,12.32122,3.00964,-1.459
 98\C,0,12.70253,-1.66889,-0.94336\N,0,13.07563,1.23075,3.21337\C,0,13.
 31701,0.36108,4.18278\C,0,13.35699,0.97918,5.60613\C,0,12.45403,2.2780
 7,5.32968\C,0,12.71308,2.4419,3.83344\C,0,10.96821,2.03251,5.5331\C,0,
 14.81068,1.37321,6.04604\C,0,14.9675,1.69424,7.53403\H,0,16.21089,1.31
 664,8.20026\N,0,12.98315,3.16053,0.86281\C,0,12.73971,4.03023,1.86563\
 C,0,12.69294,5.36142,1.24122\C,0,12.76471,5.18975,-0.23529\C,0,12.6694
 3,3.74736,-0.3379\C,0,12.66971,6.63352,2.03788\C,0,12.88469,6.16354,-1
 .36823\O,0,12.6898,5.80893,-2.58441\C,0,13.14507,7.56396,-1.00421\N,0,
 12.38311,0.75067,-0.88067\C,0,12.16215,1.72532,-1.78021\C,0,11.87715,1
 .15127,-3.14755\C,0,12.1924,-0.41228,-3.03131\C,0,12.53454,-0.49031,-1
 .52724\C,0,10.45282,1.34575,-3.66701\C,0,13.20364,-1.00405,-4.05105\C,
 0,14.5849,-0.44772,-3.79027\N,0,13.31715,-0.94442,1.3083\C,0,13.06112,
 -1.96422,0.36568\C,0,13.20177,-3.25452,1.0712\C,0,13.50972,-2.8925,2.3
 9128\C,0,13.53774,-1.47627,2.50535\C,0,13.00053,-4.54203,0.49854\C,0,1
 3.807,-3.38628,3.71661\O,0,14.00581,-4.49782,4.20516\C,0,13.73919,-2.1
 6899,4.73641\C,0,14.96415,-2.2241,5.60759\O,0,16.09472,-2.04813,5.1203
 1\O,0,14.58572,-2.25822,6.89833\C,0,15.76614,-2.30234,7.80193\H,0,12.0
 5486,4.50016,3.81199\H,0,12.13525,3.58991,-2.36672\H,0,12.67616,-2.606
 5,-1.5027\H,0,12.90458,0.36947,6.37901\H,0,12.82458,3.1406,5.87749\H,0
 ,10.75346,0.99012,5.71599\H,0,10.48786,2.3635,4.62164\H,0,10.58465,2.6
 7883,6.32777\H,0,15.0625,2.35088,5.61535\H,0,15.5132,0.61311,5.76437\H
 ,0,14.10158,1.36381,8.12049\H,0,14.97511,2.78012,7.65583\H,0,12.45574,
 6.44132,3.0965\H,0,11.80939,7.21427,1.68796\H,0,13.5754,7.22942,1.9064
 4\H,0,12.34828,7.92304,-0.35719\H,0,13.28705,8.09023,-1.95013\H,0,14.0
 6988,7.60695,-0.41813\H,0,12.53029,1.58692,-3.89369\H,0,11.28925,-1.02
 22,-3.1802\H,0,10.41106,1.86898,-4.64095\H,0,9.88798,1.88731,-2.91988\
 H,0,9.87258,0.43122,-3.77731\H,0,12.93544,-0.70513,-5.06735\H,0,13.248
 6,-2.0879,-4.03542\H,0,14.566,0.5141,-4.31146\H,0,15.34706,-1.10549,-4
 .2032\H,0,14.73132,-0.2418,-2.72359\H,0,13.80645,-5.17027,0.85393\H,0,
 12.98157,-4.4952,-0.5883\H,0,12.02097,-4.79017,0.91586\H,0,12.82056,-2
 .27664,5.31443\H,0,15.64616,-3.18222,8.44154\H,0,15.79636,-1.3162,8.30
 23\H,0,16.73343,-2.49701,7.35371\\Version=ES64L-G16RevA.03\State=1-A\H
 F=-4069.8116166\RMSD=5.207e-09\PG=C01 [X(C68H72Mg2N8O8)]\\@


 CONTRAIWISE...CONTINUED TWEEDLEDEE, IF IT WAS SO, IT MIGHT BE,
 AND IF IT WERE SO, IT WOULD BE.....
 BUT AS IT ISN'T, IT AIN'T....
 THAT'S LOGIC.....
 ALICE THROUGH THE LOOKING GLASS
 Job cpu time:       0 days 12 hours  1 minutes 10.3 seconds.
 Elapsed time:       0 days  0 hours 30 minutes 39.5 seconds.
 File lengths (MBytes):  RWF=  13225 Int=      0 D2E=      0 Chk=    574 Scr=      1
 Normal termination of Gaussian 16 at Sat Sep 11 05:31:49 2021.
