 Entering Gaussian System, Link 0=g16
 Initial command:
 /sw/apps/gaussian-16.0/g16/l1.exe "/tmp/Gau-203134.inp" -scrdir="/tmp/"
 Entering Link 1 = /sw/apps/gaussian-16.0/g16/l1.exe PID=    203135.
  
 Copyright (c) 1988,1990,1992,1993,1995,1998,2003,2009,2016,
            Gaussian, Inc.  All Rights Reserved.
  
 This is part of the Gaussian(R) 16 program.  It is based on
 the Gaussian(R) 09 system (copyright 2009, Gaussian, Inc.),
 the Gaussian(R) 03 system (copyright 2003, Gaussian, Inc.),
 the Gaussian(R) 98 system (copyright 1998, Gaussian, Inc.),
 the Gaussian(R) 94 system (copyright 1995, Gaussian, Inc.),
 the Gaussian 92(TM) system (copyright 1992, Gaussian, Inc.),
 the Gaussian 90(TM) system (copyright 1990, Gaussian, Inc.),
 the Gaussian 88(TM) system (copyright 1988, Gaussian, Inc.),
 the Gaussian 86(TM) system (copyright 1986, Carnegie Mellon
 University), and the Gaussian 82(TM) system (copyright 1983,
 Carnegie Mellon University). Gaussian is a federally registered
 trademark of Gaussian, Inc.
  
 This software contains proprietary and confidential information,
 including trade secrets, belonging to Gaussian, Inc.
  
 This software is provided under written license and may be
 used, copied, transmitted, or stored only in accord with that
 written license.
  
 The following legend is applicable only to US Government
 contracts under FAR:
  
                    RESTRICTED RIGHTS LEGEND
  
 Use, reproduction and disclosure by the US Government is
 subject to restrictions as set forth in subparagraphs (a)
 and (c) of the Commercial Computer Software - Restricted
 Rights clause in FAR 52.227-19.
  
 Gaussian, Inc.
 340 Quinnipiac St., Bldg. 40, Wallingford CT 06492
  
  
 ---------------------------------------------------------------
 Warning -- This program may not be used in any manner that
 competes with the business of Gaussian, Inc. or will provide
 assistance to any competitor of Gaussian, Inc.  The licensee
 of this program is prohibited from giving any competitor of
 Gaussian, Inc. access to this program.  By using this program,
 the user acknowledges that Gaussian, Inc. is engaged in the
 business of creating and licensing software in the field of
 computational chemistry and represents and warrants to the
 licensee that it is not a competitor of Gaussian, Inc. and that
 it will not use this program in any manner prohibited above.
 ---------------------------------------------------------------
  

 Cite this work as:
 Gaussian 16, Revision A.03,
 M. J. Frisch, G. W. Trucks, H. B. Schlegel, G. E. Scuseria, 
 M. A. Robb, J. R. Cheeseman, G. Scalmani, V. Barone, 
 G. A. Petersson, H. Nakatsuji, X. Li, M. Caricato, A. V. Marenich, 
 J. Bloino, B. G. Janesko, R. Gomperts, B. Mennucci, H. P. Hratchian, 
 J. V. Ortiz, A. F. Izmaylov, J. L. Sonnenberg, D. Williams-Young, 
 F. Ding, F. Lipparini, F. Egidi, J. Goings, B. Peng, A. Petrone, 
 T. Henderson, D. Ranasinghe, V. G. Zakrzewski, J. Gao, N. Rega, 
 G. Zheng, W. Liang, M. Hada, M. Ehara, K. Toyota, R. Fukuda, 
 J. Hasegawa, M. Ishida, T. Nakajima, Y. Honda, O. Kitao, H. Nakai, 
 T. Vreven, K. Throssell, J. A. Montgomery, Jr., J. E. Peralta, 
 F. Ogliaro, M. J. Bearpark, J. J. Heyd, E. N. Brothers, K. N. Kudin, 
 V. N. Staroverov, T. A. Keith, R. Kobayashi, J. Normand, 
 K. Raghavachari, A. P. Rendell, J. C. Burant, S. S. Iyengar, 
 J. Tomasi, M. Cossi, J. M. Millam, M. Klene, C. Adamo, R. Cammi, 
 J. W. Ochterski, R. L. Martin, K. Morokuma, O. Farkas, 
 J. B. Foresman, and D. J. Fox, Gaussian, Inc., Wallingford CT, 2016.
 
 ******************************************
 Gaussian 16:  ES64L-G16RevA.03 25-Dec-2016
                10-Sep-2021 
 ******************************************
 %nproc=24
 Will use up to   24 processors via shared memory.
 %mem=175gb
 -----------------------------------
 #p cam-b3lyp/Def2SVP td=(nstates=5)
 -----------------------------------
 1/38=1,172=1/1;
 2/12=2,17=6,18=5,40=1/2;
 3/5=43,7=101,11=9,25=1,30=1,74=-40/1,2,3,8;
 4//1;
 5/5=2,38=5/2;
 8/6=1,10=1,108=5/1;
 9/41=5,42=1,70=2/14;
 6/7=2,8=2,9=2,10=2/1;
 99/5=1,9=1/99;
 Leave Link    1 at Fri Sep 10 17:50:01 2021, MaxMem= 23488102400 cpu:               0.6 elap:               0.0
 (Enter /sw/apps/gaussian-16.0/g16/l101.exe)
 --------------------------------
 TDDFT excited states in gaussian
 --------------------------------
 Symbolic Z-matrix:
 Charge =  0 Multiplicity = 1
 Mg                    0.        0.        0. 
 C                    -0.217    -2.218     2.801 
 C                    -1.255     2.442     2.026 
 C                    -0.245     1.85     -2.564 
 C                     0.146    -2.824    -2.037 
 N                    -0.617    -0.009     2.126 
 C                    -0.594    -0.908     3.105 
 C                    -0.936    -0.309     4.502 
 C                    -1.773     0.964     4.032 
 C                    -1.155     1.168     2.66 
 C                    -3.263     0.685     3.863 
 C                     0.345     0.11      5.299 
 C                     0.124     0.397     6.787 
 H                     1.168     0.033     7.733 
 N                    -0.185     1.961    -0.152 
 C                    -0.703     2.8       0.777 
 C                    -0.62      4.156     0.193 
 C                    -0.187     4.015    -1.225 
 C                    -0.214     2.583    -1.38 
 C                    -0.887     5.406     0.974 
 C                     0.181     5.013    -2.277 
 O                     0.303     4.69     -3.508 
 C                     0.31      6.414    -1.837 
 N                    -0.265    -0.413    -2.029 
 C                    -0.279     0.569    -2.937 
 C                    -0.196     0.024    -4.332 
 C                     0.124    -1.533    -4.18 
 C                     0.086    -1.632    -2.635 
 C                    -1.451     0.205    -5.197 
 C                     1.373    -2.07     -4.923 
 C                     2.626    -1.49     -4.306 
 N                     0.15     -2.144     0.303 
 C                     0.173    -3.136    -0.688 
 C                     0.173    -4.438     0.004 
 C                     0.133    -4.111     1.358 
 C                     0.083    -2.695     1.502 
 C                     0.149    -5.715    -0.623 
 C                     0.096    -4.629     2.716 
 O                     0.208    -5.747     3.221 
 C                    -0.255    -3.428     3.701 
 C                     0.717    -3.482     4.848 
 O                     1.931    -3.255     4.669 
 O                     0.038    -3.556     6.003 
 C                     0.943    -3.583     7.183 
 H                    -1.859     3.22      2.497 
 H                    -0.218     2.453    -3.474 
 H                     0.276    -3.747    -2.605 
 H                    -1.554    -0.949     5.132 
 H                    -1.585     1.831     4.665 
 H                    -3.484    -0.377     3.969 
 H                    -3.511     1.027     2.858 
 H                    -3.852     1.301     4.543 
 H                     0.669     1.096     4.966 
 H                     1.13     -0.639     5.189 
 H                    -0.844     0.026     7.125 
 H                     0.062     1.477     6.921 
 H                    -1.344     5.186     1.938 
 H                    -1.651     5.963     0.432 
 H                     0.007     6.02      1.084 
 H                    -0.635     6.744    -1.405 
 H                     0.665     6.97     -2.704 
 H                     1.048     6.466    -1.036 
 H                     0.608     0.501    -4.891 
 H                    -0.692    -2.156    -4.547 
 H                    -1.267     0.74     -6.129 
 H                    -2.204     0.714    -4.596 
 H                    -1.967    -0.72     -5.453 
 H                     1.356    -1.759    -5.967 
 H                     1.452    -3.157    -4.902 
 H                     2.714    -0.522    -4.798 
 H                     3.487    -2.121    -4.529 
 H                     2.495    -1.303    -3.24 
 H                     0.867    -6.333    -0.084 
 H                     0.404    -5.642    -1.68 
 H                    -0.891    -5.999    -0.463 
 H                    -1.283    -3.581     4.028 
 H                     0.698    -4.478     7.755 
 H                     0.833    -2.619     7.68 
 H                     2.       -3.754     6.976 
 Mg                    10.51782   0.95326   0.79458 
 C                     9.89456   3.7757    2.92165 
 C                     9.65613   2.93889  -1.84159 
 C                     10.62123  -1.62436  -1.05274 
 C                     10.21594  -1.066     3.61897 
 N                     9.87709   3.06727   0.68182 
 C                     9.73596   4.05848   1.54895 
 C                     9.48524   5.44746   0.90285 
 C                     8.87094   4.95436  -0.49657 
 C                     9.5325    3.5805   -0.58336 
 C                     7.36463   4.75747  -0.45658 
 C                     10.81252   6.25781   0.69383 
 C                     10.61624   7.73733   0.35582 
 H                     11.57867   8.70401   0.8771 
 N                     10.66592   0.79197  -1.17789 
 C                     10.28862   1.70284  -2.09942 
 C                     10.58794   1.09964  -3.40737 
 C                     11.01989  -0.30737  -3.18723 
 C                     10.76015  -0.44388  -1.76808 
 C                     10.5296   1.87305  -4.69262 
 C                     11.56325  -1.36035  -4.10494 
 O                     11.64743  -2.58796  -3.74618 
 C                     11.90661  -0.92857  -5.46771 
 N                     10.22237  -1.0687    1.17761 
 C                     10.37895  -1.98623   0.20728 
 C                     10.38685  -3.38528   0.77561 
 C                     10.44564  -3.20368   2.36342 
 C                     10.36812  -1.66331   2.44499 
 C                     9.18825  -4.25956   0.40765 
 C                     11.59872  -3.92642   3.11223 
 C                     12.9257  -3.30655   2.7377 
 N                     10.31182   1.2742    2.92122 
 C                     10.17574   0.28867   3.92336 
 C                     9.95043   0.99518   5.20105 
 C                     9.94808   2.35283   4.84715 
 C                     10.13701   2.48248   3.44466 
 C                     9.73353   0.37865   6.46556 
 C                     9.81813   3.70537   5.33955 
 O                     9.72946   4.21941   6.45384 
 C                     9.65134   4.68185   4.09654 
 C                     10.58622   5.84417   4.29024 
 O                     11.81798   5.67313   4.27971 
 O                     9.88199   6.98948   4.23827 
 C                     10.76731   8.17145   4.41427 
 H                     9.18825   3.40435  -2.70953 
 H                     10.75966  -2.54304  -1.62751 
 H                     10.21009  -1.62063   4.55972 
 H                     8.76789   6.06876   1.4255 
 H                     9.19851   5.5878   -1.31682 
 H                     6.9702    4.8684    0.54255 
 H                     7.1892    3.75462  -0.82341 
 H                     6.87766   5.42873  -1.16974 
 H                     11.29848   5.91702  -0.22945 
 H                     11.45449   6.16439   1.5481 
 H                     9.59044   8.07236   0.55187 
 H                     10.73884   7.8662   -0.72231 
 H                     10.02187   2.83635  -4.55972 
 H                     9.87792   1.3141   -5.37287 
 H                     11.51024   1.98974  -5.15887 
 H                     11.0245  -0.51096  -5.94725 
 H                     12.36134  -1.7992   -5.94426 
 H                     12.64264  -0.11942  -5.40333 
 H                     11.26541  -3.92945   0.45137 
 H                     9.53894  -3.59024   2.85159 
 H                     9.47434  -5.2056   -0.08957 
 H                     8.52632  -3.68276  -0.22455 
 H                     8.53871  -4.52656   1.23952 
 H                     11.6491  -4.97486   2.80828 
 H                     11.49062  -3.90886   4.19158 
 H                     13.17453  -3.80602   1.79659 
 H                     13.6729  -3.51001   3.50212 
 H                     12.8142  -2.23719   2.52391 
 H                     10.32536   0.92817   7.18547 
 H                     10.00637  -0.67442   6.44646 
 H                     8.6546    0.52132   6.5696 
 H                     8.6076    4.9968    4.0651 
 H                     10.36587   8.74933   5.25247 
 H                     10.79886   8.67063   3.42757 
 H                     11.78257   7.99192   4.74814 
 
 ITRead=  0  0  0  0  0  0  0  0  0  0  0  0  0  0  0  0  0  0  0  0
 ITRead=  0  0  0  0  0  0  0  0  0  0  0  0  0  0  0  0  0  0  0  0
 ITRead=  0  0  0  0  0  0  0  0  0  0  0  0  0  0  0  0  0  0  0  0
 ITRead=  0  0  0  0  0  0  0  0  0  0  0  0  0  0  0  0  0  0  0  0
 ITRead=  0  0  0  0  0  0  0  0  0  0  0  0  0  0  0  0  0  0  0  0
 ITRead=  0  0  0  0  0  0  0  0  0  0  0  0  0  0  0  0  0  0  0  0
 ITRead=  0  0  0  0  0  0  0  0  0  0  0  0  0  0  0  0  0  0  0  0
 ITRead=  0  0  0  0  0  0  0  0  0  0  0  0  0  0  0  0  0  0
 MicOpt= -1 -1 -1 -1 -1 -1 -1 -1 -1 -1 -1 -1 -1 -1 -1 -1 -1 -1 -1 -1
 MicOpt= -1 -1 -1 -1 -1 -1 -1 -1 -1 -1 -1 -1 -1 -1 -1 -1 -1 -1 -1 -1
 MicOpt= -1 -1 -1 -1 -1 -1 -1 -1 -1 -1 -1 -1 -1 -1 -1 -1 -1 -1 -1 -1
 MicOpt= -1 -1 -1 -1 -1 -1 -1 -1 -1 -1 -1 -1 -1 -1 -1 -1 -1 -1 -1 -1
 MicOpt= -1 -1 -1 -1 -1 -1 -1 -1 -1 -1 -1 -1 -1 -1 -1 -1 -1 -1 -1 -1
 MicOpt= -1 -1 -1 -1 -1 -1 -1 -1 -1 -1 -1 -1 -1 -1 -1 -1 -1 -1 -1 -1
 MicOpt= -1 -1 -1 -1 -1 -1 -1 -1 -1 -1 -1 -1 -1 -1 -1 -1 -1 -1 -1 -1
 MicOpt= -1 -1 -1 -1 -1 -1 -1 -1 -1 -1 -1 -1 -1 -1 -1 -1 -1 -1
 NAtoms=    158 NQM=      158 NQMF=       0 NMMI=      0 NMMIF=      0
                NMic=       0 NMicF=      0.
                    Isotopes and Nuclear Properties:
 (Nuclear quadrupole moments (NQMom) in fm**2, nuclear magnetic moments (NMagM)
  in nuclear magnetons)

  Atom         1           2           3           4           5           6           7           8           9          10
 IAtWgt=          24          12          12          12          12          14          12          12          12          12
 AtmWgt=  23.9850450  12.0000000  12.0000000  12.0000000  12.0000000  14.0030740  12.0000000  12.0000000  12.0000000  12.0000000
 NucSpn=           0           0           0           0           0           2           0           0           0           0
 AtZEff=  -0.0000000  -0.0000000  -0.0000000  -0.0000000  -0.0000000  -0.0000000  -0.0000000  -0.0000000  -0.0000000  -0.0000000
 NQMom=    0.0000000   0.0000000   0.0000000   0.0000000   0.0000000   2.0440000   0.0000000   0.0000000   0.0000000   0.0000000
 NMagM=    0.0000000   0.0000000   0.0000000   0.0000000   0.0000000   0.4037610   0.0000000   0.0000000   0.0000000   0.0000000
 AtZNuc=  12.0000000   6.0000000   6.0000000   6.0000000   6.0000000   7.0000000   6.0000000   6.0000000   6.0000000   6.0000000

  Atom        11          12          13          14          15          16          17          18          19          20
 IAtWgt=          12          12          12           1          14          12          12          12          12          12
 AtmWgt=  12.0000000  12.0000000  12.0000000   1.0078250  14.0030740  12.0000000  12.0000000  12.0000000  12.0000000  12.0000000
 NucSpn=           0           0           0           1           2           0           0           0           0           0
 AtZEff=  -0.0000000  -0.0000000  -0.0000000  -0.0000000  -0.0000000  -0.0000000  -0.0000000  -0.0000000  -0.0000000  -0.0000000
 NQMom=    0.0000000   0.0000000   0.0000000   0.0000000   2.0440000   0.0000000   0.0000000   0.0000000   0.0000000   0.0000000
 NMagM=    0.0000000   0.0000000   0.0000000   2.7928460   0.4037610   0.0000000   0.0000000   0.0000000   0.0000000   0.0000000
 AtZNuc=   6.0000000   6.0000000   6.0000000   1.0000000   7.0000000   6.0000000   6.0000000   6.0000000   6.0000000   6.0000000

  Atom        21          22          23          24          25          26          27          28          29          30
 IAtWgt=          12          16          12          14          12          12          12          12          12          12
 AtmWgt=  12.0000000  15.9949146  12.0000000  14.0030740  12.0000000  12.0000000  12.0000000  12.0000000  12.0000000  12.0000000
 NucSpn=           0           0           0           2           0           0           0           0           0           0
 AtZEff=  -0.0000000  -0.0000000  -0.0000000  -0.0000000  -0.0000000  -0.0000000  -0.0000000  -0.0000000  -0.0000000  -0.0000000
 NQMom=    0.0000000   0.0000000   0.0000000   2.0440000   0.0000000   0.0000000   0.0000000   0.0000000   0.0000000   0.0000000
 NMagM=    0.0000000   0.0000000   0.0000000   0.4037610   0.0000000   0.0000000   0.0000000   0.0000000   0.0000000   0.0000000
 AtZNuc=   6.0000000   8.0000000   6.0000000   7.0000000   6.0000000   6.0000000   6.0000000   6.0000000   6.0000000   6.0000000

  Atom        31          32          33          34          35          36          37          38          39          40
 IAtWgt=          12          14          12          12          12          12          12          12          16          12
 AtmWgt=  12.0000000  14.0030740  12.0000000  12.0000000  12.0000000  12.0000000  12.0000000  12.0000000  15.9949146  12.0000000
 NucSpn=           0           2           0           0           0           0           0           0           0           0
 AtZEff=  -0.0000000  -0.0000000  -0.0000000  -0.0000000  -0.0000000  -0.0000000  -0.0000000  -0.0000000  -0.0000000  -0.0000000
 NQMom=    0.0000000   2.0440000   0.0000000   0.0000000   0.0000000   0.0000000   0.0000000   0.0000000   0.0000000   0.0000000
 NMagM=    0.0000000   0.4037610   0.0000000   0.0000000   0.0000000   0.0000000   0.0000000   0.0000000   0.0000000   0.0000000
 AtZNuc=   6.0000000   7.0000000   6.0000000   6.0000000   6.0000000   6.0000000   6.0000000   6.0000000   8.0000000   6.0000000

  Atom        41          42          43          44          45          46          47          48          49          50
 IAtWgt=          12          16          16          12           1           1           1           1           1           1
 AtmWgt=  12.0000000  15.9949146  15.9949146  12.0000000   1.0078250   1.0078250   1.0078250   1.0078250   1.0078250   1.0078250
 NucSpn=           0           0           0           0           1           1           1           1           1           1
 AtZEff=  -0.0000000  -0.0000000  -0.0000000  -0.0000000  -0.0000000  -0.0000000  -0.0000000  -0.0000000  -0.0000000  -0.0000000
 NQMom=    0.0000000   0.0000000   0.0000000   0.0000000   0.0000000   0.0000000   0.0000000   0.0000000   0.0000000   0.0000000
 NMagM=    0.0000000   0.0000000   0.0000000   0.0000000   2.7928460   2.7928460   2.7928460   2.7928460   2.7928460   2.7928460
 AtZNuc=   6.0000000   8.0000000   8.0000000   6.0000000   1.0000000   1.0000000   1.0000000   1.0000000   1.0000000   1.0000000

  Atom        51          52          53          54          55          56          57          58          59          60
 IAtWgt=           1           1           1           1           1           1           1           1           1           1
 AtmWgt=   1.0078250   1.0078250   1.0078250   1.0078250   1.0078250   1.0078250   1.0078250   1.0078250   1.0078250   1.0078250
 NucSpn=           1           1           1           1           1           1           1           1           1           1
 AtZEff=  -0.0000000  -0.0000000  -0.0000000  -0.0000000  -0.0000000  -0.0000000  -0.0000000  -0.0000000  -0.0000000  -0.0000000
 NQMom=    0.0000000   0.0000000   0.0000000   0.0000000   0.0000000   0.0000000   0.0000000   0.0000000   0.0000000   0.0000000
 NMagM=    2.7928460   2.7928460   2.7928460   2.7928460   2.7928460   2.7928460   2.7928460   2.7928460   2.7928460   2.7928460
 AtZNuc=   1.0000000   1.0000000   1.0000000   1.0000000   1.0000000   1.0000000   1.0000000   1.0000000   1.0000000   1.0000000

  Atom        61          62          63          64          65          66          67          68          69          70
 IAtWgt=           1           1           1           1           1           1           1           1           1           1
 AtmWgt=   1.0078250   1.0078250   1.0078250   1.0078250   1.0078250   1.0078250   1.0078250   1.0078250   1.0078250   1.0078250
 NucSpn=           1           1           1           1           1           1           1           1           1           1
 AtZEff=  -0.0000000  -0.0000000  -0.0000000  -0.0000000  -0.0000000  -0.0000000  -0.0000000  -0.0000000  -0.0000000  -0.0000000
 NQMom=    0.0000000   0.0000000   0.0000000   0.0000000   0.0000000   0.0000000   0.0000000   0.0000000   0.0000000   0.0000000
 NMagM=    2.7928460   2.7928460   2.7928460   2.7928460   2.7928460   2.7928460   2.7928460   2.7928460   2.7928460   2.7928460
 AtZNuc=   1.0000000   1.0000000   1.0000000   1.0000000   1.0000000   1.0000000   1.0000000   1.0000000   1.0000000   1.0000000

  Atom        71          72          73          74          75          76          77          78          79          80
 IAtWgt=           1           1           1           1           1           1           1           1           1          24
 AtmWgt=   1.0078250   1.0078250   1.0078250   1.0078250   1.0078250   1.0078250   1.0078250   1.0078250   1.0078250  23.9850450
 NucSpn=           1           1           1           1           1           1           1           1           1           0
 AtZEff=  -0.0000000  -0.0000000  -0.0000000  -0.0000000  -0.0000000  -0.0000000  -0.0000000  -0.0000000  -0.0000000  -0.0000000
 NQMom=    0.0000000   0.0000000   0.0000000   0.0000000   0.0000000   0.0000000   0.0000000   0.0000000   0.0000000   0.0000000
 NMagM=    2.7928460   2.7928460   2.7928460   2.7928460   2.7928460   2.7928460   2.7928460   2.7928460   2.7928460   0.0000000
 AtZNuc=   1.0000000   1.0000000   1.0000000   1.0000000   1.0000000   1.0000000   1.0000000   1.0000000   1.0000000  12.0000000

  Atom        81          82          83          84          85          86          87          88          89          90
 IAtWgt=          12          12          12          12          14          12          12          12          12          12
 AtmWgt=  12.0000000  12.0000000  12.0000000  12.0000000  14.0030740  12.0000000  12.0000000  12.0000000  12.0000000  12.0000000
 NucSpn=           0           0           0           0           2           0           0           0           0           0
 AtZEff=  -0.0000000  -0.0000000  -0.0000000  -0.0000000  -0.0000000  -0.0000000  -0.0000000  -0.0000000  -0.0000000  -0.0000000
 NQMom=    0.0000000   0.0000000   0.0000000   0.0000000   2.0440000   0.0000000   0.0000000   0.0000000   0.0000000   0.0000000
 NMagM=    0.0000000   0.0000000   0.0000000   0.0000000   0.4037610   0.0000000   0.0000000   0.0000000   0.0000000   0.0000000
 AtZNuc=   6.0000000   6.0000000   6.0000000   6.0000000   7.0000000   6.0000000   6.0000000   6.0000000   6.0000000   6.0000000

  Atom        91          92          93          94          95          96          97          98          99         100
 IAtWgt=          12          12           1          14          12          12          12          12          12          12
 AtmWgt=  12.0000000  12.0000000   1.0078250  14.0030740  12.0000000  12.0000000  12.0000000  12.0000000  12.0000000  12.0000000
 NucSpn=           0           0           1           2           0           0           0           0           0           0
 AtZEff=  -0.0000000  -0.0000000  -0.0000000  -0.0000000  -0.0000000  -0.0000000  -0.0000000  -0.0000000  -0.0000000  -0.0000000
 NQMom=    0.0000000   0.0000000   0.0000000   2.0440000   0.0000000   0.0000000   0.0000000   0.0000000   0.0000000   0.0000000
 NMagM=    0.0000000   0.0000000   2.7928460   0.4037610   0.0000000   0.0000000   0.0000000   0.0000000   0.0000000   0.0000000
 AtZNuc=   6.0000000   6.0000000   1.0000000   7.0000000   6.0000000   6.0000000   6.0000000   6.0000000   6.0000000   6.0000000

  Atom       101         102         103         104         105         106         107         108         109         110
 IAtWgt=          16          12          14          12          12          12          12          12          12          12
 AtmWgt=  15.9949146  12.0000000  14.0030740  12.0000000  12.0000000  12.0000000  12.0000000  12.0000000  12.0000000  12.0000000
 NucSpn=           0           0           2           0           0           0           0           0           0           0
 AtZEff=  -0.0000000  -0.0000000  -0.0000000  -0.0000000  -0.0000000  -0.0000000  -0.0000000  -0.0000000  -0.0000000  -0.0000000
 NQMom=    0.0000000   0.0000000   2.0440000   0.0000000   0.0000000   0.0000000   0.0000000   0.0000000   0.0000000   0.0000000
 NMagM=    0.0000000   0.0000000   0.4037610   0.0000000   0.0000000   0.0000000   0.0000000   0.0000000   0.0000000   0.0000000
 AtZNuc=   8.0000000   6.0000000   7.0000000   6.0000000   6.0000000   6.0000000   6.0000000   6.0000000   6.0000000   6.0000000

  Atom       111         112         113         114         115         116         117         118         119         120
 IAtWgt=          14          12          12          12          12          12          12          16          12          12
 AtmWgt=  14.0030740  12.0000000  12.0000000  12.0000000  12.0000000  12.0000000  12.0000000  15.9949146  12.0000000  12.0000000
 NucSpn=           2           0           0           0           0           0           0           0           0           0
 AtZEff=  -0.0000000  -0.0000000  -0.0000000  -0.0000000  -0.0000000  -0.0000000  -0.0000000  -0.0000000  -0.0000000  -0.0000000
 NQMom=    2.0440000   0.0000000   0.0000000   0.0000000   0.0000000   0.0000000   0.0000000   0.0000000   0.0000000   0.0000000
 NMagM=    0.4037610   0.0000000   0.0000000   0.0000000   0.0000000   0.0000000   0.0000000   0.0000000   0.0000000   0.0000000
 AtZNuc=   7.0000000   6.0000000   6.0000000   6.0000000   6.0000000   6.0000000   6.0000000   8.0000000   6.0000000   6.0000000

  Atom       121         122         123         124         125         126         127         128         129         130
 IAtWgt=          16          16          12           1           1           1           1           1           1           1
 AtmWgt=  15.9949146  15.9949146  12.0000000   1.0078250   1.0078250   1.0078250   1.0078250   1.0078250   1.0078250   1.0078250
 NucSpn=           0           0           0           1           1           1           1           1           1           1
 AtZEff=  -0.0000000  -0.0000000  -0.0000000  -0.0000000  -0.0000000  -0.0000000  -0.0000000  -0.0000000  -0.0000000  -0.0000000
 NQMom=    0.0000000   0.0000000   0.0000000   0.0000000   0.0000000   0.0000000   0.0000000   0.0000000   0.0000000   0.0000000
 NMagM=    0.0000000   0.0000000   0.0000000   2.7928460   2.7928460   2.7928460   2.7928460   2.7928460   2.7928460   2.7928460
 AtZNuc=   8.0000000   8.0000000   6.0000000   1.0000000   1.0000000   1.0000000   1.0000000   1.0000000   1.0000000   1.0000000

  Atom       131         132         133         134         135         136         137         138         139         140
 IAtWgt=           1           1           1           1           1           1           1           1           1           1
 AtmWgt=   1.0078250   1.0078250   1.0078250   1.0078250   1.0078250   1.0078250   1.0078250   1.0078250   1.0078250   1.0078250
 NucSpn=           1           1           1           1           1           1           1           1           1           1
 AtZEff=  -0.0000000  -0.0000000  -0.0000000  -0.0000000  -0.0000000  -0.0000000  -0.0000000  -0.0000000  -0.0000000  -0.0000000
 NQMom=    0.0000000   0.0000000   0.0000000   0.0000000   0.0000000   0.0000000   0.0000000   0.0000000   0.0000000   0.0000000
 NMagM=    2.7928460   2.7928460   2.7928460   2.7928460   2.7928460   2.7928460   2.7928460   2.7928460   2.7928460   2.7928460
 AtZNuc=   1.0000000   1.0000000   1.0000000   1.0000000   1.0000000   1.0000000   1.0000000   1.0000000   1.0000000   1.0000000

  Atom       141         142         143         144         145         146         147         148         149         150
 IAtWgt=           1           1           1           1           1           1           1           1           1           1
 AtmWgt=   1.0078250   1.0078250   1.0078250   1.0078250   1.0078250   1.0078250   1.0078250   1.0078250   1.0078250   1.0078250
 NucSpn=           1           1           1           1           1           1           1           1           1           1
 AtZEff=  -0.0000000  -0.0000000  -0.0000000  -0.0000000  -0.0000000  -0.0000000  -0.0000000  -0.0000000  -0.0000000  -0.0000000
 NQMom=    0.0000000   0.0000000   0.0000000   0.0000000   0.0000000   0.0000000   0.0000000   0.0000000   0.0000000   0.0000000
 NMagM=    2.7928460   2.7928460   2.7928460   2.7928460   2.7928460   2.7928460   2.7928460   2.7928460   2.7928460   2.7928460
 AtZNuc=   1.0000000   1.0000000   1.0000000   1.0000000   1.0000000   1.0000000   1.0000000   1.0000000   1.0000000   1.0000000

  Atom       151         152         153         154         155         156         157         158
 IAtWgt=           1           1           1           1           1           1           1           1
 AtmWgt=   1.0078250   1.0078250   1.0078250   1.0078250   1.0078250   1.0078250   1.0078250   1.0078250
 NucSpn=           1           1           1           1           1           1           1           1
 AtZEff=  -0.0000000  -0.0000000  -0.0000000  -0.0000000  -0.0000000  -0.0000000  -0.0000000  -0.0000000
 NQMom=    0.0000000   0.0000000   0.0000000   0.0000000   0.0000000   0.0000000   0.0000000   0.0000000
 NMagM=    2.7928460   2.7928460   2.7928460   2.7928460   2.7928460   2.7928460   2.7928460   2.7928460
 AtZNuc=   1.0000000   1.0000000   1.0000000   1.0000000   1.0000000   1.0000000   1.0000000   1.0000000
 Leave Link  101 at Fri Sep 10 17:50:02 2021, MaxMem= 23488102400 cpu:               4.0 elap:               0.2
 (Enter /sw/apps/gaussian-16.0/g16/l202.exe)
 Stoichiometry    C68H72Mg2N8O8
 Framework group  C1[X(C68H72Mg2N8O8)]
 Deg. of freedom   468
 Full point group                 C1      NOp   1
 Largest Abelian subgroup         C1      NOp   1
 Largest concise Abelian subgroup C1      NOp   1
                         Standard orientation:                         
 ---------------------------------------------------------------------
 Center     Atomic      Atomic             Coordinates (Angstroms)
 Number     Number       Type             X           Y           Z
 ---------------------------------------------------------------------
      1         12           0        5.155902   -0.859883    0.346056
      2          6           0        5.774141    2.495144   -0.737359
      3          6           0        5.715848    0.224169    3.532646
      4          6           0        5.063226   -3.889906    1.277179
      5          6           0        5.763228   -1.873652   -2.932525
      6          7           0        5.669770    1.131066    1.166244
      7          6           0        5.819042    2.347258    0.650718
      8          6           0        5.952583    3.463433    1.729464
      9          6           0        6.484650    2.577655    2.943672
     10          6           0        5.892887    1.237438    2.544225
     11          6           0        8.004086    2.450857    2.985375
     12          6           0        4.577293    4.131454    2.067187
     13          6           0        4.663122    5.438639    2.860443
     14          1           0        3.696325    6.490382    2.583877
     15          7           0        4.879719   -1.641225    2.139398
     16          6           0        5.146829   -1.051694    3.329521
     17          6           0        4.770726   -2.037069    4.365988
     18          6           0        4.441773   -3.316912    3.679049
     19          6           0        4.811771   -3.004173    2.322335
     20          6           0        4.703360   -1.710176    5.826246
     21          6           0        3.892522   -4.619149    4.169595
     22          8           0        3.900744   -5.675362    3.449234
     23          6           0        3.419081   -4.648396    5.565317
     24          7           0        5.593882   -2.656881   -0.621728
     25          6           0        5.413397   -3.832241   -0.009406
     26          6           0        5.518533   -4.973725   -0.976825
     27          6           0        5.568442   -4.317149   -2.431531
     28          6           0        5.565192   -2.824975   -2.017192
     29          6           0        6.729997   -5.898009   -0.792254
     30          6           0        4.512749   -4.800026   -3.457572
     31          6           0        3.134106   -4.355139   -3.023386
     32          7           0        5.502984    0.121835   -1.558363
     33          6           0        5.755104   -0.495968   -2.791824
     34          6           0        6.033456    0.577380   -3.763684
     35          6           0        5.939619    1.751797   -3.019518
     36          6           0        5.648609    1.430870   -1.662827
     37          6           0        6.383411    0.393819   -5.130532
     38          6           0        6.041806    3.201798   -3.049741
     39          8           0        6.175737    4.043313   -3.939352
     40          6           0        6.059167    3.734266   -1.549074
     41          6           0        5.080979    4.873777   -1.459782
     42          8           0        3.856082    4.677552   -1.595756
     43          8           0        5.710256    5.964567   -0.996392
     44          6           0        4.789406    7.124074   -0.855918
     45          1           0        6.099651    0.396713    4.540051
     46          1           0        4.932315   -4.943745    1.531588
     47          1           0        5.877818   -2.109358   -3.992131
     48          1           0        6.677562    4.241797    1.490762
     49          1           0        6.071815    2.904946    3.897700
     50          1           0        8.464549    2.884207    2.097624
     51          1           0        8.205594    1.380605    3.034848
     52          1           0        8.402910    2.873801    3.907783
     53          1           0        4.044053    3.511679    2.788016
     54          1           0        3.996079    4.298019    1.159568
     55          1           0        5.676557    5.840945    2.857322
     56          1           0        4.463344    5.215825    3.908604
     57          1           0        5.159329   -0.744723    6.041975
     58          1           0        5.336211   -2.431095    6.343436
     59          1           0        3.686116   -1.769552    6.213571
     60          1           0        4.241149   -4.381665    6.229853
     61          1           0        2.978997   -5.633979    5.712976
     62          1           0        2.657340   -3.879220    5.695967
     63          1           0        4.648442   -5.625440   -0.908735
     64          1           0        6.522630   -4.495075   -2.928062
     65          1           0        6.463569   -6.944835   -0.644347
     66          1           0        7.316518   -5.521638    0.045380
     67          1           0        7.459490   -5.862417   -1.600950
     68          1           0        4.498868   -5.888435   -3.503603
     69          1           0        4.691302   -4.427664   -4.466391
     70          1           0        2.840790   -5.128528   -2.314397
     71          1           0        2.455936   -4.330540   -3.877021
     72          1           0        3.173447   -3.411654   -2.478616
     73          1           0        5.809721    1.129765   -5.693767
     74          1           0        6.162037   -0.620035   -5.463243
     75          1           0        7.453569    0.597005   -5.094023
     76          1           0        7.079946    4.053794   -1.341626
     77          1           0        5.214678    7.943719   -1.435193
     78          1           0        4.648653    7.280182    0.213766
     79          1           0        3.811881    7.023357   -1.328824
     80         12           0       -5.313900   -0.015027   -1.008223
     81          6           0       -5.461151    1.066332    2.410553
     82          6           0       -4.836777   -3.180369    0.169739
     83          6           0       -4.731065   -0.930166   -3.989873
     84          6           0       -4.661033    3.295007   -1.881814
     85          7           0       -5.185245   -0.825751    1.045666
     86          6           0       -5.317388   -0.329380    2.266520
     87          6           0       -5.374678   -1.396791    3.392096
     88          6           0       -4.604528   -2.585634    2.635519
     89          6           0       -4.919607   -2.200893    1.191432
     90          6           0       -3.097188   -2.541717    2.823493
     91          6           0       -6.845784   -1.804674    3.754732
     92          6           0       -6.989924   -2.607631    5.049429
     93          1           0       -8.173609   -2.388672    5.876122
     94          7           0       -5.338661   -1.823776   -1.824555
     95          6           0       -5.149074   -3.002869   -1.196023
     96          6           0       -5.243843   -4.035062   -2.239945
     97          6           0       -5.340775   -3.357987   -3.561646
     98          6           0       -5.114713   -1.981248   -3.169761
     99          6           0       -5.316627   -5.501972   -1.929604
    100          6           0       -5.582555   -3.867073   -4.950376
    101          8           0       -5.389777   -3.129737   -5.980907
    102          6           0       -5.961699   -5.282227   -5.073104
    103          7           0       -4.566340    0.986250   -2.669826
    104          6           0       -4.462319    0.369134   -3.859896
    105          6           0       -4.163689    1.356977   -4.962343
    106          6           0       -4.328796    2.803114   -4.299769
    107          6           0       -4.619824    2.382086   -2.842566
    108          6           0       -2.778760    1.244400   -5.599288
    109          6           0       -5.308878    3.787773   -4.994426
    110          6           0       -6.728012    3.284526   -4.859564
    111          7           0       -5.276870    1.886059    0.017710
    112          6           0       -4.953698    3.145922   -0.532177
    113          6           0       -4.953890    4.119080    0.579298
    114          6           0       -5.256963    3.347640    1.711328
    115          6           0       -5.413338    1.986179    1.335223
    116          6           0       -4.649967    5.505471    0.471170
    117          6           0       -5.469705    3.373714    3.140583
    118          8           0       -5.550508    4.259346    3.990800
    119          6           0       -5.486770    1.877358    3.676338
    120          6           0       -6.676343    1.722431    4.583763
    121          8           0       -7.831619    1.814255    4.132647
    122          8           0       -6.260280    1.278267    5.783757
    123          6           0       -7.405635    1.098393    6.715222
    124          1           0       -4.456492   -4.168991    0.428377
    125          1           0       -4.625401   -1.173346   -5.049681
    126          1           0       -4.563319    4.363191   -2.086983
    127          1           0       -4.846014   -1.129302    4.299142
    128          1           0       -5.038145   -3.552925    2.875691
    129          1           0       -2.781392   -1.647050    3.339231
    130          1           0       -2.675484   -2.573018    1.827384
    131          1           0       -2.753218   -3.450790    3.325089
    132          1           0       -7.199410   -2.550195    3.030930
    133          1           0       -7.482206   -0.941991    3.791798
    134          1           0       -6.080893   -2.568829    5.661885
    135          1           0       -7.095037   -3.664470    4.792437
    136          1           0       -5.056070   -5.705238   -0.883568
    137          1           0       -4.524212   -5.990627   -2.506793
    138          1           0       -6.277144   -5.943374   -2.203887
    139          1           0       -5.183889   -5.903720   -4.635802
    140          1           0       -6.178511   -5.435910   -6.131995
    141          1           0       -6.869666   -5.453511   -4.484150
    142          1           0       -4.875209    1.258538   -5.773003
    143          1           0       -3.377385    3.354833   -4.283409
    144          1           0       -2.813209    1.088999   -6.694153
    145          1           0       -2.245976    0.435651   -5.117008
    146          1           0       -2.119337    2.092636   -5.423628
    147          1           0       -5.098271    3.839202   -6.065476
    148          1           0       -5.252397    4.799237   -4.606172
    149          1           0       -6.813268    2.564146   -5.678624
    150          1           0       -7.436990    4.101576   -4.977121
    151          1           0       -6.862931    2.734194   -3.921160
    152          1           0       -5.383676    6.032408    1.066580
    153          1           0       -4.665975    5.836347   -0.565183
    154          1           0       -3.640243    5.517048    0.890208
    155          1           0       -4.546242    1.706697    4.201559
    156          1           0       -7.186445    1.690398    7.609183
    157          1           0       -7.513351    0.005539    6.848711
    158          1           0       -8.362843    1.510572    6.418045
 ---------------------------------------------------------------------
 Rotational constants (GHZ):           0.0203665           0.0107856           0.0107745
 Leave Link  202 at Fri Sep 10 17:50:02 2021, MaxMem= 23488102400 cpu:               0.2 elap:               0.0
 (Enter /sw/apps/gaussian-16.0/g16/l301.exe)
 Standard basis: def2SVP (5D, 7F)
 Ernie: Thresh=  0.10000D-02 Tol=  0.10000D-05 Strict=F.
 There are  1658 symmetry adapted cartesian basis functions of A   symmetry.
 There are  1572 symmetry adapted basis functions of A   symmetry.
  1572 basis functions,  2678 primitive gaussians,  1658 cartesian basis functions
   312 alpha electrons      312 beta electrons
       nuclear repulsion energy     14930.8608028499 Hartrees.
 IExCor=20419 DFT=T Ex+Corr=CAM-B3LYP ExCW=0 ScaHFX=  1.000000
 ScaDFX=  1.000000  1.000000  1.000000  0.810000 ScalE2=  1.000000  1.000000
 IRadAn=      5 IRanWt=     -1 IRanGd=            0 ICorTp=0 IEmpDi=  4
 HFx  wShort=  0.000000 wLong=  0.330000 cFull=  0.190000 cShort=  0.000000 cLong=  0.460000
 DFx  wShort=  0.000000 wLong=  0.330000 cFull=  0.190000 cShort=  0.000000 cLong=  0.460000
 NAtoms=  158 NActive=  158 NUniq=  158 SFac= 1.00D+00 NAtFMM=   60 NAOKFM=T Big=T
 Integral buffers will be    131072 words long.
 Raffenetti 1 integral format.
 Two-electron integral symmetry is turned on.
 Leave Link  301 at Fri Sep 10 17:50:02 2021, MaxMem= 23488102400 cpu:               1.4 elap:               0.1
 (Enter /sw/apps/gaussian-16.0/g16/l302.exe)
 NPDir=0 NMtPBC=     1 NCelOv=     1 NCel=       1 NClECP=     1 NCelD=      1
         NCelK=      1 NCelE2=     1 NClLst=     1 CellRange=     0.0.
 One-electron integrals computed using PRISM.
 One-electron integral symmetry used in STVInt
   1 Symmetry operations used in ECPInt.
 ECPInt:  NShTT=  271216 NPrTT=  987664 LenC2=  137081 LenP2D=  286083.
 LDataN:  DoStor=T MaxTD1= 4 Len=   56
 NBasis=  1572 RedAO= T EigKep=  3.36D-04  NBF=  1572
 NBsUse=  1572 1.00D-06 EigRej= -1.00D+00 NBFU=  1572
 Precomputing XC quadrature grid using
 IXCGrd= 4 IRadAn=           5 IRanWt=          -1 IRanGd=           0 AccXCQ= 0.00D+00.
 Generated NRdTot=       0 NPtTot=           0 NUsed=           0 NTot=          32
 NSgBfM=  1125  1114  1119  1125  1125 MxSgAt=   158 MxSgA2=   156.
 Leave Link  302 at Fri Sep 10 17:50:07 2021, MaxMem= 23488102400 cpu:             119.7 elap:               5.0
 (Enter /sw/apps/gaussian-16.0/g16/l303.exe)
 DipDrv:  MaxL=1.
 Leave Link  303 at Fri Sep 10 17:50:07 2021, MaxMem= 23488102400 cpu:               9.0 elap:               0.4
 (Enter /sw/apps/gaussian-16.0/g16/l308.exe)
 Leave Link  308 at Fri Sep 10 17:50:08 2021, MaxMem= 23488102400 cpu:              13.7 elap:               0.7
 (Enter /sw/apps/gaussian-16.0/g16/l401.exe)
 ExpMin= 3.36D-02 ExpMax= 4.95D+03 ExpMxC= 7.45D+02 IAcc=3 IRadAn=         5 AccDes= 0.00D+00
 Harris functional with IExCor=20419 and IRadAn=       5 diagonalized for initial guess.
 HarFok:  IExCor=20419 AccDes= 0.00D+00 IRadAn=         5 IDoV= 1 UseB2=F ITyADJ=14
 ICtDFT=  3500011 ScaDFX=  1.000000  1.000000  1.000000  1.000000
 FoFCou: FMM=F IPFlag=           0 FMFlag=      100000 FMFlg1=        2001
         NFxFlg=           0 DoJE=T BraDBF=F KetDBF=T FulRan=T
         wScrn=  0.000000 ICntrl=       500 IOpCl=  0 I1Cent=   200000004 NGrid=           0
         NMat0=    1 NMatS0=      1 NMatT0=    0 NMatD0=    1 NMtDS0=    0 NMtDT0=    0
 Petite list used in FoFCou.
 Harris En= -3918.65801208685    
 JPrj=0 DoOrth=F DoCkMO=F.
 Leave Link  401 at Fri Sep 10 17:50:15 2021, MaxMem= 23488102400 cpu:             177.3 elap:               7.4
 (Enter /sw/apps/gaussian-16.0/g16/l502.exe)
 Integral symmetry usage will be decided dynamically.
 Closed shell SCF:
 Using DIIS extrapolation, IDIIS=  1040.
 NGot= 23488102400 LenX= 23482547354 LenY= 23479796732
 Requested convergence on RMS density matrix=1.00D-08 within 128 cycles.
 Requested convergence on MAX density matrix=1.00D-06.
 Requested convergence on             energy=1.00D-06.
 No special actions if energy rises.
 Fock matrices will be formed incrementally for  20 cycles.

 Cycle   1  Pass 1  IDiag  1:
 FoFJK:  IHMeth= 1 ICntrl=       0 DoSepK=T KAlg= 0 I1Cent=           0 FoldK=F
 IRaf=         1 NMat=       1 IRICut=       1 DoRegI=T DoRafI=F ISym2E= 0 IDoP0=0 IntGTp=1.
 FoFCou: FMM=T IPFlag=           0 FMFlag=      100000 FMFlg1=        2001
         NFxFlg=           0 DoJE=T BraDBF=F KetDBF=F FulRan=T
         wScrn=  0.000000 ICntrl=       500 IOpCl=  0 I1Cent=           0 NGrid=           0
         NMat0=    1 NMatS0=      1 NMatT0=    0 NMatD0=    1 NMtDS0=    0 NMtDT0=    0
 Symmetry not used in FoFCou.
 FMM levels:  10  Number of levels for PrismC:   9
 E= -4068.94947959343    
 DIIS: error= 2.04D-02 at cycle   1 NSaved=   1.
 NSaved= 1 IEnMin= 1 EnMin= -4068.94947959343     IErMin= 1 ErrMin= 2.04D-02
 ErrMax= 2.04D-02  0.00D+00 EMaxC= 1.00D-01 BMatC= 1.69D+00 BMatP= 1.69D+00
 IDIUse=3 WtCom= 7.96D-01 WtEn= 2.04D-01
 Coeff-Com:  0.100D+01
 Coeff-En:   0.100D+01
 Coeff:      0.100D+01
 Gap=     0.120 Goal=   None    Shift=    0.000
 GapD=    0.120 DampG=1.000 DampE=0.500 DampFc=0.5000 IDamp=-1.
 Damping current iteration by 5.00D-01
 RMSDP=1.57D-03 MaxDP=1.35D-01              OVMax= 2.06D-01

 Cycle   2  Pass 1  IDiag  1:
 RMSU=  7.70D-04    CP:  9.82D-01
 E= -4069.33798495567     Delta-E=       -0.388505362243 Rises=F Damp=T
 DIIS: error= 1.27D-02 at cycle   2 NSaved=   2.
 NSaved= 2 IEnMin= 2 EnMin= -4069.33798495567     IErMin= 2 ErrMin= 1.27D-02
 ErrMax= 1.27D-02  0.00D+00 EMaxC= 1.00D-01 BMatC= 3.07D-01 BMatP= 1.69D+00
 IDIUse=3 WtCom= 8.73D-01 WtEn= 1.27D-01
 Coeff-Com: -0.212D+00 0.121D+01
 Coeff-En:   0.000D+00 0.100D+01
 Coeff:     -0.185D+00 0.119D+01
 Gap=     0.135 Goal=   None    Shift=    0.000
 RMSDP=7.66D-04 MaxDP=9.39D-02 DE=-3.89D-01 OVMax= 1.95D-01

 Cycle   3  Pass 1  IDiag  1:
 RMSU=  7.34D-04    CP:  9.68D-01  1.24D+00
 E= -4069.62633721573     Delta-E=       -0.288352260053 Rises=F Damp=F
 DIIS: error= 1.58D-02 at cycle   3 NSaved=   3.
 NSaved= 3 IEnMin= 3 EnMin= -4069.62633721573     IErMin= 2 ErrMin= 1.27D-02
 ErrMax= 1.58D-02  0.00D+00 EMaxC= 1.00D-01 BMatC= 2.03D-01 BMatP= 3.07D-01
 IDIUse=3 WtCom= 8.42D-01 WtEn= 1.58D-01
 Coeff-Com: -0.267D+00 0.653D+00 0.615D+00
 Coeff-En:   0.000D+00 0.000D+00 0.100D+01
 Coeff:     -0.225D+00 0.550D+00 0.676D+00
 Gap=     0.122 Goal=   None    Shift=    0.000
 RMSDP=5.12D-04 MaxDP=5.04D-02 DE=-2.88D-01 OVMax= 1.51D-01

 Cycle   4  Pass 1  IDiag  1:
 RMSU=  2.67D-04    CP:  9.65D-01  1.55D+00  5.03D-01
 E= -4069.76429893648     Delta-E=       -0.137961720757 Rises=F Damp=F
 DIIS: error= 7.31D-03 at cycle   4 NSaved=   4.
 NSaved= 4 IEnMin= 4 EnMin= -4069.76429893648     IErMin= 4 ErrMin= 7.31D-03
 ErrMax= 7.31D-03  0.00D+00 EMaxC= 1.00D-01 BMatC= 5.12D-02 BMatP= 2.03D-01
 IDIUse=3 WtCom= 9.27D-01 WtEn= 7.31D-02
 Coeff-Com: -0.109D+00 0.227D+00 0.409D+00 0.473D+00
 Coeff-En:   0.000D+00 0.000D+00 0.223D+00 0.777D+00
 Coeff:     -0.101D+00 0.210D+00 0.396D+00 0.495D+00
 Gap=     0.121 Goal=   None    Shift=    0.000
 RMSDP=2.03D-04 MaxDP=2.06D-02 DE=-1.38D-01 OVMax= 6.74D-02

 Cycle   5  Pass 1  IDiag  1:
 RMSU=  7.74D-05    CP:  9.64D-01  1.49D+00  6.88D-01  5.46D-01
 E= -4069.81073558094     Delta-E=       -0.046436644458 Rises=F Damp=F
 DIIS: error= 7.89D-04 at cycle   5 NSaved=   5.
 NSaved= 5 IEnMin= 5 EnMin= -4069.81073558094     IErMin= 5 ErrMin= 7.89D-04
 ErrMax= 7.89D-04  0.00D+00 EMaxC= 1.00D-01 BMatC= 1.24D-03 BMatP= 5.12D-02
 IDIUse=3 WtCom= 9.92D-01 WtEn= 7.89D-03
 Coeff-Com: -0.367D-01 0.722D-01 0.169D+00 0.252D+00 0.544D+00
 Coeff-En:   0.000D+00 0.000D+00 0.000D+00 0.000D+00 0.100D+01
 Coeff:     -0.364D-01 0.716D-01 0.167D+00 0.250D+00 0.547D+00
 Gap=     0.120 Goal=   None    Shift=    0.000
 RMSDP=4.24D-05 MaxDP=4.28D-03 DE=-4.64D-02 OVMax= 1.94D-02

 Cycle   6  Pass 1  IDiag  1:
 RMSU=  3.11D-05    CP:  9.64D-01  1.49D+00  6.80D-01  6.19D-01  7.42D-01
 E= -4069.81182546511     Delta-E=       -0.001089884172 Rises=F Damp=F
 DIIS: error= 2.09D-04 at cycle   6 NSaved=   6.
 NSaved= 6 IEnMin= 6 EnMin= -4069.81182546511     IErMin= 6 ErrMin= 2.09D-04
 ErrMax= 2.09D-04  0.00D+00 EMaxC= 1.00D-01 BMatC= 1.87D-04 BMatP= 1.24D-03
 IDIUse=3 WtCom= 9.98D-01 WtEn= 2.09D-03
 Coeff-Com:  0.214D-02-0.646D-02 0.118D-01 0.409D-01 0.306D+00 0.646D+00
 Coeff-En:   0.000D+00 0.000D+00 0.000D+00 0.000D+00 0.111D+00 0.889D+00
 Coeff:      0.213D-02-0.645D-02 0.118D-01 0.409D-01 0.305D+00 0.646D+00
 Gap=     0.121 Goal=   None    Shift=    0.000
 RMSDP=1.66D-05 MaxDP=1.24D-03 DE=-1.09D-03 OVMax= 8.25D-03

 Cycle   7  Pass 1  IDiag  1:
 RMSU=  1.10D-05    CP:  9.64D-01  1.49D+00  6.86D-01  6.19D-01  8.49D-01
                    CP:  7.44D-01
 E= -4069.81203058452     Delta-E=       -0.000205119402 Rises=F Damp=F
 DIIS: error= 9.94D-05 at cycle   7 NSaved=   7.
 NSaved= 7 IEnMin= 7 EnMin= -4069.81203058452     IErMin= 7 ErrMin= 9.94D-05
 ErrMax= 9.94D-05  0.00D+00 EMaxC= 1.00D-01 BMatC= 2.28D-05 BMatP= 1.87D-04
 IDIUse=1 WtCom= 1.00D+00 WtEn= 0.00D+00
 Coeff-Com:  0.451D-02-0.988D-02-0.890D-02-0.344D-02 0.105D+00 0.334D+00
 Coeff-Com:  0.579D+00
 Coeff:      0.451D-02-0.988D-02-0.890D-02-0.344D-02 0.105D+00 0.334D+00
 Coeff:      0.579D+00
 Gap=     0.121 Goal=   None    Shift=    0.000
 RMSDP=6.56D-06 MaxDP=1.19D-03 DE=-2.05D-04 OVMax= 3.79D-03

 Cycle   8  Pass 1  IDiag  1:
 RMSU=  4.71D-06    CP:  9.64D-01  1.50D+00  6.86D-01  6.23D-01  8.52D-01
                    CP:  8.66D-01  8.20D-01
 E= -4069.81205872584     Delta-E=       -0.000028141323 Rises=F Damp=F
 DIIS: error= 5.34D-05 at cycle   8 NSaved=   8.
 NSaved= 8 IEnMin= 8 EnMin= -4069.81205872584     IErMin= 8 ErrMin= 5.34D-05
 ErrMax= 5.34D-05  0.00D+00 EMaxC= 1.00D-01 BMatC= 4.79D-06 BMatP= 2.28D-05
 IDIUse=1 WtCom= 1.00D+00 WtEn= 0.00D+00
 Coeff-Com:  0.217D-02-0.429D-02-0.776D-02-0.121D-01-0.106D-01 0.326D-01
 Coeff-Com:  0.330D+00 0.670D+00
 Coeff:      0.217D-02-0.429D-02-0.776D-02-0.121D-01-0.106D-01 0.326D-01
 Coeff:      0.330D+00 0.670D+00
 Gap=     0.121 Goal=   None    Shift=    0.000
 RMSDP=3.33D-06 MaxDP=4.58D-04 DE=-2.81D-05 OVMax= 1.17D-03

 Cycle   9  Pass 1  IDiag  1:
 RMSU=  1.93D-06    CP:  9.64D-01  1.49D+00  6.87D-01  6.25D-01  8.69D-01
                    CP:  8.93D-01  1.01D+00  9.57D-01
 E= -4069.81206645729     Delta-E=       -0.000007731454 Rises=F Damp=F
 DIIS: error= 1.87D-05 at cycle   9 NSaved=   9.
 NSaved= 9 IEnMin= 9 EnMin= -4069.81206645729     IErMin= 9 ErrMin= 1.87D-05
 ErrMax= 1.87D-05  0.00D+00 EMaxC= 1.00D-01 BMatC= 7.17D-07 BMatP= 4.79D-06
 IDIUse=1 WtCom= 1.00D+00 WtEn= 0.00D+00
 Coeff-Com:  0.464D-03-0.769D-03-0.267D-02-0.599D-02-0.208D-01-0.394D-01
 Coeff-Com:  0.975D-01 0.334D+00 0.638D+00
 Coeff:      0.464D-03-0.769D-03-0.267D-02-0.599D-02-0.208D-01-0.394D-01
 Coeff:      0.975D-01 0.334D+00 0.638D+00
 Gap=     0.121 Goal=   None    Shift=    0.000
 RMSDP=1.42D-06 MaxDP=1.69D-04 DE=-7.73D-06 OVMax= 7.75D-04

 Cycle  10  Pass 1  IDiag  1:
 RMSU=  9.45D-07    CP:  9.64D-01  1.50D+00  6.87D-01  6.25D-01  8.72D-01
                    CP:  9.06D-01  1.06D+00  1.12D+00  1.06D+00
 E= -4069.81206809413     Delta-E=       -0.000001636839 Rises=F Damp=F
 DIIS: error= 1.04D-05 at cycle  10 NSaved=  10.
 NSaved=10 IEnMin=10 EnMin= -4069.81206809413     IErMin=10 ErrMin= 1.04D-05
 ErrMax= 1.04D-05  0.00D+00 EMaxC= 1.00D-01 BMatC= 1.68D-07 BMatP= 7.17D-07
 IDIUse=1 WtCom= 1.00D+00 WtEn= 0.00D+00
 Coeff-Com: -0.428D-03 0.898D-03 0.124D-02 0.112D-02-0.367D-02-0.307D-01
 Coeff-Com: -0.463D-01-0.744D-01 0.243D+00 0.910D+00
 Coeff:     -0.428D-03 0.898D-03 0.124D-02 0.112D-02-0.367D-02-0.307D-01
 Coeff:     -0.463D-01-0.744D-01 0.243D+00 0.910D+00
 Gap=     0.121 Goal=   None    Shift=    0.000
 RMSDP=1.25D-06 MaxDP=1.43D-04 DE=-1.64D-06 OVMax= 6.29D-04

 Cycle  11  Pass 1  IDiag  1:
 RMSU=  5.26D-07    CP:  9.64D-01  1.50D+00  6.87D-01  6.26D-01  8.75D-01
                    CP:  9.16D-01  1.11D+00  1.24D+00  1.40D+00  1.37D+00
 E= -4069.81206889984     Delta-E=       -0.000000805707 Rises=F Damp=F
 DIIS: error= 3.95D-06 at cycle  11 NSaved=  11.
 NSaved=11 IEnMin=11 EnMin= -4069.81206889984     IErMin=11 ErrMin= 3.95D-06
 ErrMax= 3.95D-06  0.00D+00 EMaxC= 1.00D-01 BMatC= 6.35D-08 BMatP= 1.68D-07
 IDIUse=1 WtCom= 1.00D+00 WtEn= 0.00D+00
 Coeff-Com: -0.330D-03 0.641D-03 0.133D-02 0.212D-02 0.435D-02-0.819D-02
 Coeff-Com: -0.425D-01-0.131D+00-0.340D-01 0.478D+00 0.730D+00
 Coeff:     -0.330D-03 0.641D-03 0.133D-02 0.212D-02 0.435D-02-0.819D-02
 Coeff:     -0.425D-01-0.131D+00-0.340D-01 0.478D+00 0.730D+00
 Gap=     0.121 Goal=   None    Shift=    0.000
 RMSDP=6.95D-07 MaxDP=6.39D-05 DE=-8.06D-07 OVMax= 3.57D-04

 Cycle  12  Pass 1  IDiag  1:
 RMSU=  2.64D-07    CP:  9.64D-01  1.50D+00  6.87D-01  6.26D-01  8.76D-01
                    CP:  9.18D-01  1.13D+00  1.30D+00  1.56D+00  1.76D+00
                    CP:  1.20D+00
 E= -4069.81206917053     Delta-E=       -0.000000270695 Rises=F Damp=F
 DIIS: error= 2.61D-06 at cycle  12 NSaved=  12.
 NSaved=12 IEnMin=12 EnMin= -4069.81206917053     IErMin=12 ErrMin= 2.61D-06
 ErrMax= 2.61D-06  0.00D+00 EMaxC= 1.00D-01 BMatC= 1.45D-08 BMatP= 6.35D-08
 IDIUse=1 WtCom= 1.00D+00 WtEn= 0.00D+00
 Coeff-Com:  0.806D-06-0.184D-04 0.178D-03 0.506D-03 0.331D-02 0.412D-02
 Coeff-Com:  0.279D-02-0.329D-01-0.730D-01-0.689D-01 0.241D+00 0.923D+00
 Coeff:      0.806D-06-0.184D-04 0.178D-03 0.506D-03 0.331D-02 0.412D-02
 Coeff:      0.279D-02-0.329D-01-0.730D-01-0.689D-01 0.241D+00 0.923D+00
 Gap=     0.121 Goal=   None    Shift=    0.000
 RMSDP=4.46D-07 MaxDP=3.22D-05 DE=-2.71D-07 OVMax= 2.62D-04

 Cycle  13  Pass 1  IDiag  1:
 RMSU=  1.68D-07    CP:  9.64D-01  1.50D+00  6.87D-01  6.26D-01  8.76D-01
                    CP:  9.19D-01  1.14D+00  1.33D+00  1.68D+00  1.99D+00
                    CP:  1.61D+00  1.28D+00
 E= -4069.81206926447     Delta-E=       -0.000000093933 Rises=F Damp=F
 DIIS: error= 1.40D-06 at cycle  13 NSaved=  13.
 NSaved=13 IEnMin=13 EnMin= -4069.81206926447     IErMin=13 ErrMin= 1.40D-06
 ErrMax= 1.40D-06  0.00D+00 EMaxC= 1.00D-01 BMatC= 8.37D-09 BMatP= 1.45D-08
 IDIUse=1 WtCom= 1.00D+00 WtEn= 0.00D+00
 Coeff-Com:  0.121D-03-0.246D-03-0.371D-03-0.457D-03 0.601D-03 0.501D-02
 Coeff-Com:  0.190D-01 0.242D-01-0.347D-01-0.238D+00-0.165D+00 0.609D+00
 Coeff-Com:  0.781D+00
 Coeff:      0.121D-03-0.246D-03-0.371D-03-0.457D-03 0.601D-03 0.501D-02
 Coeff:      0.190D-01 0.242D-01-0.347D-01-0.238D+00-0.165D+00 0.609D+00
 Coeff:      0.781D+00
 Gap=     0.121 Goal=   None    Shift=    0.000
 RMSDP=3.43D-07 MaxDP=2.30D-05 DE=-9.39D-08 OVMax= 1.86D-04

 Cycle  14  Pass 1  IDiag  1:
 RMSU=  7.70D-08    CP:  9.64D-01  1.50D+00  6.87D-01  6.26D-01  8.76D-01
                    CP:  9.19D-01  1.14D+00  1.35D+00  1.75D+00  2.19D+00
                    CP:  1.87D+00  1.79D+00  1.09D+00
 E= -4069.81206930152     Delta-E=       -0.000000037056 Rises=F Damp=F
 DIIS: error= 9.18D-07 at cycle  14 NSaved=  14.
 NSaved=14 IEnMin=14 EnMin= -4069.81206930152     IErMin=14 ErrMin= 9.18D-07
 ErrMax= 9.18D-07  0.00D+00 EMaxC= 1.00D-01 BMatC= 1.21D-09 BMatP= 8.37D-09
 IDIUse=1 WtCom= 1.00D+00 WtEn= 0.00D+00
 Coeff-Com:  0.663D-04-0.131D-03-0.246D-03-0.384D-03-0.463D-03 0.124D-02
 Coeff-Com:  0.102D-01 0.197D-01 0.364D-02-0.980D-01-0.145D+00 0.100D+00
 Coeff-Com:  0.394D+00 0.716D+00
 Coeff:      0.663D-04-0.131D-03-0.246D-03-0.384D-03-0.463D-03 0.124D-02
 Coeff:      0.102D-01 0.197D-01 0.364D-02-0.980D-01-0.145D+00 0.100D+00
 Coeff:      0.394D+00 0.716D+00
 Gap=     0.121 Goal=   None    Shift=    0.000
 RMSDP=1.03D-07 MaxDP=6.96D-06 DE=-3.71D-08 OVMax= 6.43D-05

 Cycle  15  Pass 1  IDiag  1:
 RMSU=  3.90D-08    CP:  9.64D-01  1.50D+00  6.87D-01  6.26D-01  8.76D-01
                    CP:  9.19D-01  1.14D+00  1.36D+00  1.77D+00  2.23D+00
                    CP:  1.98D+00  1.94D+00  1.32D+00  1.03D+00
 E= -4069.81206930558     Delta-E=       -0.000000004053 Rises=F Damp=F
 DIIS: error= 4.93D-07 at cycle  15 NSaved=  15.
 NSaved=15 IEnMin=15 EnMin= -4069.81206930558     IErMin=15 ErrMin= 4.93D-07
 ErrMax= 4.93D-07  0.00D+00 EMaxC= 1.00D-01 BMatC= 2.45D-10 BMatP= 1.21D-09
 IDIUse=1 WtCom= 1.00D+00 WtEn= 0.00D+00
 Coeff-Com:  0.587D-05-0.987D-05-0.349D-04-0.856D-04-0.308D-03-0.522D-03
 Coeff-Com:  0.110D-02 0.295D-02 0.871D-02 0.185D-02-0.335D-01-0.700D-01
 Coeff-Com:  0.242D-01 0.319D+00 0.747D+00
 Coeff:      0.587D-05-0.987D-05-0.349D-04-0.856D-04-0.308D-03-0.522D-03
 Coeff:      0.110D-02 0.295D-02 0.871D-02 0.185D-02-0.335D-01-0.700D-01
 Coeff:      0.242D-01 0.319D+00 0.747D+00
 Gap=     0.121 Goal=   None    Shift=    0.000
 RMSDP=4.10D-08 MaxDP=2.70D-06 DE=-4.05D-09 OVMax= 2.32D-05

 Cycle  16  Pass 1  IDiag  1:
 RMSU=  1.88D-08    CP:  9.64D-01  1.50D+00  6.87D-01  6.26D-01  8.76D-01
                    CP:  9.19D-01  1.14D+00  1.36D+00  1.77D+00  2.25D+00
                    CP:  2.00D+00  2.00D+00  1.40D+00  1.25D+00  1.15D+00
 E= -4069.81206930648     Delta-E=       -0.000000000909 Rises=F Damp=F
 DIIS: error= 2.66D-07 at cycle  16 NSaved=  16.
 NSaved=16 IEnMin=16 EnMin= -4069.81206930648     IErMin=16 ErrMin= 2.66D-07
 ErrMax= 2.66D-07  0.00D+00 EMaxC= 1.00D-01 BMatC= 7.70D-11 BMatP= 2.45D-10
 IDIUse=1 WtCom= 1.00D+00 WtEn= 0.00D+00
 Coeff-Com: -0.141D-04 0.287D-04 0.465D-04 0.525D-04-0.327D-04-0.626D-03
 Coeff-Com: -0.192D-02-0.419D-02 0.425D-02 0.258D-01 0.199D-01-0.631D-01
 Coeff-Com: -0.872D-01-0.202D-01 0.380D+00 0.747D+00
 Coeff:     -0.141D-04 0.287D-04 0.465D-04 0.525D-04-0.327D-04-0.626D-03
 Coeff:     -0.192D-02-0.419D-02 0.425D-02 0.258D-01 0.199D-01-0.631D-01
 Coeff:     -0.872D-01-0.202D-01 0.380D+00 0.747D+00
 Gap=     0.121 Goal=   None    Shift=    0.000
 RMSDP=2.34D-08 MaxDP=1.62D-06 DE=-9.09D-10 OVMax= 1.65D-05

 Cycle  17  Pass 1  IDiag  1:
 RMSU=  1.14D-08    CP:  9.64D-01  1.50D+00  6.87D-01  6.26D-01  8.76D-01
                    CP:  9.19D-01  1.14D+00  1.36D+00  1.77D+00  2.25D+00
                    CP:  2.01D+00  2.02D+00  1.44D+00  1.35D+00  1.44D+00
                    CP:  1.23D+00
 E= -4069.81206930654     Delta-E=       -0.000000000055 Rises=F Damp=F
 DIIS: error= 1.37D-07 at cycle  17 NSaved=  17.
 NSaved=17 IEnMin=17 EnMin= -4069.81206930654     IErMin=17 ErrMin= 1.37D-07
 ErrMax= 1.37D-07  0.00D+00 EMaxC= 1.00D-01 BMatC= 2.20D-11 BMatP= 7.70D-11
 IDIUse=1 WtCom= 1.00D+00 WtEn= 0.00D+00
 Coeff-Com: -0.836D-05 0.164D-04 0.324D-04 0.470D-04 0.792D-04-0.163D-03
 Coeff-Com: -0.110D-02-0.308D-02 0.209D-03 0.115D-01 0.189D-01-0.113D-01
 Coeff-Com: -0.460D-01-0.990D-01-0.304D-01 0.366D+00 0.794D+00
 Coeff:     -0.836D-05 0.164D-04 0.324D-04 0.470D-04 0.792D-04-0.163D-03
 Coeff:     -0.110D-02-0.308D-02 0.209D-03 0.115D-01 0.189D-01-0.113D-01
 Coeff:     -0.460D-01-0.990D-01-0.304D-01 0.366D+00 0.794D+00
 Gap=     0.121 Goal=   None    Shift=    0.000
 RMSDP=1.42D-08 MaxDP=1.01D-06 DE=-5.46D-11 OVMax= 8.00D-06

 Cycle  18  Pass 1  IDiag  1:
 RMSU=  5.36D-09    CP:  9.64D-01  1.50D+00  6.87D-01  6.26D-01  8.76D-01
                    CP:  9.19D-01  1.14D+00  1.36D+00  1.77D+00  2.25D+00
                    CP:  2.02D+00  2.03D+00  1.46D+00  1.42D+00  1.61D+00
                    CP:  1.63D+00  1.31D+00
 E= -4069.81206930685     Delta-E=       -0.000000000313 Rises=F Damp=F
 DIIS: error= 7.04D-08 at cycle  18 NSaved=  18.
 NSaved=18 IEnMin=18 EnMin= -4069.81206930685     IErMin=18 ErrMin= 7.04D-08
 ErrMax= 7.04D-08  0.00D+00 EMaxC= 1.00D-01 BMatC= 6.75D-12 BMatP= 2.20D-11
 IDIUse=1 WtCom= 1.00D+00 WtEn= 0.00D+00
 Coeff-Com:  0.777D-06-0.190D-05 0.206D-06 0.487D-05 0.661D-04 0.149D-03
 Coeff-Com:  0.216D-03-0.193D-03-0.122D-02-0.410D-02 0.228D-02 0.177D-01
 Coeff-Com:  0.108D-01-0.421D-01-0.156D+00-0.848D-01 0.367D+00 0.891D+00
 Coeff:      0.777D-06-0.190D-05 0.206D-06 0.487D-05 0.661D-04 0.149D-03
 Coeff:      0.216D-03-0.193D-03-0.122D-02-0.410D-02 0.228D-02 0.177D-01
 Coeff:      0.108D-01-0.421D-01-0.156D+00-0.848D-01 0.367D+00 0.891D+00
 Gap=     0.121 Goal=   None    Shift=    0.000
 RMSDP=1.06D-08 MaxDP=8.56D-07 DE=-3.13D-10 OVMax= 7.39D-06

 Cycle  19  Pass 1  IDiag  1:
 RMSU=  3.37D-09    CP:  9.64D-01  1.50D+00  6.87D-01  6.26D-01  8.76D-01
                    CP:  9.19D-01  1.14D+00  1.36D+00  1.77D+00  2.25D+00
                    CP:  2.02D+00  2.03D+00  1.47D+00  1.46D+00  1.74D+00
                    CP:  1.92D+00  1.80D+00  1.17D+00
 E= -4069.81206930680     Delta-E=        0.000000000055 Rises=F Damp=F
 DIIS: error= 3.50D-08 at cycle  19 NSaved=  19.
 NSaved=19 IEnMin=18 EnMin= -4069.81206930685     IErMin=19 ErrMin= 3.50D-08
 ErrMax= 3.50D-08  0.00D+00 EMaxC= 1.00D-01 BMatC= 3.13D-12 BMatP= 6.75D-12
 IDIUse=1 WtCom= 1.00D+00 WtEn= 0.00D+00
 Coeff-Com:  0.332D-05-0.673D-05-0.109D-04-0.129D-04 0.203D-04 0.152D-03
 Coeff-Com:  0.530D-03 0.906D-03-0.818D-03-0.697D-02-0.515D-02 0.156D-01
 Coeff-Com:  0.235D-01 0.579D-02-0.993D-01-0.194D+00-0.532D-01 0.598D+00
 Coeff-Com:  0.715D+00
 Coeff:      0.332D-05-0.673D-05-0.109D-04-0.129D-04 0.203D-04 0.152D-03
 Coeff:      0.530D-03 0.906D-03-0.818D-03-0.697D-02-0.515D-02 0.156D-01
 Coeff:      0.235D-01 0.579D-02-0.993D-01-0.194D+00-0.532D-01 0.598D+00
 Coeff:      0.715D+00
 Gap=     0.121 Goal=   None    Shift=    0.000
 RMSDP=6.76D-09 MaxDP=4.62D-07 DE= 5.46D-11 OVMax= 3.64D-06

 SCF Done:  E(RCAM-B3LYP) =  -4069.81206931     A.U. after   19 cycles
            NFock= 19  Conv=0.68D-08     -V/T= 2.0102
 KE= 4.028801777867D+03 PE=-3.934272636162D+04 EE= 1.631325171160D+04
 Leave Link  502 at Fri Sep 10 18:00:03 2021, MaxMem= 23488102400 cpu:           13532.5 elap:             588.0
 (Enter /sw/apps/gaussian-16.0/g16/l801.exe)
 DoSCS=F DFT=T ScalE2(SS,OS)=  1.000000  1.000000
 ExpMin= 3.36D-02 ExpMax= 4.95D+03 ExpMxC= 7.45D+02 IAcc=3 IRadAn=         5 AccDes= 0.00D+00
 HarFok:  IExCor=  205 AccDes= 0.00D+00 IRadAn=         5 IDoV=-2 UseB2=F ITyADJ=14
 ICtDFT= 12500011 ScaDFX=  1.000000  1.000000  1.000000  1.000000
 GSVD:  LWork=       -9588 too small for GESVD, short by       45590 words or       45590 for optimal perf.
 Largest valence mixing into a core orbital is  2.03D-04
 Largest core mixing into a valence orbital is  5.25D-05
 Range of M.O.s used for correlation:    95  1572
 NBasis=  1572 NAE=   312 NBE=   312 NFC=    94 NFV=     0
 NROrb=   1478 NOA=   218 NOB=   218 NVA=  1260 NVB=  1260
 Leave Link  801 at Fri Sep 10 18:00:04 2021, MaxMem= 23488102400 cpu:               8.0 elap:               0.4
 (Enter /sw/apps/gaussian-16.0/g16/l914.exe)
 RHF ground state
 Two-electron integrals replicated using symmetry.
 MDV= 23488102400 DFT=T DoStab=F Mixed=T DoRPA=T DoScal=F NonHer=T
 Making orbital integer symmetry assigments:
 Orbital symmetries:
       Occupied  (A) (A) (A) (A) (A) (A) (A) (A) (A) (A) (A) (A)
                 (A) (A) (A) (A) (A) (A) (A) (A) (A) (A) (A) (A)
                 (A) (A) (A) (A) (A) (A) (A) (A) (A) (A) (A) (A)
                 (A) (A) (A) (A) (A) (A) (A) (A) (A) (A) (A) (A)
                 (A) (A) (A) (A) (A) (A) (A) (A) (A) (A) (A) (A)
                 (A) (A) (A) (A) (A) (A) (A) (A) (A) (A) (A) (A)
                 (A) (A) (A) (A) (A) (A) (A) (A) (A) (A) (A) (A)
                 (A) (A) (A) (A) (A) (A) (A) (A) (A) (A) (A) (A)
                 (A) (A) (A) (A) (A) (A) (A) (A) (A) (A) (A) (A)
                 (A) (A) (A) (A) (A) (A) (A) (A) (A) (A) (A) (A)
                 (A) (A) (A) (A) (A) (A) (A) (A) (A) (A) (A) (A)
                 (A) (A) (A) (A) (A) (A) (A) (A) (A) (A) (A) (A)
                 (A) (A) (A) (A) (A) (A) (A) (A) (A) (A) (A) (A)
                 (A) (A) (A) (A) (A) (A) (A) (A) (A) (A) (A) (A)
                 (A) (A) (A) (A) (A) (A) (A) (A) (A) (A) (A) (A)
                 (A) (A) (A) (A) (A) (A) (A) (A) (A) (A) (A) (A)
                 (A) (A) (A) (A) (A) (A) (A) (A) (A) (A) (A) (A)
                 (A) (A) (A) (A) (A) (A) (A) (A) (A) (A) (A) (A)
                 (A) (A) (A) (A) (A) (A) (A) (A) (A) (A) (A) (A)
                 (A) (A) (A) (A) (A) (A) (A) (A) (A) (A) (A) (A)
                 (A) (A) (A) (A) (A) (A) (A) (A) (A) (A) (A) (A)
                 (A) (A) (A) (A) (A) (A) (A) (A) (A) (A) (A) (A)
                 (A) (A) (A) (A) (A) (A) (A) (A) (A) (A) (A) (A)
                 (A) (A) (A) (A) (A) (A) (A) (A) (A) (A) (A) (A)
                 (A) (A) (A) (A) (A) (A) (A) (A) (A) (A) (A) (A)
                 (A) (A) (A) (A) (A) (A) (A) (A) (A) (A) (A) (A)
       Virtual   (A) (A) (A) (A) (A) (A) (A) (A) (A) (A) (A) (A)
                 (A) (A) (A) (A) (A) (A) (A) (A) (A) (A) (A) (A)
                 (A) (A) (A) (A) (A) (A) (A) (A) (A) (A) (A) (A)
                 (A) (A) (A) (A) (A) (A) (A) (A) (A) (A) (A) (A)
                 (A) (A) (A) (A) (A) (A) (A) (A) (A) (A) (A) (A)
                 (A) (A) (A) (A) (A) (A) (A) (A) (A) (A) (A) (A)
                 (A) (A) (A) (A) (A) (A) (A) (A) (A) (A) (A) (A)
                 (A) (A) (A) (A) (A) (A) (A) (A) (A) (A) (A) (A)
                 (A) (A) (A) (A) (A) (A) (A) (A) (A) (A) (A) (A)
                 (A) (A) (A) (A) (A) (A) (A) (A) (A) (A) (A) (A)
                 (A) (A) (A) (A) (A) (A) (A) (A) (A) (A) (A) (A)
                 (A) (A) (A) (A) (A) (A) (A) (A) (A) (A) (A) (A)
                 (A) (A) (A) (A) (A) (A) (A) (A) (A) (A) (A) (A)
                 (A) (A) (A) (A) (A) (A) (A) (A) (A) (A) (A) (A)
                 (A) (A) (A) (A) (A) (A) (A) (A) (A) (A) (A) (A)
                 (A) (A) (A) (A) (A) (A) (A) (A) (A) (A) (A) (A)
                 (A) (A) (A) (A) (A) (A) (A) (A) (A) (A) (A) (A)
                 (A) (A) (A) (A) (A) (A) (A) (A) (A) (A) (A) (A)
                 (A) (A) (A) (A) (A) (A) (A) (A) (A) (A) (A) (A)
                 (A) (A) (A) (A) (A) (A) (A) (A) (A) (A) (A) (A)
                 (A) (A) (A) (A) (A) (A) (A) (A) (A) (A) (A) (A)
                 (A) (A) (A) (A) (A) (A) (A) (A) (A) (A) (A) (A)
                 (A) (A) (A) (A) (A) (A) (A) (A) (A) (A) (A) (A)
                 (A) (A) (A) (A) (A) (A) (A) (A) (A) (A) (A) (A)
                 (A) (A) (A) (A) (A) (A) (A) (A) (A) (A) (A) (A)
                 (A) (A) (A) (A) (A) (A) (A) (A) (A) (A) (A) (A)
                 (A) (A) (A) (A) (A) (A) (A) (A) (A) (A) (A) (A)
                 (A) (A) (A) (A) (A) (A) (A) (A) (A) (A) (A) (A)
                 (A) (A) (A) (A) (A) (A) (A) (A) (A) (A) (A) (A)
                 (A) (A) (A) (A) (A) (A) (A) (A) (A) (A) (A) (A)
                 (A) (A) (A) (A) (A) (A) (A) (A) (A) (A) (A) (A)
                 (A) (A) (A) (A) (A) (A) (A) (A) (A) (A) (A) (A)
                 (A) (A) (A) (A) (A) (A) (A) (A) (A) (A) (A) (A)
                 (A) (A) (A) (A) (A) (A) (A) (A) (A) (A) (A) (A)
                 (A) (A) (A) (A) (A) (A) (A) (A) (A) (A) (A) (A)
                 (A) (A) (A) (A) (A) (A) (A) (A) (A) (A) (A) (A)
                 (A) (A) (A) (A) (A) (A) (A) (A) (A) (A) (A) (A)
                 (A) (A) (A) (A) (A) (A) (A) (A) (A) (A) (A) (A)
                 (A) (A) (A) (A) (A) (A) (A) (A) (A) (A) (A) (A)
                 (A) (A) (A) (A) (A) (A) (A) (A) (A) (A) (A) (A)
                 (A) (A) (A) (A) (A) (A) (A) (A) (A) (A) (A) (A)
                 (A) (A) (A) (A) (A) (A) (A) (A) (A) (A) (A) (A)
                 (A) (A) (A) (A) (A) (A) (A) (A) (A) (A) (A) (A)
                 (A) (A) (A) (A) (A) (A) (A) (A) (A) (A) (A) (A)
                 (A) (A) (A) (A) (A) (A) (A) (A) (A) (A) (A) (A)
                 (A) (A) (A) (A) (A) (A) (A) (A) (A) (A) (A) (A)
                 (A) (A) (A) (A) (A) (A) (A) (A) (A) (A) (A) (A)
                 (A) (A) (A) (A) (A) (A) (A) (A) (A) (A) (A) (A)
                 (A) (A) (A) (A) (A) (A) (A) (A) (A) (A) (A) (A)
                 (A) (A) (A) (A) (A) (A) (A) (A) (A) (A) (A) (A)
                 (A) (A) (A) (A) (A) (A) (A) (A) (A) (A) (A) (A)
                 (A) (A) (A) (A) (A) (A) (A) (A) (A) (A) (A) (A)
                 (A) (A) (A) (A) (A) (A) (A) (A) (A) (A) (A) (A)
                 (A) (A) (A) (A) (A) (A) (A) (A) (A) (A) (A) (A)
                 (A) (A) (A) (A) (A) (A) (A) (A) (A) (A) (A) (A)
                 (A) (A) (A) (A) (A) (A) (A) (A) (A) (A) (A) (A)
                 (A) (A) (A) (A) (A) (A) (A) (A) (A) (A) (A) (A)
                 (A) (A) (A) (A) (A) (A) (A) (A) (A) (A) (A) (A)
                 (A) (A) (A) (A) (A) (A) (A) (A) (A) (A) (A) (A)
                 (A) (A) (A) (A) (A) (A) (A) (A) (A) (A) (A) (A)
                 (A) (A) (A) (A) (A) (A) (A) (A) (A) (A) (A) (A)
                 (A) (A) (A) (A) (A) (A) (A) (A) (A) (A) (A) (A)
                 (A) (A) (A) (A) (A) (A) (A) (A) (A) (A) (A) (A)
                 (A) (A) (A) (A) (A) (A) (A) (A) (A) (A) (A) (A)
                 (A) (A) (A) (A) (A) (A) (A) (A) (A) (A) (A) (A)
                 (A) (A) (A) (A) (A) (A) (A) (A) (A) (A) (A) (A)
                 (A) (A) (A) (A) (A) (A) (A) (A) (A) (A) (A) (A)
                 (A) (A) (A) (A) (A) (A) (A) (A) (A) (A) (A) (A)
                 (A) (A) (A) (A) (A) (A) (A) (A) (A) (A) (A) (A)
                 (A) (A) (A) (A) (A) (A) (A) (A) (A) (A) (A) (A)
                 (A) (A) (A) (A) (A) (A) (A) (A) (A) (A) (A) (A)
                 (A) (A) (A) (A) (A) (A) (A) (A) (A) (A) (A) (A)
                 (A) (A) (A) (A) (A) (A) (A) (A) (A) (A) (A) (A)
                 (A) (A) (A) (A) (A) (A) (A) (A) (A) (A) (A) (A)
                 (A) (A) (A) (A) (A) (A) (A) (A) (A) (A) (A) (A)
                 (A) (A) (A) (A) (A) (A) (A) (A) (A) (A) (A) (A)
                 (A) (A) (A) (A) (A) (A) (A) (A) (A) (A) (A) (A)
                 (A) (A) (A) (A) (A) (A) (A) (A) (A) (A) (A) (A)
                 (A) (A) (A) (A) (A) (A) (A) (A) (A) (A) (A) (A)
                 (A) (A) (A) (A) (A) (A) (A) (A) (A) (A) (A) (A)
                 (A) (A) (A) (A) (A) (A) (A) (A) (A) (A) (A) (A)
                 (A) (A) (A) (A) (A) (A) (A) (A) (A) (A) (A) (A)
                 (A) (A) (A) (A) (A) (A) (A) (A) (A) (A) (A) (A)
                 (A) (A) (A) (A) (A) (A) (A) (A) (A) (A) (A) (A)
                 (A) (A) (A) (A) (A) (A) (A) (A) (A) (A) (A) (A)
                 (A) (A) (A) (A) (A) (A) (A) (A) (A) (A) (A) (A)
                 (A) (A) (A) (A) (A) (A) (A) (A) (A) (A) (A) (A)
                 (A) (A) (A) (A) (A) (A) (A) (A) (A) (A) (A) (A)
                 (A) (A) (A) (A) (A) (A) (A) (A) (A) (A) (A) (A)
                 (A) (A) (A) (A) (A) (A) (A) (A) (A) (A) (A) (A)
                 (A) (A) (A) (A) (A) (A) (A) (A) (A) (A) (A) (A)
                 (A) (A) (A) (A) (A) (A) (A) (A) (A) (A) (A) (A)
                 (A) (A) (A) (A) (A) (A) (A) (A) (A) (A) (A) (A)
                 (A) (A) (A) (A) (A) (A) (A) (A) (A) (A) (A) (A)
                 (A) (A) (A) (A) (A) (A) (A) (A) (A) (A) (A) (A)
                 (A) (A) (A) (A) (A) (A) (A) (A) (A) (A) (A) (A)
                 (A) (A) (A) (A) (A) (A) (A) (A) (A) (A) (A) (A)
                 (A) (A) (A) (A) (A) (A) (A) (A) (A) (A) (A) (A)
                 (A) (A) (A) (A) (A) (A) (A) (A) (A) (A) (A) (A)
                 (A) (A) (A) (A) (A) (A) (A) (A) (A) (A) (A) (A)
                 (A) (A) (A) (A) (A) (A) (A) (A) (A) (A) (A) (A)
                 (A) (A) (A) (A) (A) (A) (A) (A) (A) (A) (A) (A)
                 (A) (A) (A) (A) (A) (A) (A) (A) (A) (A) (A) (A)
                 (A) (A) (A) (A) (A) (A) (A) (A) (A) (A) (A) (A)
                 (A) (A) (A) (A) (A) (A) (A) (A) (A) (A) (A) (A)
    20 initial guesses have been made.
 Convergence on wavefunction:    0.001000000000000
 Davidson Disk Diagonalization:  ConvIn= 1.00D-03 SkipCon=T Conv= 1.00D-03.
 Max sub-space:  2000 roots to seek:    20 dimension of matrix:       549360
 Iteration     1 Dimension    20 NMult     0 NNew     20
 CISAX will form    20 AO SS matrices at one time.
 NMat=    20 NSing=    20 JSym2X= 0.
 FoFJK:  IHMeth= 1 ICntrl=       0 DoSepK=T KAlg= 0 I1Cent=           0 FoldK=F
 IRaf=         1 NMat=      40 IRICut=       1 DoRegI=T DoRafI=F ISym2E= 0 IDoP0=3 IntGTp=3.
 FoFCou: FMM=T IPFlag=           0 FMFlag=      100000 FMFlg1=        2001
         NFxFlg=           0 DoJE=F BraDBF=F KetDBF=F FulRan=T
         wScrn=  0.000000 ICntrl=       500 IOpCl=  0 I1Cent=           0 NGrid=           0
         NMat0=   20 NMatS0=     20 NMatT0=    0 NMatD0=   20 NMtDS0=    0 NMtDT0=    0
 Symmetry not used in FoFCou.
 FMM levels:  10  Number of levels for PrismC:   9
 New state      2 was old state      7
 New state      3 was old state      6
 New state      5 was old state      2
 Excitation Energies [eV] at current iteration:
 Root      1 :     2.485444319939569
 Root      2 :     2.611845817535751
 Root      3 :     2.615911472707425
 Root      4 :     2.620238994997549
 Root      5 :     2.680504513044940
 Root      6 :     2.690186675964841
 Root      7 :     3.271573205584871
 Root      8 :     3.417385803061400
 Root      9 :     3.630969236537505
 Root     10 :     3.667707092095944
 Root     11 :     3.738931587171723
 Root     12 :     3.761785818656406
 Root     13 :     4.299895682933234
 Root     14 :     4.308238644275534
 Root     15 :     4.388191369509202
 Root     16 :     4.554198081558536
 Root     17 :     4.713871387869347
 Root     18 :     4.751857545214348
 Root     19 :     4.852095154331216
 Root     20 :     4.859714959781057
 Iteration     2 Dimension    30 NMult    20 NNew     10
 CISAX will form    10 AO SS matrices at one time.
 NMat=    10 NSing=    10 JSym2X= 0.
 New state      1 was old state      5
 Root      1 not converged, maximum delta is    0.188224507842041
 Root      2 not converged, maximum delta is    0.143741782211233
 Root      3 not converged, maximum delta is    0.115707404504926
 New state      4 was old state      1
 Root      4 not converged, maximum delta is    0.002510261056373
 New state      5 was old state      4
 Root      5 not converged, maximum delta is    0.004564975932703
 Excitation Energies [eV] at current iteration:
 Root      1 :     1.799044860704837   Change is   -0.881459652340103
 Root      2 :     2.176854413568497   Change is   -0.434991403967254
 Root      3 :     2.237680677950207   Change is   -0.378230794757218
 Root      4 :     2.484992239309054   Change is   -0.000452080630515
 Root      5 :     2.619698888853267   Change is   -0.000540106144282
 Iteration     3 Dimension    40 NMult    30 NNew     10
 CISAX will form    10 AO SS matrices at one time.
 NMat=    10 NSing=    10 JSym2X= 0.
 Root      1 not converged, maximum delta is    0.071597426529362
 Root      2 not converged, maximum delta is    0.263938871593955
 Root      3 not converged, maximum delta is    0.038143391475997
 No map to state      4
 New state      5 was old state      4
 Root      5 has converged.
 Excitation Energies [eV] at current iteration:
 Root      1 :     1.692139751434225   Change is   -0.106905109270611
 Root      2 :     1.917825629460223   Change is   -0.259028784108275
 Root      3 :     2.196676037232842   Change is   -0.041004640717365
 Root      4 :     2.347999427181851
 Root      5 :     2.484989280335382   Change is   -0.000002958973673
 Iteration     4 Dimension    48 NMult    40 NNew      8
 CISAX will form     8 AO SS matrices at one time.
 NMat=     8 NSing=     8 JSym2X= 0.
 Root      1 not converged, maximum delta is    0.013641409035142
 Root      2 not converged, maximum delta is    0.180238407200623
 Root      3 not converged, maximum delta is    0.124031760856266
 Root      4 not converged, maximum delta is    0.178603934853884
 Root      5 has converged.
 Excitation Energies [eV] at current iteration:
 Root      1 :     1.675358424172637   Change is   -0.016781327261589
 Root      2 :     1.718181044239527   Change is   -0.199644585220696
 Root      3 :     2.188458746389762   Change is   -0.008217290843081
 Root      4 :     2.202966949875433   Change is   -0.145032477306418
 Root      5 :     2.484989278044015   Change is   -0.000000002291367
 Iteration     5 Dimension    56 NMult    48 NNew      8
 CISAX will form     8 AO SS matrices at one time.
 NMat=     8 NSing=     8 JSym2X= 0.
 Root      1 not converged, maximum delta is    0.036676950257590
 Root      2 not converged, maximum delta is    0.035617638379332
 Root      3 not converged, maximum delta is    0.277723034882464
 Root      4 not converged, maximum delta is    0.272532760580858
 Root      5 has converged.
 Excitation Energies [eV] at current iteration:
 Root      1 :     1.673513933811362   Change is   -0.001844490361275
 Root      2 :     1.683081079648008   Change is   -0.035099964591519
 Root      3 :     2.185707230032207   Change is   -0.002751516357554
 Root      4 :     2.192428681172850   Change is   -0.010538268702583
 Root      5 :     2.484989277380166   Change is   -0.000000000663849
 Iteration     6 Dimension    64 NMult    56 NNew      8
 CISAX will form     8 AO SS matrices at one time.
 NMat=     8 NSing=     8 JSym2X= 0.
 Root      1 not converged, maximum delta is    0.052370655803042
 Root      2 not converged, maximum delta is    0.052237002158856
 Root      3 not converged, maximum delta is    0.067814486565938
 Root      4 not converged, maximum delta is    0.067463665363316
 Root      5 has converged.
 Excitation Energies [eV] at current iteration:
 Root      1 :     1.673192826540040   Change is   -0.000321107271322
 Root      2 :     1.678126124257798   Change is   -0.004954955390210
 Root      3 :     2.184898373049653   Change is   -0.000808856982555
 Root      4 :     2.191553869848195   Change is   -0.000874811324655
 Root      5 :     2.484989277226601   Change is   -0.000000000153565
 Iteration     7 Dimension    72 NMult    64 NNew      8
 CISAX will form     8 AO SS matrices at one time.
 NMat=     8 NSing=     8 JSym2X= 0.
 Root      1 not converged, maximum delta is    0.014701377105436
 Root      2 not converged, maximum delta is    0.014661236716923
 Root      3 not converged, maximum delta is    0.008517018331037
 Root      4 not converged, maximum delta is    0.008707981509790
 Root      5 has converged.
 Excitation Energies [eV] at current iteration:
 Root      1 :     1.673148216486261   Change is   -0.000044610053779
[...]
 Alpha virt. eigenvalues --    1.84400   1.84642   1.84758   1.84873   1.85059
 Alpha virt. eigenvalues --    1.85220   1.85227   1.85380   1.85414   1.85581
 Alpha virt. eigenvalues --    1.85821   1.86002   1.86310   1.86489   1.86504
 Alpha virt. eigenvalues --    1.86735   1.86745   1.86967   1.87000   1.87135
 Alpha virt. eigenvalues --    1.87411   1.87571   1.87636   1.87822   1.87852
 Alpha virt. eigenvalues --    1.87996   1.88142   1.88274   1.88491   1.88671
 Alpha virt. eigenvalues --    1.88798   1.89020   1.89083   1.89218   1.89560
 Alpha virt. eigenvalues --    1.89683   1.89750   1.89969   1.90072   1.90277
 Alpha virt. eigenvalues --    1.90714   1.90993   1.91315   1.91397   1.91581
 Alpha virt. eigenvalues --    1.91662   1.92116   1.92258   1.92621   1.92744
 Alpha virt. eigenvalues --    1.92934   1.93264   1.93284   1.93640   1.94240
 Alpha virt. eigenvalues --    1.94434   1.94631   1.94940   1.95419   1.95699
 Alpha virt. eigenvalues --    1.95755   1.95893   1.95968   1.96105   1.96155
 Alpha virt. eigenvalues --    1.96247   1.96554   1.96591   1.96857   1.97033
 Alpha virt. eigenvalues --    1.97408   1.97642   1.97798   1.97886   1.98140
 Alpha virt. eigenvalues --    1.98253   1.98412   1.98652   1.99102   1.99187
 Alpha virt. eigenvalues --    1.99799   2.00002   2.00615   2.00837   2.00958
 Alpha virt. eigenvalues --    2.01177   2.01463   2.01627   2.01647   2.01666
 Alpha virt. eigenvalues --    2.01679   2.01889   2.02747   2.02802   2.03195
 Alpha virt. eigenvalues --    2.03296   2.03363   2.03454   2.03458   2.03599
 Alpha virt. eigenvalues --    2.03997   2.04124   2.04905   2.05087   2.05457
 Alpha virt. eigenvalues --    2.05734   2.06018   2.06368   2.06872   2.07078
 Alpha virt. eigenvalues --    2.07144   2.07452   2.08500   2.08659   2.08939
 Alpha virt. eigenvalues --    2.09085   2.09557   2.09691   2.10716   2.11137
 Alpha virt. eigenvalues --    2.11186   2.11500   2.11527   2.11589   2.11683
 Alpha virt. eigenvalues --    2.11947   2.12435   2.12533   2.12752   2.12799
 Alpha virt. eigenvalues --    2.12914   2.12962   2.13685   2.13767   2.14079
 Alpha virt. eigenvalues --    2.14422   2.15284   2.15505   2.15894   2.16174
 Alpha virt. eigenvalues --    2.16467   2.16699   2.16712   2.17259   2.17369
 Alpha virt. eigenvalues --    2.17653   2.17795   2.18015   2.18019   2.18138
 Alpha virt. eigenvalues --    2.18284   2.18724   2.18844   2.19291   2.19606
 Alpha virt. eigenvalues --    2.19887   2.20009   2.20172   2.20328   2.20512
 Alpha virt. eigenvalues --    2.21087   2.21329   2.21610   2.21706   2.21843
 Alpha virt. eigenvalues --    2.21943   2.22638   2.22797   2.23265   2.23466
 Alpha virt. eigenvalues --    2.24335   2.24539   2.24892   2.25131   2.26264
 Alpha virt. eigenvalues --    2.26512   2.26727   2.27066   2.27099   2.27280
 Alpha virt. eigenvalues --    2.28104   2.28387   2.29221   2.29540   2.29699
 Alpha virt. eigenvalues --    2.29958   2.30431   2.30666   2.30852   2.31045
 Alpha virt. eigenvalues --    2.31158   2.31325   2.32057   2.32360   2.33095
 Alpha virt. eigenvalues --    2.33301   2.33420   2.33579   2.34098   2.34260
 Alpha virt. eigenvalues --    2.35343   2.35347   2.35764   2.35980   2.36287
 Alpha virt. eigenvalues --    2.36417   2.36570   2.36588   2.37604   2.37811
 Alpha virt. eigenvalues --    2.38179   2.38481   2.38830   2.38842   2.39564
 Alpha virt. eigenvalues --    2.39749   2.40133   2.40398   2.40460   2.40880
 Alpha virt. eigenvalues --    2.41259   2.41269   2.41633   2.41794   2.42009
 Alpha virt. eigenvalues --    2.42181   2.42878   2.42960   2.43052   2.43512
 Alpha virt. eigenvalues --    2.44055   2.44123   2.44685   2.44864   2.44890
 Alpha virt. eigenvalues --    2.45074   2.45496   2.45662   2.46223   2.46352
 Alpha virt. eigenvalues --    2.46432   2.46580   2.46754   2.46859   2.47203
 Alpha virt. eigenvalues --    2.47487   2.47661   2.47996   2.49241   2.49525
 Alpha virt. eigenvalues --    2.50007   2.50013   2.50483   2.50546   2.51090
 Alpha virt. eigenvalues --    2.51325   2.51689   2.51844   2.52419   2.52434
 Alpha virt. eigenvalues --    2.52776   2.53232   2.53863   2.54057   2.54071
 Alpha virt. eigenvalues --    2.54382   2.54732   2.54905   2.55449   2.55759
 Alpha virt. eigenvalues --    2.57802   2.58168   2.58593   2.59015   2.60172
 Alpha virt. eigenvalues --    2.60337   2.60590   2.60985   2.61651   2.61918
 Alpha virt. eigenvalues --    2.62502   2.62507   2.62913   2.63211   2.63899
 Alpha virt. eigenvalues --    2.64185   2.64282   2.64584   2.65035   2.65199
 Alpha virt. eigenvalues --    2.65761   2.65911   2.66721   2.66867   2.66926
 Alpha virt. eigenvalues --    2.67140   2.67856   2.68075   2.68804   2.68892
 Alpha virt. eigenvalues --    2.68986   2.69070   2.69342   2.69672   2.69955
 Alpha virt. eigenvalues --    2.70231   2.70936   2.71122   2.71942   2.72001
 Alpha virt. eigenvalues --    2.72526   2.72611   2.72774   2.72801   2.73213
 Alpha virt. eigenvalues --    2.73408   2.73471   2.73493   2.74460   2.74581
 Alpha virt. eigenvalues --    2.74928   2.75118   2.76535   2.76612   2.77125
 Alpha virt. eigenvalues --    2.77185   2.77389   2.77663   2.78093   2.78356
 Alpha virt. eigenvalues --    2.78684   2.78778   2.79080   2.79205   2.80267
 Alpha virt. eigenvalues --    2.80319   2.80549   2.80717   2.81060   2.81209
 Alpha virt. eigenvalues --    2.81888   2.82022   2.82285   2.82423   2.83681
 Alpha virt. eigenvalues --    2.83714   2.83912   2.83932   2.84486   2.84614
 Alpha virt. eigenvalues --    2.84819   2.84997   2.85590   2.85759   2.86709
 Alpha virt. eigenvalues --    2.86939   2.87184   2.87577   2.88067   2.88291
 Alpha virt. eigenvalues --    2.88467   2.88696   2.88875   2.88944   2.90470
 Alpha virt. eigenvalues --    2.90719   2.91129   2.91176   2.93119   2.93378
 Alpha virt. eigenvalues --    2.93847   2.94149   2.94478   2.94670   2.95358
 Alpha virt. eigenvalues --    2.95499   2.95811   2.96172   2.96392   2.96439
 Alpha virt. eigenvalues --    2.96879   2.97149   2.97794   2.98109   2.98144
 Alpha virt. eigenvalues --    2.98316   2.98367   2.98559   2.98630   2.98817
 Alpha virt. eigenvalues --    2.98840   2.99002   2.99516   2.99880   2.99985
 Alpha virt. eigenvalues --    3.00024   3.00181   3.00403   3.00427   3.01040
 Alpha virt. eigenvalues --    3.01934   3.01967   3.02001   3.02141   3.02691
 Alpha virt. eigenvalues --    3.02828   3.02959   3.03259   3.03363   3.03747
 Alpha virt. eigenvalues --    3.04117   3.04119   3.04404   3.04500   3.04509
 Alpha virt. eigenvalues --    3.04800   3.05230   3.05450   3.06066   3.06278
 Alpha virt. eigenvalues --    3.06789   3.07020   3.08005   3.08073   3.09363
 Alpha virt. eigenvalues --    3.09476   3.09670   3.10413   3.10435   3.10786
 Alpha virt. eigenvalues --    3.11256   3.11636   3.11926   3.12035   3.12111
 Alpha virt. eigenvalues --    3.12340   3.13253   3.13570   3.13680   3.13782
 Alpha virt. eigenvalues --    3.14063   3.14452   3.15852   3.16110   3.17208
 Alpha virt. eigenvalues --    3.17574   3.17944   3.17981   3.19052   3.19099
 Alpha virt. eigenvalues --    3.22267   3.22591   3.23893   3.24483   3.24624
 Alpha virt. eigenvalues --    3.25218   3.26451   3.26721   3.27454   3.27571
 Alpha virt. eigenvalues --    3.29063   3.29203   3.31436   3.31470   3.33254
 Alpha virt. eigenvalues --    3.33363   3.40218   3.40602   3.42730   3.42873
 Alpha virt. eigenvalues --    3.48607   3.48740   3.49974   3.50353   3.50898
 Alpha virt. eigenvalues --    3.51418   3.56486   3.57072   3.59041   3.59432
 Alpha virt. eigenvalues --    3.62567   3.62782   3.66076   3.66166   3.67152
 Alpha virt. eigenvalues --    3.67515   3.73231   3.74007   3.76012   3.76674
          Condensed to atoms (all electrons):
 Mulliken charges:
               1
     1  Mg   0.838689
     2  C   -0.002913
     3  C   -0.093693
     4  C   -0.046339
     5  C   -0.063937
     6  N   -0.256830
     7  C   -0.052159
     8  C   -0.014088
     9  C   -0.087044
    10  C    0.046324
    11  C    0.104753
    12  C    0.053310
    13  C   -0.072301
    14  H    0.037187
    15  N   -0.433049
    16  C    0.168202
    17  C   -0.177137
    18  C   -0.004486
    19  C    0.148569
    20  C    0.110088
    21  C    0.011387
    22  O   -0.250373
    23  C    0.062800
    24  N   -0.341167
    25  C    0.041329
    26  C   -0.028039
    27  C   -0.024036
    28  C    0.074931
    29  C    0.076184
    30  C    0.035156
    31  C   -0.004535
    32  N   -0.310526
    33  C    0.080562
    34  C   -0.169653
    35  C    0.008335
    36  C    0.083037
    37  C    0.127330
    38  C    0.046010
    39  O   -0.188322
    40  C   -0.005259
    41  C    0.212943
    42  O   -0.257468
    43  O   -0.304641
    44  C    0.157756
    45  H   -0.017295
    46  H   -0.017340
    47  H   -0.041270
    48  H    0.001087
    49  H   -0.003507
    50  H    0.025490
    51  H    0.016295
    52  H    0.016993
    53  H    0.011597
    54  H    0.043944
    55  H    0.017749
    56  H    0.018625
    57  H    0.006483
    58  H    0.026847
    59  H    0.039194
    60  H    0.038049
    61  H    0.034684
    62  H    0.030650
    63  H    0.015784
    64  H    0.009673
    65  H    0.022881
    66  H    0.012696
    67  H    0.004982
    68  H    0.006109
    69  H    0.005276
    70  H    0.007409
    71  H    0.019184
    72  H    0.029078
    73  H    0.047526
    74  H    0.009361
    75  H    0.046213
    76  H    0.035419
    77  H    0.043040
    78  H    0.046983
    79  H    0.053222
    80  Mg   0.838211
    81  C   -0.017176
    82  C   -0.088086
    83  C   -0.045431
    84  C   -0.062870
    85  N   -0.254577
    86  C   -0.049978
    87  C   -0.015032
    88  C   -0.090448
    89  C    0.045632
    90  C    0.114352
    91  C    0.062614
    92  C   -0.077577
    93  H    0.034391
    94  N   -0.423509
    95  C    0.162935
    96  C   -0.174690
    97  C   -0.007968
    98  C    0.152236
    99  C    0.099417
   100  C    0.015310
   101  O   -0.253197
   102  C    0.061284
   103  N   -0.349942
   104  C    0.038155
   105  C   -0.020346
   106  C   -0.035189
   107  C    0.088976
   108  C    0.072756
   109  C    0.034593
   110  C   -0.007561
   111  N   -0.324126
   112  C    0.078324
   113  C   -0.162608
   114  C    0.001822
   115  C    0.096453
   116  C    0.131599
   117  C    0.042091
   118  O   -0.189025
   119  C    0.001002
   120  C    0.211158
   121  O   -0.250942
   122  O   -0.305985
   123  C    0.152137
   124  H   -0.019406
   125  H   -0.015477
   126  H   -0.039629
   127  H   -0.001760
   128  H   -0.004483
   129  H    0.021141
   130  H    0.015548
   131  H    0.016241
   132  H    0.014084
   133  H    0.037565
   134  H    0.020056
   135  H    0.019686
   136  H    0.008901
   137  H    0.025974
   138  H    0.039397
   139  H    0.038017
   140  H    0.036055
   141  H    0.033777
   142  H    0.013838
   143  H    0.015485
   144  H    0.024433
   145  H    0.011870
   146  H    0.009601
   147  H    0.006612
   148  H    0.003789
   149  H    0.010684
   150  H    0.017420
   151  H    0.029614
   152  H    0.045165
   153  H    0.008960
   154  H    0.047514
   155  H    0.033932
   156  H    0.043234
   157  H    0.049365
   158  H    0.053613
 Sum of Mulliken charges =  -0.00000
 Mulliken charges with hydrogens summed into heavy atoms:
               1
     1  Mg   0.838689
     2  C   -0.002913
     3  C   -0.110988
     4  C   -0.063678
     5  C   -0.105207
     6  N   -0.256830
     7  C   -0.052159
     8  C   -0.013002
     9  C   -0.090551
    10  C    0.046324
    11  C    0.163532
    12  C    0.108851
    13  C    0.001260
    15  N   -0.433049
    16  C    0.168202
    17  C   -0.177137
    18  C   -0.004486
    19  C    0.148569
    20  C    0.182612
    21  C    0.011387
    22  O   -0.250373
    23  C    0.166182
    24  N   -0.341167
    25  C    0.041329
    26  C   -0.012255
    27  C   -0.014363
    28  C    0.074931
    29  C    0.116743
    30  C    0.046541
    31  C    0.051137
    32  N   -0.310526
    33  C    0.080562
    34  C   -0.169653
    35  C    0.008335
    36  C    0.083037
    37  C    0.230431
    38  C    0.046010
    39  O   -0.188322
    40  C    0.030160
    41  C    0.212943
    42  O   -0.257468
    43  O   -0.304641
    44  C    0.301001
    80  Mg   0.838211
    81  C   -0.017176
    82  C   -0.107492
    83  C   -0.060909
    84  C   -0.102499
    85  N   -0.254577
    86  C   -0.049978
    87  C   -0.016792
    88  C   -0.094931
    89  C    0.045632
    90  C    0.167282
    91  C    0.114264
    92  C   -0.003444
    94  N   -0.423509
    95  C    0.162935
    96  C   -0.174690
    97  C   -0.007968
    98  C    0.152236
    99  C    0.173688
   100  C    0.015310
   101  O   -0.253197
   102  C    0.169133
   103  N   -0.349942
   104  C    0.038155
   105  C   -0.006507
   106  C   -0.019704
   107  C    0.088976
   108  C    0.118661
   109  C    0.044995
   110  C    0.050157
   111  N   -0.324126
   112  C    0.078324
   113  C   -0.162608
   114  C    0.001822
   115  C    0.096453
   116  C    0.233238
   117  C    0.042091
   118  O   -0.189025
   119  C    0.034934
   120  C    0.211158
   121  O   -0.250942
   122  O   -0.305985
   123  C    0.298349
 Electronic spatial extent (au):  <R**2>=         115336.9822
 Charge=             -0.0000 electrons
 Dipole moment (field-independent basis, Debye):
    X=              3.2751    Y=             -4.2615    Z=              4.1666  Tot=              6.8006
 Quadrupole moment (field-independent basis, Debye-Ang):
   XX=           -520.1324   YY=           -499.9216   ZZ=           -498.8895
   XY=             25.7824   XZ=             23.1837   YZ=              1.1617
 Traceless Quadrupole moment (field-independent basis, Debye-Ang):
   XX=            -13.8179   YY=              6.3929   ZZ=              7.4250
   XY=             25.7824   XZ=             23.1837   YZ=              1.1617
 Octapole moment (field-independent basis, Debye-Ang**2):
  XXX=            277.0143  YYY=            125.1945  ZZZ=            384.1547  XYY=            -78.9275
  XXY=           -220.8773  XXZ=            137.1601  XZZ=             75.6524  YZZ=            -68.6548
  YYZ=           -151.7474  XYZ=            355.0324
 Hexadecapole moment (field-independent basis, Debye-Ang**3):
 XXXX=         -91854.0123 YYYY=         -32291.5684 ZZZZ=         -32637.6759 XXXY=           1219.4416
 XXXZ=            526.3791 YYYX=           1585.3327 YYYZ=            591.9522 ZZZX=          -1057.7115
 ZZZY=           -651.8454 XXYY=         -20500.1281 XXZZ=         -19943.3473 YYZZ=         -11624.3072
 XXYZ=            296.4053 YYXZ=            728.4846 ZZXY=           -584.0875
 N-N= 1.493086080285D+04 E-N=-3.934272636161D+04  KE= 4.028801777867D+03
 Leave Link  601 at Fri Sep 10 18:35:05 2021, MaxMem= 23488102400 cpu:              13.5 elap:               0.7
 (Enter /sw/apps/gaussian-16.0/g16/l9999.exe)
 1\1\GINC-BP1-COMPUTE00105\SP\RCAM-B3LYP TD-FC\def2SVP\C68H72Mg2N8O8\OF
 15641\10-Sep-2021\0\\#p cam-b3lyp/Def2SVP td=(nstates=5)\\TDDFT excite
 d states in gaussian\\0,1\Mg,0,0.,0.,0.\C,0,-0.217,-2.218,2.801\C,0,-1
 .255,2.442,2.026\C,0,-0.245,1.85,-2.564\C,0,0.146,-2.824,-2.037\N,0,-0
 .617,-0.009,2.126\C,0,-0.594,-0.908,3.105\C,0,-0.936,-0.309,4.502\C,0,
 -1.773,0.964,4.032\C,0,-1.155,1.168,2.66\C,0,-3.263,0.685,3.863\C,0,0.
 345,0.11,5.299\C,0,0.124,0.397,6.787\H,0,1.168,0.033,7.733\N,0,-0.185,
 1.961,-0.152\C,0,-0.703,2.8,0.777\C,0,-0.62,4.156,0.193\C,0,-0.187,4.0
 15,-1.225\C,0,-0.214,2.583,-1.38\C,0,-0.887,5.406,0.974\C,0,0.181,5.01
 3,-2.277\O,0,0.303,4.69,-3.508\C,0,0.31,6.414,-1.837\N,0,-0.265,-0.413
 ,-2.029\C,0,-0.279,0.569,-2.937\C,0,-0.196,0.024,-4.332\C,0,0.124,-1.5
 33,-4.18\C,0,0.086,-1.632,-2.635\C,0,-1.451,0.205,-5.197\C,0,1.373,-2.
 07,-4.923\C,0,2.626,-1.49,-4.306\N,0,0.15,-2.144,0.303\C,0,0.173,-3.13
 6,-0.688\C,0,0.173,-4.438,0.004\C,0,0.133,-4.111,1.358\C,0,0.083,-2.69
 5,1.502\C,0,0.149,-5.715,-0.623\C,0,0.096,-4.629,2.716\O,0,0.208,-5.74
 7,3.221\C,0,-0.255,-3.428,3.701\C,0,0.717,-3.482,4.848\O,0,1.931,-3.25
 5,4.669\O,0,0.038,-3.556,6.003\C,0,0.943,-3.583,7.183\H,0,-1.859,3.22,
 2.497\H,0,-0.218,2.453,-3.474\H,0,0.276,-3.747,-2.605\H,0,-1.554,-0.94
 9,5.132\H,0,-1.585,1.831,4.665\H,0,-3.484,-0.377,3.969\H,0,-3.511,1.02
 7,2.858\H,0,-3.852,1.301,4.543\H,0,0.669,1.096,4.966\H,0,1.13,-0.639,5
 .189\H,0,-0.844,0.026,7.125\H,0,0.062,1.477,6.921\H,0,-1.344,5.186,1.9
 38\H,0,-1.651,5.963,0.432\H,0,0.007,6.02,1.084\H,0,-0.635,6.744,-1.405
 \H,0,0.665,6.97,-2.704\H,0,1.048,6.466,-1.036\H,0,0.608,0.501,-4.891\H
 ,0,-0.692,-2.156,-4.547\H,0,-1.267,0.74,-6.129\H,0,-2.204,0.714,-4.596
 \H,0,-1.967,-0.72,-5.453\H,0,1.356,-1.759,-5.967\H,0,1.452,-3.157,-4.9
 02\H,0,2.714,-0.522,-4.798\H,0,3.487,-2.121,-4.529\H,0,2.495,-1.303,-3
 .24\H,0,0.867,-6.333,-0.084\H,0,0.404,-5.642,-1.68\H,0,-0.891,-5.999,-
 0.463\H,0,-1.283,-3.581,4.028\H,0,0.698,-4.478,7.755\H,0,0.833,-2.619,
 7.68\H,0,2.,-3.754,6.976\Mg,0,10.51782,0.95326,0.79458\C,0,9.89456,3.7
 757,2.92165\C,0,9.65613,2.93889,-1.84159\C,0,10.62123,-1.62436,-1.0527
 4\C,0,10.21594,-1.066,3.61897\N,0,9.87709,3.06727,0.68182\C,0,9.73596,
 4.05848,1.54895\C,0,9.48524,5.44746,0.90285\C,0,8.87094,4.95436,-0.496
 57\C,0,9.5325,3.5805,-0.58336\C,0,7.36463,4.75747,-0.45658\C,0,10.8125
 2,6.25781,0.69383\C,0,10.61624,7.73733,0.35582\H,0,11.57867,8.70401,0.
 8771\N,0,10.66592,0.79197,-1.17789\C,0,10.28862,1.70284,-2.09942\C,0,1
 0.58794,1.09964,-3.40737\C,0,11.01989,-0.30737,-3.18723\C,0,10.76015,-
 0.44388,-1.76808\C,0,10.5296,1.87305,-4.69262\C,0,11.56325,-1.36035,-4
 .10494\O,0,11.64743,-2.58796,-3.74618\C,0,11.90661,-0.92857,-5.46771\N
 ,0,10.22237,-1.0687,1.17761\C,0,10.37895,-1.98623,0.20728\C,0,10.38685
 ,-3.38528,0.77561\C,0,10.44564,-3.20368,2.36342\C,0,10.36812,-1.66331,
 2.44499\C,0,9.18825,-4.25956,0.40765\C,0,11.59872,-3.92642,3.11223\C,0
 ,12.9257,-3.30655,2.7377\N,0,10.31182,1.2742,2.92122\C,0,10.17574,0.28
 867,3.92336\C,0,9.95043,0.99518,5.20105\C,0,9.94808,2.35283,4.84715\C,
 0,10.13701,2.48248,3.44466\C,0,9.73353,0.37865,6.46556\C,0,9.81813,3.7
 0537,5.33955\O,0,9.72946,4.21941,6.45384\C,0,9.65134,4.68185,4.09654\C
 ,0,10.58622,5.84417,4.29024\O,0,11.81798,5.67313,4.27971\O,0,9.88199,6
 .98948,4.23827\C,0,10.76731,8.17145,4.41427\H,0,9.18825,3.40435,-2.709
 53\H,0,10.75966,-2.54304,-1.62751\H,0,10.21009,-1.62063,4.55972\H,0,8.
 76789,6.06876,1.4255\H,0,9.19851,5.5878,-1.31682\H,0,6.9702,4.8684,0.5
 4255\H,0,7.1892,3.75462,-0.82341\H,0,6.87766,5.42873,-1.16974\H,0,11.2
 9848,5.91702,-0.22945\H,0,11.45449,6.16439,1.5481\H,0,9.59044,8.07236,
 0.55187\H,0,10.73884,7.8662,-0.72231\H,0,10.02187,2.83635,-4.55972\H,0
 ,9.87792,1.3141,-5.37287\H,0,11.51024,1.98974,-5.15887\H,0,11.0245,-0.
 51096,-5.94725\H,0,12.36134,-1.7992,-5.94426\H,0,12.64264,-0.11942,-5.
 40333\H,0,11.26541,-3.92945,0.45137\H,0,9.53894,-3.59024,2.85159\H,0,9
 .47434,-5.2056,-0.08957\H,0,8.52632,-3.68276,-0.22455\H,0,8.53871,-4.5
 2656,1.23952\H,0,11.6491,-4.97486,2.80828\H,0,11.49062,-3.90886,4.1915
 8\H,0,13.17453,-3.80602,1.79659\H,0,13.6729,-3.51001,3.50212\H,0,12.81
 42,-2.23719,2.52391\H,0,10.32536,0.92817,7.18547\H,0,10.00637,-0.67442
 ,6.44646\H,0,8.6546,0.52132,6.5696\H,0,8.6076,4.9968,4.0651\H,0,10.365
 87,8.74933,5.25247\H,0,10.79886,8.67063,3.42757\H,0,11.78257,7.99192,4
 .74814\\Version=ES64L-G16RevA.03\State=1-A\HF=-4069.8120693\RMSD=6.755
 e-09\PG=C01 [X(C68H72Mg2N8O8)]\\@


 "ANNA, YOU MUSN'T SPEAK OF OXIDIZED MURIATIC ACID
 ANYMORE, FROM NOW ON YOU MUST SAY CHLORINE."
   -- JENS JACOB BERZELIUS, IN 1820, TO HIS COOK, WHO HAD
 COMPLAINED OF THE SMELL OF THE FLASK SHE WAS CLEANING.
 Job cpu time:       0 days 17 hours 45 minutes 21.0 seconds.
 Elapsed time:       0 days  0 hours 45 minutes  2.9 seconds.
 File lengths (MBytes):  RWF=  13225 Int=      0 D2E=      0 Chk=    574 Scr=      1
 Normal termination of Gaussian 16 at Fri Sep 10 18:35:06 2021.
