 Entering Gaussian System, Link 0=g16
 Initial command:
 /sw/apps/gaussian-16.0/g16/l1.exe "/tmp/Gau-71025.inp" -scrdir="/tmp/"
 Entering Link 1 = /sw/apps/gaussian-16.0/g16/l1.exe PID=     71026.
  
 Copyright (c) 1988,1990,1992,1993,1995,1998,2003,2009,2016,
            Gaussian, Inc.  All Rights Reserved.
  
 This is part of the Gaussian(R) 16 program.  It is based on
 the Gaussian(R) 09 system (copyright 2009, Gaussian, Inc.),
 the Gaussian(R) 03 system (copyright 2003, Gaussian, Inc.),
 the Gaussian(R) 98 system (copyright 1998, Gaussian, Inc.),
 the Gaussian(R) 94 system (copyright 1995, Gaussian, Inc.),
 the Gaussian 92(TM) system (copyright 1992, Gaussian, Inc.),
 the Gaussian 90(TM) system (copyright 1990, Gaussian, Inc.),
 the Gaussian 88(TM) system (copyright 1988, Gaussian, Inc.),
 the Gaussian 86(TM) system (copyright 1986, Carnegie Mellon
 University), and the Gaussian 82(TM) system (copyright 1983,
 Carnegie Mellon University). Gaussian is a federally registered
 trademark of Gaussian, Inc.
  
 This software contains proprietary and confidential information,
 including trade secrets, belonging to Gaussian, Inc.
  
 This software is provided under written license and may be
 used, copied, transmitted, or stored only in accord with that
 written license.
  
 The following legend is applicable only to US Government
 contracts under FAR:
  
                    RESTRICTED RIGHTS LEGEND
  
 Use, reproduction and disclosure by the US Government is
 subject to restrictions as set forth in subparagraphs (a)
 and (c) of the Commercial Computer Software - Restricted
 Rights clause in FAR 52.227-19.
  
 Gaussian, Inc.
 340 Quinnipiac St., Bldg. 40, Wallingford CT 06492
  
  
 ---------------------------------------------------------------
 Warning -- This program may not be used in any manner that
 competes with the business of Gaussian, Inc. or will provide
 assistance to any competitor of Gaussian, Inc.  The licensee
 of this program is prohibited from giving any competitor of
 Gaussian, Inc. access to this program.  By using this program,
 the user acknowledges that Gaussian, Inc. is engaged in the
 business of creating and licensing software in the field of
 computational chemistry and represents and warrants to the
 licensee that it is not a competitor of Gaussian, Inc. and that
 it will not use this program in any manner prohibited above.
 ---------------------------------------------------------------
  

 Cite this work as:
 Gaussian 16, Revision A.03,
 M. J. Frisch, G. W. Trucks, H. B. Schlegel, G. E. Scuseria, 
 M. A. Robb, J. R. Cheeseman, G. Scalmani, V. Barone, 
 G. A. Petersson, H. Nakatsuji, X. Li, M. Caricato, A. V. Marenich, 
 J. Bloino, B. G. Janesko, R. Gomperts, B. Mennucci, H. P. Hratchian, 
 J. V. Ortiz, A. F. Izmaylov, J. L. Sonnenberg, D. Williams-Young, 
 F. Ding, F. Lipparini, F. Egidi, J. Goings, B. Peng, A. Petrone, 
 T. Henderson, D. Ranasinghe, V. G. Zakrzewski, J. Gao, N. Rega, 
 G. Zheng, W. Liang, M. Hada, M. Ehara, K. Toyota, R. Fukuda, 
 J. Hasegawa, M. Ishida, T. Nakajima, Y. Honda, O. Kitao, H. Nakai, 
 T. Vreven, K. Throssell, J. A. Montgomery, Jr., J. E. Peralta, 
 F. Ogliaro, M. J. Bearpark, J. J. Heyd, E. N. Brothers, K. N. Kudin, 
 V. N. Staroverov, T. A. Keith, R. Kobayashi, J. Normand, 
 K. Raghavachari, A. P. Rendell, J. C. Burant, S. S. Iyengar, 
 J. Tomasi, M. Cossi, J. M. Millam, M. Klene, C. Adamo, R. Cammi, 
 J. W. Ochterski, R. L. Martin, K. Morokuma, O. Farkas, 
 J. B. Foresman, and D. J. Fox, Gaussian, Inc., Wallingford CT, 2016.
 
 ******************************************
 Gaussian 16:  ES64L-G16RevA.03 25-Dec-2016
                10-Sep-2021 
 ******************************************
 %nproc=24
 Will use up to   24 processors via shared memory.
 %mem=175gb
 -----------------------------------
 #p cam-b3lyp/Def2SVP td=(nstates=5)
 -----------------------------------
 1/38=1,172=1/1;
 2/12=2,17=6,18=5,40=1/2;
 3/5=43,7=101,11=9,25=1,30=1,74=-40/1,2,3,8;
 4//1;
 5/5=2,38=5/2;
 8/6=1,10=1,108=5/1;
 9/41=5,42=1,70=2/14;
 6/7=2,8=2,9=2,10=2/1;
 99/5=1,9=1/99;
 Leave Link    1 at Fri Sep 10 17:02:24 2021, MaxMem= 23488102400 cpu:               0.9 elap:               0.0
 (Enter /sw/apps/gaussian-16.0/g16/l101.exe)
 --------------------------------
 TDDFT excited states in gaussian
 --------------------------------
 Symbolic Z-matrix:
 Charge =  0 Multiplicity = 1
 Mg                    0.        0.        0. 
 C                    -0.217    -2.218     2.801 
 C                    -1.255     2.442     2.026 
 C                    -0.245     1.85     -2.564 
 C                     0.146    -2.824    -2.037 
 N                    -0.617    -0.009     2.126 
 C                    -0.594    -0.908     3.105 
 C                    -0.936    -0.309     4.502 
 C                    -1.773     0.964     4.032 
 C                    -1.155     1.168     2.66 
 C                    -3.263     0.685     3.863 
 C                     0.345     0.11      5.299 
 C                     0.124     0.397     6.787 
 H                     1.168     0.033     7.733 
 N                    -0.185     1.961    -0.152 
 C                    -0.703     2.8       0.777 
 C                    -0.62      4.156     0.193 
 C                    -0.187     4.015    -1.225 
 C                    -0.214     2.583    -1.38 
 C                    -0.887     5.406     0.974 
 C                     0.181     5.013    -2.277 
 O                     0.303     4.69     -3.508 
 C                     0.31      6.414    -1.837 
 N                    -0.265    -0.413    -2.029 
 C                    -0.279     0.569    -2.937 
 C                    -0.196     0.024    -4.332 
 C                     0.124    -1.533    -4.18 
 C                     0.086    -1.632    -2.635 
 C                    -1.451     0.205    -5.197 
 C                     1.373    -2.07     -4.923 
 C                     2.626    -1.49     -4.306 
 N                     0.15     -2.144     0.303 
 C                     0.173    -3.136    -0.688 
 C                     0.173    -4.438     0.004 
 C                     0.133    -4.111     1.358 
 C                     0.083    -2.695     1.502 
 C                     0.149    -5.715    -0.623 
 C                     0.096    -4.629     2.716 
 O                     0.208    -5.747     3.221 
 C                    -0.255    -3.428     3.701 
 C                     0.717    -3.482     4.848 
 O                     1.931    -3.255     4.669 
 O                     0.038    -3.556     6.003 
 C                     0.943    -3.583     7.183 
 H                    -1.859     3.22      2.497 
 H                    -0.218     2.453    -3.474 
 H                     0.276    -3.747    -2.605 
 H                    -1.554    -0.949     5.132 
 H                    -1.585     1.831     4.665 
 H                    -3.484    -0.377     3.969 
 H                    -3.511     1.027     2.858 
 H                    -3.852     1.301     4.543 
 H                     0.669     1.096     4.966 
 H                     1.13     -0.639     5.189 
 H                    -0.844     0.026     7.125 
 H                     0.062     1.477     6.921 
 H                    -1.344     5.186     1.938 
 H                    -1.651     5.963     0.432 
 H                     0.007     6.02      1.084 
 H                    -0.635     6.744    -1.405 
 H                     0.665     6.97     -2.704 
 H                     1.048     6.466    -1.036 
 H                     0.608     0.501    -4.891 
 H                    -0.692    -2.156    -4.547 
 H                    -1.267     0.74     -6.129 
 H                    -2.204     0.714    -4.596 
 H                    -1.967    -0.72     -5.453 
 H                     1.356    -1.759    -5.967 
 H                     1.452    -3.157    -4.902 
 H                     2.714    -0.522    -4.798 
 H                     3.487    -2.121    -4.529 
 H                     2.495    -1.303    -3.24 
 H                     0.867    -6.333    -0.084 
 H                     0.404    -5.642    -1.68 
 H                    -0.891    -5.999    -0.463 
 H                    -1.283    -3.581     4.028 
 H                     0.698    -4.478     7.755 
 H                     0.833    -2.619     7.68 
 H                     2.       -3.754     6.976 
 Mg                    10.51298   0.93934   0.80618 
 C                     7.87316   1.67887   3.1221 
 C                     12.71189   1.76561   3.27937 
 C                     12.84546   0.73215  -1.33486 
 C                     8.17385   1.28058  -1.75463 
 N                     10.21007   1.61876   2.88918 
 C                     9.16301   1.80418   3.67888 
 C                     9.51813   2.06424   5.16744 
 C                     11.00775   2.6287    4.96421 
 C                     11.35339   1.93761   3.64679 
 C                     11.05693   4.1313    4.74261 
 C                     9.51417   0.74805   6.02164 
 C                     9.54761   0.96424   7.5362 
 H                     8.80881   0.03647   8.38819 
 N                     12.47086   0.73227   1.05595 
 C                     13.19751   1.10149   2.13156 
 C                     14.59117   0.75326   1.81437 
 C                     14.65066   0.29966   0.39824 
 C                     13.29868   0.59668  -0.03071 
 C                     15.69165   0.79065   2.83464 
 C                     15.74707  -0.29041  -0.43597 
 O                     15.64524  -0.38893  -1.70984 
 C                     16.98069  -0.66349   0.27148 
 N                     10.56239   1.20501  -1.25521 
 C                     11.6948   1.00271  -1.95138 
 C                     11.42555   0.98291  -3.43715 
 C                     9.8332    0.97274  -3.58511 
 C                     9.43994   1.08333  -2.09564 
 C                     12.00293   2.15289  -4.23349 
 C                     9.21225  -0.17291  -4.43044 
 C                     9.40928  -1.4973   -3.7286 
 N                     8.37337   1.21182   0.68012 
 C                     7.59952   1.35647  -0.49219 
 C                     6.21191   1.63194  -0.06666 
 C                     6.27972   1.65142   1.33459 
 C                     7.61907   1.4255    1.75243 
 C                     5.10829   1.87216  -0.93294 
 C                     5.52477   1.82228   2.55507 
 O                     4.33214   1.95271   2.82774 
 C                     6.54573   1.97332   3.76387 
 C                     6.08812   1.06773   4.87428 
 O                     6.09432  -0.16701   4.72602 
 O                     5.92645   1.79297   5.99601 
 C                     5.4837    0.9368    7.1286 
 H                     13.48034   2.21795   3.90687 
 H                     13.59173   0.55917  -2.11373 
 H                     7.36752   1.30197  -2.49087 
 H                     8.90225   2.80838   5.65807 
 H                     11.6698   2.29078   5.75722 
 H                     10.06935   4.55599   4.64029 
 H                     11.62703   4.27619   3.83429 
 H                     11.63237   4.61122   5.5394 
 H                     10.47179   0.22943   5.88469 
 H                     8.67725   0.12877   5.76341 
 H                     9.31974   2.00167   7.80962 
 H                     10.57194   0.81377   7.88568 
 H                     15.38022   1.32111   3.74295 
 H                     16.49246   1.41152   2.41859 
 H                     16.09263  -0.20026   3.05819 
 H                     17.39219   0.21286   0.76659 
 H                     17.61097  -1.14885  -0.47623 
 H                     16.72834  -1.38108   1.06015 
 H                     11.82639   0.08483  -3.89087 
 H                     9.46378   1.88497  -4.07623 
 H                     12.67426   1.83398  -5.05306 
 H                     12.52412   2.80808  -3.54819 
 H                     11.26461   2.82026  -4.67474 
 H                     9.72302  -0.25284  -5.39318 
 H                     8.15624  -0.03398  -4.63668 
 H                     10.42443  -1.78261  -4.02043 
 H                     8.67948  -2.22649  -4.0746 
 H                     9.40263  -1.37053  -2.63978 
 H                     4.27253   1.31205  -0.5351 
 H                     5.33428   1.57788  -1.95573 
 H                     5.01157   2.95624  -0.82957 
 H                     6.54509   3.02184   4.06416 
 H                     4.55799   1.37328   7.51621 
 H                     6.34553   0.88733   7.82038 
 H                     5.16163  -0.07198   6.89824 
 
 ITRead=  0  0  0  0  0  0  0  0  0  0  0  0  0  0  0  0  0  0  0  0
 ITRead=  0  0  0  0  0  0  0  0  0  0  0  0  0  0  0  0  0  0  0  0
 ITRead=  0  0  0  0  0  0  0  0  0  0  0  0  0  0  0  0  0  0  0  0
 ITRead=  0  0  0  0  0  0  0  0  0  0  0  0  0  0  0  0  0  0  0  0
 ITRead=  0  0  0  0  0  0  0  0  0  0  0  0  0  0  0  0  0  0  0  0
 ITRead=  0  0  0  0  0  0  0  0  0  0  0  0  0  0  0  0  0  0  0  0
 ITRead=  0  0  0  0  0  0  0  0  0  0  0  0  0  0  0  0  0  0  0  0
 ITRead=  0  0  0  0  0  0  0  0  0  0  0  0  0  0  0  0  0  0
 MicOpt= -1 -1 -1 -1 -1 -1 -1 -1 -1 -1 -1 -1 -1 -1 -1 -1 -1 -1 -1 -1
 MicOpt= -1 -1 -1 -1 -1 -1 -1 -1 -1 -1 -1 -1 -1 -1 -1 -1 -1 -1 -1 -1
 MicOpt= -1 -1 -1 -1 -1 -1 -1 -1 -1 -1 -1 -1 -1 -1 -1 -1 -1 -1 -1 -1
 MicOpt= -1 -1 -1 -1 -1 -1 -1 -1 -1 -1 -1 -1 -1 -1 -1 -1 -1 -1 -1 -1
 MicOpt= -1 -1 -1 -1 -1 -1 -1 -1 -1 -1 -1 -1 -1 -1 -1 -1 -1 -1 -1 -1
 MicOpt= -1 -1 -1 -1 -1 -1 -1 -1 -1 -1 -1 -1 -1 -1 -1 -1 -1 -1 -1 -1
 MicOpt= -1 -1 -1 -1 -1 -1 -1 -1 -1 -1 -1 -1 -1 -1 -1 -1 -1 -1 -1 -1
 MicOpt= -1 -1 -1 -1 -1 -1 -1 -1 -1 -1 -1 -1 -1 -1 -1 -1 -1 -1
 NAtoms=    158 NQM=      158 NQMF=       0 NMMI=      0 NMMIF=      0
                NMic=       0 NMicF=      0.
                    Isotopes and Nuclear Properties:
 (Nuclear quadrupole moments (NQMom) in fm**2, nuclear magnetic moments (NMagM)
  in nuclear magnetons)

  Atom         1           2           3           4           5           6           7           8           9          10
 IAtWgt=          24          12          12          12          12          14          12          12          12          12
 AtmWgt=  23.9850450  12.0000000  12.0000000  12.0000000  12.0000000  14.0030740  12.0000000  12.0000000  12.0000000  12.0000000
 NucSpn=           0           0           0           0           0           2           0           0           0           0
 AtZEff=  -0.0000000  -0.0000000  -0.0000000  -0.0000000  -0.0000000  -0.0000000  -0.0000000  -0.0000000  -0.0000000  -0.0000000
 NQMom=    0.0000000   0.0000000   0.0000000   0.0000000   0.0000000   2.0440000   0.0000000   0.0000000   0.0000000   0.0000000
 NMagM=    0.0000000   0.0000000   0.0000000   0.0000000   0.0000000   0.4037610   0.0000000   0.0000000   0.0000000   0.0000000
 AtZNuc=  12.0000000   6.0000000   6.0000000   6.0000000   6.0000000   7.0000000   6.0000000   6.0000000   6.0000000   6.0000000

  Atom        11          12          13          14          15          16          17          18          19          20
 IAtWgt=          12          12          12           1          14          12          12          12          12          12
 AtmWgt=  12.0000000  12.0000000  12.0000000   1.0078250  14.0030740  12.0000000  12.0000000  12.0000000  12.0000000  12.0000000
 NucSpn=           0           0           0           1           2           0           0           0           0           0
 AtZEff=  -0.0000000  -0.0000000  -0.0000000  -0.0000000  -0.0000000  -0.0000000  -0.0000000  -0.0000000  -0.0000000  -0.0000000
 NQMom=    0.0000000   0.0000000   0.0000000   0.0000000   2.0440000   0.0000000   0.0000000   0.0000000   0.0000000   0.0000000
 NMagM=    0.0000000   0.0000000   0.0000000   2.7928460   0.4037610   0.0000000   0.0000000   0.0000000   0.0000000   0.0000000
 AtZNuc=   6.0000000   6.0000000   6.0000000   1.0000000   7.0000000   6.0000000   6.0000000   6.0000000   6.0000000   6.0000000

  Atom        21          22          23          24          25          26          27          28          29          30
 IAtWgt=          12          16          12          14          12          12          12          12          12          12
 AtmWgt=  12.0000000  15.9949146  12.0000000  14.0030740  12.0000000  12.0000000  12.0000000  12.0000000  12.0000000  12.0000000
 NucSpn=           0           0           0           2           0           0           0           0           0           0
 AtZEff=  -0.0000000  -0.0000000  -0.0000000  -0.0000000  -0.0000000  -0.0000000  -0.0000000  -0.0000000  -0.0000000  -0.0000000
 NQMom=    0.0000000   0.0000000   0.0000000   2.0440000   0.0000000   0.0000000   0.0000000   0.0000000   0.0000000   0.0000000
 NMagM=    0.0000000   0.0000000   0.0000000   0.4037610   0.0000000   0.0000000   0.0000000   0.0000000   0.0000000   0.0000000
 AtZNuc=   6.0000000   8.0000000   6.0000000   7.0000000   6.0000000   6.0000000   6.0000000   6.0000000   6.0000000   6.0000000

  Atom        31          32          33          34          35          36          37          38          39          40
 IAtWgt=          12          14          12          12          12          12          12          12          16          12
 AtmWgt=  12.0000000  14.0030740  12.0000000  12.0000000  12.0000000  12.0000000  12.0000000  12.0000000  15.9949146  12.0000000
 NucSpn=           0           2           0           0           0           0           0           0           0           0
 AtZEff=  -0.0000000  -0.0000000  -0.0000000  -0.0000000  -0.0000000  -0.0000000  -0.0000000  -0.0000000  -0.0000000  -0.0000000
 NQMom=    0.0000000   2.0440000   0.0000000   0.0000000   0.0000000   0.0000000   0.0000000   0.0000000   0.0000000   0.0000000
 NMagM=    0.0000000   0.4037610   0.0000000   0.0000000   0.0000000   0.0000000   0.0000000   0.0000000   0.0000000   0.0000000
 AtZNuc=   6.0000000   7.0000000   6.0000000   6.0000000   6.0000000   6.0000000   6.0000000   6.0000000   8.0000000   6.0000000

  Atom        41          42          43          44          45          46          47          48          49          50
 IAtWgt=          12          16          16          12           1           1           1           1           1           1
 AtmWgt=  12.0000000  15.9949146  15.9949146  12.0000000   1.0078250   1.0078250   1.0078250   1.0078250   1.0078250   1.0078250
 NucSpn=           0           0           0           0           1           1           1           1           1           1
 AtZEff=  -0.0000000  -0.0000000  -0.0000000  -0.0000000  -0.0000000  -0.0000000  -0.0000000  -0.0000000  -0.0000000  -0.0000000
 NQMom=    0.0000000   0.0000000   0.0000000   0.0000000   0.0000000   0.0000000   0.0000000   0.0000000   0.0000000   0.0000000
 NMagM=    0.0000000   0.0000000   0.0000000   0.0000000   2.7928460   2.7928460   2.7928460   2.7928460   2.7928460   2.7928460
 AtZNuc=   6.0000000   8.0000000   8.0000000   6.0000000   1.0000000   1.0000000   1.0000000   1.0000000   1.0000000   1.0000000

  Atom        51          52          53          54          55          56          57          58          59          60
 IAtWgt=           1           1           1           1           1           1           1           1           1           1
 AtmWgt=   1.0078250   1.0078250   1.0078250   1.0078250   1.0078250   1.0078250   1.0078250   1.0078250   1.0078250   1.0078250
 NucSpn=           1           1           1           1           1           1           1           1           1           1
 AtZEff=  -0.0000000  -0.0000000  -0.0000000  -0.0000000  -0.0000000  -0.0000000  -0.0000000  -0.0000000  -0.0000000  -0.0000000
 NQMom=    0.0000000   0.0000000   0.0000000   0.0000000   0.0000000   0.0000000   0.0000000   0.0000000   0.0000000   0.0000000
 NMagM=    2.7928460   2.7928460   2.7928460   2.7928460   2.7928460   2.7928460   2.7928460   2.7928460   2.7928460   2.7928460
 AtZNuc=   1.0000000   1.0000000   1.0000000   1.0000000   1.0000000   1.0000000   1.0000000   1.0000000   1.0000000   1.0000000

  Atom        61          62          63          64          65          66          67          68          69          70
 IAtWgt=           1           1           1           1           1           1           1           1           1           1
 AtmWgt=   1.0078250   1.0078250   1.0078250   1.0078250   1.0078250   1.0078250   1.0078250   1.0078250   1.0078250   1.0078250
 NucSpn=           1           1           1           1           1           1           1           1           1           1
 AtZEff=  -0.0000000  -0.0000000  -0.0000000  -0.0000000  -0.0000000  -0.0000000  -0.0000000  -0.0000000  -0.0000000  -0.0000000
 NQMom=    0.0000000   0.0000000   0.0000000   0.0000000   0.0000000   0.0000000   0.0000000   0.0000000   0.0000000   0.0000000
 NMagM=    2.7928460   2.7928460   2.7928460   2.7928460   2.7928460   2.7928460   2.7928460   2.7928460   2.7928460   2.7928460
 AtZNuc=   1.0000000   1.0000000   1.0000000   1.0000000   1.0000000   1.0000000   1.0000000   1.0000000   1.0000000   1.0000000

  Atom        71          72          73          74          75          76          77          78          79          80
 IAtWgt=           1           1           1           1           1           1           1           1           1          24
 AtmWgt=   1.0078250   1.0078250   1.0078250   1.0078250   1.0078250   1.0078250   1.0078250   1.0078250   1.0078250  23.9850450
 NucSpn=           1           1           1           1           1           1           1           1           1           0
 AtZEff=  -0.0000000  -0.0000000  -0.0000000  -0.0000000  -0.0000000  -0.0000000  -0.0000000  -0.0000000  -0.0000000  -0.0000000
 NQMom=    0.0000000   0.0000000   0.0000000   0.0000000   0.0000000   0.0000000   0.0000000   0.0000000   0.0000000   0.0000000
 NMagM=    2.7928460   2.7928460   2.7928460   2.7928460   2.7928460   2.7928460   2.7928460   2.7928460   2.7928460   0.0000000
 AtZNuc=   1.0000000   1.0000000   1.0000000   1.0000000   1.0000000   1.0000000   1.0000000   1.0000000   1.0000000  12.0000000

  Atom        81          82          83          84          85          86          87          88          89          90
 IAtWgt=          12          12          12          12          14          12          12          12          12          12
 AtmWgt=  12.0000000  12.0000000  12.0000000  12.0000000  14.0030740  12.0000000  12.0000000  12.0000000  12.0000000  12.0000000
 NucSpn=           0           0           0           0           2           0           0           0           0           0
 AtZEff=  -0.0000000  -0.0000000  -0.0000000  -0.0000000  -0.0000000  -0.0000000  -0.0000000  -0.0000000  -0.0000000  -0.0000000
 NQMom=    0.0000000   0.0000000   0.0000000   0.0000000   2.0440000   0.0000000   0.0000000   0.0000000   0.0000000   0.0000000
 NMagM=    0.0000000   0.0000000   0.0000000   0.0000000   0.4037610   0.0000000   0.0000000   0.0000000   0.0000000   0.0000000
 AtZNuc=   6.0000000   6.0000000   6.0000000   6.0000000   7.0000000   6.0000000   6.0000000   6.0000000   6.0000000   6.0000000

  Atom        91          92          93          94          95          96          97          98          99         100
 IAtWgt=          12          12           1          14          12          12          12          12          12          12
 AtmWgt=  12.0000000  12.0000000   1.0078250  14.0030740  12.0000000  12.0000000  12.0000000  12.0000000  12.0000000  12.0000000
 NucSpn=           0           0           1           2           0           0           0           0           0           0
 AtZEff=  -0.0000000  -0.0000000  -0.0000000  -0.0000000  -0.0000000  -0.0000000  -0.0000000  -0.0000000  -0.0000000  -0.0000000
 NQMom=    0.0000000   0.0000000   0.0000000   2.0440000   0.0000000   0.0000000   0.0000000   0.0000000   0.0000000   0.0000000
 NMagM=    0.0000000   0.0000000   2.7928460   0.4037610   0.0000000   0.0000000   0.0000000   0.0000000   0.0000000   0.0000000
 AtZNuc=   6.0000000   6.0000000   1.0000000   7.0000000   6.0000000   6.0000000   6.0000000   6.0000000   6.0000000   6.0000000

  Atom       101         102         103         104         105         106         107         108         109         110
 IAtWgt=          16          12          14          12          12          12          12          12          12          12
 AtmWgt=  15.9949146  12.0000000  14.0030740  12.0000000  12.0000000  12.0000000  12.0000000  12.0000000  12.0000000  12.0000000
 NucSpn=           0           0           2           0           0           0           0           0           0           0
 AtZEff=  -0.0000000  -0.0000000  -0.0000000  -0.0000000  -0.0000000  -0.0000000  -0.0000000  -0.0000000  -0.0000000  -0.0000000
 NQMom=    0.0000000   0.0000000   2.0440000   0.0000000   0.0000000   0.0000000   0.0000000   0.0000000   0.0000000   0.0000000
 NMagM=    0.0000000   0.0000000   0.4037610   0.0000000   0.0000000   0.0000000   0.0000000   0.0000000   0.0000000   0.0000000
 AtZNuc=   8.0000000   6.0000000   7.0000000   6.0000000   6.0000000   6.0000000   6.0000000   6.0000000   6.0000000   6.0000000

  Atom       111         112         113         114         115         116         117         118         119         120
 IAtWgt=          14          12          12          12          12          12          12          16          12          12
 AtmWgt=  14.0030740  12.0000000  12.0000000  12.0000000  12.0000000  12.0000000  12.0000000  15.9949146  12.0000000  12.0000000
 NucSpn=           2           0           0           0           0           0           0           0           0           0
 AtZEff=  -0.0000000  -0.0000000  -0.0000000  -0.0000000  -0.0000000  -0.0000000  -0.0000000  -0.0000000  -0.0000000  -0.0000000
 NQMom=    2.0440000   0.0000000   0.0000000   0.0000000   0.0000000   0.0000000   0.0000000   0.0000000   0.0000000   0.0000000
 NMagM=    0.4037610   0.0000000   0.0000000   0.0000000   0.0000000   0.0000000   0.0000000   0.0000000   0.0000000   0.0000000
 AtZNuc=   7.0000000   6.0000000   6.0000000   6.0000000   6.0000000   6.0000000   6.0000000   8.0000000   6.0000000   6.0000000

  Atom       121         122         123         124         125         126         127         128         129         130
 IAtWgt=          16          16          12           1           1           1           1           1           1           1
 AtmWgt=  15.9949146  15.9949146  12.0000000   1.0078250   1.0078250   1.0078250   1.0078250   1.0078250   1.0078250   1.0078250
 NucSpn=           0           0           0           1           1           1           1           1           1           1
 AtZEff=  -0.0000000  -0.0000000  -0.0000000  -0.0000000  -0.0000000  -0.0000000  -0.0000000  -0.0000000  -0.0000000  -0.0000000
 NQMom=    0.0000000   0.0000000   0.0000000   0.0000000   0.0000000   0.0000000   0.0000000   0.0000000   0.0000000   0.0000000
 NMagM=    0.0000000   0.0000000   0.0000000   2.7928460   2.7928460   2.7928460   2.7928460   2.7928460   2.7928460   2.7928460
 AtZNuc=   8.0000000   8.0000000   6.0000000   1.0000000   1.0000000   1.0000000   1.0000000   1.0000000   1.0000000   1.0000000

  Atom       131         132         133         134         135         136         137         138         139         140
 IAtWgt=           1           1           1           1           1           1           1           1           1           1
 AtmWgt=   1.0078250   1.0078250   1.0078250   1.0078250   1.0078250   1.0078250   1.0078250   1.0078250   1.0078250   1.0078250
 NucSpn=           1           1           1           1           1           1           1           1           1           1
 AtZEff=  -0.0000000  -0.0000000  -0.0000000  -0.0000000  -0.0000000  -0.0000000  -0.0000000  -0.0000000  -0.0000000  -0.0000000
 NQMom=    0.0000000   0.0000000   0.0000000   0.0000000   0.0000000   0.0000000   0.0000000   0.0000000   0.0000000   0.0000000
 NMagM=    2.7928460   2.7928460   2.7928460   2.7928460   2.7928460   2.7928460   2.7928460   2.7928460   2.7928460   2.7928460
 AtZNuc=   1.0000000   1.0000000   1.0000000   1.0000000   1.0000000   1.0000000   1.0000000   1.0000000   1.0000000   1.0000000

  Atom       141         142         143         144         145         146         147         148         149         150
 IAtWgt=           1           1           1           1           1           1           1           1           1           1
 AtmWgt=   1.0078250   1.0078250   1.0078250   1.0078250   1.0078250   1.0078250   1.0078250   1.0078250   1.0078250   1.0078250
 NucSpn=           1           1           1           1           1           1           1           1           1           1
 AtZEff=  -0.0000000  -0.0000000  -0.0000000  -0.0000000  -0.0000000  -0.0000000  -0.0000000  -0.0000000  -0.0000000  -0.0000000
 NQMom=    0.0000000   0.0000000   0.0000000   0.0000000   0.0000000   0.0000000   0.0000000   0.0000000   0.0000000   0.0000000
 NMagM=    2.7928460   2.7928460   2.7928460   2.7928460   2.7928460   2.7928460   2.7928460   2.7928460   2.7928460   2.7928460
 AtZNuc=   1.0000000   1.0000000   1.0000000   1.0000000   1.0000000   1.0000000   1.0000000   1.0000000   1.0000000   1.0000000

  Atom       151         152         153         154         155         156         157         158
 IAtWgt=           1           1           1           1           1           1           1           1
 AtmWgt=   1.0078250   1.0078250   1.0078250   1.0078250   1.0078250   1.0078250   1.0078250   1.0078250
 NucSpn=           1           1           1           1           1           1           1           1
 AtZEff=  -0.0000000  -0.0000000  -0.0000000  -0.0000000  -0.0000000  -0.0000000  -0.0000000  -0.0000000
 NQMom=    0.0000000   0.0000000   0.0000000   0.0000000   0.0000000   0.0000000   0.0000000   0.0000000
 NMagM=    2.7928460   2.7928460   2.7928460   2.7928460   2.7928460   2.7928460   2.7928460   2.7928460
 AtZNuc=   1.0000000   1.0000000   1.0000000   1.0000000   1.0000000   1.0000000   1.0000000   1.0000000
 Leave Link  101 at Fri Sep 10 17:02:24 2021, MaxMem= 23488102400 cpu:               3.8 elap:               0.2
 (Enter /sw/apps/gaussian-16.0/g16/l202.exe)
 Stoichiometry    C68H72Mg2N8O8
 Framework group  C1[X(C68H72Mg2N8O8)]
 Deg. of freedom   468
 Full point group                 C1      NOp   1
 Largest Abelian subgroup         C1      NOp   1
 Largest concise Abelian subgroup C1      NOp   1
                         Standard orientation:                         
 ---------------------------------------------------------------------
 Center     Atomic      Atomic             Coordinates (Angstroms)
 Number     Number       Type             X           Y           Z
 ---------------------------------------------------------------------
      1         12           0        4.978513   -1.025866    0.070738
      2          6           0        5.422723    1.967948   -1.840274
      3          6           0        5.953618    0.756612    2.812090
      4          6           0        5.032430   -3.752261    1.689529
      5          6           0        5.147264   -2.790435   -2.929842
      6          7           0        5.584140    1.088003    0.326509
      7          6           0        5.654527    2.146502   -0.474613
      8          6           0        5.923979    3.479644    0.285322
      9          6           0        6.620256    2.888243    1.592013
     10          6           0        5.989444    1.506958    1.599354
     11          6           0        8.132376    2.736967    1.461205
     12          6           0        4.601908    4.241906    0.635773
     13          6           0        4.784455    5.695402    1.082294
     14          1           0        3.782095    6.677423    0.697251
     15          7           0        4.950881   -1.360727    2.017519
     16          6           0        5.371252   -0.516930    2.990443
     17          6           0        5.144424   -1.224021    4.269213
     18          6           0        4.735040   -2.620127    3.950799
     19          6           0        4.917450   -2.641412    2.521935
     20          6           0        5.271409   -0.564301    5.608016
     21          6           0        4.265541   -3.758165    4.800841
     22          8           0        4.184253   -4.953027    4.353323
     23          6           0        3.983915   -3.449624    6.214535
     24          7           0        5.294960   -3.009210   -0.498334
     25          6           0        5.206356   -4.004685    0.390577
     26          6           0        5.188530   -5.342417   -0.287726
     27          6           0        5.038245   -5.044324   -1.849234
     28          6           0        5.080397   -3.497071   -1.799239
     29          6           0        6.420117   -6.228038   -0.053458
     30          6           0        3.857735   -5.726624   -2.584952
     31          6           0        2.546818   -5.158723   -2.088884
     32          7           0        5.060119   -0.523852   -2.039325
     33          6           0        5.148647   -1.418124   -3.115946
     34          6           0        5.286677   -0.608027   -4.340184
     35          6           0        5.285509    0.709420   -3.886118
     36          6           0        5.181423    0.720778   -2.465791
     37          6           0        5.451270   -1.113657   -5.659912
     38          6           0        5.372767    2.109469   -4.268358
     39          8           0        5.380314    2.716938   -5.340000
     40          6           0        5.587723    2.976353   -2.949976
     41          6           0        4.622576    4.129230   -3.001689
     42          8           0        3.391886    3.937198   -2.924918
     43          8           0        5.300854    5.282000   -2.893972
     44          6           0        4.399256    6.464819   -2.908646
     45          1           0        6.467961    1.149559    3.691285
     46          1           0        4.944080   -4.714227    2.198699
     47          1           0        5.120220   -3.269324   -3.910345
     48          1           0        6.605006    4.162715   -0.222654
     49          1           0        6.336961    3.438971    2.488766
     50          1           0        8.466543    2.939961    0.443833
     51          1           0        8.346037    1.703038    1.732928
     52          1           0        8.648477    3.353163    2.197899
     53          1           0        4.174499    3.820589    1.545649
     54          1           0        3.903011    4.206779   -0.200669
     55          1           0        5.785518    6.060617    0.851210
     56          1           0        4.728691    5.727986    2.170425
     57          1           0        5.745572    0.413217    5.529441
     58          1           0        5.972877   -1.160349    6.191436
     59          1           0        4.315783   -0.506515    6.129333
     60          1           0        4.885884   -3.055886    6.683546
     61          1           0        3.574402   -4.362432    6.645732
     62          1           0        3.241343   -2.652508    6.260813
     63          1           0        4.339941   -5.938516    0.045423
     64          1           0        5.918358   -5.356685   -2.411823
     65          1           0        6.183137   -7.204638    0.369387
     66          1           0        7.111155   -5.681531    0.587703
     67          1           0        7.034212   -6.399986   -0.937052
     68          1           0        3.845268   -6.795110   -2.372516
     69          1           0        3.896720   -5.604130   -3.667415
     70          1           0        2.356622   -5.738094   -1.186117
     71          1           0        1.760064   -5.316878   -2.827272
     72          1           0        2.652444   -4.115547   -1.790367
     73          1           0        4.802144   -0.515199   -6.299014
     74          1           0        5.194206   -2.171312   -5.713656
     75          1           0        6.515227   -0.934193   -5.813678
     76          1           0        6.624892    3.309977   -2.959828
     77          1           0        4.737303    7.116106   -3.714737
     78          1           0        4.402272    6.869323   -1.896335
     79          1           0        3.367819    6.280985   -3.211438
     80         12           0       -5.577602   -0.247325   -0.060955
     81          6           0       -3.042811    1.973840    1.172048
     82          6           0       -7.863126    2.151467    0.749460
     83          6           0       -7.865173   -2.345739   -0.717554
     84          6           0       -3.278641   -2.842800    0.291194
     85          7           0       -5.358524    1.761585    0.838234
     86          6           0       -4.340920    2.524300    1.208487
     87          6           0       -4.728194    3.984325    1.566115
     88          6           0       -6.269294    3.738436    1.944840
     89          6           0       -6.532728    2.493116    1.100775
     90          6           0       -6.479848    3.378328    3.406114
     91          6           0       -4.585357    4.957212    0.343365
     92          6           0       -4.648202    6.445270    0.694767
     93          1           0       -3.816860    7.375405   -0.064304
     94          7           0       -7.502593    0.032397   -0.454302
     95          6           0       -8.269330    1.073352   -0.067249
     96          6           0       -9.615820    0.798319   -0.592114
     97          6           0       -9.620076   -0.569095   -1.179378
     98          6           0       -8.306420   -1.031939   -0.779187
     99          6           0      -10.718061    1.817289   -0.579063
    100          6           0      -10.642778   -1.338189   -1.959621
    101          8           0      -10.525663   -2.597961   -2.164751
    102          6           0      -11.831682   -0.591694   -2.396363
    103          7           0       -5.647012   -2.324155    0.004694
    104          6           0       -6.748022   -2.991664   -0.382783
    105          6           0       -6.472119   -4.470743   -0.511632
    106          6           0       -4.887423   -4.626693   -0.363337
    107          6           0       -4.514548   -3.156361   -0.072663
    108          6           0       -7.169423   -5.368973    0.509803
    109          6           0       -4.142704   -5.365512   -1.508858
    110          6           0       -4.198164   -4.542349   -2.775640
    111          7           0       -3.479534   -0.411054    0.428299
    112          6           0       -2.721075   -1.596371    0.545957
    113          6           0       -1.373172   -1.206665    1.008241
    114          6           0       -1.448437    0.187080    1.150679
    115          6           0       -2.757184    0.632173    0.821192
    116          6           0       -0.298477   -2.098158    1.284639
    117          6           0       -0.721417    1.381811    1.515058
    118          8           0        0.448972    1.633987    1.798473
    119          6           0       -1.757674    2.577441    1.666749
    120          6           0       -1.209329    3.764500    0.923299
    121          8           0       -1.081294    3.731776   -0.313285
    122          8           0       -1.131676    4.812913    1.763054
    123          6           0       -0.603542    6.017548    1.068976
    124          1           0       -8.678572    2.738783    1.172534
    125          1           0       -8.585147   -3.100638   -1.041970
    126          1           0       -2.476346   -3.582675    0.330972
    127          1           0       -4.198457    4.399895    2.414909
    128          1           0       -6.894144    4.563410    1.612654
    129          1           0       -5.543603    3.231008    3.923692
    130          1           0       -7.058548    2.463915    3.403306
    131          1           0       -7.107097    4.130469    3.893115
    132          1           0       -5.480674    4.874861   -0.286225
    133          1           0       -3.685296    4.752676   -0.203152
    134          1           0       -4.535036    6.619628    1.771678
    135          1           0       -5.651664    6.813387    0.467647
    136          1           0      -10.469579    2.670429    0.064220
    137          1           0      -11.579631    1.350116   -0.089860
    138          1           0      -11.010390    2.134451   -1.582365
    139          1           0      -12.337609   -0.177781   -1.527359
    140          1           0      -12.402678   -1.287210   -3.014522
    141          1           0      -11.506412    0.258773   -3.005888
    142          1           0       -6.771575   -4.836539   -1.486108
    143          1           0       -4.616858   -5.202751    0.533761
    144          1           0       -7.798942   -6.151271    0.045262
    145          1           0       -7.761247   -4.744465    1.165763
    146          1           0       -6.505839   -5.874821    1.209069
    147          1           0       -4.637875   -6.313552   -1.732839
    148          1           0       -3.107088   -5.590130   -1.276396
    149          1           0       -5.175281   -4.800262   -3.194949
    150          1           0       -3.392341   -4.823405   -3.450695
    151          1           0       -4.209734   -3.470102   -2.548054
    152          1           0        0.591339   -1.654978    0.857656
    153          1           0       -0.487105   -3.087762    0.873694
    154          1           0       -0.320040   -2.096659    2.377709
    155          1           0       -1.871712    2.778888    2.732574
    156          1           0        0.267912    6.357301    1.637159
    157          1           0       -1.457790    6.716103    0.991265
    158          1           0       -0.173277    5.880088    0.083883
 ---------------------------------------------------------------------
 Rotational constants (GHZ):           0.0259531           0.0115473           0.0100502
 Leave Link  202 at Fri Sep 10 17:02:24 2021, MaxMem= 23488102400 cpu:               0.3 elap:               0.0
 (Enter /sw/apps/gaussian-16.0/g16/l301.exe)
 Standard basis: def2SVP (5D, 7F)
 Ernie: Thresh=  0.10000D-02 Tol=  0.10000D-05 Strict=F.
 There are  1658 symmetry adapted cartesian basis functions of A   symmetry.
 There are  1572 symmetry adapted basis functions of A   symmetry.
  1572 basis functions,  2678 primitive gaussians,  1658 cartesian basis functions
   312 alpha electrons      312 beta electrons
       nuclear repulsion energy     15375.0645010843 Hartrees.
 IExCor=20419 DFT=T Ex+Corr=CAM-B3LYP ExCW=0 ScaHFX=  1.000000
 ScaDFX=  1.000000  1.000000  1.000000  0.810000 ScalE2=  1.000000  1.000000
 IRadAn=      5 IRanWt=     -1 IRanGd=            0 ICorTp=0 IEmpDi=  4
 HFx  wShort=  0.000000 wLong=  0.330000 cFull=  0.190000 cShort=  0.000000 cLong=  0.460000
 DFx  wShort=  0.000000 wLong=  0.330000 cFull=  0.190000 cShort=  0.000000 cLong=  0.460000
 NAtoms=  158 NActive=  158 NUniq=  158 SFac= 1.00D+00 NAtFMM=   60 NAOKFM=T Big=T
 Integral buffers will be    131072 words long.
 Raffenetti 1 integral format.
 Two-electron integral symmetry is turned on.
 Leave Link  301 at Fri Sep 10 17:02:24 2021, MaxMem= 23488102400 cpu:               1.3 elap:               0.1
 (Enter /sw/apps/gaussian-16.0/g16/l302.exe)
 NPDir=0 NMtPBC=     1 NCelOv=     1 NCel=       1 NClECP=     1 NCelD=      1
         NCelK=      1 NCelE2=     1 NClLst=     1 CellRange=     0.0.
 One-electron integrals computed using PRISM.
 One-electron integral symmetry used in STVInt
   1 Symmetry operations used in ECPInt.
 ECPInt:  NShTT=  271216 NPrTT=  987664 LenC2=  145378 LenP2D=  308821.
 LDataN:  DoStor=T MaxTD1= 4 Len=   56
 NBasis=  1572 RedAO= T EigKep=  3.36D-04  NBF=  1572
 NBsUse=  1572 1.00D-06 EigRej= -1.00D+00 NBFU=  1572
 Precomputing XC quadrature grid using
 IXCGrd= 4 IRadAn=           5 IRanWt=          -1 IRanGd=           0 AccXCQ= 0.00D+00.
 Generated NRdTot=       0 NPtTot=           0 NUsed=           0 NTot=          32
 NSgBfM=  1473  1470  1473  1473  1473 MxSgAt=   158 MxSgA2=   158.
 Leave Link  302 at Fri Sep 10 17:02:29 2021, MaxMem= 23488102400 cpu:             131.6 elap:               5.5
 (Enter /sw/apps/gaussian-16.0/g16/l303.exe)
 DipDrv:  MaxL=1.
 Leave Link  303 at Fri Sep 10 17:02:30 2021, MaxMem= 23488102400 cpu:              11.2 elap:               0.5
 (Enter /sw/apps/gaussian-16.0/g16/l308.exe)
 Leave Link  308 at Fri Sep 10 17:02:31 2021, MaxMem= 23488102400 cpu:              13.0 elap:               0.6
 (Enter /sw/apps/gaussian-16.0/g16/l401.exe)
 ExpMin= 3.36D-02 ExpMax= 4.95D+03 ExpMxC= 7.45D+02 IAcc=3 IRadAn=         5 AccDes= 0.00D+00
 Harris functional with IExCor=20419 and IRadAn=       5 diagonalized for initial guess.
 HarFok:  IExCor=20419 AccDes= 0.00D+00 IRadAn=         5 IDoV= 1 UseB2=F ITyADJ=14
 ICtDFT=  3500011 ScaDFX=  1.000000  1.000000  1.000000  1.000000
 FoFCou: FMM=F IPFlag=           0 FMFlag=      100000 FMFlg1=        2001
         NFxFlg=           0 DoJE=T BraDBF=F KetDBF=T FulRan=T
         wScrn=  0.000000 ICntrl=       500 IOpCl=  0 I1Cent=   200000004 NGrid=           0
         NMat0=    1 NMatS0=      1 NMatT0=    0 NMatD0=    1 NMtDS0=    0 NMtDT0=    0
 Petite list used in FoFCou.
 Harris En= -3918.65934982789    
 JPrj=0 DoOrth=F DoCkMO=F.
 Leave Link  401 at Fri Sep 10 17:02:39 2021, MaxMem= 23488102400 cpu:             191.8 elap:               8.0
 (Enter /sw/apps/gaussian-16.0/g16/l502.exe)
 Integral symmetry usage will be decided dynamically.
 Closed shell SCF:
 Using DIIS extrapolation, IDIIS=  1040.
 NGot= 23488102400 LenX= 23482547354 LenY= 23479796732
 Requested convergence on RMS density matrix=1.00D-08 within 128 cycles.
 Requested convergence on MAX density matrix=1.00D-06.
 Requested convergence on             energy=1.00D-06.
 No special actions if energy rises.
 Fock matrices will be formed incrementally for  20 cycles.

 Cycle   1  Pass 1  IDiag  1:
 FoFJK:  IHMeth= 1 ICntrl=       0 DoSepK=T KAlg= 0 I1Cent=           0 FoldK=F
 IRaf=         1 NMat=       1 IRICut=       1 DoRegI=T DoRafI=F ISym2E= 0 IDoP0=0 IntGTp=1.
 FoFCou: FMM=T IPFlag=           0 FMFlag=      100000 FMFlg1=        2001
         NFxFlg=           0 DoJE=T BraDBF=F KetDBF=F FulRan=T
         wScrn=  0.000000 ICntrl=       500 IOpCl=  0 I1Cent=           0 NGrid=           0
         NMat0=    1 NMatS0=      1 NMatT0=    0 NMatD0=    1 NMtDS0=    0 NMtDT0=    0
 Symmetry not used in FoFCou.
 FMM levels:  10  Number of levels for PrismC:   9
 E= -4068.94825902998    
 DIIS: error= 2.03D-02 at cycle   1 NSaved=   1.
 NSaved= 1 IEnMin= 1 EnMin= -4068.94825902998     IErMin= 1 ErrMin= 2.03D-02
 ErrMax= 2.03D-02  0.00D+00 EMaxC= 1.00D-01 BMatC= 1.69D+00 BMatP= 1.69D+00
 IDIUse=3 WtCom= 7.97D-01 WtEn= 2.03D-01
 Coeff-Com:  0.100D+01
 Coeff-En:   0.100D+01
 Coeff:      0.100D+01
 Gap=     0.119 Goal=   None    Shift=    0.000
 GapD=    0.119 DampG=1.000 DampE=0.500 DampFc=0.5000 IDamp=-1.
 Damping current iteration by 5.00D-01
 RMSDP=1.57D-03 MaxDP=1.40D-01              OVMax= 1.96D-01

 Cycle   2  Pass 1  IDiag  1:
 RMSU=  7.70D-04    CP:  9.82D-01
 E= -4069.33730948121     Delta-E=       -0.389050451227 Rises=F Damp=T
 DIIS: error= 1.26D-02 at cycle   2 NSaved=   2.
 NSaved= 2 IEnMin= 2 EnMin= -4069.33730948121     IErMin= 2 ErrMin= 1.26D-02
 ErrMax= 1.26D-02  0.00D+00 EMaxC= 1.00D-01 BMatC= 3.07D-01 BMatP= 1.69D+00
 IDIUse=3 WtCom= 8.74D-01 WtEn= 1.26D-01
 Coeff-Com: -0.213D+00 0.121D+01
 Coeff-En:   0.000D+00 0.100D+01
 Coeff:     -0.186D+00 0.119D+01
 Gap=     0.134 Goal=   None    Shift=    0.000
 RMSDP=7.67D-04 MaxDP=9.06D-02 DE=-3.89D-01 OVMax= 1.90D-01

 Cycle   3  Pass 1  IDiag  1:
 RMSU=  7.33D-04    CP:  9.68D-01  1.25D+00
 E= -4069.62536494282     Delta-E=       -0.288055461613 Rises=F Damp=F
 DIIS: error= 1.63D-02 at cycle   3 NSaved=   3.
 NSaved= 3 IEnMin= 3 EnMin= -4069.62536494282     IErMin= 2 ErrMin= 1.26D-02
 ErrMax= 1.63D-02  0.00D+00 EMaxC= 1.00D-01 BMatC= 2.06D-01 BMatP= 3.07D-01
 IDIUse=3 WtCom= 8.37D-01 WtEn= 1.63D-01
 Coeff-Com: -0.268D+00 0.655D+00 0.612D+00
 Coeff-En:   0.000D+00 0.000D+00 0.100D+01
 Coeff:     -0.224D+00 0.548D+00 0.676D+00
 Gap=     0.118 Goal=   None    Shift=    0.000
 RMSDP=5.16D-04 MaxDP=5.01D-02 DE=-2.88D-01 OVMax= 1.40D-01

 Cycle   4  Pass 1  IDiag  1:
 RMSU=  2.71D-04    CP:  9.65D-01  1.55D+00  4.96D-01
 E= -4069.76154710510     Delta-E=       -0.136182162278 Rises=F Damp=F
 DIIS: error= 7.85D-03 at cycle   4 NSaved=   4.
 NSaved= 4 IEnMin= 4 EnMin= -4069.76154710510     IErMin= 4 ErrMin= 7.85D-03
 ErrMax= 7.85D-03  0.00D+00 EMaxC= 1.00D-01 BMatC= 5.45D-02 BMatP= 2.06D-01
 IDIUse=3 WtCom= 9.21D-01 WtEn= 7.85D-02
 Coeff-Com: -0.110D+00 0.229D+00 0.413D+00 0.469D+00
 Coeff-En:   0.000D+00 0.000D+00 0.231D+00 0.769D+00
 Coeff:     -0.101D+00 0.211D+00 0.398D+00 0.492D+00
 Gap=     0.118 Goal=   None    Shift=    0.000
 RMSDP=2.08D-04 MaxDP=2.27D-02 DE=-1.36D-01 OVMax= 6.28D-02

 Cycle   5  Pass 1  IDiag  1:
 RMSU=  7.93D-05    CP:  9.64D-01  1.49D+00  6.86D-01  5.37D-01
 E= -4069.80984819172     Delta-E=       -0.048301086619 Rises=F Damp=F
 DIIS: error= 8.87D-04 at cycle   5 NSaved=   5.
 NSaved= 5 IEnMin= 5 EnMin= -4069.80984819172     IErMin= 5 ErrMin= 8.87D-04
 ErrMax= 8.87D-04  0.00D+00 EMaxC= 1.00D-01 BMatC= 1.39D-03 BMatP= 5.45D-02
 IDIUse=3 WtCom= 9.91D-01 WtEn= 8.87D-03
 Coeff-Com: -0.374D-01 0.737D-01 0.173D+00 0.256D+00 0.534D+00
 Coeff-En:   0.000D+00 0.000D+00 0.000D+00 0.000D+00 0.100D+01
 Coeff:     -0.371D-01 0.730D-01 0.172D+00 0.254D+00 0.538D+00
 Gap=     0.118 Goal=   None    Shift=    0.000
 RMSDP=4.33D-05 MaxDP=4.65D-03 DE=-4.83D-02 OVMax= 1.71D-02

 Cycle   6  Pass 1  IDiag  1:
 RMSU=  3.10D-05    CP:  9.64D-01  1.50D+00  6.77D-01  6.13D-01  7.37D-01
 E= -4069.81104010576     Delta-E=       -0.001191914038 Rises=F Damp=F
 DIIS: error= 2.09D-04 at cycle   6 NSaved=   6.
 NSaved= 6 IEnMin= 6 EnMin= -4069.81104010576     IErMin= 6 ErrMin= 2.09D-04
 ErrMax= 2.09D-04  0.00D+00 EMaxC= 1.00D-01 BMatC= 1.79D-04 BMatP= 1.39D-03
 IDIUse=3 WtCom= 9.98D-01 WtEn= 2.09D-03
 Coeff-Com:  0.203D-02-0.626D-02 0.127D-01 0.423D-01 0.292D+00 0.657D+00
 Coeff-En:   0.000D+00 0.000D+00 0.000D+00 0.000D+00 0.841D-01 0.916D+00
 Coeff:      0.202D-02-0.624D-02 0.127D-01 0.422D-01 0.292D+00 0.658D+00
 Gap=     0.118 Goal=   None    Shift=    0.000
 RMSDP=1.61D-05 MaxDP=1.20D-03 DE=-1.19D-03 OVMax= 7.47D-03

 Cycle   7  Pass 1  IDiag  1:
 RMSU=  1.11D-05    CP:  9.64D-01  1.50D+00  6.83D-01  6.13D-01  8.35D-01
                    CP:  7.59D-01
 E= -4069.81122866071     Delta-E=       -0.000188554954 Rises=F Damp=F
 DIIS: error= 8.61D-05 at cycle   7 NSaved=   7.
 NSaved= 7 IEnMin= 7 EnMin= -4069.81122866071     IErMin= 7 ErrMin= 8.61D-05
 ErrMax= 8.61D-05  0.00D+00 EMaxC= 1.00D-01 BMatC= 2.34D-05 BMatP= 1.79D-04
 IDIUse=1 WtCom= 1.00D+00 WtEn= 0.00D+00
 Coeff-Com:  0.445D-02-0.979D-02-0.851D-02-0.253D-02 0.993D-01 0.342D+00
 Coeff-Com:  0.575D+00
 Coeff:      0.445D-02-0.979D-02-0.851D-02-0.253D-02 0.993D-01 0.342D+00
 Coeff:      0.575D+00
 Gap=     0.118 Goal=   None    Shift=    0.000
 RMSDP=6.62D-06 MaxDP=1.06D-03 DE=-1.89D-04 OVMax= 3.50D-03

 Cycle   8  Pass 1  IDiag  1:
 RMSU=  4.71D-06    CP:  9.64D-01  1.50D+00  6.83D-01  6.18D-01  8.37D-01
                    CP:  8.81D-01  8.02D-01
 E= -4069.81125705031     Delta-E=       -0.000028389597 Rises=F Damp=F
 DIIS: error= 5.35D-05 at cycle   8 NSaved=   8.
 NSaved= 8 IEnMin= 8 EnMin= -4069.81125705031     IErMin= 8 ErrMin= 5.35D-05
 ErrMax= 5.35D-05  0.00D+00 EMaxC= 1.00D-01 BMatC= 4.89D-06 BMatP= 2.34D-05
 IDIUse=1 WtCom= 1.00D+00 WtEn= 0.00D+00
 Coeff-Com:  0.218D-02-0.435D-02-0.781D-02-0.118D-01-0.979D-02 0.384D-01
 Coeff-Com:  0.331D+00 0.662D+00
 Coeff:      0.218D-02-0.435D-02-0.781D-02-0.118D-01-0.979D-02 0.384D-01
 Coeff:      0.331D+00 0.662D+00
 Gap=     0.119 Goal=   None    Shift=    0.000
 RMSDP=3.27D-06 MaxDP=3.36D-04 DE=-2.84D-05 OVMax= 1.09D-03

 Cycle   9  Pass 1  IDiag  1:
 RMSU=  1.91D-06    CP:  9.64D-01  1.50D+00  6.84D-01  6.19D-01  8.53D-01
                    CP:  9.07D-01  9.90D-01  9.48D-01
 E= -4069.81126465771     Delta-E=       -0.000007607399 Rises=F Damp=F
 DIIS: error= 1.80D-05 at cycle   9 NSaved=   9.
 NSaved= 9 IEnMin= 9 EnMin= -4069.81126465771     IErMin= 9 ErrMin= 1.80D-05
 ErrMax= 1.80D-05  0.00D+00 EMaxC= 1.00D-01 BMatC= 6.77D-07 BMatP= 4.89D-06
 IDIUse=1 WtCom= 1.00D+00 WtEn= 0.00D+00
 Coeff-Com:  0.470D-03-0.785D-03-0.272D-02-0.595D-02-0.198D-01-0.378D-01
 Coeff-Com:  0.967D-01 0.323D+00 0.646D+00
 Coeff:      0.470D-03-0.785D-03-0.272D-02-0.595D-02-0.198D-01-0.378D-01
 Coeff:      0.967D-01 0.323D+00 0.646D+00
 Gap=     0.119 Goal=   None    Shift=    0.000
 RMSDP=1.40D-06 MaxDP=1.62D-04 DE=-7.61D-06 OVMax= 7.28D-04

 Cycle  10  Pass 1  IDiag  1:
 RMSU=  9.21D-07    CP:  9.64D-01  1.50D+00  6.84D-01  6.20D-01  8.56D-01
                    CP:  9.21D-01  1.03D+00  1.11D+00  1.06D+00
 E= -4069.81126619388     Delta-E=       -0.000001536177 Rises=F Damp=F
 DIIS: error= 9.74D-06 at cycle  10 NSaved=  10.
 NSaved=10 IEnMin=10 EnMin= -4069.81126619388     IErMin=10 ErrMin= 9.74D-06
 ErrMax= 9.74D-06  0.00D+00 EMaxC= 1.00D-01 BMatC= 1.64D-07 BMatP= 6.77D-07
 IDIUse=1 WtCom= 1.00D+00 WtEn= 0.00D+00
 Coeff-Com: -0.391D-03 0.826D-03 0.109D-02 0.864D-03-0.379D-02-0.301D-01
 Coeff-Com: -0.404D-01-0.669D-01 0.255D+00 0.884D+00
 Coeff:     -0.391D-03 0.826D-03 0.109D-02 0.864D-03-0.379D-02-0.301D-01
 Coeff:     -0.404D-01-0.669D-01 0.255D+00 0.884D+00
 Gap=     0.119 Goal=   None    Shift=    0.000
 RMSDP=1.16D-06 MaxDP=1.17D-04 DE=-1.54D-06 OVMax= 5.67D-04

 Cycle  11  Pass 1  IDiag  1:
 RMSU=  5.18D-07    CP:  9.64D-01  1.50D+00  6.84D-01  6.20D-01  8.58D-01
                    CP:  9.30D-01  1.08D+00  1.21D+00  1.37D+00  1.37D+00
 E= -4069.81126691719     Delta-E=       -0.000000723307 Rises=F Damp=F
 DIIS: error= 4.09D-06 at cycle  11 NSaved=  11.
 NSaved=11 IEnMin=11 EnMin= -4069.81126691719     IErMin=11 ErrMin= 4.09D-06
 ErrMax= 4.09D-06  0.00D+00 EMaxC= 1.00D-01 BMatC= 6.06D-08 BMatP= 1.64D-07
 IDIUse=1 WtCom= 1.00D+00 WtEn= 0.00D+00
 Coeff-Com: -0.318D-03 0.619D-03 0.129D-02 0.202D-02 0.401D-02-0.813D-02
 Coeff-Com: -0.399D-01-0.129D+00-0.270D-01 0.463D+00 0.733D+00
 Coeff:     -0.318D-03 0.619D-03 0.129D-02 0.202D-02 0.401D-02-0.813D-02
 Coeff:     -0.399D-01-0.129D+00-0.270D-01 0.463D+00 0.733D+00
 Gap=     0.119 Goal=   None    Shift=    0.000
 RMSDP=6.78D-07 MaxDP=6.47D-05 DE=-7.23D-07 OVMax= 3.62D-04

 Cycle  12  Pass 1  IDiag  1:
 RMSU=  2.66D-07    CP:  9.64D-01  1.50D+00  6.84D-01  6.20D-01  8.59D-01
                    CP:  9.33D-01  1.10D+00  1.27D+00  1.53D+00  1.76D+00
                    CP:  1.18D+00
 E= -4069.81126717324     Delta-E=       -0.000000256045 Rises=F Damp=F
 DIIS: error= 2.04D-06 at cycle  12 NSaved=  12.
 NSaved=12 IEnMin=12 EnMin= -4069.81126717324     IErMin=12 ErrMin= 2.04D-06
 ErrMax= 2.04D-06  0.00D+00 EMaxC= 1.00D-01 BMatC= 1.47D-08 BMatP= 6.06D-08
 IDIUse=1 WtCom= 1.00D+00 WtEn= 0.00D+00
 Coeff-Com: -0.134D-04 0.102D-04 0.229D-03 0.572D-03 0.312D-02 0.369D-02
 Coeff-Com:  0.123D-02-0.377D-01-0.679D-01-0.581D-01 0.261D+00 0.894D+00
 Coeff:     -0.134D-04 0.102D-04 0.229D-03 0.572D-03 0.312D-02 0.369D-02
 Coeff:      0.123D-02-0.377D-01-0.679D-01-0.581D-01 0.261D+00 0.894D+00
 Gap=     0.119 Goal=   None    Shift=    0.000
 RMSDP=4.24D-07 MaxDP=2.91D-05 DE=-2.56D-07 OVMax= 2.38D-04

 Cycle  13  Pass 1  IDiag  1:
 RMSU=  1.68D-07    CP:  9.64D-01  1.50D+00  6.84D-01  6.20D-01  8.59D-01
                    CP:  9.33D-01  1.10D+00  1.30D+00  1.64D+00  1.98D+00
                    CP:  1.58D+00  1.26D+00
 E= -4069.81126726271     Delta-E=       -0.000000089472 Rises=F Damp=F
 DIIS: error= 1.16D-06 at cycle  13 NSaved=  13.
 NSaved=13 IEnMin=13 EnMin= -4069.81126726271     IErMin=13 ErrMin= 1.16D-06
 ErrMax= 1.16D-06  0.00D+00 EMaxC= 1.00D-01 BMatC= 8.25D-09 BMatP= 1.47D-08
 IDIUse=1 WtCom= 1.00D+00 WtEn= 0.00D+00
 Coeff-Com:  0.116D-03-0.236D-03-0.353D-03-0.422D-03 0.544D-03 0.504D-02
 Coeff-Com:  0.185D-01 0.226D-01-0.318D-01-0.242D+00-0.169D+00 0.586D+00
 Coeff-Com:  0.810D+00
 Coeff:      0.116D-03-0.236D-03-0.353D-03-0.422D-03 0.544D-03 0.504D-02
 Coeff:      0.185D-01 0.226D-01-0.318D-01-0.242D+00-0.169D+00 0.586D+00
 Coeff:      0.810D+00
 Gap=     0.119 Goal=   None    Shift=    0.000
 RMSDP=3.51D-07 MaxDP=2.26D-05 DE=-8.95D-08 OVMax= 2.04D-04

 Cycle  14  Pass 1  IDiag  1:
 RMSU=  7.85D-08    CP:  9.64D-01  1.50D+00  6.84D-01  6.20D-01  8.60D-01
                    CP:  9.34D-01  1.11D+00  1.33D+00  1.71D+00  2.19D+00
                    CP:  1.85D+00  1.80D+00  1.12D+00
 E= -4069.81126730104     Delta-E=       -0.000000038330 Rises=F Damp=F
 DIIS: error= 6.14D-07 at cycle  14 NSaved=  14.
 NSaved=14 IEnMin=14 EnMin= -4069.81126730104     IErMin=14 ErrMin= 6.14D-07
 ErrMax= 6.14D-07  0.00D+00 EMaxC= 1.00D-01 BMatC= 1.33D-09 BMatP= 8.25D-09
 IDIUse=1 WtCom= 1.00D+00 WtEn= 0.00D+00
 Coeff-Com:  0.676D-04-0.133D-03-0.252D-03-0.387D-03-0.472D-03 0.137D-02
 Coeff-Com:  0.105D-01 0.200D-01 0.455D-02-0.106D+00-0.153D+00 0.949D-01
 Coeff-Com:  0.424D+00 0.705D+00
 Coeff:      0.676D-04-0.133D-03-0.252D-03-0.387D-03-0.472D-03 0.137D-02
 Coeff:      0.105D-01 0.200D-01 0.455D-02-0.106D+00-0.153D+00 0.949D-01
 Coeff:      0.424D+00 0.705D+00
 Gap=     0.119 Goal=   None    Shift=    0.000
 RMSDP=1.08D-07 MaxDP=7.14D-06 DE=-3.83D-08 OVMax= 6.00D-05

 Cycle  15  Pass 1  IDiag  1:
 RMSU=  3.95D-08    CP:  9.64D-01  1.50D+00  6.84D-01  6.20D-01  8.60D-01
                    CP:  9.34D-01  1.11D+00  1.33D+00  1.73D+00  2.23D+00
                    CP:  1.96D+00  1.95D+00  1.37D+00  1.02D+00
 E= -4069.81126730560     Delta-E=       -0.000000004558 Rises=F Damp=F
 DIIS: error= 3.32D-07 at cycle  15 NSaved=  15.
 NSaved=15 IEnMin=15 EnMin= -4069.81126730560     IErMin=15 ErrMin= 3.32D-07
 ErrMax= 3.32D-07  0.00D+00 EMaxC= 1.00D-01 BMatC= 2.40D-10 BMatP= 1.33D-09
 IDIUse=1 WtCom= 1.00D+00 WtEn= 0.00D+00
 Coeff-Com:  0.779D-05-0.137D-04-0.424D-04-0.950D-04-0.305D-03-0.464D-03
 Coeff-Com:  0.139D-02 0.334D-02 0.895D-02-0.602D-03-0.356D-01-0.729D-01
 Coeff-Com:  0.359D-01 0.303D+00 0.757D+00
 Coeff:      0.779D-05-0.137D-04-0.424D-04-0.950D-04-0.305D-03-0.464D-03
 Coeff:      0.139D-02 0.334D-02 0.895D-02-0.602D-03-0.356D-01-0.729D-01
 Coeff:      0.359D-01 0.303D+00 0.757D+00
 Gap=     0.119 Goal=   None    Shift=    0.000
 RMSDP=4.33D-08 MaxDP=2.63D-06 DE=-4.56D-09 OVMax= 2.77D-05

 Cycle  16  Pass 1  IDiag  1:
 RMSU=  1.97D-08    CP:  9.64D-01  1.50D+00  6.84D-01  6.20D-01  8.60D-01
                    CP:  9.34D-01  1.11D+00  1.33D+00  1.73D+00  2.25D+00
                    CP:  1.99D+00  2.01D+00  1.45D+00  1.24D+00  1.12D+00
 E= -4069.81126730648     Delta-E=       -0.000000000880 Rises=F Damp=F
 DIIS: error= 1.67D-07 at cycle  16 NSaved=  16.
 NSaved=16 IEnMin=16 EnMin= -4069.81126730648     IErMin=16 ErrMin= 1.67D-07
 ErrMax= 1.67D-07  0.00D+00 EMaxC= 1.00D-01 BMatC= 9.05D-11 BMatP= 2.40D-10
 IDIUse=1 WtCom= 1.00D+00 WtEn= 0.00D+00
 Coeff-Com: -0.138D-04 0.281D-04 0.454D-04 0.500D-04-0.311D-04-0.641D-03
 Coeff-Com: -0.186D-02-0.419D-02 0.417D-02 0.265D-01 0.216D-01-0.652D-01
 Coeff-Com: -0.852D-01-0.378D-01 0.410D+00 0.733D+00
 Coeff:     -0.138D-04 0.281D-04 0.454D-04 0.500D-04-0.311D-04-0.641D-03
 Coeff:     -0.186D-02-0.419D-02 0.417D-02 0.265D-01 0.216D-01-0.652D-01
 Coeff:     -0.852D-01-0.378D-01 0.410D+00 0.733D+00
 Gap=     0.119 Goal=   None    Shift=    0.000
 RMSDP=2.37D-08 MaxDP=1.49D-06 DE=-8.80D-10 OVMax= 1.43D-05

 Cycle  17  Pass 1  IDiag  1:
 RMSU=  1.10D-08    CP:  9.64D-01  1.50D+00  6.84D-01  6.20D-01  8.60D-01
                    CP:  9.34D-01  1.11D+00  1.33D+00  1.74D+00  2.26D+00
                    CP:  2.00D+00  2.04D+00  1.50D+00  1.33D+00  1.42D+00
                    CP:  1.21D+00
 E= -4069.81126730703     Delta-E=       -0.000000000553 Rises=F Damp=F
 DIIS: error= 8.24D-08 at cycle  17 NSaved=  17.
 NSaved=17 IEnMin=17 EnMin= -4069.81126730703     IErMin=17 ErrMin= 8.24D-08
 ErrMax= 8.24D-08  0.00D+00 EMaxC= 1.00D-01 BMatC= 1.79D-11 BMatP= 9.05D-11
 IDIUse=1 WtCom= 1.00D+00 WtEn= 0.00D+00
 Coeff-Com: -0.743D-05 0.145D-04 0.294D-04 0.431D-04 0.784D-04-0.133D-03
 Coeff-Com: -0.954D-03-0.289D-02-0.841D-04 0.102D-01 0.185D-01-0.811D-02
 Coeff-Com: -0.383D-01-0.104D+00-0.197D-01 0.271D+00 0.874D+00
 Coeff:     -0.743D-05 0.145D-04 0.294D-04 0.431D-04 0.784D-04-0.133D-03
 Coeff:     -0.954D-03-0.289D-02-0.841D-04 0.102D-01 0.185D-01-0.811D-02
 Coeff:     -0.383D-01-0.104D+00-0.197D-01 0.271D+00 0.874D+00
 Gap=     0.119 Goal=   None    Shift=    0.000
 RMSDP=1.43D-08 MaxDP=9.83D-07 DE=-5.53D-10 OVMax= 8.53D-06

 Cycle  18  Pass 1  IDiag  1:
 RMSU=  5.17D-09    CP:  9.64D-01  1.50D+00  6.84D-01  6.20D-01  8.60D-01
                    CP:  9.34D-01  1.11D+00  1.33D+00  1.74D+00  2.26D+00
                    CP:  2.01D+00  2.05D+00  1.52D+00  1.40D+00  1.60D+00
                    CP:  1.59D+00  1.39D+00
 E= -4069.81126730703     Delta-E=       -0.000000000004 Rises=F Damp=F
 DIIS: error= 4.73D-08 at cycle  18 NSaved=  18.
 NSaved=18 IEnMin=18 EnMin= -4069.81126730703     IErMin=18 ErrMin= 4.73D-08
 ErrMax= 4.73D-08  0.00D+00 EMaxC= 1.00D-01 BMatC= 6.98D-12 BMatP= 1.79D-11
 IDIUse=1 WtCom= 1.00D+00 WtEn= 0.00D+00
 Coeff-Com:  0.135D-05-0.302D-05-0.190D-05 0.206D-05 0.582D-04 0.168D-03
 Coeff-Com:  0.300D-03 0.111D-04-0.121D-02-0.529D-02 0.749D-03 0.188D-01
 Coeff-Com:  0.166D-01-0.356D-01-0.145D+00-0.174D+00 0.368D+00 0.956D+00
 Coeff:      0.135D-05-0.302D-05-0.190D-05 0.206D-05 0.582D-04 0.168D-03
 Coeff:      0.300D-03 0.111D-04-0.121D-02-0.529D-02 0.749D-03 0.188D-01
 Coeff:      0.166D-01-0.356D-01-0.145D+00-0.174D+00 0.368D+00 0.956D+00
 Gap=     0.119 Goal=   None    Shift=    0.000
 RMSDP=1.10D-08 MaxDP=7.76D-07 DE=-3.64D-12 OVMax= 7.10D-06

 Cycle  19  Pass 1  IDiag  1:
 RMSU=  2.97D-09    CP:  9.64D-01  1.50D+00  6.84D-01  6.20D-01  8.60D-01
                    CP:  9.34D-01  1.11D+00  1.33D+00  1.74D+00  2.26D+00
                    CP:  2.01D+00  2.05D+00  1.53D+00  1.44D+00  1.73D+00
                    CP:  1.88D+00  1.91D+00  1.32D+00
 E= -4069.81126730699     Delta-E=        0.000000000044 Rises=F Damp=F
 DIIS: error= 3.77D-08 at cycle  19 NSaved=  19.
 NSaved=19 IEnMin=18 EnMin= -4069.81126730703     IErMin=19 ErrMin= 3.77D-08
 ErrMax= 3.77D-08  0.00D+00 EMaxC= 1.00D-01 BMatC= 2.02D-12 BMatP= 6.98D-12
 IDIUse=1 WtCom= 1.00D+00 WtEn= 0.00D+00
 Coeff-Com:  0.297D-05-0.602D-05-0.100D-04-0.120D-04 0.129D-04 0.134D-03
 Coeff-Com:  0.475D-03 0.839D-03-0.606D-03-0.651D-02-0.538D-02 0.130D-01
 Coeff-Com:  0.220D-01 0.102D-01-0.759D-01-0.193D+00-0.385D-01 0.542D+00
 Coeff-Com:  0.732D+00
 Coeff:      0.297D-05-0.602D-05-0.100D-04-0.120D-04 0.129D-04 0.134D-03
 Coeff:      0.475D-03 0.839D-03-0.606D-03-0.651D-02-0.538D-02 0.130D-01
 Coeff:      0.220D-01 0.102D-01-0.759D-01-0.193D+00-0.385D-01 0.542D+00
 Coeff:      0.732D+00
 Gap=     0.119 Goal=   None    Shift=    0.000
 RMSDP=5.56D-09 MaxDP=3.38D-07 DE= 4.37D-11 OVMax= 3.26D-06

 SCF Done:  E(RCAM-B3LYP) =  -4069.81126731     A.U. after   19 cycles
            NFock= 19  Conv=0.56D-08     -V/T= 2.0102
 KE= 4.028790474543D+03 PE=-4.023283335363D+04 EE= 1.675916711069D+04
 Leave Link  502 at Fri Sep 10 17:14:09 2021, MaxMem= 23488102400 cpu:           15950.2 elap:             690.6
 (Enter /sw/apps/gaussian-16.0/g16/l801.exe)
 DoSCS=F DFT=T ScalE2(SS,OS)=  1.000000  1.000000
 ExpMin= 3.36D-02 ExpMax= 4.95D+03 ExpMxC= 7.45D+02 IAcc=3 IRadAn=         5 AccDes= 0.00D+00
 HarFok:  IExCor=  205 AccDes= 0.00D+00 IRadAn=         5 IDoV=-2 UseB2=F ITyADJ=14
 ICtDFT= 12500011 ScaDFX=  1.000000  1.000000  1.000000  1.000000
 GSVD:  LWork=       -9588 too small for GESVD, short by       45590 words or       45590 for optimal perf.
 Largest valence mixing into a core orbital is  2.02D-04
 Largest core mixing into a valence orbital is  5.24D-05
 Range of M.O.s used for correlation:    95  1572
 NBasis=  1572 NAE=   312 NBE=   312 NFC=    94 NFV=     0
 NROrb=   1478 NOA=   218 NOB=   218 NVA=  1260 NVB=  1260
 Leave Link  801 at Fri Sep 10 17:14:10 2021, MaxMem= 23488102400 cpu:               8.2 elap:               0.4
 (Enter /sw/apps/gaussian-16.0/g16/l914.exe)
 RHF ground state
 Two-electron integrals replicated using symmetry.
 MDV= 23488102400 DFT=T DoStab=F Mixed=T DoRPA=T DoScal=F NonHer=T
 Making orbital integer symmetry assigments:
 Orbital symmetries:
       Occupied  (A) (A) (A) (A) (A) (A) (A) (A) (A) (A) (A) (A)
                 (A) (A) (A) (A) (A) (A) (A) (A) (A) (A) (A) (A)
                 (A) (A) (A) (A) (A) (A) (A) (A) (A) (A) (A) (A)
                 (A) (A) (A) (A) (A) (A) (A) (A) (A) (A) (A) (A)
                 (A) (A) (A) (A) (A) (A) (A) (A) (A) (A) (A) (A)
                 (A) (A) (A) (A) (A) (A) (A) (A) (A) (A) (A) (A)
                 (A) (A) (A) (A) (A) (A) (A) (A) (A) (A) (A) (A)
                 (A) (A) (A) (A) (A) (A) (A) (A) (A) (A) (A) (A)
                 (A) (A) (A) (A) (A) (A) (A) (A) (A) (A) (A) (A)
                 (A) (A) (A) (A) (A) (A) (A) (A) (A) (A) (A) (A)
                 (A) (A) (A) (A) (A) (A) (A) (A) (A) (A) (A) (A)
                 (A) (A) (A) (A) (A) (A) (A) (A) (A) (A) (A) (A)
                 (A) (A) (A) (A) (A) (A) (A) (A) (A) (A) (A) (A)
                 (A) (A) (A) (A) (A) (A) (A) (A) (A) (A) (A) (A)
                 (A) (A) (A) (A) (A) (A) (A) (A) (A) (A) (A) (A)
                 (A) (A) (A) (A) (A) (A) (A) (A) (A) (A) (A) (A)
                 (A) (A) (A) (A) (A) (A) (A) (A) (A) (A) (A) (A)
                 (A) (A) (A) (A) (A) (A) (A) (A) (A) (A) (A) (A)
                 (A) (A) (A) (A) (A) (A) (A) (A) (A) (A) (A) (A)
                 (A) (A) (A) (A) (A) (A) (A) (A) (A) (A) (A) (A)
                 (A) (A) (A) (A) (A) (A) (A) (A) (A) (A) (A) (A)
                 (A) (A) (A) (A) (A) (A) (A) (A) (A) (A) (A) (A)
                 (A) (A) (A) (A) (A) (A) (A) (A) (A) (A) (A) (A)
                 (A) (A) (A) (A) (A) (A) (A) (A) (A) (A) (A) (A)
                 (A) (A) (A) (A) (A) (A) (A) (A) (A) (A) (A) (A)
                 (A) (A) (A) (A) (A) (A) (A) (A) (A) (A) (A) (A)
       Virtual   (A) (A) (A) (A) (A) (A) (A) (A) (A) (A) (A) (A)
                 (A) (A) (A) (A) (A) (A) (A) (A) (A) (A) (A) (A)
                 (A) (A) (A) (A) (A) (A) (A) (A) (A) (A) (A) (A)
                 (A) (A) (A) (A) (A) (A) (A) (A) (A) (A) (A) (A)
                 (A) (A) (A) (A) (A) (A) (A) (A) (A) (A) (A) (A)
                 (A) (A) (A) (A) (A) (A) (A) (A) (A) (A) (A) (A)
                 (A) (A) (A) (A) (A) (A) (A) (A) (A) (A) (A) (A)
                 (A) (A) (A) (A) (A) (A) (A) (A) (A) (A) (A) (A)
                 (A) (A) (A) (A) (A) (A) (A) (A) (A) (A) (A) (A)
                 (A) (A) (A) (A) (A) (A) (A) (A) (A) (A) (A) (A)
                 (A) (A) (A) (A) (A) (A) (A) (A) (A) (A) (A) (A)
                 (A) (A) (A) (A) (A) (A) (A) (A) (A) (A) (A) (A)
                 (A) (A) (A) (A) (A) (A) (A) (A) (A) (A) (A) (A)
                 (A) (A) (A) (A) (A) (A) (A) (A) (A) (A) (A) (A)
                 (A) (A) (A) (A) (A) (A) (A) (A) (A) (A) (A) (A)
                 (A) (A) (A) (A) (A) (A) (A) (A) (A) (A) (A) (A)
                 (A) (A) (A) (A) (A) (A) (A) (A) (A) (A) (A) (A)
                 (A) (A) (A) (A) (A) (A) (A) (A) (A) (A) (A) (A)
                 (A) (A) (A) (A) (A) (A) (A) (A) (A) (A) (A) (A)
                 (A) (A) (A) (A) (A) (A) (A) (A) (A) (A) (A) (A)
                 (A) (A) (A) (A) (A) (A) (A) (A) (A) (A) (A) (A)
                 (A) (A) (A) (A) (A) (A) (A) (A) (A) (A) (A) (A)
                 (A) (A) (A) (A) (A) (A) (A) (A) (A) (A) (A) (A)
                 (A) (A) (A) (A) (A) (A) (A) (A) (A) (A) (A) (A)
                 (A) (A) (A) (A) (A) (A) (A) (A) (A) (A) (A) (A)
                 (A) (A) (A) (A) (A) (A) (A) (A) (A) (A) (A) (A)
                 (A) (A) (A) (A) (A) (A) (A) (A) (A) (A) (A) (A)
                 (A) (A) (A) (A) (A) (A) (A) (A) (A) (A) (A) (A)
                 (A) (A) (A) (A) (A) (A) (A) (A) (A) (A) (A) (A)
                 (A) (A) (A) (A) (A) (A) (A) (A) (A) (A) (A) (A)
                 (A) (A) (A) (A) (A) (A) (A) (A) (A) (A) (A) (A)
                 (A) (A) (A) (A) (A) (A) (A) (A) (A) (A) (A) (A)
                 (A) (A) (A) (A) (A) (A) (A) (A) (A) (A) (A) (A)
                 (A) (A) (A) (A) (A) (A) (A) (A) (A) (A) (A) (A)
                 (A) (A) (A) (A) (A) (A) (A) (A) (A) (A) (A) (A)
                 (A) (A) (A) (A) (A) (A) (A) (A) (A) (A) (A) (A)
                 (A) (A) (A) (A) (A) (A) (A) (A) (A) (A) (A) (A)
                 (A) (A) (A) (A) (A) (A) (A) (A) (A) (A) (A) (A)
                 (A) (A) (A) (A) (A) (A) (A) (A) (A) (A) (A) (A)
                 (A) (A) (A) (A) (A) (A) (A) (A) (A) (A) (A) (A)
                 (A) (A) (A) (A) (A) (A) (A) (A) (A) (A) (A) (A)
                 (A) (A) (A) (A) (A) (A) (A) (A) (A) (A) (A) (A)
                 (A) (A) (A) (A) (A) (A) (A) (A) (A) (A) (A) (A)
                 (A) (A) (A) (A) (A) (A) (A) (A) (A) (A) (A) (A)
                 (A) (A) (A) (A) (A) (A) (A) (A) (A) (A) (A) (A)
                 (A) (A) (A) (A) (A) (A) (A) (A) (A) (A) (A) (A)
                 (A) (A) (A) (A) (A) (A) (A) (A) (A) (A) (A) (A)
                 (A) (A) (A) (A) (A) (A) (A) (A) (A) (A) (A) (A)
                 (A) (A) (A) (A) (A) (A) (A) (A) (A) (A) (A) (A)
                 (A) (A) (A) (A) (A) (A) (A) (A) (A) (A) (A) (A)
                 (A) (A) (A) (A) (A) (A) (A) (A) (A) (A) (A) (A)
                 (A) (A) (A) (A) (A) (A) (A) (A) (A) (A) (A) (A)
                 (A) (A) (A) (A) (A) (A) (A) (A) (A) (A) (A) (A)
                 (A) (A) (A) (A) (A) (A) (A) (A) (A) (A) (A) (A)
                 (A) (A) (A) (A) (A) (A) (A) (A) (A) (A) (A) (A)
                 (A) (A) (A) (A) (A) (A) (A) (A) (A) (A) (A) (A)
                 (A) (A) (A) (A) (A) (A) (A) (A) (A) (A) (A) (A)
                 (A) (A) (A) (A) (A) (A) (A) (A) (A) (A) (A) (A)
                 (A) (A) (A) (A) (A) (A) (A) (A) (A) (A) (A) (A)
                 (A) (A) (A) (A) (A) (A) (A) (A) (A) (A) (A) (A)
                 (A) (A) (A) (A) (A) (A) (A) (A) (A) (A) (A) (A)
                 (A) (A) (A) (A) (A) (A) (A) (A) (A) (A) (A) (A)
                 (A) (A) (A) (A) (A) (A) (A) (A) (A) (A) (A) (A)
                 (A) (A) (A) (A) (A) (A) (A) (A) (A) (A) (A) (A)
                 (A) (A) (A) (A) (A) (A) (A) (A) (A) (A) (A) (A)
                 (A) (A) (A) (A) (A) (A) (A) (A) (A) (A) (A) (A)
                 (A) (A) (A) (A) (A) (A) (A) (A) (A) (A) (A) (A)
                 (A) (A) (A) (A) (A) (A) (A) (A) (A) (A) (A) (A)
                 (A) (A) (A) (A) (A) (A) (A) (A) (A) (A) (A) (A)
                 (A) (A) (A) (A) (A) (A) (A) (A) (A) (A) (A) (A)
                 (A) (A) (A) (A) (A) (A) (A) (A) (A) (A) (A) (A)
                 (A) (A) (A) (A) (A) (A) (A) (A) (A) (A) (A) (A)
                 (A) (A) (A) (A) (A) (A) (A) (A) (A) (A) (A) (A)
                 (A) (A) (A) (A) (A) (A) (A) (A) (A) (A) (A) (A)
                 (A) (A) (A) (A) (A) (A) (A) (A) (A) (A) (A) (A)
                 (A) (A) (A) (A) (A) (A) (A) (A) (A) (A) (A) (A)
                 (A) (A) (A) (A) (A) (A) (A) (A) (A) (A) (A) (A)
                 (A) (A) (A) (A) (A) (A) (A) (A) (A) (A) (A) (A)
                 (A) (A) (A) (A) (A) (A) (A) (A) (A) (A) (A) (A)
                 (A) (A) (A) (A) (A) (A) (A) (A) (A) (A) (A) (A)
                 (A) (A) (A) (A) (A) (A) (A) (A) (A) (A) (A) (A)
                 (A) (A) (A) (A) (A) (A) (A) (A) (A) (A) (A) (A)
                 (A) (A) (A) (A) (A) (A) (A) (A) (A) (A) (A) (A)
                 (A) (A) (A) (A) (A) (A) (A) (A) (A) (A) (A) (A)
                 (A) (A) (A) (A) (A) (A) (A) (A) (A) (A) (A) (A)
                 (A) (A) (A) (A) (A) (A) (A) (A) (A) (A) (A) (A)
                 (A) (A) (A) (A) (A) (A) (A) (A) (A) (A) (A) (A)
                 (A) (A) (A) (A) (A) (A) (A) (A) (A) (A) (A) (A)
                 (A) (A) (A) (A) (A) (A) (A) (A) (A) (A) (A) (A)
                 (A) (A) (A) (A) (A) (A) (A) (A) (A) (A) (A) (A)
                 (A) (A) (A) (A) (A) (A) (A) (A) (A) (A) (A) (A)
                 (A) (A) (A) (A) (A) (A) (A) (A) (A) (A) (A) (A)
                 (A) (A) (A) (A) (A) (A) (A) (A) (A) (A) (A) (A)
                 (A) (A) (A) (A) (A) (A) (A) (A) (A) (A) (A) (A)
                 (A) (A) (A) (A) (A) (A) (A) (A) (A) (A) (A) (A)
                 (A) (A) (A) (A) (A) (A) (A) (A) (A) (A) (A) (A)
                 (A) (A) (A) (A) (A) (A) (A) (A) (A) (A) (A) (A)
                 (A) (A) (A) (A) (A) (A) (A) (A) (A) (A) (A) (A)
                 (A) (A) (A) (A) (A) (A) (A) (A) (A) (A) (A) (A)
                 (A) (A) (A) (A) (A) (A) (A) (A) (A) (A) (A) (A)
                 (A) (A) (A) (A) (A) (A) (A) (A) (A) (A) (A) (A)
                 (A) (A) (A) (A) (A) (A) (A) (A) (A) (A) (A) (A)
                 (A) (A) (A) (A) (A) (A) (A) (A) (A) (A) (A) (A)
                 (A) (A) (A) (A) (A) (A) (A) (A) (A) (A) (A) (A)
                 (A) (A) (A) (A) (A) (A) (A) (A) (A) (A) (A) (A)
    20 initial guesses have been made.
 Convergence on wavefunction:    0.001000000000000
 Davidson Disk Diagonalization:  ConvIn= 1.00D-03 SkipCon=T Conv= 1.00D-03.
 Max sub-space:  2000 roots to seek:    20 dimension of matrix:       549360
 Iteration     1 Dimension    20 NMult     0 NNew     20
 CISAX will form    20 AO SS matrices at one time.
 NMat=    20 NSing=    20 JSym2X= 0.
 FoFJK:  IHMeth= 1 ICntrl=       0 DoSepK=T KAlg= 0 I1Cent=           0 FoldK=F
 IRaf=         1 NMat=      40 IRICut=       1 DoRegI=T DoRafI=F ISym2E= 0 IDoP0=3 IntGTp=3.
 FoFCou: FMM=T IPFlag=           0 FMFlag=      100000 FMFlg1=        2001
         NFxFlg=           0 DoJE=F BraDBF=F KetDBF=F FulRan=T
         wScrn=  0.000000 ICntrl=       500 IOpCl=  0 I1Cent=           0 NGrid=           0
         NMat0=   20 NMatS0=     20 NMatT0=    0 NMatD0=   20 NMtDS0=    0 NMtDT0=    0
 Symmetry not used in FoFCou.
 FMM levels:  10  Number of levels for PrismC:   9
 New state      2 was old state      6
 New state      3 was old state      7
 New state      5 was old state      2
 Excitation Energies [eV] at current iteration:
 Root      1 :     2.364156014853289
 Root      2 :     2.613197388651717
 Root      3 :     2.623731368858330
 Root      4 :     2.642668415289530
 Root      5 :     2.665475943045452
 Root      6 :     2.704979905586140
 Root      7 :     3.157727316220369
 Root      8 :     3.434783497126960
 Root      9 :     3.628598322762499
 Root     10 :     3.667431418983374
 Root     11 :     3.736459573434837
 Root     12 :     3.757324452169073
 Root     13 :     4.259287542528687
 Root     14 :     4.342430266109820
 Root     15 :     4.362135550870691
 Root     16 :     4.538034031347875
 Root     17 :     4.588635357424384
 Root     18 :     4.639772532354963
 Root     19 :     4.871682062685563
 Root     20 :     4.880372889464194
 Iteration     2 Dimension    30 NMult    20 NNew     10
 CISAX will form    10 AO SS matrices at one time.
 NMat=    10 NSing=    10 JSym2X= 0.
 New state      1 was old state      5
 Root      1 not converged, maximum delta is    0.148211266728945
 Root      2 not converged, maximum delta is    0.163655262917573
 Root      3 not converged, maximum delta is    0.166389388910543
 New state      4 was old state      1
 Root      4 not converged, maximum delta is    0.100608176273335
 New state      5 was old state      6
 Root      5 not converged, maximum delta is    0.202367929055922
 Excitation Energies [eV] at current iteration:
 Root      1 :     1.792731955894654   Change is   -0.872743987150797
 Root      2 :     2.196638115664795   Change is   -0.416559272986921
 Root      3 :     2.240072663051784   Change is   -0.383658705806546
 Root      4 :     2.359024670383172   Change is   -0.005131344470117
 Root      5 :     2.364471415548611   Change is   -0.340508490037529
 Iteration     3 Dimension    40 NMult    30 NNew     10
 CISAX will form    10 AO SS matrices at one time.
 NMat=    10 NSing=    10 JSym2X= 0.
 Root      1 not converged, maximum delta is    0.060632428374717
 New state      2 was old state      5
 Root      2 not converged, maximum delta is    0.290097658553215
 New state      3 was old state      2
 Root      3 not converged, maximum delta is    0.249676242337490
 New state      4 was old state      3
 Root      4 not converged, maximum delta is    0.207625702564349
 New state      5 was old state      4
 Root      5 not converged, maximum delta is    0.102688392025088
 Excitation Energies [eV] at current iteration:
 Root      1 :     1.685523917266325   Change is   -0.107208038628329
 Root      2 :     1.742712639804164   Change is   -0.621758775744447
 Root      3 :     2.187551341342045   Change is   -0.009086774322750
 Root      4 :     2.200305126817695   Change is   -0.039767536234089
 Root      5 :     2.359403782975359   Change is    0.000379112592187
 Iteration     4 Dimension    50 NMult    40 NNew     10
 CISAX will form    10 AO SS matrices at one time.
 NMat=    10 NSing=    10 JSym2X= 0.
 Root      1 not converged, maximum delta is    0.013060016779234
 Root      2 not converged, maximum delta is    0.034487693118963
 Root      3 not converged, maximum delta is    0.010640866190388
 Root      4 not converged, maximum delta is    0.010784436104992
 Root      5 has converged.
 Excitation Energies [eV] at current iteration:
 Root      1 :     1.668434090327834   Change is   -0.017089826938492
 Root      2 :     1.693388296626062   Change is   -0.049324343178102
 Root      3 :     2.179494954615685   Change is   -0.008056386726360
 Root      4 :     2.192868969689188   Change is   -0.007436157128507
 Root      5 :     2.359397404143970   Change is   -0.000006378831389
 Iteration     5 Dimension    58 NMult    50 NNew      8
 CISAX will form     8 AO SS matrices at one time.
 NMat=     8 NSing=     8 JSym2X= 0.
 Root      1 not converged, maximum delta is    0.008515269282327
 Root      2 not converged, maximum delta is    0.014028500896140
 Root      3 not converged, maximum delta is    0.001928457523366
 Root      4 not converged, maximum delta is    0.001946667282059
 Root      5 has converged.
 Excitation Energies [eV] at current iteration:
 Root      1 :     1.666550235755602   Change is   -0.001883854572232
 Root      2 :     1.685755482829705   Change is   -0.007632813796357
 Root      3 :     2.178577648829108   Change is   -0.000917305786578
 Root      4 :     2.192040648931952   Change is   -0.000828320757237
 Root      5 :     2.359397353834684   Change is   -0.000000050309286
 Iteration     6 Dimension    66 NMult    58 NNew      8
 CISAX will form     8 AO SS matrices at one time.
 NMat=     8 NSing=     8 JSym2X= 0.
 Root      1 not converged, maximum delta is    0.001573771043482
 Root      2 not converged, maximum delta is    0.001854284624514
 Root      3 has converged.
 Root      4 has converged.
 Root      5 has converged.
 Excitation Energies [eV] at current iteration:
 Root      1 :     1.666288953598426   Change is   -0.000261282157177
 Root      2 :     1.684902393691972   Change is   -0.000853089137733
 Root      3 :     2.178436201228164   Change is   -0.000141447600944
 Root      4 :     2.191920882273905   Change is   -0.000119766658047
 Root      5 :     2.359397340212869   Change is   -0.000000013621815
 Iteration     7 Dimension    70 NMult    66 NNew      4
 CISAX will form     4 AO SS matrices at one time.
 NMat=     4 NSing=     4 JSym2X= 0.
 Root      1 has converged.
 Root      2 has converged.
 Root      3 has converged.
 Root      4 has converged.
 Root      5 has converged.
 Excitation Energies [eV] at current iteration:
 Root      1 :     1.666264180521230   Change is   -0.000024773077195
[...]
 Alpha virt. eigenvalues --    1.83941   1.84030   1.84223   1.84277   1.84560
 Alpha virt. eigenvalues --    1.84605   1.84840   1.84931   1.85177   1.85365
 Alpha virt. eigenvalues --    1.85387   1.85531   1.85563   1.85852   1.85932
 Alpha virt. eigenvalues --    1.85949   1.86394   1.86442   1.86692   1.86823
 Alpha virt. eigenvalues --    1.86868   1.87068   1.87091   1.87285   1.87487
 Alpha virt. eigenvalues --    1.87538   1.87839   1.87970   1.88056   1.88210
 Alpha virt. eigenvalues --    1.88240   1.88397   1.88577   1.88612   1.88972
 Alpha virt. eigenvalues --    1.89057   1.89134   1.89377   1.89579   1.89701
 Alpha virt. eigenvalues --    1.89935   1.90131   1.90239   1.90274   1.90679
 Alpha virt. eigenvalues --    1.90955   1.91305   1.91470   1.91623   1.91830
 Alpha virt. eigenvalues --    1.91979   1.92227   1.92685   1.92719   1.93170
 Alpha virt. eigenvalues --    1.93220   1.93513   1.93571   1.93875   1.94360
 Alpha virt. eigenvalues --    1.94748   1.94869   1.95189   1.95640   1.95864
 Alpha virt. eigenvalues --    1.95902   1.96086   1.96227   1.96327   1.96548
 Alpha virt. eigenvalues --    1.96563   1.96635   1.96970   1.97112   1.97450
 Alpha virt. eigenvalues --    1.97606   1.97868   1.97983   1.98203   1.98357
 Alpha virt. eigenvalues --    1.98416   1.98779   1.99107   1.99273   1.99712
 Alpha virt. eigenvalues --    1.99991   2.00410   2.00797   2.01147   2.01203
 Alpha virt. eigenvalues --    2.01544   2.01633   2.01747   2.01878   2.02139
 Alpha virt. eigenvalues --    2.02225   2.02305   2.02762   2.03183   2.03305
 Alpha virt. eigenvalues --    2.03443   2.03629   2.03716   2.03975   2.04068
 Alpha virt. eigenvalues --    2.04151   2.04606   2.05026   2.05503   2.05675
 Alpha virt. eigenvalues --    2.06031   2.06349   2.06604   2.07078   2.07408
 Alpha virt. eigenvalues --    2.07595   2.07721   2.08594   2.09034   2.09058
 Alpha virt. eigenvalues --    2.09551   2.09668   2.10225   2.11077   2.11231
 Alpha virt. eigenvalues --    2.11453   2.11585   2.11740   2.11898   2.12148
 Alpha virt. eigenvalues --    2.12335   2.12509   2.12841   2.12898   2.13053
 Alpha virt. eigenvalues --    2.13387   2.13406   2.13663   2.14296   2.14491
 Alpha virt. eigenvalues --    2.14597   2.15474   2.15874   2.16129   2.16498
 Alpha virt. eigenvalues --    2.16648   2.17032   2.17300   2.17524   2.17693
 Alpha virt. eigenvalues --    2.17926   2.17985   2.18050   2.18238   2.18529
 Alpha virt. eigenvalues --    2.18805   2.18912   2.19309   2.19475   2.19884
 Alpha virt. eigenvalues --    2.20201   2.20378   2.20520   2.20691   2.20774
 Alpha virt. eigenvalues --    2.21213   2.21537   2.21865   2.21937   2.22189
 Alpha virt. eigenvalues --    2.22324   2.22782   2.23228   2.23387   2.23826
 Alpha virt. eigenvalues --    2.24463   2.24902   2.25046   2.25389   2.26488
 Alpha virt. eigenvalues --    2.26914   2.27062   2.27261   2.27306   2.27697
 Alpha virt. eigenvalues --    2.28341   2.28718   2.29486   2.29830   2.29919
 Alpha virt. eigenvalues --    2.30353   2.30663   2.30867   2.31108   2.31314
 Alpha virt. eigenvalues --    2.31638   2.31743   2.32285   2.32654   2.33273
 Alpha virt. eigenvalues --    2.33557   2.33735   2.34008   2.34214   2.34641
 Alpha virt. eigenvalues --    2.35367   2.35927   2.35956   2.36344   2.36439
 Alpha virt. eigenvalues --    2.36492   2.36796   2.37210   2.37727   2.38164
 Alpha virt. eigenvalues --    2.38424   2.38753   2.38815   2.39470   2.39724
 Alpha virt. eigenvalues --    2.40163   2.40314   2.40637   2.40884   2.41117
 Alpha virt. eigenvalues --    2.41237   2.41737   2.41868   2.42141   2.42210
 Alpha virt. eigenvalues --    2.42605   2.42860   2.43177   2.43362   2.44013
 Alpha virt. eigenvalues --    2.44061   2.44695   2.44833   2.45021   2.45293
 Alpha virt. eigenvalues --    2.45456   2.45651   2.46081   2.46385   2.46532
 Alpha virt. eigenvalues --    2.46809   2.47040   2.47060   2.47375   2.47726
 Alpha virt. eigenvalues --    2.47758   2.47933   2.48285   2.49422   2.49787
 Alpha virt. eigenvalues --    2.49969   2.50474   2.50492   2.51009   2.51305
 Alpha virt. eigenvalues --    2.51638   2.51742   2.52438   2.52469   2.53073
 Alpha virt. eigenvalues --    2.53197   2.53380   2.53993   2.54311   2.54442
 Alpha virt. eigenvalues --    2.54614   2.54852   2.55324   2.55688   2.56046
 Alpha virt. eigenvalues --    2.58095   2.58413   2.58920   2.59166   2.60321
 Alpha virt. eigenvalues --    2.60832   2.60938   2.61216   2.61839   2.62242
 Alpha virt. eigenvalues --    2.62464   2.63093   2.63195   2.63526   2.64230
 Alpha virt. eigenvalues --    2.64448   2.64526   2.64652   2.65122   2.65650
 Alpha virt. eigenvalues --    2.65877   2.66369   2.66845   2.67065   2.67254
 Alpha virt. eigenvalues --    2.67447   2.68005   2.68431   2.68843   2.69089
 Alpha virt. eigenvalues --    2.69374   2.69612   2.69632   2.69907   2.70156
 Alpha virt. eigenvalues --    2.70520   2.71119   2.71505   2.71983   2.72574
 Alpha virt. eigenvalues --    2.72599   2.72874   2.73231   2.73303   2.73425
 Alpha virt. eigenvalues --    2.73611   2.73711   2.74179   2.74536   2.75070
 Alpha virt. eigenvalues --    2.75082   2.75559   2.76541   2.77068   2.77109
 Alpha virt. eigenvalues --    2.77616   2.77839   2.78006   2.78307   2.78684
 Alpha virt. eigenvalues --    2.78719   2.79199   2.79312   2.79704   2.80286
 Alpha virt. eigenvalues --    2.80770   2.80871   2.81155   2.81246   2.81678
 Alpha virt. eigenvalues --    2.81973   2.82366   2.82512   2.82879   2.83865
 Alpha virt. eigenvalues --    2.83901   2.84288   2.84333   2.84578   2.84898
 Alpha virt. eigenvalues --    2.85098   2.85368   2.85707   2.86161   2.86683
 Alpha virt. eigenvalues --    2.87215   2.87474   2.88158   2.88250   2.88652
 Alpha virt. eigenvalues --    2.88737   2.88942   2.89013   2.89500   2.90681
 Alpha virt. eigenvalues --    2.91019   2.91084   2.91653   2.93328   2.93767
 Alpha virt. eigenvalues --    2.93785   2.94583   2.94757   2.95062   2.95473
 Alpha virt. eigenvalues --    2.95893   2.95948   2.96399   2.96722   2.96913
 Alpha virt. eigenvalues --    2.96937   2.97761   2.98041   2.98361   2.98460
 Alpha virt. eigenvalues --    2.98589   2.98723   2.98847   2.98901   2.99103
 Alpha virt. eigenvalues --    2.99403   2.99451   2.99812   3.00003   3.00100
 Alpha virt. eigenvalues --    3.00347   3.00632   3.00803   3.00994   3.01083
 Alpha virt. eigenvalues --    3.01911   3.02130   3.02420   3.02549   3.02864
 Alpha virt. eigenvalues --    3.03275   3.03311   3.03556   3.03709   3.03829
 Alpha virt. eigenvalues --    3.04081   3.04445   3.04582   3.04835   3.05005
 Alpha virt. eigenvalues --    3.05087   3.05371   3.05760   3.06173   3.06721
 Alpha virt. eigenvalues --    3.06935   3.07461   3.07930   3.08624   3.09361
 Alpha virt. eigenvalues --    3.09965   3.10295   3.10439   3.10746   3.11052
 Alpha virt. eigenvalues --    3.11483   3.11751   3.11926   3.12309   3.12505
 Alpha virt. eigenvalues --    3.12583   3.13669   3.13695   3.13989   3.14108
 Alpha virt. eigenvalues --    3.14520   3.14698   3.16003   3.16274   3.17513
 Alpha virt. eigenvalues --    3.17844   3.17882   3.18543   3.19037   3.19649
 Alpha virt. eigenvalues --    3.22677   3.22951   3.24426   3.24550   3.25196
 Alpha virt. eigenvalues --    3.25271   3.26664   3.27100   3.27406   3.28228
 Alpha virt. eigenvalues --    3.29340   3.29775   3.31392   3.32115   3.33195
 Alpha virt. eigenvalues --    3.34016   3.40360   3.41262   3.42819   3.43347
 Alpha virt. eigenvalues --    3.48681   3.49257   3.50284   3.50643   3.50841
 Alpha virt. eigenvalues --    3.52076   3.57005   3.57131   3.59351   3.59662
 Alpha virt. eigenvalues --    3.62544   3.63458   3.66117   3.66657   3.67663
 Alpha virt. eigenvalues --    3.67841   3.73923   3.74224   3.76674   3.76981
          Condensed to atoms (all electrons):
 Mulliken charges:
               1
     1  Mg   0.839569
     2  C    0.001153
     3  C   -0.090299
     4  C   -0.047457
     5  C   -0.065280
     6  N   -0.256058
     7  C   -0.048526
     8  C   -0.016305
     9  C   -0.088770
    10  C    0.051340
    11  C    0.105223
    12  C    0.053162
    13  C   -0.069517
    14  H    0.026729
    15  N   -0.432405
    16  C    0.173776
    17  C   -0.176105
    18  C   -0.004479
    19  C    0.148117
    20  C    0.111048
    21  C    0.011045
    22  O   -0.252068
    23  C    0.062505
    24  N   -0.340066
    25  C    0.040284
    26  C   -0.027604
    27  C   -0.023730
    28  C    0.074008
    29  C    0.076663
    30  C    0.035863
    31  C   -0.005006
    32  N   -0.310450
    33  C    0.080614
    34  C   -0.170423
    35  C    0.007735
    36  C    0.084992
    37  C    0.127368
    38  C    0.047154
    39  O   -0.189848
    40  C   -0.006485
    41  C    0.210929
    42  O   -0.250444
    43  O   -0.305913
    44  C    0.158353
    45  H   -0.019269
    46  H   -0.019370
    47  H   -0.043509
    48  H   -0.001108
    49  H   -0.004133
    50  H    0.024630
    51  H    0.015743
    52  H    0.015064
    53  H    0.021617
    54  H    0.049079
    55  H    0.016308
    56  H    0.017704
    57  H    0.005862
    58  H    0.024742
    59  H    0.040370
    60  H    0.036986
    61  H    0.033532
    62  H    0.032196
    63  H    0.014216
    64  H    0.008756
    65  H    0.021733
    66  H    0.012806
    67  H    0.003948
    68  H    0.004920
    69  H    0.004723
    70  H    0.006153
    71  H    0.015935
    72  H    0.030553
    73  H    0.047217
    74  H    0.007806
    75  H    0.044819
    76  H    0.033563
    77  H    0.041108
    78  H    0.044382
    79  H    0.054340
    80  Mg   0.838989
    81  C   -0.015971
    82  C   -0.087871
    83  C   -0.045524
    84  C   -0.065101
    85  N   -0.254516
    86  C   -0.049904
    87  C   -0.015139
    88  C   -0.090500
    89  C    0.045914
    90  C    0.114552
    91  C    0.062450
    92  C   -0.077688
    93  H    0.035112
    94  N   -0.423412
    95  C    0.163106
    96  C   -0.174724
    97  C   -0.007792
    98  C    0.152193
    99  C    0.099447
   100  C    0.015618
   101  O   -0.253261
   102  C    0.061160
   103  N   -0.350133
   104  C    0.037563
   105  C   -0.019838
   106  C   -0.034825
   107  C    0.088818
   108  C    0.073695
   109  C    0.034556
   110  C   -0.007536
   111  N   -0.324276
   112  C    0.078874
   113  C   -0.164456
   114  C    0.001263
   115  C    0.097715
   116  C    0.130853
   117  C    0.045788
   118  O   -0.189298
   119  C    0.000121
   120  C    0.210602
   121  O   -0.244445
   122  O   -0.307593
   123  C    0.150886
   124  H   -0.020002
   125  H   -0.015686
   126  H   -0.039744
   127  H   -0.001460
   128  H   -0.004386
   129  H    0.021752
   130  H    0.014345
   131  H    0.015879
   132  H    0.014171
   133  H    0.039377
   134  H    0.019826
   135  H    0.019375
   136  H    0.008599
   137  H    0.025876
   138  H    0.039887
   139  H    0.038057
   140  H    0.036294
   141  H    0.034082
   142  H    0.014378
   143  H    0.012684
   144  H    0.024968
   145  H    0.011412
   146  H    0.005729
   147  H    0.005899
   148  H    0.004000
   149  H    0.010769
   150  H    0.017562
   151  H    0.030835
   152  H    0.047264
   153  H    0.011423
   154  H    0.047509
   155  H    0.033061
   156  H    0.040175
   157  H    0.048599
   158  H    0.058200
 Sum of Mulliken charges =  -0.00000
 Mulliken charges with hydrogens summed into heavy atoms:
               1
     1  Mg   0.839569
     2  C    0.001153
     3  C   -0.109568
     4  C   -0.066827
     5  C   -0.108789
     6  N   -0.256058
     7  C   -0.048526
     8  C   -0.017413
     9  C   -0.092903
    10  C    0.051340
    11  C    0.160659
    12  C    0.123857
    13  C   -0.008776
    15  N   -0.432405
    16  C    0.173776
    17  C   -0.176105
    18  C   -0.004479
    19  C    0.148117
    20  C    0.182021
    21  C    0.011045
    22  O   -0.252068
    23  C    0.165218
    24  N   -0.340066
    25  C    0.040284
    26  C   -0.013388
    27  C   -0.014974
    28  C    0.074008
    29  C    0.115150
    30  C    0.045506
    31  C    0.047635
    32  N   -0.310450
    33  C    0.080614
    34  C   -0.170423
    35  C    0.007735
    36  C    0.084992
    37  C    0.227209
    38  C    0.047154
    39  O   -0.189848
    40  C    0.027077
    41  C    0.210929
    42  O   -0.250444
    43  O   -0.305913
    44  C    0.298183
    80  Mg   0.838989
    81  C   -0.015971
    82  C   -0.107872
    83  C   -0.061210
    84  C   -0.104845
    85  N   -0.254516
    86  C   -0.049904
    87  C   -0.016599
    88  C   -0.094886
    89  C    0.045914
    90  C    0.166529
    91  C    0.115997
    92  C   -0.003374
    94  N   -0.423412
    95  C    0.163106
    96  C   -0.174724
    97  C   -0.007792
    98  C    0.152193
    99  C    0.173810
   100  C    0.015618
   101  O   -0.253261
   102  C    0.169592
   103  N   -0.350133
   104  C    0.037563
   105  C   -0.005461
   106  C   -0.022141
   107  C    0.088818
   108  C    0.115804
   109  C    0.044455
   110  C    0.051631
   111  N   -0.324276
   112  C    0.078874
   113  C   -0.164456
   114  C    0.001263
   115  C    0.097715
   116  C    0.237050
   117  C    0.045788
   118  O   -0.189298
   119  C    0.033182
   120  C    0.210602
   121  O   -0.244445
   122  O   -0.307593
   123  C    0.297861
 Electronic spatial extent (au):  <R**2>=         110865.5393
 Charge=             -0.0000 electrons
 Dipole moment (field-independent basis, Debye):
    X=             -2.1009    Y=              2.6373    Z=              5.5184  Tot=              6.4670
 Quadrupole moment (field-independent basis, Debye-Ang):
   XX=           -474.4470   YY=           -472.6497   ZZ=           -518.4869
   XY=            -28.0129   XZ=              8.2685   YZ=             36.1562
 Traceless Quadrupole moment (field-independent basis, Debye-Ang):
   XX=             14.0809   YY=             15.8782   ZZ=            -29.9590
   XY=            -28.0129   XZ=              8.2685   YZ=             36.1562
 Octapole moment (field-independent basis, Debye-Ang**2):
  XXX=            -91.2585  YYY=            280.1477  ZZZ=            203.7804  XYY=             -0.5246
  XXY=            456.1623  XXZ=            209.8927  XZZ=             -7.8898  YZZ=            -32.0153
  YYZ=            -94.9383  XYZ=            184.0401
 Hexadecapole moment (field-independent basis, Debye-Ang**3):
 XXXX=         -95567.6236 YYYY=         -33579.3716 ZZZZ=         -17635.9088 XXXY=          -3705.4885
 XXXZ=             63.4851 YYYX=            722.8474 YYYZ=            377.1573 ZZZX=           1051.5588
 ZZZY=            384.4304 XXYY=         -22210.4665 XXZZ=         -19545.3564 YYZZ=          -9242.8180
 XXYZ=            421.4147 YYXZ=           -767.7505 ZZXY=           -462.7957
 N-N= 1.537506450108D+04 E-N=-4.023283334929D+04  KE= 4.028790474543D+03
 Leave Link  601 at Fri Sep 10 17:39:03 2021, MaxMem= 23488102400 cpu:              16.9 elap:               0.8
 (Enter /sw/apps/gaussian-16.0/g16/l9999.exe)
 1\1\GINC-BP1-COMPUTE00089\SP\RCAM-B3LYP TD-FC\def2SVP\C68H72Mg2N8O8\OF
 15641\10-Sep-2021\0\\#p cam-b3lyp/Def2SVP td=(nstates=5)\\TDDFT excite
 d states in gaussian\\0,1\Mg,0,0.,0.,0.\C,0,-0.217,-2.218,2.801\C,0,-1
 .255,2.442,2.026\C,0,-0.245,1.85,-2.564\C,0,0.146,-2.824,-2.037\N,0,-0
 .617,-0.009,2.126\C,0,-0.594,-0.908,3.105\C,0,-0.936,-0.309,4.502\C,0,
 -1.773,0.964,4.032\C,0,-1.155,1.168,2.66\C,0,-3.263,0.685,3.863\C,0,0.
 345,0.11,5.299\C,0,0.124,0.397,6.787\H,0,1.168,0.033,7.733\N,0,-0.185,
 1.961,-0.152\C,0,-0.703,2.8,0.777\C,0,-0.62,4.156,0.193\C,0,-0.187,4.0
 15,-1.225\C,0,-0.214,2.583,-1.38\C,0,-0.887,5.406,0.974\C,0,0.181,5.01
 3,-2.277\O,0,0.303,4.69,-3.508\C,0,0.31,6.414,-1.837\N,0,-0.265,-0.413
 ,-2.029\C,0,-0.279,0.569,-2.937\C,0,-0.196,0.024,-4.332\C,0,0.124,-1.5
 33,-4.18\C,0,0.086,-1.632,-2.635\C,0,-1.451,0.205,-5.197\C,0,1.373,-2.
 07,-4.923\C,0,2.626,-1.49,-4.306\N,0,0.15,-2.144,0.303\C,0,0.173,-3.13
 6,-0.688\C,0,0.173,-4.438,0.004\C,0,0.133,-4.111,1.358\C,0,0.083,-2.69
 5,1.502\C,0,0.149,-5.715,-0.623\C,0,0.096,-4.629,2.716\O,0,0.208,-5.74
 7,3.221\C,0,-0.255,-3.428,3.701\C,0,0.717,-3.482,4.848\O,0,1.931,-3.25
 5,4.669\O,0,0.038,-3.556,6.003\C,0,0.943,-3.583,7.183\H,0,-1.859,3.22,
 2.497\H,0,-0.218,2.453,-3.474\H,0,0.276,-3.747,-2.605\H,0,-1.554,-0.94
 9,5.132\H,0,-1.585,1.831,4.665\H,0,-3.484,-0.377,3.969\H,0,-3.511,1.02
 7,2.858\H,0,-3.852,1.301,4.543\H,0,0.669,1.096,4.966\H,0,1.13,-0.639,5
 .189\H,0,-0.844,0.026,7.125\H,0,0.062,1.477,6.921\H,0,-1.344,5.186,1.9
 38\H,0,-1.651,5.963,0.432\H,0,0.007,6.02,1.084\H,0,-0.635,6.744,-1.405
 \H,0,0.665,6.97,-2.704\H,0,1.048,6.466,-1.036\H,0,0.608,0.501,-4.891\H
 ,0,-0.692,-2.156,-4.547\H,0,-1.267,0.74,-6.129\H,0,-2.204,0.714,-4.596
 \H,0,-1.967,-0.72,-5.453\H,0,1.356,-1.759,-5.967\H,0,1.452,-3.157,-4.9
 02\H,0,2.714,-0.522,-4.798\H,0,3.487,-2.121,-4.529\H,0,2.495,-1.303,-3
 .24\H,0,0.867,-6.333,-0.084\H,0,0.404,-5.642,-1.68\H,0,-0.891,-5.999,-
 0.463\H,0,-1.283,-3.581,4.028\H,0,0.698,-4.478,7.755\H,0,0.833,-2.619,
 7.68\H,0,2.,-3.754,6.976\Mg,0,10.51298,0.93934,0.80618\C,0,7.87316,1.6
 7887,3.1221\C,0,12.71189,1.76561,3.27937\C,0,12.84546,0.73215,-1.33486
 \C,0,8.17385,1.28058,-1.75463\N,0,10.21007,1.61876,2.88918\C,0,9.16301
 ,1.80418,3.67888\C,0,9.51813,2.06424,5.16744\C,0,11.00775,2.6287,4.964
 21\C,0,11.35339,1.93761,3.64679\C,0,11.05693,4.1313,4.74261\C,0,9.5141
 7,0.74805,6.02164\C,0,9.54761,0.96424,7.5362\H,0,8.80881,0.03647,8.388
 19\N,0,12.47086,0.73227,1.05595\C,0,13.19751,1.10149,2.13156\C,0,14.59
 117,0.75326,1.81437\C,0,14.65066,0.29966,0.39824\C,0,13.29868,0.59668,
 -0.03071\C,0,15.69165,0.79065,2.83464\C,0,15.74707,-0.29041,-0.43597\O
 ,0,15.64524,-0.38893,-1.70984\C,0,16.98069,-0.66349,0.27148\N,0,10.562
 39,1.20501,-1.25521\C,0,11.6948,1.00271,-1.95138\C,0,11.42555,0.98291,
 -3.43715\C,0,9.8332,0.97274,-3.58511\C,0,9.43994,1.08333,-2.09564\C,0,
 12.00293,2.15289,-4.23349\C,0,9.21225,-0.17291,-4.43044\C,0,9.40928,-1
 .4973,-3.7286\N,0,8.37337,1.21182,0.68012\C,0,7.59952,1.35647,-0.49219
 \C,0,6.21191,1.63194,-0.06666\C,0,6.27972,1.65142,1.33459\C,0,7.61907,
 1.4255,1.75243\C,0,5.10829,1.87216,-0.93294\C,0,5.52477,1.82228,2.5550
 7\O,0,4.33214,1.95271,2.82774\C,0,6.54573,1.97332,3.76387\C,0,6.08812,
 1.06773,4.87428\O,0,6.09432,-0.16701,4.72602\O,0,5.92645,1.79297,5.996
 01\C,0,5.4837,0.9368,7.1286\H,0,13.48034,2.21795,3.90687\H,0,13.59173,
 0.55917,-2.11373\H,0,7.36752,1.30197,-2.49087\H,0,8.90225,2.80838,5.65
 807\H,0,11.6698,2.29078,5.75722\H,0,10.06935,4.55599,4.64029\H,0,11.62
 703,4.27619,3.83429\H,0,11.63237,4.61122,5.5394\H,0,10.47179,0.22943,5
 .88469\H,0,8.67725,0.12877,5.76341\H,0,9.31974,2.00167,7.80962\H,0,10.
 57194,0.81377,7.88568\H,0,15.38022,1.32111,3.74295\H,0,16.49246,1.4115
 2,2.41859\H,0,16.09263,-0.20026,3.05819\H,0,17.39219,0.21286,0.76659\H
 ,0,17.61097,-1.14885,-0.47623\H,0,16.72834,-1.38108,1.06015\H,0,11.826
 39,0.08483,-3.89087\H,0,9.46378,1.88497,-4.07623\H,0,12.67426,1.83398,
 -5.05306\H,0,12.52412,2.80808,-3.54819\H,0,11.26461,2.82026,-4.67474\H
 ,0,9.72302,-0.25284,-5.39318\H,0,8.15624,-0.03398,-4.63668\H,0,10.4244
 3,-1.78261,-4.02043\H,0,8.67948,-2.22649,-4.0746\H,0,9.40263,-1.37053,
 -2.63978\H,0,4.27253,1.31205,-0.5351\H,0,5.33428,1.57788,-1.95573\H,0,
 5.01157,2.95624,-0.82957\H,0,6.54509,3.02184,4.06416\H,0,4.55799,1.373
 28,7.51621\H,0,6.34553,0.88733,7.82038\H,0,5.16163,-0.07198,6.89824\\V
 ersion=ES64L-G16RevA.03\State=1-A\HF=-4069.8112673\RMSD=5.560e-09\PG=C
 01 [X(C68H72Mg2N8O8)]\\@


 TO DRY ONE'S EYES AND LAUGH AT A FALL
 AND BAFFLED, GET UP AND BEGIN AGAIN.
           R. BROWNING
 Job cpu time:       0 days 14 hours 24 minutes 25.1 seconds.
 Elapsed time:       0 days  0 hours 36 minutes 39.9 seconds.
 File lengths (MBytes):  RWF=  13225 Int=      0 D2E=      0 Chk=    574 Scr=      1
 Normal termination of Gaussian 16 at Fri Sep 10 17:39:04 2021.
