 Entering Gaussian System, Link 0=g16
 Initial command:
 /sw/apps/gaussian-16.0/g16/l1.exe "/tmp/Gau-131406.inp" -scrdir="/tmp/"
 Entering Link 1 = /sw/apps/gaussian-16.0/g16/l1.exe PID=    131407.
  
 Copyright (c) 1988,1990,1992,1993,1995,1998,2003,2009,2016,
            Gaussian, Inc.  All Rights Reserved.
  
 This is part of the Gaussian(R) 16 program.  It is based on
 the Gaussian(R) 09 system (copyright 2009, Gaussian, Inc.),
 the Gaussian(R) 03 system (copyright 2003, Gaussian, Inc.),
 the Gaussian(R) 98 system (copyright 1998, Gaussian, Inc.),
 the Gaussian(R) 94 system (copyright 1995, Gaussian, Inc.),
 the Gaussian 92(TM) system (copyright 1992, Gaussian, Inc.),
 the Gaussian 90(TM) system (copyright 1990, Gaussian, Inc.),
 the Gaussian 88(TM) system (copyright 1988, Gaussian, Inc.),
 the Gaussian 86(TM) system (copyright 1986, Carnegie Mellon
 University), and the Gaussian 82(TM) system (copyright 1983,
 Carnegie Mellon University). Gaussian is a federally registered
 trademark of Gaussian, Inc.
  
 This software contains proprietary and confidential information,
 including trade secrets, belonging to Gaussian, Inc.
  
 This software is provided under written license and may be
 used, copied, transmitted, or stored only in accord with that
 written license.
  
 The following legend is applicable only to US Government
 contracts under FAR:
  
                    RESTRICTED RIGHTS LEGEND
  
 Use, reproduction and disclosure by the US Government is
 subject to restrictions as set forth in subparagraphs (a)
 and (c) of the Commercial Computer Software - Restricted
 Rights clause in FAR 52.227-19.
  
 Gaussian, Inc.
 340 Quinnipiac St., Bldg. 40, Wallingford CT 06492
  
  
 ---------------------------------------------------------------
 Warning -- This program may not be used in any manner that
 competes with the business of Gaussian, Inc. or will provide
 assistance to any competitor of Gaussian, Inc.  The licensee
 of this program is prohibited from giving any competitor of
 Gaussian, Inc. access to this program.  By using this program,
 the user acknowledges that Gaussian, Inc. is engaged in the
 business of creating and licensing software in the field of
 computational chemistry and represents and warrants to the
 licensee that it is not a competitor of Gaussian, Inc. and that
 it will not use this program in any manner prohibited above.
 ---------------------------------------------------------------
  

 Cite this work as:
 Gaussian 16, Revision A.03,
 M. J. Frisch, G. W. Trucks, H. B. Schlegel, G. E. Scuseria, 
 M. A. Robb, J. R. Cheeseman, G. Scalmani, V. Barone, 
 G. A. Petersson, H. Nakatsuji, X. Li, M. Caricato, A. V. Marenich, 
 J. Bloino, B. G. Janesko, R. Gomperts, B. Mennucci, H. P. Hratchian, 
 J. V. Ortiz, A. F. Izmaylov, J. L. Sonnenberg, D. Williams-Young, 
 F. Ding, F. Lipparini, F. Egidi, J. Goings, B. Peng, A. Petrone, 
 T. Henderson, D. Ranasinghe, V. G. Zakrzewski, J. Gao, N. Rega, 
 G. Zheng, W. Liang, M. Hada, M. Ehara, K. Toyota, R. Fukuda, 
 J. Hasegawa, M. Ishida, T. Nakajima, Y. Honda, O. Kitao, H. Nakai, 
 T. Vreven, K. Throssell, J. A. Montgomery, Jr., J. E. Peralta, 
 F. Ogliaro, M. J. Bearpark, J. J. Heyd, E. N. Brothers, K. N. Kudin, 
 V. N. Staroverov, T. A. Keith, R. Kobayashi, J. Normand, 
 K. Raghavachari, A. P. Rendell, J. C. Burant, S. S. Iyengar, 
 J. Tomasi, M. Cossi, J. M. Millam, M. Klene, C. Adamo, R. Cammi, 
 J. W. Ochterski, R. L. Martin, K. Morokuma, O. Farkas, 
 J. B. Foresman, and D. J. Fox, Gaussian, Inc., Wallingford CT, 2016.
 
 ******************************************
 Gaussian 16:  ES64L-G16RevA.03 25-Dec-2016
                 4-Sep-2021 
 ******************************************
 %nproc=24
 Will use up to   24 processors via shared memory.
 %mem=175gb
 -----------------------------------
 #p cam-b3lyp/Def2SVP td=(nstates=5)
 -----------------------------------
 1/38=1,172=1/1;
 2/12=2,17=6,18=5,40=1/2;
 3/5=43,7=101,11=9,25=1,30=1,74=-40/1,2,3,8;
 4//1;
 5/5=2,38=5/2;
 8/6=1,10=1,108=5/1;
 9/41=5,42=1,70=2/14;
 6/7=2,8=2,9=2,10=2/1;
 99/5=1,9=1/99;
 Leave Link    1 at Sat Sep  4 17:26:51 2021, MaxMem= 23488102400 cpu:               0.8 elap:               0.0
 (Enter /sw/apps/gaussian-16.0/g16/l101.exe)
 --------------------------------
 TDDFT excited states in gaussian
 --------------------------------
 Symbolic Z-matrix:
 Charge =  0 Multiplicity = 1
 Mg                    0.        0.        0. 
 C                    -0.217    -2.218     2.801 
 C                    -1.255     2.442     2.026 
 C                    -0.245     1.85     -2.564 
 C                     0.146    -2.824    -2.037 
 N                    -0.617    -0.009     2.126 
 C                    -0.594    -0.908     3.105 
 C                    -0.936    -0.309     4.502 
 C                    -1.773     0.964     4.032 
 C                    -1.155     1.168     2.66 
 C                    -3.263     0.685     3.863 
 C                     0.345     0.11      5.299 
 C                     0.124     0.397     6.787 
 H                     1.168     0.033     7.733 
 N                    -0.185     1.961    -0.152 
 C                    -0.703     2.8       0.777 
 C                    -0.62      4.156     0.193 
 C                    -0.187     4.015    -1.225 
 C                    -0.214     2.583    -1.38 
 C                    -0.887     5.406     0.974 
 C                     0.181     5.013    -2.277 
 O                     0.303     4.69     -3.508 
 C                     0.31      6.414    -1.837 
 N                    -0.265    -0.413    -2.029 
 C                    -0.279     0.569    -2.937 
 C                    -0.196     0.024    -4.332 
 C                     0.124    -1.533    -4.18 
 C                     0.086    -1.632    -2.635 
 C                    -1.451     0.205    -5.197 
 C                     1.373    -2.07     -4.923 
 C                     2.626    -1.49     -4.306 
 N                     0.15     -2.144     0.303 
 C                     0.173    -3.136    -0.688 
 C                     0.173    -4.438     0.004 
 C                     0.133    -4.111     1.358 
 C                     0.083    -2.695     1.502 
 C                     0.149    -5.715    -0.623 
 C                     0.096    -4.629     2.716 
 O                     0.208    -5.747     3.221 
 C                    -0.255    -3.428     3.701 
 C                     0.717    -3.482     4.848 
 O                     1.931    -3.255     4.669 
 O                     0.038    -3.556     6.003 
 C                     0.943    -3.583     7.183 
 H                    -1.859     3.22      2.497 
 H                    -0.218     2.453    -3.474 
 H                     0.276    -3.747    -2.605 
 H                    -1.554    -0.949     5.132 
 H                    -1.585     1.831     4.665 
 H                    -3.484    -0.377     3.969 
 H                    -3.511     1.027     2.858 
 H                    -3.852     1.301     4.543 
 H                     0.669     1.096     4.966 
 H                     1.13     -0.639     5.189 
 H                    -0.844     0.026     7.125 
 H                     0.062     1.477     6.921 
 H                    -1.344     5.186     1.938 
 H                    -1.651     5.963     0.432 
 H                     0.007     6.02      1.084 
 H                    -0.635     6.744    -1.405 
 H                     0.665     6.97     -2.704 
 H                     1.048     6.466    -1.036 
 H                     0.608     0.501    -4.891 
 H                    -0.692    -2.156    -4.547 
 H                    -1.267     0.74     -6.129 
 H                    -2.204     0.714    -4.596 
 H                    -1.967    -0.72     -5.453 
 H                     1.356    -1.759    -5.967 
 H                     1.452    -3.157    -4.902 
 H                     2.714    -0.522    -4.798 
 H                     3.487    -2.121    -4.529 
 H                     2.495    -1.303    -3.24 
 H                     0.867    -6.333    -0.084 
 H                     0.404    -5.642    -1.68 
 H                    -0.891    -5.999    -0.463 
 H                    -1.283    -3.581     4.028 
 H                     0.698    -4.478     7.755 
 H                     0.833    -2.619     7.68 
 H                     2.       -3.754     6.976 
 Mg                    31.5406   2.83582   2.3891 
 C                     31.31209   5.27844  -0.23014 
 C                     31.05367   0.44884   0.00167 
 C                     31.28706   0.6978    4.71977 
 C                     30.86876   5.4011    4.65044 
 N                     31.23559   2.97063   0.20254 
 C                     31.22947   3.94805  -0.69131 
 C                     31.20998   3.4693   -2.16778 
 C                     30.55837   2.01906  -1.94174 
 C                     31.00233   1.77346  -0.50116 
 C                     29.0392   2.02956  -1.97815 
 C                     32.65049   3.3626   -2.78061 
 C                     32.69186   3.20067  -4.30173 
 H                     33.77979   3.83615  -5.04001 
 N                     31.70594   0.8587    2.34175 
 C                     31.49393   0.04954   1.28271 
 C                     31.72585  -1.31923   1.7694 
 C                     31.93107  -1.26485   3.24237 
 C                     31.62191   0.12725   3.50038 
 C                     31.81586  -2.5045    0.85264 
 C                     32.32614  -2.29819   4.25348 
 O                     32.21234  -2.08639   5.51246 
 C                     32.76209  -3.59915   3.72534 
 N                     30.92899   2.97652   4.37114 
 C                     30.964    1.90537   5.18314 
 C                     30.74382   2.30474   6.62272 
 C                     30.79453   3.90311   6.63773 
 C                     30.95325   4.16548   5.124 
 C                     29.43341   1.83147   7.2514 
 C                     31.80567   4.56604   7.61282 
 C                     33.22025   4.27251   7.16762 
 N                     31.33922   4.98463   2.2887 
 C                     31.0308   5.86299   3.35052 
 C                     30.88857   7.21419   2.77047 
 C                     31.10311   7.02288   1.3972 
 C                     31.34089   5.64623   1.13685 
 C                     30.55129   8.39628   3.48813 
 C                     31.17199   7.67085   0.10721 
 O                     31.13874   8.83762  -0.28172 
 C                     31.18518   6.55103  -1.02073 
 C                     32.28329   6.88419  -1.99319 
 O                     33.47397   6.85846  -1.6351 
 O                     31.76509   6.96487  -3.23227 
 C                     32.81766   7.28256  -4.23376 
 H                     30.68244  -0.35999  -0.6283 
 H                     31.29517   0.01925   5.57591 
 H                     30.75668   6.26985   5.30266 
 H                     30.58537   4.05872  -2.82824 
 H                     30.9977   1.28055  -2.60729 
 H                     28.64442   3.03322  -2.03251 
 H                     28.71969   1.54631  -1.06413 
 H                     28.67734   1.39861  -2.79504 
 H                     33.09861   2.40751  -2.47773 
 H                     33.25127   4.20243  -2.49014 
 H                     31.72575   3.43079  -4.76717 
 H                     32.85679   2.14576  -4.53405 
 H                     31.45963  -2.26093  -0.15591 
 H                     31.10119  -3.24852   1.22082 
 H                     32.81289  -2.94984   0.8366 
 H                     31.96566  -4.02958   3.12293 
 H                     33.08786  -4.17324   4.59492 
 H                     33.61229  -3.43685   3.05345 
 H                     31.53513   1.92209   7.25558 
 H                     29.82851   4.33867   6.93257 
 H                     29.58145   1.22728   8.16634 
 H                     28.88237   1.26909   6.50936 
 H                     28.73216   2.62345   7.50875 
 H                     31.70082   4.14075   8.61396 
 H                     31.67759   5.63948   7.70389 
 H                     33.4101   3.28005   7.58723 
 H                     33.91004   5.01056   7.57199 
 H                     33.27947   4.1859    6.07646 
 H                     31.20449   9.17832   3.12449 
 H                     30.65913   8.25419   4.56142 
 H                     29.50514   8.51213   3.19247 
 H                     30.20332   6.55281  -1.49562 
 H                     32.49142   8.18147  -4.76593 
 H                     32.94761   6.36176  -4.83291 
 H                     33.7855   7.59697  -3.86109 
 
 ITRead=  0  0  0  0  0  0  0  0  0  0  0  0  0  0  0  0  0  0  0  0
 ITRead=  0  0  0  0  0  0  0  0  0  0  0  0  0  0  0  0  0  0  0  0
 ITRead=  0  0  0  0  0  0  0  0  0  0  0  0  0  0  0  0  0  0  0  0
 ITRead=  0  0  0  0  0  0  0  0  0  0  0  0  0  0  0  0  0  0  0  0
 ITRead=  0  0  0  0  0  0  0  0  0  0  0  0  0  0  0  0  0  0  0  0
 ITRead=  0  0  0  0  0  0  0  0  0  0  0  0  0  0  0  0  0  0  0  0
 ITRead=  0  0  0  0  0  0  0  0  0  0  0  0  0  0  0  0  0  0  0  0
 ITRead=  0  0  0  0  0  0  0  0  0  0  0  0  0  0  0  0  0  0
 MicOpt= -1 -1 -1 -1 -1 -1 -1 -1 -1 -1 -1 -1 -1 -1 -1 -1 -1 -1 -1 -1
 MicOpt= -1 -1 -1 -1 -1 -1 -1 -1 -1 -1 -1 -1 -1 -1 -1 -1 -1 -1 -1 -1
 MicOpt= -1 -1 -1 -1 -1 -1 -1 -1 -1 -1 -1 -1 -1 -1 -1 -1 -1 -1 -1 -1
 MicOpt= -1 -1 -1 -1 -1 -1 -1 -1 -1 -1 -1 -1 -1 -1 -1 -1 -1 -1 -1 -1
 MicOpt= -1 -1 -1 -1 -1 -1 -1 -1 -1 -1 -1 -1 -1 -1 -1 -1 -1 -1 -1 -1
 MicOpt= -1 -1 -1 -1 -1 -1 -1 -1 -1 -1 -1 -1 -1 -1 -1 -1 -1 -1 -1 -1
 MicOpt= -1 -1 -1 -1 -1 -1 -1 -1 -1 -1 -1 -1 -1 -1 -1 -1 -1 -1 -1 -1
 MicOpt= -1 -1 -1 -1 -1 -1 -1 -1 -1 -1 -1 -1 -1 -1 -1 -1 -1 -1
 NAtoms=    158 NQM=      158 NQMF=       0 NMMI=      0 NMMIF=      0
                NMic=       0 NMicF=      0.
                    Isotopes and Nuclear Properties:
 (Nuclear quadrupole moments (NQMom) in fm**2, nuclear magnetic moments (NMagM)
  in nuclear magnetons)

  Atom         1           2           3           4           5           6           7           8           9          10
 IAtWgt=          24          12          12          12          12          14          12          12          12          12
 AtmWgt=  23.9850450  12.0000000  12.0000000  12.0000000  12.0000000  14.0030740  12.0000000  12.0000000  12.0000000  12.0000000
 NucSpn=           0           0           0           0           0           2           0           0           0           0
 AtZEff=  -0.0000000  -0.0000000  -0.0000000  -0.0000000  -0.0000000  -0.0000000  -0.0000000  -0.0000000  -0.0000000  -0.0000000
 NQMom=    0.0000000   0.0000000   0.0000000   0.0000000   0.0000000   2.0440000   0.0000000   0.0000000   0.0000000   0.0000000
 NMagM=    0.0000000   0.0000000   0.0000000   0.0000000   0.0000000   0.4037610   0.0000000   0.0000000   0.0000000   0.0000000
 AtZNuc=  12.0000000   6.0000000   6.0000000   6.0000000   6.0000000   7.0000000   6.0000000   6.0000000   6.0000000   6.0000000

  Atom        11          12          13          14          15          16          17          18          19          20
 IAtWgt=          12          12          12           1          14          12          12          12          12          12
 AtmWgt=  12.0000000  12.0000000  12.0000000   1.0078250  14.0030740  12.0000000  12.0000000  12.0000000  12.0000000  12.0000000
 NucSpn=           0           0           0           1           2           0           0           0           0           0
 AtZEff=  -0.0000000  -0.0000000  -0.0000000  -0.0000000  -0.0000000  -0.0000000  -0.0000000  -0.0000000  -0.0000000  -0.0000000
 NQMom=    0.0000000   0.0000000   0.0000000   0.0000000   2.0440000   0.0000000   0.0000000   0.0000000   0.0000000   0.0000000
 NMagM=    0.0000000   0.0000000   0.0000000   2.7928460   0.4037610   0.0000000   0.0000000   0.0000000   0.0000000   0.0000000
 AtZNuc=   6.0000000   6.0000000   6.0000000   1.0000000   7.0000000   6.0000000   6.0000000   6.0000000   6.0000000   6.0000000

  Atom        21          22          23          24          25          26          27          28          29          30
 IAtWgt=          12          16          12          14          12          12          12          12          12          12
 AtmWgt=  12.0000000  15.9949146  12.0000000  14.0030740  12.0000000  12.0000000  12.0000000  12.0000000  12.0000000  12.0000000
 NucSpn=           0           0           0           2           0           0           0           0           0           0
 AtZEff=  -0.0000000  -0.0000000  -0.0000000  -0.0000000  -0.0000000  -0.0000000  -0.0000000  -0.0000000  -0.0000000  -0.0000000
 NQMom=    0.0000000   0.0000000   0.0000000   2.0440000   0.0000000   0.0000000   0.0000000   0.0000000   0.0000000   0.0000000
 NMagM=    0.0000000   0.0000000   0.0000000   0.4037610   0.0000000   0.0000000   0.0000000   0.0000000   0.0000000   0.0000000
 AtZNuc=   6.0000000   8.0000000   6.0000000   7.0000000   6.0000000   6.0000000   6.0000000   6.0000000   6.0000000   6.0000000

  Atom        31          32          33          34          35          36          37          38          39          40
 IAtWgt=          12          14          12          12          12          12          12          12          16          12
 AtmWgt=  12.0000000  14.0030740  12.0000000  12.0000000  12.0000000  12.0000000  12.0000000  12.0000000  15.9949146  12.0000000
 NucSpn=           0           2           0           0           0           0           0           0           0           0
 AtZEff=  -0.0000000  -0.0000000  -0.0000000  -0.0000000  -0.0000000  -0.0000000  -0.0000000  -0.0000000  -0.0000000  -0.0000000
 NQMom=    0.0000000   2.0440000   0.0000000   0.0000000   0.0000000   0.0000000   0.0000000   0.0000000   0.0000000   0.0000000
 NMagM=    0.0000000   0.4037610   0.0000000   0.0000000   0.0000000   0.0000000   0.0000000   0.0000000   0.0000000   0.0000000
 AtZNuc=   6.0000000   7.0000000   6.0000000   6.0000000   6.0000000   6.0000000   6.0000000   6.0000000   8.0000000   6.0000000

  Atom        41          42          43          44          45          46          47          48          49          50
 IAtWgt=          12          16          16          12           1           1           1           1           1           1
 AtmWgt=  12.0000000  15.9949146  15.9949146  12.0000000   1.0078250   1.0078250   1.0078250   1.0078250   1.0078250   1.0078250
 NucSpn=           0           0           0           0           1           1           1           1           1           1
 AtZEff=  -0.0000000  -0.0000000  -0.0000000  -0.0000000  -0.0000000  -0.0000000  -0.0000000  -0.0000000  -0.0000000  -0.0000000
 NQMom=    0.0000000   0.0000000   0.0000000   0.0000000   0.0000000   0.0000000   0.0000000   0.0000000   0.0000000   0.0000000
 NMagM=    0.0000000   0.0000000   0.0000000   0.0000000   2.7928460   2.7928460   2.7928460   2.7928460   2.7928460   2.7928460
 AtZNuc=   6.0000000   8.0000000   8.0000000   6.0000000   1.0000000   1.0000000   1.0000000   1.0000000   1.0000000   1.0000000

  Atom        51          52          53          54          55          56          57          58          59          60
 IAtWgt=           1           1           1           1           1           1           1           1           1           1
 AtmWgt=   1.0078250   1.0078250   1.0078250   1.0078250   1.0078250   1.0078250   1.0078250   1.0078250   1.0078250   1.0078250
 NucSpn=           1           1           1           1           1           1           1           1           1           1
 AtZEff=  -0.0000000  -0.0000000  -0.0000000  -0.0000000  -0.0000000  -0.0000000  -0.0000000  -0.0000000  -0.0000000  -0.0000000
 NQMom=    0.0000000   0.0000000   0.0000000   0.0000000   0.0000000   0.0000000   0.0000000   0.0000000   0.0000000   0.0000000
 NMagM=    2.7928460   2.7928460   2.7928460   2.7928460   2.7928460   2.7928460   2.7928460   2.7928460   2.7928460   2.7928460
 AtZNuc=   1.0000000   1.0000000   1.0000000   1.0000000   1.0000000   1.0000000   1.0000000   1.0000000   1.0000000   1.0000000

  Atom        61          62          63          64          65          66          67          68          69          70
 IAtWgt=           1           1           1           1           1           1           1           1           1           1
 AtmWgt=   1.0078250   1.0078250   1.0078250   1.0078250   1.0078250   1.0078250   1.0078250   1.0078250   1.0078250   1.0078250
 NucSpn=           1           1           1           1           1           1           1           1           1           1
 AtZEff=  -0.0000000  -0.0000000  -0.0000000  -0.0000000  -0.0000000  -0.0000000  -0.0000000  -0.0000000  -0.0000000  -0.0000000
 NQMom=    0.0000000   0.0000000   0.0000000   0.0000000   0.0000000   0.0000000   0.0000000   0.0000000   0.0000000   0.0000000
 NMagM=    2.7928460   2.7928460   2.7928460   2.7928460   2.7928460   2.7928460   2.7928460   2.7928460   2.7928460   2.7928460
 AtZNuc=   1.0000000   1.0000000   1.0000000   1.0000000   1.0000000   1.0000000   1.0000000   1.0000000   1.0000000   1.0000000

  Atom        71          72          73          74          75          76          77          78          79          80
 IAtWgt=           1           1           1           1           1           1           1           1           1          24
 AtmWgt=   1.0078250   1.0078250   1.0078250   1.0078250   1.0078250   1.0078250   1.0078250   1.0078250   1.0078250  23.9850450
 NucSpn=           1           1           1           1           1           1           1           1           1           0
 AtZEff=  -0.0000000  -0.0000000  -0.0000000  -0.0000000  -0.0000000  -0.0000000  -0.0000000  -0.0000000  -0.0000000  -0.0000000
 NQMom=    0.0000000   0.0000000   0.0000000   0.0000000   0.0000000   0.0000000   0.0000000   0.0000000   0.0000000   0.0000000
 NMagM=    2.7928460   2.7928460   2.7928460   2.7928460   2.7928460   2.7928460   2.7928460   2.7928460   2.7928460   0.0000000
 AtZNuc=   1.0000000   1.0000000   1.0000000   1.0000000   1.0000000   1.0000000   1.0000000   1.0000000   1.0000000  12.0000000

  Atom        81          82          83          84          85          86          87          88          89          90
 IAtWgt=          12          12          12          12          14          12          12          12          12          12
 AtmWgt=  12.0000000  12.0000000  12.0000000  12.0000000  14.0030740  12.0000000  12.0000000  12.0000000  12.0000000  12.0000000
 NucSpn=           0           0           0           0           2           0           0           0           0           0
 AtZEff=  -0.0000000  -0.0000000  -0.0000000  -0.0000000  -0.0000000  -0.0000000  -0.0000000  -0.0000000  -0.0000000  -0.0000000
 NQMom=    0.0000000   0.0000000   0.0000000   0.0000000   2.0440000   0.0000000   0.0000000   0.0000000   0.0000000   0.0000000
 NMagM=    0.0000000   0.0000000   0.0000000   0.0000000   0.4037610   0.0000000   0.0000000   0.0000000   0.0000000   0.0000000
 AtZNuc=   6.0000000   6.0000000   6.0000000   6.0000000   7.0000000   6.0000000   6.0000000   6.0000000   6.0000000   6.0000000

  Atom        91          92          93          94          95          96          97          98          99         100
 IAtWgt=          12          12           1          14          12          12          12          12          12          12
 AtmWgt=  12.0000000  12.0000000   1.0078250  14.0030740  12.0000000  12.0000000  12.0000000  12.0000000  12.0000000  12.0000000
 NucSpn=           0           0           1           2           0           0           0           0           0           0
 AtZEff=  -0.0000000  -0.0000000  -0.0000000  -0.0000000  -0.0000000  -0.0000000  -0.0000000  -0.0000000  -0.0000000  -0.0000000
 NQMom=    0.0000000   0.0000000   0.0000000   2.0440000   0.0000000   0.0000000   0.0000000   0.0000000   0.0000000   0.0000000
 NMagM=    0.0000000   0.0000000   2.7928460   0.4037610   0.0000000   0.0000000   0.0000000   0.0000000   0.0000000   0.0000000
 AtZNuc=   6.0000000   6.0000000   1.0000000   7.0000000   6.0000000   6.0000000   6.0000000   6.0000000   6.0000000   6.0000000

  Atom       101         102         103         104         105         106         107         108         109         110
 IAtWgt=          16          12          14          12          12          12          12          12          12          12
 AtmWgt=  15.9949146  12.0000000  14.0030740  12.0000000  12.0000000  12.0000000  12.0000000  12.0000000  12.0000000  12.0000000
 NucSpn=           0           0           2           0           0           0           0           0           0           0
 AtZEff=  -0.0000000  -0.0000000  -0.0000000  -0.0000000  -0.0000000  -0.0000000  -0.0000000  -0.0000000  -0.0000000  -0.0000000
 NQMom=    0.0000000   0.0000000   2.0440000   0.0000000   0.0000000   0.0000000   0.0000000   0.0000000   0.0000000   0.0000000
 NMagM=    0.0000000   0.0000000   0.4037610   0.0000000   0.0000000   0.0000000   0.0000000   0.0000000   0.0000000   0.0000000
 AtZNuc=   8.0000000   6.0000000   7.0000000   6.0000000   6.0000000   6.0000000   6.0000000   6.0000000   6.0000000   6.0000000

  Atom       111         112         113         114         115         116         117         118         119         120
 IAtWgt=          14          12          12          12          12          12          12          16          12          12
 AtmWgt=  14.0030740  12.0000000  12.0000000  12.0000000  12.0000000  12.0000000  12.0000000  15.9949146  12.0000000  12.0000000
 NucSpn=           2           0           0           0           0           0           0           0           0           0
 AtZEff=  -0.0000000  -0.0000000  -0.0000000  -0.0000000  -0.0000000  -0.0000000  -0.0000000  -0.0000000  -0.0000000  -0.0000000
 NQMom=    2.0440000   0.0000000   0.0000000   0.0000000   0.0000000   0.0000000   0.0000000   0.0000000   0.0000000   0.0000000
 NMagM=    0.4037610   0.0000000   0.0000000   0.0000000   0.0000000   0.0000000   0.0000000   0.0000000   0.0000000   0.0000000
 AtZNuc=   7.0000000   6.0000000   6.0000000   6.0000000   6.0000000   6.0000000   6.0000000   8.0000000   6.0000000   6.0000000

  Atom       121         122         123         124         125         126         127         128         129         130
 IAtWgt=          16          16          12           1           1           1           1           1           1           1
 AtmWgt=  15.9949146  15.9949146  12.0000000   1.0078250   1.0078250   1.0078250   1.0078250   1.0078250   1.0078250   1.0078250
 NucSpn=           0           0           0           1           1           1           1           1           1           1
 AtZEff=  -0.0000000  -0.0000000  -0.0000000  -0.0000000  -0.0000000  -0.0000000  -0.0000000  -0.0000000  -0.0000000  -0.0000000
 NQMom=    0.0000000   0.0000000   0.0000000   0.0000000   0.0000000   0.0000000   0.0000000   0.0000000   0.0000000   0.0000000
 NMagM=    0.0000000   0.0000000   0.0000000   2.7928460   2.7928460   2.7928460   2.7928460   2.7928460   2.7928460   2.7928460
 AtZNuc=   8.0000000   8.0000000   6.0000000   1.0000000   1.0000000   1.0000000   1.0000000   1.0000000   1.0000000   1.0000000

  Atom       131         132         133         134         135         136         137         138         139         140
 IAtWgt=           1           1           1           1           1           1           1           1           1           1
 AtmWgt=   1.0078250   1.0078250   1.0078250   1.0078250   1.0078250   1.0078250   1.0078250   1.0078250   1.0078250   1.0078250
 NucSpn=           1           1           1           1           1           1           1           1           1           1
 AtZEff=  -0.0000000  -0.0000000  -0.0000000  -0.0000000  -0.0000000  -0.0000000  -0.0000000  -0.0000000  -0.0000000  -0.0000000
 NQMom=    0.0000000   0.0000000   0.0000000   0.0000000   0.0000000   0.0000000   0.0000000   0.0000000   0.0000000   0.0000000
 NMagM=    2.7928460   2.7928460   2.7928460   2.7928460   2.7928460   2.7928460   2.7928460   2.7928460   2.7928460   2.7928460
 AtZNuc=   1.0000000   1.0000000   1.0000000   1.0000000   1.0000000   1.0000000   1.0000000   1.0000000   1.0000000   1.0000000

  Atom       141         142         143         144         145         146         147         148         149         150
 IAtWgt=           1           1           1           1           1           1           1           1           1           1
 AtmWgt=   1.0078250   1.0078250   1.0078250   1.0078250   1.0078250   1.0078250   1.0078250   1.0078250   1.0078250   1.0078250
 NucSpn=           1           1           1           1           1           1           1           1           1           1
 AtZEff=  -0.0000000  -0.0000000  -0.0000000  -0.0000000  -0.0000000  -0.0000000  -0.0000000  -0.0000000  -0.0000000  -0.0000000
 NQMom=    0.0000000   0.0000000   0.0000000   0.0000000   0.0000000   0.0000000   0.0000000   0.0000000   0.0000000   0.0000000
 NMagM=    2.7928460   2.7928460   2.7928460   2.7928460   2.7928460   2.7928460   2.7928460   2.7928460   2.7928460   2.7928460
 AtZNuc=   1.0000000   1.0000000   1.0000000   1.0000000   1.0000000   1.0000000   1.0000000   1.0000000   1.0000000   1.0000000

  Atom       151         152         153         154         155         156         157         158
 IAtWgt=           1           1           1           1           1           1           1           1
 AtmWgt=   1.0078250   1.0078250   1.0078250   1.0078250   1.0078250   1.0078250   1.0078250   1.0078250
 NucSpn=           1           1           1           1           1           1           1           1
 AtZEff=  -0.0000000  -0.0000000  -0.0000000  -0.0000000  -0.0000000  -0.0000000  -0.0000000  -0.0000000
 NQMom=    0.0000000   0.0000000   0.0000000   0.0000000   0.0000000   0.0000000   0.0000000   0.0000000
 NMagM=    2.7928460   2.7928460   2.7928460   2.7928460   2.7928460   2.7928460   2.7928460   2.7928460
 AtZNuc=   1.0000000   1.0000000   1.0000000   1.0000000   1.0000000   1.0000000   1.0000000   1.0000000
 Leave Link  101 at Sat Sep  4 17:26:51 2021, MaxMem= 23488102400 cpu:               3.2 elap:               0.2
 (Enter /sw/apps/gaussian-16.0/g16/l202.exe)
 Stoichiometry    C68H72Mg2N8O8
 Framework group  C1[X(C68H72Mg2N8O8)]
 Deg. of freedom   468
 Full point group                 C1      NOp   1
 Largest Abelian subgroup         C1      NOp   1
 Largest concise Abelian subgroup C1      NOp   1
                         Standard orientation:                         
 ---------------------------------------------------------------------
 Center     Atomic      Atomic             Coordinates (Angstroms)
 Number     Number       Type             X           Y           Z
 ---------------------------------------------------------------------
      1         12           0      -15.772334   -0.810457    0.111106
      2          6           0      -16.158802    2.747746    0.156323
      3          6           0      -16.670048   -0.716967   -3.179552
      4          6           0      -15.879988   -3.979427    0.162726
      5          6           0      -16.020397   -0.733648    3.586481
      6          7           0      -16.319394    0.863978   -1.229654
      7          6           0      -16.370782    2.186462   -1.104895
      8          6           0      -16.596751    2.926288   -2.457289
      9          6           0      -17.293882    1.748504   -3.275110
     10          6           0      -16.699514    0.558860   -2.542034
     11          6           0      -18.810802    1.713515   -3.119442
     12          6           0      -15.251341    3.368989   -3.124836
     13          6           0      -15.390731    4.374345   -4.271650
     14          1           0      -14.367233    5.395515   -4.436002
     15          7           0      -15.732065   -2.118029   -1.369260
     16          6           0      -16.119393   -1.903921   -2.649659
     17          6           0      -15.897140   -3.180778   -3.361643
     18          6           0      -15.528087   -4.208323   -2.348704
     19          6           0      -15.726719   -3.473171   -1.125808
     20          6           0      -15.992006   -3.320271   -4.850029
     21          6           0      -15.079298   -5.630786   -2.464121
     22          8           0      -15.034346   -6.413869   -1.454500
     23          6           0      -14.774115   -6.115189   -3.822524
     24          7           0      -16.146998   -2.194050    1.628648
     25          6           0      -16.074777   -3.509303    1.396536
     26          6           0      -16.099555   -4.291728    2.676042
     27          6           0      -15.958702   -3.220681    3.851956
     28          6           0      -15.959659   -1.929671    2.996642
     29          6           0      -17.351316   -5.147907    2.912816
     30          6           0      -14.804689   -3.434512    4.863365
     31          6           0      -13.473928   -3.233466    4.173614
     32          7           0      -15.863965    0.725974    1.641475
     33          6           0      -15.987795    0.531794    3.024817
     34          6           0      -16.117982    1.866195    3.638407
     35          6           0      -16.077221    2.748783    2.560806
     36          6           0      -15.957236    2.010963    1.348569
     37          6           0      -16.310320    2.131618    5.022961
     38          6           0      -16.131892    4.142233    2.149510
     39          8           0      -16.135289    5.221934    2.742576
     40          6           0      -16.309479    4.191197    0.567773
     41          6           0      -15.315021    5.183346    0.029256
     42          8           0      -14.089027    4.959249    0.093179
     43          8           0      -15.961569    6.118920   -0.682937
     44          6           0      -15.029440    7.118152   -1.270156
     45          1           0      -17.164181   -0.835718   -4.145819
     46          1           0      -15.811325   -5.066775    0.236183
     47          1           0      -16.016737   -0.626760    4.672765
     48          1           0      -17.265161    3.785516   -2.399161
     49          1           0      -16.986365    1.741576   -4.320627
     50          1           0      -19.150709    2.425963   -2.367908
     51          1           0      -19.048532    0.694611   -2.813156
     52          1           0      -19.302401    1.859578   -4.081613
     53          1           0      -14.825147    2.525667   -3.668185
     54          1           0      -14.562862    3.766704   -2.378415
     55          1           0      -16.384343    4.823025   -4.289798
     56          1           0      -15.322150    3.829811   -5.213446
     57          1           0      -16.441175   -2.439386   -5.307013
     58          1           0      -16.702415   -4.122160   -5.050034
     59          1           0      -15.029508   -3.560655   -5.301853
     60          1           0      -15.660214   -6.011474   -4.449118
     61          1           0      -14.383987   -7.125089   -3.701066
     62          1           0      -14.010404   -5.473522   -4.262929
     63          1           0      -15.263293   -4.987932    2.724940
     64          1           0      -16.852856   -3.176496    4.474218
     65          1           0      -17.135419   -6.204845    3.070855
     66          1           0      -18.020663   -5.008084    2.064455
     67          1           0      -17.979410   -4.820103    3.740742
     68          1           0      -14.817943   -4.455438    5.243470
     69          1           0      -14.852363   -2.761275    5.719361
     70          1           0      -13.289079   -4.203613    3.713747
     71          1           0      -12.699779   -2.993375    4.903175
     72          1           0      -13.548833   -2.500815    3.369813
     73          1           0      -15.652783    2.965663    5.267875
     74          1           0      -16.081724    1.255618    5.629566
     75          1           0      -17.370827    2.382687    5.035017
     76          1           0      -17.337576    4.497433    0.377098
     77          1           0      -15.359127    8.101182   -0.933715
     78          1           0      -15.010685    6.930871   -2.343924
     79          1           0      -14.006584    7.103626   -0.892144
     80         12           0       15.942950    0.825629   -0.040907
     81          6           0       15.919043   -2.742632   -0.422963
     82          6           0       15.106589    0.331482    3.228790
     83          6           0       15.514829    3.958701    0.219879
     84          6           0       15.645865    1.059413   -3.505409
     85          7           0       15.587521   -1.014582    1.133632
     86          6           0       15.667472   -2.315432    0.897512
     87          6           0       15.546132   -3.207335    2.162159
     88          6           0       14.737246   -2.185432    3.100404
     89          6           0       15.194364   -0.867835    2.477772
     90          6           0       13.229274   -2.289790    2.944064
     91          6           0       16.944502   -3.567014    2.776331
     92          6           0       16.919124   -4.682087    3.824047
     93          1           0       18.050114   -5.603693    3.887195
     94          7           0       15.875051    1.982862    1.569927
     95          6           0       15.537123    1.613878    2.823286
     96          6           0       15.622955    2.835030    3.639134
     97          6           0       15.879072    3.987463    2.733035
     98          6           0       15.742571    3.343237    1.442132
     99          6           0       15.545429    2.819238    5.138185
    100          6           0       16.182372    5.433164    2.986360
    101          8           0       16.133468    6.305745    2.048782
    102          6           0       16.446916    5.812779    4.381849
    103          7           0       15.414195    2.295480   -1.412877
    104          6           0       15.349434    3.588604   -1.050151
    105          6           0       15.222447    4.487854   -2.256629
    106          6           0       15.459639    3.542107   -3.524259
    107          6           0       15.600461    2.183414   -2.803474
    108          6           0       13.886092    5.214442   -2.407040
    109          6           0       16.571175    3.968199   -4.522063
    110          6           0       17.927260    3.853366   -3.863848
    111          7           0       15.990473   -0.554302   -1.702698
    112          6           0       15.819934   -0.248296   -3.070681
    113          6           0       15.818168   -1.529345   -3.806440
    114          6           0       15.965891   -2.500888   -2.805051
    115          6           0       16.033263   -1.871051   -1.532945
    116          6           0       15.643637   -1.681801   -5.210871
    117          6           0       16.069491   -3.916667   -2.533902
    118          8           0       16.160378   -4.929433   -3.226555
    119          6           0       15.916735   -4.143830   -0.968181
    120          6           0       17.015255   -5.070321   -0.523899
    121          8           0       18.205423   -4.714956   -0.585760
    122          8           0       16.471510   -6.131390    0.099666
    123          6           0       17.522112   -7.073830    0.568553
    124          1           0       14.624060    0.297569    4.205977
    125          1           0       15.470525    5.050029    0.242506
    126          1           0       15.656302    1.053149   -4.597440
    127          1           0       14.974171   -4.116926    2.023360
    128          1           0       15.066436   -2.253175    4.134043
    129          1           0       12.952717   -2.953940    2.138731
    130          1           0       12.884330   -1.284442    2.740749
    131          1           0       12.770944   -2.579325    3.894039
    132          1           0       17.287443   -2.731238    3.399720
    133          1           0       17.647901   -3.812297    2.004522
    134          1           0       15.972361   -5.235707    3.813935
    135          1           0       16.952572   -4.226431    4.816654
    136          1           0       15.188671    1.851705    5.512356
    137          1           0       14.760739    3.527560    5.425271
    138          1           0       16.482734    3.119196    5.611617
    139          1           0       15.587284    5.554277    4.995589
    140          1           0       16.730550    6.866519    4.349300
    141          1           0       17.288814    5.217579    4.752742
    142          1           0       15.983137    5.258792   -2.246132
    143          1           0       14.560693    3.471979   -4.154194
    144          1           0       13.991204    6.314398   -2.462948
    145          1           0       13.250302    4.934879   -1.577489
    146          1           0       13.290370    4.912335   -3.266726
    147          1           0       16.448803    5.018025   -4.799617
    148          1           0       16.572052    3.390336   -5.440238
    149          1           0       18.013113    4.793038   -3.310008
    150          1           0       18.710711    3.764177   -4.613710
    151          1           0       17.941829    3.037074   -3.132348
    152          1           0       16.371881   -2.412126   -5.537636
    153          1           0       15.767679   -0.734822   -5.732038
    154          1           0       14.609403   -2.034897   -5.241680
    155          1           0       14.927416   -4.568561   -0.793759
    156          1           0       17.286438   -8.053356    0.141161
    157          1           0       17.525004   -6.993130    1.671830
    158          1           0       18.531188   -6.921245    0.203953
 ---------------------------------------------------------------------
 Rotational constants (GHZ):           0.0202901           0.0016444           0.0016074
 Leave Link  202 at Sat Sep  4 17:26:51 2021, MaxMem= 23488102400 cpu:               0.2 elap:               0.0
 (Enter /sw/apps/gaussian-16.0/g16/l301.exe)
 Standard basis: def2SVP (5D, 7F)
 Ernie: Thresh=  0.10000D-02 Tol=  0.10000D-05 Strict=F.
 There are  1658 symmetry adapted cartesian basis functions of A   symmetry.
 There are  1572 symmetry adapted basis functions of A   symmetry.
  1572 basis functions,  2678 primitive gaussians,  1658 cartesian basis functions
   312 alpha electrons      312 beta electrons
       nuclear repulsion energy     12305.1159324910 Hartrees.
 IExCor=20419 DFT=T Ex+Corr=CAM-B3LYP ExCW=0 ScaHFX=  1.000000
 ScaDFX=  1.000000  1.000000  1.000000  0.810000 ScalE2=  1.000000  1.000000
 IRadAn=      5 IRanWt=     -1 IRanGd=            0 ICorTp=0 IEmpDi=  4
 HFx  wShort=  0.000000 wLong=  0.330000 cFull=  0.190000 cShort=  0.000000 cLong=  0.460000
 DFx  wShort=  0.000000 wLong=  0.330000 cFull=  0.190000 cShort=  0.000000 cLong=  0.460000
 NAtoms=  158 NActive=  158 NUniq=  158 SFac= 1.00D+00 NAtFMM=   60 NAOKFM=T Big=T
 Integral buffers will be    131072 words long.
 Raffenetti 1 integral format.
 Two-electron integral symmetry is turned on.
 Leave Link  301 at Sat Sep  4 17:26:52 2021, MaxMem= 23488102400 cpu:               1.3 elap:               0.1
 (Enter /sw/apps/gaussian-16.0/g16/l302.exe)
 NPDir=0 NMtPBC=     1 NCelOv=     1 NCel=       1 NClECP=     1 NCelD=      1
         NCelK=      1 NCelE2=     1 NClLst=     1 CellRange=     0.0.
 One-electron integrals computed using PRISM.
 One-electron integral symmetry used in STVInt
   1 Symmetry operations used in ECPInt.
 ECPInt:  NShTT=  271216 NPrTT=  987664 LenC2=  103957 LenP2D=  239866.
 LDataN:  DoStor=T MaxTD1= 4 Len=   56
 NBasis=  1572 RedAO= T EigKep=  3.36D-04  NBF=  1572
 NBsUse=  1572 1.00D-06 EigRej= -1.00D+00 NBFU=  1572
 Precomputing XC quadrature grid using
 IXCGrd= 4 IRadAn=           5 IRanWt=          -1 IRanGd=           0 AccXCQ= 0.00D+00.
 Generated NRdTot=       0 NPtTot=           0 NUsed=           0 NTot=          32
 NSgBfM=   812   812   812   812   812 MxSgAt=   158 MxSgA2=    79.
 Leave Link  302 at Sat Sep  4 17:26:56 2021, MaxMem= 23488102400 cpu:             100.9 elap:               4.2
 (Enter /sw/apps/gaussian-16.0/g16/l303.exe)
 DipDrv:  MaxL=1.
 Leave Link  303 at Sat Sep  4 17:26:56 2021, MaxMem= 23488102400 cpu:               7.6 elap:               0.4
 (Enter /sw/apps/gaussian-16.0/g16/l308.exe)
 Leave Link  308 at Sat Sep  4 17:26:57 2021, MaxMem= 23488102400 cpu:              16.9 elap:               0.8
 (Enter /sw/apps/gaussian-16.0/g16/l401.exe)
 ExpMin= 3.36D-02 ExpMax= 4.95D+03 ExpMxC= 7.45D+02 IAcc=3 IRadAn=         5 AccDes= 0.00D+00
 Harris functional with IExCor=20419 and IRadAn=       5 diagonalized for initial guess.
 HarFok:  IExCor=20419 AccDes= 0.00D+00 IRadAn=         5 IDoV= 1 UseB2=F ITyADJ=14
 ICtDFT=  3500011 ScaDFX=  1.000000  1.000000  1.000000  1.000000
 FoFCou: FMM=F IPFlag=           0 FMFlag=      100000 FMFlg1=        2001
         NFxFlg=           0 DoJE=T BraDBF=F KetDBF=T FulRan=T
         wScrn=  0.000000 ICntrl=       500 IOpCl=  0 I1Cent=   200000004 NGrid=           0
         NMat0=    1 NMatS0=      1 NMatT0=    0 NMatD0=    1 NMtDS0=    0 NMtDT0=    0
 Petite list used in FoFCou.
 Harris En= -3918.65800884731    
 JPrj=0 DoOrth=F DoCkMO=F.
 Leave Link  401 at Sat Sep  4 17:27:03 2021, MaxMem= 23488102400 cpu:             152.8 elap:               6.4
 (Enter /sw/apps/gaussian-16.0/g16/l502.exe)
 Integral symmetry usage will be decided dynamically.
 Closed shell SCF:
 Using DIIS extrapolation, IDIIS=  1040.
 NGot= 23488102400 LenX= 23482547354 LenY= 23479796732
 Requested convergence on RMS density matrix=1.00D-08 within 128 cycles.
 Requested convergence on MAX density matrix=1.00D-06.
 Requested convergence on             energy=1.00D-06.
 No special actions if energy rises.
 Fock matrices will be formed incrementally for  20 cycles.

 Cycle   1  Pass 1  IDiag  1:
 FoFJK:  IHMeth= 1 ICntrl=       0 DoSepK=T KAlg= 0 I1Cent=           0 FoldK=F
 IRaf=         1 NMat=       1 IRICut=       1 DoRegI=T DoRafI=F ISym2E= 0 IDoP0=0 IntGTp=1.
 FoFCou: FMM=T IPFlag=           0 FMFlag=      100000 FMFlg1=        2001
         NFxFlg=           0 DoJE=T BraDBF=F KetDBF=F FulRan=T
         wScrn=  0.000000 ICntrl=       500 IOpCl=  0 I1Cent=           0 NGrid=           0
         NMat0=    1 NMatS0=      1 NMatT0=    0 NMatD0=    1 NMtDS0=    0 NMtDT0=    0
 Symmetry not used in FoFCou.
 FMM levels:  10  Number of levels for PrismC:   9
 E= -4068.94935796565    
 DIIS: error= 2.04D-02 at cycle   1 NSaved=   1.
 NSaved= 1 IEnMin= 1 EnMin= -4068.94935796565     IErMin= 1 ErrMin= 2.04D-02
 ErrMax= 2.04D-02  0.00D+00 EMaxC= 1.00D-01 BMatC= 1.69D+00 BMatP= 1.69D+00
 IDIUse=3 WtCom= 7.96D-01 WtEn= 2.04D-01
 Coeff-Com:  0.100D+01
 Coeff-En:   0.100D+01
 Coeff:      0.100D+01
 Gap=     0.120 Goal=   None    Shift=    0.000
 GapD=    0.120 DampG=1.000 DampE=0.500 DampFc=0.5000 IDamp=-1.
 Damping current iteration by 5.00D-01
 RMSDP=1.57D-03 MaxDP=1.35D-01              OVMax= 2.02D-01

 Cycle   2  Pass 1  IDiag  1:
 RMSU=  7.69D-04    CP:  9.82D-01
 E= -4069.33828628331     Delta-E=       -0.388928317665 Rises=F Damp=T
 DIIS: error= 1.27D-02 at cycle   2 NSaved=   2.
 NSaved= 2 IEnMin= 2 EnMin= -4069.33828628331     IErMin= 2 ErrMin= 1.27D-02
 ErrMax= 1.27D-02  0.00D+00 EMaxC= 1.00D-01 BMatC= 3.07D-01 BMatP= 1.69D+00
 IDIUse=3 WtCom= 8.73D-01 WtEn= 1.27D-01
 Coeff-Com: -0.213D+00 0.121D+01
 Coeff-En:   0.000D+00 0.100D+01
 Coeff:     -0.186D+00 0.119D+01
 Gap=     0.138 Goal=   None    Shift=    0.000
 RMSDP=7.64D-04 MaxDP=9.43D-02 DE=-3.89D-01 OVMax= 1.88D-01

 Cycle   3  Pass 1  IDiag  1:
 RMSU=  7.32D-04    CP:  9.68D-01  1.24D+00
 E= -4069.62820100652     Delta-E=       -0.289914723207 Rises=F Damp=F
 DIIS: error= 1.58D-02 at cycle   3 NSaved=   3.
 NSaved= 3 IEnMin= 3 EnMin= -4069.62820100652     IErMin= 2 ErrMin= 1.27D-02
 ErrMax= 1.58D-02  0.00D+00 EMaxC= 1.00D-01 BMatC= 2.02D-01 BMatP= 3.07D-01
 IDIUse=3 WtCom= 8.42D-01 WtEn= 1.58D-01
 Coeff-Com: -0.267D+00 0.652D+00 0.616D+00
 Coeff-En:   0.000D+00 0.000D+00 0.100D+01
 Coeff:     -0.225D+00 0.549D+00 0.676D+00
 Gap=     0.125 Goal=   None    Shift=    0.000
 RMSDP=5.07D-04 MaxDP=4.85D-02 DE=-2.90D-01 OVMax= 1.42D-01

 Cycle   4  Pass 1  IDiag  1:
 RMSU=  2.65D-04    CP:  9.65D-01  1.55D+00  5.06D-01
 E= -4069.76523362657     Delta-E=       -0.137032620050 Rises=F Damp=F
 DIIS: error= 7.32D-03 at cycle   4 NSaved=   4.
 NSaved= 4 IEnMin= 4 EnMin= -4069.76523362657     IErMin= 4 ErrMin= 7.32D-03
 ErrMax= 7.32D-03  0.00D+00 EMaxC= 1.00D-01 BMatC= 5.03D-02 BMatP= 2.02D-01
 IDIUse=3 WtCom= 9.27D-01 WtEn= 7.32D-02
 Coeff-Com: -0.109D+00 0.226D+00 0.409D+00 0.474D+00
 Coeff-En:   0.000D+00 0.000D+00 0.220D+00 0.780D+00
 Coeff:     -0.101D+00 0.209D+00 0.395D+00 0.497D+00
 Gap=     0.123 Goal=   None    Shift=    0.000
 RMSDP=1.99D-04 MaxDP=1.98D-02 DE=-1.37D-01 OVMax= 6.12D-02

 Cycle   5  Pass 1  IDiag  1:
 RMSU=  7.56D-05    CP:  9.64D-01  1.49D+00  6.89D-01  5.50D-01
 E= -4069.81056504437     Delta-E=       -0.045331417798 Rises=F Damp=F
 DIIS: error= 7.90D-04 at cycle   5 NSaved=   5.
 NSaved= 5 IEnMin= 5 EnMin= -4069.81056504437     IErMin= 5 ErrMin= 7.90D-04
 ErrMax= 7.90D-04  0.00D+00 EMaxC= 1.00D-01 BMatC= 1.16D-03 BMatP= 5.03D-02
 IDIUse=3 WtCom= 9.92D-01 WtEn= 7.90D-03
 Coeff-Com: -0.356D-01 0.699D-01 0.165D+00 0.249D+00 0.552D+00
 Coeff-En:   0.000D+00 0.000D+00 0.000D+00 0.000D+00 0.100D+01
 Coeff:     -0.353D-01 0.693D-01 0.163D+00 0.247D+00 0.556D+00
 Gap=     0.123 Goal=   None    Shift=    0.000
 RMSDP=4.04D-05 MaxDP=4.17D-03 DE=-4.53D-02 OVMax= 1.62D-02

 Cycle   6  Pass 1  IDiag  1:
 RMSU=  3.01D-05    CP:  9.64D-01  1.49D+00  6.81D-01  6.22D-01  7.61D-01
 E= -4069.81156037396     Delta-E=       -0.000995329596 Rises=F Damp=F
 DIIS: error= 2.21D-04 at cycle   6 NSaved=   6.
 NSaved= 6 IEnMin= 6 EnMin= -4069.81156037396     IErMin= 6 ErrMin= 2.21D-04
 ErrMax= 2.21D-04  0.00D+00 EMaxC= 1.00D-01 BMatC= 1.74D-04 BMatP= 1.16D-03
 IDIUse=3 WtCom= 9.98D-01 WtEn= 2.21D-03
 Coeff-Com:  0.234D-02-0.683D-02 0.107D-01 0.396D-01 0.306D+00 0.648D+00
 Coeff-En:   0.000D+00 0.000D+00 0.000D+00 0.000D+00 0.101D+00 0.899D+00
 Coeff:      0.233D-02-0.681D-02 0.107D-01 0.395D-01 0.306D+00 0.649D+00
 Gap=     0.123 Goal=   None    Shift=    0.000
 RMSDP=1.57D-05 MaxDP=1.24D-03 DE=-9.95D-04 OVMax= 7.17D-03

 Cycle   7  Pass 1  IDiag  1:
 RMSU=  1.06D-05    CP:  9.64D-01  1.50D+00  6.87D-01  6.21D-01  8.61D-01
                    CP:  7.51D-01
 E= -4069.81174658206     Delta-E=       -0.000186208099 Rises=F Damp=F
 DIIS: error= 8.28D-05 at cycle   7 NSaved=   7.
 NSaved= 7 IEnMin= 7 EnMin= -4069.81174658206     IErMin= 7 ErrMin= 8.28D-05
 ErrMax= 8.28D-05  0.00D+00 EMaxC= 1.00D-01 BMatC= 2.03D-05 BMatP= 1.74D-04
 IDIUse=1 WtCom= 1.00D+00 WtEn= 0.00D+00
 Coeff-Com:  0.444D-02-0.971D-02-0.900D-02-0.391D-02 0.101D+00 0.328D+00
 Coeff-Com:  0.589D+00
 Coeff:      0.444D-02-0.971D-02-0.900D-02-0.391D-02 0.101D+00 0.328D+00
 Coeff:      0.589D+00
 Gap=     0.123 Goal=   None    Shift=    0.000
 RMSDP=6.47D-06 MaxDP=1.12D-03 DE=-1.86D-04 OVMax= 3.39D-03

 Cycle   8  Pass 1  IDiag  1:
 RMSU=  4.65D-06    CP:  9.64D-01  1.50D+00  6.88D-01  6.26D-01  8.66D-01
                    CP:  8.77D-01  8.25D-01
 E= -4069.81177181447     Delta-E=       -0.000025232404 Rises=F Damp=F
 DIIS: error= 4.98D-05 at cycle   8 NSaved=   8.
 NSaved= 8 IEnMin= 8 EnMin= -4069.81177181447     IErMin= 8 ErrMin= 4.98D-05
 ErrMax= 4.98D-05  0.00D+00 EMaxC= 1.00D-01 BMatC= 4.78D-06 BMatP= 2.03D-05
 IDIUse=1 WtCom= 1.00D+00 WtEn= 0.00D+00
 Coeff-Com:  0.214D-02-0.424D-02-0.773D-02-0.121D-01-0.120D-01 0.334D-01
 Coeff-Com:  0.346D+00 0.655D+00
 Coeff:      0.214D-02-0.424D-02-0.773D-02-0.121D-01-0.120D-01 0.334D-01
 Coeff:      0.346D+00 0.655D+00
 Gap=     0.123 Goal=   None    Shift=    0.000
 RMSDP=3.25D-06 MaxDP=3.51D-04 DE=-2.52D-05 OVMax= 1.12D-03

 Cycle   9  Pass 1  IDiag  1:
 RMSU=  1.90D-06    CP:  9.64D-01  1.50D+00  6.88D-01  6.27D-01  8.82D-01
                    CP:  9.03D-01  1.02D+00  9.37D-01
 E= -4069.81177944661     Delta-E=       -0.000007632147 Rises=F Damp=F
 DIIS: error= 1.93D-05 at cycle   9 NSaved=   9.
 NSaved= 9 IEnMin= 9 EnMin= -4069.81177944661     IErMin= 9 ErrMin= 1.93D-05
 ErrMax= 1.93D-05  0.00D+00 EMaxC= 1.00D-01 BMatC= 6.80D-07 BMatP= 4.78D-06
 IDIUse=1 WtCom= 1.00D+00 WtEn= 0.00D+00
 Coeff-Com:  0.461D-03-0.764D-03-0.265D-02-0.597D-02-0.213D-01-0.383D-01
 Coeff-Com:  0.105D+00 0.325D+00 0.638D+00
 Coeff:      0.461D-03-0.764D-03-0.265D-02-0.597D-02-0.213D-01-0.383D-01
 Coeff:      0.105D+00 0.325D+00 0.638D+00
 Gap=     0.123 Goal=   None    Shift=    0.000
 RMSDP=1.41D-06 MaxDP=1.51D-04 DE=-7.63D-06 OVMax= 7.46D-04

 Cycle  10  Pass 1  IDiag  1:
 RMSU=  9.34D-07    CP:  9.64D-01  1.50D+00  6.88D-01  6.28D-01  8.85D-01
                    CP:  9.16D-01  1.07D+00  1.10D+00  1.05D+00
 E= -4069.81178101551     Delta-E=       -0.000001568897 Rises=F Damp=F
 DIIS: error= 1.03D-05 at cycle  10 NSaved=  10.
 NSaved=10 IEnMin=10 EnMin= -4069.81178101551     IErMin=10 ErrMin= 1.03D-05
 ErrMax= 1.03D-05  0.00D+00 EMaxC= 1.00D-01 BMatC= 1.70D-07 BMatP= 6.80D-07
 IDIUse=1 WtCom= 1.00D+00 WtEn= 0.00D+00
 Coeff-Com: -0.426D-03 0.893D-03 0.123D-02 0.113D-02-0.377D-02-0.309D-01
 Coeff-Com: -0.469D-01-0.763D-01 0.256D+00 0.899D+00
 Coeff:     -0.426D-03 0.893D-03 0.123D-02 0.113D-02-0.377D-02-0.309D-01
 Coeff:     -0.469D-01-0.763D-01 0.256D+00 0.899D+00
 Gap=     0.123 Goal=   None    Shift=    0.000
 RMSDP=1.22D-06 MaxDP=1.25D-04 DE=-1.57D-06 OVMax= 6.03D-04

 Cycle  11  Pass 1  IDiag  1:
 RMSU=  5.12D-07    CP:  9.64D-01  1.50D+00  6.88D-01  6.28D-01  8.88D-01
                    CP:  9.27D-01  1.12D+00  1.21D+00  1.39D+00  1.37D+00
 E= -4069.81178179513     Delta-E=       -0.000000779622 Rises=F Damp=F
 DIIS: error= 3.91D-06 at cycle  11 NSaved=  11.
 NSaved=11 IEnMin=11 EnMin= -4069.81178179513     IErMin=11 ErrMin= 3.91D-06
 ErrMax= 3.91D-06  0.00D+00 EMaxC= 1.00D-01 BMatC= 6.00D-08 BMatP= 1.70D-07
 IDIUse=1 WtCom= 1.00D+00 WtEn= 0.00D+00
 Coeff-Com: -0.325D-03 0.632D-03 0.132D-02 0.211D-02 0.441D-02-0.830D-02
 Coeff-Com: -0.438D-01-0.132D+00-0.221D-01 0.463D+00 0.736D+00
 Coeff:     -0.325D-03 0.632D-03 0.132D-02 0.211D-02 0.441D-02-0.830D-02
 Coeff:     -0.438D-01-0.132D+00-0.221D-01 0.463D+00 0.736D+00
 Gap=     0.123 Goal=   None    Shift=    0.000
 RMSDP=6.82D-07 MaxDP=5.71D-05 DE=-7.80D-07 OVMax= 3.67D-04

 Cycle  12  Pass 1  IDiag  1:
 RMSU=  2.61D-07    CP:  9.64D-01  1.50D+00  6.88D-01  6.28D-01  8.89D-01
                    CP:  9.29D-01  1.14D+00  1.28D+00  1.56D+00  1.76D+00
                    CP:  1.20D+00
 E= -4069.81178205435     Delta-E=       -0.000000259215 Rises=F Damp=F
 DIIS: error= 2.34D-06 at cycle  12 NSaved=  12.
 NSaved=12 IEnMin=12 EnMin= -4069.81178205435     IErMin=12 ErrMin= 2.34D-06
 ErrMax= 2.34D-06  0.00D+00 EMaxC= 1.00D-01 BMatC= 1.45D-08 BMatP= 6.00D-08
 IDIUse=1 WtCom= 1.00D+00 WtEn= 0.00D+00
 Coeff-Com:  0.195D-05-0.203D-04 0.171D-03 0.498D-03 0.327D-02 0.410D-02
 Coeff-Com:  0.301D-02-0.343D-01-0.675D-01-0.787D-01 0.248D+00 0.922D+00
 Coeff:      0.195D-05-0.203D-04 0.171D-03 0.498D-03 0.327D-02 0.410D-02
 Coeff:      0.301D-02-0.343D-01-0.675D-01-0.787D-01 0.248D+00 0.922D+00
 Gap=     0.123 Goal=   None    Shift=    0.000
 RMSDP=4.36D-07 MaxDP=3.09D-05 DE=-2.59D-07 OVMax= 2.47D-04

 Cycle  13  Pass 1  IDiag  1:
 RMSU=  1.64D-07    CP:  9.64D-01  1.50D+00  6.88D-01  6.28D-01  8.89D-01
                    CP:  9.29D-01  1.15D+00  1.31D+00  1.67D+00  1.99D+00
                    CP:  1.62D+00  1.28D+00
 E= -4069.81178214521     Delta-E=       -0.000000090859 Rises=F Damp=F
 DIIS: error= 1.25D-06 at cycle  13 NSaved=  13.
 NSaved=13 IEnMin=13 EnMin= -4069.81178214521     IErMin=13 ErrMin= 1.25D-06
 ErrMax= 1.25D-06  0.00D+00 EMaxC= 1.00D-01 BMatC= 8.00D-09 BMatP= 1.45D-08
 IDIUse=1 WtCom= 1.00D+00 WtEn= 0.00D+00
 Coeff-Com:  0.120D-03-0.245D-03-0.370D-03-0.458D-03 0.554D-03 0.508D-02
 Coeff-Com:  0.198D-01 0.227D-01-0.341D-01-0.241D+00-0.156D+00 0.601D+00
 Coeff-Com:  0.784D+00
 Coeff:      0.120D-03-0.245D-03-0.370D-03-0.458D-03 0.554D-03 0.508D-02
 Coeff:      0.198D-01 0.227D-01-0.341D-01-0.241D+00-0.156D+00 0.601D+00
 Coeff:      0.784D+00
 Gap=     0.123 Goal=   None    Shift=    0.000
 RMSDP=3.36D-07 MaxDP=2.25D-05 DE=-9.09D-08 OVMax= 1.93D-04

 Cycle  14  Pass 1  IDiag  1:
 RMSU=  7.56D-08    CP:  9.64D-01  1.50D+00  6.88D-01  6.28D-01  8.89D-01
                    CP:  9.30D-01  1.15D+00  1.33D+00  1.74D+00  2.18D+00
                    CP:  1.88D+00  1.79D+00  1.09D+00
 E= -4069.81178218069     Delta-E=       -0.000000035488 Rises=F Damp=F
 DIIS: error= 6.12D-07 at cycle  14 NSaved=  14.
 NSaved=14 IEnMin=14 EnMin= -4069.81178218069     IErMin=14 ErrMin= 6.12D-07
 ErrMax= 6.12D-07  0.00D+00 EMaxC= 1.00D-01 BMatC= 1.23D-09 BMatP= 8.00D-09
 IDIUse=1 WtCom= 1.00D+00 WtEn= 0.00D+00
 Coeff-Com:  0.659D-04-0.130D-03-0.245D-03-0.385D-03-0.487D-03 0.129D-02
 Coeff-Com:  0.108D-01 0.190D-01 0.359D-02-0.990D-01-0.142D+00 0.948D-01
 Coeff-Com:  0.403D+00 0.709D+00
 Coeff:      0.659D-04-0.130D-03-0.245D-03-0.385D-03-0.487D-03 0.129D-02
 Coeff:      0.108D-01 0.190D-01 0.359D-02-0.990D-01-0.142D+00 0.948D-01
 Coeff:      0.403D+00 0.709D+00
 Gap=     0.123 Goal=   None    Shift=    0.000
 RMSDP=1.00D-07 MaxDP=6.56D-06 DE=-3.55D-08 OVMax= 5.48D-05

 Cycle  15  Pass 1  IDiag  1:
 RMSU=  3.81D-08    CP:  9.64D-01  1.50D+00  6.88D-01  6.28D-01  8.89D-01
                    CP:  9.30D-01  1.15D+00  1.33D+00  1.76D+00  2.22D+00
                    CP:  1.98D+00  1.93D+00  1.32D+00  1.03D+00
 E= -4069.81178218459     Delta-E=       -0.000000003893 Rises=F Damp=F
 DIIS: error= 3.54D-07 at cycle  15 NSaved=  15.
 NSaved=15 IEnMin=15 EnMin= -4069.81178218459     IErMin=15 ErrMin= 3.54D-07
 ErrMax= 3.54D-07  0.00D+00 EMaxC= 1.00D-01 BMatC= 2.26D-10 BMatP= 1.23D-09
 IDIUse=1 WtCom= 1.00D+00 WtEn= 0.00D+00
 Coeff-Com:  0.510D-05-0.841D-05-0.317D-04-0.804D-04-0.300D-03-0.515D-03
 Coeff-Com:  0.112D-02 0.248D-02 0.876D-02 0.198D-02-0.308D-01-0.730D-01
 Coeff-Com:  0.277D-01 0.299D+00 0.763D+00
 Coeff:      0.510D-05-0.841D-05-0.317D-04-0.804D-04-0.300D-03-0.515D-03
 Coeff:      0.112D-02 0.248D-02 0.876D-02 0.198D-02-0.308D-01-0.730D-01
 Coeff:      0.277D-01 0.299D+00 0.763D+00
 Gap=     0.123 Goal=   None    Shift=    0.000
 RMSDP=4.08D-08 MaxDP=2.68D-06 DE=-3.89D-09 OVMax= 2.63D-05

 Cycle  16  Pass 1  IDiag  1:
 RMSU=  1.86D-08    CP:  9.64D-01  1.50D+00  6.88D-01  6.28D-01  8.89D-01
                    CP:  9.30D-01  1.16D+00  1.34D+00  1.76D+00  2.23D+00
                    CP:  2.01D+00  1.99D+00  1.40D+00  1.24D+00  1.14D+00
 E= -4069.81178218560     Delta-E=       -0.000000001015 Rises=F Damp=F
 DIIS: error= 1.80D-07 at cycle  16 NSaved=  16.
 NSaved=16 IEnMin=16 EnMin= -4069.81178218560     IErMin=16 ErrMin= 1.80D-07
 ErrMax= 1.80D-07  0.00D+00 EMaxC= 1.00D-01 BMatC= 8.02D-11 BMatP= 2.26D-10
 IDIUse=1 WtCom= 1.00D+00 WtEn= 0.00D+00
 Coeff-Com: -0.142D-04 0.288D-04 0.471D-04 0.540D-04-0.255D-04-0.633D-03
 Coeff-Com: -0.200D-02-0.426D-02 0.458D-02 0.256D-01 0.206D-01-0.647D-01
 Coeff-Com: -0.840D-01-0.355D-01 0.396D+00 0.744D+00
 Coeff:     -0.142D-04 0.288D-04 0.471D-04 0.540D-04-0.255D-04-0.633D-03
 Coeff:     -0.200D-02-0.426D-02 0.458D-02 0.256D-01 0.206D-01-0.647D-01
 Coeff:     -0.840D-01-0.355D-01 0.396D+00 0.744D+00
 Gap=     0.123 Goal=   None    Shift=    0.000
 RMSDP=2.28D-08 MaxDP=1.57D-06 DE=-1.01D-09 OVMax= 1.35D-05

 Cycle  17  Pass 1  IDiag  1:
 RMSU=  1.04D-08    CP:  9.64D-01  1.50D+00  6.88D-01  6.28D-01  8.89D-01
                    CP:  9.30D-01  1.16D+00  1.34D+00  1.76D+00  2.24D+00
                    CP:  2.02D+00  2.01D+00  1.45D+00  1.34D+00  1.44D+00
                    CP:  1.25D+00
 E= -4069.81178218593     Delta-E=       -0.000000000329 Rises=F Damp=F
 DIIS: error= 1.03D-07 at cycle  17 NSaved=  17.
 NSaved=17 IEnMin=17 EnMin= -4069.81178218593     IErMin=17 ErrMin= 1.03D-07
 ErrMax= 1.03D-07  0.00D+00 EMaxC= 1.00D-01 BMatC= 1.80D-11 BMatP= 8.02D-11
 IDIUse=1 WtCom= 1.00D+00 WtEn= 0.00D+00
 Coeff-Com: -0.724D-05 0.141D-04 0.287D-04 0.428D-04 0.842D-04-0.125D-03
 Coeff-Com: -0.981D-03-0.281D-02 0.175D-03 0.931D-02 0.175D-01-0.749D-02
 Coeff-Com: -0.377D-01-0.102D+00-0.323D-01 0.301D+00 0.855D+00
 Coeff:     -0.724D-05 0.141D-04 0.287D-04 0.428D-04 0.842D-04-0.125D-03
 Coeff:     -0.981D-03-0.281D-02 0.175D-03 0.931D-02 0.175D-01-0.749D-02
 Coeff:     -0.377D-01-0.102D+00-0.323D-01 0.301D+00 0.855D+00
 Gap=     0.123 Goal=   None    Shift=    0.000
 RMSDP=1.38D-08 MaxDP=1.06D-06 DE=-3.29D-10 OVMax= 8.58D-06

 Cycle  18  Pass 1  IDiag  1:
 RMSU=  4.86D-09    CP:  9.64D-01  1.50D+00  6.88D-01  6.28D-01  8.89D-01
                    CP:  9.30D-01  1.16D+00  1.34D+00  1.76D+00  2.24D+00
                    CP:  2.03D+00  2.02D+00  1.47D+00  1.41D+00  1.62D+00
                    CP:  1.66D+00  1.39D+00
 E= -4069.81178218566     Delta-E=        0.000000000269 Rises=F Damp=F
 DIIS: error= 5.13D-08 at cycle  18 NSaved=  18.
 NSaved=18 IEnMin=17 EnMin= -4069.81178218593     IErMin=18 ErrMin= 5.13D-08
 ErrMax= 5.13D-08  0.00D+00 EMaxC= 1.00D-01 BMatC= 6.77D-12 BMatP= 1.80D-11
 IDIUse=1 WtCom= 1.00D+00 WtEn= 0.00D+00
 Coeff-Com:  0.201D-05-0.432D-05-0.442D-05-0.153D-05 0.592D-04 0.182D-03
 Coeff-Com:  0.400D-03 0.204D-03-0.128D-02-0.611D-02 0.103D-04 0.203D-01
 Coeff-Com:  0.182D-01-0.332D-01-0.162D+00-0.184D+00 0.348D+00 0.100D+01
 Coeff:      0.201D-05-0.432D-05-0.442D-05-0.153D-05 0.592D-04 0.182D-03
 Coeff:      0.400D-03 0.204D-03-0.128D-02-0.611D-02 0.103D-04 0.203D-01
 Coeff:      0.182D-01-0.332D-01-0.162D+00-0.184D+00 0.348D+00 0.100D+01
 Gap=     0.123 Goal=   None    Shift=    0.000
 RMSDP=1.16D-08 MaxDP=8.01D-07 DE= 2.69D-10 OVMax= 7.08D-06

 Cycle  19  Pass 1  IDiag  1:
 RMSU=  2.82D-09    CP:  9.64D-01  1.50D+00  6.88D-01  6.28D-01  8.89D-01
                    CP:  9.30D-01  1.16D+00  1.34D+00  1.76D+00  2.24D+00
                    CP:  2.03D+00  2.03D+00  1.48D+00  1.46D+00  1.77D+00
                    CP:  1.99D+00  1.93D+00  1.37D+00
 E= -4069.81178218567     Delta-E=       -0.000000000011 Rises=F Damp=F
 DIIS: error= 4.27D-08 at cycle  19 NSaved=  19.
 NSaved=19 IEnMin=17 EnMin= -4069.81178218593     IErMin=19 ErrMin= 4.27D-08
 ErrMax= 4.27D-08  0.00D+00 EMaxC= 1.00D-01 BMatC= 1.56D-12 BMatP= 6.77D-12
 IDIUse=1 WtCom= 1.00D+00 WtEn= 0.00D+00
 Coeff-Com:  0.295D-05-0.595D-05-0.101D-04-0.125D-04 0.115D-04 0.124D-03
 Coeff-Com:  0.489D-03 0.810D-03-0.637D-03-0.611D-02-0.487D-02 0.126D-01
 Coeff-Com:  0.206D-01 0.106D-01-0.731D-01-0.182D+00-0.340D-01 0.512D+00
 Coeff-Com:  0.743D+00
 Coeff:      0.295D-05-0.595D-05-0.101D-04-0.125D-04 0.115D-04 0.124D-03
 Coeff:      0.489D-03 0.810D-03-0.637D-03-0.611D-02-0.487D-02 0.126D-01
 Coeff:      0.206D-01 0.106D-01-0.731D-01-0.182D+00-0.340D-01 0.512D+00
 Coeff:      0.743D+00
 Gap=     0.123 Goal=   None    Shift=    0.000
 RMSDP=4.77D-09 MaxDP=3.28D-07 DE=-1.09D-11 OVMax= 2.77D-06

 SCF Done:  E(RCAM-B3LYP) =  -4069.81178219     A.U. after   19 cycles
            NFock= 19  Conv=0.48D-08     -V/T= 2.0102
 KE= 4.028802055738D+03 PE=-3.409105952412D+04 EE= 1.368732975371D+04
 Leave Link  502 at Sat Sep  4 17:35:15 2021, MaxMem= 23488102400 cpu:           11206.6 elap:             492.0
 (Enter /sw/apps/gaussian-16.0/g16/l801.exe)
 DoSCS=F DFT=T ScalE2(SS,OS)=  1.000000  1.000000
 ExpMin= 3.36D-02 ExpMax= 4.95D+03 ExpMxC= 7.45D+02 IAcc=3 IRadAn=         5 AccDes= 0.00D+00
 HarFok:  IExCor=  205 AccDes= 0.00D+00 IRadAn=         5 IDoV=-2 UseB2=F ITyADJ=14
 ICtDFT= 12500011 ScaDFX=  1.000000  1.000000  1.000000  1.000000
 GSVD:  LWork=       -9588 too small for GESVD, short by       45590 words or       45590 for optimal perf.
 Largest valence mixing into a core orbital is  2.03D-04
 Largest core mixing into a valence orbital is  5.24D-05
 Range of M.O.s used for correlation:    95  1572
 NBasis=  1572 NAE=   312 NBE=   312 NFC=    94 NFV=     0
 NROrb=   1478 NOA=   218 NOB=   218 NVA=  1260 NVB=  1260
 Leave Link  801 at Sat Sep  4 17:35:16 2021, MaxMem= 23488102400 cpu:               8.0 elap:               0.4
 (Enter /sw/apps/gaussian-16.0/g16/l914.exe)
 RHF ground state
 Two-electron integrals replicated using symmetry.
 MDV= 23488102400 DFT=T DoStab=F Mixed=T DoRPA=T DoScal=F NonHer=T
 Making orbital integer symmetry assigments:
 Orbital symmetries:
       Occupied  (A) (A) (A) (A) (A) (A) (A) (A) (A) (A) (A) (A)
                 (A) (A) (A) (A) (A) (A) (A) (A) (A) (A) (A) (A)
                 (A) (A) (A) (A) (A) (A) (A) (A) (A) (A) (A) (A)
                 (A) (A) (A) (A) (A) (A) (A) (A) (A) (A) (A) (A)
                 (A) (A) (A) (A) (A) (A) (A) (A) (A) (A) (A) (A)
                 (A) (A) (A) (A) (A) (A) (A) (A) (A) (A) (A) (A)
                 (A) (A) (A) (A) (A) (A) (A) (A) (A) (A) (A) (A)
                 (A) (A) (A) (A) (A) (A) (A) (A) (A) (A) (A) (A)
                 (A) (A) (A) (A) (A) (A) (A) (A) (A) (A) (A) (A)
                 (A) (A) (A) (A) (A) (A) (A) (A) (A) (A) (A) (A)
                 (A) (A) (A) (A) (A) (A) (A) (A) (A) (A) (A) (A)
                 (A) (A) (A) (A) (A) (A) (A) (A) (A) (A) (A) (A)
                 (A) (A) (A) (A) (A) (A) (A) (A) (A) (A) (A) (A)
                 (A) (A) (A) (A) (A) (A) (A) (A) (A) (A) (A) (A)
                 (A) (A) (A) (A) (A) (A) (A) (A) (A) (A) (A) (A)
                 (A) (A) (A) (A) (A) (A) (A) (A) (A) (A) (A) (A)
                 (A) (A) (A) (A) (A) (A) (A) (A) (A) (A) (A) (A)
                 (A) (A) (A) (A) (A) (A) (A) (A) (A) (A) (A) (A)
                 (A) (A) (A) (A) (A) (A) (A) (A) (A) (A) (A) (A)
                 (A) (A) (A) (A) (A) (A) (A) (A) (A) (A) (A) (A)
                 (A) (A) (A) (A) (A) (A) (A) (A) (A) (A) (A) (A)
                 (A) (A) (A) (A) (A) (A) (A) (A) (A) (A) (A) (A)
                 (A) (A) (A) (A) (A) (A) (A) (A) (A) (A) (A) (A)
                 (A) (A) (A) (A) (A) (A) (A) (A) (A) (A) (A) (A)
                 (A) (A) (A) (A) (A) (A) (A) (A) (A) (A) (A) (A)
                 (A) (A) (A) (A) (A) (A) (A) (A) (A) (A) (A) (A)
       Virtual   (A) (A) (A) (A) (A) (A) (A) (A) (A) (A) (A) (A)
                 (A) (A) (A) (A) (A) (A) (A) (A) (A) (A) (A) (A)
                 (A) (A) (A) (A) (A) (A) (A) (A) (A) (A) (A) (A)
                 (A) (A) (A) (A) (A) (A) (A) (A) (A) (A) (A) (A)
                 (A) (A) (A) (A) (A) (A) (A) (A) (A) (A) (A) (A)
                 (A) (A) (A) (A) (A) (A) (A) (A) (A) (A) (A) (A)
                 (A) (A) (A) (A) (A) (A) (A) (A) (A) (A) (A) (A)
                 (A) (A) (A) (A) (A) (A) (A) (A) (A) (A) (A) (A)
                 (A) (A) (A) (A) (A) (A) (A) (A) (A) (A) (A) (A)
                 (A) (A) (A) (A) (A) (A) (A) (A) (A) (A) (A) (A)
                 (A) (A) (A) (A) (A) (A) (A) (A) (A) (A) (A) (A)
                 (A) (A) (A) (A) (A) (A) (A) (A) (A) (A) (A) (A)
                 (A) (A) (A) (A) (A) (A) (A) (A) (A) (A) (A) (A)
                 (A) (A) (A) (A) (A) (A) (A) (A) (A) (A) (A) (A)
                 (A) (A) (A) (A) (A) (A) (A) (A) (A) (A) (A) (A)
                 (A) (A) (A) (A) (A) (A) (A) (A) (A) (A) (A) (A)
                 (A) (A) (A) (A) (A) (A) (A) (A) (A) (A) (A) (A)
                 (A) (A) (A) (A) (A) (A) (A) (A) (A) (A) (A) (A)
                 (A) (A) (A) (A) (A) (A) (A) (A) (A) (A) (A) (A)
                 (A) (A) (A) (A) (A) (A) (A) (A) (A) (A) (A) (A)
                 (A) (A) (A) (A) (A) (A) (A) (A) (A) (A) (A) (A)
                 (A) (A) (A) (A) (A) (A) (A) (A) (A) (A) (A) (A)
                 (A) (A) (A) (A) (A) (A) (A) (A) (A) (A) (A) (A)
                 (A) (A) (A) (A) (A) (A) (A) (A) (A) (A) (A) (A)
                 (A) (A) (A) (A) (A) (A) (A) (A) (A) (A) (A) (A)
                 (A) (A) (A) (A) (A) (A) (A) (A) (A) (A) (A) (A)
                 (A) (A) (A) (A) (A) (A) (A) (A) (A) (A) (A) (A)
                 (A) (A) (A) (A) (A) (A) (A) (A) (A) (A) (A) (A)
                 (A) (A) (A) (A) (A) (A) (A) (A) (A) (A) (A) (A)
                 (A) (A) (A) (A) (A) (A) (A) (A) (A) (A) (A) (A)
                 (A) (A) (A) (A) (A) (A) (A) (A) (A) (A) (A) (A)
                 (A) (A) (A) (A) (A) (A) (A) (A) (A) (A) (A) (A)
                 (A) (A) (A) (A) (A) (A) (A) (A) (A) (A) (A) (A)
                 (A) (A) (A) (A) (A) (A) (A) (A) (A) (A) (A) (A)
                 (A) (A) (A) (A) (A) (A) (A) (A) (A) (A) (A) (A)
                 (A) (A) (A) (A) (A) (A) (A) (A) (A) (A) (A) (A)
                 (A) (A) (A) (A) (A) (A) (A) (A) (A) (A) (A) (A)
                 (A) (A) (A) (A) (A) (A) (A) (A) (A) (A) (A) (A)
                 (A) (A) (A) (A) (A) (A) (A) (A) (A) (A) (A) (A)
                 (A) (A) (A) (A) (A) (A) (A) (A) (A) (A) (A) (A)
                 (A) (A) (A) (A) (A) (A) (A) (A) (A) (A) (A) (A)
                 (A) (A) (A) (A) (A) (A) (A) (A) (A) (A) (A) (A)
                 (A) (A) (A) (A) (A) (A) (A) (A) (A) (A) (A) (A)
                 (A) (A) (A) (A) (A) (A) (A) (A) (A) (A) (A) (A)
                 (A) (A) (A) (A) (A) (A) (A) (A) (A) (A) (A) (A)
                 (A) (A) (A) (A) (A) (A) (A) (A) (A) (A) (A) (A)
                 (A) (A) (A) (A) (A) (A) (A) (A) (A) (A) (A) (A)
                 (A) (A) (A) (A) (A) (A) (A) (A) (A) (A) (A) (A)
                 (A) (A) (A) (A) (A) (A) (A) (A) (A) (A) (A) (A)
                 (A) (A) (A) (A) (A) (A) (A) (A) (A) (A) (A) (A)
                 (A) (A) (A) (A) (A) (A) (A) (A) (A) (A) (A) (A)
                 (A) (A) (A) (A) (A) (A) (A) (A) (A) (A) (A) (A)
                 (A) (A) (A) (A) (A) (A) (A) (A) (A) (A) (A) (A)
                 (A) (A) (A) (A) (A) (A) (A) (A) (A) (A) (A) (A)
                 (A) (A) (A) (A) (A) (A) (A) (A) (A) (A) (A) (A)
                 (A) (A) (A) (A) (A) (A) (A) (A) (A) (A) (A) (A)
                 (A) (A) (A) (A) (A) (A) (A) (A) (A) (A) (A) (A)
                 (A) (A) (A) (A) (A) (A) (A) (A) (A) (A) (A) (A)
                 (A) (A) (A) (A) (A) (A) (A) (A) (A) (A) (A) (A)
                 (A) (A) (A) (A) (A) (A) (A) (A) (A) (A) (A) (A)
                 (A) (A) (A) (A) (A) (A) (A) (A) (A) (A) (A) (A)
                 (A) (A) (A) (A) (A) (A) (A) (A) (A) (A) (A) (A)
                 (A) (A) (A) (A) (A) (A) (A) (A) (A) (A) (A) (A)
                 (A) (A) (A) (A) (A) (A) (A) (A) (A) (A) (A) (A)
                 (A) (A) (A) (A) (A) (A) (A) (A) (A) (A) (A) (A)
                 (A) (A) (A) (A) (A) (A) (A) (A) (A) (A) (A) (A)
                 (A) (A) (A) (A) (A) (A) (A) (A) (A) (A) (A) (A)
                 (A) (A) (A) (A) (A) (A) (A) (A) (A) (A) (A) (A)
                 (A) (A) (A) (A) (A) (A) (A) (A) (A) (A) (A) (A)
                 (A) (A) (A) (A) (A) (A) (A) (A) (A) (A) (A) (A)
                 (A) (A) (A) (A) (A) (A) (A) (A) (A) (A) (A) (A)
                 (A) (A) (A) (A) (A) (A) (A) (A) (A) (A) (A) (A)
                 (A) (A) (A) (A) (A) (A) (A) (A) (A) (A) (A) (A)
                 (A) (A) (A) (A) (A) (A) (A) (A) (A) (A) (A) (A)
                 (A) (A) (A) (A) (A) (A) (A) (A) (A) (A) (A) (A)
                 (A) (A) (A) (A) (A) (A) (A) (A) (A) (A) (A) (A)
                 (A) (A) (A) (A) (A) (A) (A) (A) (A) (A) (A) (A)
                 (A) (A) (A) (A) (A) (A) (A) (A) (A) (A) (A) (A)
                 (A) (A) (A) (A) (A) (A) (A) (A) (A) (A) (A) (A)
                 (A) (A) (A) (A) (A) (A) (A) (A) (A) (A) (A) (A)
                 (A) (A) (A) (A) (A) (A) (A) (A) (A) (A) (A) (A)
                 (A) (A) (A) (A) (A) (A) (A) (A) (A) (A) (A) (A)
                 (A) (A) (A) (A) (A) (A) (A) (A) (A) (A) (A) (A)
                 (A) (A) (A) (A) (A) (A) (A) (A) (A) (A) (A) (A)
                 (A) (A) (A) (A) (A) (A) (A) (A) (A) (A) (A) (A)
                 (A) (A) (A) (A) (A) (A) (A) (A) (A) (A) (A) (A)
                 (A) (A) (A) (A) (A) (A) (A) (A) (A) (A) (A) (A)
                 (A) (A) (A) (A) (A) (A) (A) (A) (A) (A) (A) (A)
                 (A) (A) (A) (A) (A) (A) (A) (A) (A) (A) (A) (A)
                 (A) (A) (A) (A) (A) (A) (A) (A) (A) (A) (A) (A)
                 (A) (A) (A) (A) (A) (A) (A) (A) (A) (A) (A) (A)
                 (A) (A) (A) (A) (A) (A) (A) (A) (A) (A) (A) (A)
                 (A) (A) (A) (A) (A) (A) (A) (A) (A) (A) (A) (A)
                 (A) (A) (A) (A) (A) (A) (A) (A) (A) (A) (A) (A)
                 (A) (A) (A) (A) (A) (A) (A) (A) (A) (A) (A) (A)
                 (A) (A) (A) (A) (A) (A) (A) (A) (A) (A) (A) (A)
                 (A) (A) (A) (A) (A) (A) (A) (A) (A) (A) (A) (A)
                 (A) (A) (A) (A) (A) (A) (A) (A) (A) (A) (A) (A)
                 (A) (A) (A) (A) (A) (A) (A) (A) (A) (A) (A) (A)
                 (A) (A) (A) (A) (A) (A) (A) (A) (A) (A) (A) (A)
                 (A) (A) (A) (A) (A) (A) (A) (A) (A) (A) (A) (A)
                 (A) (A) (A) (A) (A) (A) (A) (A) (A) (A) (A) (A)
                 (A) (A) (A) (A) (A) (A) (A) (A) (A) (A) (A) (A)
                 (A) (A) (A) (A) (A) (A) (A) (A) (A) (A) (A) (A)
                 (A) (A) (A) (A) (A) (A) (A) (A) (A) (A) (A) (A)
    20 initial guesses have been made.
 Convergence on wavefunction:    0.001000000000000
 Davidson Disk Diagonalization:  ConvIn= 1.00D-03 SkipCon=T Conv= 1.00D-03.
 Max sub-space:  2000 roots to seek:    20 dimension of matrix:       549360
 Iteration     1 Dimension    20 NMult     0 NNew     20
 CISAX will form    20 AO SS matrices at one time.
 NMat=    20 NSing=    20 JSym2X= 0.
 FoFJK:  IHMeth= 1 ICntrl=       0 DoSepK=T KAlg= 0 I1Cent=           0 FoldK=F
 IRaf=         1 NMat=      40 IRICut=       1 DoRegI=T DoRafI=F ISym2E= 0 IDoP0=3 IntGTp=3.
 FoFCou: FMM=T IPFlag=           0 FMFlag=      100000 FMFlg1=        2001
         NFxFlg=           0 DoJE=F BraDBF=F KetDBF=F FulRan=T
         wScrn=  0.000000 ICntrl=       500 IOpCl=  0 I1Cent=           0 NGrid=           0
         NMat0=   20 NMatS0=     20 NMatT0=    0 NMatD0=   20 NMtDS0=    0 NMtDT0=    0
 Symmetry not used in FoFCou.
 FMM levels:  10  Number of levels for PrismC:   9
 New state      1 was old state      8
 New state      2 was old state      5
 New state      3 was old state      1
 New state      5 was old state      2
 Excitation Energies [eV] at current iteration:
 Root      1 :     2.614441804629659
 Root      2 :     2.619345806473296
 Root      3 :     2.680348404833098
 Root      4 :     2.690323656689034
 Root      5 :     3.065872199667225
 Root      6 :     3.067357467081811
 Root      7 :     3.629172553415774
 Root      8 :     3.669448802724534
 Root      9 :     3.735447071653421
 Root     10 :     3.759018223326229
 Root     11 :     3.861244452347413
 Root     12 :     3.869208761483062
 Root     13 :     4.303297343608645
 Root     14 :     4.306904866910104
 Root     15 :     4.978123267799574
 Root     16 :     5.000108668370630
 Root     17 :     5.272359137101687
 Root     18 :     5.294533849159517
 Root     19 :     5.304242199745826
 Root     20 :     5.328339330990149
 Iteration     2 Dimension    30 NMult    20 NNew     10
 CISAX will form    10 AO SS matrices at one time.
 NMat=    10 NSing=    10 JSym2X= 0.
 New state      1 was old state      3
 Root      1 not converged, maximum delta is    0.187175275860777
 New state      2 was old state      4
 Root      2 not converged, maximum delta is    0.188537379623778
 New state      3 was old state      2
 Root      3 not converged, maximum delta is    0.075289201243189
 New state      4 was old state      1
 Root      4 not converged, maximum delta is    0.089486206872512
 Root      5 has converged.
 Excitation Energies [eV] at current iteration:
 Root      1 :     1.801340336931432   Change is   -0.879008067901666
 Root      2 :     1.807481335611025   Change is   -0.882842321078009
 Root      3 :     2.235892744112154   Change is   -0.383453062361142
 Root      4 :     2.239143851531870   Change is   -0.375297953097789
 Root      5 :     3.065865996632399   Change is   -0.000006203034826
 Iteration     3 Dimension    38 NMult    30 NNew      8
 CISAX will form     8 AO SS matrices at one time.
 NMat=     8 NSing=     8 JSym2X= 0.
 Root      1 not converged, maximum delta is    0.069383268070141
 Root      2 not converged, maximum delta is    0.070542632462743
 Root      3 not converged, maximum delta is    0.043991924689656
 Root      4 not converged, maximum delta is    0.042545823164935
 Root      5 has converged.
 Excitation Energies [eV] at current iteration:
 Root      1 :     1.694095851433994   Change is   -0.107244485497438
 Root      2 :     1.699093443483770   Change is   -0.108387892127254
 Root      3 :     2.194437684503378   Change is   -0.041455059608776
 Root      4 :     2.200271385370045   Change is   -0.038872466161825
 Root      5 :     3.065865996632399   Change is    0.000000000000000
 Iteration     4 Dimension    46 NMult    38 NNew      8
 CISAX will form     8 AO SS matrices at one time.
 NMat=     8 NSing=     8 JSym2X= 0.
 Root      1 not converged, maximum delta is    0.013033781905858
 Root      2 not converged, maximum delta is    0.013289935767902
 Root      3 not converged, maximum delta is    0.009722262689001
 Root      4 not converged, maximum delta is    0.008886683883367
 Root      5 has converged.
 Excitation Energies [eV] at current iteration:
 Root      1 :     1.677382107187892   Change is   -0.016713744246101
 Root      2 :     1.682214069606093   Change is   -0.016879373877677
 Root      3 :     2.187137734949542   Change is   -0.007299949553836
 Root      4 :     2.193498728038517   Change is   -0.006772657331528
 Root      5 :     3.065865996632239   Change is   -0.000000000000161
 Iteration     5 Dimension    54 NMult    46 NNew      8
 CISAX will form     8 AO SS matrices at one time.
 NMat=     8 NSing=     8 JSym2X= 0.
 Root      1 not converged, maximum delta is    0.002164928816374
 Root      2 not converged, maximum delta is    0.002167120470023
 Root      3 not converged, maximum delta is    0.002500924537917
 Root      4 not converged, maximum delta is    0.002385601200416
 Root      5 has converged.
 Excitation Energies [eV] at current iteration:
 Root      1 :     1.675603964557107   Change is   -0.001778142630785
 Root      2 :     1.680441118827722   Change is   -0.001772950778371
 Root      3 :     2.186291695304733   Change is   -0.000846039644809
 Root      4 :     2.192722701814419   Change is   -0.000776026224098
 Root      5 :     3.065865996632373   Change is    0.000000000000134
 Iteration     6 Dimension    62 NMult    54 NNew      8
 CISAX will form     8 AO SS matrices at one time.
 NMat=     8 NSing=     8 JSym2X= 0.
 Root      1 not converged, maximum delta is    0.001356142804749
 Root      2 not converged, maximum delta is    0.001377039669822
 Root      3 not converged, maximum delta is    0.001069203865081
 Root      4 not converged, maximum delta is    0.001013271390858
 Root      5 has converged.
 Excitation Energies [eV] at current iteration:
 Root      1 :     1.675350204591413   Change is   -0.000253759965694
 Root      2 :     1.680185996413180   Change is   -0.000255122414542
 Root      3 :     2.186163506820798   Change is   -0.000128188483935
 Root      4 :     2.192604974287052   Change is   -0.000117727527367
 Root      5 :     3.065865996632399   Change is    0.000000000000027
 Iteration     7 Dimension    70 NMult    62 NNew      8
 CISAX will form     8 AO SS matrices at one time.
 NMat=     8 NSing=     8 JSym2X= 0.
 Root      1 has converged.
 Root      2 has converged.
 Root      3 has converged.
 Root      4 has converged.
 Root      5 has converged.
 Excitation Energies [eV] at current iteration:
 Root      1 :     1.675325980975444   Change is   -0.000024223615969
 Root      2 :     1.680162173167393   Change is   -0.000023823245787
[...]
 Alpha virt. eigenvalues --    1.83474   1.83797   1.83847   1.84062   1.84159
 Alpha virt. eigenvalues --    1.84481   1.84487   1.84743   1.84849   1.85079
 Alpha virt. eigenvalues --    1.85138   1.85304   1.85312   1.85444   1.85524
 Alpha virt. eigenvalues --    1.85855   1.85905   1.86337   1.86398   1.86594
 Alpha virt. eigenvalues --    1.86607   1.86779   1.86820   1.86996   1.87074
 Alpha virt. eigenvalues --    1.87436   1.87482   1.87718   1.87725   1.87905
 Alpha virt. eigenvalues --    1.87968   1.88077   1.88133   1.88528   1.88574
 Alpha virt. eigenvalues --    1.88861   1.88893   1.89026   1.89162   1.89616
 Alpha virt. eigenvalues --    1.89665   1.89785   1.89832   1.90144   1.90157
 Alpha virt. eigenvalues --    1.90789   1.90848   1.91380   1.91386   1.91477
 Alpha virt. eigenvalues --    1.91545   1.92136   1.92191   1.92614   1.92664
 Alpha virt. eigenvalues --    1.93019   1.93103   1.93374   1.93455   1.94261
 Alpha virt. eigenvalues --    1.94318   1.94726   1.94769   1.95510   1.95544
 Alpha virt. eigenvalues --    1.95764   1.95765   1.96001   1.96032   1.96125
 Alpha virt. eigenvalues --    1.96188   1.96434   1.96631   1.96890   1.96937
 Alpha virt. eigenvalues --    1.97486   1.97494   1.97753   1.97871   1.98119
 Alpha virt. eigenvalues --    1.98207   1.98300   1.98712   1.99024   1.99173
 Alpha virt. eigenvalues --    1.99860   1.99884   2.00677   2.00696   2.01034
 Alpha virt. eigenvalues --    2.01048   2.01458   2.01518   2.01559   2.01709
 Alpha virt. eigenvalues --    2.01756   2.01776   2.02662   2.02823   2.03092
 Alpha virt. eigenvalues --    2.03271   2.03330   2.03441   2.03472   2.03521
 Alpha virt. eigenvalues --    2.03977   2.04072   2.04928   2.04996   2.05551
 Alpha virt. eigenvalues --    2.05582   2.06117   2.06238   2.06940   2.06983
 Alpha virt. eigenvalues --    2.07219   2.07297   2.08507   2.08624   2.08955
 Alpha virt. eigenvalues --    2.09019   2.09563   2.09627   2.10813   2.10984
 Alpha virt. eigenvalues --    2.11219   2.11357   2.11482   2.11576   2.11765
 Alpha virt. eigenvalues --    2.11817   2.12416   2.12502   2.12752   2.12819
 Alpha virt. eigenvalues --    2.12842   2.12871   2.13581   2.13805   2.14172
 Alpha virt. eigenvalues --    2.14202   2.15357   2.15373   2.15962   2.16030
 Alpha virt. eigenvalues --    2.16542   2.16558   2.16790   2.17121   2.17452
 Alpha virt. eigenvalues --    2.17599   2.17741   2.17882   2.17952   2.18104
 Alpha virt. eigenvalues --    2.18361   2.18621   2.18905   2.19183   2.19677
 Alpha virt. eigenvalues --    2.19768   2.20076   2.20190   2.20246   2.20388
 Alpha virt. eigenvalues --    2.21121   2.21185   2.21706   2.21712   2.21779
 Alpha virt. eigenvalues --    2.21823   2.22650   2.22716   2.23289   2.23348
 Alpha virt. eigenvalues --    2.24366   2.24430   2.24954   2.24993   2.26334
 Alpha virt. eigenvalues --    2.26387   2.26814   2.26956   2.27138   2.27150
 Alpha virt. eigenvalues --    2.28173   2.28262   2.29304   2.29384   2.29771
 Alpha virt. eigenvalues --    2.29826   2.30491   2.30568   2.30772   2.31117
 Alpha virt. eigenvalues --    2.31147   2.31216   2.32156   2.32187   2.33170
 Alpha virt. eigenvalues --    2.33181   2.33429   2.33496   2.34087   2.34173
 Alpha virt. eigenvalues --    2.35244   2.35405   2.35832   2.35856   2.36280
 Alpha virt. eigenvalues --    2.36386   2.36394   2.36659   2.37622   2.37691
 Alpha virt. eigenvalues --    2.38293   2.38329   2.38728   2.38893   2.39613
 Alpha virt. eigenvalues --    2.39646   2.40211   2.40215   2.40520   2.40773
 Alpha virt. eigenvalues --    2.41157   2.41304   2.41638   2.41720   2.42071
 Alpha virt. eigenvalues --    2.42073   2.42767   2.42976   2.43011   2.43567
 Alpha virt. eigenvalues --    2.43921   2.44204   2.44749   2.44765   2.44931
 Alpha virt. eigenvalues --    2.44938   2.45513   2.45580   2.46229   2.46336
 Alpha virt. eigenvalues --    2.46438   2.46511   2.46740   2.46833   2.47285
 Alpha virt. eigenvalues --    2.47317   2.47747   2.47827   2.49336   2.49343
 Alpha virt. eigenvalues --    2.49833   2.50100   2.50398   2.50582   2.51154
 Alpha virt. eigenvalues --    2.51206   2.51552   2.51920   2.52336   2.52473
 Alpha virt. eigenvalues --    2.52842   2.53102   2.53909   2.53951   2.54184
 Alpha virt. eigenvalues --    2.54224   2.54743   2.54820   2.55552   2.55604
 Alpha virt. eigenvalues --    2.57898   2.58015   2.58676   2.58840   2.60235
 Alpha virt. eigenvalues --    2.60239   2.60646   2.60859   2.61743   2.61757
 Alpha virt. eigenvalues --    2.62366   2.62566   2.62987   2.63059   2.63969
 Alpha virt. eigenvalues --    2.64154   2.64274   2.64359   2.65032   2.65111
 Alpha virt. eigenvalues --    2.65794   2.65820   2.66753   2.66808   2.66942
 Alpha virt. eigenvalues --    2.66989   2.67912   2.67940   2.68751   2.68890
 Alpha virt. eigenvalues --    2.68962   2.69055   2.69420   2.69524   2.70029
 Alpha virt. eigenvalues --    2.70068   2.70997   2.71011   2.71823   2.72085
 Alpha virt. eigenvalues --    2.72421   2.72663   2.72684   2.72859   2.73216
 Alpha virt. eigenvalues --    2.73305   2.73395   2.73563   2.74435   2.74541
 Alpha virt. eigenvalues --    2.74982   2.75006   2.76447   2.76621   2.76991
 Alpha virt. eigenvalues --    2.77263   2.77489   2.77533   2.78223   2.78225
 Alpha virt. eigenvalues --    2.78616   2.78761   2.79082   2.79165   2.80193
 Alpha virt. eigenvalues --    2.80377   2.80614   2.80620   2.81075   2.81145
 Alpha virt. eigenvalues --    2.81913   2.81965   2.82258   2.82371   2.83773
 Alpha virt. eigenvalues --    2.83782   2.83800   2.83827   2.84450   2.84575
 Alpha virt. eigenvalues --    2.84808   2.84912   2.85617   2.85699   2.86581
 Alpha virt. eigenvalues --    2.87026   2.87096   2.87637   2.88163   2.88188
 Alpha virt. eigenvalues --    2.88537   2.88537   2.88793   2.88964   2.90528
 Alpha virt. eigenvalues --    2.90580   2.90990   2.91217   2.93186   2.93243
 Alpha virt. eigenvalues --    2.93692   2.94230   2.94495   2.94588   2.95395
 Alpha virt. eigenvalues --    2.95399   2.95760   2.96232   2.96295   2.96470
 Alpha virt. eigenvalues --    2.96791   2.97207   2.97848   2.97955   2.98241
 Alpha virt. eigenvalues --    2.98278   2.98394   2.98493   2.98630   2.98697
 Alpha virt. eigenvalues --    2.98842   2.98914   2.99616   2.99722   2.99936
 Alpha virt. eigenvalues --    3.00063   3.00252   3.00259   3.00492   3.00913
 Alpha virt. eigenvalues --    3.01821   3.02018   3.02037   3.02066   3.02743
 Alpha virt. eigenvalues --    3.02765   3.03009   3.03239   3.03360   3.03628
 Alpha virt. eigenvalues --    3.03972   3.04199   3.04350   3.04478   3.04577
 Alpha virt. eigenvalues --    3.04643   3.05273   3.05326   3.06083   3.06144
 Alpha virt. eigenvalues --    3.06836   3.06856   3.07844   3.08177   3.09277
 Alpha virt. eigenvalues --    3.09434   3.09725   3.10352   3.10474   3.10658
 Alpha virt. eigenvalues --    3.11360   3.11399   3.11816   3.11976   3.12203
 Alpha virt. eigenvalues --    3.12223   3.13315   3.13567   3.13607   3.13671
 Alpha virt. eigenvalues --    3.14123   3.14391   3.15906   3.15950   3.17295
 Alpha virt. eigenvalues --    3.17436   3.17799   3.18111   3.18951   3.19160
 Alpha virt. eigenvalues --    3.22337   3.22514   3.23979   3.24355   3.24706
 Alpha virt. eigenvalues --    3.25108   3.26537   3.26573   3.27311   3.27653
 Alpha virt. eigenvalues --    3.29133   3.29138   3.31295   3.31558   3.33101
 Alpha virt. eigenvalues --    3.33451   3.40177   3.40663   3.42737   3.42852
 Alpha virt. eigenvalues --    3.48613   3.48692   3.50056   3.50199   3.50753
 Alpha virt. eigenvalues --    3.51509   3.56585   3.56922   3.59133   3.59257
 Alpha virt. eigenvalues --    3.62431   3.62871   3.66036   3.66222   3.67219
 Alpha virt. eigenvalues --    3.67459   3.73304   3.73936   3.76089   3.76595
          Condensed to atoms (all electrons):
 Mulliken charges:
               1
     1  Mg   0.838715
     2  C   -0.002962
     3  C   -0.094087
     4  C   -0.045888
     5  C   -0.063974
     6  N   -0.256773
     7  C   -0.052461
     8  C   -0.014020
     9  C   -0.087006
    10  C    0.046326
    11  C    0.104805
    12  C    0.053469
    13  C   -0.071831
    14  H    0.036157
    15  N   -0.433139
    16  C    0.168441
    17  C   -0.177129
    18  C   -0.003988
    19  C    0.148721
    20  C    0.110166
    21  C    0.012292
    22  O   -0.249627
    23  C    0.062474
    24  N   -0.341156
    25  C    0.041269
    26  C   -0.028198
    27  C   -0.023961
    28  C    0.074844
    29  C    0.076171
    30  C    0.035141
    31  C   -0.004500
    32  N   -0.310449
    33  C    0.080387
    34  C   -0.169754
    35  C    0.008345
    36  C    0.082960
    37  C    0.127321
    38  C    0.046103
    39  O   -0.188482
    40  C   -0.005318
    41  C    0.212868
    42  O   -0.257113
    43  O   -0.304794
    44  C    0.157698
    45  H   -0.017565
    46  H   -0.016836
    47  H   -0.041540
    48  H    0.000939
    49  H   -0.003994
    50  H    0.025468
    51  H    0.016445
    52  H    0.016688
    53  H    0.011225
    54  H    0.044110
    55  H    0.017870
    56  H    0.017988
    57  H    0.005902
    58  H    0.026853
    59  H    0.039614
    60  H    0.037364
    61  H    0.035682
    62  H    0.031537
    63  H    0.016548
    64  H    0.009442
    65  H    0.023207
    66  H    0.012568
    67  H    0.004739
    68  H    0.006337
    69  H    0.004687
    70  H    0.008788
    71  H    0.018073
    72  H    0.029013
    73  H    0.047524
    74  H    0.009068
    75  H    0.045998
    76  H    0.035154
    77  H    0.042936
    78  H    0.046430
    79  H    0.053675
    80  Mg   0.837883
    81  C   -0.016829
    82  C   -0.087768
    83  C   -0.045497
    84  C   -0.064885
    85  N   -0.254581
    86  C   -0.049853
    87  C   -0.015096
    88  C   -0.090507
    89  C    0.045757
    90  C    0.114359
    91  C    0.062530
    92  C   -0.077907
    93  H    0.034886
    94  N   -0.423506
    95  C    0.162919
    96  C   -0.174567
    97  C   -0.007771
    98  C    0.152139
    99  C    0.099335
   100  C    0.015597
   101  O   -0.253155
   102  C    0.061191
   103  N   -0.350047
   104  C    0.037533
   105  C   -0.019840
   106  C   -0.034823
   107  C    0.088920
   108  C    0.073633
   109  C    0.034763
   110  C   -0.007690
   111  N   -0.324106
   112  C    0.078414
   113  C   -0.163160
   114  C    0.002223
   115  C    0.096189
   116  C    0.131495
   117  C    0.042363
   118  O   -0.187925
   119  C    0.000913
   120  C    0.211254
   121  O   -0.251028
   122  O   -0.305624
   123  C    0.152043
   124  H   -0.019581
   125  H   -0.015535
   126  H   -0.040496
   127  H   -0.000647
   128  H   -0.004290
   129  H    0.022457
   130  H    0.014462
   131  H    0.016355
   132  H    0.013924
   133  H    0.037658
   134  H    0.020804
   135  H    0.019624
   136  H    0.008805
   137  H    0.026245
   138  H    0.039827
   139  H    0.038318
   140  H    0.036440
   141  H    0.033892
   142  H    0.014407
   143  H    0.012405
   144  H    0.025171
   145  H    0.011699
   146  H    0.005675
   147  H    0.006259
   148  H    0.003610
   149  H    0.010951
   150  H    0.017907
   151  H    0.030112
   152  H    0.045969
   153  H    0.008484
   154  H    0.046915
   155  H    0.035030
   156  H    0.043891
   157  H    0.049515
   158  H    0.053565
 Sum of Mulliken charges =  -0.00000
 Mulliken charges with hydrogens summed into heavy atoms:
               1
     1  Mg   0.838715
     2  C   -0.002962
     3  C   -0.111653
     4  C   -0.062724
     5  C   -0.105514
     6  N   -0.256773
     7  C   -0.052461
     8  C   -0.013081
     9  C   -0.091000
    10  C    0.046326
    11  C    0.163406
    12  C    0.108804
    13  C    0.000183
    15  N   -0.433139
    16  C    0.168441
    17  C   -0.177129
    18  C   -0.003988
    19  C    0.148721
    20  C    0.182536
    21  C    0.012292
    22  O   -0.249627
    23  C    0.167058
    24  N   -0.341156
    25  C    0.041269
    26  C   -0.011650
    27  C   -0.014520
    28  C    0.074844
    29  C    0.116684
    30  C    0.046166
    31  C    0.051375
    32  N   -0.310449
    33  C    0.080387
    34  C   -0.169754
    35  C    0.008345
    36  C    0.082960
    37  C    0.229911
    38  C    0.046103
    39  O   -0.188482
    40  C    0.029836
    41  C    0.212868
    42  O   -0.257113
    43  O   -0.304794
    44  C    0.300739
    80  Mg   0.837883
    81  C   -0.016829
    82  C   -0.107349
    83  C   -0.061032
    84  C   -0.105381
    85  N   -0.254581
    86  C   -0.049853
    87  C   -0.015743
    88  C   -0.094797
    89  C    0.045757
    90  C    0.167632
    91  C    0.114112
    92  C   -0.002593
    94  N   -0.423506
    95  C    0.162919
    96  C   -0.174567
    97  C   -0.007771
    98  C    0.152139
    99  C    0.174212
   100  C    0.015597
   101  O   -0.253155
   102  C    0.169841
   103  N   -0.350047
   104  C    0.037533
   105  C   -0.005433
   106  C   -0.022418
   107  C    0.088920
   108  C    0.116178
   109  C    0.044632
   110  C    0.051280
   111  N   -0.324106
   112  C    0.078414
   113  C   -0.163160
   114  C    0.002223
   115  C    0.096189
   116  C    0.232863
   117  C    0.042363
   118  O   -0.187925
   119  C    0.035943
   120  C    0.211254
   121  O   -0.251028
   122  O   -0.305624
   123  C    0.299015
 Electronic spatial extent (au):  <R**2>=         615408.1371
 Charge=             -0.0000 electrons
 Dipole moment (field-independent basis, Debye):
    X=             -3.9696    Y=             -0.7187    Z=              0.0351  Tot=              4.0343
 Quadrupole moment (field-independent basis, Debye-Ang):
   XX=           -519.0623   YY=           -551.3063   ZZ=           -447.3569
   XY=             40.6793   XZ=            127.0686   YZ=            -47.9575
 Traceless Quadrupole moment (field-independent basis, Debye-Ang):
   XX=            -13.1538   YY=            -45.3978   ZZ=             58.5516
   XY=             40.6793   XZ=            127.0686   YZ=            -47.9575
 Octapole moment (field-independent basis, Debye-Ang**2):
  XXX=          -3042.2237  YYY=            -27.9880  ZZZ=             27.3799  XYY=             92.5264
  XXY=             -8.6839  XXZ=             28.6046  XZZ=            -86.2117  YZZ=             13.9518
  YYZ=            -43.4211  XYZ=            -88.6021
 Hexadecapole moment (field-independent basis, Debye-Ang**3):
 XXXX=        -789742.1267 YYYY=         -42785.9111 ZZZZ=         -23829.6594 XXXY=          10700.4486
 XXXZ=          34502.2692 YYYX=          -6649.9934 YYYZ=          -1601.4343 ZZZX=           1361.0855
 ZZZY=            238.8583 XXYY=        -146151.7738 XXZZ=        -118168.0556 YYZZ=         -10853.5751
 XXYZ=         -12329.7341 YYXZ=           3363.5465 ZZXY=           3589.2271
 N-N= 1.230511593249D+04 E-N=-3.409105951681D+04  KE= 4.028802055738D+03
 Leave Link  601 at Sat Sep  4 17:52:32 2021, MaxMem= 23488102400 cpu:              16.0 elap:               0.8
 (Enter /sw/apps/gaussian-16.0/g16/l9999.exe)
 1\1\GINC-BP1-COMPUTE00084\SP\RCAM-B3LYP TD-FC\def2SVP\C68H72Mg2N8O8\OF
 15641\04-Sep-2021\0\\#p cam-b3lyp/Def2SVP td=(nstates=5)\\TDDFT excite
 d states in gaussian\\0,1\Mg,0,0.,0.,0.\C,0,-0.217,-2.218,2.801\C,0,-1
 .255,2.442,2.026\C,0,-0.245,1.85,-2.564\C,0,0.146,-2.824,-2.037\N,0,-0
 .617,-0.009,2.126\C,0,-0.594,-0.908,3.105\C,0,-0.936,-0.309,4.502\C,0,
 -1.773,0.964,4.032\C,0,-1.155,1.168,2.66\C,0,-3.263,0.685,3.863\C,0,0.
 345,0.11,5.299\C,0,0.124,0.397,6.787\H,0,1.168,0.033,7.733\N,0,-0.185,
 1.961,-0.152\C,0,-0.703,2.8,0.777\C,0,-0.62,4.156,0.193\C,0,-0.187,4.0
 15,-1.225\C,0,-0.214,2.583,-1.38\C,0,-0.887,5.406,0.974\C,0,0.181,5.01
 3,-2.277\O,0,0.303,4.69,-3.508\C,0,0.31,6.414,-1.837\N,0,-0.265,-0.413
 ,-2.029\C,0,-0.279,0.569,-2.937\C,0,-0.196,0.024,-4.332\C,0,0.124,-1.5
 33,-4.18\C,0,0.086,-1.632,-2.635\C,0,-1.451,0.205,-5.197\C,0,1.373,-2.
 07,-4.923\C,0,2.626,-1.49,-4.306\N,0,0.15,-2.144,0.303\C,0,0.173,-3.13
 6,-0.688\C,0,0.173,-4.438,0.004\C,0,0.133,-4.111,1.358\C,0,0.083,-2.69
 5,1.502\C,0,0.149,-5.715,-0.623\C,0,0.096,-4.629,2.716\O,0,0.208,-5.74
 7,3.221\C,0,-0.255,-3.428,3.701\C,0,0.717,-3.482,4.848\O,0,1.931,-3.25
 5,4.669\O,0,0.038,-3.556,6.003\C,0,0.943,-3.583,7.183\H,0,-1.859,3.22,
 2.497\H,0,-0.218,2.453,-3.474\H,0,0.276,-3.747,-2.605\H,0,-1.554,-0.94
 9,5.132\H,0,-1.585,1.831,4.665\H,0,-3.484,-0.377,3.969\H,0,-3.511,1.02
 7,2.858\H,0,-3.852,1.301,4.543\H,0,0.669,1.096,4.966\H,0,1.13,-0.639,5
 .189\H,0,-0.844,0.026,7.125\H,0,0.062,1.477,6.921\H,0,-1.344,5.186,1.9
 38\H,0,-1.651,5.963,0.432\H,0,0.007,6.02,1.084\H,0,-0.635,6.744,-1.405
 \H,0,0.665,6.97,-2.704\H,0,1.048,6.466,-1.036\H,0,0.608,0.501,-4.891\H
 ,0,-0.692,-2.156,-4.547\H,0,-1.267,0.74,-6.129\H,0,-2.204,0.714,-4.596
 \H,0,-1.967,-0.72,-5.453\H,0,1.356,-1.759,-5.967\H,0,1.452,-3.157,-4.9
 02\H,0,2.714,-0.522,-4.798\H,0,3.487,-2.121,-4.529\H,0,2.495,-1.303,-3
 .24\H,0,0.867,-6.333,-0.084\H,0,0.404,-5.642,-1.68\H,0,-0.891,-5.999,-
 0.463\H,0,-1.283,-3.581,4.028\H,0,0.698,-4.478,7.755\H,0,0.833,-2.619,
 7.68\H,0,2.,-3.754,6.976\Mg,0,31.5406,2.83582,2.3891\C,0,31.31209,5.27
 844,-0.23014\C,0,31.05367,0.44884,0.00167\C,0,31.28706,0.6978,4.71977\
 C,0,30.86876,5.4011,4.65044\N,0,31.23559,2.97063,0.20254\C,0,31.22947,
 3.94805,-0.69131\C,0,31.20998,3.4693,-2.16778\C,0,30.55837,2.01906,-1.
 94174\C,0,31.00233,1.77346,-0.50116\C,0,29.0392,2.02956,-1.97815\C,0,3
 2.65049,3.3626,-2.78061\C,0,32.69186,3.20067,-4.30173\H,0,33.77979,3.8
 3615,-5.04001\N,0,31.70594,0.8587,2.34175\C,0,31.49393,0.04954,1.28271
 \C,0,31.72585,-1.31923,1.7694\C,0,31.93107,-1.26485,3.24237\C,0,31.621
 91,0.12725,3.50038\C,0,31.81586,-2.5045,0.85264\C,0,32.32614,-2.29819,
 4.25348\O,0,32.21234,-2.08639,5.51246\C,0,32.76209,-3.59915,3.72534\N,
 0,30.92899,2.97652,4.37114\C,0,30.964,1.90537,5.18314\C,0,30.74382,2.3
 0474,6.62272\C,0,30.79453,3.90311,6.63773\C,0,30.95325,4.16548,5.124\C
 ,0,29.43341,1.83147,7.2514\C,0,31.80567,4.56604,7.61282\C,0,33.22025,4
 .27251,7.16762\N,0,31.33922,4.98463,2.2887\C,0,31.0308,5.86299,3.35052
 \C,0,30.88857,7.21419,2.77047\C,0,31.10311,7.02288,1.3972\C,0,31.34089
 ,5.64623,1.13685\C,0,30.55129,8.39628,3.48813\C,0,31.17199,7.67085,0.1
 0721\O,0,31.13874,8.83762,-0.28172\C,0,31.18518,6.55103,-1.02073\C,0,3
 2.28329,6.88419,-1.99319\O,0,33.47397,6.85846,-1.6351\O,0,31.76509,6.9
 6487,-3.23227\C,0,32.81766,7.28256,-4.23376\H,0,30.68244,-0.35999,-0.6
 283\H,0,31.29517,0.01925,5.57591\H,0,30.75668,6.26985,5.30266\H,0,30.5
 8537,4.05872,-2.82824\H,0,30.9977,1.28055,-2.60729\H,0,28.64442,3.0332
 2,-2.03251\H,0,28.71969,1.54631,-1.06413\H,0,28.67734,1.39861,-2.79504
 \H,0,33.09861,2.40751,-2.47773\H,0,33.25127,4.20243,-2.49014\H,0,31.72
 575,3.43079,-4.76717\H,0,32.85679,2.14576,-4.53405\H,0,31.45963,-2.260
 93,-0.15591\H,0,31.10119,-3.24852,1.22082\H,0,32.81289,-2.94984,0.8366
 \H,0,31.96566,-4.02958,3.12293\H,0,33.08786,-4.17324,4.59492\H,0,33.61
 229,-3.43685,3.05345\H,0,31.53513,1.92209,7.25558\H,0,29.82851,4.33867
 ,6.93257\H,0,29.58145,1.22728,8.16634\H,0,28.88237,1.26909,6.50936\H,0
 ,28.73216,2.62345,7.50875\H,0,31.70082,4.14075,8.61396\H,0,31.67759,5.
 63948,7.70389\H,0,33.4101,3.28005,7.58723\H,0,33.91004,5.01056,7.57199
 \H,0,33.27947,4.1859,6.07646\H,0,31.20449,9.17832,3.12449\H,0,30.65913
 ,8.25419,4.56142\H,0,29.50514,8.51213,3.19247\H,0,30.20332,6.55281,-1.
 49562\H,0,32.49142,8.18147,-4.76593\H,0,32.94761,6.36176,-4.83291\H,0,
 33.7855,7.59697,-3.86109\\Version=ES64L-G16RevA.03\State=1-A\HF=-4069.
 8117822\RMSD=4.770e-09\PG=C01 [X(C68H72Mg2N8O8)]\\@


 YOU CAN WIPE THE SLATE CLEAN, BUT YOU'LL STILL
 HAVE TO EAT A LITTLE CHALK DUST.
 Job cpu time:       0 days 10 hours  2 minutes  2.2 seconds.
 Elapsed time:       0 days  0 hours 25 minutes 41.1 seconds.
 File lengths (MBytes):  RWF=  13225 Int=      0 D2E=      0 Chk=    574 Scr=      1
 Normal termination of Gaussian 16 at Sat Sep  4 17:52:33 2021.
