 Entering Gaussian System, Link 0=g16
 Initial command:
 /sw/apps/gaussian-16.0/g16/l1.exe "/tmp/Gau-163072.inp" -scrdir="/tmp/"
 Entering Link 1 = /sw/apps/gaussian-16.0/g16/l1.exe PID=    163073.
  
 Copyright (c) 1988,1990,1992,1993,1995,1998,2003,2009,2016,
            Gaussian, Inc.  All Rights Reserved.
  
 This is part of the Gaussian(R) 16 program.  It is based on
 the Gaussian(R) 09 system (copyright 2009, Gaussian, Inc.),
 the Gaussian(R) 03 system (copyright 2003, Gaussian, Inc.),
 the Gaussian(R) 98 system (copyright 1998, Gaussian, Inc.),
 the Gaussian(R) 94 system (copyright 1995, Gaussian, Inc.),
 the Gaussian 92(TM) system (copyright 1992, Gaussian, Inc.),
 the Gaussian 90(TM) system (copyright 1990, Gaussian, Inc.),
 the Gaussian 88(TM) system (copyright 1988, Gaussian, Inc.),
 the Gaussian 86(TM) system (copyright 1986, Carnegie Mellon
 University), and the Gaussian 82(TM) system (copyright 1983,
 Carnegie Mellon University). Gaussian is a federally registered
 trademark of Gaussian, Inc.
  
 This software contains proprietary and confidential information,
 including trade secrets, belonging to Gaussian, Inc.
  
 This software is provided under written license and may be
 used, copied, transmitted, or stored only in accord with that
 written license.
  
 The following legend is applicable only to US Government
 contracts under FAR:
  
                    RESTRICTED RIGHTS LEGEND
  
 Use, reproduction and disclosure by the US Government is
 subject to restrictions as set forth in subparagraphs (a)
 and (c) of the Commercial Computer Software - Restricted
 Rights clause in FAR 52.227-19.
  
 Gaussian, Inc.
 340 Quinnipiac St., Bldg. 40, Wallingford CT 06492
  
  
 ---------------------------------------------------------------
 Warning -- This program may not be used in any manner that
 competes with the business of Gaussian, Inc. or will provide
 assistance to any competitor of Gaussian, Inc.  The licensee
 of this program is prohibited from giving any competitor of
 Gaussian, Inc. access to this program.  By using this program,
 the user acknowledges that Gaussian, Inc. is engaged in the
 business of creating and licensing software in the field of
 computational chemistry and represents and warrants to the
 licensee that it is not a competitor of Gaussian, Inc. and that
 it will not use this program in any manner prohibited above.
 ---------------------------------------------------------------
  

 Cite this work as:
 Gaussian 16, Revision A.03,
 M. J. Frisch, G. W. Trucks, H. B. Schlegel, G. E. Scuseria, 
 M. A. Robb, J. R. Cheeseman, G. Scalmani, V. Barone, 
 G. A. Petersson, H. Nakatsuji, X. Li, M. Caricato, A. V. Marenich, 
 J. Bloino, B. G. Janesko, R. Gomperts, B. Mennucci, H. P. Hratchian, 
 J. V. Ortiz, A. F. Izmaylov, J. L. Sonnenberg, D. Williams-Young, 
 F. Ding, F. Lipparini, F. Egidi, J. Goings, B. Peng, A. Petrone, 
 T. Henderson, D. Ranasinghe, V. G. Zakrzewski, J. Gao, N. Rega, 
 G. Zheng, W. Liang, M. Hada, M. Ehara, K. Toyota, R. Fukuda, 
 J. Hasegawa, M. Ishida, T. Nakajima, Y. Honda, O. Kitao, H. Nakai, 
 T. Vreven, K. Throssell, J. A. Montgomery, Jr., J. E. Peralta, 
 F. Ogliaro, M. J. Bearpark, J. J. Heyd, E. N. Brothers, K. N. Kudin, 
 V. N. Staroverov, T. A. Keith, R. Kobayashi, J. Normand, 
 K. Raghavachari, A. P. Rendell, J. C. Burant, S. S. Iyengar, 
 J. Tomasi, M. Cossi, J. M. Millam, M. Klene, C. Adamo, R. Cammi, 
 J. W. Ochterski, R. L. Martin, K. Morokuma, O. Farkas, 
 J. B. Foresman, and D. J. Fox, Gaussian, Inc., Wallingford CT, 2016.
 
 ******************************************
 Gaussian 16:  ES64L-G16RevA.03 25-Dec-2016
                 4-Sep-2021 
 ******************************************
 %nproc=24
 Will use up to   24 processors via shared memory.
 %mem=175gb
 -----------------------------------
 #p cam-b3lyp/Def2SVP td=(nstates=5)
 -----------------------------------
 1/38=1,172=1/1;
 2/12=2,17=6,18=5,40=1/2;
 3/5=43,7=101,11=9,25=1,30=1,74=-40/1,2,3,8;
 4//1;
 5/5=2,38=5/2;
 8/6=1,10=1,108=5/1;
 9/41=5,42=1,70=2/14;
 6/7=2,8=2,9=2,10=2/1;
 99/5=1,9=1/99;
 Leave Link    1 at Sat Sep  4 00:14:11 2021, MaxMem= 23488102400 cpu:               0.5 elap:               0.0
 (Enter /sw/apps/gaussian-16.0/g16/l101.exe)
 --------------------------------
 TDDFT excited states in gaussian
 --------------------------------
 Symbolic Z-matrix:
 Charge =  0 Multiplicity = 1
 Mg                    0.        0.        0. 
 C                    -0.217    -2.218     2.801 
 C                    -1.255     2.442     2.026 
 C                    -0.245     1.85     -2.564 
 C                     0.146    -2.824    -2.037 
 N                    -0.617    -0.009     2.126 
 C                    -0.594    -0.908     3.105 
 C                    -0.936    -0.309     4.502 
 C                    -1.773     0.964     4.032 
 C                    -1.155     1.168     2.66 
 C                    -3.263     0.685     3.863 
 C                     0.345     0.11      5.299 
 C                     0.124     0.397     6.787 
 H                     1.168     0.033     7.733 
 N                    -0.185     1.961    -0.152 
 C                    -0.703     2.8       0.777 
 C                    -0.62      4.156     0.193 
 C                    -0.187     4.015    -1.225 
 C                    -0.214     2.583    -1.38 
 C                    -0.887     5.406     0.974 
 C                     0.181     5.013    -2.277 
 O                     0.303     4.69     -3.508 
 C                     0.31      6.414    -1.837 
 N                    -0.265    -0.413    -2.029 
 C                    -0.279     0.569    -2.937 
 C                    -0.196     0.024    -4.332 
 C                     0.124    -1.533    -4.18 
 C                     0.086    -1.632    -2.635 
 C                    -1.451     0.205    -5.197 
 C                     1.373    -2.07     -4.923 
 C                     2.626    -1.49     -4.306 
 N                     0.15     -2.144     0.303 
 C                     0.173    -3.136    -0.688 
 C                     0.173    -4.438     0.004 
 C                     0.133    -4.111     1.358 
 C                     0.083    -2.695     1.502 
 C                     0.149    -5.715    -0.623 
 C                     0.096    -4.629     2.716 
 O                     0.208    -5.747     3.221 
 C                    -0.255    -3.428     3.701 
 C                     0.717    -3.482     4.848 
 O                     1.931    -3.255     4.669 
 O                     0.038    -3.556     6.003 
 C                     0.943    -3.583     7.183 
 H                    -1.859     3.22      2.497 
 H                    -0.218     2.453    -3.474 
 H                     0.276    -3.747    -2.605 
 H                    -1.554    -0.949     5.132 
 H                    -1.585     1.831     4.665 
 H                    -3.484    -0.377     3.969 
 H                    -3.511     1.027     2.858 
 H                    -3.852     1.301     4.543 
 H                     0.669     1.096     4.966 
 H                     1.13     -0.639     5.189 
 H                    -0.844     0.026     7.125 
 H                     0.062     1.477     6.921 
 H                    -1.344     5.186     1.938 
 H                    -1.651     5.963     0.432 
 H                     0.007     6.02      1.084 
 H                    -0.635     6.744    -1.405 
 H                     0.665     6.97     -2.704 
 H                     1.048     6.466    -1.036 
 H                     0.608     0.501    -4.891 
 H                    -0.692    -2.156    -4.547 
 H                    -1.267     0.74     -6.129 
 H                    -2.204     0.714    -4.596 
 H                    -1.967    -0.72     -5.453 
 H                     1.356    -1.759    -5.967 
 H                     1.452    -3.157    -4.902 
 H                     2.714    -0.522    -4.798 
 H                     3.487    -2.121    -4.529 
 H                     2.495    -1.303    -3.24 
 H                     0.867    -6.333    -0.084 
 H                     0.404    -5.642    -1.68 
 H                    -0.891    -5.999    -0.463 
 H                    -1.283    -3.581     4.028 
 H                     0.698    -4.478     7.755 
 H                     0.833    -2.619     7.68 
 H                     2.       -3.754     6.976 
 Mg                    8.9418    0.79802   0.68258 
 C                     9.15392  -1.6844   -1.90038 
 C                     8.12233  -1.72191   2.83037 
 C                     8.3078    3.00469   2.87258 
 C                     8.64838   3.19121  -1.83381 
 N                     8.70157  -1.38048   0.38481 
 C                     8.86789  -2.21904  -0.62688 
 C                     8.79859  -3.7198   -0.23641 
 C                     7.91949  -3.58016   1.10021 
 C                     8.29252  -2.15131   1.48995 
 C                     6.42244  -3.62994   0.84385 
 C                     10.21426  -4.32428   0.06771 
 C                     10.2565  -5.85158   0.15332 
 H                     11.44513  -6.5436   -0.33733 
 N                     8.78964   0.64314   2.65525 
 C                     8.46999  -0.46086   3.36256 
 C                     8.47125  -0.04834   4.77464 
 C                     8.65605   1.42721   4.8321 
 C                     8.56893   1.75881   3.42407 
 C                     8.38698  -1.02826   5.9087 
 C                     8.86256   2.38335   5.9676 
 O                     8.76153   3.65099   5.80731 
 C                     9.09425   1.78824   7.29186 
 N                     8.32508   2.77908   0.55069 
 C                     8.17376   3.53101   1.65506 
 C                     7.99447   4.98836   1.30238 
 C                     8.29988   5.09203  -0.26401 
 C                     8.52566   3.59662  -0.57733 
 C                     6.61417   5.57785   1.5916 
 C                     9.38636   6.11149  -0.70324 
 C                     10.74355   5.66383  -0.21027 
 N                     9.08849   0.81452  -1.47294 
 C                     8.90551   1.92032  -2.3319 
 C                     8.99164   1.41445  -3.71722 
 C                     9.19744   0.03475  -3.56699 
 C                     9.21663  -0.29899  -2.18578 
 C                     8.83492   2.19312  -4.89842 
 C                     9.3922   -1.21682  -4.26292 
 O                     9.55296  -1.54104  -5.43883 
 C                     9.24638  -2.40468  -3.21691 
 C                     10.40091  -3.34711  -3.42038 
 O                     11.56553  -2.98002  -3.18474 
 O                     9.9246   -4.58457  -3.64883 
 C                     11.03224  -5.55725  -3.84591 
 H                     7.63789  -2.39896   3.53451 
 H                     8.19192   3.82211   3.58803 
 H                     8.66499   3.88933  -2.67347 
 H                     8.28824  -4.35245  -0.95271 
 H                     8.24693  -4.28139   1.86338 
 H                     6.1943   -3.63245  -0.21165 
 H                     6.01341  -2.74697   1.31724 
 H                     5.97906  -4.48371   1.36426 
 H                     10.49836  -4.07047   1.09708 
 H                     10.93631  -3.98238  -0.64809 
 H                     9.34814  -6.3125   -0.25337 
 H                     10.25473  -6.14025   1.20721 
 H                     8.09245  -2.02507   5.55795 
 H                     7.55603  -0.7083    6.54668 
 H                     9.30009  -1.05966   6.50696 
 H                     8.25019   1.15568   7.5562 
 H                     9.30836   2.62777   7.95611 
 H                     9.97139   1.1342    7.23288 
 H                     8.70292   5.60639   1.8402 
 H                     7.41082   5.40154  -0.83287 
 H                     6.64723   6.45937   2.25936 
 H                     5.9937    4.80086   2.01802 
 H                     6.04411   5.87205   0.71202 
 H                     9.19689   7.08663  -0.24786 
 H                     9.42999   6.26049  -1.77696 
 H                     10.76467   6.02975   0.82063 
 H                     11.53513   6.11466  -0.80541 
 H                     10.80773   4.57014  -0.17322 
 H                     9.61121   1.87924  -5.58352 
 H                     8.89937   3.25788  -4.68417 
 H                     7.82624   1.89468  -5.19636 
 H                     8.28612  -2.88778  -3.40159 
 H                     10.86356  -6.04199  -4.81249 
 H                     11.02399  -6.20509  -2.94926 
 H                     12.03106  -5.1589   -3.98053 
 
 ITRead=  0  0  0  0  0  0  0  0  0  0  0  0  0  0  0  0  0  0  0  0
 ITRead=  0  0  0  0  0  0  0  0  0  0  0  0  0  0  0  0  0  0  0  0
 ITRead=  0  0  0  0  0  0  0  0  0  0  0  0  0  0  0  0  0  0  0  0
 ITRead=  0  0  0  0  0  0  0  0  0  0  0  0  0  0  0  0  0  0  0  0
 ITRead=  0  0  0  0  0  0  0  0  0  0  0  0  0  0  0  0  0  0  0  0
 ITRead=  0  0  0  0  0  0  0  0  0  0  0  0  0  0  0  0  0  0  0  0
 ITRead=  0  0  0  0  0  0  0  0  0  0  0  0  0  0  0  0  0  0  0  0
 ITRead=  0  0  0  0  0  0  0  0  0  0  0  0  0  0  0  0  0  0
 MicOpt= -1 -1 -1 -1 -1 -1 -1 -1 -1 -1 -1 -1 -1 -1 -1 -1 -1 -1 -1 -1
 MicOpt= -1 -1 -1 -1 -1 -1 -1 -1 -1 -1 -1 -1 -1 -1 -1 -1 -1 -1 -1 -1
 MicOpt= -1 -1 -1 -1 -1 -1 -1 -1 -1 -1 -1 -1 -1 -1 -1 -1 -1 -1 -1 -1
 MicOpt= -1 -1 -1 -1 -1 -1 -1 -1 -1 -1 -1 -1 -1 -1 -1 -1 -1 -1 -1 -1
 MicOpt= -1 -1 -1 -1 -1 -1 -1 -1 -1 -1 -1 -1 -1 -1 -1 -1 -1 -1 -1 -1
 MicOpt= -1 -1 -1 -1 -1 -1 -1 -1 -1 -1 -1 -1 -1 -1 -1 -1 -1 -1 -1 -1
 MicOpt= -1 -1 -1 -1 -1 -1 -1 -1 -1 -1 -1 -1 -1 -1 -1 -1 -1 -1 -1 -1
 MicOpt= -1 -1 -1 -1 -1 -1 -1 -1 -1 -1 -1 -1 -1 -1 -1 -1 -1 -1
 NAtoms=    158 NQM=      158 NQMF=       0 NMMI=      0 NMMIF=      0
                NMic=       0 NMicF=      0.
                    Isotopes and Nuclear Properties:
 (Nuclear quadrupole moments (NQMom) in fm**2, nuclear magnetic moments (NMagM)
  in nuclear magnetons)

  Atom         1           2           3           4           5           6           7           8           9          10
 IAtWgt=          24          12          12          12          12          14          12          12          12          12
 AtmWgt=  23.9850450  12.0000000  12.0000000  12.0000000  12.0000000  14.0030740  12.0000000  12.0000000  12.0000000  12.0000000
 NucSpn=           0           0           0           0           0           2           0           0           0           0
 AtZEff=  -0.0000000  -0.0000000  -0.0000000  -0.0000000  -0.0000000  -0.0000000  -0.0000000  -0.0000000  -0.0000000  -0.0000000
 NQMom=    0.0000000   0.0000000   0.0000000   0.0000000   0.0000000   2.0440000   0.0000000   0.0000000   0.0000000   0.0000000
 NMagM=    0.0000000   0.0000000   0.0000000   0.0000000   0.0000000   0.4037610   0.0000000   0.0000000   0.0000000   0.0000000
 AtZNuc=  12.0000000   6.0000000   6.0000000   6.0000000   6.0000000   7.0000000   6.0000000   6.0000000   6.0000000   6.0000000

  Atom        11          12          13          14          15          16          17          18          19          20
 IAtWgt=          12          12          12           1          14          12          12          12          12          12
 AtmWgt=  12.0000000  12.0000000  12.0000000   1.0078250  14.0030740  12.0000000  12.0000000  12.0000000  12.0000000  12.0000000
 NucSpn=           0           0           0           1           2           0           0           0           0           0
 AtZEff=  -0.0000000  -0.0000000  -0.0000000  -0.0000000  -0.0000000  -0.0000000  -0.0000000  -0.0000000  -0.0000000  -0.0000000
 NQMom=    0.0000000   0.0000000   0.0000000   0.0000000   2.0440000   0.0000000   0.0000000   0.0000000   0.0000000   0.0000000
 NMagM=    0.0000000   0.0000000   0.0000000   2.7928460   0.4037610   0.0000000   0.0000000   0.0000000   0.0000000   0.0000000
 AtZNuc=   6.0000000   6.0000000   6.0000000   1.0000000   7.0000000   6.0000000   6.0000000   6.0000000   6.0000000   6.0000000

  Atom        21          22          23          24          25          26          27          28          29          30
 IAtWgt=          12          16          12          14          12          12          12          12          12          12
 AtmWgt=  12.0000000  15.9949146  12.0000000  14.0030740  12.0000000  12.0000000  12.0000000  12.0000000  12.0000000  12.0000000
 NucSpn=           0           0           0           2           0           0           0           0           0           0
 AtZEff=  -0.0000000  -0.0000000  -0.0000000  -0.0000000  -0.0000000  -0.0000000  -0.0000000  -0.0000000  -0.0000000  -0.0000000
 NQMom=    0.0000000   0.0000000   0.0000000   2.0440000   0.0000000   0.0000000   0.0000000   0.0000000   0.0000000   0.0000000
 NMagM=    0.0000000   0.0000000   0.0000000   0.4037610   0.0000000   0.0000000   0.0000000   0.0000000   0.0000000   0.0000000
 AtZNuc=   6.0000000   8.0000000   6.0000000   7.0000000   6.0000000   6.0000000   6.0000000   6.0000000   6.0000000   6.0000000

  Atom        31          32          33          34          35          36          37          38          39          40
 IAtWgt=          12          14          12          12          12          12          12          12          16          12
 AtmWgt=  12.0000000  14.0030740  12.0000000  12.0000000  12.0000000  12.0000000  12.0000000  12.0000000  15.9949146  12.0000000
 NucSpn=           0           2           0           0           0           0           0           0           0           0
 AtZEff=  -0.0000000  -0.0000000  -0.0000000  -0.0000000  -0.0000000  -0.0000000  -0.0000000  -0.0000000  -0.0000000  -0.0000000
 NQMom=    0.0000000   2.0440000   0.0000000   0.0000000   0.0000000   0.0000000   0.0000000   0.0000000   0.0000000   0.0000000
 NMagM=    0.0000000   0.4037610   0.0000000   0.0000000   0.0000000   0.0000000   0.0000000   0.0000000   0.0000000   0.0000000
 AtZNuc=   6.0000000   7.0000000   6.0000000   6.0000000   6.0000000   6.0000000   6.0000000   6.0000000   8.0000000   6.0000000

  Atom        41          42          43          44          45          46          47          48          49          50
 IAtWgt=          12          16          16          12           1           1           1           1           1           1
 AtmWgt=  12.0000000  15.9949146  15.9949146  12.0000000   1.0078250   1.0078250   1.0078250   1.0078250   1.0078250   1.0078250
 NucSpn=           0           0           0           0           1           1           1           1           1           1
 AtZEff=  -0.0000000  -0.0000000  -0.0000000  -0.0000000  -0.0000000  -0.0000000  -0.0000000  -0.0000000  -0.0000000  -0.0000000
 NQMom=    0.0000000   0.0000000   0.0000000   0.0000000   0.0000000   0.0000000   0.0000000   0.0000000   0.0000000   0.0000000
 NMagM=    0.0000000   0.0000000   0.0000000   0.0000000   2.7928460   2.7928460   2.7928460   2.7928460   2.7928460   2.7928460
 AtZNuc=   6.0000000   8.0000000   8.0000000   6.0000000   1.0000000   1.0000000   1.0000000   1.0000000   1.0000000   1.0000000

  Atom        51          52          53          54          55          56          57          58          59          60
 IAtWgt=           1           1           1           1           1           1           1           1           1           1
 AtmWgt=   1.0078250   1.0078250   1.0078250   1.0078250   1.0078250   1.0078250   1.0078250   1.0078250   1.0078250   1.0078250
 NucSpn=           1           1           1           1           1           1           1           1           1           1
 AtZEff=  -0.0000000  -0.0000000  -0.0000000  -0.0000000  -0.0000000  -0.0000000  -0.0000000  -0.0000000  -0.0000000  -0.0000000
 NQMom=    0.0000000   0.0000000   0.0000000   0.0000000   0.0000000   0.0000000   0.0000000   0.0000000   0.0000000   0.0000000
 NMagM=    2.7928460   2.7928460   2.7928460   2.7928460   2.7928460   2.7928460   2.7928460   2.7928460   2.7928460   2.7928460
 AtZNuc=   1.0000000   1.0000000   1.0000000   1.0000000   1.0000000   1.0000000   1.0000000   1.0000000   1.0000000   1.0000000

  Atom        61          62          63          64          65          66          67          68          69          70
 IAtWgt=           1           1           1           1           1           1           1           1           1           1
 AtmWgt=   1.0078250   1.0078250   1.0078250   1.0078250   1.0078250   1.0078250   1.0078250   1.0078250   1.0078250   1.0078250
 NucSpn=           1           1           1           1           1           1           1           1           1           1
 AtZEff=  -0.0000000  -0.0000000  -0.0000000  -0.0000000  -0.0000000  -0.0000000  -0.0000000  -0.0000000  -0.0000000  -0.0000000
 NQMom=    0.0000000   0.0000000   0.0000000   0.0000000   0.0000000   0.0000000   0.0000000   0.0000000   0.0000000   0.0000000
 NMagM=    2.7928460   2.7928460   2.7928460   2.7928460   2.7928460   2.7928460   2.7928460   2.7928460   2.7928460   2.7928460
 AtZNuc=   1.0000000   1.0000000   1.0000000   1.0000000   1.0000000   1.0000000   1.0000000   1.0000000   1.0000000   1.0000000

  Atom        71          72          73          74          75          76          77          78          79          80
 IAtWgt=           1           1           1           1           1           1           1           1           1          24
 AtmWgt=   1.0078250   1.0078250   1.0078250   1.0078250   1.0078250   1.0078250   1.0078250   1.0078250   1.0078250  23.9850450
 NucSpn=           1           1           1           1           1           1           1           1           1           0
 AtZEff=  -0.0000000  -0.0000000  -0.0000000  -0.0000000  -0.0000000  -0.0000000  -0.0000000  -0.0000000  -0.0000000  -0.0000000
 NQMom=    0.0000000   0.0000000   0.0000000   0.0000000   0.0000000   0.0000000   0.0000000   0.0000000   0.0000000   0.0000000
 NMagM=    2.7928460   2.7928460   2.7928460   2.7928460   2.7928460   2.7928460   2.7928460   2.7928460   2.7928460   0.0000000
 AtZNuc=   1.0000000   1.0000000   1.0000000   1.0000000   1.0000000   1.0000000   1.0000000   1.0000000   1.0000000  12.0000000

  Atom        81          82          83          84          85          86          87          88          89          90
 IAtWgt=          12          12          12          12          14          12          12          12          12          12
 AtmWgt=  12.0000000  12.0000000  12.0000000  12.0000000  14.0030740  12.0000000  12.0000000  12.0000000  12.0000000  12.0000000
 NucSpn=           0           0           0           0           2           0           0           0           0           0
 AtZEff=  -0.0000000  -0.0000000  -0.0000000  -0.0000000  -0.0000000  -0.0000000  -0.0000000  -0.0000000  -0.0000000  -0.0000000
 NQMom=    0.0000000   0.0000000   0.0000000   0.0000000   2.0440000   0.0000000   0.0000000   0.0000000   0.0000000   0.0000000
 NMagM=    0.0000000   0.0000000   0.0000000   0.0000000   0.4037610   0.0000000   0.0000000   0.0000000   0.0000000   0.0000000
 AtZNuc=   6.0000000   6.0000000   6.0000000   6.0000000   7.0000000   6.0000000   6.0000000   6.0000000   6.0000000   6.0000000

  Atom        91          92          93          94          95          96          97          98          99         100
 IAtWgt=          12          12           1          14          12          12          12          12          12          12
 AtmWgt=  12.0000000  12.0000000   1.0078250  14.0030740  12.0000000  12.0000000  12.0000000  12.0000000  12.0000000  12.0000000
 NucSpn=           0           0           1           2           0           0           0           0           0           0
 AtZEff=  -0.0000000  -0.0000000  -0.0000000  -0.0000000  -0.0000000  -0.0000000  -0.0000000  -0.0000000  -0.0000000  -0.0000000
 NQMom=    0.0000000   0.0000000   0.0000000   2.0440000   0.0000000   0.0000000   0.0000000   0.0000000   0.0000000   0.0000000
 NMagM=    0.0000000   0.0000000   2.7928460   0.4037610   0.0000000   0.0000000   0.0000000   0.0000000   0.0000000   0.0000000
 AtZNuc=   6.0000000   6.0000000   1.0000000   7.0000000   6.0000000   6.0000000   6.0000000   6.0000000   6.0000000   6.0000000

  Atom       101         102         103         104         105         106         107         108         109         110
 IAtWgt=          16          12          14          12          12          12          12          12          12          12
 AtmWgt=  15.9949146  12.0000000  14.0030740  12.0000000  12.0000000  12.0000000  12.0000000  12.0000000  12.0000000  12.0000000
 NucSpn=           0           0           2           0           0           0           0           0           0           0
 AtZEff=  -0.0000000  -0.0000000  -0.0000000  -0.0000000  -0.0000000  -0.0000000  -0.0000000  -0.0000000  -0.0000000  -0.0000000
 NQMom=    0.0000000   0.0000000   2.0440000   0.0000000   0.0000000   0.0000000   0.0000000   0.0000000   0.0000000   0.0000000
 NMagM=    0.0000000   0.0000000   0.4037610   0.0000000   0.0000000   0.0000000   0.0000000   0.0000000   0.0000000   0.0000000
 AtZNuc=   8.0000000   6.0000000   7.0000000   6.0000000   6.0000000   6.0000000   6.0000000   6.0000000   6.0000000   6.0000000

  Atom       111         112         113         114         115         116         117         118         119         120
 IAtWgt=          14          12          12          12          12          12          12          16          12          12
 AtmWgt=  14.0030740  12.0000000  12.0000000  12.0000000  12.0000000  12.0000000  12.0000000  15.9949146  12.0000000  12.0000000
 NucSpn=           2           0           0           0           0           0           0           0           0           0
 AtZEff=  -0.0000000  -0.0000000  -0.0000000  -0.0000000  -0.0000000  -0.0000000  -0.0000000  -0.0000000  -0.0000000  -0.0000000
 NQMom=    2.0440000   0.0000000   0.0000000   0.0000000   0.0000000   0.0000000   0.0000000   0.0000000   0.0000000   0.0000000
 NMagM=    0.4037610   0.0000000   0.0000000   0.0000000   0.0000000   0.0000000   0.0000000   0.0000000   0.0000000   0.0000000
 AtZNuc=   7.0000000   6.0000000   6.0000000   6.0000000   6.0000000   6.0000000   6.0000000   8.0000000   6.0000000   6.0000000

  Atom       121         122         123         124         125         126         127         128         129         130
 IAtWgt=          16          16          12           1           1           1           1           1           1           1
 AtmWgt=  15.9949146  15.9949146  12.0000000   1.0078250   1.0078250   1.0078250   1.0078250   1.0078250   1.0078250   1.0078250
 NucSpn=           0           0           0           1           1           1           1           1           1           1
 AtZEff=  -0.0000000  -0.0000000  -0.0000000  -0.0000000  -0.0000000  -0.0000000  -0.0000000  -0.0000000  -0.0000000  -0.0000000
 NQMom=    0.0000000   0.0000000   0.0000000   0.0000000   0.0000000   0.0000000   0.0000000   0.0000000   0.0000000   0.0000000
 NMagM=    0.0000000   0.0000000   0.0000000   2.7928460   2.7928460   2.7928460   2.7928460   2.7928460   2.7928460   2.7928460
 AtZNuc=   8.0000000   8.0000000   6.0000000   1.0000000   1.0000000   1.0000000   1.0000000   1.0000000   1.0000000   1.0000000

  Atom       131         132         133         134         135         136         137         138         139         140
 IAtWgt=           1           1           1           1           1           1           1           1           1           1
 AtmWgt=   1.0078250   1.0078250   1.0078250   1.0078250   1.0078250   1.0078250   1.0078250   1.0078250   1.0078250   1.0078250
 NucSpn=           1           1           1           1           1           1           1           1           1           1
 AtZEff=  -0.0000000  -0.0000000  -0.0000000  -0.0000000  -0.0000000  -0.0000000  -0.0000000  -0.0000000  -0.0000000  -0.0000000
 NQMom=    0.0000000   0.0000000   0.0000000   0.0000000   0.0000000   0.0000000   0.0000000   0.0000000   0.0000000   0.0000000
 NMagM=    2.7928460   2.7928460   2.7928460   2.7928460   2.7928460   2.7928460   2.7928460   2.7928460   2.7928460   2.7928460
 AtZNuc=   1.0000000   1.0000000   1.0000000   1.0000000   1.0000000   1.0000000   1.0000000   1.0000000   1.0000000   1.0000000

  Atom       141         142         143         144         145         146         147         148         149         150
 IAtWgt=           1           1           1           1           1           1           1           1           1           1
 AtmWgt=   1.0078250   1.0078250   1.0078250   1.0078250   1.0078250   1.0078250   1.0078250   1.0078250   1.0078250   1.0078250
 NucSpn=           1           1           1           1           1           1           1           1           1           1
 AtZEff=  -0.0000000  -0.0000000  -0.0000000  -0.0000000  -0.0000000  -0.0000000  -0.0000000  -0.0000000  -0.0000000  -0.0000000
 NQMom=    0.0000000   0.0000000   0.0000000   0.0000000   0.0000000   0.0000000   0.0000000   0.0000000   0.0000000   0.0000000
 NMagM=    2.7928460   2.7928460   2.7928460   2.7928460   2.7928460   2.7928460   2.7928460   2.7928460   2.7928460   2.7928460
 AtZNuc=   1.0000000   1.0000000   1.0000000   1.0000000   1.0000000   1.0000000   1.0000000   1.0000000   1.0000000   1.0000000

  Atom       151         152         153         154         155         156         157         158
 IAtWgt=           1           1           1           1           1           1           1           1
 AtmWgt=   1.0078250   1.0078250   1.0078250   1.0078250   1.0078250   1.0078250   1.0078250   1.0078250
 NucSpn=           1           1           1           1           1           1           1           1
 AtZEff=  -0.0000000  -0.0000000  -0.0000000  -0.0000000  -0.0000000  -0.0000000  -0.0000000  -0.0000000
 NQMom=    0.0000000   0.0000000   0.0000000   0.0000000   0.0000000   0.0000000   0.0000000   0.0000000
 NMagM=    2.7928460   2.7928460   2.7928460   2.7928460   2.7928460   2.7928460   2.7928460   2.7928460
 AtZNuc=   1.0000000   1.0000000   1.0000000   1.0000000   1.0000000   1.0000000   1.0000000   1.0000000
 Leave Link  101 at Sat Sep  4 00:14:11 2021, MaxMem= 23488102400 cpu:               3.9 elap:               0.2
 (Enter /sw/apps/gaussian-16.0/g16/l202.exe)
 Stoichiometry    C68H72Mg2N8O8
 Framework group  C1[X(C68H72Mg2N8O8)]
 Deg. of freedom   468
 Full point group                 C1      NOp   1
 Largest Abelian subgroup         C1      NOp   1
 Largest concise Abelian subgroup C1      NOp   1
                         Standard orientation:                         
 ---------------------------------------------------------------------
 Center     Atomic      Atomic             Coordinates (Angstroms)
 Number     Number       Type             X           Y           Z
 ---------------------------------------------------------------------
      1         12           0        4.260793   -1.267845    0.093184
      2          6           0        5.034898    1.597221   -1.907909
      3          6           0        5.827362    0.304347    2.684927
      4          6           0        3.991208   -3.960301    1.746855
      5          6           0        3.788408   -3.030336   -2.876015
      6          7           0        5.262860    0.700199    0.245853
      7          6           0        5.438525    1.729092   -0.577368
      8          6           0        6.023906    2.990081    0.125916
      9          6           0        6.735982    2.280384    1.363363
     10          6           0        5.869832    1.036980    1.461621
     11          6           0        8.173197    1.856556    1.078258
     12          6           0        4.906425    3.979855    0.598478
     13          6           0        5.395436    5.375352    0.996989
     14          1           0        4.552449    6.523836    0.700836
     15          7           0        4.379328   -1.594234    2.037989
     16          6           0        5.046205   -0.842121    2.946221
     17          6           0        4.831813   -1.497528    4.254333
     18          6           0        4.144976   -2.795449    4.005834
     19          6           0        4.168131   -2.848000    2.566362
     20          6           0        5.217250   -0.873421    5.560349
     21          6           0        3.569856   -3.829962    4.920794
     22          8           0        3.226585   -4.989574    4.506019
     23          6           0        3.500110   -3.476878    6.350308
     24          7           0        4.150733   -3.275027   -0.469616
     25          6           0        3.977967   -4.238729    0.441655
     26          6           0        3.646428   -5.550121   -0.206629
     27          6           0        3.388084   -5.227928   -1.749095
     28          6           0        3.714805   -3.714247   -1.731936
     29          6           0        4.715029   -6.645370   -0.086076
     30          6           0        2.032356   -5.683151   -2.345075
     31          6           0        0.906005   -4.886682   -1.725341
     32          7           0        4.208008   -0.786737   -2.022660
     33          6           0        4.018578   -1.680995   -3.086189
     34          6           0        4.170580   -0.908200   -4.332684
     35          6           0        4.456126    0.386951   -3.905024
     36          6           0        4.506849    0.415495   -2.482033
     37          6           0        4.100159   -1.433883   -5.652962
     38          6           0        4.754509    1.748154   -4.319696
     39          8           0        4.758399    2.345287   -5.397152
     40          6           0        5.261315    2.559976   -3.046936
     41          6           0        4.520960    3.869320   -3.018627
     42          8           0        3.291015    3.904410   -2.810375
     43          8           0        5.404321    4.879260   -3.003270
     44          6           0        4.735447    6.206438   -2.945306
     45          1           0        6.494543    0.596143    3.498356
     46          1           0        3.784539   -4.890679    2.279885
     47          1           0        3.571387   -3.495220   -3.839466
     48          1           0        6.759680    3.538349   -0.462697
     49          1           0        6.653712    2.872484    2.274610
     50          1           0        8.428934    1.996462    0.028045
     51          1           0        8.223636    0.800709    1.344971
     52          1           0        8.867435    2.367709    1.745740
     53          1           0        4.508598    3.642364    1.555502
     54          1           0        4.128128    4.073446   -0.159691
     55          1           0        6.415885    5.552517    0.656101
     56          1           0        5.462066    5.416339    2.084224
     57          1           0        5.849569    0.001552    5.414950
     58          1           0        5.856954   -1.587832    6.078137
     59          1           0        4.348574   -0.643241    6.177398
     60          1           0        4.502988   -3.254404    6.715397
     61          1           0        2.980070   -4.300378    6.838421
     62          1           0        2.923326   -2.557972    6.459306
     63          1           0        2.744055   -5.982178    0.224041
     64          1           0        4.132452   -5.694640   -2.394673
     65          1           0        4.351244   -7.562991    0.376890
     66          1           0        5.557571   -6.234478    0.469425
     67          1           0        5.190730   -6.925241   -1.025649
     68          1           0        1.849161   -6.731754   -2.113090
     69          1           0        1.978006   -5.568601   -3.427745
     70          1           0        0.710734   -5.422754   -0.797264
     71          1           0        0.029911   -4.898180   -2.374601
     72          1           0        1.229820   -3.880486   -1.458508
     73          1           0        3.506171   -0.726566   -6.231625
     74          1           0        3.651579   -2.427022   -5.660333
     75          1           0        5.156651   -1.450899   -5.920150
     76          1           0        6.334778    2.699261   -3.171030
     77          1           0        5.098543    6.786209   -3.793988
     78          1           0        4.918874    6.602518   -1.946366
     79          1           0        3.661603    6.213743   -3.135422
     80         12           0       -4.410374    1.014610    0.905470
     81          6           0       -5.055432   -1.295262   -1.764264
     82          6           0       -3.160661    3.149106   -1.443301
     83          6           0       -3.419128    2.880727    3.272427
     84          6           0       -4.633198   -1.679838    3.104555
     85          7           0       -4.191043    0.836718   -1.288269
     86          6           0       -4.527847   -0.062191   -2.200895
     87          6           0       -4.360366    0.416733   -3.667909
     88          6           0       -3.250425    1.551617   -3.425135
     89          6           0       -3.569749    1.899063   -1.972559
     90          6           0       -1.826628    1.024186   -3.488183
     91          6           0       -5.683682    1.023410   -4.253386
     92          6           0       -5.682055    1.226465   -5.770134
     93          1           0       -6.928740    1.018467   -6.501560
     94          7           0       -3.890894    2.929987    0.899385
     95          6           0       -3.425555    3.643587   -0.147284
     96          6           0       -3.171252    4.997119    0.369846
     97          6           0       -3.368357    4.980446    1.844828
     98          6           0       -3.550806    3.560606    2.070357
     99          6           0       -2.859901    6.163757   -0.522037
    100          6           0       -3.376848    6.061790    2.882533
    101          8           0       -3.330004    5.793503    4.134986
    102          6           0       -3.347323    7.445796    2.387401
    103          7           0       -3.864349    0.625738    2.873457
    104          6           0       -3.523484    1.624560    3.706581
    105          6           0       -3.438954    1.139339    5.134101
    106          6           0       -4.032432   -0.345637    5.118960
    107          6           0       -4.285942   -0.501403    3.603419
    108          6           0       -2.039656    1.121638    5.748939
    109          6           0       -5.199659   -0.647070    6.098440
    110          6           0       -6.433161    0.122255    5.683715
    111          7           0       -4.956058   -1.070838    0.759888
    112          6           0       -4.955899   -2.027113    1.798938
    113          6           0       -5.289408   -3.331288    1.190388
    114          6           0       -5.439052   -3.045101   -0.174969
    115          6           0       -5.194826   -1.664081   -0.404379
    116          6           0       -5.369214   -4.574502    1.878989
    117          6           0       -5.737659   -3.599262   -1.475898
    118          8           0       -6.108729   -4.697569   -1.887913
    119          6           0       -5.378536   -2.515240   -2.581492
    120          6           0       -6.533802   -2.430029   -3.540978
    121          8           0       -7.640539   -2.008174   -3.161780
    122          8           0       -6.086400   -2.652722   -4.790221
    123          6           0       -7.193875   -2.567815   -5.779212
    124          1           0       -2.541629    3.797677   -2.063823
    125          1           0       -3.186648    3.500394    4.141586
    126          1           0       -4.818258   -2.550181    3.737746
    127          1           0       -3.981111   -0.334321   -4.350458
    128          1           0       -3.417529    2.411583   -4.068489
    129          1           0       -1.798969   -0.052317   -3.568868
    130          1           0       -1.352401    1.347129   -2.570656
    131          1           0       -1.278991    1.513319   -4.298848
    132          1           0       -5.775651    2.066467   -3.924282
    133          1           0       -6.532337    0.432264   -3.968864
    134          1           0       -4.857230    0.691791   -6.256703
    135          1           0       -5.478978    2.279620   -5.979038
    136          1           0       -2.618124    5.837705   -1.541173
    137          1           0       -1.930536    6.610077   -0.151971
    138          1           0       -3.644965    6.922865   -0.512069
    139          1           0       -2.457685    7.593032    1.779692
    140          1           0       -3.448936    8.075395    3.273495
    141          1           0       -4.208326    7.599678    1.727390
    142          1           0       -4.045780    1.753649    5.787934
    143          1           0       -3.270471   -1.091712    5.388428
    144          1           0       -1.963507    1.717763    6.677868
    145          1           0       -1.336918    1.479987    5.008482
    146          1           0       -1.648639    0.131925    5.978629
    147          1           0       -4.946111   -0.307434    7.105678
    148          1           0       -5.445063   -1.701648    6.166421
    149          1           0       -6.268500    1.109470    6.125745
    150          1           0       -7.329595   -0.345622    6.085629
    151          1           0       -6.469844    0.250244    4.595633
    152          1           0       -6.253765   -5.077647    1.511668
    153          1           0       -5.411592   -4.430145    2.956549
    154          1           0       -4.428485   -5.033235    1.562976
    155          1           0       -4.461001   -2.840508   -3.073348
    156          1           0       -7.199490   -3.510951   -6.334339
    157          1           0       -7.007313   -1.643741   -6.358029
    158          1           0       -8.207225   -2.541967   -5.395935
 ---------------------------------------------------------------------
 Rotational constants (GHZ):           0.0206864           0.0134163           0.0132120
 Leave Link  202 at Sat Sep  4 00:14:11 2021, MaxMem= 23488102400 cpu:               0.2 elap:               0.0
 (Enter /sw/apps/gaussian-16.0/g16/l301.exe)
 Standard basis: def2SVP (5D, 7F)
 Ernie: Thresh=  0.10000D-02 Tol=  0.10000D-05 Strict=F.
 There are  1658 symmetry adapted cartesian basis functions of A   symmetry.
 There are  1572 symmetry adapted basis functions of A   symmetry.
  1572 basis functions,  2678 primitive gaussians,  1658 cartesian basis functions
   312 alpha electrons      312 beta electrons
       nuclear repulsion energy     15482.4739525956 Hartrees.
 IExCor=20419 DFT=T Ex+Corr=CAM-B3LYP ExCW=0 ScaHFX=  1.000000
 ScaDFX=  1.000000  1.000000  1.000000  0.810000 ScalE2=  1.000000  1.000000
 IRadAn=      5 IRanWt=     -1 IRanGd=            0 ICorTp=0 IEmpDi=  4
 HFx  wShort=  0.000000 wLong=  0.330000 cFull=  0.190000 cShort=  0.000000 cLong=  0.460000
 DFx  wShort=  0.000000 wLong=  0.330000 cFull=  0.190000 cShort=  0.000000 cLong=  0.460000
 NAtoms=  158 NActive=  158 NUniq=  158 SFac= 1.00D+00 NAtFMM=   60 NAOKFM=T Big=T
 Integral buffers will be    131072 words long.
 Raffenetti 1 integral format.
 Two-electron integral symmetry is turned on.
 Leave Link  301 at Sat Sep  4 00:14:11 2021, MaxMem= 23488102400 cpu:               1.6 elap:               0.1
 (Enter /sw/apps/gaussian-16.0/g16/l302.exe)
 NPDir=0 NMtPBC=     1 NCelOv=     1 NCel=       1 NClECP=     1 NCelD=      1
         NCelK=      1 NCelE2=     1 NClLst=     1 CellRange=     0.0.
 One-electron integrals computed using PRISM.
 One-electron integral symmetry used in STVInt
   1 Symmetry operations used in ECPInt.
 ECPInt:  NShTT=  271216 NPrTT=  987664 LenC2=  153809 LenP2D=  320285.
 LDataN:  DoStor=T MaxTD1= 4 Len=   56
 NBasis=  1572 RedAO= T EigKep=  3.36D-04  NBF=  1572
 NBsUse=  1572 1.00D-06 EigRej= -1.00D+00 NBFU=  1572
 Precomputing XC quadrature grid using
 IXCGrd= 4 IRadAn=           5 IRanWt=          -1 IRanGd=           0 AccXCQ= 0.00D+00.
 Generated NRdTot=       0 NPtTot=           0 NUsed=           0 NTot=          32
 NSgBfM=  1238  1221  1228  1229  1238 MxSgAt=   158 MxSgA2=   158.
 Leave Link  302 at Sat Sep  4 00:14:17 2021, MaxMem= 23488102400 cpu:             133.5 elap:               5.6
 (Enter /sw/apps/gaussian-16.0/g16/l303.exe)
 DipDrv:  MaxL=1.
 Leave Link  303 at Sat Sep  4 00:14:17 2021, MaxMem= 23488102400 cpu:               8.8 elap:               0.4
 (Enter /sw/apps/gaussian-16.0/g16/l308.exe)
 Leave Link  308 at Sat Sep  4 00:14:18 2021, MaxMem= 23488102400 cpu:              13.4 elap:               0.7
 (Enter /sw/apps/gaussian-16.0/g16/l401.exe)
 ExpMin= 3.36D-02 ExpMax= 4.95D+03 ExpMxC= 7.45D+02 IAcc=3 IRadAn=         5 AccDes= 0.00D+00
 Harris functional with IExCor=20419 and IRadAn=       5 diagonalized for initial guess.
 HarFok:  IExCor=20419 AccDes= 0.00D+00 IRadAn=         5 IDoV= 1 UseB2=F ITyADJ=14
 ICtDFT=  3500011 ScaDFX=  1.000000  1.000000  1.000000  1.000000
 FoFCou: FMM=F IPFlag=           0 FMFlag=      100000 FMFlg1=        2001
         NFxFlg=           0 DoJE=T BraDBF=F KetDBF=T FulRan=T
         wScrn=  0.000000 ICntrl=       500 IOpCl=  0 I1Cent=   200000004 NGrid=           0
         NMat0=    1 NMatS0=      1 NMatT0=    0 NMatD0=    1 NMtDS0=    0 NMtDT0=    0
 Petite list used in FoFCou.
 Harris En= -3918.65799860972    
 JPrj=0 DoOrth=F DoCkMO=F.
 Leave Link  401 at Sat Sep  4 00:14:26 2021, MaxMem= 23488102400 cpu:             203.2 elap:               8.5
 (Enter /sw/apps/gaussian-16.0/g16/l502.exe)
 Integral symmetry usage will be decided dynamically.
 Closed shell SCF:
 Using DIIS extrapolation, IDIIS=  1040.
 NGot= 23488102400 LenX= 23482547354 LenY= 23479796732
 Requested convergence on RMS density matrix=1.00D-08 within 128 cycles.
 Requested convergence on MAX density matrix=1.00D-06.
 Requested convergence on             energy=1.00D-06.
 No special actions if energy rises.
 Fock matrices will be formed incrementally for  20 cycles.

 Cycle   1  Pass 1  IDiag  1:
 FoFJK:  IHMeth= 1 ICntrl=       0 DoSepK=T KAlg= 0 I1Cent=           0 FoldK=F
 IRaf=         1 NMat=       1 IRICut=       1 DoRegI=T DoRafI=F ISym2E= 0 IDoP0=0 IntGTp=1.
 FoFCou: FMM=T IPFlag=           0 FMFlag=      100000 FMFlg1=        2001
         NFxFlg=           0 DoJE=T BraDBF=F KetDBF=F FulRan=T
         wScrn=  0.000000 ICntrl=       500 IOpCl=  0 I1Cent=           0 NGrid=           0
         NMat0=    1 NMatS0=      1 NMatT0=    0 NMatD0=    1 NMtDS0=    0 NMtDT0=    0
 Symmetry not used in FoFCou.
 FMM levels:  10  Number of levels for PrismC:   9
 E= -4068.95145485139    
 DIIS: error= 2.04D-02 at cycle   1 NSaved=   1.
 NSaved= 1 IEnMin= 1 EnMin= -4068.95145485139     IErMin= 1 ErrMin= 2.04D-02
 ErrMax= 2.04D-02  0.00D+00 EMaxC= 1.00D-01 BMatC= 1.69D+00 BMatP= 1.69D+00
 IDIUse=3 WtCom= 7.96D-01 WtEn= 2.04D-01
 Coeff-Com:  0.100D+01
 Coeff-En:   0.100D+01
 Coeff:      0.100D+01
 Gap=     0.120 Goal=   None    Shift=    0.000
 GapD=    0.120 DampG=1.000 DampE=0.500 DampFc=0.5000 IDamp=-1.
 Damping current iteration by 5.00D-01
 RMSDP=1.57D-03 MaxDP=1.36D-01              OVMax= 1.95D-01

 Cycle   2  Pass 1  IDiag  1:
 RMSU=  7.69D-04    CP:  9.82D-01
 E= -4069.34032394059     Delta-E=       -0.388869089205 Rises=F Damp=T
 DIIS: error= 1.27D-02 at cycle   2 NSaved=   2.
 NSaved= 2 IEnMin= 2 EnMin= -4069.34032394059     IErMin= 2 ErrMin= 1.27D-02
 ErrMax= 1.27D-02  0.00D+00 EMaxC= 1.00D-01 BMatC= 3.06D-01 BMatP= 1.69D+00
 IDIUse=3 WtCom= 8.73D-01 WtEn= 1.27D-01
 Coeff-Com: -0.214D+00 0.121D+01
 Coeff-En:   0.000D+00 0.100D+01
 Coeff:     -0.187D+00 0.119D+01
 Gap=     0.133 Goal=   None    Shift=    0.000
 RMSDP=7.63D-04 MaxDP=9.47D-02 DE=-3.89D-01 OVMax= 1.85D-01

 Cycle   3  Pass 1  IDiag  1:
 RMSU=  7.30D-04    CP:  9.68D-01  1.24D+00
 E= -4069.63168612878     Delta-E=       -0.291362188185 Rises=F Damp=F
 DIIS: error= 1.54D-02 at cycle   3 NSaved=   3.
 NSaved= 3 IEnMin= 3 EnMin= -4069.63168612878     IErMin= 2 ErrMin= 1.27D-02
 ErrMax= 1.54D-02  0.00D+00 EMaxC= 1.00D-01 BMatC= 1.99D-01 BMatP= 3.06D-01
 IDIUse=3 WtCom= 8.46D-01 WtEn= 1.54D-01
 Coeff-Com: -0.267D+00 0.650D+00 0.617D+00
 Coeff-En:   0.000D+00 0.000D+00 0.100D+01
 Coeff:     -0.226D+00 0.550D+00 0.676D+00
 Gap=     0.120 Goal=   None    Shift=    0.000
 RMSDP=5.02D-04 MaxDP=4.69D-02 DE=-2.91D-01 OVMax= 1.31D-01

 Cycle   4  Pass 1  IDiag  1:
 RMSU=  2.62D-04    CP:  9.65D-01  1.55D+00  5.11D-01
 E= -4069.76843462153     Delta-E=       -0.136748492750 Rises=F Damp=F
 DIIS: error= 6.98D-03 at cycle   4 NSaved=   4.
 NSaved= 4 IEnMin= 4 EnMin= -4069.76843462153     IErMin= 4 ErrMin= 6.98D-03
 ErrMax= 6.98D-03  0.00D+00 EMaxC= 1.00D-01 BMatC= 4.81D-02 BMatP= 1.99D-01
 IDIUse=3 WtCom= 9.30D-01 WtEn= 6.98D-02
 Coeff-Com: -0.108D+00 0.224D+00 0.406D+00 0.477D+00
 Coeff-En:   0.000D+00 0.000D+00 0.213D+00 0.787D+00
 Coeff:     -0.101D+00 0.209D+00 0.393D+00 0.499D+00
 Gap=     0.120 Goal=   None    Shift=    0.000
 RMSDP=1.94D-04 MaxDP=1.97D-02 DE=-1.37D-01 OVMax= 5.41D-02

 Cycle   5  Pass 1  IDiag  1:
 RMSU=  7.34D-05    CP:  9.64D-01  1.49D+00  6.90D-01  5.59D-01
 E= -4069.81164944436     Delta-E=       -0.043214822828 Rises=F Damp=F
 DIIS: error= 7.78D-04 at cycle   5 NSaved=   5.
 NSaved= 5 IEnMin= 5 EnMin= -4069.81164944436     IErMin= 5 ErrMin= 7.78D-04
 ErrMax= 7.78D-04  0.00D+00 EMaxC= 1.00D-01 BMatC= 1.04D-03 BMatP= 4.81D-02
 IDIUse=3 WtCom= 9.92D-01 WtEn= 7.78D-03
 Coeff-Com: -0.348D-01 0.682D-01 0.160D+00 0.245D+00 0.562D+00
 Coeff-En:   0.000D+00 0.000D+00 0.000D+00 0.000D+00 0.100D+01
 Coeff:     -0.345D-01 0.677D-01 0.159D+00 0.243D+00 0.565D+00
 Gap=     0.119 Goal=   None    Shift=    0.000
 RMSDP=3.88D-05 MaxDP=4.26D-03 DE=-4.32D-02 OVMax= 1.38D-02

 Cycle   6  Pass 1  IDiag  1:
 RMSU=  2.96D-05    CP:  9.64D-01  1.50D+00  6.82D-01  6.27D-01  7.73D-01
 E= -4069.81252476198     Delta-E=       -0.000875317623 Rises=F Damp=F
 DIIS: error= 2.26D-04 at cycle   6 NSaved=   6.
 NSaved= 6 IEnMin= 6 EnMin= -4069.81252476198     IErMin= 6 ErrMin= 2.26D-04
 ErrMax= 2.26D-04  0.00D+00 EMaxC= 1.00D-01 BMatC= 1.70D-04 BMatP= 1.04D-03
 IDIUse=3 WtCom= 9.98D-01 WtEn= 2.26D-03
 Coeff-Com:  0.222D-02-0.655D-02 0.106D-01 0.393D-01 0.314D+00 0.640D+00
 Coeff-En:   0.000D+00 0.000D+00 0.000D+00 0.000D+00 0.113D+00 0.887D+00
 Coeff:      0.221D-02-0.654D-02 0.106D-01 0.392D-01 0.314D+00 0.641D+00
 Gap=     0.119 Goal=   None    Shift=    0.000
 RMSDP=1.55D-05 MaxDP=1.25D-03 DE=-8.75D-04 OVMax= 6.16D-03

 Cycle   7  Pass 1  IDiag  1:
 RMSU=  1.04D-05    CP:  9.64D-01  1.50D+00  6.88D-01  6.26D-01  8.72D-01
                    CP:  7.39D-01
 E= -4069.81270437156     Delta-E=       -0.000179609578 Rises=F Damp=F
 DIIS: error= 8.56D-05 at cycle   7 NSaved=   7.
 NSaved= 7 IEnMin= 7 EnMin= -4069.81270437156     IErMin= 7 ErrMin= 8.56D-05
 ErrMax= 8.56D-05  0.00D+00 EMaxC= 1.00D-01 BMatC= 2.00D-05 BMatP= 1.70D-04
 IDIUse=1 WtCom= 1.00D+00 WtEn= 0.00D+00
 Coeff-Com:  0.437D-02-0.955D-02-0.882D-02-0.386D-02 0.105D+00 0.328D+00
 Coeff-Com:  0.586D+00
 Coeff:      0.437D-02-0.955D-02-0.882D-02-0.386D-02 0.105D+00 0.328D+00
 Coeff:      0.586D+00
 Gap=     0.120 Goal=   None    Shift=    0.000
 RMSDP=6.48D-06 MaxDP=1.23D-03 DE=-1.80D-04 OVMax= 3.32D-03

 Cycle   8  Pass 1  IDiag  1:
 RMSU=  4.60D-06    CP:  9.64D-01  1.50D+00  6.89D-01  6.31D-01  8.77D-01
                    CP:  8.69D-01  8.18D-01
 E= -4069.81272894246     Delta-E=       -0.000024570905 Rises=F Damp=F
 DIIS: error= 4.20D-05 at cycle   8 NSaved=   8.
 NSaved= 8 IEnMin= 8 EnMin= -4069.81272894246     IErMin= 8 ErrMin= 4.20D-05
 ErrMax= 4.20D-05  0.00D+00 EMaxC= 1.00D-01 BMatC= 4.64D-06 BMatP= 2.00D-05
 IDIUse=1 WtCom= 1.00D+00 WtEn= 0.00D+00
 Coeff-Com:  0.215D-02-0.426D-02-0.774D-02-0.122D-01-0.128D-01 0.358D-01
 Coeff-Com:  0.346D+00 0.653D+00
 Coeff:      0.215D-02-0.426D-02-0.774D-02-0.122D-01-0.128D-01 0.358D-01
 Coeff:      0.346D+00 0.653D+00
 Gap=     0.120 Goal=   None    Shift=    0.000
 RMSDP=3.23D-06 MaxDP=3.67D-04 DE=-2.46D-05 OVMax= 1.17D-03

 Cycle   9  Pass 1  IDiag  1:
 RMSU=  1.88D-06    CP:  9.64D-01  1.50D+00  6.89D-01  6.33D-01  8.94D-01
                    CP:  8.94D-01  1.02D+00  9.23D-01
 E= -4069.81273630039     Delta-E=       -0.000007357925 Rises=F Damp=F
 DIIS: error= 2.14D-05 at cycle   9 NSaved=   9.
 NSaved= 9 IEnMin= 9 EnMin= -4069.81273630039     IErMin= 9 ErrMin= 2.14D-05
 ErrMax= 2.14D-05  0.00D+00 EMaxC= 1.00D-01 BMatC= 6.71D-07 BMatP= 4.64D-06
 IDIUse=1 WtCom= 1.00D+00 WtEn= 0.00D+00
 Coeff-Com:  0.490D-03-0.824D-03-0.273D-02-0.610D-02-0.225D-01-0.359D-01
 Coeff-Com:  0.107D+00 0.332D+00 0.629D+00
 Coeff:      0.490D-03-0.824D-03-0.273D-02-0.610D-02-0.225D-01-0.359D-01
 Coeff:      0.107D+00 0.332D+00 0.629D+00
 Gap=     0.120 Goal=   None    Shift=    0.000
 RMSDP=1.36D-06 MaxDP=1.57D-04 DE=-7.36D-06 OVMax= 7.56D-04

 Cycle  10  Pass 1  IDiag  1:
 RMSU=  9.14D-07    CP:  9.64D-01  1.50D+00  6.89D-01  6.33D-01  8.97D-01
                    CP:  9.08D-01  1.06D+00  1.09D+00  1.03D+00
 E= -4069.81273777995     Delta-E=       -0.000001479559 Rises=F Damp=F
 DIIS: error= 1.03D-05 at cycle  10 NSaved=  10.
 NSaved=10 IEnMin=10 EnMin= -4069.81273777995     IErMin=10 ErrMin= 1.03D-05
 ErrMax= 1.03D-05  0.00D+00 EMaxC= 1.00D-01 BMatC= 1.57D-07 BMatP= 6.71D-07
 IDIUse=1 WtCom= 1.00D+00 WtEn= 0.00D+00
 Coeff-Com: -0.411D-03 0.862D-03 0.117D-02 0.107D-02-0.422D-02-0.300D-01
 Coeff-Com: -0.460D-01-0.703D-01 0.253D+00 0.895D+00
 Coeff:     -0.411D-03 0.862D-03 0.117D-02 0.107D-02-0.422D-02-0.300D-01
 Coeff:     -0.460D-01-0.703D-01 0.253D+00 0.895D+00
 Gap=     0.120 Goal=   None    Shift=    0.000
 RMSDP=1.16D-06 MaxDP=1.23D-04 DE=-1.48D-06 OVMax= 5.78D-04

 Cycle  11  Pass 1  IDiag  1:
 RMSU=  4.89D-07    CP:  9.64D-01  1.50D+00  6.89D-01  6.33D-01  9.00D-01
                    CP:  9.18D-01  1.11D+00  1.19D+00  1.36D+00  1.36D+00
 E= -4069.81273848998     Delta-E=       -0.000000710028 Rises=F Damp=F
 DIIS: error= 4.02D-06 at cycle  11 NSaved=  11.
 NSaved=11 IEnMin=11 EnMin= -4069.81273848998     IErMin=11 ErrMin= 4.02D-06
 ErrMax= 4.02D-06  0.00D+00 EMaxC= 1.00D-01 BMatC= 5.28D-08 BMatP= 1.57D-07
 IDIUse=1 WtCom= 1.00D+00 WtEn= 0.00D+00
 Coeff-Com: -0.317D-03 0.616D-03 0.128D-02 0.207D-02 0.435D-02-0.812D-02
 Coeff-Com: -0.429D-01-0.127D+00-0.215D-01 0.447D+00 0.745D+00
 Coeff:     -0.317D-03 0.616D-03 0.128D-02 0.207D-02 0.435D-02-0.812D-02
 Coeff:     -0.429D-01-0.127D+00-0.215D-01 0.447D+00 0.745D+00
 Gap=     0.120 Goal=   None    Shift=    0.000
 RMSDP=6.43D-07 MaxDP=5.67D-05 DE=-7.10D-07 OVMax= 3.42D-04

 Cycle  12  Pass 1  IDiag  1:
 RMSU=  2.48D-07    CP:  9.64D-01  1.50D+00  6.89D-01  6.33D-01  9.01D-01
                    CP:  9.20D-01  1.13D+00  1.25D+00  1.52D+00  1.73D+00
                    CP:  1.22D+00
 E= -4069.81273872180     Delta-E=       -0.000000231823 Rises=F Damp=F
 DIIS: error= 2.37D-06 at cycle  12 NSaved=  12.
 NSaved=12 IEnMin=12 EnMin= -4069.81273872180     IErMin=12 ErrMin= 2.37D-06
 ErrMax= 2.37D-06  0.00D+00 EMaxC= 1.00D-01 BMatC= 1.28D-08 BMatP= 5.28D-08
 IDIUse=1 WtCom= 1.00D+00 WtEn= 0.00D+00
 Coeff-Com:  0.477D-05-0.249D-04 0.147D-03 0.457D-03 0.314D-02 0.388D-02
 Coeff-Com:  0.368D-02-0.315D-01-0.632D-01-0.901D-01 0.237D+00 0.937D+00
 Coeff:      0.477D-05-0.249D-04 0.147D-03 0.457D-03 0.314D-02 0.388D-02
 Coeff:      0.368D-02-0.315D-01-0.632D-01-0.901D-01 0.237D+00 0.937D+00
 Gap=     0.120 Goal=   None    Shift=    0.000
 RMSDP=4.13D-07 MaxDP=2.68D-05 DE=-2.32D-07 OVMax= 2.35D-04

 Cycle  13  Pass 1  IDiag  1:
 RMSU=  1.55D-07    CP:  9.64D-01  1.50D+00  6.89D-01  6.34D-01  9.01D-01
                    CP:  9.20D-01  1.14D+00  1.28D+00  1.62D+00  1.95D+00
                    CP:  1.63D+00  1.31D+00
 E= -4069.81273880324     Delta-E=       -0.000000081436 Rises=F Damp=F
 DIIS: error= 1.33D-06 at cycle  13 NSaved=  13.
 NSaved=13 IEnMin=13 EnMin= -4069.81273880324     IErMin=13 ErrMin= 1.33D-06
 ErrMax= 1.33D-06  0.00D+00 EMaxC= 1.00D-01 BMatC= 6.99D-09 BMatP= 1.28D-08
 IDIUse=1 WtCom= 1.00D+00 WtEn= 0.00D+00
 Coeff-Com:  0.117D-03-0.239D-03-0.364D-03-0.459D-03 0.488D-03 0.478D-02
 Coeff-Com:  0.196D-01 0.223D-01-0.310D-01-0.238D+00-0.159D+00 0.601D+00
 Coeff-Com:  0.779D+00
 Coeff:      0.117D-03-0.239D-03-0.364D-03-0.459D-03 0.488D-03 0.478D-02
 Coeff:      0.196D-01 0.223D-01-0.310D-01-0.238D+00-0.159D+00 0.601D+00
 Coeff:      0.779D+00
 Gap=     0.120 Goal=   None    Shift=    0.000
 RMSDP=3.09D-07 MaxDP=2.06D-05 DE=-8.14D-08 OVMax= 1.75D-04

 Cycle  14  Pass 1  IDiag  1:
 RMSU=  7.16D-08    CP:  9.64D-01  1.50D+00  6.89D-01  6.34D-01  9.01D-01
                    CP:  9.21D-01  1.14D+00  1.30D+00  1.69D+00  2.13D+00
                    CP:  1.89D+00  1.82D+00  1.08D+00
 E= -4069.81273883398     Delta-E=       -0.000000030745 Rises=F Damp=F
 DIIS: error= 7.52D-07 at cycle  14 NSaved=  14.
 NSaved=14 IEnMin=14 EnMin= -4069.81273883398     IErMin=14 ErrMin= 7.52D-07
 ErrMax= 7.52D-07  0.00D+00 EMaxC= 1.00D-01 BMatC= 1.11D-09 BMatP= 6.99D-09
 IDIUse=1 WtCom= 1.00D+00 WtEn= 0.00D+00
 Coeff-Com:  0.644D-04-0.127D-03-0.238D-03-0.378D-03-0.502D-03 0.123D-02
 Coeff-Com:  0.107D-01 0.184D-01 0.385D-02-0.959D-01-0.141D+00 0.958D-01
 Coeff-Com:  0.402D+00 0.707D+00
 Coeff:      0.644D-04-0.127D-03-0.238D-03-0.378D-03-0.502D-03 0.123D-02
 Coeff:      0.107D-01 0.184D-01 0.385D-02-0.959D-01-0.141D+00 0.958D-01
 Coeff:      0.402D+00 0.707D+00
 Gap=     0.120 Goal=   None    Shift=    0.000
 RMSDP=9.41D-08 MaxDP=7.09D-06 DE=-3.07D-08 OVMax= 5.15D-05

 Cycle  15  Pass 1  IDiag  1:
 RMSU=  3.67D-08    CP:  9.64D-01  1.50D+00  6.89D-01  6.34D-01  9.01D-01
                    CP:  9.21D-01  1.14D+00  1.30D+00  1.70D+00  2.17D+00
                    CP:  1.99D+00  1.96D+00  1.32D+00  1.02D+00
 E= -4069.81273883731     Delta-E=       -0.000000003332 Rises=F Damp=F
 DIIS: error= 3.26D-07 at cycle  15 NSaved=  15.
 NSaved=15 IEnMin=15 EnMin= -4069.81273883731     IErMin=15 ErrMin= 3.26D-07
 ErrMax= 3.26D-07  0.00D+00 EMaxC= 1.00D-01 BMatC= 2.19D-10 BMatP= 1.11D-09
 IDIUse=1 WtCom= 1.00D+00 WtEn= 0.00D+00
 Coeff-Com:  0.492D-05-0.813D-05-0.299D-04-0.768D-04-0.297D-03-0.497D-03
 Coeff-Com:  0.112D-02 0.232D-02 0.834D-02 0.282D-02-0.309D-01-0.735D-01
 Coeff-Com:  0.226D-01 0.306D+00 0.762D+00
 Coeff:      0.492D-05-0.813D-05-0.299D-04-0.768D-04-0.297D-03-0.497D-03
 Coeff:      0.112D-02 0.232D-02 0.834D-02 0.282D-02-0.309D-01-0.735D-01
 Coeff:      0.226D-01 0.306D+00 0.762D+00
 Gap=     0.120 Goal=   None    Shift=    0.000
 RMSDP=4.02D-08 MaxDP=2.52D-06 DE=-3.33D-09 OVMax= 2.74D-05

 Cycle  16  Pass 1  IDiag  1:
 RMSU=  1.77D-08    CP:  9.64D-01  1.50D+00  6.89D-01  6.34D-01  9.01D-01
                    CP:  9.21D-01  1.14D+00  1.31D+00  1.71D+00  2.19D+00
                    CP:  2.02D+00  2.02D+00  1.40D+00  1.24D+00  1.14D+00
 E= -4069.81273883805     Delta-E=       -0.000000000742 Rises=F Damp=F
 DIIS: error= 1.79D-07 at cycle  16 NSaved=  16.
 NSaved=16 IEnMin=16 EnMin= -4069.81273883805     IErMin=16 ErrMin= 1.79D-07
 ErrMax= 1.79D-07  0.00D+00 EMaxC= 1.00D-01 BMatC= 7.28D-11 BMatP= 2.19D-10
 IDIUse=1 WtCom= 1.00D+00 WtEn= 0.00D+00
 Coeff-Com: -0.138D-04 0.279D-04 0.458D-04 0.534D-04-0.211D-04-0.609D-03
 Coeff-Com: -0.193D-02-0.415D-02 0.429D-02 0.252D-01 0.200D-01-0.638D-01
 Coeff-Com: -0.873D-01-0.253D-01 0.393D+00 0.740D+00
 Coeff:     -0.138D-04 0.279D-04 0.458D-04 0.534D-04-0.211D-04-0.609D-03
 Coeff:     -0.193D-02-0.415D-02 0.429D-02 0.252D-01 0.200D-01-0.638D-01
 Coeff:     -0.873D-01-0.253D-01 0.393D+00 0.740D+00
 Gap=     0.120 Goal=   None    Shift=    0.000
 RMSDP=2.16D-08 MaxDP=1.38D-06 DE=-7.42D-10 OVMax= 1.11D-05

 Cycle  17  Pass 1  IDiag  1:
 RMSU=  1.01D-08    CP:  9.64D-01  1.50D+00  6.89D-01  6.34D-01  9.01D-01
                    CP:  9.21D-01  1.14D+00  1.31D+00  1.71D+00  2.19D+00
                    CP:  2.03D+00  2.05D+00  1.45D+00  1.34D+00  1.43D+00
                    CP:  1.24D+00
 E= -4069.81273883841     Delta-E=       -0.000000000353 Rises=F Damp=F
 DIIS: error= 1.07D-07 at cycle  17 NSaved=  17.
 NSaved=17 IEnMin=17 EnMin= -4069.81273883841     IErMin=17 ErrMin= 1.07D-07
 ErrMax= 1.07D-07  0.00D+00 EMaxC= 1.00D-01 BMatC= 1.76D-11 BMatP= 7.28D-11
 IDIUse=1 WtCom= 1.00D+00 WtEn= 0.00D+00
 Coeff-Com: -0.716D-05 0.140D-04 0.282D-04 0.422D-04 0.846D-04-0.131D-03
 Coeff-Com: -0.972D-03-0.278D-02 0.234D-03 0.934D-02 0.174D-01-0.735D-02
 Coeff-Com: -0.403D-01-0.981D-01-0.327D-01 0.316D+00 0.839D+00
 Coeff:     -0.716D-05 0.140D-04 0.282D-04 0.422D-04 0.846D-04-0.131D-03
 Coeff:     -0.972D-03-0.278D-02 0.234D-03 0.934D-02 0.174D-01-0.735D-02
 Coeff:     -0.403D-01-0.981D-01-0.327D-01 0.316D+00 0.839D+00
 Gap=     0.120 Goal=   None    Shift=    0.000
 RMSDP=1.32D-08 MaxDP=8.80D-07 DE=-3.53D-10 OVMax= 8.95D-06

 Cycle  18  Pass 1  IDiag  1:
 RMSU=  4.71D-09    CP:  9.64D-01  1.50D+00  6.89D-01  6.34D-01  9.01D-01
                    CP:  9.21D-01  1.14D+00  1.31D+00  1.71D+00  2.19D+00
                    CP:  2.03D+00  2.06D+00  1.47D+00  1.41D+00  1.60D+00
                    CP:  1.66D+00  1.37D+00
 E= -4069.81273883822     Delta-E=        0.000000000189 Rises=F Damp=F
 DIIS: error= 5.81D-08 at cycle  18 NSaved=  18.
 NSaved=18 IEnMin=17 EnMin= -4069.81273883841     IErMin=18 ErrMin= 5.81D-08
 ErrMax= 5.81D-08  0.00D+00 EMaxC= 1.00D-01 BMatC= 6.41D-12 BMatP= 1.76D-11
 IDIUse=1 WtCom= 1.00D+00 WtEn= 0.00D+00
 Coeff-Com:  0.181D-05-0.393D-05-0.383D-05-0.108D-05 0.591D-04 0.168D-03
 Coeff-Com:  0.374D-03 0.124D-03-0.117D-02-0.592D-02 0.300D-03 0.206D-01
 Coeff-Com:  0.174D-01-0.360D-01-0.164D+00-0.165D+00 0.346D+00 0.987D+00
 Coeff:      0.181D-05-0.393D-05-0.383D-05-0.108D-05 0.591D-04 0.168D-03
 Coeff:      0.374D-03 0.124D-03-0.117D-02-0.592D-02 0.300D-03 0.206D-01
 Coeff:      0.174D-01-0.360D-01-0.164D+00-0.165D+00 0.346D+00 0.987D+00
 Gap=     0.120 Goal=   None    Shift=    0.000
 RMSDP=1.11D-08 MaxDP=7.04D-07 DE= 1.89D-10 OVMax= 6.13D-06

 Cycle  19  Pass 1  IDiag  1:
 RMSU=  2.89D-09    CP:  9.64D-01  1.50D+00  6.89D-01  6.34D-01  9.01D-01
                    CP:  9.21D-01  1.14D+00  1.31D+00  1.71D+00  2.19D+00
                    CP:  2.04D+00  2.06D+00  1.48D+00  1.46D+00  1.75D+00
                    CP:  1.99D+00  1.90D+00  1.35D+00
 E= -4069.81273883865     Delta-E=       -0.000000000429 Rises=F Damp=F
 DIIS: error= 3.32D-08 at cycle  19 NSaved=  19.
 NSaved=19 IEnMin=19 EnMin= -4069.81273883865     IErMin=19 ErrMin= 3.32D-08
 ErrMax= 3.32D-08  0.00D+00 EMaxC= 1.00D-01 BMatC= 1.78D-12 BMatP= 6.41D-12
 IDIUse=1 WtCom= 1.00D+00 WtEn= 0.00D+00
 Coeff-Com:  0.308D-05-0.621D-05-0.104D-04-0.131D-04 0.124D-04 0.127D-03
 Coeff-Com:  0.516D-03 0.823D-03-0.620D-03-0.639D-02-0.500D-02 0.139D-01
 Coeff-Com:  0.223D-01 0.874D-02-0.827D-01-0.190D+00-0.376D-01 0.553D+00
 Coeff-Com:  0.723D+00
 Coeff:      0.308D-05-0.621D-05-0.104D-04-0.131D-04 0.124D-04 0.127D-03
 Coeff:      0.516D-03 0.823D-03-0.620D-03-0.639D-02-0.500D-02 0.139D-01
 Coeff:      0.223D-01 0.874D-02-0.827D-01-0.190D+00-0.376D-01 0.553D+00
 Coeff:      0.723D+00
 Gap=     0.120 Goal=   None    Shift=    0.000
 RMSDP=5.04D-09 MaxDP=3.00D-07 DE=-4.29D-10 OVMax= 3.50D-06

 SCF Done:  E(RCAM-B3LYP) =  -4069.81273884     A.U. after   19 cycles
            NFock= 19  Conv=0.50D-08     -V/T= 2.0102
 KE= 4.028801444788D+03 PE=-4.044602262619D+04 EE= 1.686493448997D+04
 Leave Link  502 at Sat Sep  4 00:25:55 2021, MaxMem= 23488102400 cpu:           15854.8 elap:             688.7
 (Enter /sw/apps/gaussian-16.0/g16/l801.exe)
 DoSCS=F DFT=T ScalE2(SS,OS)=  1.000000  1.000000
 ExpMin= 3.36D-02 ExpMax= 4.95D+03 ExpMxC= 7.45D+02 IAcc=3 IRadAn=         5 AccDes= 0.00D+00
 HarFok:  IExCor=  205 AccDes= 0.00D+00 IRadAn=         5 IDoV=-2 UseB2=F ITyADJ=14
 ICtDFT= 12500011 ScaDFX=  1.000000  1.000000  1.000000  1.000000
 GSVD:  LWork=       -9588 too small for GESVD, short by       45590 words or       45590 for optimal perf.
 Largest valence mixing into a core orbital is  2.03D-04
 Largest core mixing into a valence orbital is  5.23D-05
 Range of M.O.s used for correlation:    95  1572
 NBasis=  1572 NAE=   312 NBE=   312 NFC=    94 NFV=     0
 NROrb=   1478 NOA=   218 NOB=   218 NVA=  1260 NVB=  1260
 Leave Link  801 at Sat Sep  4 00:25:56 2021, MaxMem= 23488102400 cpu:               8.1 elap:               0.4
 (Enter /sw/apps/gaussian-16.0/g16/l914.exe)
 RHF ground state
 Two-electron integrals replicated using symmetry.
 MDV= 23488102400 DFT=T DoStab=F Mixed=T DoRPA=T DoScal=F NonHer=T
 Making orbital integer symmetry assigments:
 Orbital symmetries:
       Occupied  (A) (A) (A) (A) (A) (A) (A) (A) (A) (A) (A) (A)
                 (A) (A) (A) (A) (A) (A) (A) (A) (A) (A) (A) (A)
                 (A) (A) (A) (A) (A) (A) (A) (A) (A) (A) (A) (A)
                 (A) (A) (A) (A) (A) (A) (A) (A) (A) (A) (A) (A)
                 (A) (A) (A) (A) (A) (A) (A) (A) (A) (A) (A) (A)
                 (A) (A) (A) (A) (A) (A) (A) (A) (A) (A) (A) (A)
                 (A) (A) (A) (A) (A) (A) (A) (A) (A) (A) (A) (A)
                 (A) (A) (A) (A) (A) (A) (A) (A) (A) (A) (A) (A)
                 (A) (A) (A) (A) (A) (A) (A) (A) (A) (A) (A) (A)
                 (A) (A) (A) (A) (A) (A) (A) (A) (A) (A) (A) (A)
                 (A) (A) (A) (A) (A) (A) (A) (A) (A) (A) (A) (A)
                 (A) (A) (A) (A) (A) (A) (A) (A) (A) (A) (A) (A)
                 (A) (A) (A) (A) (A) (A) (A) (A) (A) (A) (A) (A)
                 (A) (A) (A) (A) (A) (A) (A) (A) (A) (A) (A) (A)
                 (A) (A) (A) (A) (A) (A) (A) (A) (A) (A) (A) (A)
                 (A) (A) (A) (A) (A) (A) (A) (A) (A) (A) (A) (A)
                 (A) (A) (A) (A) (A) (A) (A) (A) (A) (A) (A) (A)
                 (A) (A) (A) (A) (A) (A) (A) (A) (A) (A) (A) (A)
                 (A) (A) (A) (A) (A) (A) (A) (A) (A) (A) (A) (A)
                 (A) (A) (A) (A) (A) (A) (A) (A) (A) (A) (A) (A)
                 (A) (A) (A) (A) (A) (A) (A) (A) (A) (A) (A) (A)
                 (A) (A) (A) (A) (A) (A) (A) (A) (A) (A) (A) (A)
                 (A) (A) (A) (A) (A) (A) (A) (A) (A) (A) (A) (A)
                 (A) (A) (A) (A) (A) (A) (A) (A) (A) (A) (A) (A)
                 (A) (A) (A) (A) (A) (A) (A) (A) (A) (A) (A) (A)
                 (A) (A) (A) (A) (A) (A) (A) (A) (A) (A) (A) (A)
       Virtual   (A) (A) (A) (A) (A) (A) (A) (A) (A) (A) (A) (A)
                 (A) (A) (A) (A) (A) (A) (A) (A) (A) (A) (A) (A)
                 (A) (A) (A) (A) (A) (A) (A) (A) (A) (A) (A) (A)
                 (A) (A) (A) (A) (A) (A) (A) (A) (A) (A) (A) (A)
                 (A) (A) (A) (A) (A) (A) (A) (A) (A) (A) (A) (A)
                 (A) (A) (A) (A) (A) (A) (A) (A) (A) (A) (A) (A)
                 (A) (A) (A) (A) (A) (A) (A) (A) (A) (A) (A) (A)
                 (A) (A) (A) (A) (A) (A) (A) (A) (A) (A) (A) (A)
                 (A) (A) (A) (A) (A) (A) (A) (A) (A) (A) (A) (A)
                 (A) (A) (A) (A) (A) (A) (A) (A) (A) (A) (A) (A)
                 (A) (A) (A) (A) (A) (A) (A) (A) (A) (A) (A) (A)
                 (A) (A) (A) (A) (A) (A) (A) (A) (A) (A) (A) (A)
                 (A) (A) (A) (A) (A) (A) (A) (A) (A) (A) (A) (A)
                 (A) (A) (A) (A) (A) (A) (A) (A) (A) (A) (A) (A)
                 (A) (A) (A) (A) (A) (A) (A) (A) (A) (A) (A) (A)
                 (A) (A) (A) (A) (A) (A) (A) (A) (A) (A) (A) (A)
                 (A) (A) (A) (A) (A) (A) (A) (A) (A) (A) (A) (A)
                 (A) (A) (A) (A) (A) (A) (A) (A) (A) (A) (A) (A)
                 (A) (A) (A) (A) (A) (A) (A) (A) (A) (A) (A) (A)
                 (A) (A) (A) (A) (A) (A) (A) (A) (A) (A) (A) (A)
                 (A) (A) (A) (A) (A) (A) (A) (A) (A) (A) (A) (A)
                 (A) (A) (A) (A) (A) (A) (A) (A) (A) (A) (A) (A)
                 (A) (A) (A) (A) (A) (A) (A) (A) (A) (A) (A) (A)
                 (A) (A) (A) (A) (A) (A) (A) (A) (A) (A) (A) (A)
                 (A) (A) (A) (A) (A) (A) (A) (A) (A) (A) (A) (A)
                 (A) (A) (A) (A) (A) (A) (A) (A) (A) (A) (A) (A)
                 (A) (A) (A) (A) (A) (A) (A) (A) (A) (A) (A) (A)
                 (A) (A) (A) (A) (A) (A) (A) (A) (A) (A) (A) (A)
                 (A) (A) (A) (A) (A) (A) (A) (A) (A) (A) (A) (A)
                 (A) (A) (A) (A) (A) (A) (A) (A) (A) (A) (A) (A)
                 (A) (A) (A) (A) (A) (A) (A) (A) (A) (A) (A) (A)
                 (A) (A) (A) (A) (A) (A) (A) (A) (A) (A) (A) (A)
                 (A) (A) (A) (A) (A) (A) (A) (A) (A) (A) (A) (A)
                 (A) (A) (A) (A) (A) (A) (A) (A) (A) (A) (A) (A)
                 (A) (A) (A) (A) (A) (A) (A) (A) (A) (A) (A) (A)
                 (A) (A) (A) (A) (A) (A) (A) (A) (A) (A) (A) (A)
                 (A) (A) (A) (A) (A) (A) (A) (A) (A) (A) (A) (A)
                 (A) (A) (A) (A) (A) (A) (A) (A) (A) (A) (A) (A)
                 (A) (A) (A) (A) (A) (A) (A) (A) (A) (A) (A) (A)
                 (A) (A) (A) (A) (A) (A) (A) (A) (A) (A) (A) (A)
                 (A) (A) (A) (A) (A) (A) (A) (A) (A) (A) (A) (A)
                 (A) (A) (A) (A) (A) (A) (A) (A) (A) (A) (A) (A)
                 (A) (A) (A) (A) (A) (A) (A) (A) (A) (A) (A) (A)
                 (A) (A) (A) (A) (A) (A) (A) (A) (A) (A) (A) (A)
                 (A) (A) (A) (A) (A) (A) (A) (A) (A) (A) (A) (A)
                 (A) (A) (A) (A) (A) (A) (A) (A) (A) (A) (A) (A)
                 (A) (A) (A) (A) (A) (A) (A) (A) (A) (A) (A) (A)
                 (A) (A) (A) (A) (A) (A) (A) (A) (A) (A) (A) (A)
                 (A) (A) (A) (A) (A) (A) (A) (A) (A) (A) (A) (A)
                 (A) (A) (A) (A) (A) (A) (A) (A) (A) (A) (A) (A)
                 (A) (A) (A) (A) (A) (A) (A) (A) (A) (A) (A) (A)
                 (A) (A) (A) (A) (A) (A) (A) (A) (A) (A) (A) (A)
                 (A) (A) (A) (A) (A) (A) (A) (A) (A) (A) (A) (A)
                 (A) (A) (A) (A) (A) (A) (A) (A) (A) (A) (A) (A)
                 (A) (A) (A) (A) (A) (A) (A) (A) (A) (A) (A) (A)
                 (A) (A) (A) (A) (A) (A) (A) (A) (A) (A) (A) (A)
                 (A) (A) (A) (A) (A) (A) (A) (A) (A) (A) (A) (A)
                 (A) (A) (A) (A) (A) (A) (A) (A) (A) (A) (A) (A)
                 (A) (A) (A) (A) (A) (A) (A) (A) (A) (A) (A) (A)
                 (A) (A) (A) (A) (A) (A) (A) (A) (A) (A) (A) (A)
                 (A) (A) (A) (A) (A) (A) (A) (A) (A) (A) (A) (A)
                 (A) (A) (A) (A) (A) (A) (A) (A) (A) (A) (A) (A)
                 (A) (A) (A) (A) (A) (A) (A) (A) (A) (A) (A) (A)
                 (A) (A) (A) (A) (A) (A) (A) (A) (A) (A) (A) (A)
                 (A) (A) (A) (A) (A) (A) (A) (A) (A) (A) (A) (A)
                 (A) (A) (A) (A) (A) (A) (A) (A) (A) (A) (A) (A)
                 (A) (A) (A) (A) (A) (A) (A) (A) (A) (A) (A) (A)
                 (A) (A) (A) (A) (A) (A) (A) (A) (A) (A) (A) (A)
                 (A) (A) (A) (A) (A) (A) (A) (A) (A) (A) (A) (A)
                 (A) (A) (A) (A) (A) (A) (A) (A) (A) (A) (A) (A)
                 (A) (A) (A) (A) (A) (A) (A) (A) (A) (A) (A) (A)
                 (A) (A) (A) (A) (A) (A) (A) (A) (A) (A) (A) (A)
                 (A) (A) (A) (A) (A) (A) (A) (A) (A) (A) (A) (A)
                 (A) (A) (A) (A) (A) (A) (A) (A) (A) (A) (A) (A)
                 (A) (A) (A) (A) (A) (A) (A) (A) (A) (A) (A) (A)
                 (A) (A) (A) (A) (A) (A) (A) (A) (A) (A) (A) (A)
                 (A) (A) (A) (A) (A) (A) (A) (A) (A) (A) (A) (A)
                 (A) (A) (A) (A) (A) (A) (A) (A) (A) (A) (A) (A)
                 (A) (A) (A) (A) (A) (A) (A) (A) (A) (A) (A) (A)
                 (A) (A) (A) (A) (A) (A) (A) (A) (A) (A) (A) (A)
                 (A) (A) (A) (A) (A) (A) (A) (A) (A) (A) (A) (A)
                 (A) (A) (A) (A) (A) (A) (A) (A) (A) (A) (A) (A)
                 (A) (A) (A) (A) (A) (A) (A) (A) (A) (A) (A) (A)
                 (A) (A) (A) (A) (A) (A) (A) (A) (A) (A) (A) (A)
                 (A) (A) (A) (A) (A) (A) (A) (A) (A) (A) (A) (A)
                 (A) (A) (A) (A) (A) (A) (A) (A) (A) (A) (A) (A)
                 (A) (A) (A) (A) (A) (A) (A) (A) (A) (A) (A) (A)
                 (A) (A) (A) (A) (A) (A) (A) (A) (A) (A) (A) (A)
                 (A) (A) (A) (A) (A) (A) (A) (A) (A) (A) (A) (A)
                 (A) (A) (A) (A) (A) (A) (A) (A) (A) (A) (A) (A)
                 (A) (A) (A) (A) (A) (A) (A) (A) (A) (A) (A) (A)
                 (A) (A) (A) (A) (A) (A) (A) (A) (A) (A) (A) (A)
                 (A) (A) (A) (A) (A) (A) (A) (A) (A) (A) (A) (A)
                 (A) (A) (A) (A) (A) (A) (A) (A) (A) (A) (A) (A)
                 (A) (A) (A) (A) (A) (A) (A) (A) (A) (A) (A) (A)
                 (A) (A) (A) (A) (A) (A) (A) (A) (A) (A) (A) (A)
                 (A) (A) (A) (A) (A) (A) (A) (A) (A) (A) (A) (A)
                 (A) (A) (A) (A) (A) (A) (A) (A) (A) (A) (A) (A)
                 (A) (A) (A) (A) (A) (A) (A) (A) (A) (A) (A) (A)
                 (A) (A) (A) (A) (A) (A) (A) (A) (A) (A) (A) (A)
                 (A) (A) (A) (A) (A) (A) (A) (A) (A) (A) (A) (A)
                 (A) (A) (A) (A) (A) (A) (A) (A) (A) (A) (A) (A)
                 (A) (A) (A) (A) (A) (A) (A) (A) (A) (A) (A) (A)
                 (A) (A) (A) (A) (A) (A) (A) (A) (A) (A) (A) (A)
                 (A) (A) (A) (A) (A) (A) (A) (A) (A) (A) (A) (A)
    20 initial guesses have been made.
 Convergence on wavefunction:    0.001000000000000
 Davidson Disk Diagonalization:  ConvIn= 1.00D-03 SkipCon=T Conv= 1.00D-03.
 Max sub-space:  2000 roots to seek:    20 dimension of matrix:       549360
 Iteration     1 Dimension    20 NMult     0 NNew     20
 CISAX will form    20 AO SS matrices at one time.
 NMat=    20 NSing=    20 JSym2X= 0.
 FoFJK:  IHMeth= 1 ICntrl=       0 DoSepK=T KAlg= 0 I1Cent=           0 FoldK=F
 IRaf=         1 NMat=      40 IRICut=       1 DoRegI=T DoRafI=F ISym2E= 0 IDoP0=3 IntGTp=3.
 FoFCou: FMM=T IPFlag=           0 FMFlag=      100000 FMFlg1=        2001
         NFxFlg=           0 DoJE=F BraDBF=F KetDBF=F FulRan=T
         wScrn=  0.000000 ICntrl=       500 IOpCl=  0 I1Cent=           0 NGrid=           0
         NMat0=   20 NMatS0=     20 NMatT0=    0 NMatD0=   20 NMtDS0=    0 NMtDT0=    0
 Symmetry not used in FoFCou.
 FMM levels:  10  Number of levels for PrismC:   9
 New state      2 was old state      4
 New state      3 was old state      7
 New state      4 was old state      6
 New state      5 was old state      2
 Excitation Energies [eV] at current iteration:
 Root      1 :     2.335682404682963
 Root      2 :     2.541069257863274
 Root      3 :     2.606938148308897
 Root      4 :     2.619197594076178
 Root      5 :     2.676814677179081
 Root      6 :     2.696961248820021
 Root      7 :     3.119100242545726
 Root      8 :     3.336414189883337
 Root      9 :     3.634071875852474
 Root     10 :     3.676169519015935
 Root     11 :     3.734980515187470
 Root     12 :     3.759065987008479
 Root     13 :     4.240008217377775
 Root     14 :     4.296519322804748
 Root     15 :     4.309747297768917
 Root     16 :     4.470520480347596
 Root     17 :     4.575795925093245
 Root     18 :     4.611377876013470
 Root     19 :     4.723627471389023
 Root     20 :     4.855363721126541
 Iteration     2 Dimension    30 NMult    20 NNew     10
 CISAX will form    10 AO SS matrices at one time.
 NMat=    10 NSing=    10 JSym2X= 0.
 New state      1 was old state      5
 Root      1 not converged, maximum delta is    0.205220694411314
 New state      2 was old state      4
 Root      2 not converged, maximum delta is    0.119234514635588
 Root      3 not converged, maximum delta is    0.161007111152414
 New state      4 was old state      1
 Root      4 not converged, maximum delta is    0.003693883629961
 New state      5 was old state      2
 Root      5 not converged, maximum delta is    0.006191950405217
 Excitation Energies [eV] at current iteration:
 Root      1 :     1.793645208901860   Change is   -0.883169468277220
 Root      2 :     2.165537874649259   Change is   -0.453659719426919
 Root      3 :     2.239107545982405   Change is   -0.367830602326492
 Root      4 :     2.334844365922691   Change is   -0.000838038760271
 Root      5 :     2.540057676428798   Change is   -0.001011581434476
 Iteration     3 Dimension    40 NMult    30 NNew     10
 CISAX will form    10 AO SS matrices at one time.
 NMat=    10 NSing=    10 JSym2X= 0.
 Root      1 not converged, maximum delta is    0.059940316999593
 Root      2 not converged, maximum delta is    0.330837287949087
 Root      3 not converged, maximum delta is    0.042336249507305
 No map to state      4
 New state      5 was old state      4
 Root      5 has converged.
 Excitation Energies [eV] at current iteration:
 Root      1 :     1.687463381646436   Change is   -0.106181827255424
 Root      2 :     1.866869983151944   Change is   -0.298667891497315
 Root      3 :     2.200227682282742   Change is   -0.038879863699663
 Root      4 :     2.295405210178728
 Root      5 :     2.334838438657148   Change is   -0.000005927265543
 Iteration     4 Dimension    48 NMult    40 NNew      8
 CISAX will form     8 AO SS matrices at one time.
 NMat=     8 NSing=     8 JSym2X= 0.
 Root      1 not converged, maximum delta is    0.011095183484440
 Root      2 not converged, maximum delta is    0.176433155843984
 New state      3 was old state      4
 Root      3 not converged, maximum delta is    0.124395135238977
 New state      4 was old state      3
 Root      4 not converged, maximum delta is    0.130436200982632
 Root      5 has converged.
 Excitation Energies [eV] at current iteration:
 Root      1 :     1.670680447732320   Change is   -0.016782933914116
 Root      2 :     1.702176325416656   Change is   -0.164693657735288
 Root      3 :     2.192607605163380   Change is   -0.102797605015348
 Root      4 :     2.193249112034875   Change is   -0.006978570247866
 Root      5 :     2.334838372913941   Change is   -0.000000065743207
 Iteration     5 Dimension    56 NMult    48 NNew      8
 CISAX will form     8 AO SS matrices at one time.
 NMat=     8 NSing=     8 JSym2X= 0.
 Root      1 not converged, maximum delta is    0.002903607426789
 Root      2 not converged, maximum delta is    0.015587365828743
 Root      3 not converged, maximum delta is    0.102367389715197
 Root      4 not converged, maximum delta is    0.101713037384437
 Root      5 has converged.
 Excitation Energies [eV] at current iteration:
 Root      1 :     1.668903663592661   Change is   -0.001776784139659
 Root      2 :     1.681809581438578   Change is   -0.020366743978078
 Root      3 :     2.185848728185077   Change is   -0.006758876978302
 Root      4 :     2.192431046416334   Change is   -0.000818065618541
 Root      5 :     2.334838372030475   Change is   -0.000000000883466
 Iteration     6 Dimension    64 NMult    56 NNew      8
 CISAX will form     8 AO SS matrices at one time.
 NMat=     8 NSing=     8 JSym2X= 0.
 Root      1 not converged, maximum delta is    0.002800582889128
 Root      2 not converged, maximum delta is    0.004285522636792
 Root      3 not converged, maximum delta is    0.002250409850234
 Root      4 not converged, maximum delta is    0.001887167961120
 Root      5 has converged.
 Excitation Energies [eV] at current iteration:
 Root      1 :     1.668650039630602   Change is   -0.000253623962059
 Root      2 :     1.679127101825682   Change is   -0.002682479612896
 Root      3 :     2.185001319260794   Change is   -0.000847408924283
 Root      4 :     2.192307929540636   Change is   -0.000123116875698
 Root      5 :     2.334838370241572   Change is   -0.000000001788903
 Iteration     7 Dimension    72 NMult    64 NNew      8
 CISAX will form     8 AO SS matrices at one time.
 NMat=     8 NSing=     8 JSym2X= 0.
 Root      1 has converged.
 Root      2 not converged, maximum delta is    0.001354113530769
 Root      3 not converged, maximum delta is    0.001027483666736
 Root      4 has converged.
 Root      5 has converged.
 Excitation Energies [eV] at current iteration:
[...]
 Alpha virt. eigenvalues --    1.83683   1.83735   1.83955   1.84076   1.84354
 Alpha virt. eigenvalues --    1.84497   1.84668   1.84717   1.85022   1.85037
 Alpha virt. eigenvalues --    1.85191   1.85277   1.85399   1.85485   1.85679
 Alpha virt. eigenvalues --    1.85785   1.86100   1.86292   1.86479   1.86554
 Alpha virt. eigenvalues --    1.86702   1.86826   1.86939   1.86949   1.87185
 Alpha virt. eigenvalues --    1.87366   1.87565   1.87685   1.87794   1.87926
 Alpha virt. eigenvalues --    1.87968   1.88153   1.88372   1.88456   1.88729
 Alpha virt. eigenvalues --    1.88804   1.89080   1.89126   1.89323   1.89545
 Alpha virt. eigenvalues --    1.89657   1.89850   1.90021   1.90037   1.90396
 Alpha virt. eigenvalues --    1.90645   1.91083   1.91245   1.91375   1.91519
 Alpha virt. eigenvalues --    1.91896   1.92065   1.92425   1.92527   1.92875
 Alpha virt. eigenvalues --    1.92901   1.93279   1.93337   1.93634   1.94228
 Alpha virt. eigenvalues --    1.94438   1.94618   1.94948   1.95439   1.95623
 Alpha virt. eigenvalues --    1.95684   1.95881   1.96014   1.96105   1.96230
 Alpha virt. eigenvalues --    1.96369   1.96515   1.96663   1.96827   1.97155
 Alpha virt. eigenvalues --    1.97371   1.97681   1.97769   1.97979   1.98066
 Alpha virt. eigenvalues --    1.98386   1.98501   1.98541   1.99036   1.99261
 Alpha virt. eigenvalues --    1.99706   2.00199   2.00582   2.00871   2.00919
 Alpha virt. eigenvalues --    2.01280   2.01344   2.01580   2.01610   2.01631
 Alpha virt. eigenvalues --    2.01807   2.02039   2.02692   2.02882   2.03177
 Alpha virt. eigenvalues --    2.03257   2.03280   2.03354   2.03577   2.03705
 Alpha virt. eigenvalues --    2.03938   2.04205   2.04877   2.05143   2.05429
 Alpha virt. eigenvalues --    2.05782   2.05976   2.06439   2.06742   2.07077
 Alpha virt. eigenvalues --    2.07213   2.07521   2.08510   2.08658   2.08878
 Alpha virt. eigenvalues --    2.09214   2.09471   2.09806   2.10748   2.11077
 Alpha virt. eigenvalues --    2.11137   2.11432   2.11585   2.11634   2.11743
 Alpha virt. eigenvalues --    2.12108   2.12363   2.12682   2.12718   2.12747
 Alpha virt. eigenvalues --    2.12999   2.13080   2.13657   2.13952   2.14085
 Alpha virt. eigenvalues --    2.14341   2.15241   2.15564   2.15813   2.16298
 Alpha virt. eigenvalues --    2.16449   2.16630   2.16796   2.17323   2.17352
 Alpha virt. eigenvalues --    2.17622   2.17745   2.17992   2.18099   2.18171
 Alpha virt. eigenvalues --    2.18249   2.18742   2.18860   2.19462   2.19531
 Alpha virt. eigenvalues --    2.19936   2.20058   2.20091   2.20423   2.20675
 Alpha virt. eigenvalues --    2.21118   2.21264   2.21567   2.21602   2.21949
 Alpha virt. eigenvalues --    2.22030   2.22600   2.22933   2.23234   2.23481
 Alpha virt. eigenvalues --    2.24309   2.24548   2.24936   2.25126   2.26164
 Alpha virt. eigenvalues --    2.26637   2.26697   2.26973   2.27176   2.27395
 Alpha virt. eigenvalues --    2.28045   2.28590   2.29186   2.29621   2.29657
 Alpha virt. eigenvalues --    2.30098   2.30345   2.30832   2.30947   2.31019
 Alpha virt. eigenvalues --    2.31062   2.31366   2.32051   2.32376   2.33017
 Alpha virt. eigenvalues --    2.33364   2.33461   2.33620   2.34085   2.34295
 Alpha virt. eigenvalues --    2.35211   2.35455   2.35694   2.36164   2.36317
 Alpha virt. eigenvalues --    2.36515   2.36521   2.36563   2.37599   2.37806
 Alpha virt. eigenvalues --    2.38182   2.38520   2.38744   2.39054   2.39507
 Alpha virt. eigenvalues --    2.39848   2.40121   2.40372   2.40376   2.41070
 Alpha virt. eigenvalues --    2.41163   2.41441   2.41634   2.41828   2.41884
 Alpha virt. eigenvalues --    2.42302   2.42903   2.42917   2.43191   2.43297
 Alpha virt. eigenvalues --    2.44045   2.44154   2.44627   2.44805   2.44982
 Alpha virt. eigenvalues --    2.45191   2.45446   2.45751   2.46197   2.46360
 Alpha virt. eigenvalues --    2.46466   2.46658   2.46670   2.46981   2.47150
 Alpha virt. eigenvalues --    2.47499   2.47624   2.48023   2.49245   2.49501
 Alpha virt. eigenvalues --    2.50011   2.50025   2.50506   2.50625   2.50996
 Alpha virt. eigenvalues --    2.51459   2.51772   2.51785   2.52320   2.52596
 Alpha virt. eigenvalues --    2.52709   2.53414   2.53835   2.54062   2.54133
 Alpha virt. eigenvalues --    2.54376   2.54691   2.54931   2.55419   2.55807
 Alpha virt. eigenvalues --    2.57770   2.58246   2.58571   2.59086   2.60060
 Alpha virt. eigenvalues --    2.60497   2.60514   2.61173   2.61626   2.61990
 Alpha virt. eigenvalues --    2.62433   2.62612   2.62849   2.63289   2.63838
 Alpha virt. eigenvalues --    2.64213   2.64450   2.64508   2.64995   2.65259
 Alpha virt. eigenvalues --    2.65678   2.66088   2.66719   2.66834   2.66957
 Alpha virt. eigenvalues --    2.67290   2.67828   2.68163   2.68746   2.68896
 Alpha virt. eigenvalues --    2.68968   2.69210   2.69335   2.69790   2.69913
 Alpha virt. eigenvalues --    2.70294   2.70877   2.71269   2.71905   2.72035
 Alpha virt. eigenvalues --    2.72498   2.72626   2.72639   2.72941   2.73230
 Alpha virt. eigenvalues --    2.73287   2.73391   2.73592   2.74394   2.74652
 Alpha virt. eigenvalues --    2.74852   2.75221   2.76512   2.76660   2.77091
 Alpha virt. eigenvalues --    2.77213   2.77354   2.77769   2.78093   2.78419
 Alpha virt. eigenvalues --    2.78589   2.78814   2.79029   2.79332   2.80209
 Alpha virt. eigenvalues --    2.80400   2.80430   2.80849   2.80959   2.81289
 Alpha virt. eigenvalues --    2.81810   2.82146   2.82252   2.82480   2.83585
 Alpha virt. eigenvalues --    2.83669   2.83982   2.84034   2.84439   2.84649
 Alpha virt. eigenvalues --    2.84808   2.84975   2.85578   2.85807   2.86760
 Alpha virt. eigenvalues --    2.86864   2.87302   2.87420   2.88052   2.88361
 Alpha virt. eigenvalues --    2.88407   2.88763   2.88829   2.88996   2.90409
 Alpha virt. eigenvalues --    2.90834   2.91134   2.91206   2.93045   2.93513
 Alpha virt. eigenvalues --    2.93936   2.94118   2.94493   2.94666   2.95263
 Alpha virt. eigenvalues --    2.95716   2.95970   2.95989   2.96371   2.96497
 Alpha virt. eigenvalues --    2.96982   2.97011   2.97669   2.98100   2.98148
 Alpha virt. eigenvalues --    2.98260   2.98466   2.98558   2.98762   2.98787
 Alpha virt. eigenvalues --    2.98966   2.99075   2.99540   2.99851   2.99902
 Alpha virt. eigenvalues --    3.00104   3.00172   3.00340   3.00487   3.01207
 Alpha virt. eigenvalues --    3.01917   3.01945   3.02058   3.02328   3.02530
 Alpha virt. eigenvalues --    3.02867   3.02941   3.03245   3.03533   3.03959
 Alpha virt. eigenvalues --    3.04121   3.04275   3.04318   3.04498   3.04589
 Alpha virt. eigenvalues --    3.04867   3.05251   3.05472   3.06034   3.06261
 Alpha virt. eigenvalues --    3.06704   3.07149   3.08054   3.08087   3.09298
 Alpha virt. eigenvalues --    3.09420   3.09606   3.10353   3.10679   3.10973
 Alpha virt. eigenvalues --    3.11290   3.11512   3.11814   3.11950   3.12183
 Alpha virt. eigenvalues --    3.12525   3.13172   3.13579   3.13784   3.13849
 Alpha virt. eigenvalues --    3.13875   3.14591   3.15912   3.16043   3.17135
 Alpha virt. eigenvalues --    3.17652   3.17962   3.17999   3.19034   3.19150
 Alpha virt. eigenvalues --    3.22060   3.22712   3.23823   3.24491   3.24576
 Alpha virt. eigenvalues --    3.25312   3.26389   3.26803   3.27505   3.27542
 Alpha virt. eigenvalues --    3.28838   3.29327   3.31402   3.31523   3.33315
 Alpha virt. eigenvalues --    3.33336   3.40348   3.40354   3.42719   3.42933
 Alpha virt. eigenvalues --    3.48510   3.48824   3.49923   3.50446   3.51001
 Alpha virt. eigenvalues --    3.51373   3.56447   3.57134   3.59016   3.59460
 Alpha virt. eigenvalues --    3.62643   3.62702   3.66089   3.66190   3.66923
 Alpha virt. eigenvalues --    3.67642   3.73019   3.74122   3.75826   3.76781
          Condensed to atoms (all electrons):
 Mulliken charges:
               1
     1  Mg   0.839020
     2  C   -0.003711
     3  C   -0.093774
     4  C   -0.045566
     5  C   -0.063907
     6  N   -0.256936
     7  C   -0.052383
     8  C   -0.014193
     9  C   -0.087152
    10  C    0.046616
    11  C    0.104707
    12  C    0.053388
    13  C   -0.071560
    14  H    0.034595
    15  N   -0.433252
    16  C    0.168844
    17  C   -0.176857
    18  C   -0.003796
    19  C    0.149063
    20  C    0.110074
    21  C    0.012191
    22  O   -0.249082
    23  C    0.062497
    24  N   -0.341274
    25  C    0.041662
    26  C   -0.028382
    27  C   -0.024062
    28  C    0.075022
    29  C    0.076046
    30  C    0.034956
    31  C   -0.004744
    32  N   -0.310105
    33  C    0.079840
    34  C   -0.170830
    35  C    0.007637
    36  C    0.082219
    37  C    0.127650
    38  C    0.044590
    39  O   -0.189775
    40  C   -0.004871
    41  C    0.213168
    42  O   -0.260097
    43  O   -0.303913
    44  C    0.158373
    45  H   -0.017211
    46  H   -0.016305
    47  H   -0.041250
    48  H    0.000752
    49  H   -0.003518
    50  H    0.025437
    51  H    0.016676
    52  H    0.017048
    53  H    0.012463
    54  H    0.042532
    55  H    0.018039
    56  H    0.019158
    57  H    0.006356
    58  H    0.027173
    59  H    0.039939
    60  H    0.037813
    61  H    0.035700
    62  H    0.030966
    63  H    0.017258
    64  H    0.009622
    65  H    0.023820
    66  H    0.012321
    67  H    0.005074
    68  H    0.007695
    69  H    0.004639
    70  H    0.009574
    71  H    0.020006
    72  H    0.027501
    73  H    0.045780
    74  H    0.009547
    75  H    0.046428
    76  H    0.035611
    77  H    0.043265
    78  H    0.047159
    79  H    0.050953
    80  Mg   0.837423
    81  C   -0.016847
    82  C   -0.086267
    83  C   -0.046325
    84  C   -0.064887
    85  N   -0.254799
    86  C   -0.049441
    87  C   -0.015232
    88  C   -0.090119
    89  C    0.044431
    90  C    0.113221
    91  C    0.062433
    92  C   -0.077555
    93  H    0.033346
    94  N   -0.423735
    95  C    0.162246
    96  C   -0.172592
    97  C   -0.008885
    98  C    0.152903
    99  C    0.099142
   100  C    0.015124
   101  O   -0.254552
   102  C    0.061403
   103  N   -0.350138
   104  C    0.037520
   105  C   -0.019551
   106  C   -0.034896
   107  C    0.088647
   108  C    0.074359
   109  C    0.034971
   110  C   -0.007536
   111  N   -0.323983
   112  C    0.077971
   113  C   -0.163421
   114  C    0.001909
   115  C    0.096051
   116  C    0.131651
   117  C    0.041676
   118  O   -0.189200
   119  C    0.001243
   120  C    0.211359
   121  O   -0.251164
   122  O   -0.305728
   123  C    0.152172
   124  H   -0.013150
   125  H   -0.017009
   126  H   -0.040869
   127  H   -0.001151
   128  H   -0.003675
   129  H    0.019435
   130  H    0.019039
   131  H    0.023662
   132  H    0.013693
   133  H    0.036709
   134  H    0.021320
   135  H    0.020258
   136  H    0.011573
   137  H    0.026604
   138  H    0.038651
   139  H    0.038109
   140  H    0.035237
   141  H    0.034052
   142  H    0.013875
   143  H    0.012220
   144  H    0.023531
   145  H    0.011156
   146  H    0.003896
   147  H    0.005099
   148  H    0.003744
   149  H    0.010429
   150  H    0.017572
   151  H    0.030700
   152  H    0.045267
   153  H    0.008266
   154  H    0.046884
   155  H    0.034136
   156  H    0.043140
   157  H    0.050008
   158  H    0.053286
 Sum of Mulliken charges =  -0.00000
 Mulliken charges with hydrogens summed into heavy atoms:
               1
     1  Mg   0.839020
     2  C   -0.003711
     3  C   -0.110985
     4  C   -0.061871
     5  C   -0.105157
     6  N   -0.256936
     7  C   -0.052383
     8  C   -0.013441
     9  C   -0.090670
    10  C    0.046616
    11  C    0.163868
    12  C    0.108383
    13  C    0.000232
    15  N   -0.433252
    16  C    0.168844
    17  C   -0.176857
    18  C   -0.003796
    19  C    0.149063
    20  C    0.183543
    21  C    0.012191
    22  O   -0.249082
    23  C    0.166976
    24  N   -0.341274
    25  C    0.041662
    26  C   -0.011123
    27  C   -0.014440
    28  C    0.075022
    29  C    0.117261
    30  C    0.047289
    31  C    0.052337
    32  N   -0.310105
    33  C    0.079840
    34  C   -0.170830
    35  C    0.007637
    36  C    0.082219
    37  C    0.229405
    38  C    0.044590
    39  O   -0.189775
    40  C    0.030740
    41  C    0.213168
    42  O   -0.260097
    43  O   -0.303913
    44  C    0.299750
    80  Mg   0.837423
    81  C   -0.016847
    82  C   -0.099417
    83  C   -0.063334
    84  C   -0.105756
    85  N   -0.254799
    86  C   -0.049441
    87  C   -0.016383
    88  C   -0.093794
    89  C    0.044431
    90  C    0.175357
    91  C    0.112835
    92  C   -0.002632
    94  N   -0.423735
    95  C    0.162246
    96  C   -0.172592
    97  C   -0.008885
    98  C    0.152903
    99  C    0.175970
   100  C    0.015124
   101  O   -0.254552
   102  C    0.168801
   103  N   -0.350138
   104  C    0.037520
   105  C   -0.005676
   106  C   -0.022677
   107  C    0.088647
   108  C    0.112942
   109  C    0.043814
   110  C    0.051165
   111  N   -0.323983
   112  C    0.077971
   113  C   -0.163421
   114  C    0.001909
   115  C    0.096051
   116  C    0.232067
   117  C    0.041676
   118  O   -0.189200
   119  C    0.035379
   120  C    0.211359
   121  O   -0.251164
   122  O   -0.305728
   123  C    0.298605
 Electronic spatial extent (au):  <R**2>=          98075.1189
 Charge=             -0.0000 electrons
 Dipole moment (field-independent basis, Debye):
    X=              5.5009    Y=              3.3477    Z=              2.0681  Tot=              6.7634
 Quadrupole moment (field-independent basis, Debye-Ang):
   XX=           -520.0681   YY=           -506.1995   ZZ=           -493.5210
   XY=            -10.9227   XZ=             26.2189   YZ=              0.3608
 Traceless Quadrupole moment (field-independent basis, Debye-Ang):
   XX=            -13.4719   YY=              0.3967   ZZ=             13.0752
   XY=            -10.9227   XZ=             26.2189   YZ=              0.3608
 Octapole moment (field-independent basis, Debye-Ang**2):
  XXX=            438.8805  YYY=            317.6811  ZZZ=             86.7645  XYY=            132.3139
  XXY=            199.7374  XXZ=            147.6485  XZZ=           -158.5583  YZZ=           -177.3896
  YYZ=           -216.8809  XYZ=            212.7799
 Hexadecapole moment (field-independent basis, Debye-Ang**3):
 XXXX=         -68823.1022 YYYY=         -32332.9346 ZZZZ=         -31399.9365 XXXY=           -104.2796
 XXXZ=            867.3657 YYYX=             20.5194 YYYZ=           -410.5849 ZZZX=           1877.6189
 ZZZY=            191.5200 XXYY=         -17109.1788 XXZZ=         -15545.3486 YYZZ=         -11756.8453
 XXYZ=             23.3741 YYXZ=           -339.9126 ZZXY=            419.0168
 N-N= 1.548247395260D+04 E-N=-4.044602262476D+04  KE= 4.028801444788D+03
 Leave Link  601 at Sat Sep  4 00:53:47 2021, MaxMem= 23488102400 cpu:              17.0 elap:               0.9
 (Enter /sw/apps/gaussian-16.0/g16/l9999.exe)
 1\1\GINC-BP1-COMPUTE00107\SP\RCAM-B3LYP TD-FC\def2SVP\C68H72Mg2N8O8\OF
 15641\04-Sep-2021\0\\#p cam-b3lyp/Def2SVP td=(nstates=5)\\TDDFT excite
 d states in gaussian\\0,1\Mg,0,0.,0.,0.\C,0,-0.217,-2.218,2.801\C,0,-1
 .255,2.442,2.026\C,0,-0.245,1.85,-2.564\C,0,0.146,-2.824,-2.037\N,0,-0
 .617,-0.009,2.126\C,0,-0.594,-0.908,3.105\C,0,-0.936,-0.309,4.502\C,0,
 -1.773,0.964,4.032\C,0,-1.155,1.168,2.66\C,0,-3.263,0.685,3.863\C,0,0.
 345,0.11,5.299\C,0,0.124,0.397,6.787\H,0,1.168,0.033,7.733\N,0,-0.185,
 1.961,-0.152\C,0,-0.703,2.8,0.777\C,0,-0.62,4.156,0.193\C,0,-0.187,4.0
 15,-1.225\C,0,-0.214,2.583,-1.38\C,0,-0.887,5.406,0.974\C,0,0.181,5.01
 3,-2.277\O,0,0.303,4.69,-3.508\C,0,0.31,6.414,-1.837\N,0,-0.265,-0.413
 ,-2.029\C,0,-0.279,0.569,-2.937\C,0,-0.196,0.024,-4.332\C,0,0.124,-1.5
 33,-4.18\C,0,0.086,-1.632,-2.635\C,0,-1.451,0.205,-5.197\C,0,1.373,-2.
 07,-4.923\C,0,2.626,-1.49,-4.306\N,0,0.15,-2.144,0.303\C,0,0.173,-3.13
 6,-0.688\C,0,0.173,-4.438,0.004\C,0,0.133,-4.111,1.358\C,0,0.083,-2.69
 5,1.502\C,0,0.149,-5.715,-0.623\C,0,0.096,-4.629,2.716\O,0,0.208,-5.74
 7,3.221\C,0,-0.255,-3.428,3.701\C,0,0.717,-3.482,4.848\O,0,1.931,-3.25
 5,4.669\O,0,0.038,-3.556,6.003\C,0,0.943,-3.583,7.183\H,0,-1.859,3.22,
 2.497\H,0,-0.218,2.453,-3.474\H,0,0.276,-3.747,-2.605\H,0,-1.554,-0.94
 9,5.132\H,0,-1.585,1.831,4.665\H,0,-3.484,-0.377,3.969\H,0,-3.511,1.02
 7,2.858\H,0,-3.852,1.301,4.543\H,0,0.669,1.096,4.966\H,0,1.13,-0.639,5
 .189\H,0,-0.844,0.026,7.125\H,0,0.062,1.477,6.921\H,0,-1.344,5.186,1.9
 38\H,0,-1.651,5.963,0.432\H,0,0.007,6.02,1.084\H,0,-0.635,6.744,-1.405
 \H,0,0.665,6.97,-2.704\H,0,1.048,6.466,-1.036\H,0,0.608,0.501,-4.891\H
 ,0,-0.692,-2.156,-4.547\H,0,-1.267,0.74,-6.129\H,0,-2.204,0.714,-4.596
 \H,0,-1.967,-0.72,-5.453\H,0,1.356,-1.759,-5.967\H,0,1.452,-3.157,-4.9
 02\H,0,2.714,-0.522,-4.798\H,0,3.487,-2.121,-4.529\H,0,2.495,-1.303,-3
 .24\H,0,0.867,-6.333,-0.084\H,0,0.404,-5.642,-1.68\H,0,-0.891,-5.999,-
 0.463\H,0,-1.283,-3.581,4.028\H,0,0.698,-4.478,7.755\H,0,0.833,-2.619,
 7.68\H,0,2.,-3.754,6.976\Mg,0,8.9418,0.79802,0.68258\C,0,9.15392,-1.68
 44,-1.90038\C,0,8.12233,-1.72191,2.83037\C,0,8.3078,3.00469,2.87258\C,
 0,8.64838,3.19121,-1.83381\N,0,8.70157,-1.38048,0.38481\C,0,8.86789,-2
 .21904,-0.62688\C,0,8.79859,-3.7198,-0.23641\C,0,7.91949,-3.58016,1.10
 021\C,0,8.29252,-2.15131,1.48995\C,0,6.42244,-3.62994,0.84385\C,0,10.2
 1426,-4.32428,0.06771\C,0,10.2565,-5.85158,0.15332\H,0,11.44513,-6.543
 6,-0.33733\N,0,8.78964,0.64314,2.65525\C,0,8.46999,-0.46086,3.36256\C,
 0,8.47125,-0.04834,4.77464\C,0,8.65605,1.42721,4.8321\C,0,8.56893,1.75
 881,3.42407\C,0,8.38698,-1.02826,5.9087\C,0,8.86256,2.38335,5.9676\O,0
 ,8.76153,3.65099,5.80731\C,0,9.09425,1.78824,7.29186\N,0,8.32508,2.779
 08,0.55069\C,0,8.17376,3.53101,1.65506\C,0,7.99447,4.98836,1.30238\C,0
 ,8.29988,5.09203,-0.26401\C,0,8.52566,3.59662,-0.57733\C,0,6.61417,5.5
 7785,1.5916\C,0,9.38636,6.11149,-0.70324\C,0,10.74355,5.66383,-0.21027
 \N,0,9.08849,0.81452,-1.47294\C,0,8.90551,1.92032,-2.3319\C,0,8.99164,
 1.41445,-3.71722\C,0,9.19744,0.03475,-3.56699\C,0,9.21663,-0.29899,-2.
 18578\C,0,8.83492,2.19312,-4.89842\C,0,9.3922,-1.21682,-4.26292\O,0,9.
 55296,-1.54104,-5.43883\C,0,9.24638,-2.40468,-3.21691\C,0,10.40091,-3.
 34711,-3.42038\O,0,11.56553,-2.98002,-3.18474\O,0,9.9246,-4.58457,-3.6
 4883\C,0,11.03224,-5.55725,-3.84591\H,0,7.63789,-2.39896,3.53451\H,0,8
 .19192,3.82211,3.58803\H,0,8.66499,3.88933,-2.67347\H,0,8.28824,-4.352
 45,-0.95271\H,0,8.24693,-4.28139,1.86338\H,0,6.1943,-3.63245,-0.21165\
 H,0,6.01341,-2.74697,1.31724\H,0,5.97906,-4.48371,1.36426\H,0,10.49836
 ,-4.07047,1.09708\H,0,10.93631,-3.98238,-0.64809\H,0,9.34814,-6.3125,-
 0.25337\H,0,10.25473,-6.14025,1.20721\H,0,8.09245,-2.02507,5.55795\H,0
 ,7.55603,-0.7083,6.54668\H,0,9.30009,-1.05966,6.50696\H,0,8.25019,1.15
 568,7.5562\H,0,9.30836,2.62777,7.95611\H,0,9.97139,1.1342,7.23288\H,0,
 8.70292,5.60639,1.8402\H,0,7.41082,5.40154,-0.83287\H,0,6.64723,6.4593
 7,2.25936\H,0,5.9937,4.80086,2.01802\H,0,6.04411,5.87205,0.71202\H,0,9
 .19689,7.08663,-0.24786\H,0,9.42999,6.26049,-1.77696\H,0,10.76467,6.02
 975,0.82063\H,0,11.53513,6.11466,-0.80541\H,0,10.80773,4.57014,-0.1732
 2\H,0,9.61121,1.87924,-5.58352\H,0,8.89937,3.25788,-4.68417\H,0,7.8262
 4,1.89468,-5.19636\H,0,8.28612,-2.88778,-3.40159\H,0,10.86356,-6.04199
 ,-4.81249\H,0,11.02399,-6.20509,-2.94926\H,0,12.03106,-5.1589,-3.98053
 \\Version=ES64L-G16RevA.03\State=1-A\HF=-4069.8127388\RMSD=5.044e-09\P
 G=C01 [X(C68H72Mg2N8O8)]\\@


 UNDER MOST GREENE GRASSE LY MOST GREATE SNAKES.
 -- PROVERBS AND REASONS OF THE YEAR 1585
           AS REPRINTED IN PAISLEY MAGAZINE 1828.
 Job cpu time:       0 days 15 hours 32 minutes 51.1 seconds.
 Elapsed time:       0 days  0 hours 39 minutes 35.9 seconds.
 File lengths (MBytes):  RWF=  13225 Int=      0 D2E=      0 Chk=    574 Scr=      1
 Normal termination of Gaussian 16 at Sat Sep  4 00:53:48 2021.
