 Entering Gaussian System, Link 0=g16
 Initial command:
 /sw/apps/gaussian-16.0/g16/l1.exe "/tmp/Gau-95037.inp" -scrdir="/tmp/"
 Entering Link 1 = /sw/apps/gaussian-16.0/g16/l1.exe PID=     95038.
  
 Copyright (c) 1988,1990,1992,1993,1995,1998,2003,2009,2016,
            Gaussian, Inc.  All Rights Reserved.
  
 This is part of the Gaussian(R) 16 program.  It is based on
 the Gaussian(R) 09 system (copyright 2009, Gaussian, Inc.),
 the Gaussian(R) 03 system (copyright 2003, Gaussian, Inc.),
 the Gaussian(R) 98 system (copyright 1998, Gaussian, Inc.),
 the Gaussian(R) 94 system (copyright 1995, Gaussian, Inc.),
 the Gaussian 92(TM) system (copyright 1992, Gaussian, Inc.),
 the Gaussian 90(TM) system (copyright 1990, Gaussian, Inc.),
 the Gaussian 88(TM) system (copyright 1988, Gaussian, Inc.),
 the Gaussian 86(TM) system (copyright 1986, Carnegie Mellon
 University), and the Gaussian 82(TM) system (copyright 1983,
 Carnegie Mellon University). Gaussian is a federally registered
 trademark of Gaussian, Inc.
  
 This software contains proprietary and confidential information,
 including trade secrets, belonging to Gaussian, Inc.
  
 This software is provided under written license and may be
 used, copied, transmitted, or stored only in accord with that
 written license.
  
 The following legend is applicable only to US Government
 contracts under FAR:
  
                    RESTRICTED RIGHTS LEGEND
  
 Use, reproduction and disclosure by the US Government is
 subject to restrictions as set forth in subparagraphs (a)
 and (c) of the Commercial Computer Software - Restricted
 Rights clause in FAR 52.227-19.
  
 Gaussian, Inc.
 340 Quinnipiac St., Bldg. 40, Wallingford CT 06492
  
  
 ---------------------------------------------------------------
 Warning -- This program may not be used in any manner that
 competes with the business of Gaussian, Inc. or will provide
 assistance to any competitor of Gaussian, Inc.  The licensee
 of this program is prohibited from giving any competitor of
 Gaussian, Inc. access to this program.  By using this program,
 the user acknowledges that Gaussian, Inc. is engaged in the
 business of creating and licensing software in the field of
 computational chemistry and represents and warrants to the
 licensee that it is not a competitor of Gaussian, Inc. and that
 it will not use this program in any manner prohibited above.
 ---------------------------------------------------------------
  

 Cite this work as:
 Gaussian 16, Revision A.03,
 M. J. Frisch, G. W. Trucks, H. B. Schlegel, G. E. Scuseria, 
 M. A. Robb, J. R. Cheeseman, G. Scalmani, V. Barone, 
 G. A. Petersson, H. Nakatsuji, X. Li, M. Caricato, A. V. Marenich, 
 J. Bloino, B. G. Janesko, R. Gomperts, B. Mennucci, H. P. Hratchian, 
 J. V. Ortiz, A. F. Izmaylov, J. L. Sonnenberg, D. Williams-Young, 
 F. Ding, F. Lipparini, F. Egidi, J. Goings, B. Peng, A. Petrone, 
 T. Henderson, D. Ranasinghe, V. G. Zakrzewski, J. Gao, N. Rega, 
 G. Zheng, W. Liang, M. Hada, M. Ehara, K. Toyota, R. Fukuda, 
 J. Hasegawa, M. Ishida, T. Nakajima, Y. Honda, O. Kitao, H. Nakai, 
 T. Vreven, K. Throssell, J. A. Montgomery, Jr., J. E. Peralta, 
 F. Ogliaro, M. J. Bearpark, J. J. Heyd, E. N. Brothers, K. N. Kudin, 
 V. N. Staroverov, T. A. Keith, R. Kobayashi, J. Normand, 
 K. Raghavachari, A. P. Rendell, J. C. Burant, S. S. Iyengar, 
 J. Tomasi, M. Cossi, J. M. Millam, M. Klene, C. Adamo, R. Cammi, 
 J. W. Ochterski, R. L. Martin, K. Morokuma, O. Farkas, 
 J. B. Foresman, and D. J. Fox, Gaussian, Inc., Wallingford CT, 2016.
 
 ******************************************
 Gaussian 16:  ES64L-G16RevA.03 25-Dec-2016
                10-Sep-2021 
 ******************************************
 %nproc=24
 Will use up to   24 processors via shared memory.
 %mem=175gb
 -----------------------------------
 #p cam-b3lyp/Def2SVP td=(nstates=5)
 -----------------------------------
 1/38=1,172=1/1;
 2/12=2,17=6,18=5,40=1/2;
 3/5=43,7=101,11=9,25=1,30=1,74=-40/1,2,3,8;
 4//1;
 5/5=2,38=5/2;
 8/6=1,10=1,108=5/1;
 9/41=5,42=1,70=2/14;
 6/7=2,8=2,9=2,10=2/1;
 99/5=1,9=1/99;
 Leave Link    1 at Fri Sep 10 01:56:51 2021, MaxMem= 23488102400 cpu:               0.7 elap:               0.0
 (Enter /sw/apps/gaussian-16.0/g16/l101.exe)
 --------------------------------
 TDDFT excited states in gaussian
 --------------------------------
 Symbolic Z-matrix:
 Charge =  0 Multiplicity = 1
 Mg                    0.        0.        0. 
 C                    -0.217    -2.218     2.801 
 C                    -1.255     2.442     2.026 
 C                    -0.245     1.85     -2.564 
 C                     0.146    -2.824    -2.037 
 N                    -0.617    -0.009     2.126 
 C                    -0.594    -0.908     3.105 
 C                    -0.936    -0.309     4.502 
 C                    -1.773     0.964     4.032 
 C                    -1.155     1.168     2.66 
 C                    -3.263     0.685     3.863 
 C                     0.345     0.11      5.299 
 C                     0.124     0.397     6.787 
 H                     1.168     0.033     7.733 
 N                    -0.185     1.961    -0.152 
 C                    -0.703     2.8       0.777 
 C                    -0.62      4.156     0.193 
 C                    -0.187     4.015    -1.225 
 C                    -0.214     2.583    -1.38 
 C                    -0.887     5.406     0.974 
 C                     0.181     5.013    -2.277 
 O                     0.303     4.69     -3.508 
 C                     0.31      6.414    -1.837 
 N                    -0.265    -0.413    -2.029 
 C                    -0.279     0.569    -2.937 
 C                    -0.196     0.024    -4.332 
 C                     0.124    -1.533    -4.18 
 C                     0.086    -1.632    -2.635 
 C                    -1.451     0.205    -5.197 
 C                     1.373    -2.07     -4.923 
 C                     2.626    -1.49     -4.306 
 N                     0.15     -2.144     0.303 
 C                     0.173    -3.136    -0.688 
 C                     0.173    -4.438     0.004 
 C                     0.133    -4.111     1.358 
 C                     0.083    -2.695     1.502 
 C                     0.149    -5.715    -0.623 
 C                     0.096    -4.629     2.716 
 O                     0.208    -5.747     3.221 
 C                    -0.255    -3.428     3.701 
 C                     0.717    -3.482     4.848 
 O                     1.931    -3.255     4.669 
 O                     0.038    -3.556     6.003 
 C                     0.943    -3.583     7.183 
 H                    -1.859     3.22      2.497 
 H                    -0.218     2.453    -3.474 
 H                     0.276    -3.747    -2.605 
 H                    -1.554    -0.949     5.132 
 H                    -1.585     1.831     4.665 
 H                    -3.484    -0.377     3.969 
 H                    -3.511     1.027     2.858 
 H                    -3.852     1.301     4.543 
 H                     0.669     1.096     4.966 
 H                     1.13     -0.639     5.189 
 H                    -0.844     0.026     7.125 
 H                     0.062     1.477     6.921 
 H                    -1.344     5.186     1.938 
 H                    -1.651     5.963     0.432 
 H                     0.007     6.02      1.084 
 H                    -0.635     6.744    -1.405 
 H                     0.665     6.97     -2.704 
 H                     1.048     6.466    -1.036 
 H                     0.608     0.501    -4.891 
 H                    -0.692    -2.156    -4.547 
 H                    -1.267     0.74     -6.129 
 H                    -2.204     0.714    -4.596 
 H                    -1.967    -0.72     -5.453 
 H                     1.356    -1.759    -5.967 
 H                     1.452    -3.157    -4.902 
 H                     2.714    -0.522    -4.798 
 H                     3.487    -2.121    -4.529 
 H                     2.495    -1.303    -3.24 
 H                     0.867    -6.333    -0.084 
 H                     0.404    -5.642    -1.68 
 H                    -0.891    -5.999    -0.463 
 H                    -1.283    -3.581     4.028 
 H                     0.698    -4.478     7.755 
 H                     0.833    -2.619     7.68 
 H                     2.       -3.754     6.976 
 Mg                    8.94058   0.81221   0.68182 
 C                     8.47455   0.68258   4.23781 
 C                     7.76092   4.01072   0.79399 
 C                     8.91302   0.80782  -2.49098 
 C                     8.9838   -2.67254   0.70009 
 N                     8.24069   2.07319   2.35882 
 C                     8.16685   1.9385    3.67441 
 C                     7.81663   3.24495   4.43605 
 C                     7.07183   4.02475   3.24607 
 C                     7.75373   3.35851   2.05283 
 C                     5.5831    3.72891   3.17184 
 C                     9.0949    4.01727   4.91726 
 C                     8.82874   5.13355   5.9296 
 H                     9.81665   5.37233   6.97817 
 N                     8.88601   2.32284  -0.60411 
 C                     8.39275   3.55989  -0.38579 
 C                     8.56852   4.29194  -1.64967 
 C                     9.05495   3.33625  -2.68154 
 C                     8.94801   2.08692  -1.95504 
 C                     8.35778   5.7735   -1.76797 
 C                     9.52491   3.51539  -4.09336 
 O                     9.67569   2.51828  -4.88449 
 C                     9.71374   4.8998   -4.55079 
 N                     8.73564  -0.70539  -0.72433 
 C                     8.81229  -0.443    -2.04084 
 C                     8.91322  -1.71659  -2.84591 
 C                     9.13288  -2.88485  -1.7761 
 C                     9.02709  -2.05959  -0.47489 
 C                     7.70427  -2.04838  -3.7204 
 C                     10.3749  -3.79631  -1.97438 
 C                     11.64021  -3.00171  -1.7442 
 N                     8.9498   -0.73528   2.18954 
 C                     8.94284  -2.13157   1.97879 
 C                     8.83501  -2.77164   3.30585 
 C                     8.76296  -1.6945    4.20199 
 C                     8.8014   -0.46958   3.48254 
 C                     8.76614  -4.17213   3.55083 
 C                     8.65243  -1.31519   5.59217 
 O                     8.66806  -1.92233   6.66216 
 C                     8.33336   0.24008   5.6678 
 C                     9.25498   0.85436   6.68554 
 O                     10.4827   0.88468   6.4896 
 O                     8.5217    1.49491   7.61418 
 C                     9.39173   2.13003   8.63961 
 H                     7.19397   4.93576   0.68569 
 H                     9.0129    0.74886  -3.57727 
 H                     9.08949  -3.75509   0.79802 
 H                     7.14289   3.11525   5.27452 
 H                     7.29666   5.0879    3.269 
 H                     5.29246   2.94923   3.86015 
 H                     5.39465   3.42223   2.15131 
 H                     5.00833   4.64736   3.32154 
 H                     9.49001   4.61074   4.08274 
 H                     9.82454   3.3375    5.31243 
 H                     7.82119   5.06968   6.35821 
 H                     8.83508   6.08998   5.4012 
 H                     7.84355   6.17823  -0.88754 
 H                     7.65241   5.93143  -2.59099 
 H                     9.28134   6.31427  -1.98538 
 H                     8.7766    5.44292  -4.45457 
 H                     10.13719   4.82093  -5.55396 
 H                     10.4327   5.39265  -3.88685 
 H                     9.76607  -1.68594  -3.51287 
 H                     8.29166  -3.59345  -1.76808 
 H                     7.95971  -2.17124  -4.78985 
 H                     6.96626  -1.26758  -3.59298 
 H                     7.15166  -2.9389   -3.42576 
 H                     10.41863  -4.15798  -3.00464 
 H                     10.37957  -4.66686  -1.327 
 H                     11.80153  -2.50986  -2.70812 
 H                     12.46776  -3.66287  -1.49505 
 H                     11.48121  -2.2165   -0.99599 
 H                     9.41637  -4.37345   4.39176 
 H                     9.06086  -4.74417   2.67351 
 H                     7.70081  -4.2793    3.77188 
 H                     7.28473   0.34611   5.94835 
 H                     9.06605   1.75181   9.61356 
 H                     9.30813   3.2198    8.46885 
 H                     10.44031   1.85638   8.64633 
 
 ITRead=  0  0  0  0  0  0  0  0  0  0  0  0  0  0  0  0  0  0  0  0
 ITRead=  0  0  0  0  0  0  0  0  0  0  0  0  0  0  0  0  0  0  0  0
 ITRead=  0  0  0  0  0  0  0  0  0  0  0  0  0  0  0  0  0  0  0  0
 ITRead=  0  0  0  0  0  0  0  0  0  0  0  0  0  0  0  0  0  0  0  0
 ITRead=  0  0  0  0  0  0  0  0  0  0  0  0  0  0  0  0  0  0  0  0
 ITRead=  0  0  0  0  0  0  0  0  0  0  0  0  0  0  0  0  0  0  0  0
 ITRead=  0  0  0  0  0  0  0  0  0  0  0  0  0  0  0  0  0  0  0  0
 ITRead=  0  0  0  0  0  0  0  0  0  0  0  0  0  0  0  0  0  0
 MicOpt= -1 -1 -1 -1 -1 -1 -1 -1 -1 -1 -1 -1 -1 -1 -1 -1 -1 -1 -1 -1
 MicOpt= -1 -1 -1 -1 -1 -1 -1 -1 -1 -1 -1 -1 -1 -1 -1 -1 -1 -1 -1 -1
 MicOpt= -1 -1 -1 -1 -1 -1 -1 -1 -1 -1 -1 -1 -1 -1 -1 -1 -1 -1 -1 -1
 MicOpt= -1 -1 -1 -1 -1 -1 -1 -1 -1 -1 -1 -1 -1 -1 -1 -1 -1 -1 -1 -1
 MicOpt= -1 -1 -1 -1 -1 -1 -1 -1 -1 -1 -1 -1 -1 -1 -1 -1 -1 -1 -1 -1
 MicOpt= -1 -1 -1 -1 -1 -1 -1 -1 -1 -1 -1 -1 -1 -1 -1 -1 -1 -1 -1 -1
 MicOpt= -1 -1 -1 -1 -1 -1 -1 -1 -1 -1 -1 -1 -1 -1 -1 -1 -1 -1 -1 -1
 MicOpt= -1 -1 -1 -1 -1 -1 -1 -1 -1 -1 -1 -1 -1 -1 -1 -1 -1 -1
 NAtoms=    158 NQM=      158 NQMF=       0 NMMI=      0 NMMIF=      0
                NMic=       0 NMicF=      0.
                    Isotopes and Nuclear Properties:
 (Nuclear quadrupole moments (NQMom) in fm**2, nuclear magnetic moments (NMagM)
  in nuclear magnetons)

  Atom         1           2           3           4           5           6           7           8           9          10
 IAtWgt=          24          12          12          12          12          14          12          12          12          12
 AtmWgt=  23.9850450  12.0000000  12.0000000  12.0000000  12.0000000  14.0030740  12.0000000  12.0000000  12.0000000  12.0000000
 NucSpn=           0           0           0           0           0           2           0           0           0           0
 AtZEff=  -0.0000000  -0.0000000  -0.0000000  -0.0000000  -0.0000000  -0.0000000  -0.0000000  -0.0000000  -0.0000000  -0.0000000
 NQMom=    0.0000000   0.0000000   0.0000000   0.0000000   0.0000000   2.0440000   0.0000000   0.0000000   0.0000000   0.0000000
 NMagM=    0.0000000   0.0000000   0.0000000   0.0000000   0.0000000   0.4037610   0.0000000   0.0000000   0.0000000   0.0000000
 AtZNuc=  12.0000000   6.0000000   6.0000000   6.0000000   6.0000000   7.0000000   6.0000000   6.0000000   6.0000000   6.0000000

  Atom        11          12          13          14          15          16          17          18          19          20
 IAtWgt=          12          12          12           1          14          12          12          12          12          12
 AtmWgt=  12.0000000  12.0000000  12.0000000   1.0078250  14.0030740  12.0000000  12.0000000  12.0000000  12.0000000  12.0000000
 NucSpn=           0           0           0           1           2           0           0           0           0           0
 AtZEff=  -0.0000000  -0.0000000  -0.0000000  -0.0000000  -0.0000000  -0.0000000  -0.0000000  -0.0000000  -0.0000000  -0.0000000
 NQMom=    0.0000000   0.0000000   0.0000000   0.0000000   2.0440000   0.0000000   0.0000000   0.0000000   0.0000000   0.0000000
 NMagM=    0.0000000   0.0000000   0.0000000   2.7928460   0.4037610   0.0000000   0.0000000   0.0000000   0.0000000   0.0000000
 AtZNuc=   6.0000000   6.0000000   6.0000000   1.0000000   7.0000000   6.0000000   6.0000000   6.0000000   6.0000000   6.0000000

  Atom        21          22          23          24          25          26          27          28          29          30
 IAtWgt=          12          16          12          14          12          12          12          12          12          12
 AtmWgt=  12.0000000  15.9949146  12.0000000  14.0030740  12.0000000  12.0000000  12.0000000  12.0000000  12.0000000  12.0000000
 NucSpn=           0           0           0           2           0           0           0           0           0           0
 AtZEff=  -0.0000000  -0.0000000  -0.0000000  -0.0000000  -0.0000000  -0.0000000  -0.0000000  -0.0000000  -0.0000000  -0.0000000
 NQMom=    0.0000000   0.0000000   0.0000000   2.0440000   0.0000000   0.0000000   0.0000000   0.0000000   0.0000000   0.0000000
 NMagM=    0.0000000   0.0000000   0.0000000   0.4037610   0.0000000   0.0000000   0.0000000   0.0000000   0.0000000   0.0000000
 AtZNuc=   6.0000000   8.0000000   6.0000000   7.0000000   6.0000000   6.0000000   6.0000000   6.0000000   6.0000000   6.0000000

  Atom        31          32          33          34          35          36          37          38          39          40
 IAtWgt=          12          14          12          12          12          12          12          12          16          12
 AtmWgt=  12.0000000  14.0030740  12.0000000  12.0000000  12.0000000  12.0000000  12.0000000  12.0000000  15.9949146  12.0000000
 NucSpn=           0           2           0           0           0           0           0           0           0           0
 AtZEff=  -0.0000000  -0.0000000  -0.0000000  -0.0000000  -0.0000000  -0.0000000  -0.0000000  -0.0000000  -0.0000000  -0.0000000
 NQMom=    0.0000000   2.0440000   0.0000000   0.0000000   0.0000000   0.0000000   0.0000000   0.0000000   0.0000000   0.0000000
 NMagM=    0.0000000   0.4037610   0.0000000   0.0000000   0.0000000   0.0000000   0.0000000   0.0000000   0.0000000   0.0000000
 AtZNuc=   6.0000000   7.0000000   6.0000000   6.0000000   6.0000000   6.0000000   6.0000000   6.0000000   8.0000000   6.0000000

  Atom        41          42          43          44          45          46          47          48          49          50
 IAtWgt=          12          16          16          12           1           1           1           1           1           1
 AtmWgt=  12.0000000  15.9949146  15.9949146  12.0000000   1.0078250   1.0078250   1.0078250   1.0078250   1.0078250   1.0078250
 NucSpn=           0           0           0           0           1           1           1           1           1           1
 AtZEff=  -0.0000000  -0.0000000  -0.0000000  -0.0000000  -0.0000000  -0.0000000  -0.0000000  -0.0000000  -0.0000000  -0.0000000
 NQMom=    0.0000000   0.0000000   0.0000000   0.0000000   0.0000000   0.0000000   0.0000000   0.0000000   0.0000000   0.0000000
 NMagM=    0.0000000   0.0000000   0.0000000   0.0000000   2.7928460   2.7928460   2.7928460   2.7928460   2.7928460   2.7928460
 AtZNuc=   6.0000000   8.0000000   8.0000000   6.0000000   1.0000000   1.0000000   1.0000000   1.0000000   1.0000000   1.0000000

  Atom        51          52          53          54          55          56          57          58          59          60
 IAtWgt=           1           1           1           1           1           1           1           1           1           1
 AtmWgt=   1.0078250   1.0078250   1.0078250   1.0078250   1.0078250   1.0078250   1.0078250   1.0078250   1.0078250   1.0078250
 NucSpn=           1           1           1           1           1           1           1           1           1           1
 AtZEff=  -0.0000000  -0.0000000  -0.0000000  -0.0000000  -0.0000000  -0.0000000  -0.0000000  -0.0000000  -0.0000000  -0.0000000
 NQMom=    0.0000000   0.0000000   0.0000000   0.0000000   0.0000000   0.0000000   0.0000000   0.0000000   0.0000000   0.0000000
 NMagM=    2.7928460   2.7928460   2.7928460   2.7928460   2.7928460   2.7928460   2.7928460   2.7928460   2.7928460   2.7928460
 AtZNuc=   1.0000000   1.0000000   1.0000000   1.0000000   1.0000000   1.0000000   1.0000000   1.0000000   1.0000000   1.0000000

  Atom        61          62          63          64          65          66          67          68          69          70
 IAtWgt=           1           1           1           1           1           1           1           1           1           1
 AtmWgt=   1.0078250   1.0078250   1.0078250   1.0078250   1.0078250   1.0078250   1.0078250   1.0078250   1.0078250   1.0078250
 NucSpn=           1           1           1           1           1           1           1           1           1           1
 AtZEff=  -0.0000000  -0.0000000  -0.0000000  -0.0000000  -0.0000000  -0.0000000  -0.0000000  -0.0000000  -0.0000000  -0.0000000
 NQMom=    0.0000000   0.0000000   0.0000000   0.0000000   0.0000000   0.0000000   0.0000000   0.0000000   0.0000000   0.0000000
 NMagM=    2.7928460   2.7928460   2.7928460   2.7928460   2.7928460   2.7928460   2.7928460   2.7928460   2.7928460   2.7928460
 AtZNuc=   1.0000000   1.0000000   1.0000000   1.0000000   1.0000000   1.0000000   1.0000000   1.0000000   1.0000000   1.0000000

  Atom        71          72          73          74          75          76          77          78          79          80
 IAtWgt=           1           1           1           1           1           1           1           1           1          24
 AtmWgt=   1.0078250   1.0078250   1.0078250   1.0078250   1.0078250   1.0078250   1.0078250   1.0078250   1.0078250  23.9850450
 NucSpn=           1           1           1           1           1           1           1           1           1           0
 AtZEff=  -0.0000000  -0.0000000  -0.0000000  -0.0000000  -0.0000000  -0.0000000  -0.0000000  -0.0000000  -0.0000000  -0.0000000
 NQMom=    0.0000000   0.0000000   0.0000000   0.0000000   0.0000000   0.0000000   0.0000000   0.0000000   0.0000000   0.0000000
 NMagM=    2.7928460   2.7928460   2.7928460   2.7928460   2.7928460   2.7928460   2.7928460   2.7928460   2.7928460   0.0000000
 AtZNuc=   1.0000000   1.0000000   1.0000000   1.0000000   1.0000000   1.0000000   1.0000000   1.0000000   1.0000000  12.0000000

  Atom        81          82          83          84          85          86          87          88          89          90
 IAtWgt=          12          12          12          12          14          12          12          12          12          12
 AtmWgt=  12.0000000  12.0000000  12.0000000  12.0000000  14.0030740  12.0000000  12.0000000  12.0000000  12.0000000  12.0000000
 NucSpn=           0           0           0           0           2           0           0           0           0           0
 AtZEff=  -0.0000000  -0.0000000  -0.0000000  -0.0000000  -0.0000000  -0.0000000  -0.0000000  -0.0000000  -0.0000000  -0.0000000
 NQMom=    0.0000000   0.0000000   0.0000000   0.0000000   2.0440000   0.0000000   0.0000000   0.0000000   0.0000000   0.0000000
 NMagM=    0.0000000   0.0000000   0.0000000   0.0000000   0.4037610   0.0000000   0.0000000   0.0000000   0.0000000   0.0000000
 AtZNuc=   6.0000000   6.0000000   6.0000000   6.0000000   7.0000000   6.0000000   6.0000000   6.0000000   6.0000000   6.0000000

  Atom        91          92          93          94          95          96          97          98          99         100
 IAtWgt=          12          12           1          14          12          12          12          12          12          12
 AtmWgt=  12.0000000  12.0000000   1.0078250  14.0030740  12.0000000  12.0000000  12.0000000  12.0000000  12.0000000  12.0000000
 NucSpn=           0           0           1           2           0           0           0           0           0           0
 AtZEff=  -0.0000000  -0.0000000  -0.0000000  -0.0000000  -0.0000000  -0.0000000  -0.0000000  -0.0000000  -0.0000000  -0.0000000
 NQMom=    0.0000000   0.0000000   0.0000000   2.0440000   0.0000000   0.0000000   0.0000000   0.0000000   0.0000000   0.0000000
 NMagM=    0.0000000   0.0000000   2.7928460   0.4037610   0.0000000   0.0000000   0.0000000   0.0000000   0.0000000   0.0000000
 AtZNuc=   6.0000000   6.0000000   1.0000000   7.0000000   6.0000000   6.0000000   6.0000000   6.0000000   6.0000000   6.0000000

  Atom       101         102         103         104         105         106         107         108         109         110
 IAtWgt=          16          12          14          12          12          12          12          12          12          12
 AtmWgt=  15.9949146  12.0000000  14.0030740  12.0000000  12.0000000  12.0000000  12.0000000  12.0000000  12.0000000  12.0000000
 NucSpn=           0           0           2           0           0           0           0           0           0           0
 AtZEff=  -0.0000000  -0.0000000  -0.0000000  -0.0000000  -0.0000000  -0.0000000  -0.0000000  -0.0000000  -0.0000000  -0.0000000
 NQMom=    0.0000000   0.0000000   2.0440000   0.0000000   0.0000000   0.0000000   0.0000000   0.0000000   0.0000000   0.0000000
 NMagM=    0.0000000   0.0000000   0.4037610   0.0000000   0.0000000   0.0000000   0.0000000   0.0000000   0.0000000   0.0000000
 AtZNuc=   8.0000000   6.0000000   7.0000000   6.0000000   6.0000000   6.0000000   6.0000000   6.0000000   6.0000000   6.0000000

  Atom       111         112         113         114         115         116         117         118         119         120
 IAtWgt=          14          12          12          12          12          12          12          16          12          12
 AtmWgt=  14.0030740  12.0000000  12.0000000  12.0000000  12.0000000  12.0000000  12.0000000  15.9949146  12.0000000  12.0000000
 NucSpn=           2           0           0           0           0           0           0           0           0           0
 AtZEff=  -0.0000000  -0.0000000  -0.0000000  -0.0000000  -0.0000000  -0.0000000  -0.0000000  -0.0000000  -0.0000000  -0.0000000
 NQMom=    2.0440000   0.0000000   0.0000000   0.0000000   0.0000000   0.0000000   0.0000000   0.0000000   0.0000000   0.0000000
 NMagM=    0.4037610   0.0000000   0.0000000   0.0000000   0.0000000   0.0000000   0.0000000   0.0000000   0.0000000   0.0000000
 AtZNuc=   7.0000000   6.0000000   6.0000000   6.0000000   6.0000000   6.0000000   6.0000000   8.0000000   6.0000000   6.0000000

  Atom       121         122         123         124         125         126         127         128         129         130
 IAtWgt=          16          16          12           1           1           1           1           1           1           1
 AtmWgt=  15.9949146  15.9949146  12.0000000   1.0078250   1.0078250   1.0078250   1.0078250   1.0078250   1.0078250   1.0078250
 NucSpn=           0           0           0           1           1           1           1           1           1           1
 AtZEff=  -0.0000000  -0.0000000  -0.0000000  -0.0000000  -0.0000000  -0.0000000  -0.0000000  -0.0000000  -0.0000000  -0.0000000
 NQMom=    0.0000000   0.0000000   0.0000000   0.0000000   0.0000000   0.0000000   0.0000000   0.0000000   0.0000000   0.0000000
 NMagM=    0.0000000   0.0000000   0.0000000   2.7928460   2.7928460   2.7928460   2.7928460   2.7928460   2.7928460   2.7928460
 AtZNuc=   8.0000000   8.0000000   6.0000000   1.0000000   1.0000000   1.0000000   1.0000000   1.0000000   1.0000000   1.0000000

  Atom       131         132         133         134         135         136         137         138         139         140
 IAtWgt=           1           1           1           1           1           1           1           1           1           1
 AtmWgt=   1.0078250   1.0078250   1.0078250   1.0078250   1.0078250   1.0078250   1.0078250   1.0078250   1.0078250   1.0078250
 NucSpn=           1           1           1           1           1           1           1           1           1           1
 AtZEff=  -0.0000000  -0.0000000  -0.0000000  -0.0000000  -0.0000000  -0.0000000  -0.0000000  -0.0000000  -0.0000000  -0.0000000
 NQMom=    0.0000000   0.0000000   0.0000000   0.0000000   0.0000000   0.0000000   0.0000000   0.0000000   0.0000000   0.0000000
 NMagM=    2.7928460   2.7928460   2.7928460   2.7928460   2.7928460   2.7928460   2.7928460   2.7928460   2.7928460   2.7928460
 AtZNuc=   1.0000000   1.0000000   1.0000000   1.0000000   1.0000000   1.0000000   1.0000000   1.0000000   1.0000000   1.0000000

  Atom       141         142         143         144         145         146         147         148         149         150
 IAtWgt=           1           1           1           1           1           1           1           1           1           1
 AtmWgt=   1.0078250   1.0078250   1.0078250   1.0078250   1.0078250   1.0078250   1.0078250   1.0078250   1.0078250   1.0078250
 NucSpn=           1           1           1           1           1           1           1           1           1           1
 AtZEff=  -0.0000000  -0.0000000  -0.0000000  -0.0000000  -0.0000000  -0.0000000  -0.0000000  -0.0000000  -0.0000000  -0.0000000
 NQMom=    0.0000000   0.0000000   0.0000000   0.0000000   0.0000000   0.0000000   0.0000000   0.0000000   0.0000000   0.0000000
 NMagM=    2.7928460   2.7928460   2.7928460   2.7928460   2.7928460   2.7928460   2.7928460   2.7928460   2.7928460   2.7928460
 AtZNuc=   1.0000000   1.0000000   1.0000000   1.0000000   1.0000000   1.0000000   1.0000000   1.0000000   1.0000000   1.0000000

  Atom       151         152         153         154         155         156         157         158
 IAtWgt=           1           1           1           1           1           1           1           1
 AtmWgt=   1.0078250   1.0078250   1.0078250   1.0078250   1.0078250   1.0078250   1.0078250   1.0078250
 NucSpn=           1           1           1           1           1           1           1           1
 AtZEff=  -0.0000000  -0.0000000  -0.0000000  -0.0000000  -0.0000000  -0.0000000  -0.0000000  -0.0000000
 NQMom=    0.0000000   0.0000000   0.0000000   0.0000000   0.0000000   0.0000000   0.0000000   0.0000000
 NMagM=    2.7928460   2.7928460   2.7928460   2.7928460   2.7928460   2.7928460   2.7928460   2.7928460
 AtZNuc=   1.0000000   1.0000000   1.0000000   1.0000000   1.0000000   1.0000000   1.0000000   1.0000000
 Leave Link  101 at Fri Sep 10 01:56:51 2021, MaxMem= 23488102400 cpu:               3.8 elap:               0.2
 (Enter /sw/apps/gaussian-16.0/g16/l202.exe)
 Stoichiometry    C68H72Mg2N8O8
 Framework group  C1[X(C68H72Mg2N8O8)]
 Deg. of freedom   468
 Full point group                 C1      NOp   1
 Largest Abelian subgroup         C1      NOp   1
 Largest concise Abelian subgroup C1      NOp   1
                         Standard orientation:                         
 ---------------------------------------------------------------------
 Center     Atomic      Atomic             Coordinates (Angstroms)
 Number     Number       Type             X           Y           Z
 ---------------------------------------------------------------------
      1         12           0       -4.427065   -0.639128   -0.219431
      2          6           0       -4.641255    2.693401    1.069206
      3          6           0       -5.067080    0.671795   -3.304059
      4          6           0       -4.693275   -3.606632   -1.305558
      5          6           0       -4.933823   -1.772920    3.036851
      6          7           0       -4.788309    1.435139   -0.903218
      7          6           0       -4.784226    2.629040   -0.318620
      8          6           0       -4.870544    3.811936   -1.328907
      9          6           0       -5.560471    3.051433   -2.548593
     10          6           0       -5.082320    1.640050   -2.256547
     11          6           0       -7.084716    3.074187   -2.497006
     12          6           0       -3.458351    4.362308   -1.722016
     13          6           0       -3.461033    5.714323   -2.441323
     14          1           0       -2.379278    6.650738   -2.176221
     15          7           0       -4.338724   -1.341070   -2.063969
     16          6           0       -4.616929   -0.662375   -3.202944
     17          6           0       -4.404094   -1.619382   -4.309976
     18          6           0       -4.163622   -2.961658   -3.711174
     19          6           0       -4.418174   -2.691728   -2.319154
     20          6           0       -4.392566   -1.218680   -5.753255
     21          6           0       -3.777526   -4.281015   -4.301393
     22          8           0       -3.847618   -5.370454   -3.635973
     23          6           0       -3.394314   -4.276993   -5.724830
     24          7           0       -4.982955   -2.437263    0.683526
     25          6           0       -4.957798   -3.588137    0.002467
     26          6           0       -5.117763   -4.766908    0.916169
     27          6           0       -5.014215   -4.191658    2.402143
     28          6           0       -4.887149   -2.685762    2.063913
     29          6           0       -6.424267   -5.558272    0.765170
     30          6           0       -3.952048   -4.831099    3.331301
     31          6           0       -2.564588   -4.497349    2.830637
     32          7           0       -4.559150    0.262505    1.750508
     33          6           0       -4.796848   -0.396698    2.965260
     34          6           0       -4.907717    0.641957    4.005920
     35          6           0       -4.742239    1.841955    3.317103
     36          6           0       -4.566951    1.571497    1.929869
     37          6           0       -5.191243    0.416187    5.381810
     38          6           0       -4.697314    3.291032    3.426707
     39          8           0       -4.692819    4.090026    4.364301
     40          6           0       -4.751870    3.906468    1.959026
     41          6           0       -3.672090    4.949635    1.863177
     42          8           0       -2.466911    4.628943    1.908614
     43          8           0       -4.216225    6.120371    1.497341
     44          6           0       -3.194483    7.191821    1.355245
     45          1           0       -5.491757    0.937050   -4.274229
     46          1           0       -4.683673   -4.652150   -1.620579
     47          1           0       -5.007298   -2.055863    4.088516
     48          1           0       -5.498585    4.641830   -1.004463
     49          1           0       -5.175287    3.390697   -3.509976
     50          1           0       -7.445344    3.499135   -1.560370
     51          1           0       -7.394559    2.032832   -2.586840
     52          1           0       -7.494220    3.584931   -3.368914
     53          1           0       -3.033975    3.735674   -2.506424
     54          1           0       -2.809803    4.420646   -0.847197
     55          1           0       -4.427260    6.211588   -2.351643
     56          1           0       -3.347984    5.532758   -3.510179
     57          1           0       -4.762150   -0.203162   -5.889918
     58          1           0       -5.124157   -1.844948   -6.263424
     59          1           0       -3.411506   -1.353861   -6.208863
     60          1           0       -4.224221   -3.895244   -6.319869
     61          1           0       -3.064407   -5.290492   -5.950287
     62          1           0       -2.568929   -3.578657   -5.866311
     63          1           0       -4.322689   -5.494547    0.758608
     64          1           0       -5.949732   -4.304530    2.950542
     65          1           0       -6.272955   -6.615885    0.547767
     66          1           0       -7.019727   -5.080505   -0.012298
     67          1           0       -7.096520   -5.498215    1.620673
     68          1           0       -4.044025   -5.916637    3.321627
     69          1           0       -4.031474   -4.500747    4.367067
     70          1           0       -2.393107   -5.254186    2.066030
     71          1           0       -1.837154   -4.586387    3.638179
     72          1           0       -2.542397   -3.525252    2.337666
     73          1           0       -4.514138    1.060492    5.942496
     74          1           0       -5.052435   -0.631421    5.647991
     75          1           0       -6.236052    0.723277    5.425715
     76          1           0       -5.746332    4.334054    1.835181
     77          1           0       -3.500223    8.014654    2.001544
     78          1           0       -3.103567    7.393711    0.287827
     79          1           0       -2.205167    6.970876    1.757459
     80         12           0        4.554079   -0.842368    0.377449
     81          6           0        4.489050    2.621254   -0.559645
     82          6           0        3.877426   -1.582931   -2.882666
     83          6           0        4.158931   -3.867232    1.250088
     84          6           0        4.087432    0.184390    3.674977
     85          7           0        4.245718    0.440188   -1.397997
     86          6           0        4.305774    1.739987   -1.645561
     87          6           0        4.241587    2.111566   -3.151339
     88          6           0        3.486503    0.800832   -3.690498
     89          6           0        3.920464   -0.191562   -2.613689
     90          6           0        1.972010    0.918836   -3.648850
     91          6           0        5.666360    2.258106   -3.792091
     92          6           0        5.685887    2.918381   -5.172457
     93          1           0        6.812849    3.781457   -5.515293
     94          7           0        4.573166   -2.504690   -0.706487
     95          6           0        4.295359   -2.621594   -2.021941
     96          6           0        4.429060   -4.052619   -2.335751
     97          6           0        4.647219   -4.793410   -1.063607
     98          6           0        4.443017   -3.729737   -0.100817
     99          6           0        4.425682   -4.581344   -3.740694
    100          6           0        4.971681   -6.225342   -0.762801
    101          8           0        4.881908   -6.701142    0.423961
    102          6           0        5.307307   -7.077122   -1.913156
    103          7           0        3.967274   -1.729339    2.163873
    104          6           0        3.928607   -3.067307    2.291430
    105          6           0        3.747687   -3.472649    3.734802
    106          6           0        3.915980   -2.127455    4.583158
    107          6           0        4.083810   -1.118035    3.426310
    108          6           0        2.410095   -4.127289    4.079287
    109          6           0        4.979438   -2.137766    5.715252
    110          6           0        6.365678   -2.236380    5.120276
    111          7           0        4.510719    1.045467    1.427319
    112          6           0        4.274637    1.250432    2.804397
    113          6           0        4.228488    2.710338    3.025643
    114          6           0        4.419506    3.257667    1.747976
    115          6           0        4.553651    2.212548    0.794431
    116          6           0        3.983747    3.355740    4.270507
    117          6           0        4.527561    4.481873    0.987491
    118          8           0        4.577758    5.678337    1.269793
    119          6           0        4.451034    4.124306   -0.559338
    120          6           0        5.564390    4.853460   -1.260259
    121          8           0        6.752233    4.572787   -1.021804
    122          8           0        5.045544    5.604341   -2.248870
    123          6           0        6.112168    6.338346   -2.980572
    124          1           0        3.443631   -1.915821   -3.825993
    125          1           0        4.122603   -4.893737    1.622170
    126          1           0        4.043787    0.585024    4.689996
    127          1           0        3.657792    2.996031   -3.376474
    128          1           0        3.865994    0.498333   -4.663043
    129          1           0        1.651821    1.822328   -3.151532
    130          1           0        1.623707    0.046983   -3.110702
    131          1           0        1.559444    0.834630   -4.658315
    132          1           0        6.044929    1.261947   -4.054952
    133          1           0        6.329182    2.782282   -3.131389
    134          1           0        4.736357    3.415636   -5.404995
    135          1           0        5.771234    2.135810   -5.930286
    136          1           0        4.081848   -3.823110   -4.455016
    137          1           0        3.660600   -5.363934   -3.785989
    138          1           0        5.387123   -5.009767   -4.031810
    139          1           0        4.477500   -7.078288   -2.615929
    140          1           0        5.595551   -8.040882   -1.488937
    141          1           0        6.162788   -6.636343   -2.437070
    142          1           0        4.512767   -4.177035    4.037490
    143          1           0        2.986559   -1.855807    5.104898
    144          1           0        2.519161   -5.129913    4.534169
    145          1           0        1.814391   -4.181489    3.177765
    146          1           0        1.770703   -3.549200    4.744273
    147          1           0        4.850029   -3.018980    6.348394
    148          1           0        4.931285   -1.267353    6.361040
    149          1           0        6.484683   -3.310354    4.948521
    150          1           0        7.110504   -1.863736    5.820574
    151          1           0        6.411319   -1.739417    4.144264
    152          1           0        4.690369    4.171839    4.342326
    153          1           0        4.087755    2.664250    5.104057
    154          1           0        2.947066    3.671477    4.126007
    155          1           0        3.468926    4.433740   -0.918909
    156          1           0        5.849530    7.400245   -2.947563
    157          1           0        6.170138    5.864581   -3.978536
    158          1           0        7.102903    6.351772   -2.541581
 ---------------------------------------------------------------------
 Rotational constants (GHZ):           0.0202606           0.0146560           0.0125631
 Leave Link  202 at Fri Sep 10 01:56:51 2021, MaxMem= 23488102400 cpu:               0.2 elap:               0.0
 (Enter /sw/apps/gaussian-16.0/g16/l301.exe)
 Standard basis: def2SVP (5D, 7F)
 Ernie: Thresh=  0.10000D-02 Tol=  0.10000D-05 Strict=F.
 There are  1658 symmetry adapted cartesian basis functions of A   symmetry.
 There are  1572 symmetry adapted basis functions of A   symmetry.
  1572 basis functions,  2678 primitive gaussians,  1658 cartesian basis functions
   312 alpha electrons      312 beta electrons
       nuclear repulsion energy     15495.9648937182 Hartrees.
 IExCor=20419 DFT=T Ex+Corr=CAM-B3LYP ExCW=0 ScaHFX=  1.000000
 ScaDFX=  1.000000  1.000000  1.000000  0.810000 ScalE2=  1.000000  1.000000
 IRadAn=      5 IRanWt=     -1 IRanGd=            0 ICorTp=0 IEmpDi=  4
 HFx  wShort=  0.000000 wLong=  0.330000 cFull=  0.190000 cShort=  0.000000 cLong=  0.460000
 DFx  wShort=  0.000000 wLong=  0.330000 cFull=  0.190000 cShort=  0.000000 cLong=  0.460000
 NAtoms=  158 NActive=  158 NUniq=  158 SFac= 1.00D+00 NAtFMM=   60 NAOKFM=T Big=T
 Integral buffers will be    131072 words long.
 Raffenetti 1 integral format.
 Two-electron integral symmetry is turned on.
 Leave Link  301 at Fri Sep 10 01:56:51 2021, MaxMem= 23488102400 cpu:               1.4 elap:               0.1
 (Enter /sw/apps/gaussian-16.0/g16/l302.exe)
 NPDir=0 NMtPBC=     1 NCelOv=     1 NCel=       1 NClECP=     1 NCelD=      1
         NCelK=      1 NCelE2=     1 NClLst=     1 CellRange=     0.0.
 One-electron integrals computed using PRISM.
 One-electron integral symmetry used in STVInt
   1 Symmetry operations used in ECPInt.
 ECPInt:  NShTT=  271216 NPrTT=  987664 LenC2=  154129 LenP2D=  321051.
 LDataN:  DoStor=T MaxTD1= 4 Len=   56
 NBasis=  1572 RedAO= T EigKep=  3.36D-04  NBF=  1572
 NBsUse=  1572 1.00D-06 EigRej= -1.00D+00 NBFU=  1572
 Precomputing XC quadrature grid using
 IXCGrd= 4 IRadAn=           5 IRanWt=          -1 IRanGd=           0 AccXCQ= 0.00D+00.
 Generated NRdTot=       0 NPtTot=           0 NUsed=           0 NTot=          32
 NSgBfM=  1201  1187  1191  1200  1201 MxSgAt=   158 MxSgA2=   158.
 Leave Link  302 at Fri Sep 10 01:56:56 2021, MaxMem= 23488102400 cpu:             126.1 elap:               5.3
 (Enter /sw/apps/gaussian-16.0/g16/l303.exe)
 DipDrv:  MaxL=1.
 Leave Link  303 at Fri Sep 10 01:56:57 2021, MaxMem= 23488102400 cpu:               8.7 elap:               0.4
 (Enter /sw/apps/gaussian-16.0/g16/l308.exe)
 Leave Link  308 at Fri Sep 10 01:56:58 2021, MaxMem= 23488102400 cpu:              17.4 elap:               0.8
 (Enter /sw/apps/gaussian-16.0/g16/l401.exe)
 ExpMin= 3.36D-02 ExpMax= 4.95D+03 ExpMxC= 7.45D+02 IAcc=3 IRadAn=         5 AccDes= 0.00D+00
 Harris functional with IExCor=20419 and IRadAn=       5 diagonalized for initial guess.
 HarFok:  IExCor=20419 AccDes= 0.00D+00 IRadAn=         5 IDoV= 1 UseB2=F ITyADJ=14
 ICtDFT=  3500011 ScaDFX=  1.000000  1.000000  1.000000  1.000000
 FoFCou: FMM=F IPFlag=           0 FMFlag=      100000 FMFlg1=        2001
         NFxFlg=           0 DoJE=T BraDBF=F KetDBF=T FulRan=T
         wScrn=  0.000000 ICntrl=       500 IOpCl=  0 I1Cent=   200000004 NGrid=           0
         NMat0=    1 NMatS0=      1 NMatT0=    0 NMatD0=    1 NMtDS0=    0 NMtDT0=    0
 Petite list used in FoFCou.
 Harris En= -3918.65797377149    
 JPrj=0 DoOrth=F DoCkMO=F.
 Leave Link  401 at Fri Sep 10 01:57:06 2021, MaxMem= 23488102400 cpu:             192.2 elap:               8.0
 (Enter /sw/apps/gaussian-16.0/g16/l502.exe)
 Integral symmetry usage will be decided dynamically.
 Closed shell SCF:
 Using DIIS extrapolation, IDIIS=  1040.
 NGot= 23488102400 LenX= 23482547354 LenY= 23479796732
 Requested convergence on RMS density matrix=1.00D-08 within 128 cycles.
 Requested convergence on MAX density matrix=1.00D-06.
 Requested convergence on             energy=1.00D-06.
 No special actions if energy rises.
 Fock matrices will be formed incrementally for  20 cycles.

 Cycle   1  Pass 1  IDiag  1:
 FoFJK:  IHMeth= 1 ICntrl=       0 DoSepK=T KAlg= 0 I1Cent=           0 FoldK=F
 IRaf=         1 NMat=       1 IRICut=       1 DoRegI=T DoRafI=F ISym2E= 0 IDoP0=0 IntGTp=1.
 FoFCou: FMM=T IPFlag=           0 FMFlag=      100000 FMFlg1=        2001
         NFxFlg=           0 DoJE=T BraDBF=F KetDBF=F FulRan=T
         wScrn=  0.000000 ICntrl=       500 IOpCl=  0 I1Cent=           0 NGrid=           0
         NMat0=    1 NMatS0=      1 NMatT0=    0 NMatD0=    1 NMtDS0=    0 NMtDT0=    0
 Symmetry not used in FoFCou.
 FMM levels:  10  Number of levels for PrismC:   9
 E= -4068.94772998870    
 DIIS: error= 2.04D-02 at cycle   1 NSaved=   1.
 NSaved= 1 IEnMin= 1 EnMin= -4068.94772998870     IErMin= 1 ErrMin= 2.04D-02
 ErrMax= 2.04D-02  0.00D+00 EMaxC= 1.00D-01 BMatC= 1.69D+00 BMatP= 1.69D+00
 IDIUse=3 WtCom= 7.96D-01 WtEn= 2.04D-01
 Coeff-Com:  0.100D+01
 Coeff-En:   0.100D+01
 Coeff:      0.100D+01
 Gap=     0.120 Goal=   None    Shift=    0.000
 GapD=    0.120 DampG=1.000 DampE=0.500 DampFc=0.5000 IDamp=-1.
 Damping current iteration by 5.00D-01
 RMSDP=1.57D-03 MaxDP=1.36D-01              OVMax= 2.11D-01

 Cycle   2  Pass 1  IDiag  1:
 RMSU=  7.71D-04    CP:  9.82D-01
 E= -4069.33575495694     Delta-E=       -0.388024968233 Rises=F Damp=T
 DIIS: error= 1.27D-02 at cycle   2 NSaved=   2.
 NSaved= 2 IEnMin= 2 EnMin= -4069.33575495694     IErMin= 2 ErrMin= 1.27D-02
 ErrMax= 1.27D-02  0.00D+00 EMaxC= 1.00D-01 BMatC= 3.07D-01 BMatP= 1.69D+00
 IDIUse=3 WtCom= 8.73D-01 WtEn= 1.27D-01
 Coeff-Com: -0.211D+00 0.121D+01
 Coeff-En:   0.000D+00 0.100D+01
 Coeff:     -0.184D+00 0.118D+01
 Gap=     0.135 Goal=   None    Shift=    0.000
 RMSDP=7.71D-04 MaxDP=9.45D-02 DE=-3.88D-01 OVMax= 2.01D-01

 Cycle   3  Pass 1  IDiag  1:
 RMSU=  7.41D-04    CP:  9.68D-01  1.23D+00
 E= -4069.62044061773     Delta-E=       -0.284685660798 Rises=F Damp=F
 DIIS: error= 1.58D-02 at cycle   3 NSaved=   3.
 NSaved= 3 IEnMin= 3 EnMin= -4069.62044061773     IErMin= 2 ErrMin= 1.27D-02
 ErrMax= 1.58D-02  0.00D+00 EMaxC= 1.00D-01 BMatC= 2.07D-01 BMatP= 3.07D-01
 IDIUse=3 WtCom= 8.42D-01 WtEn= 1.58D-01
 Coeff-Com: -0.268D+00 0.655D+00 0.613D+00
 Coeff-En:   0.000D+00 0.000D+00 0.100D+01
 Coeff:     -0.225D+00 0.551D+00 0.674D+00
 Gap=     0.121 Goal=   None    Shift=    0.000
 RMSDP=5.26D-04 MaxDP=5.02D-02 DE=-2.85D-01 OVMax= 1.61D-01

 Cycle   4  Pass 1  IDiag  1:
 RMSU=  2.73D-04    CP:  9.65D-01  1.54D+00  4.93D-01
 E= -4069.76044313495     Delta-E=       -0.140002517219 Rises=F Damp=F
 DIIS: error= 7.28D-03 at cycle   4 NSaved=   4.
 NSaved= 4 IEnMin= 4 EnMin= -4069.76044313495     IErMin= 4 ErrMin= 7.28D-03
 ErrMax= 7.28D-03  0.00D+00 EMaxC= 1.00D-01 BMatC= 5.33D-02 BMatP= 2.07D-01
 IDIUse=3 WtCom= 9.27D-01 WtEn= 7.28D-02
 Coeff-Com: -0.110D+00 0.229D+00 0.411D+00 0.470D+00
 Coeff-En:   0.000D+00 0.000D+00 0.232D+00 0.768D+00
 Coeff:     -0.102D+00 0.213D+00 0.398D+00 0.492D+00
 Gap=     0.120 Goal=   None    Shift=    0.000
 RMSDP=2.13D-04 MaxDP=2.05D-02 DE=-1.40D-01 OVMax= 7.53D-02

 Cycle   5  Pass 1  IDiag  1:
 RMSU=  8.18D-05    CP:  9.64D-01  1.48D+00  6.86D-01  5.34D-01
 E= -4069.80990418117     Delta-E=       -0.049461046216 Rises=F Damp=F
 DIIS: error= 6.98D-04 at cycle   5 NSaved=   5.
 NSaved= 5 IEnMin= 5 EnMin= -4069.80990418117     IErMin= 5 ErrMin= 6.98D-04
 ErrMax= 6.98D-04  0.00D+00 EMaxC= 1.00D-01 BMatC= 1.45D-03 BMatP= 5.33D-02
 IDIUse=3 WtCom= 9.93D-01 WtEn= 6.98D-03
 Coeff-Com: -0.392D-01 0.773D-01 0.178D+00 0.260D+00 0.524D+00
 Coeff-En:   0.000D+00 0.000D+00 0.000D+00 0.000D+00 0.100D+01
 Coeff:     -0.389D-01 0.768D-01 0.176D+00 0.258D+00 0.528D+00
 Gap=     0.119 Goal=   None    Shift=    0.000
 RMSDP=4.78D-05 MaxDP=4.19D-03 DE=-4.95D-02 OVMax= 2.24D-02

 Cycle   6  Pass 1  IDiag  1:
 RMSU=  3.38D-05    CP:  9.64D-01  1.49D+00  6.76D-01  6.14D-01  7.04D-01
 E= -4069.81127167716     Delta-E=       -0.001367495996 Rises=F Damp=F
 DIIS: error= 2.25D-04 at cycle   6 NSaved=   6.
 NSaved= 6 IEnMin= 6 EnMin= -4069.81127167716     IErMin= 6 ErrMin= 2.25D-04
 ErrMax= 2.25D-04  0.00D+00 EMaxC= 1.00D-01 BMatC= 2.20D-04 BMatP= 1.45D-03
 IDIUse=3 WtCom= 9.98D-01 WtEn= 2.25D-03
 Coeff-Com:  0.171D-02-0.570D-02 0.143D-01 0.441D-01 0.303D+00 0.643D+00
 Coeff-En:   0.000D+00 0.000D+00 0.000D+00 0.000D+00 0.122D+00 0.878D+00
 Coeff:      0.171D-02-0.569D-02 0.142D-01 0.440D-01 0.303D+00 0.643D+00
 Gap=     0.120 Goal=   None    Shift=    0.000
 RMSDP=1.85D-05 MaxDP=1.42D-03 DE=-1.37D-03 OVMax= 8.89D-03

 Cycle   7  Pass 1  IDiag  1:
 RMSU=  1.18D-05    CP:  9.64D-01  1.49D+00  6.82D-01  6.12D-01  8.24D-01
                    CP:  7.35D-01
 E= -4069.81152248512     Delta-E=       -0.000250807960 Rises=F Damp=F
 DIIS: error= 1.11D-04 at cycle   7 NSaved=   7.
 NSaved= 7 IEnMin= 7 EnMin= -4069.81152248512     IErMin= 7 ErrMin= 1.11D-04
 ErrMax= 1.11D-04  0.00D+00 EMaxC= 1.00D-01 BMatC= 2.91D-05 BMatP= 2.20D-04
 IDIUse=3 WtCom= 9.99D-01 WtEn= 1.11D-03
 Coeff-Com:  0.470D-02-0.103D-01-0.887D-02-0.277D-02 0.110D+00 0.345D+00
 Coeff-Com:  0.563D+00
 Coeff-En:   0.000D+00 0.000D+00 0.000D+00 0.000D+00 0.000D+00 0.000D+00
 Coeff-En:   0.100D+01
 Coeff:      0.469D-02-0.103D-01-0.886D-02-0.276D-02 0.110D+00 0.344D+00
 Coeff:      0.563D+00
 Gap=     0.120 Goal=   None    Shift=    0.000
 RMSDP=6.96D-06 MaxDP=1.09D-03 DE=-2.51D-04 OVMax= 3.65D-03

 Cycle   8  Pass 1  IDiag  1:
 RMSU=  4.99D-06    CP:  9.64D-01  1.49D+00  6.83D-01  6.17D-01  8.23D-01
                    CP:  8.52D-01  8.09D-01
 E= -4069.81155775097     Delta-E=       -0.000035265850 Rises=F Damp=F
 DIIS: error= 5.96D-05 at cycle   8 NSaved=   8.
 NSaved= 8 IEnMin= 8 EnMin= -4069.81155775097     IErMin= 8 ErrMin= 5.96D-05
 ErrMax= 5.96D-05  0.00D+00 EMaxC= 1.00D-01 BMatC= 5.09D-06 BMatP= 2.91D-05
 IDIUse=1 WtCom= 1.00D+00 WtEn= 0.00D+00
 Coeff-Com:  0.225D-02-0.448D-02-0.790D-02-0.120D-01-0.679D-02 0.328D-01
 Coeff-Com:  0.306D+00 0.690D+00
 Coeff:      0.225D-02-0.448D-02-0.790D-02-0.120D-01-0.679D-02 0.328D-01
 Coeff:      0.306D+00 0.690D+00
 Gap=     0.120 Goal=   None    Shift=    0.000
 RMSDP=3.49D-06 MaxDP=4.42D-04 DE=-3.53D-05 OVMax= 1.24D-03

 Cycle   9  Pass 1  IDiag  1:
 RMSU=  2.04D-06    CP:  9.64D-01  1.49D+00  6.83D-01  6.18D-01  8.40D-01
                    CP:  8.80D-01  9.95D-01  9.84D-01
 E= -4069.81156606302     Delta-E=       -0.000008312047 Rises=F Damp=F
 DIIS: error= 2.06D-05 at cycle   9 NSaved=   9.
 NSaved= 9 IEnMin= 9 EnMin= -4069.81156606302     IErMin= 9 ErrMin= 2.06D-05
 ErrMax= 2.06D-05  0.00D+00 EMaxC= 1.00D-01 BMatC= 8.54D-07 BMatP= 5.09D-06
 IDIUse=1 WtCom= 1.00D+00 WtEn= 0.00D+00
 Coeff-Com:  0.492D-03-0.818D-03-0.279D-02-0.615D-02-0.192D-01-0.419D-01
 Coeff-Com:  0.874D-01 0.350D+00 0.633D+00
 Coeff:      0.492D-03-0.818D-03-0.279D-02-0.615D-02-0.192D-01-0.419D-01
 Coeff:      0.874D-01 0.350D+00 0.633D+00
 Gap=     0.120 Goal=   None    Shift=    0.000
 RMSDP=1.53D-06 MaxDP=1.60D-04 DE=-8.31D-06 OVMax= 7.94D-04

 Cycle  10  Pass 1  IDiag  1:
 RMSU=  1.01D-06    CP:  9.64D-01  1.49D+00  6.83D-01  6.19D-01  8.43D-01
                    CP:  8.92D-01  1.04D+00  1.15D+00  1.06D+00
 E= -4069.81156795771     Delta-E=       -0.000001894685 Rises=F Damp=F
 DIIS: error= 1.03D-05 at cycle  10 NSaved=  10.
 NSaved=10 IEnMin=10 EnMin= -4069.81156795771     IErMin=10 ErrMin= 1.03D-05
 ErrMax= 1.03D-05  0.00D+00 EMaxC= 1.00D-01 BMatC= 1.91D-07 BMatP= 8.54D-07
 IDIUse=1 WtCom= 1.00D+00 WtEn= 0.00D+00
 Coeff-Com: -0.428D-03 0.903D-03 0.119D-02 0.953D-03-0.371D-02-0.321D-01
 Coeff-Com: -0.423D-01-0.651D-01 0.230D+00 0.910D+00
 Coeff:     -0.428D-03 0.903D-03 0.119D-02 0.953D-03-0.371D-02-0.321D-01
 Coeff:     -0.423D-01-0.651D-01 0.230D+00 0.910D+00
 Gap=     0.120 Goal=   None    Shift=    0.000
 RMSDP=1.31D-06 MaxDP=1.25D-04 DE=-1.89D-06 OVMax= 6.81D-04

 Cycle  11  Pass 1  IDiag  1:
 RMSU=  5.85D-07    CP:  9.64D-01  1.49D+00  6.83D-01  6.19D-01  8.46D-01
                    CP:  9.01D-01  1.09D+00  1.27D+00  1.40D+00  1.35D+00
 E= -4069.81156885894     Delta-E=       -0.000000901229 Rises=F Damp=F
 DIIS: error= 4.61D-06 at cycle  11 NSaved=  11.
 NSaved=11 IEnMin=11 EnMin= -4069.81156885894     IErMin=11 ErrMin= 4.61D-06
 ErrMax= 4.61D-06  0.00D+00 EMaxC= 1.00D-01 BMatC= 8.44D-08 BMatP= 1.91D-07
 IDIUse=1 WtCom= 1.00D+00 WtEn= 0.00D+00
 Coeff-Com: -0.358D-03 0.699D-03 0.141D-02 0.215D-02 0.417D-02-0.949D-02
 Coeff-Com: -0.410D-01-0.134D+00-0.422D-01 0.516D+00 0.702D+00
 Coeff:     -0.358D-03 0.699D-03 0.141D-02 0.215D-02 0.417D-02-0.949D-02
 Coeff:     -0.410D-01-0.134D+00-0.422D-01 0.516D+00 0.702D+00
 Gap=     0.120 Goal=   None    Shift=    0.000
 RMSDP=7.59D-07 MaxDP=7.44D-05 DE=-9.01D-07 OVMax= 4.42D-04

 Cycle  12  Pass 1  IDiag  1:
 RMSU=  2.94D-07    CP:  9.64D-01  1.49D+00  6.83D-01  6.19D-01  8.47D-01
                    CP:  9.04D-01  1.11D+00  1.34D+00  1.56D+00  1.75D+00
                    CP:  1.15D+00
 E= -4069.81156918091     Delta-E=       -0.000000321976 Rises=F Damp=F
 DIIS: error= 3.00D-06 at cycle  12 NSaved=  12.
 NSaved=12 IEnMin=12 EnMin= -4069.81156918091     IErMin=12 ErrMin= 3.00D-06
 ErrMax= 3.00D-06  0.00D+00 EMaxC= 1.00D-01 BMatC= 2.07D-08 BMatP= 8.44D-08
 IDIUse=1 WtCom= 1.00D+00 WtEn= 0.00D+00
 Coeff-Com: -0.346D-04 0.498D-04 0.324D-03 0.716D-03 0.381D-02 0.329D-02
 Coeff-Com: -0.105D-02-0.447D-01-0.811D-01-0.123D-01 0.281D+00 0.850D+00
 Coeff:     -0.346D-04 0.498D-04 0.324D-03 0.716D-03 0.381D-02 0.329D-02
 Coeff:     -0.105D-02-0.447D-01-0.811D-01-0.123D-01 0.281D+00 0.850D+00
 Gap=     0.120 Goal=   None    Shift=    0.000
 RMSDP=4.61D-07 MaxDP=3.43D-05 DE=-3.22D-07 OVMax= 2.69D-04

 Cycle  13  Pass 1  IDiag  1:
 RMSU=  1.79D-07    CP:  9.64D-01  1.49D+00  6.83D-01  6.19D-01  8.47D-01
                    CP:  9.03D-01  1.11D+00  1.37D+00  1.67D+00  1.97D+00
                    CP:  1.55D+00  1.20D+00
 E= -4069.81156929116     Delta-E=       -0.000000110245 Rises=F Damp=F
 DIIS: error= 1.53D-06 at cycle  13 NSaved=  13.
 NSaved=13 IEnMin=13 EnMin= -4069.81156929116     IErMin=13 ErrMin= 1.53D-06
 ErrMax= 1.53D-06  0.00D+00 EMaxC= 1.00D-01 BMatC= 1.02D-08 BMatP= 2.07D-08
 IDIUse=1 WtCom= 1.00D+00 WtEn= 0.00D+00
 Coeff-Com:  0.121D-03-0.249D-03-0.358D-03-0.423D-03 0.914D-03 0.502D-02
 Coeff-Com:  0.179D-01 0.232D-01-0.342D-01-0.234D+00-0.159D+00 0.547D+00
 Coeff-Com:  0.835D+00
 Coeff:      0.121D-03-0.249D-03-0.358D-03-0.423D-03 0.914D-03 0.502D-02
 Coeff:      0.179D-01 0.232D-01-0.342D-01-0.234D+00-0.159D+00 0.547D+00
 Coeff:      0.835D+00
 Gap=     0.120 Goal=   None    Shift=    0.000
 RMSDP=3.93D-07 MaxDP=2.83D-05 DE=-1.10D-07 OVMax= 2.53D-04

 Cycle  14  Pass 1  IDiag  1:
 RMSU=  8.57D-08    CP:  9.64D-01  1.49D+00  6.83D-01  6.19D-01  8.47D-01
                    CP:  9.04D-01  1.12D+00  1.39D+00  1.75D+00  2.18D+00
                    CP:  1.81D+00  1.73D+00  1.15D+00
 E= -4069.81156933960     Delta-E=       -0.000000048440 Rises=F Damp=F
 DIIS: error= 8.65D-07 at cycle  14 NSaved=  14.
 NSaved=14 IEnMin=14 EnMin= -4069.81156933960     IErMin=14 ErrMin= 8.65D-07
 ErrMax= 8.65D-07  0.00D+00 EMaxC= 1.00D-01 BMatC= 1.67D-09 BMatP= 1.02D-08
 IDIUse=1 WtCom= 1.00D+00 WtEn= 0.00D+00
 Coeff-Com:  0.730D-04-0.144D-03-0.266D-03-0.407D-03-0.372D-03 0.134D-02
 Coeff-Com:  0.102D-01 0.213D-01 0.481D-02-0.109D+00-0.149D+00 0.679D-01
 Coeff-Com:  0.429D+00 0.724D+00
 Coeff:      0.730D-04-0.144D-03-0.266D-03-0.407D-03-0.372D-03 0.134D-02
 Coeff:      0.102D-01 0.213D-01 0.481D-02-0.109D+00-0.149D+00 0.679D-01
 Coeff:      0.429D+00 0.724D+00
 Gap=     0.120 Goal=   None    Shift=    0.000
 RMSDP=1.27D-07 MaxDP=8.86D-06 DE=-4.84D-08 OVMax= 7.10D-05

 Cycle  15  Pass 1  IDiag  1:
 RMSU=  4.22D-08    CP:  9.64D-01  1.49D+00  6.83D-01  6.19D-01  8.47D-01
                    CP:  9.04D-01  1.12D+00  1.40D+00  1.77D+00  2.23D+00
                    CP:  1.93D+00  1.88D+00  1.40D+00  1.03D+00
 E= -4069.81156934514     Delta-E=       -0.000000005544 Rises=F Damp=F
 DIIS: error= 4.08D-07 at cycle  15 NSaved=  15.
 NSaved=15 IEnMin=15 EnMin= -4069.81156934514     IErMin=15 ErrMin= 4.08D-07
 ErrMax= 4.08D-07  0.00D+00 EMaxC= 1.00D-01 BMatC= 2.67D-10 BMatP= 1.67D-09
 IDIUse=1 WtCom= 1.00D+00 WtEn= 0.00D+00
 Coeff-Com:  0.968D-05-0.174D-04-0.488D-04-0.106D-03-0.301D-03-0.488D-03
 Coeff-Com:  0.147D-02 0.399D-02 0.916D-02-0.421D-02-0.329D-01-0.720D-01
 Coeff-Com:  0.510D-01 0.305D+00 0.739D+00
 Coeff:      0.968D-05-0.174D-04-0.488D-04-0.106D-03-0.301D-03-0.488D-03
 Coeff:      0.147D-02 0.399D-02 0.916D-02-0.421D-02-0.329D-01-0.720D-01
 Coeff:      0.510D-01 0.305D+00 0.739D+00
 Gap=     0.120 Goal=   None    Shift=    0.000
 RMSDP=3.90D-08 MaxDP=3.04D-06 DE=-5.54D-09 OVMax= 3.14D-05

 Cycle  16  Pass 1  IDiag  1:
 RMSU=  2.14D-08    CP:  9.64D-01  1.49D+00  6.83D-01  6.19D-01  8.47D-01
                    CP:  9.04D-01  1.12D+00  1.40D+00  1.78D+00  2.24D+00
                    CP:  1.95D+00  1.93D+00  1.47D+00  1.23D+00  1.10D+00
 E= -4069.81156934593     Delta-E=       -0.000000000793 Rises=F Damp=F
 DIIS: error= 2.38D-07 at cycle  16 NSaved=  16.
 NSaved=16 IEnMin=16 EnMin= -4069.81156934593     IErMin=16 ErrMin= 2.38D-07
 ErrMax= 2.38D-07  0.00D+00 EMaxC= 1.00D-01 BMatC= 1.16D-10 BMatP= 2.67D-10
 IDIUse=1 WtCom= 1.00D+00 WtEn= 0.00D+00
 Coeff-Com: -0.134D-04 0.274D-04 0.421D-04 0.427D-04-0.639D-04-0.651D-03
 Coeff-Com: -0.166D-02-0.385D-02 0.432D-02 0.239D-01 0.200D-01-0.627D-01
 Coeff-Com: -0.739D-01-0.330D-01 0.417D+00 0.711D+00
 Coeff:     -0.134D-04 0.274D-04 0.421D-04 0.427D-04-0.639D-04-0.651D-03
 Coeff:     -0.166D-02-0.385D-02 0.432D-02 0.239D-01 0.200D-01-0.627D-01
 Coeff:     -0.739D-01-0.330D-01 0.417D+00 0.711D+00
 Gap=     0.120 Goal=   None    Shift=    0.000
 RMSDP=2.60D-08 MaxDP=1.88D-06 DE=-7.93D-10 OVMax= 1.49D-05

 Cycle  17  Pass 1  IDiag  1:
 RMSU=  1.21D-08    CP:  9.64D-01  1.49D+00  6.83D-01  6.19D-01  8.47D-01
                    CP:  9.04D-01  1.12D+00  1.40D+00  1.78D+00  2.24D+00
                    CP:  1.96D+00  1.95D+00  1.52D+00  1.32D+00  1.40D+00
                    CP:  1.13D+00
 E= -4069.81156934637     Delta-E=       -0.000000000437 Rises=F Damp=F
 DIIS: error= 8.68D-08 at cycle  17 NSaved=  17.
 NSaved=17 IEnMin=17 EnMin= -4069.81156934637     IErMin=17 ErrMin= 8.68D-08
 ErrMax= 8.68D-08  0.00D+00 EMaxC= 1.00D-01 BMatC= 2.38D-11 BMatP= 1.16D-10
 IDIUse=1 WtCom= 1.00D+00 WtEn= 0.00D+00
 Coeff-Com: -0.886D-05 0.174D-04 0.334D-04 0.465D-04 0.665D-04-0.194D-03
 Coeff-Com: -0.102D-02-0.318D-02 0.201D-03 0.120D-01 0.195D-01-0.126D-01
 Coeff-Com: -0.411D-01-0.103D+00 0.163D-01 0.305D+00 0.808D+00
 Coeff:     -0.886D-05 0.174D-04 0.334D-04 0.465D-04 0.665D-04-0.194D-03
 Coeff:     -0.102D-02-0.318D-02 0.201D-03 0.120D-01 0.195D-01-0.126D-01
 Coeff:     -0.411D-01-0.103D+00 0.163D-01 0.305D+00 0.808D+00
 Gap=     0.120 Goal=   None    Shift=    0.000
 RMSDP=1.44D-08 MaxDP=1.14D-06 DE=-4.37D-10 OVMax= 1.07D-05

 Cycle  18  Pass 1  IDiag  1:
 RMSU=  6.18D-09    CP:  9.64D-01  1.49D+00  6.83D-01  6.19D-01  8.47D-01
                    CP:  9.04D-01  1.12D+00  1.40D+00  1.78D+00  2.25D+00
                    CP:  1.97D+00  1.96D+00  1.54D+00  1.38D+00  1.55D+00
                    CP:  1.51D+00  1.28D+00
 E= -4069.81156934624     Delta-E=        0.000000000127 Rises=F Damp=F
 DIIS: error= 8.25D-08 at cycle  18 NSaved=  18.
 NSaved=18 IEnMin=17 EnMin= -4069.81156934637     IErMin=18 ErrMin= 8.25D-08
 ErrMax= 8.25D-08  0.00D+00 EMaxC= 1.00D-01 BMatC= 1.10D-11 BMatP= 2.38D-11
 IDIUse=1 WtCom= 1.00D+00 WtEn= 0.00D+00
 Coeff-Com: -0.393D-06 0.404D-06 0.453D-05 0.108D-04 0.717D-04 0.119D-03
 Coeff-Com:  0.776D-04-0.549D-03-0.115D-02-0.232D-02 0.418D-02 0.132D-01
 Coeff-Com:  0.708D-02-0.498D-01-0.131D+00-0.110D+00 0.459D+00 0.811D+00
 Coeff:     -0.393D-06 0.404D-06 0.453D-05 0.108D-04 0.717D-04 0.119D-03
 Coeff:      0.776D-04-0.549D-03-0.115D-02-0.232D-02 0.418D-02 0.132D-01
 Coeff:      0.708D-02-0.498D-01-0.131D+00-0.110D+00 0.459D+00 0.811D+00
 Gap=     0.120 Goal=   None    Shift=    0.000
 RMSDP=1.07D-08 MaxDP=7.78D-07 DE= 1.27D-10 OVMax= 6.06D-06

 Cycle  19  Pass 1  IDiag  1:
 RMSU=  3.23D-09    CP:  9.64D-01  1.49D+00  6.83D-01  6.19D-01  8.47D-01
                    CP:  9.04D-01  1.12D+00  1.40D+00  1.78D+00  2.25D+00
                    CP:  1.97D+00  1.96D+00  1.55D+00  1.41D+00  1.68D+00
                    CP:  1.73D+00  1.77D+00  1.16D+00
 E= -4069.81156934648     Delta-E=       -0.000000000233 Rises=F Damp=F
 DIIS: error= 3.41D-08 at cycle  19 NSaved=  19.
 NSaved=19 IEnMin=19 EnMin= -4069.81156934648     IErMin=19 ErrMin= 3.41D-08
 ErrMax= 3.41D-08  0.00D+00 EMaxC= 1.00D-01 BMatC= 2.99D-12 BMatP= 1.10D-11
 IDIUse=1 WtCom= 1.00D+00 WtEn= 0.00D+00
 Coeff-Com:  0.322D-05-0.656D-05-0.103D-04-0.117D-04 0.257D-04 0.150D-03
 Coeff-Com:  0.483D-03 0.871D-03-0.719D-03-0.664D-02-0.508D-02 0.129D-01
 Coeff-Com:  0.230D-01 0.879D-02-0.881D-01-0.211D+00-0.184D-01 0.476D+00
 Coeff-Com:  0.808D+00
 Coeff:      0.322D-05-0.656D-05-0.103D-04-0.117D-04 0.257D-04 0.150D-03
 Coeff:      0.483D-03 0.871D-03-0.719D-03-0.664D-02-0.508D-02 0.129D-01
 Coeff:      0.230D-01 0.879D-02-0.881D-01-0.211D+00-0.184D-01 0.476D+00
 Coeff:      0.808D+00
 Gap=     0.120 Goal=   None    Shift=    0.000
 RMSDP=7.33D-09 MaxDP=5.43D-07 DE=-2.33D-10 OVMax= 4.87D-06

 SCF Done:  E(RCAM-B3LYP) =  -4069.81156935     A.U. after   19 cycles
            NFock= 19  Conv=0.73D-08     -V/T= 2.0102
 KE= 4.028800271166D+03 PE=-4.047309069706D+04 EE= 1.687851396283D+04
 Leave Link  502 at Fri Sep 10 02:08:03 2021, MaxMem= 23488102400 cpu:           15186.9 elap:             657.5
 (Enter /sw/apps/gaussian-16.0/g16/l801.exe)
 DoSCS=F DFT=T ScalE2(SS,OS)=  1.000000  1.000000
 ExpMin= 3.36D-02 ExpMax= 4.95D+03 ExpMxC= 7.45D+02 IAcc=3 IRadAn=         5 AccDes= 0.00D+00
 HarFok:  IExCor=  205 AccDes= 0.00D+00 IRadAn=         5 IDoV=-2 UseB2=F ITyADJ=14
 ICtDFT= 12500011 ScaDFX=  1.000000  1.000000  1.000000  1.000000
 GSVD:  LWork=       -9588 too small for GESVD, short by       45590 words or       45590 for optimal perf.
 Largest valence mixing into a core orbital is  2.03D-04
 Largest core mixing into a valence orbital is  5.23D-05
 Range of M.O.s used for correlation:    95  1572
 NBasis=  1572 NAE=   312 NBE=   312 NFC=    94 NFV=     0
 NROrb=   1478 NOA=   218 NOB=   218 NVA=  1260 NVB=  1260
 Leave Link  801 at Fri Sep 10 02:08:04 2021, MaxMem= 23488102400 cpu:               9.7 elap:               0.4
 (Enter /sw/apps/gaussian-16.0/g16/l914.exe)
 RHF ground state
 Two-electron integrals replicated using symmetry.
 MDV= 23488102400 DFT=T DoStab=F Mixed=T DoRPA=T DoScal=F NonHer=T
 Making orbital integer symmetry assigments:
 Orbital symmetries:
       Occupied  (A) (A) (A) (A) (A) (A) (A) (A) (A) (A) (A) (A)
                 (A) (A) (A) (A) (A) (A) (A) (A) (A) (A) (A) (A)
                 (A) (A) (A) (A) (A) (A) (A) (A) (A) (A) (A) (A)
                 (A) (A) (A) (A) (A) (A) (A) (A) (A) (A) (A) (A)
                 (A) (A) (A) (A) (A) (A) (A) (A) (A) (A) (A) (A)
                 (A) (A) (A) (A) (A) (A) (A) (A) (A) (A) (A) (A)
                 (A) (A) (A) (A) (A) (A) (A) (A) (A) (A) (A) (A)
                 (A) (A) (A) (A) (A) (A) (A) (A) (A) (A) (A) (A)
                 (A) (A) (A) (A) (A) (A) (A) (A) (A) (A) (A) (A)
                 (A) (A) (A) (A) (A) (A) (A) (A) (A) (A) (A) (A)
                 (A) (A) (A) (A) (A) (A) (A) (A) (A) (A) (A) (A)
                 (A) (A) (A) (A) (A) (A) (A) (A) (A) (A) (A) (A)
                 (A) (A) (A) (A) (A) (A) (A) (A) (A) (A) (A) (A)
                 (A) (A) (A) (A) (A) (A) (A) (A) (A) (A) (A) (A)
                 (A) (A) (A) (A) (A) (A) (A) (A) (A) (A) (A) (A)
                 (A) (A) (A) (A) (A) (A) (A) (A) (A) (A) (A) (A)
                 (A) (A) (A) (A) (A) (A) (A) (A) (A) (A) (A) (A)
                 (A) (A) (A) (A) (A) (A) (A) (A) (A) (A) (A) (A)
                 (A) (A) (A) (A) (A) (A) (A) (A) (A) (A) (A) (A)
                 (A) (A) (A) (A) (A) (A) (A) (A) (A) (A) (A) (A)
                 (A) (A) (A) (A) (A) (A) (A) (A) (A) (A) (A) (A)
                 (A) (A) (A) (A) (A) (A) (A) (A) (A) (A) (A) (A)
                 (A) (A) (A) (A) (A) (A) (A) (A) (A) (A) (A) (A)
                 (A) (A) (A) (A) (A) (A) (A) (A) (A) (A) (A) (A)
                 (A) (A) (A) (A) (A) (A) (A) (A) (A) (A) (A) (A)
                 (A) (A) (A) (A) (A) (A) (A) (A) (A) (A) (A) (A)
       Virtual   (A) (A) (A) (A) (A) (A) (A) (A) (A) (A) (A) (A)
                 (A) (A) (A) (A) (A) (A) (A) (A) (A) (A) (A) (A)
                 (A) (A) (A) (A) (A) (A) (A) (A) (A) (A) (A) (A)
                 (A) (A) (A) (A) (A) (A) (A) (A) (A) (A) (A) (A)
                 (A) (A) (A) (A) (A) (A) (A) (A) (A) (A) (A) (A)
                 (A) (A) (A) (A) (A) (A) (A) (A) (A) (A) (A) (A)
                 (A) (A) (A) (A) (A) (A) (A) (A) (A) (A) (A) (A)
                 (A) (A) (A) (A) (A) (A) (A) (A) (A) (A) (A) (A)
                 (A) (A) (A) (A) (A) (A) (A) (A) (A) (A) (A) (A)
                 (A) (A) (A) (A) (A) (A) (A) (A) (A) (A) (A) (A)
                 (A) (A) (A) (A) (A) (A) (A) (A) (A) (A) (A) (A)
                 (A) (A) (A) (A) (A) (A) (A) (A) (A) (A) (A) (A)
                 (A) (A) (A) (A) (A) (A) (A) (A) (A) (A) (A) (A)
                 (A) (A) (A) (A) (A) (A) (A) (A) (A) (A) (A) (A)
                 (A) (A) (A) (A) (A) (A) (A) (A) (A) (A) (A) (A)
                 (A) (A) (A) (A) (A) (A) (A) (A) (A) (A) (A) (A)
                 (A) (A) (A) (A) (A) (A) (A) (A) (A) (A) (A) (A)
                 (A) (A) (A) (A) (A) (A) (A) (A) (A) (A) (A) (A)
                 (A) (A) (A) (A) (A) (A) (A) (A) (A) (A) (A) (A)
                 (A) (A) (A) (A) (A) (A) (A) (A) (A) (A) (A) (A)
                 (A) (A) (A) (A) (A) (A) (A) (A) (A) (A) (A) (A)
                 (A) (A) (A) (A) (A) (A) (A) (A) (A) (A) (A) (A)
                 (A) (A) (A) (A) (A) (A) (A) (A) (A) (A) (A) (A)
                 (A) (A) (A) (A) (A) (A) (A) (A) (A) (A) (A) (A)
                 (A) (A) (A) (A) (A) (A) (A) (A) (A) (A) (A) (A)
                 (A) (A) (A) (A) (A) (A) (A) (A) (A) (A) (A) (A)
                 (A) (A) (A) (A) (A) (A) (A) (A) (A) (A) (A) (A)
                 (A) (A) (A) (A) (A) (A) (A) (A) (A) (A) (A) (A)
                 (A) (A) (A) (A) (A) (A) (A) (A) (A) (A) (A) (A)
                 (A) (A) (A) (A) (A) (A) (A) (A) (A) (A) (A) (A)
                 (A) (A) (A) (A) (A) (A) (A) (A) (A) (A) (A) (A)
                 (A) (A) (A) (A) (A) (A) (A) (A) (A) (A) (A) (A)
                 (A) (A) (A) (A) (A) (A) (A) (A) (A) (A) (A) (A)
                 (A) (A) (A) (A) (A) (A) (A) (A) (A) (A) (A) (A)
                 (A) (A) (A) (A) (A) (A) (A) (A) (A) (A) (A) (A)
                 (A) (A) (A) (A) (A) (A) (A) (A) (A) (A) (A) (A)
                 (A) (A) (A) (A) (A) (A) (A) (A) (A) (A) (A) (A)
                 (A) (A) (A) (A) (A) (A) (A) (A) (A) (A) (A) (A)
                 (A) (A) (A) (A) (A) (A) (A) (A) (A) (A) (A) (A)
                 (A) (A) (A) (A) (A) (A) (A) (A) (A) (A) (A) (A)
                 (A) (A) (A) (A) (A) (A) (A) (A) (A) (A) (A) (A)
                 (A) (A) (A) (A) (A) (A) (A) (A) (A) (A) (A) (A)
                 (A) (A) (A) (A) (A) (A) (A) (A) (A) (A) (A) (A)
                 (A) (A) (A) (A) (A) (A) (A) (A) (A) (A) (A) (A)
                 (A) (A) (A) (A) (A) (A) (A) (A) (A) (A) (A) (A)
                 (A) (A) (A) (A) (A) (A) (A) (A) (A) (A) (A) (A)
                 (A) (A) (A) (A) (A) (A) (A) (A) (A) (A) (A) (A)
                 (A) (A) (A) (A) (A) (A) (A) (A) (A) (A) (A) (A)
                 (A) (A) (A) (A) (A) (A) (A) (A) (A) (A) (A) (A)
                 (A) (A) (A) (A) (A) (A) (A) (A) (A) (A) (A) (A)
                 (A) (A) (A) (A) (A) (A) (A) (A) (A) (A) (A) (A)
                 (A) (A) (A) (A) (A) (A) (A) (A) (A) (A) (A) (A)
                 (A) (A) (A) (A) (A) (A) (A) (A) (A) (A) (A) (A)
                 (A) (A) (A) (A) (A) (A) (A) (A) (A) (A) (A) (A)
                 (A) (A) (A) (A) (A) (A) (A) (A) (A) (A) (A) (A)
                 (A) (A) (A) (A) (A) (A) (A) (A) (A) (A) (A) (A)
                 (A) (A) (A) (A) (A) (A) (A) (A) (A) (A) (A) (A)
                 (A) (A) (A) (A) (A) (A) (A) (A) (A) (A) (A) (A)
                 (A) (A) (A) (A) (A) (A) (A) (A) (A) (A) (A) (A)
                 (A) (A) (A) (A) (A) (A) (A) (A) (A) (A) (A) (A)
                 (A) (A) (A) (A) (A) (A) (A) (A) (A) (A) (A) (A)
                 (A) (A) (A) (A) (A) (A) (A) (A) (A) (A) (A) (A)
                 (A) (A) (A) (A) (A) (A) (A) (A) (A) (A) (A) (A)
                 (A) (A) (A) (A) (A) (A) (A) (A) (A) (A) (A) (A)
                 (A) (A) (A) (A) (A) (A) (A) (A) (A) (A) (A) (A)
                 (A) (A) (A) (A) (A) (A) (A) (A) (A) (A) (A) (A)
                 (A) (A) (A) (A) (A) (A) (A) (A) (A) (A) (A) (A)
                 (A) (A) (A) (A) (A) (A) (A) (A) (A) (A) (A) (A)
                 (A) (A) (A) (A) (A) (A) (A) (A) (A) (A) (A) (A)
                 (A) (A) (A) (A) (A) (A) (A) (A) (A) (A) (A) (A)
                 (A) (A) (A) (A) (A) (A) (A) (A) (A) (A) (A) (A)
                 (A) (A) (A) (A) (A) (A) (A) (A) (A) (A) (A) (A)
                 (A) (A) (A) (A) (A) (A) (A) (A) (A) (A) (A) (A)
                 (A) (A) (A) (A) (A) (A) (A) (A) (A) (A) (A) (A)
                 (A) (A) (A) (A) (A) (A) (A) (A) (A) (A) (A) (A)
                 (A) (A) (A) (A) (A) (A) (A) (A) (A) (A) (A) (A)
                 (A) (A) (A) (A) (A) (A) (A) (A) (A) (A) (A) (A)
                 (A) (A) (A) (A) (A) (A) (A) (A) (A) (A) (A) (A)
                 (A) (A) (A) (A) (A) (A) (A) (A) (A) (A) (A) (A)
                 (A) (A) (A) (A) (A) (A) (A) (A) (A) (A) (A) (A)
                 (A) (A) (A) (A) (A) (A) (A) (A) (A) (A) (A) (A)
                 (A) (A) (A) (A) (A) (A) (A) (A) (A) (A) (A) (A)
                 (A) (A) (A) (A) (A) (A) (A) (A) (A) (A) (A) (A)
                 (A) (A) (A) (A) (A) (A) (A) (A) (A) (A) (A) (A)
                 (A) (A) (A) (A) (A) (A) (A) (A) (A) (A) (A) (A)
                 (A) (A) (A) (A) (A) (A) (A) (A) (A) (A) (A) (A)
                 (A) (A) (A) (A) (A) (A) (A) (A) (A) (A) (A) (A)
                 (A) (A) (A) (A) (A) (A) (A) (A) (A) (A) (A) (A)
                 (A) (A) (A) (A) (A) (A) (A) (A) (A) (A) (A) (A)
                 (A) (A) (A) (A) (A) (A) (A) (A) (A) (A) (A) (A)
                 (A) (A) (A) (A) (A) (A) (A) (A) (A) (A) (A) (A)
                 (A) (A) (A) (A) (A) (A) (A) (A) (A) (A) (A) (A)
                 (A) (A) (A) (A) (A) (A) (A) (A) (A) (A) (A) (A)
                 (A) (A) (A) (A) (A) (A) (A) (A) (A) (A) (A) (A)
                 (A) (A) (A) (A) (A) (A) (A) (A) (A) (A) (A) (A)
                 (A) (A) (A) (A) (A) (A) (A) (A) (A) (A) (A) (A)
                 (A) (A) (A) (A) (A) (A) (A) (A) (A) (A) (A) (A)
                 (A) (A) (A) (A) (A) (A) (A) (A) (A) (A) (A) (A)
                 (A) (A) (A) (A) (A) (A) (A) (A) (A) (A) (A) (A)
                 (A) (A) (A) (A) (A) (A) (A) (A) (A) (A) (A) (A)
                 (A) (A) (A) (A) (A) (A) (A) (A) (A) (A) (A) (A)
                 (A) (A) (A) (A) (A) (A) (A) (A) (A) (A) (A) (A)
                 (A) (A) (A) (A) (A) (A) (A) (A) (A) (A) (A) (A)
                 (A) (A) (A) (A) (A) (A) (A) (A) (A) (A) (A) (A)
                 (A) (A) (A) (A) (A) (A) (A) (A) (A) (A) (A) (A)
    20 initial guesses have been made.
 Convergence on wavefunction:    0.001000000000000
 Davidson Disk Diagonalization:  ConvIn= 1.00D-03 SkipCon=T Conv= 1.00D-03.
 Max sub-space:  2000 roots to seek:    20 dimension of matrix:       549360
 Iteration     1 Dimension    20 NMult     0 NNew     20
 CISAX will form    20 AO SS matrices at one time.
 NMat=    20 NSing=    20 JSym2X= 0.
 FoFJK:  IHMeth= 1 ICntrl=       0 DoSepK=T KAlg= 0 I1Cent=           0 FoldK=F
 IRaf=         1 NMat=      40 IRICut=       1 DoRegI=T DoRafI=F ISym2E= 0 IDoP0=3 IntGTp=3.
 FoFCou: FMM=T IPFlag=           0 FMFlag=      100000 FMFlg1=        2001
         NFxFlg=           0 DoJE=F BraDBF=F KetDBF=F FulRan=T
         wScrn=  0.000000 ICntrl=       500 IOpCl=  0 I1Cent=           0 NGrid=           0
         NMat0=   20 NMatS0=     20 NMatT0=    0 NMatD0=   20 NMtDS0=    0 NMtDT0=    0
 Symmetry not used in FoFCou.
 FMM levels:  10  Number of levels for PrismC:   9
 New state      2 was old state      4
 New state      3 was old state      7
 New state      4 was old state      6
 New state      5 was old state      2
 Excitation Energies [eV] at current iteration:
 Root      1 :     2.349746432498609
 Root      2 :     2.530014858876725
 Root      3 :     2.600032132301587
 Root      4 :     2.616173461087829
 Root      5 :     2.640647966977234
 Root      6 :     2.742266421507205
 Root      7 :     3.134555682145108
 Root      8 :     3.322577336974922
 Root      9 :     3.616914570895748
 Root     10 :     3.665160514053938
 Root     11 :     3.740412229919698
 Root     12 :     3.764133344435383
 Root     13 :     4.252400963835241
 Root     14 :     4.261107790788735
 Root     15 :     4.346956970781476
 Root     16 :     4.455431584652204
 Root     17 :     4.568668600797950
 Root     18 :     4.614394288460715
 Root     19 :     4.727720382750008
 Root     20 :     4.843307029960312
 Iteration     2 Dimension    30 NMult    20 NNew     10
 CISAX will form    10 AO SS matrices at one time.
 NMat=    10 NSing=    10 JSym2X= 0.
 New state      1 was old state      5
 Root      1 not converged, maximum delta is    0.355032641874330
 New state      2 was old state      4
 Root      2 not converged, maximum delta is    0.224374601548734
 Root      3 not converged, maximum delta is    0.296328054520300
 New state      4 was old state      1
 Root      4 not converged, maximum delta is    0.003288241042087
 New state      5 was old state      2
 Root      5 not converged, maximum delta is    0.005800510794149
 Excitation Energies [eV] at current iteration:
 Root      1 :     1.774478430652483   Change is   -0.866169536324751
 Root      2 :     2.221684274050699   Change is   -0.394489187037130
 Root      3 :     2.240672489342903   Change is   -0.359359642958683
 Root      4 :     2.348935698020443   Change is   -0.000810734478166
 Root      5 :     2.529027655608888   Change is   -0.000987203267837
 Iteration     3 Dimension    40 NMult    30 NNew     10
 CISAX will form    10 AO SS matrices at one time.
 NMat=    10 NSing=    10 JSym2X= 0.
 Root      1 not converged, maximum delta is    0.052394102658502
 Root      2 not converged, maximum delta is    0.404566697559797
 Root      3 not converged, maximum delta is    0.341867014888715
 No map to state      4
 New state      5 was old state      4
 Root      5 has converged.
 Excitation Energies [eV] at current iteration:
 Root      1 :     1.670088295505771   Change is   -0.104390135146712
 Root      2 :     1.959619649896362   Change is   -0.262064624154337
 Root      3 :     2.197757488774444   Change is   -0.042915000568460
 Root      4 :     2.219741055125946
 Root      5 :     2.348930515240143   Change is   -0.000005182780301
 Iteration     4 Dimension    48 NMult    40 NNew      8
 CISAX will form     8 AO SS matrices at one time.
 NMat=     8 NSing=     8 JSym2X= 0.
 Root      1 not converged, maximum delta is    0.009953637521395
 Root      2 not converged, maximum delta is    0.143725292424821
 Root      3 not converged, maximum delta is    0.418015627631455
 Root      4 not converged, maximum delta is    0.411384842360329
 Root      5 has converged.
 Excitation Energies [eV] at current iteration:
 Root      1 :     1.653573084547465   Change is   -0.016515210958306
 Root      2 :     1.716528877129545   Change is   -0.243090772766817
 Root      3 :     2.184560424569068   Change is   -0.013197064205376
 Root      4 :     2.194634780128413   Change is   -0.025106274997533
 Root      5 :     2.348930017348369   Change is   -0.000000497891774
 Iteration     5 Dimension    56 NMult    48 NNew      8
 CISAX will form     8 AO SS matrices at one time.
 NMat=     8 NSing=     8 JSym2X= 0.
 Root      1 not converged, maximum delta is    0.002060407315054
 Root      2 not converged, maximum delta is    0.012087099368715
 Root      3 not converged, maximum delta is    0.019972113437702
 Root      4 not converged, maximum delta is    0.020000150995990
 Root      5 has converged.
 Excitation Energies [eV] at current iteration:
 Root      1 :     1.651874051876245   Change is   -0.001699032671220
 Root      2 :     1.701827736212070   Change is   -0.014701140917475
 Root      3 :     2.183224701613672   Change is   -0.001335722955396
 Root      4 :     2.193534320703387   Change is   -0.001100459425026
 Root      5 :     2.348929977532462   Change is   -0.000000039815907
 Iteration     6 Dimension    64 NMult    56 NNew      8
 CISAX will form     8 AO SS matrices at one time.
 NMat=     8 NSing=     8 JSym2X= 0.
 Root      1 has converged.
 Root      2 not converged, maximum delta is    0.006284689121157
 Root      3 not converged, maximum delta is    0.003473764595343
 Root      4 not converged, maximum delta is    0.003540675999236
 Root      5 has converged.
 Excitation Energies [eV] at current iteration:
 Root      1 :     1.651632335113339   Change is   -0.000241716762906
 Root      2 :     1.698671789874640   Change is   -0.003155946337429
 Root      3 :     2.182994458498509   Change is   -0.000230243115163
 Root      4 :     2.193370521585479   Change is   -0.000163799117908
 Root      5 :     2.348929960216887   Change is   -0.000000017315575
 Iteration     7 Dimension    70 NMult    64 NNew      6
 CISAX will form     6 AO SS matrices at one time.
 NMat=     6 NSing=     6 JSym2X= 0.
 Root      1 has converged.
 Root      2 has converged.
 Root      3 has converged.
 Root      4 has converged.
 Root      5 has converged.
 Excitation Energies [eV] at current iteration:
 Root      1 :     1.651631575507694   Change is   -0.000000759605646
 Root      2 :     1.698404628949773   Change is   -0.000267160924868
[...]
 Alpha virt. eigenvalues --    1.84425   1.84677   1.84739   1.84929   1.85091
 Alpha virt. eigenvalues --    1.85212   1.85241   1.85361   1.85477   1.85638
 Alpha virt. eigenvalues --    1.85827   1.86049   1.86297   1.86467   1.86561
 Alpha virt. eigenvalues --    1.86764   1.86789   1.86976   1.87066   1.87177
 Alpha virt. eigenvalues --    1.87411   1.87617   1.87670   1.87821   1.87887
 Alpha virt. eigenvalues --    1.87994   1.88181   1.88310   1.88473   1.88691
 Alpha virt. eigenvalues --    1.88777   1.89030   1.89129   1.89200   1.89544
 Alpha virt. eigenvalues --    1.89667   1.89799   1.90025   1.90090   1.90331
 Alpha virt. eigenvalues --    1.90726   1.91024   1.91322   1.91428   1.91536
 Alpha virt. eigenvalues --    1.91689   1.92113   1.92314   1.92601   1.92759
 Alpha virt. eigenvalues --    1.92934   1.93272   1.93331   1.93686   1.94260
 Alpha virt. eigenvalues --    1.94438   1.94629   1.94977   1.95455   1.95701
 Alpha virt. eigenvalues --    1.95725   1.95923   1.95974   1.96118   1.96176
 Alpha virt. eigenvalues --    1.96296   1.96561   1.96626   1.96845   1.97069
 Alpha virt. eigenvalues --    1.97418   1.97653   1.97807   1.97935   1.98130
 Alpha virt. eigenvalues --    1.98294   1.98466   1.98708   1.99118   1.99228
 Alpha virt. eigenvalues --    1.99786   2.00045   2.00609   2.00866   2.00984
 Alpha virt. eigenvalues --    2.01230   2.01453   2.01595   2.01656   2.01713
 Alpha virt. eigenvalues --    2.01780   2.01944   2.02745   2.02853   2.03175
 Alpha virt. eigenvalues --    2.03342   2.03453   2.03465   2.03530   2.03668
 Alpha virt. eigenvalues --    2.04016   2.04210   2.04889   2.05129   2.05468
 Alpha virt. eigenvalues --    2.05774   2.06016   2.06447   2.06901   2.07149
 Alpha virt. eigenvalues --    2.07167   2.07527   2.08496   2.08698   2.08923
 Alpha virt. eigenvalues --    2.09141   2.09546   2.09752   2.10743   2.11137
 Alpha virt. eigenvalues --    2.11181   2.11507   2.11556   2.11634   2.11660
 Alpha virt. eigenvalues --    2.11998   2.12430   2.12577   2.12739   2.12788
 Alpha virt. eigenvalues --    2.12960   2.13022   2.13717   2.13736   2.14102
 Alpha virt. eigenvalues --    2.14435   2.15299   2.15547   2.15895   2.16206
 Alpha virt. eigenvalues --    2.16488   2.16696   2.16749   2.17370   2.17395
 Alpha virt. eigenvalues --    2.17659   2.17843   2.18031   2.18060   2.18210
 Alpha virt. eigenvalues --    2.18313   2.18793   2.18854   2.19347   2.19603
 Alpha virt. eigenvalues --    2.19953   2.19987   2.20182   2.20409   2.20558
 Alpha virt. eigenvalues --    2.21147   2.21326   2.21617   2.21721   2.21929
 Alpha virt. eigenvalues --    2.22026   2.22641   2.22832   2.23304   2.23547
 Alpha virt. eigenvalues --    2.24330   2.24579   2.24920   2.25190   2.26269
 Alpha virt. eigenvalues --    2.26572   2.26748   2.27073   2.27135   2.27346
 Alpha virt. eigenvalues --    2.28094   2.28415   2.29213   2.29571   2.29687
 Alpha virt. eigenvalues --    2.30021   2.30421   2.30719   2.30893   2.31050
 Alpha virt. eigenvalues --    2.31208   2.31369   2.32073   2.32387   2.33087
 Alpha virt. eigenvalues --    2.33354   2.33426   2.33615   2.34114   2.34292
 Alpha virt. eigenvalues --    2.35380   2.35414   2.35737   2.36028   2.36322
 Alpha virt. eigenvalues --    2.36488   2.36555   2.36594   2.37649   2.37840
 Alpha virt. eigenvalues --    2.38173   2.38528   2.38813   2.38860   2.39551
 Alpha virt. eigenvalues --    2.39807   2.40193   2.40402   2.40441   2.40918
 Alpha virt. eigenvalues --    2.41258   2.41302   2.41705   2.41840   2.42024
 Alpha virt. eigenvalues --    2.42268   2.42908   2.42970   2.43106   2.43615
 Alpha virt. eigenvalues --    2.44084   2.44162   2.44674   2.44861   2.44939
 Alpha virt. eigenvalues --    2.45127   2.45499   2.45734   2.46202   2.46418
 Alpha virt. eigenvalues --    2.46426   2.46672   2.46747   2.46952   2.47236
 Alpha virt. eigenvalues --    2.47542   2.47678   2.48024   2.49243   2.49521
 Alpha virt. eigenvalues --    2.50014   2.50035   2.50506   2.50580   2.51083
 Alpha virt. eigenvalues --    2.51389   2.51738   2.51837   2.52409   2.52462
 Alpha virt. eigenvalues --    2.52761   2.53268   2.53858   2.54044   2.54092
 Alpha virt. eigenvalues --    2.54416   2.54747   2.54981   2.55446   2.55811
 Alpha virt. eigenvalues --    2.57785   2.58221   2.58592   2.59046   2.60174
 Alpha virt. eigenvalues --    2.60407   2.60565   2.61009   2.61638   2.61945
 Alpha virt. eigenvalues --    2.62479   2.62559   2.62908   2.63271   2.63872
 Alpha virt. eigenvalues --    2.64206   2.64319   2.64589   2.65034   2.65237
 Alpha virt. eigenvalues --    2.65732   2.65942   2.66728   2.66847   2.66943
 Alpha virt. eigenvalues --    2.67164   2.67857   2.68099   2.68797   2.68931
 Alpha virt. eigenvalues --    2.68997   2.69126   2.69344   2.69701   2.69953
 Alpha virt. eigenvalues --    2.70282   2.70950   2.71153   2.71992   2.72027
 Alpha virt. eigenvalues --    2.72596   2.72611   2.72829   2.72890   2.73235
 Alpha virt. eigenvalues --    2.73415   2.73544   2.73573   2.74470   2.74647
 Alpha virt. eigenvalues --    2.74932   2.75191   2.76557   2.76649   2.77186
 Alpha virt. eigenvalues --    2.77216   2.77381   2.77716   2.78092   2.78417
 Alpha virt. eigenvalues --    2.78700   2.78808   2.79084   2.79249   2.80263
 Alpha virt. eigenvalues --    2.80375   2.80572   2.80777   2.81067   2.81296
 Alpha virt. eigenvalues --    2.81879   2.82104   2.82289   2.82464   2.83655
 Alpha virt. eigenvalues --    2.83733   2.83979   2.84028   2.84484   2.84682
 Alpha virt. eigenvalues --    2.84835   2.85019   2.85584   2.85801   2.86755
 Alpha virt. eigenvalues --    2.86970   2.87241   2.87646   2.88055   2.88359
 Alpha virt. eigenvalues --    2.88464   2.88764   2.88885   2.89023   2.90458
 Alpha virt. eigenvalues --    2.90739   2.91133   2.91199   2.93105   2.93417
 Alpha virt. eigenvalues --    2.93878   2.94147   2.94482   2.94694   2.95334
 Alpha virt. eigenvalues --    2.95507   2.95873   2.96241   2.96435   2.96476
 Alpha virt. eigenvalues --    2.96922   2.97205   2.97801   2.98123   2.98134
 Alpha virt. eigenvalues --    2.98326   2.98410   2.98553   2.98670   2.98814
 Alpha virt. eigenvalues --    2.98957   2.99144   2.99543   2.99899   3.00003
 Alpha virt. eigenvalues --    3.00088   3.00214   3.00425   3.00450   3.01060
 Alpha virt. eigenvalues --    3.01946   3.01958   3.01990   3.02170   3.02747
 Alpha virt. eigenvalues --    3.02883   3.02967   3.03249   3.03392   3.03769
 Alpha virt. eigenvalues --    3.04101   3.04217   3.04402   3.04518   3.04551
 Alpha virt. eigenvalues --    3.04953   3.05236   3.05483   3.06065   3.06272
 Alpha virt. eigenvalues --    3.06771   3.07025   3.08018   3.08057   3.09347
 Alpha virt. eigenvalues --    3.09476   3.09649   3.10394   3.10447   3.10819
 Alpha virt. eigenvalues --    3.11289   3.11566   3.11915   3.12006   3.12192
 Alpha virt. eigenvalues --    3.12354   3.13234   3.13576   3.13729   3.13821
 Alpha virt. eigenvalues --    3.14130   3.14530   3.15900   3.16090   3.17211
 Alpha virt. eigenvalues --    3.17672   3.17986   3.18000   3.19049   3.19168
 Alpha virt. eigenvalues --    3.22339   3.22673   3.23889   3.24579   3.24651
 Alpha virt. eigenvalues --    3.25327   3.26447   3.26798   3.27522   3.27571
 Alpha virt. eigenvalues --    3.29144   3.29290   3.31471   3.31509   3.33317
 Alpha virt. eigenvalues --    3.33356   3.40296   3.40707   3.42724   3.42939
 Alpha virt. eigenvalues --    3.48615   3.48843   3.49963   3.50410   3.50959
 Alpha virt. eigenvalues --    3.51412   3.56486   3.57141   3.59043   3.59474
 Alpha virt. eigenvalues --    3.62655   3.62790   3.66083   3.66235   3.67239
 Alpha virt. eigenvalues --    3.67598   3.73299   3.74114   3.76065   3.76791
          Condensed to atoms (all electrons):
 Mulliken charges:
               1
     1  Mg   0.838742
     2  C   -0.002730
     3  C   -0.094859
     4  C   -0.045614
     5  C   -0.064195
     6  N   -0.256761
     7  C   -0.052378
     8  C   -0.013836
     9  C   -0.086853
    10  C    0.046144
    11  C    0.104815
    12  C    0.053632
    13  C   -0.072552
    14  H    0.038362
    15  N   -0.433067
    16  C    0.168059
    17  C   -0.178032
    18  C   -0.004541
    19  C    0.148756
    20  C    0.110331
    21  C    0.011696
    22  O   -0.249196
    23  C    0.063040
    24  N   -0.341245
    25  C    0.041286
    26  C   -0.028335
    27  C   -0.024073
    28  C    0.075289
    29  C    0.076080
    30  C    0.034972
    31  C   -0.005704
    32  N   -0.310596
    33  C    0.080821
    34  C   -0.169960
    35  C    0.008561
    36  C    0.083228
    37  C    0.127337
    38  C    0.046201
    39  O   -0.187643
    40  C   -0.005251
    41  C    0.212847
    42  O   -0.256571
    43  O   -0.305186
    44  C    0.156806
    45  H   -0.017756
    46  H   -0.016686
    47  H   -0.041471
    48  H    0.001470
    49  H   -0.004448
    50  H    0.025728
    51  H    0.016386
    52  H    0.016710
    53  H    0.009503
    54  H    0.044846
    55  H    0.018196
    56  H    0.016962
    57  H    0.005899
    58  H    0.027055
    59  H    0.037281
    60  H    0.037833
    61  H    0.035174
    62  H    0.029042
    63  H    0.017122
    64  H    0.009630
    65  H    0.023501
    66  H    0.012438
    67  H    0.004866
    68  H    0.007033
    69  H    0.004157
    70  H    0.010569
    71  H    0.018261
    72  H    0.028847
    73  H    0.047454
    74  H    0.008942
    75  H    0.046439
    76  H    0.035324
    77  H    0.043379
    78  H    0.046358
    79  H    0.056106
    80  Mg   0.837990
    81  C   -0.016288
    82  C   -0.088012
    83  C   -0.045172
    84  C   -0.063062
    85  N   -0.254408
    86  C   -0.049497
    87  C   -0.014998
    88  C   -0.090685
    89  C    0.045671
    90  C    0.114543
    91  C    0.062721
    92  C   -0.077346
    93  H    0.034450
    94  N   -0.423419
    95  C    0.162525
    96  C   -0.174642
    97  C   -0.007818
    98  C    0.151708
    99  C    0.099357
   100  C    0.015622
   101  O   -0.253805
   102  C    0.061193
   103  N   -0.349772
   104  C    0.037007
   105  C   -0.019823
   106  C   -0.035232
   107  C    0.089022
   108  C    0.072884
   109  C    0.034726
   110  C   -0.007540
   111  N   -0.324711
   112  C    0.078933
   113  C   -0.160141
   114  C    0.003779
   115  C    0.096441
   116  C    0.130045
   117  C    0.044485
   118  O   -0.187943
   119  C    0.000183
   120  C    0.210861
   121  O   -0.251262
   122  O   -0.305834
   123  C    0.152225
   124  H   -0.021369
   125  H   -0.016081
   126  H   -0.039482
   127  H   -0.001413
   128  H   -0.005528
   129  H    0.023488
   130  H    0.015195
   131  H    0.012827
   132  H    0.013938
   133  H    0.037824
   134  H    0.019755
   135  H    0.019026
   136  H    0.007345
   137  H    0.026592
   138  H    0.038994
   139  H    0.038703
   140  H    0.035854
   141  H    0.033340
   142  H    0.013943
   143  H    0.013330
   144  H    0.023909
   145  H    0.013093
   146  H    0.005046
   147  H    0.005574
   148  H    0.004123
   149  H    0.010555
   150  H    0.017665
   151  H    0.030251
   152  H    0.044814
   153  H    0.007820
   154  H    0.054077
   155  H    0.036236
   156  H    0.043218
   157  H    0.048863
   158  H    0.053537
 Sum of Mulliken charges =  -0.00000
 Mulliken charges with hydrogens summed into heavy atoms:
               1
     1  Mg   0.838742
     2  C   -0.002730
     3  C   -0.112615
     4  C   -0.062300
     5  C   -0.105666
     6  N   -0.256761
     7  C   -0.052378
     8  C   -0.012366
     9  C   -0.091301
    10  C    0.046144
    11  C    0.163640
    12  C    0.107980
    13  C    0.000968
    15  N   -0.433067
    16  C    0.168059
    17  C   -0.178032
    18  C   -0.004541
    19  C    0.148756
    20  C    0.180566
    21  C    0.011696
    22  O   -0.249196
    23  C    0.165089
    24  N   -0.341245
    25  C    0.041286
    26  C   -0.011213
    27  C   -0.014443
    28  C    0.075289
    29  C    0.116885
    30  C    0.046163
    31  C    0.051973
    32  N   -0.310596
    33  C    0.080821
    34  C   -0.169960
    35  C    0.008561
    36  C    0.083228
    37  C    0.230172
    38  C    0.046201
    39  O   -0.187643
    40  C    0.030072
    41  C    0.212847
    42  O   -0.256571
    43  O   -0.305186
    44  C    0.302649
    80  Mg   0.837990
    81  C   -0.016288
    82  C   -0.109381
    83  C   -0.061253
    84  C   -0.102544
    85  N   -0.254408
    86  C   -0.049497
    87  C   -0.016411
    88  C   -0.096213
    89  C    0.045671
    90  C    0.166054
    91  C    0.114483
    92  C   -0.004114
    94  N   -0.423419
    95  C    0.162525
    96  C   -0.174642
    97  C   -0.007818
    98  C    0.151708
    99  C    0.172289
   100  C    0.015622
   101  O   -0.253805
   102  C    0.169090
   103  N   -0.349772
   104  C    0.037007
   105  C   -0.005881
   106  C   -0.021902
   107  C    0.089022
   108  C    0.114932
   109  C    0.044424
   110  C    0.050931
   111  N   -0.324711
   112  C    0.078933
   113  C   -0.160141
   114  C    0.003779
   115  C    0.096441
   116  C    0.236757
   117  C    0.044485
   118  O   -0.187943
   119  C    0.036419
   120  C    0.210861
   121  O   -0.251262
   122  O   -0.305834
   123  C    0.297844
 Electronic spatial extent (au):  <R**2>=          97438.7699
 Charge=             -0.0000 electrons
 Dipole moment (field-independent basis, Debye):
    X=             -3.6619    Y=             -1.8608    Z=             -7.1285  Tot=              8.2273
 Quadrupole moment (field-independent basis, Debye-Ang):
   XX=           -519.0312   YY=           -540.7873   ZZ=           -458.4617
   XY=            -13.3283   XZ=             -0.9951   YZ=            -38.4943
 Traceless Quadrupole moment (field-independent basis, Debye-Ang):
   XX=            -12.9378   YY=            -34.6939   ZZ=             47.6317
   XY=            -13.3283   XZ=             -0.9951   YZ=            -38.4943
 Octapole moment (field-independent basis, Debye-Ang**2):
  XXX=           -230.5403  YYY=            312.1613  ZZZ=           -117.4719  XYY=           -104.8651
  XXY=            -57.6086  XXZ=           -159.9851  XZZ=            118.5700  YZZ=           -107.8527
  YYZ=           -156.0610  XYZ=            141.3379
 Hexadecapole moment (field-independent basis, Debye-Ang**3):
 XXXX=         -66598.1429 YYYY=         -40825.9352 ZZZZ=         -25540.3555 XXXY=           -487.9850
 XXXZ=           -329.0980 YYYX=            -16.5147 YYYZ=           -682.0601 ZZZX=            830.9395
 ZZZY=           -266.4284 XXYY=         -18197.6081 XXZZ=         -14324.7461 YYZZ=         -11087.4365
 XXYZ=           -956.0942 YYXZ=          -1174.0956 ZZXY=            415.7714
 N-N= 1.549596489372D+04 E-N=-4.047309068923D+04  KE= 4.028800271166D+03
 Leave Link  601 at Fri Sep 10 02:32:34 2021, MaxMem= 23488102400 cpu:              14.0 elap:               0.7
 (Enter /sw/apps/gaussian-16.0/g16/l9999.exe)
 1\1\GINC-BP1-COMPUTE00114\SP\RCAM-B3LYP TD-FC\def2SVP\C68H72Mg2N8O8\OF
 15641\10-Sep-2021\0\\#p cam-b3lyp/Def2SVP td=(nstates=5)\\TDDFT excite
 d states in gaussian\\0,1\Mg,0,0.,0.,0.\C,0,-0.217,-2.218,2.801\C,0,-1
 .255,2.442,2.026\C,0,-0.245,1.85,-2.564\C,0,0.146,-2.824,-2.037\N,0,-0
 .617,-0.009,2.126\C,0,-0.594,-0.908,3.105\C,0,-0.936,-0.309,4.502\C,0,
 -1.773,0.964,4.032\C,0,-1.155,1.168,2.66\C,0,-3.263,0.685,3.863\C,0,0.
 345,0.11,5.299\C,0,0.124,0.397,6.787\H,0,1.168,0.033,7.733\N,0,-0.185,
 1.961,-0.152\C,0,-0.703,2.8,0.777\C,0,-0.62,4.156,0.193\C,0,-0.187,4.0
 15,-1.225\C,0,-0.214,2.583,-1.38\C,0,-0.887,5.406,0.974\C,0,0.181,5.01
 3,-2.277\O,0,0.303,4.69,-3.508\C,0,0.31,6.414,-1.837\N,0,-0.265,-0.413
 ,-2.029\C,0,-0.279,0.569,-2.937\C,0,-0.196,0.024,-4.332\C,0,0.124,-1.5
 33,-4.18\C,0,0.086,-1.632,-2.635\C,0,-1.451,0.205,-5.197\C,0,1.373,-2.
 07,-4.923\C,0,2.626,-1.49,-4.306\N,0,0.15,-2.144,0.303\C,0,0.173,-3.13
 6,-0.688\C,0,0.173,-4.438,0.004\C,0,0.133,-4.111,1.358\C,0,0.083,-2.69
 5,1.502\C,0,0.149,-5.715,-0.623\C,0,0.096,-4.629,2.716\O,0,0.208,-5.74
 7,3.221\C,0,-0.255,-3.428,3.701\C,0,0.717,-3.482,4.848\O,0,1.931,-3.25
 5,4.669\O,0,0.038,-3.556,6.003\C,0,0.943,-3.583,7.183\H,0,-1.859,3.22,
 2.497\H,0,-0.218,2.453,-3.474\H,0,0.276,-3.747,-2.605\H,0,-1.554,-0.94
 9,5.132\H,0,-1.585,1.831,4.665\H,0,-3.484,-0.377,3.969\H,0,-3.511,1.02
 7,2.858\H,0,-3.852,1.301,4.543\H,0,0.669,1.096,4.966\H,0,1.13,-0.639,5
 .189\H,0,-0.844,0.026,7.125\H,0,0.062,1.477,6.921\H,0,-1.344,5.186,1.9
 38\H,0,-1.651,5.963,0.432\H,0,0.007,6.02,1.084\H,0,-0.635,6.744,-1.405
 \H,0,0.665,6.97,-2.704\H,0,1.048,6.466,-1.036\H,0,0.608,0.501,-4.891\H
 ,0,-0.692,-2.156,-4.547\H,0,-1.267,0.74,-6.129\H,0,-2.204,0.714,-4.596
 \H,0,-1.967,-0.72,-5.453\H,0,1.356,-1.759,-5.967\H,0,1.452,-3.157,-4.9
 02\H,0,2.714,-0.522,-4.798\H,0,3.487,-2.121,-4.529\H,0,2.495,-1.303,-3
 .24\H,0,0.867,-6.333,-0.084\H,0,0.404,-5.642,-1.68\H,0,-0.891,-5.999,-
 0.463\H,0,-1.283,-3.581,4.028\H,0,0.698,-4.478,7.755\H,0,0.833,-2.619,
 7.68\H,0,2.,-3.754,6.976\Mg,0,8.94058,0.81221,0.68182\C,0,8.47455,0.68
 258,4.23781\C,0,7.76092,4.01072,0.79399\C,0,8.91302,0.80782,-2.49098\C
 ,0,8.9838,-2.67254,0.70009\N,0,8.24069,2.07319,2.35882\C,0,8.16685,1.9
 385,3.67441\C,0,7.81663,3.24495,4.43605\C,0,7.07183,4.02475,3.24607\C,
 0,7.75373,3.35851,2.05283\C,0,5.5831,3.72891,3.17184\C,0,9.0949,4.0172
 7,4.91726\C,0,8.82874,5.13355,5.9296\H,0,9.81665,5.37233,6.97817\N,0,8
 .88601,2.32284,-0.60411\C,0,8.39275,3.55989,-0.38579\C,0,8.56852,4.291
 94,-1.64967\C,0,9.05495,3.33625,-2.68154\C,0,8.94801,2.08692,-1.95504\
 C,0,8.35778,5.7735,-1.76797\C,0,9.52491,3.51539,-4.09336\O,0,9.67569,2
 .51828,-4.88449\C,0,9.71374,4.8998,-4.55079\N,0,8.73564,-0.70539,-0.72
 433\C,0,8.81229,-0.443,-2.04084\C,0,8.91322,-1.71659,-2.84591\C,0,9.13
 288,-2.88485,-1.7761\C,0,9.02709,-2.05959,-0.47489\C,0,7.70427,-2.0483
 8,-3.7204\C,0,10.3749,-3.79631,-1.97438\C,0,11.64021,-3.00171,-1.7442\
 N,0,8.9498,-0.73528,2.18954\C,0,8.94284,-2.13157,1.97879\C,0,8.83501,-
 2.77164,3.30585\C,0,8.76296,-1.6945,4.20199\C,0,8.8014,-0.46958,3.4825
 4\C,0,8.76614,-4.17213,3.55083\C,0,8.65243,-1.31519,5.59217\O,0,8.6680
 6,-1.92233,6.66216\C,0,8.33336,0.24008,5.6678\C,0,9.25498,0.85436,6.68
 554\O,0,10.4827,0.88468,6.4896\O,0,8.5217,1.49491,7.61418\C,0,9.39173,
 2.13003,8.63961\H,0,7.19397,4.93576,0.68569\H,0,9.0129,0.74886,-3.5772
 7\H,0,9.08949,-3.75509,0.79802\H,0,7.14289,3.11525,5.27452\H,0,7.29666
 ,5.0879,3.269\H,0,5.29246,2.94923,3.86015\H,0,5.39465,3.42223,2.15131\
 H,0,5.00833,4.64736,3.32154\H,0,9.49001,4.61074,4.08274\H,0,9.82454,3.
 3375,5.31243\H,0,7.82119,5.06968,6.35821\H,0,8.83508,6.08998,5.4012\H,
 0,7.84355,6.17823,-0.88754\H,0,7.65241,5.93143,-2.59099\H,0,9.28134,6.
 31427,-1.98538\H,0,8.7766,5.44292,-4.45457\H,0,10.13719,4.82093,-5.553
 96\H,0,10.4327,5.39265,-3.88685\H,0,9.76607,-1.68594,-3.51287\H,0,8.29
 166,-3.59345,-1.76808\H,0,7.95971,-2.17124,-4.78985\H,0,6.96626,-1.267
 58,-3.59298\H,0,7.15166,-2.9389,-3.42576\H,0,10.41863,-4.15798,-3.0046
 4\H,0,10.37957,-4.66686,-1.327\H,0,11.80153,-2.50986,-2.70812\H,0,12.4
 6776,-3.66287,-1.49505\H,0,11.48121,-2.2165,-0.99599\H,0,9.41637,-4.37
 345,4.39176\H,0,9.06086,-4.74417,2.67351\H,0,7.70081,-4.2793,3.77188\H
 ,0,7.28473,0.34611,5.94835\H,0,9.06605,1.75181,9.61356\H,0,9.30813,3.2
 198,8.46885\H,0,10.44031,1.85638,8.64633\\Version=ES64L-G16RevA.03\Sta
 te=1-A\HF=-4069.8115693\RMSD=7.327e-09\PG=C01 [X(C68H72Mg2N8O8)]\\@


 LET US PLACE AT THE END OF EVERY CHAPTER.....THE
 TWO LETTERS USED BY THE ROMAN JUDGES WHEN THEY DID
 NOT UNDERSTAND A PLEADING.
 N. L. -NON LIQUET- IT IS NOT CLEAR.
                                              -- VOLTAIRE
 Job cpu time:       0 days 14 hours  2 minutes 11.6 seconds.
 Elapsed time:       0 days  0 hours 35 minutes 43.1 seconds.
 File lengths (MBytes):  RWF=  13225 Int=      0 D2E=      0 Chk=    574 Scr=      1
 Normal termination of Gaussian 16 at Fri Sep 10 02:32:35 2021.
