 Entering Gaussian System, Link 0=g16
 Initial command:
 /sw/apps/gaussian-16.0/g16/l1.exe "/tmp/Gau-276087.inp" -scrdir="/tmp/"
 Entering Link 1 = /sw/apps/gaussian-16.0/g16/l1.exe PID=    276088.
  
 Copyright (c) 1988,1990,1992,1993,1995,1998,2003,2009,2016,
            Gaussian, Inc.  All Rights Reserved.
  
 This is part of the Gaussian(R) 16 program.  It is based on
 the Gaussian(R) 09 system (copyright 2009, Gaussian, Inc.),
 the Gaussian(R) 03 system (copyright 2003, Gaussian, Inc.),
 the Gaussian(R) 98 system (copyright 1998, Gaussian, Inc.),
 the Gaussian(R) 94 system (copyright 1995, Gaussian, Inc.),
 the Gaussian 92(TM) system (copyright 1992, Gaussian, Inc.),
 the Gaussian 90(TM) system (copyright 1990, Gaussian, Inc.),
 the Gaussian 88(TM) system (copyright 1988, Gaussian, Inc.),
 the Gaussian 86(TM) system (copyright 1986, Carnegie Mellon
 University), and the Gaussian 82(TM) system (copyright 1983,
 Carnegie Mellon University). Gaussian is a federally registered
 trademark of Gaussian, Inc.
  
 This software contains proprietary and confidential information,
 including trade secrets, belonging to Gaussian, Inc.
  
 This software is provided under written license and may be
 used, copied, transmitted, or stored only in accord with that
 written license.
  
 The following legend is applicable only to US Government
 contracts under FAR:
  
                    RESTRICTED RIGHTS LEGEND
  
 Use, reproduction and disclosure by the US Government is
 subject to restrictions as set forth in subparagraphs (a)
 and (c) of the Commercial Computer Software - Restricted
 Rights clause in FAR 52.227-19.
  
 Gaussian, Inc.
 340 Quinnipiac St., Bldg. 40, Wallingford CT 06492
  
  
 ---------------------------------------------------------------
 Warning -- This program may not be used in any manner that
 competes with the business of Gaussian, Inc. or will provide
 assistance to any competitor of Gaussian, Inc.  The licensee
 of this program is prohibited from giving any competitor of
 Gaussian, Inc. access to this program.  By using this program,
 the user acknowledges that Gaussian, Inc. is engaged in the
 business of creating and licensing software in the field of
 computational chemistry and represents and warrants to the
 licensee that it is not a competitor of Gaussian, Inc. and that
 it will not use this program in any manner prohibited above.
 ---------------------------------------------------------------
  

 Cite this work as:
 Gaussian 16, Revision A.03,
 M. J. Frisch, G. W. Trucks, H. B. Schlegel, G. E. Scuseria, 
 M. A. Robb, J. R. Cheeseman, G. Scalmani, V. Barone, 
 G. A. Petersson, H. Nakatsuji, X. Li, M. Caricato, A. V. Marenich, 
 J. Bloino, B. G. Janesko, R. Gomperts, B. Mennucci, H. P. Hratchian, 
 J. V. Ortiz, A. F. Izmaylov, J. L. Sonnenberg, D. Williams-Young, 
 F. Ding, F. Lipparini, F. Egidi, J. Goings, B. Peng, A. Petrone, 
 T. Henderson, D. Ranasinghe, V. G. Zakrzewski, J. Gao, N. Rega, 
 G. Zheng, W. Liang, M. Hada, M. Ehara, K. Toyota, R. Fukuda, 
 J. Hasegawa, M. Ishida, T. Nakajima, Y. Honda, O. Kitao, H. Nakai, 
 T. Vreven, K. Throssell, J. A. Montgomery, Jr., J. E. Peralta, 
 F. Ogliaro, M. J. Bearpark, J. J. Heyd, E. N. Brothers, K. N. Kudin, 
 V. N. Staroverov, T. A. Keith, R. Kobayashi, J. Normand, 
 K. Raghavachari, A. P. Rendell, J. C. Burant, S. S. Iyengar, 
 J. Tomasi, M. Cossi, J. M. Millam, M. Klene, C. Adamo, R. Cammi, 
 J. W. Ochterski, R. L. Martin, K. Morokuma, O. Farkas, 
 J. B. Foresman, and D. J. Fox, Gaussian, Inc., Wallingford CT, 2016.
 
 ******************************************
 Gaussian 16:  ES64L-G16RevA.03 25-Dec-2016
                 8-Sep-2021 
 ******************************************
 %nproc=24
 Will use up to   24 processors via shared memory.
 %mem=175gb
 -----------------------------------
 #p cam-b3lyp/Def2SVP td=(nstates=5)
 -----------------------------------
 1/38=1,172=1/1;
 2/12=2,17=6,18=5,40=1/2;
 3/5=43,7=101,11=9,25=1,30=1,74=-40/1,2,3,8;
 4//1;
 5/5=2,38=5/2;
 8/6=1,10=1,108=5/1;
 9/41=5,42=1,70=2/14;
 6/7=2,8=2,9=2,10=2/1;
 99/5=1,9=1/99;
 Leave Link    1 at Wed Sep  8 15:57:19 2021, MaxMem= 23488102400 cpu:               0.9 elap:               0.0
 (Enter /sw/apps/gaussian-16.0/g16/l101.exe)
 --------------------------------
 TDDFT excited states in gaussian
 --------------------------------
 Symbolic Z-matrix:
 Charge =  0 Multiplicity = 1
 Mg                    0.        0.        0. 
 C                    -0.217    -2.218     2.801 
 C                    -1.255     2.442     2.026 
 C                    -0.245     1.85     -2.564 
 C                     0.146    -2.824    -2.037 
 N                    -0.617    -0.009     2.126 
 C                    -0.594    -0.908     3.105 
 C                    -0.936    -0.309     4.502 
 C                    -1.773     0.964     4.032 
 C                    -1.155     1.168     2.66 
 C                    -3.263     0.685     3.863 
 C                     0.345     0.11      5.299 
 C                     0.124     0.397     6.787 
 H                     1.168     0.033     7.733 
 N                    -0.185     1.961    -0.152 
 C                    -0.703     2.8       0.777 
 C                    -0.62      4.156     0.193 
 C                    -0.187     4.015    -1.225 
 C                    -0.214     2.583    -1.38 
 C                    -0.887     5.406     0.974 
 C                     0.181     5.013    -2.277 
 O                     0.303     4.69     -3.508 
 C                     0.31      6.414    -1.837 
 N                    -0.265    -0.413    -2.029 
 C                    -0.279     0.569    -2.937 
 C                    -0.196     0.024    -4.332 
 C                     0.124    -1.533    -4.18 
 C                     0.086    -1.632    -2.635 
 C                    -1.451     0.205    -5.197 
 C                     1.373    -2.07     -4.923 
 C                     2.626    -1.49     -4.306 
 N                     0.15     -2.144     0.303 
 C                     0.173    -3.136    -0.688 
 C                     0.173    -4.438     0.004 
 C                     0.133    -4.111     1.358 
 C                     0.083    -2.695     1.502 
 C                     0.149    -5.715    -0.623 
 C                     0.096    -4.629     2.716 
 O                     0.208    -5.747     3.221 
 C                    -0.255    -3.428     3.701 
 C                     0.717    -3.482     4.848 
 O                     1.931    -3.255     4.669 
 O                     0.038    -3.556     6.003 
 C                     0.943    -3.583     7.183 
 H                    -1.859     3.22      2.497 
 H                    -0.218     2.453    -3.474 
 H                     0.276    -3.747    -2.605 
 H                    -1.554    -0.949     5.132 
 H                    -1.585     1.831     4.665 
 H                    -3.484    -0.377     3.969 
 H                    -3.511     1.027     2.858 
 H                    -3.852     1.301     4.543 
 H                     0.669     1.096     4.966 
 H                     1.13     -0.639     5.189 
 H                    -0.844     0.026     7.125 
 H                     0.062     1.477     6.921 
 H                    -1.344     5.186     1.938 
 H                    -1.651     5.963     0.432 
 H                     0.007     6.02      1.084 
 H                    -0.635     6.744    -1.405 
 H                     0.665     6.97     -2.704 
 H                     1.048     6.466    -1.036 
 H                     0.608     0.501    -4.891 
 H                    -0.692    -2.156    -4.547 
 H                    -1.267     0.74     -6.129 
 H                    -2.204     0.714    -4.596 
 H                    -1.967    -0.72     -5.453 
 H                     1.356    -1.759    -5.967 
 H                     1.452    -3.157    -4.902 
 H                     2.714    -0.522    -4.798 
 H                     3.487    -2.121    -4.529 
 H                     2.495    -1.303    -3.24 
 H                     0.867    -6.333    -0.084 
 H                     0.404    -5.642    -1.68 
 H                    -0.891    -5.999    -0.463 
 H                    -1.283    -3.581     4.028 
 H                     0.698    -4.478     7.755 
 H                     0.833    -2.619     7.68 
 H                     2.       -3.754     6.976 
 Mg                    7.89121   0.7034    0.59611 
 C                     7.91544   1.1347   -2.96654 
 C                     7.34927  -2.61807   0.04042 
 C                     7.4162    0.36079   3.71451 
 C                     7.29338   4.1261    0.86702 
 N                     7.67939  -0.46986  -1.26692 
 C                     7.76825  -0.20859  -2.56236 
 C                     7.77585  -1.46567  -3.473 
 C                     7.02735  -2.48448  -2.48272 
 C                     7.39954  -1.84466  -1.14677 
 C                     5.51427  -2.45582  -2.62095 
 C                     9.22945  -1.95294  -3.8071 
 C                     9.31911  -2.98241  -4.93577 
 H                     10.47192  -2.93524  -5.83091 
 N                     7.93531  -0.92427   1.73071 
 C                     7.71437  -2.19631   1.33779 
 C                     7.84208  -3.0198    2.5501 
 C                     7.99353  -2.11229   3.7198 
 C                     7.76162  -0.82836   3.08907 
 C                     7.89356  -4.51961   2.51331 
 C                     8.28461  -2.36014   5.16896 
 O                     8.13588  -1.44315   6.05204 
 C                     8.659    -3.73344   5.53689 
 N                     7.2138    2.0034    2.07037 
 C                     7.1511    1.61741   3.35684 
 C                     6.90095   2.79525   4.26817 
 C                     7.05009   4.09232   3.34462 
 C                     7.28281   3.40633   1.98056 
 C                     5.54053   2.82037   4.96459 
 C                     8.06219   5.17489   3.80978 
 C                     9.4719    4.63652   3.71886 
 N                     7.8275    2.38339  -0.76095 
 C                     7.53359   3.72717  -0.44162 
 C                     7.49782   4.47894  -1.71284 
 C                     7.75269   3.50827  -2.69331 
 C                     7.91446   2.23737  -2.07836 
 C                     7.20718   5.86546  -1.85144 
 C                     7.91113   3.26788  -4.10957 
 O                     7.96528   3.98066  -5.11095 
 C                     7.89817   1.69837  -4.36031 
 C                     9.05139   1.36314  -5.26598 
 O                     10.22354   1.52104  -4.88162 
 O                     8.58717   0.71122  -6.34758 
 C                     9.69513   0.34763  -7.27066 
 H                     6.95307  -3.63224  -0.01746 
 H                     7.34931   0.31834   4.80409 
 H                     7.21042   5.21501   0.87497 
 H                     7.21483  -1.36273  -4.3941 
 H                     7.44527  -3.48516  -2.55582 
 H                     5.18488  -1.66728  -3.28114 
 H                     5.13052  -2.29753  -1.62159 
 H                     5.14563  -3.43703  -2.93344 
 H                     9.6055   -2.55709  -2.97144 
 H                     9.86956  -1.12041  -4.02568 
 H                     8.38773  -3.04492  -5.5116 
 H                     9.42709  -3.97517  -4.49217 
 H                     7.59213  -4.90851   1.53285 
 H                     7.1205   -4.88301   3.19902 
 H                     8.86093  -4.91574   2.82943 
 H                     7.86115  -4.41438   5.25017 
 H                     8.91489  -3.69239   6.59742 
 H                     9.54282  -4.02233   4.95721 
 H                     7.64211   2.83828   5.0568 
 H                     6.10233   4.64425   3.26116 
 H                     5.61555   2.86879   6.06736 
 H                     4.98459   1.94383   4.65939 
 H                     4.88039   3.63048   4.6594 
 H                     7.89277   5.42546   4.85985 
 H                     7.99752   6.09824   3.24388 
 H                     9.58356   4.0782    4.65315 
 H                     10.19009   5.4517    3.65795 
 H                     9.56751   3.92106   2.89386 
 H                     7.92112   6.26391  -2.55998 
 H                     7.26469   6.38127  -0.89519 
 H                     6.18236   5.81316  -2.22864 
 H                     6.93729   1.44649  -4.81067 
 H                     9.44595   0.76778  -8.24998 
 H                     9.79064  -0.75246  -7.20402 
 H                     10.66557   0.79467  -7.08944 
 
 ITRead=  0  0  0  0  0  0  0  0  0  0  0  0  0  0  0  0  0  0  0  0
 ITRead=  0  0  0  0  0  0  0  0  0  0  0  0  0  0  0  0  0  0  0  0
 ITRead=  0  0  0  0  0  0  0  0  0  0  0  0  0  0  0  0  0  0  0  0
 ITRead=  0  0  0  0  0  0  0  0  0  0  0  0  0  0  0  0  0  0  0  0
 ITRead=  0  0  0  0  0  0  0  0  0  0  0  0  0  0  0  0  0  0  0  0
 ITRead=  0  0  0  0  0  0  0  0  0  0  0  0  0  0  0  0  0  0  0  0
 ITRead=  0  0  0  0  0  0  0  0  0  0  0  0  0  0  0  0  0  0  0  0
 ITRead=  0  0  0  0  0  0  0  0  0  0  0  0  0  0  0  0  0  0
 MicOpt= -1 -1 -1 -1 -1 -1 -1 -1 -1 -1 -1 -1 -1 -1 -1 -1 -1 -1 -1 -1
 MicOpt= -1 -1 -1 -1 -1 -1 -1 -1 -1 -1 -1 -1 -1 -1 -1 -1 -1 -1 -1 -1
 MicOpt= -1 -1 -1 -1 -1 -1 -1 -1 -1 -1 -1 -1 -1 -1 -1 -1 -1 -1 -1 -1
 MicOpt= -1 -1 -1 -1 -1 -1 -1 -1 -1 -1 -1 -1 -1 -1 -1 -1 -1 -1 -1 -1
 MicOpt= -1 -1 -1 -1 -1 -1 -1 -1 -1 -1 -1 -1 -1 -1 -1 -1 -1 -1 -1 -1
 MicOpt= -1 -1 -1 -1 -1 -1 -1 -1 -1 -1 -1 -1 -1 -1 -1 -1 -1 -1 -1 -1
 MicOpt= -1 -1 -1 -1 -1 -1 -1 -1 -1 -1 -1 -1 -1 -1 -1 -1 -1 -1 -1 -1
 MicOpt= -1 -1 -1 -1 -1 -1 -1 -1 -1 -1 -1 -1 -1 -1 -1 -1 -1 -1
 NAtoms=    158 NQM=      158 NQMF=       0 NMMI=      0 NMMIF=      0
                NMic=       0 NMicF=      0.
                    Isotopes and Nuclear Properties:
 (Nuclear quadrupole moments (NQMom) in fm**2, nuclear magnetic moments (NMagM)
  in nuclear magnetons)

  Atom         1           2           3           4           5           6           7           8           9          10
 IAtWgt=          24          12          12          12          12          14          12          12          12          12
 AtmWgt=  23.9850450  12.0000000  12.0000000  12.0000000  12.0000000  14.0030740  12.0000000  12.0000000  12.0000000  12.0000000
 NucSpn=           0           0           0           0           0           2           0           0           0           0
 AtZEff=  -0.0000000  -0.0000000  -0.0000000  -0.0000000  -0.0000000  -0.0000000  -0.0000000  -0.0000000  -0.0000000  -0.0000000
 NQMom=    0.0000000   0.0000000   0.0000000   0.0000000   0.0000000   2.0440000   0.0000000   0.0000000   0.0000000   0.0000000
 NMagM=    0.0000000   0.0000000   0.0000000   0.0000000   0.0000000   0.4037610   0.0000000   0.0000000   0.0000000   0.0000000
 AtZNuc=  12.0000000   6.0000000   6.0000000   6.0000000   6.0000000   7.0000000   6.0000000   6.0000000   6.0000000   6.0000000

  Atom        11          12          13          14          15          16          17          18          19          20
 IAtWgt=          12          12          12           1          14          12          12          12          12          12
 AtmWgt=  12.0000000  12.0000000  12.0000000   1.0078250  14.0030740  12.0000000  12.0000000  12.0000000  12.0000000  12.0000000
 NucSpn=           0           0           0           1           2           0           0           0           0           0
 AtZEff=  -0.0000000  -0.0000000  -0.0000000  -0.0000000  -0.0000000  -0.0000000  -0.0000000  -0.0000000  -0.0000000  -0.0000000
 NQMom=    0.0000000   0.0000000   0.0000000   0.0000000   2.0440000   0.0000000   0.0000000   0.0000000   0.0000000   0.0000000
 NMagM=    0.0000000   0.0000000   0.0000000   2.7928460   0.4037610   0.0000000   0.0000000   0.0000000   0.0000000   0.0000000
 AtZNuc=   6.0000000   6.0000000   6.0000000   1.0000000   7.0000000   6.0000000   6.0000000   6.0000000   6.0000000   6.0000000

  Atom        21          22          23          24          25          26          27          28          29          30
 IAtWgt=          12          16          12          14          12          12          12          12          12          12
 AtmWgt=  12.0000000  15.9949146  12.0000000  14.0030740  12.0000000  12.0000000  12.0000000  12.0000000  12.0000000  12.0000000
 NucSpn=           0           0           0           2           0           0           0           0           0           0
 AtZEff=  -0.0000000  -0.0000000  -0.0000000  -0.0000000  -0.0000000  -0.0000000  -0.0000000  -0.0000000  -0.0000000  -0.0000000
 NQMom=    0.0000000   0.0000000   0.0000000   2.0440000   0.0000000   0.0000000   0.0000000   0.0000000   0.0000000   0.0000000
 NMagM=    0.0000000   0.0000000   0.0000000   0.4037610   0.0000000   0.0000000   0.0000000   0.0000000   0.0000000   0.0000000
 AtZNuc=   6.0000000   8.0000000   6.0000000   7.0000000   6.0000000   6.0000000   6.0000000   6.0000000   6.0000000   6.0000000

  Atom        31          32          33          34          35          36          37          38          39          40
 IAtWgt=          12          14          12          12          12          12          12          12          16          12
 AtmWgt=  12.0000000  14.0030740  12.0000000  12.0000000  12.0000000  12.0000000  12.0000000  12.0000000  15.9949146  12.0000000
 NucSpn=           0           2           0           0           0           0           0           0           0           0
 AtZEff=  -0.0000000  -0.0000000  -0.0000000  -0.0000000  -0.0000000  -0.0000000  -0.0000000  -0.0000000  -0.0000000  -0.0000000
 NQMom=    0.0000000   2.0440000   0.0000000   0.0000000   0.0000000   0.0000000   0.0000000   0.0000000   0.0000000   0.0000000
 NMagM=    0.0000000   0.4037610   0.0000000   0.0000000   0.0000000   0.0000000   0.0000000   0.0000000   0.0000000   0.0000000
 AtZNuc=   6.0000000   7.0000000   6.0000000   6.0000000   6.0000000   6.0000000   6.0000000   6.0000000   8.0000000   6.0000000

  Atom        41          42          43          44          45          46          47          48          49          50
 IAtWgt=          12          16          16          12           1           1           1           1           1           1
 AtmWgt=  12.0000000  15.9949146  15.9949146  12.0000000   1.0078250   1.0078250   1.0078250   1.0078250   1.0078250   1.0078250
 NucSpn=           0           0           0           0           1           1           1           1           1           1
 AtZEff=  -0.0000000  -0.0000000  -0.0000000  -0.0000000  -0.0000000  -0.0000000  -0.0000000  -0.0000000  -0.0000000  -0.0000000
 NQMom=    0.0000000   0.0000000   0.0000000   0.0000000   0.0000000   0.0000000   0.0000000   0.0000000   0.0000000   0.0000000
 NMagM=    0.0000000   0.0000000   0.0000000   0.0000000   2.7928460   2.7928460   2.7928460   2.7928460   2.7928460   2.7928460
 AtZNuc=   6.0000000   8.0000000   8.0000000   6.0000000   1.0000000   1.0000000   1.0000000   1.0000000   1.0000000   1.0000000

  Atom        51          52          53          54          55          56          57          58          59          60
 IAtWgt=           1           1           1           1           1           1           1           1           1           1
 AtmWgt=   1.0078250   1.0078250   1.0078250   1.0078250   1.0078250   1.0078250   1.0078250   1.0078250   1.0078250   1.0078250
 NucSpn=           1           1           1           1           1           1           1           1           1           1
 AtZEff=  -0.0000000  -0.0000000  -0.0000000  -0.0000000  -0.0000000  -0.0000000  -0.0000000  -0.0000000  -0.0000000  -0.0000000
 NQMom=    0.0000000   0.0000000   0.0000000   0.0000000   0.0000000   0.0000000   0.0000000   0.0000000   0.0000000   0.0000000
 NMagM=    2.7928460   2.7928460   2.7928460   2.7928460   2.7928460   2.7928460   2.7928460   2.7928460   2.7928460   2.7928460
 AtZNuc=   1.0000000   1.0000000   1.0000000   1.0000000   1.0000000   1.0000000   1.0000000   1.0000000   1.0000000   1.0000000

  Atom        61          62          63          64          65          66          67          68          69          70
 IAtWgt=           1           1           1           1           1           1           1           1           1           1
 AtmWgt=   1.0078250   1.0078250   1.0078250   1.0078250   1.0078250   1.0078250   1.0078250   1.0078250   1.0078250   1.0078250
 NucSpn=           1           1           1           1           1           1           1           1           1           1
 AtZEff=  -0.0000000  -0.0000000  -0.0000000  -0.0000000  -0.0000000  -0.0000000  -0.0000000  -0.0000000  -0.0000000  -0.0000000
 NQMom=    0.0000000   0.0000000   0.0000000   0.0000000   0.0000000   0.0000000   0.0000000   0.0000000   0.0000000   0.0000000
 NMagM=    2.7928460   2.7928460   2.7928460   2.7928460   2.7928460   2.7928460   2.7928460   2.7928460   2.7928460   2.7928460
 AtZNuc=   1.0000000   1.0000000   1.0000000   1.0000000   1.0000000   1.0000000   1.0000000   1.0000000   1.0000000   1.0000000

  Atom        71          72          73          74          75          76          77          78          79          80
 IAtWgt=           1           1           1           1           1           1           1           1           1          24
 AtmWgt=   1.0078250   1.0078250   1.0078250   1.0078250   1.0078250   1.0078250   1.0078250   1.0078250   1.0078250  23.9850450
 NucSpn=           1           1           1           1           1           1           1           1           1           0
 AtZEff=  -0.0000000  -0.0000000  -0.0000000  -0.0000000  -0.0000000  -0.0000000  -0.0000000  -0.0000000  -0.0000000  -0.0000000
 NQMom=    0.0000000   0.0000000   0.0000000   0.0000000   0.0000000   0.0000000   0.0000000   0.0000000   0.0000000   0.0000000
 NMagM=    2.7928460   2.7928460   2.7928460   2.7928460   2.7928460   2.7928460   2.7928460   2.7928460   2.7928460   0.0000000
 AtZNuc=   1.0000000   1.0000000   1.0000000   1.0000000   1.0000000   1.0000000   1.0000000   1.0000000   1.0000000  12.0000000

  Atom        81          82          83          84          85          86          87          88          89          90
 IAtWgt=          12          12          12          12          14          12          12          12          12          12
 AtmWgt=  12.0000000  12.0000000  12.0000000  12.0000000  14.0030740  12.0000000  12.0000000  12.0000000  12.0000000  12.0000000
 NucSpn=           0           0           0           0           2           0           0           0           0           0
 AtZEff=  -0.0000000  -0.0000000  -0.0000000  -0.0000000  -0.0000000  -0.0000000  -0.0000000  -0.0000000  -0.0000000  -0.0000000
 NQMom=    0.0000000   0.0000000   0.0000000   0.0000000   2.0440000   0.0000000   0.0000000   0.0000000   0.0000000   0.0000000
 NMagM=    0.0000000   0.0000000   0.0000000   0.0000000   0.4037610   0.0000000   0.0000000   0.0000000   0.0000000   0.0000000
 AtZNuc=   6.0000000   6.0000000   6.0000000   6.0000000   7.0000000   6.0000000   6.0000000   6.0000000   6.0000000   6.0000000

  Atom        91          92          93          94          95          96          97          98          99         100
 IAtWgt=          12          12           1          14          12          12          12          12          12          12
 AtmWgt=  12.0000000  12.0000000   1.0078250  14.0030740  12.0000000  12.0000000  12.0000000  12.0000000  12.0000000  12.0000000
 NucSpn=           0           0           1           2           0           0           0           0           0           0
 AtZEff=  -0.0000000  -0.0000000  -0.0000000  -0.0000000  -0.0000000  -0.0000000  -0.0000000  -0.0000000  -0.0000000  -0.0000000
 NQMom=    0.0000000   0.0000000   0.0000000   2.0440000   0.0000000   0.0000000   0.0000000   0.0000000   0.0000000   0.0000000
 NMagM=    0.0000000   0.0000000   2.7928460   0.4037610   0.0000000   0.0000000   0.0000000   0.0000000   0.0000000   0.0000000
 AtZNuc=   6.0000000   6.0000000   1.0000000   7.0000000   6.0000000   6.0000000   6.0000000   6.0000000   6.0000000   6.0000000

  Atom       101         102         103         104         105         106         107         108         109         110
 IAtWgt=          16          12          14          12          12          12          12          12          12          12
 AtmWgt=  15.9949146  12.0000000  14.0030740  12.0000000  12.0000000  12.0000000  12.0000000  12.0000000  12.0000000  12.0000000
 NucSpn=           0           0           2           0           0           0           0           0           0           0
 AtZEff=  -0.0000000  -0.0000000  -0.0000000  -0.0000000  -0.0000000  -0.0000000  -0.0000000  -0.0000000  -0.0000000  -0.0000000
 NQMom=    0.0000000   0.0000000   2.0440000   0.0000000   0.0000000   0.0000000   0.0000000   0.0000000   0.0000000   0.0000000
 NMagM=    0.0000000   0.0000000   0.4037610   0.0000000   0.0000000   0.0000000   0.0000000   0.0000000   0.0000000   0.0000000
 AtZNuc=   8.0000000   6.0000000   7.0000000   6.0000000   6.0000000   6.0000000   6.0000000   6.0000000   6.0000000   6.0000000

  Atom       111         112         113         114         115         116         117         118         119         120
 IAtWgt=          14          12          12          12          12          12          12          16          12          12
 AtmWgt=  14.0030740  12.0000000  12.0000000  12.0000000  12.0000000  12.0000000  12.0000000  15.9949146  12.0000000  12.0000000
 NucSpn=           2           0           0           0           0           0           0           0           0           0
 AtZEff=  -0.0000000  -0.0000000  -0.0000000  -0.0000000  -0.0000000  -0.0000000  -0.0000000  -0.0000000  -0.0000000  -0.0000000
 NQMom=    2.0440000   0.0000000   0.0000000   0.0000000   0.0000000   0.0000000   0.0000000   0.0000000   0.0000000   0.0000000
 NMagM=    0.4037610   0.0000000   0.0000000   0.0000000   0.0000000   0.0000000   0.0000000   0.0000000   0.0000000   0.0000000
 AtZNuc=   7.0000000   6.0000000   6.0000000   6.0000000   6.0000000   6.0000000   6.0000000   8.0000000   6.0000000   6.0000000

  Atom       121         122         123         124         125         126         127         128         129         130
 IAtWgt=          16          16          12           1           1           1           1           1           1           1
 AtmWgt=  15.9949146  15.9949146  12.0000000   1.0078250   1.0078250   1.0078250   1.0078250   1.0078250   1.0078250   1.0078250
 NucSpn=           0           0           0           1           1           1           1           1           1           1
 AtZEff=  -0.0000000  -0.0000000  -0.0000000  -0.0000000  -0.0000000  -0.0000000  -0.0000000  -0.0000000  -0.0000000  -0.0000000
 NQMom=    0.0000000   0.0000000   0.0000000   0.0000000   0.0000000   0.0000000   0.0000000   0.0000000   0.0000000   0.0000000
 NMagM=    0.0000000   0.0000000   0.0000000   2.7928460   2.7928460   2.7928460   2.7928460   2.7928460   2.7928460   2.7928460
 AtZNuc=   8.0000000   8.0000000   6.0000000   1.0000000   1.0000000   1.0000000   1.0000000   1.0000000   1.0000000   1.0000000

  Atom       131         132         133         134         135         136         137         138         139         140
 IAtWgt=           1           1           1           1           1           1           1           1           1           1
 AtmWgt=   1.0078250   1.0078250   1.0078250   1.0078250   1.0078250   1.0078250   1.0078250   1.0078250   1.0078250   1.0078250
 NucSpn=           1           1           1           1           1           1           1           1           1           1
 AtZEff=  -0.0000000  -0.0000000  -0.0000000  -0.0000000  -0.0000000  -0.0000000  -0.0000000  -0.0000000  -0.0000000  -0.0000000
 NQMom=    0.0000000   0.0000000   0.0000000   0.0000000   0.0000000   0.0000000   0.0000000   0.0000000   0.0000000   0.0000000
 NMagM=    2.7928460   2.7928460   2.7928460   2.7928460   2.7928460   2.7928460   2.7928460   2.7928460   2.7928460   2.7928460
 AtZNuc=   1.0000000   1.0000000   1.0000000   1.0000000   1.0000000   1.0000000   1.0000000   1.0000000   1.0000000   1.0000000

  Atom       141         142         143         144         145         146         147         148         149         150
 IAtWgt=           1           1           1           1           1           1           1           1           1           1
 AtmWgt=   1.0078250   1.0078250   1.0078250   1.0078250   1.0078250   1.0078250   1.0078250   1.0078250   1.0078250   1.0078250
 NucSpn=           1           1           1           1           1           1           1           1           1           1
 AtZEff=  -0.0000000  -0.0000000  -0.0000000  -0.0000000  -0.0000000  -0.0000000  -0.0000000  -0.0000000  -0.0000000  -0.0000000
 NQMom=    0.0000000   0.0000000   0.0000000   0.0000000   0.0000000   0.0000000   0.0000000   0.0000000   0.0000000   0.0000000
 NMagM=    2.7928460   2.7928460   2.7928460   2.7928460   2.7928460   2.7928460   2.7928460   2.7928460   2.7928460   2.7928460
 AtZNuc=   1.0000000   1.0000000   1.0000000   1.0000000   1.0000000   1.0000000   1.0000000   1.0000000   1.0000000   1.0000000

  Atom       151         152         153         154         155         156         157         158
 IAtWgt=           1           1           1           1           1           1           1           1
 AtmWgt=   1.0078250   1.0078250   1.0078250   1.0078250   1.0078250   1.0078250   1.0078250   1.0078250
 NucSpn=           1           1           1           1           1           1           1           1
 AtZEff=  -0.0000000  -0.0000000  -0.0000000  -0.0000000  -0.0000000  -0.0000000  -0.0000000  -0.0000000
 NQMom=    0.0000000   0.0000000   0.0000000   0.0000000   0.0000000   0.0000000   0.0000000   0.0000000
 NMagM=    2.7928460   2.7928460   2.7928460   2.7928460   2.7928460   2.7928460   2.7928460   2.7928460
 AtZNuc=   1.0000000   1.0000000   1.0000000   1.0000000   1.0000000   1.0000000   1.0000000   1.0000000
 Leave Link  101 at Wed Sep  8 15:57:20 2021, MaxMem= 23488102400 cpu:               3.1 elap:               0.2
 (Enter /sw/apps/gaussian-16.0/g16/l202.exe)
 Stoichiometry    C68H72Mg2N8O8
 Framework group  C1[X(C68H72Mg2N8O8)]
 Deg. of freedom   468
 Full point group                 C1      NOp   1
 Largest Abelian subgroup         C1      NOp   1
 Largest concise Abelian subgroup C1      NOp   1
                         Standard orientation:                         
 ---------------------------------------------------------------------
 Center     Atomic      Atomic             Coordinates (Angstroms)
 Number     Number       Type             X           Y           Z
 ---------------------------------------------------------------------
      1         12           0        3.240704   -2.156973    0.007132
      2          6           0        5.228948    0.606953   -1.097320
      3          6           0        4.714568   -1.803553    3.064236
      4          6           0        1.840629   -4.866954    0.874552
      5          6           0        2.796095   -2.987492   -3.348195
      6          7           0        4.762794   -0.739098    0.764441
      7          6           0        5.400782    0.310838    0.256724
      8          6           0        6.211532    1.113506    1.317752
      9          6           0        6.424110   -0.040053    2.397618
     10          6           0        5.209446   -0.895002    2.082062
     11          6           0        7.682676   -0.869341    2.163531
     12          6           0        5.393595    2.309751    1.910803
     13          6           0        6.212960    3.332166    2.703684
     14          1           0        5.842289    4.737212    2.627545
     15          7           0        2.890013   -2.899963    1.803749
     16          6           0        3.579378   -2.633340    2.939079
     17          6           0        2.932908   -3.428960    4.004793
     18          6           0        1.932168   -4.324334    3.360652
     19          6           0        2.202848   -4.081905    1.966616
     20          6           0        3.246596   -3.263725    5.460145
     21          6           0        0.903393   -5.259182    3.913657
     22          8           0        0.296716   -6.113422    3.180997
     23          6           0        0.685340   -5.208605    5.370687
     24          7           0        2.612941   -3.836523   -1.061821
     25          6           0        1.981841   -4.846144   -0.452426
     26          6           0        1.381605   -5.794779   -1.447287
     27          6           0        1.526515   -5.090328   -2.872946
     28          6           0        2.302104   -3.824225   -2.432816
     29          6           0        2.011523   -7.193399   -1.502757
     30          6           0        0.230910   -4.910203   -3.703235
     31          6           0       -0.683027   -3.918076   -3.019494
     32          7           0        3.732691   -1.260014   -1.907146
     33          6           0        3.472181   -1.790795   -3.178790
     34          6           0        4.085955   -0.878909   -4.161548
     35          6           0        4.678961    0.116670   -3.387590
     36          6           0        4.472616   -0.170038   -2.007912
     37          6           0        4.099190   -1.061039   -5.572607
     38          6           0        5.460036    1.342840   -3.404522
     39          8           0        5.849598    2.110741   -4.285467
     40          6           0        5.951749    1.644240   -1.920203
     41          6           0        5.667235    3.093250   -1.632572
     42          8           0        4.494089    3.510900   -1.550939
     43          8           0        6.803800    3.705242   -1.266201
     44          6           0        6.585989    5.139483   -0.938078
     45          1           0        5.277438   -1.938123    3.989984
     46          1           0        1.258177   -5.755854    1.125637
     47          1           0        2.625990   -3.136946   -4.415988
     48          1           0        7.177353    1.480221    0.969709
     49          1           0        6.364921    0.340844    3.416998
     50          1           0        8.158511   -0.612808    1.217120
     51          1           0        7.349536   -1.907321    2.153102
     52          1           0        8.366425   -0.782574    3.008359
     53          1           0        4.740666    1.941478    2.702080
     54          1           0        4.837808    2.823854    1.125866
     55          1           0        7.281950    3.209063    2.527572
     56          1           0        6.087280    3.120918    3.765653
     57          1           0        4.136669   -2.654244    5.611304
     58          1           0        3.523057   -4.247112    5.839918
     59          1           0        2.395701   -2.878477    6.022189
     60          1           0        1.621910   -5.430581    5.882656
     61          1           0       -0.147241   -5.881255    5.573665
     62          1           0        0.415940   -4.190226    5.652249
     63          1           0        0.326155   -5.964440   -1.238321
     64          1           0        2.192745   -5.642524   -3.536189
     65          1           0        1.299639   -8.001336   -1.331981
     66          1           0        2.822659   -7.226750   -0.775957
     67          1           0        2.540284   -7.420185   -2.428174
     68          1           0       -0.311186   -5.852913   -3.769375
     69          1           0        0.415935   -4.562017   -4.719495
     70          1           0       -1.204167   -4.532468   -2.286168
     71          1           0       -1.382943   -3.488523   -3.736999
     72          1           0       -0.115262   -3.166599   -2.470485
     73          1           0        3.874322   -0.087448   -6.007952
     74          1           0        3.371426   -1.810898   -5.881919
     75          1           0        5.127298   -1.389480   -5.724183
     76          1           0        7.018252    1.423072   -1.892301
     77          1           0        7.262509    5.718846   -1.566484
     78          1           0        6.696688    5.230399    0.142609
     79          1           0        5.623046    5.559937   -1.230135
     80         12           0       -3.391338    2.198270    0.418453
     81          6           0       -5.170886   -0.808107   -0.402512
     82          6           0       -2.444862    2.354245   -2.854849
     83          6           0       -1.453142    4.587108    1.195810
     84          6           0       -3.517934    1.197121    3.754220
     85          7           0       -3.817324    0.884475   -1.309195
     86          6           0       -4.556234   -0.195443   -1.514402
     87          6           0       -4.706848   -0.597818   -3.006040
     88          6           0       -3.376604    0.096650   -3.577920
     89          6           0       -3.214645    1.205863   -2.540582
     90          6           0       -2.152660   -0.801635   -3.511716
     91          6           0       -5.997846    0.007475   -3.660985
     92          6           0       -6.371273   -0.591222   -5.018872
     93          1           0       -7.786058   -0.740642   -5.348313
     94          7           0       -2.536017    3.580575   -0.720068
     95          6           0       -2.246124    3.486638   -2.034764
     96          6           0       -1.605742    4.760385   -2.397559
     97          6           0       -1.392259    5.549079   -1.153736
     98          6           0       -1.774943    4.572717   -0.153562
     99          6           0       -1.331913    5.157626   -3.819055
    100          6           0       -0.909757    6.946046   -0.904944
    101          8           0       -0.575253    7.344269    0.266528
    102          6           0       -0.751670    7.805361   -2.087348
    103          7           0       -2.414102    2.704140    2.182378
    104          6           0       -1.673903    3.823525    2.266092
    105          6           0       -1.297697    4.122925    3.697607
    106          6           0       -2.146049    3.100323    4.587641
    107          6           0       -2.828477    2.291557    3.462655
    108          6           0        0.185875    3.984325    4.038458
    109          6           0       -3.036957    3.710548    5.704147
    110          6           0       -4.165504    4.505121    5.087360
    111          7           0       -4.345374    0.610596    1.530723
    112          6           0       -4.245039    0.360671    2.916930
    113          6           0       -4.975568   -0.894652    3.186983
    114          6           0       -5.434357   -1.303331    1.925645
    115          6           0       -5.001923   -0.379376    0.936288
    116          6           0       -5.101266   -1.527533    4.455754
    117          6           0       -6.177121   -2.311898    1.204689
    118          8           0       -6.849974   -3.290648    1.525731
    119          6           0       -5.932412   -2.103537   -0.351943
    120          6           0       -7.267034   -2.159149   -1.043481
    121          8           0       -8.126045   -1.285409   -0.830690
    122          8           0       -7.228845   -3.105150   -1.999505
    123          6           0       -8.526524   -3.190645   -2.721011
    124          1           0       -1.906253    2.374353   -3.802668
    125          1           0       -0.877978    5.452076    1.534157
    126          1           0       -3.686488    0.869984    4.782443
    127          1           0       -4.679559   -1.664483   -3.193776
    128          1           0       -3.544811    0.519337   -4.565039
    129          1           0       -2.355003   -1.719757   -2.980441
    130          1           0       -1.393281   -0.226754   -2.998008
    131          1           0       -1.763808   -0.983674   -4.517686
    132          1           0       -5.794745    1.043327   -3.961814
    133          1           0       -6.833616   -0.064006   -2.992401
    134          1           0       -5.828964   -1.522706   -5.221837
    135          1           0       -6.034901    0.091105   -5.803280
    136          1           0       -1.444597    4.307474   -4.503124
    137          1           0       -0.269191    5.416109   -3.879781
    138          1           0       -1.923753    6.018499   -4.137297
    139          1           0       -0.050567    7.343408   -2.778366
    140          1           0       -0.484942    8.790303   -1.699230
    141          1           0       -1.713980    7.864537   -2.608002
    142          1           0       -1.573570    5.135244    3.966329
    143          1           0       -1.497228    2.397521    5.130727
    144          1           0        0.625450    4.908726    4.458374
    145          1           0        0.715030    3.683956    3.143857
    146          1           0        0.427415    3.179708    4.730884
    147          1           0       -2.457948    4.412301    6.309479
    148          1           0       -3.451957    2.969360    6.378993
    149          1           0       -3.700359    5.473173    4.878545
    150          1           0       -4.990641    4.606925    5.789363
    151          1           0       -4.472468    4.073072    4.127799
    152          1           0       -6.131878   -1.844386    4.544885
    153          1           0       -4.819490   -0.856438    5.264467
    154          1           0       -4.388586   -2.347903    4.335957
    155          1           0       -5.264004   -2.897329   -0.687625
    156          1           0       -8.864129   -4.229184   -2.649293
    157          1           0       -8.331406   -2.793276   -3.734810
    158          1           0       -9.372302   -2.663437   -2.295393
 ---------------------------------------------------------------------
 Rotational constants (GHZ):           0.0217185           0.0161499           0.0141258
 Leave Link  202 at Wed Sep  8 15:57:20 2021, MaxMem= 23488102400 cpu:               0.2 elap:               0.0
 (Enter /sw/apps/gaussian-16.0/g16/l301.exe)
 Standard basis: def2SVP (5D, 7F)
 Ernie: Thresh=  0.10000D-02 Tol=  0.10000D-05 Strict=F.
 There are  1658 symmetry adapted cartesian basis functions of A   symmetry.
 There are  1572 symmetry adapted basis functions of A   symmetry.
  1572 basis functions,  2678 primitive gaussians,  1658 cartesian basis functions
   312 alpha electrons      312 beta electrons
       nuclear repulsion energy     15915.9830947641 Hartrees.
 IExCor=20419 DFT=T Ex+Corr=CAM-B3LYP ExCW=0 ScaHFX=  1.000000
 ScaDFX=  1.000000  1.000000  1.000000  0.810000 ScalE2=  1.000000  1.000000
 IRadAn=      5 IRanWt=     -1 IRanGd=            0 ICorTp=0 IEmpDi=  4
 HFx  wShort=  0.000000 wLong=  0.330000 cFull=  0.190000 cShort=  0.000000 cLong=  0.460000
 DFx  wShort=  0.000000 wLong=  0.330000 cFull=  0.190000 cShort=  0.000000 cLong=  0.460000
 NAtoms=  158 NActive=  158 NUniq=  158 SFac= 1.00D+00 NAtFMM=   60 NAOKFM=T Big=T
 Integral buffers will be    131072 words long.
 Raffenetti 1 integral format.
 Two-electron integral symmetry is turned on.
 Leave Link  301 at Wed Sep  8 15:57:20 2021, MaxMem= 23488102400 cpu:               1.3 elap:               0.1
 (Enter /sw/apps/gaussian-16.0/g16/l302.exe)
 NPDir=0 NMtPBC=     1 NCelOv=     1 NCel=       1 NClECP=     1 NCelD=      1
         NCelK=      1 NCelE2=     1 NClLst=     1 CellRange=     0.0.
 One-electron integrals computed using PRISM.
 One-electron integral symmetry used in STVInt
   1 Symmetry operations used in ECPInt.
 ECPInt:  NShTT=  271216 NPrTT=  987664 LenC2=  163682 LenP2D=  343631.
 LDataN:  DoStor=T MaxTD1= 4 Len=   56
 NBasis=  1572 RedAO= T EigKep=  3.36D-04  NBF=  1572
 NBsUse=  1572 1.00D-06 EigRej= -1.00D+00 NBFU=  1572
 Precomputing XC quadrature grid using
 IXCGrd= 4 IRadAn=           5 IRanWt=          -1 IRanGd=           0 AccXCQ= 0.00D+00.
 Generated NRdTot=       0 NPtTot=           0 NUsed=           0 NTot=          32
 NSgBfM=  1274  1261  1267  1273  1274 MxSgAt=   158 MxSgA2=   158.
 Leave Link  302 at Wed Sep  8 15:57:25 2021, MaxMem= 23488102400 cpu:             124.4 elap:               5.2
 (Enter /sw/apps/gaussian-16.0/g16/l303.exe)
 DipDrv:  MaxL=1.
 Leave Link  303 at Wed Sep  8 15:57:25 2021, MaxMem= 23488102400 cpu:               8.8 elap:               0.4
 (Enter /sw/apps/gaussian-16.0/g16/l308.exe)
 Leave Link  308 at Wed Sep  8 15:57:26 2021, MaxMem= 23488102400 cpu:              14.3 elap:               0.7
 (Enter /sw/apps/gaussian-16.0/g16/l401.exe)
 ExpMin= 3.36D-02 ExpMax= 4.95D+03 ExpMxC= 7.45D+02 IAcc=3 IRadAn=         5 AccDes= 0.00D+00
 Harris functional with IExCor=20419 and IRadAn=       5 diagonalized for initial guess.
 HarFok:  IExCor=20419 AccDes= 0.00D+00 IRadAn=         5 IDoV= 1 UseB2=F ITyADJ=14
 ICtDFT=  3500011 ScaDFX=  1.000000  1.000000  1.000000  1.000000
 FoFCou: FMM=F IPFlag=           0 FMFlag=      100000 FMFlg1=        2001
         NFxFlg=           0 DoJE=T BraDBF=F KetDBF=T FulRan=T
         wScrn=  0.000000 ICntrl=       500 IOpCl=  0 I1Cent=   200000004 NGrid=           0
         NMat0=    1 NMatS0=      1 NMatT0=    0 NMatD0=    1 NMtDS0=    0 NMtDT0=    0
 Petite list used in FoFCou.
 Harris En= -3918.65588569021    
 JPrj=0 DoOrth=F DoCkMO=F.
 Leave Link  401 at Wed Sep  8 15:57:34 2021, MaxMem= 23488102400 cpu:             189.1 elap:               7.9
 (Enter /sw/apps/gaussian-16.0/g16/l502.exe)
 Integral symmetry usage will be decided dynamically.
 Closed shell SCF:
 Using DIIS extrapolation, IDIIS=  1040.
 NGot= 23488102400 LenX= 23482547354 LenY= 23479796732
 Requested convergence on RMS density matrix=1.00D-08 within 128 cycles.
 Requested convergence on MAX density matrix=1.00D-06.
 Requested convergence on             energy=1.00D-06.
 No special actions if energy rises.
 Fock matrices will be formed incrementally for  20 cycles.

 Cycle   1  Pass 1  IDiag  1:
 FoFJK:  IHMeth= 1 ICntrl=       0 DoSepK=T KAlg= 0 I1Cent=           0 FoldK=F
 IRaf=         1 NMat=       1 IRICut=       1 DoRegI=T DoRafI=F ISym2E= 0 IDoP0=0 IntGTp=1.
 FoFCou: FMM=T IPFlag=           0 FMFlag=      100000 FMFlg1=        2001
         NFxFlg=           0 DoJE=T BraDBF=F KetDBF=F FulRan=T
         wScrn=  0.000000 ICntrl=       500 IOpCl=  0 I1Cent=           0 NGrid=           0
         NMat0=    1 NMatS0=      1 NMatT0=    0 NMatD0=    1 NMtDS0=    0 NMtDT0=    0
 Symmetry not used in FoFCou.
 FMM levels:  10  Number of levels for PrismC:   9
 E= -4068.94955314462    
 DIIS: error= 1.83D-02 at cycle   1 NSaved=   1.
 NSaved= 1 IEnMin= 1 EnMin= -4068.94955314462     IErMin= 1 ErrMin= 1.83D-02
 ErrMax= 1.83D-02  0.00D+00 EMaxC= 1.00D-01 BMatC= 1.69D+00 BMatP= 1.69D+00
 IDIUse=3 WtCom= 8.17D-01 WtEn= 1.83D-01
 Coeff-Com:  0.100D+01
 Coeff-En:   0.100D+01
 Coeff:      0.100D+01
 Gap=     0.122 Goal=   None    Shift=    0.000
 GapD=    0.122 DampG=1.000 DampE=0.500 DampFc=0.5000 IDamp=-1.
 Damping current iteration by 5.00D-01
 RMSDP=1.57D-03 MaxDP=1.35D-01              OVMax= 1.91D-01

 Cycle   2  Pass 1  IDiag  1:
 RMSU=  7.69D-04    CP:  9.82D-01
 E= -4069.33826134545     Delta-E=       -0.388708200826 Rises=F Damp=T
 DIIS: error= 1.12D-02 at cycle   2 NSaved=   2.
 NSaved= 2 IEnMin= 2 EnMin= -4069.33826134545     IErMin= 2 ErrMin= 1.12D-02
 ErrMax= 1.12D-02  0.00D+00 EMaxC= 1.00D-01 BMatC= 3.07D-01 BMatP= 1.69D+00
 IDIUse=3 WtCom= 8.88D-01 WtEn= 1.12D-01
 Coeff-Com: -0.214D+00 0.121D+01
 Coeff-En:   0.000D+00 0.100D+01
 Coeff:     -0.190D+00 0.119D+01
 Gap=     0.132 Goal=   None    Shift=    0.000
 RMSDP=7.65D-04 MaxDP=9.55D-02 DE=-3.89D-01 OVMax= 1.79D-01

 Cycle   3  Pass 1  IDiag  1:
 RMSU=  7.32D-04    CP:  9.68D-01  1.24D+00
 E= -4069.62686853603     Delta-E=       -0.288607190578 Rises=F Damp=F
 DIIS: error= 1.58D-02 at cycle   3 NSaved=   3.
 NSaved= 3 IEnMin= 3 EnMin= -4069.62686853603     IErMin= 2 ErrMin= 1.12D-02
 ErrMax= 1.58D-02  0.00D+00 EMaxC= 1.00D-01 BMatC= 2.04D-01 BMatP= 3.07D-01
 IDIUse=3 WtCom= 8.42D-01 WtEn= 1.58D-01
 Coeff-Com: -0.269D+00 0.654D+00 0.615D+00
 Coeff-En:   0.000D+00 0.000D+00 0.100D+01
 Coeff:     -0.227D+00 0.551D+00 0.676D+00
 Gap=     0.120 Goal=   None    Shift=    0.000
 RMSDP=5.04D-04 MaxDP=4.66D-02 DE=-2.89D-01 OVMax= 1.27D-01

 Cycle   4  Pass 1  IDiag  1:
 RMSU=  2.61D-04    CP:  9.65D-01  1.55D+00  5.10D-01
 E= -4069.76623343405     Delta-E=       -0.139364898027 Rises=F Damp=F
 DIIS: error= 7.24D-03 at cycle   4 NSaved=   4.
 NSaved= 4 IEnMin= 4 EnMin= -4069.76623343405     IErMin= 4 ErrMin= 7.24D-03
 ErrMax= 7.24D-03  0.00D+00 EMaxC= 1.00D-01 BMatC= 4.92D-02 BMatP= 2.04D-01
 IDIUse=3 WtCom= 9.28D-01 WtEn= 7.24D-02
 Coeff-Com: -0.108D+00 0.224D+00 0.406D+00 0.478D+00
 Coeff-En:   0.000D+00 0.000D+00 0.211D+00 0.789D+00
 Coeff:     -0.100D+00 0.208D+00 0.392D+00 0.501D+00
 Gap=     0.119 Goal=   None    Shift=    0.000
 RMSDP=1.91D-04 MaxDP=2.05D-02 DE=-1.39D-01 OVMax= 4.98D-02

 Cycle   5  Pass 1  IDiag  1:
 RMSU=  7.16D-05    CP:  9.64D-01  1.49D+00  6.88D-01  5.66D-01
 E= -4069.80968475216     Delta-E=       -0.043451318110 Rises=F Damp=F
 DIIS: error= 7.48D-04 at cycle   5 NSaved=   5.
 NSaved= 5 IEnMin= 5 EnMin= -4069.80968475216     IErMin= 5 ErrMin= 7.48D-04
 ErrMax= 7.48D-04  0.00D+00 EMaxC= 1.00D-01 BMatC= 9.60D-04 BMatP= 4.92D-02
 IDIUse=3 WtCom= 9.93D-01 WtEn= 7.48D-03
 Coeff-Com: -0.327D-01 0.638D-01 0.153D+00 0.238D+00 0.578D+00
 Coeff-En:   0.000D+00 0.000D+00 0.000D+00 0.000D+00 0.100D+01
 Coeff:     -0.325D-01 0.633D-01 0.152D+00 0.236D+00 0.581D+00
 Gap=     0.119 Goal=   None    Shift=    0.000
 RMSDP=3.47D-05 MaxDP=3.93D-03 DE=-4.35D-02 OVMax= 1.08D-02

 Cycle   6  Pass 1  IDiag  1:
 RMSU=  2.73D-05    CP:  9.64D-01  1.49D+00  6.82D-01  6.28D-01  8.11D-01
 E= -4069.81045265684     Delta-E=       -0.000767904672 Rises=F Damp=F
 DIIS: error= 2.81D-04 at cycle   6 NSaved=   6.
 NSaved= 6 IEnMin= 6 EnMin= -4069.81045265684     IErMin= 6 ErrMin= 2.81D-04
 ErrMax= 2.81D-04  0.00D+00 EMaxC= 1.00D-01 BMatC= 1.46D-04 BMatP= 9.60D-04
 IDIUse=3 WtCom= 9.97D-01 WtEn= 2.81D-03
 Coeff-Com:  0.293D-02-0.790D-02 0.748D-02 0.351D-01 0.310D+00 0.652D+00
 Coeff-En:   0.000D+00 0.000D+00 0.000D+00 0.000D+00 0.732D-01 0.927D+00
 Coeff:      0.292D-02-0.788D-02 0.746D-02 0.350D-01 0.310D+00 0.653D+00
 Gap=     0.119 Goal=   None    Shift=    0.000
 RMSDP=1.30D-05 MaxDP=1.12D-03 DE=-7.68D-04 OVMax= 5.45D-03

 Cycle   7  Pass 1  IDiag  1:
 RMSU=  9.19D-06    CP:  9.64D-01  1.50D+00  6.87D-01  6.30D-01  8.90D-01
                    CP:  7.77D-01
 E= -4069.81059763401     Delta-E=       -0.000144977173 Rises=F Damp=F
 DIIS: error= 6.33D-05 at cycle   7 NSaved=   7.
 NSaved= 7 IEnMin= 7 EnMin= -4069.81059763401     IErMin= 7 ErrMin= 6.33D-05
 ErrMax= 6.33D-05  0.00D+00 EMaxC= 1.00D-01 BMatC= 1.42D-05 BMatP= 1.46D-04
 IDIUse=1 WtCom= 1.00D+00 WtEn= 0.00D+00
 Coeff-Com:  0.427D-02-0.923D-02-0.946D-02-0.601D-02 0.876D-01 0.304D+00
 Coeff-Com:  0.629D+00
 Coeff:      0.427D-02-0.923D-02-0.946D-02-0.601D-02 0.876D-01 0.304D+00
 Coeff:      0.629D+00
 Gap=     0.119 Goal=   None    Shift=    0.000
 RMSDP=5.80D-06 MaxDP=1.15D-03 DE=-1.45D-04 OVMax= 2.99D-03

 Cycle   8  Pass 1  IDiag  1:
 RMSU=  4.26D-06    CP:  9.64D-01  1.50D+00  6.88D-01  6.34D-01  9.04D-01
                    CP:  9.01D-01  8.94D-01
 E= -4069.81061474660     Delta-E=       -0.000017112590 Rises=F Damp=F
 DIIS: error= 2.89D-05 at cycle   8 NSaved=   8.
 NSaved= 8 IEnMin= 8 EnMin= -4069.81061474660     IErMin= 8 ErrMin= 2.89D-05
 ErrMax= 2.89D-05  0.00D+00 EMaxC= 1.00D-01 BMatC= 3.66D-06 BMatP= 1.42D-05
 IDIUse=1 WtCom= 1.00D+00 WtEn= 0.00D+00
 Coeff-Com:  0.195D-02-0.382D-02-0.725D-02-0.119D-01-0.179D-01 0.322D-01
 Coeff-Com:  0.363D+00 0.644D+00
 Coeff:      0.195D-02-0.382D-02-0.725D-02-0.119D-01-0.179D-01 0.322D-01
 Coeff:      0.363D+00 0.644D+00
 Gap=     0.119 Goal=   None    Shift=    0.000
 RMSDP=2.99D-06 MaxDP=3.70D-04 DE=-1.71D-05 OVMax= 1.42D-03

 Cycle   9  Pass 1  IDiag  1:
 RMSU=  1.90D-06    CP:  9.64D-01  1.50D+00  6.88D-01  6.36D-01  9.18D-01
                    CP:  9.27D-01  1.09D+00  8.62D-01
 E= -4069.81062056934     Delta-E=       -0.000005822738 Rises=F Damp=F
 DIIS: error= 1.73D-05 at cycle   9 NSaved=   9.
 NSaved= 9 IEnMin= 9 EnMin= -4069.81062056934     IErMin= 9 ErrMin= 1.73D-05
 ErrMax= 1.73D-05  0.00D+00 EMaxC= 1.00D-01 BMatC= 6.82D-07 BMatP= 3.66D-06
 IDIUse=1 WtCom= 1.00D+00 WtEn= 0.00D+00
 Coeff-Com:  0.470D-03-0.790D-03-0.265D-02-0.599D-02-0.236D-01-0.308D-01
 Coeff-Com:  0.117D+00 0.361D+00 0.586D+00
 Coeff:      0.470D-03-0.790D-03-0.265D-02-0.599D-02-0.236D-01-0.308D-01
 Coeff:      0.117D+00 0.361D+00 0.586D+00
 Gap=     0.119 Goal=   None    Shift=    0.000
 RMSDP=1.36D-06 MaxDP=1.63D-04 DE=-5.82D-06 OVMax= 8.63D-04

 Cycle  10  Pass 1  IDiag  1:
 RMSU=  9.26D-07    CP:  9.64D-01  1.50D+00  6.88D-01  6.36D-01  9.21D-01
                    CP:  9.42D-01  1.13D+00  1.05D+00  9.29D-01
 E= -4069.81062198524     Delta-E=       -0.000001415905 Rises=F Damp=F
 DIIS: error= 7.78D-06 at cycle  10 NSaved=  10.
 NSaved=10 IEnMin=10 EnMin= -4069.81062198524     IErMin=10 ErrMin= 7.78D-06
 ErrMax= 7.78D-06  0.00D+00 EMaxC= 1.00D-01 BMatC= 1.46D-07 BMatP= 6.82D-07
 IDIUse=1 WtCom= 1.00D+00 WtEn= 0.00D+00
 Coeff-Com: -0.393D-03 0.829D-03 0.109D-02 0.938D-03-0.526D-02-0.294D-01
 Coeff-Com: -0.550D-01-0.389D-01 0.280D+00 0.846D+00
 Coeff:     -0.393D-03 0.829D-03 0.109D-02 0.938D-03-0.526D-02-0.294D-01
 Coeff:     -0.550D-01-0.389D-01 0.280D+00 0.846D+00
 Gap=     0.119 Goal=   None    Shift=    0.000
 RMSDP=1.11D-06 MaxDP=1.48D-04 DE=-1.42D-06 OVMax= 5.49D-04

 Cycle  11  Pass 1  IDiag  1:
 RMSU=  5.00D-07    CP:  9.64D-01  1.50D+00  6.88D-01  6.36D-01  9.24D-01
                    CP:  9.52D-01  1.18D+00  1.14D+00  1.26D+00  1.25D+00
 E= -4069.81062263302     Delta-E=       -0.000000647775 Rises=F Damp=F
 DIIS: error= 3.54D-06 at cycle  11 NSaved=  11.
 NSaved=11 IEnMin=11 EnMin= -4069.81062263302     IErMin=11 ErrMin= 3.54D-06
 ErrMax= 3.54D-06  0.00D+00 EMaxC= 1.00D-01 BMatC= 4.93D-08 BMatP= 1.46D-07
 IDIUse=1 WtCom= 1.00D+00 WtEn= 0.00D+00
 Coeff-Com: -0.321D-03 0.627D-03 0.127D-02 0.206D-02 0.369D-02-0.920D-02
 Coeff-Com: -0.554D-01-0.118D+00 0.743D-03 0.459D+00 0.715D+00
 Coeff:     -0.321D-03 0.627D-03 0.127D-02 0.206D-02 0.369D-02-0.920D-02
 Coeff:     -0.554D-01-0.118D+00 0.743D-03 0.459D+00 0.715D+00
 Gap=     0.119 Goal=   None    Shift=    0.000
 RMSDP=6.07D-07 MaxDP=4.42D-05 DE=-6.48D-07 OVMax= 3.25D-04

 Cycle  12  Pass 1  IDiag  1:
 RMSU=  2.49D-07    CP:  9.64D-01  1.50D+00  6.88D-01  6.36D-01  9.24D-01
                    CP:  9.55D-01  1.21D+00  1.20D+00  1.39D+00  1.61D+00
                    CP:  1.16D+00
 E= -4069.81062284501     Delta-E=       -0.000000211989 Rises=F Damp=F
 DIIS: error= 2.22D-06 at cycle  12 NSaved=  12.
 NSaved=12 IEnMin=12 EnMin= -4069.81062284501     IErMin=12 ErrMin= 2.22D-06
 ErrMax= 2.22D-06  0.00D+00 EMaxC= 1.00D-01 BMatC= 9.35D-09 BMatP= 4.93D-08
 IDIUse=1 WtCom= 1.00D+00 WtEn= 0.00D+00
 Coeff-Com: -0.104D-04 0.539D-05 0.201D-03 0.554D-03 0.306D-02 0.382D-02
 Coeff-Com: -0.185D-02-0.363D-01-0.675D-01-0.452D-01 0.232D+00 0.911D+00
 Coeff:     -0.104D-04 0.539D-05 0.201D-03 0.554D-03 0.306D-02 0.382D-02
 Coeff:     -0.185D-02-0.363D-01-0.675D-01-0.452D-01 0.232D+00 0.911D+00
 Gap=     0.119 Goal=   None    Shift=    0.000
 RMSDP=3.94D-07 MaxDP=2.23D-05 DE=-2.12D-07 OVMax= 2.52D-04

 Cycle  13  Pass 1  IDiag  1:
 RMSU=  1.63D-07    CP:  9.64D-01  1.50D+00  6.88D-01  6.36D-01  9.25D-01
                    CP:  9.56D-01  1.21D+00  1.23D+00  1.49D+00  1.80D+00
                    CP:  1.55D+00  1.24D+00
 E= -4069.81062291717     Delta-E=       -0.000000072167 Rises=F Damp=F
 DIIS: error= 1.48D-06 at cycle  13 NSaved=  13.
 NSaved=13 IEnMin=13 EnMin= -4069.81062291717     IErMin=13 ErrMin= 1.48D-06
 ErrMax= 1.48D-06  0.00D+00 EMaxC= 1.00D-01 BMatC= 7.81D-09 BMatP= 9.35D-09
 IDIUse=1 WtCom= 1.00D+00 WtEn= 0.00D+00
 Coeff-Com:  0.110D-03-0.225D-03-0.325D-03-0.377D-03 0.665D-03 0.552D-02
 Coeff-Com:  0.203D-01 0.165D-01-0.467D-01-0.214D+00-0.158D+00 0.658D+00
 Coeff-Com:  0.719D+00
 Coeff:      0.110D-03-0.225D-03-0.325D-03-0.377D-03 0.665D-03 0.552D-02
 Coeff:      0.203D-01 0.165D-01-0.467D-01-0.214D+00-0.158D+00 0.658D+00
 Coeff:      0.719D+00
 Gap=     0.119 Goal=   None    Shift=    0.000
 RMSDP=2.87D-07 MaxDP=1.41D-05 DE=-7.22D-08 OVMax= 1.52D-04

 Cycle  14  Pass 1  IDiag  1:
 RMSU=  7.73D-08    CP:  9.64D-01  1.50D+00  6.88D-01  6.36D-01  9.25D-01
                    CP:  9.56D-01  1.22D+00  1.25D+00  1.55D+00  1.97D+00
                    CP:  1.77D+00  1.75D+00  1.03D+00
 E= -4069.81062294788     Delta-E=       -0.000000030705 Rises=F Damp=F
 DIIS: error= 1.07D-06 at cycle  14 NSaved=  14.
 NSaved=14 IEnMin=14 EnMin= -4069.81062294788     IErMin=14 ErrMin= 1.07D-06
 ErrMax= 1.07D-06  0.00D+00 EMaxC= 1.00D-01 BMatC= 1.01D-09 BMatP= 7.81D-09
 IDIUse=1 WtCom= 1.00D+00 WtEn= 0.00D+00
 Coeff-Com:  0.690D-04-0.137D-03-0.250D-03-0.388D-03-0.491D-03 0.188D-02
 Coeff-Com:  0.129D-01 0.187D-01-0.411D-02-0.102D+00-0.161D+00 0.147D+00
 Coeff-Com:  0.355D+00 0.732D+00
 Coeff:      0.690D-04-0.137D-03-0.250D-03-0.388D-03-0.491D-03 0.188D-02
 Coeff:      0.129D-01 0.187D-01-0.411D-02-0.102D+00-0.161D+00 0.147D+00
 Coeff:      0.355D+00 0.732D+00
 Gap=     0.119 Goal=   None    Shift=    0.000
 RMSDP=1.09D-07 MaxDP=5.40D-06 DE=-3.07D-08 OVMax= 7.14D-05

 Cycle  15  Pass 1  IDiag  1:
 RMSU=  3.80D-08    CP:  9.64D-01  1.50D+00  6.88D-01  6.36D-01  9.25D-01
                    CP:  9.56D-01  1.22D+00  1.25D+00  1.57D+00  2.01D+00
                    CP:  1.88D+00  1.92D+00  1.27D+00  9.99D-01
 E= -4069.81062295237     Delta-E=       -0.000000004493 Rises=F Damp=F
 DIIS: error= 3.67D-07 at cycle  15 NSaved=  15.
 NSaved=15 IEnMin=15 EnMin= -4069.81062295237     IErMin=15 ErrMin= 3.67D-07
 ErrMax= 3.67D-07  0.00D+00 EMaxC= 1.00D-01 BMatC= 3.05D-10 BMatP= 1.01D-09
 IDIUse=1 WtCom= 1.00D+00 WtEn= 0.00D+00
 Coeff-Com:  0.128D-04-0.237D-04-0.585D-04-0.121D-03-0.378D-03-0.219D-03
 Coeff-Com:  0.263D-02 0.512D-02 0.791D-02-0.687D-02-0.507D-01-0.412D-01
 Coeff-Com:  0.781D-02 0.387D+00 0.689D+00
 Coeff:      0.128D-04-0.237D-04-0.585D-04-0.121D-03-0.378D-03-0.219D-03
 Coeff:      0.263D-02 0.512D-02 0.791D-02-0.687D-02-0.507D-01-0.412D-01
 Coeff:      0.781D-02 0.387D+00 0.689D+00
 Gap=     0.119 Goal=   None    Shift=    0.000
 RMSDP=3.83D-08 MaxDP=3.43D-06 DE=-4.49D-09 OVMax= 2.04D-05

 Cycle  16  Pass 1  IDiag  1:
 RMSU=  1.81D-08    CP:  9.64D-01  1.50D+00  6.88D-01  6.36D-01  9.25D-01
                    CP:  9.56D-01  1.22D+00  1.26D+00  1.57D+00  2.03D+00
                    CP:  1.91D+00  1.99D+00  1.33D+00  1.22D+00  1.13D+00
 E= -4069.81062295310     Delta-E=       -0.000000000731 Rises=F Damp=F
 DIIS: error= 1.40D-07 at cycle  16 NSaved=  16.
 NSaved=16 IEnMin=16 EnMin= -4069.81062295310     IErMin=16 ErrMin= 1.40D-07
 ErrMax= 1.40D-07  0.00D+00 EMaxC= 1.00D-01 BMatC= 7.10D-11 BMatP= 3.05D-10
 IDIUse=1 WtCom= 1.00D+00 WtEn= 0.00D+00
 Coeff-Com: -0.123D-04 0.250D-04 0.395D-04 0.422D-04-0.601D-04-0.623D-03
 Coeff-Com: -0.209D-02-0.311D-02 0.548D-02 0.230D-01 0.146D-01-0.535D-01
 Coeff-Com: -0.109D+00 0.286D-01 0.321D+00 0.776D+00
 Coeff:     -0.123D-04 0.250D-04 0.395D-04 0.422D-04-0.601D-04-0.623D-03
 Coeff:     -0.209D-02-0.311D-02 0.548D-02 0.230D-01 0.146D-01-0.535D-01
 Coeff:     -0.109D+00 0.286D-01 0.321D+00 0.776D+00
 Gap=     0.119 Goal=   None    Shift=    0.000
 RMSDP=2.47D-08 MaxDP=2.02D-06 DE=-7.31D-10 OVMax= 1.52D-05

 Cycle  17  Pass 1  IDiag  1:
 RMSU=  1.14D-08    CP:  9.64D-01  1.50D+00  6.88D-01  6.36D-01  9.25D-01
                    CP:  9.56D-01  1.23D+00  1.26D+00  1.58D+00  2.03D+00
                    CP:  1.92D+00  2.02D+00  1.38D+00  1.31D+00  1.42D+00
                    CP:  1.20D+00
 E= -4069.81062295329     Delta-E=       -0.000000000189 Rises=F Damp=F
 DIIS: error= 8.65D-08 at cycle  17 NSaved=  17.
 NSaved=17 IEnMin=17 EnMin= -4069.81062295329     IErMin=17 ErrMin= 8.65D-08
 ErrMax= 8.65D-08  0.00D+00 EMaxC= 1.00D-01 BMatC= 2.15D-11 BMatP= 7.10D-11
 IDIUse=1 WtCom= 1.00D+00 WtEn= 0.00D+00
 Coeff-Com: -0.845D-05 0.166D-04 0.323D-04 0.468D-04 0.716D-04-0.215D-03
 Coeff-Com: -0.148D-02-0.288D-02 0.118D-02 0.123D-01 0.186D-01-0.866D-02
 Coeff-Com: -0.592D-01-0.703D-01-0.586D-01 0.366D+00 0.803D+00
 Coeff:     -0.845D-05 0.166D-04 0.323D-04 0.468D-04 0.716D-04-0.215D-03
 Coeff:     -0.148D-02-0.288D-02 0.118D-02 0.123D-01 0.186D-01-0.866D-02
 Coeff:     -0.592D-01-0.703D-01-0.586D-01 0.366D+00 0.803D+00
 Gap=     0.119 Goal=   None    Shift=    0.000
 RMSDP=1.36D-08 MaxDP=7.79D-07 DE=-1.89D-10 OVMax= 7.84D-06

 Cycle  18  Pass 1  IDiag  1:
 RMSU=  5.39D-09    CP:  9.64D-01  1.50D+00  6.88D-01  6.36D-01  9.25D-01
                    CP:  9.56D-01  1.23D+00  1.26D+00  1.58D+00  2.03D+00
                    CP:  1.93D+00  2.03D+00  1.40D+00  1.38D+00  1.58D+00
                    CP:  1.61D+00  1.33D+00
 E= -4069.81062295335     Delta-E=       -0.000000000055 Rises=F Damp=F
 DIIS: error= 5.98D-08 at cycle  18 NSaved=  18.
 NSaved=18 IEnMin=18 EnMin= -4069.81062295335     IErMin=18 ErrMin= 5.98D-08
 ErrMax= 5.98D-08  0.00D+00 EMaxC= 1.00D-01 BMatC= 7.34D-12 BMatP= 2.15D-11
 IDIUse=1 WtCom= 1.00D+00 WtEn= 0.00D+00
 Coeff-Com:  0.121D-06-0.588D-06 0.252D-05 0.809D-05 0.672D-04 0.130D-03
 Coeff-Com:  0.689D-04-0.459D-03-0.121D-02-0.282D-02 0.290D-02 0.183D-01
 Coeff-Com:  0.532D-02-0.346D-01-0.159D+00-0.904D-01 0.370D+00 0.892D+00
 Coeff:      0.121D-06-0.588D-06 0.252D-05 0.809D-05 0.672D-04 0.130D-03
 Coeff:      0.689D-04-0.459D-03-0.121D-02-0.282D-02 0.290D-02 0.183D-01
 Coeff:      0.532D-02-0.346D-01-0.159D+00-0.904D-01 0.370D+00 0.892D+00
 Gap=     0.119 Goal=   None    Shift=    0.000
 RMSDP=1.06D-08 MaxDP=8.69D-07 DE=-5.46D-11 OVMax= 6.08D-06

 Cycle  19  Pass 1  IDiag  1:
 RMSU=  3.13D-09    CP:  9.64D-01  1.50D+00  6.88D-01  6.36D-01  9.25D-01
                    CP:  9.56D-01  1.23D+00  1.26D+00  1.58D+00  2.04D+00
                    CP:  1.93D+00  2.04D+00  1.41D+00  1.42D+00  1.72D+00
                    CP:  1.88D+00  1.85D+00  1.25D+00
 E= -4069.81062295362     Delta-E=       -0.000000000269 Rises=F Damp=F
 DIIS: error= 2.86D-08 at cycle  19 NSaved=  19.
 NSaved=19 IEnMin=19 EnMin= -4069.81062295362     IErMin=19 ErrMin= 2.86D-08
 ErrMax= 2.86D-08  0.00D+00 EMaxC= 1.00D-01 BMatC= 2.63D-12 BMatP= 7.34D-12
 IDIUse=1 WtCom= 1.00D+00 WtEn= 0.00D+00
 Coeff-Com:  0.343D-05-0.695D-05-0.113D-04-0.138D-04 0.184D-04 0.167D-03
 Coeff-Com:  0.656D-03 0.825D-03-0.109D-02-0.681D-02-0.591D-02 0.164D-01
 Coeff-Com:  0.251D-01 0.103D-01-0.855D-01-0.209D+00-0.945D-01 0.548D+00
 Coeff-Com:  0.801D+00
 Coeff:      0.343D-05-0.695D-05-0.113D-04-0.138D-04 0.184D-04 0.167D-03
 Coeff:      0.656D-03 0.825D-03-0.109D-02-0.681D-02-0.591D-02 0.164D-01
 Coeff:      0.251D-01 0.103D-01-0.855D-01-0.209D+00-0.945D-01 0.548D+00
 Coeff:      0.801D+00
 Gap=     0.119 Goal=   None    Shift=    0.000
 RMSDP=7.20D-09 MaxDP=4.03D-07 DE=-2.69D-10 OVMax= 4.15D-06

 SCF Done:  E(RCAM-B3LYP) =  -4069.81062295     A.U. after   19 cycles
            NFock= 19  Conv=0.72D-08     -V/T= 2.0102
 KE= 4.028814426951D+03 PE=-4.131318063247D+04 EE= 1.729857248780D+04
 Leave Link  502 at Wed Sep  8 16:09:29 2021, MaxMem= 23488102400 cpu:           16558.5 elap:             715.1
 (Enter /sw/apps/gaussian-16.0/g16/l801.exe)
 DoSCS=F DFT=T ScalE2(SS,OS)=  1.000000  1.000000
 ExpMin= 3.36D-02 ExpMax= 4.95D+03 ExpMxC= 7.45D+02 IAcc=3 IRadAn=         5 AccDes= 0.00D+00
 HarFok:  IExCor=  205 AccDes= 0.00D+00 IRadAn=         5 IDoV=-2 UseB2=F ITyADJ=14
 ICtDFT= 12500011 ScaDFX=  1.000000  1.000000  1.000000  1.000000
 GSVD:  LWork=       -9588 too small for GESVD, short by       45590 words or       45590 for optimal perf.
 Largest valence mixing into a core orbital is  2.03D-04
 Largest core mixing into a valence orbital is  5.22D-05
 Range of M.O.s used for correlation:    95  1572
 NBasis=  1572 NAE=   312 NBE=   312 NFC=    94 NFV=     0
 NROrb=   1478 NOA=   218 NOB=   218 NVA=  1260 NVB=  1260
 Leave Link  801 at Wed Sep  8 16:09:30 2021, MaxMem= 23488102400 cpu:               7.4 elap:               0.3
 (Enter /sw/apps/gaussian-16.0/g16/l914.exe)
 RHF ground state
 Two-electron integrals replicated using symmetry.
 MDV= 23488102400 DFT=T DoStab=F Mixed=T DoRPA=T DoScal=F NonHer=T
 Making orbital integer symmetry assigments:
 Orbital symmetries:
       Occupied  (A) (A) (A) (A) (A) (A) (A) (A) (A) (A) (A) (A)
                 (A) (A) (A) (A) (A) (A) (A) (A) (A) (A) (A) (A)
                 (A) (A) (A) (A) (A) (A) (A) (A) (A) (A) (A) (A)
                 (A) (A) (A) (A) (A) (A) (A) (A) (A) (A) (A) (A)
                 (A) (A) (A) (A) (A) (A) (A) (A) (A) (A) (A) (A)
                 (A) (A) (A) (A) (A) (A) (A) (A) (A) (A) (A) (A)
                 (A) (A) (A) (A) (A) (A) (A) (A) (A) (A) (A) (A)
                 (A) (A) (A) (A) (A) (A) (A) (A) (A) (A) (A) (A)
                 (A) (A) (A) (A) (A) (A) (A) (A) (A) (A) (A) (A)
                 (A) (A) (A) (A) (A) (A) (A) (A) (A) (A) (A) (A)
                 (A) (A) (A) (A) (A) (A) (A) (A) (A) (A) (A) (A)
                 (A) (A) (A) (A) (A) (A) (A) (A) (A) (A) (A) (A)
                 (A) (A) (A) (A) (A) (A) (A) (A) (A) (A) (A) (A)
                 (A) (A) (A) (A) (A) (A) (A) (A) (A) (A) (A) (A)
                 (A) (A) (A) (A) (A) (A) (A) (A) (A) (A) (A) (A)
                 (A) (A) (A) (A) (A) (A) (A) (A) (A) (A) (A) (A)
                 (A) (A) (A) (A) (A) (A) (A) (A) (A) (A) (A) (A)
                 (A) (A) (A) (A) (A) (A) (A) (A) (A) (A) (A) (A)
                 (A) (A) (A) (A) (A) (A) (A) (A) (A) (A) (A) (A)
                 (A) (A) (A) (A) (A) (A) (A) (A) (A) (A) (A) (A)
                 (A) (A) (A) (A) (A) (A) (A) (A) (A) (A) (A) (A)
                 (A) (A) (A) (A) (A) (A) (A) (A) (A) (A) (A) (A)
                 (A) (A) (A) (A) (A) (A) (A) (A) (A) (A) (A) (A)
                 (A) (A) (A) (A) (A) (A) (A) (A) (A) (A) (A) (A)
                 (A) (A) (A) (A) (A) (A) (A) (A) (A) (A) (A) (A)
                 (A) (A) (A) (A) (A) (A) (A) (A) (A) (A) (A) (A)
       Virtual   (A) (A) (A) (A) (A) (A) (A) (A) (A) (A) (A) (A)
                 (A) (A) (A) (A) (A) (A) (A) (A) (A) (A) (A) (A)
                 (A) (A) (A) (A) (A) (A) (A) (A) (A) (A) (A) (A)
                 (A) (A) (A) (A) (A) (A) (A) (A) (A) (A) (A) (A)
                 (A) (A) (A) (A) (A) (A) (A) (A) (A) (A) (A) (A)
                 (A) (A) (A) (A) (A) (A) (A) (A) (A) (A) (A) (A)
                 (A) (A) (A) (A) (A) (A) (A) (A) (A) (A) (A) (A)
                 (A) (A) (A) (A) (A) (A) (A) (A) (A) (A) (A) (A)
                 (A) (A) (A) (A) (A) (A) (A) (A) (A) (A) (A) (A)
                 (A) (A) (A) (A) (A) (A) (A) (A) (A) (A) (A) (A)
                 (A) (A) (A) (A) (A) (A) (A) (A) (A) (A) (A) (A)
                 (A) (A) (A) (A) (A) (A) (A) (A) (A) (A) (A) (A)
                 (A) (A) (A) (A) (A) (A) (A) (A) (A) (A) (A) (A)
                 (A) (A) (A) (A) (A) (A) (A) (A) (A) (A) (A) (A)
                 (A) (A) (A) (A) (A) (A) (A) (A) (A) (A) (A) (A)
                 (A) (A) (A) (A) (A) (A) (A) (A) (A) (A) (A) (A)
                 (A) (A) (A) (A) (A) (A) (A) (A) (A) (A) (A) (A)
                 (A) (A) (A) (A) (A) (A) (A) (A) (A) (A) (A) (A)
                 (A) (A) (A) (A) (A) (A) (A) (A) (A) (A) (A) (A)
                 (A) (A) (A) (A) (A) (A) (A) (A) (A) (A) (A) (A)
                 (A) (A) (A) (A) (A) (A) (A) (A) (A) (A) (A) (A)
                 (A) (A) (A) (A) (A) (A) (A) (A) (A) (A) (A) (A)
                 (A) (A) (A) (A) (A) (A) (A) (A) (A) (A) (A) (A)
                 (A) (A) (A) (A) (A) (A) (A) (A) (A) (A) (A) (A)
                 (A) (A) (A) (A) (A) (A) (A) (A) (A) (A) (A) (A)
                 (A) (A) (A) (A) (A) (A) (A) (A) (A) (A) (A) (A)
                 (A) (A) (A) (A) (A) (A) (A) (A) (A) (A) (A) (A)
                 (A) (A) (A) (A) (A) (A) (A) (A) (A) (A) (A) (A)
                 (A) (A) (A) (A) (A) (A) (A) (A) (A) (A) (A) (A)
                 (A) (A) (A) (A) (A) (A) (A) (A) (A) (A) (A) (A)
                 (A) (A) (A) (A) (A) (A) (A) (A) (A) (A) (A) (A)
                 (A) (A) (A) (A) (A) (A) (A) (A) (A) (A) (A) (A)
                 (A) (A) (A) (A) (A) (A) (A) (A) (A) (A) (A) (A)
                 (A) (A) (A) (A) (A) (A) (A) (A) (A) (A) (A) (A)
                 (A) (A) (A) (A) (A) (A) (A) (A) (A) (A) (A) (A)
                 (A) (A) (A) (A) (A) (A) (A) (A) (A) (A) (A) (A)
                 (A) (A) (A) (A) (A) (A) (A) (A) (A) (A) (A) (A)
                 (A) (A) (A) (A) (A) (A) (A) (A) (A) (A) (A) (A)
                 (A) (A) (A) (A) (A) (A) (A) (A) (A) (A) (A) (A)
                 (A) (A) (A) (A) (A) (A) (A) (A) (A) (A) (A) (A)
                 (A) (A) (A) (A) (A) (A) (A) (A) (A) (A) (A) (A)
                 (A) (A) (A) (A) (A) (A) (A) (A) (A) (A) (A) (A)
                 (A) (A) (A) (A) (A) (A) (A) (A) (A) (A) (A) (A)
                 (A) (A) (A) (A) (A) (A) (A) (A) (A) (A) (A) (A)
                 (A) (A) (A) (A) (A) (A) (A) (A) (A) (A) (A) (A)
                 (A) (A) (A) (A) (A) (A) (A) (A) (A) (A) (A) (A)
                 (A) (A) (A) (A) (A) (A) (A) (A) (A) (A) (A) (A)
                 (A) (A) (A) (A) (A) (A) (A) (A) (A) (A) (A) (A)
                 (A) (A) (A) (A) (A) (A) (A) (A) (A) (A) (A) (A)
                 (A) (A) (A) (A) (A) (A) (A) (A) (A) (A) (A) (A)
                 (A) (A) (A) (A) (A) (A) (A) (A) (A) (A) (A) (A)
                 (A) (A) (A) (A) (A) (A) (A) (A) (A) (A) (A) (A)
                 (A) (A) (A) (A) (A) (A) (A) (A) (A) (A) (A) (A)
                 (A) (A) (A) (A) (A) (A) (A) (A) (A) (A) (A) (A)
                 (A) (A) (A) (A) (A) (A) (A) (A) (A) (A) (A) (A)
                 (A) (A) (A) (A) (A) (A) (A) (A) (A) (A) (A) (A)
                 (A) (A) (A) (A) (A) (A) (A) (A) (A) (A) (A) (A)
                 (A) (A) (A) (A) (A) (A) (A) (A) (A) (A) (A) (A)
                 (A) (A) (A) (A) (A) (A) (A) (A) (A) (A) (A) (A)
                 (A) (A) (A) (A) (A) (A) (A) (A) (A) (A) (A) (A)
                 (A) (A) (A) (A) (A) (A) (A) (A) (A) (A) (A) (A)
                 (A) (A) (A) (A) (A) (A) (A) (A) (A) (A) (A) (A)
                 (A) (A) (A) (A) (A) (A) (A) (A) (A) (A) (A) (A)
                 (A) (A) (A) (A) (A) (A) (A) (A) (A) (A) (A) (A)
                 (A) (A) (A) (A) (A) (A) (A) (A) (A) (A) (A) (A)
                 (A) (A) (A) (A) (A) (A) (A) (A) (A) (A) (A) (A)
                 (A) (A) (A) (A) (A) (A) (A) (A) (A) (A) (A) (A)
                 (A) (A) (A) (A) (A) (A) (A) (A) (A) (A) (A) (A)
                 (A) (A) (A) (A) (A) (A) (A) (A) (A) (A) (A) (A)
                 (A) (A) (A) (A) (A) (A) (A) (A) (A) (A) (A) (A)
                 (A) (A) (A) (A) (A) (A) (A) (A) (A) (A) (A) (A)
                 (A) (A) (A) (A) (A) (A) (A) (A) (A) (A) (A) (A)
                 (A) (A) (A) (A) (A) (A) (A) (A) (A) (A) (A) (A)
                 (A) (A) (A) (A) (A) (A) (A) (A) (A) (A) (A) (A)
                 (A) (A) (A) (A) (A) (A) (A) (A) (A) (A) (A) (A)
                 (A) (A) (A) (A) (A) (A) (A) (A) (A) (A) (A) (A)
                 (A) (A) (A) (A) (A) (A) (A) (A) (A) (A) (A) (A)
                 (A) (A) (A) (A) (A) (A) (A) (A) (A) (A) (A) (A)
                 (A) (A) (A) (A) (A) (A) (A) (A) (A) (A) (A) (A)
                 (A) (A) (A) (A) (A) (A) (A) (A) (A) (A) (A) (A)
                 (A) (A) (A) (A) (A) (A) (A) (A) (A) (A) (A) (A)
                 (A) (A) (A) (A) (A) (A) (A) (A) (A) (A) (A) (A)
                 (A) (A) (A) (A) (A) (A) (A) (A) (A) (A) (A) (A)
                 (A) (A) (A) (A) (A) (A) (A) (A) (A) (A) (A) (A)
                 (A) (A) (A) (A) (A) (A) (A) (A) (A) (A) (A) (A)
                 (A) (A) (A) (A) (A) (A) (A) (A) (A) (A) (A) (A)
                 (A) (A) (A) (A) (A) (A) (A) (A) (A) (A) (A) (A)
                 (A) (A) (A) (A) (A) (A) (A) (A) (A) (A) (A) (A)
                 (A) (A) (A) (A) (A) (A) (A) (A) (A) (A) (A) (A)
                 (A) (A) (A) (A) (A) (A) (A) (A) (A) (A) (A) (A)
                 (A) (A) (A) (A) (A) (A) (A) (A) (A) (A) (A) (A)
                 (A) (A) (A) (A) (A) (A) (A) (A) (A) (A) (A) (A)
                 (A) (A) (A) (A) (A) (A) (A) (A) (A) (A) (A) (A)
                 (A) (A) (A) (A) (A) (A) (A) (A) (A) (A) (A) (A)
                 (A) (A) (A) (A) (A) (A) (A) (A) (A) (A) (A) (A)
                 (A) (A) (A) (A) (A) (A) (A) (A) (A) (A) (A) (A)
                 (A) (A) (A) (A) (A) (A) (A) (A) (A) (A) (A) (A)
                 (A) (A) (A) (A) (A) (A) (A) (A) (A) (A) (A) (A)
                 (A) (A) (A) (A) (A) (A) (A) (A) (A) (A) (A) (A)
                 (A) (A) (A) (A) (A) (A) (A) (A) (A) (A) (A) (A)
                 (A) (A) (A) (A) (A) (A) (A) (A) (A) (A) (A) (A)
                 (A) (A) (A) (A) (A) (A) (A) (A) (A) (A) (A) (A)
                 (A) (A) (A) (A) (A) (A) (A) (A) (A) (A) (A) (A)
                 (A) (A) (A) (A) (A) (A) (A) (A) (A) (A) (A) (A)
                 (A) (A) (A) (A) (A) (A) (A) (A) (A) (A) (A) (A)
    20 initial guesses have been made.
 Convergence on wavefunction:    0.001000000000000
 Davidson Disk Diagonalization:  ConvIn= 1.00D-03 SkipCon=T Conv= 1.00D-03.
 Max sub-space:  2000 roots to seek:    20 dimension of matrix:       549360
 Iteration     1 Dimension    20 NMult     0 NNew     20
 CISAX will form    20 AO SS matrices at one time.
 NMat=    20 NSing=    20 JSym2X= 0.
 FoFJK:  IHMeth= 1 ICntrl=       0 DoSepK=T KAlg= 0 I1Cent=           0 FoldK=F
 IRaf=         1 NMat=      40 IRICut=       1 DoRegI=T DoRafI=F ISym2E= 0 IDoP0=3 IntGTp=3.
 FoFCou: FMM=T IPFlag=           0 FMFlag=      100000 FMFlg1=        2001
         NFxFlg=           0 DoJE=F BraDBF=F KetDBF=F FulRan=T
         wScrn=  0.000000 ICntrl=       500 IOpCl=  0 I1Cent=           0 NGrid=           0
         NMat0=   20 NMatS0=     20 NMatT0=    0 NMatD0=   20 NMtDS0=    0 NMtDT0=    0
 Symmetry not used in FoFCou.
 FMM levels:  10  Number of levels for PrismC:   9
 New state      2 was old state      4
 New state      3 was old state      2
 New state      4 was old state      6
 New state      5 was old state      7
 Excitation Energies [eV] at current iteration:
 Root      1 :     2.230214851993136
 Root      2 :     2.465167871000160
 Root      3 :     2.586066947264471
 Root      4 :     2.616476307875542
 Root      5 :     2.633990855415094
 Root      6 :     2.766913121071065
 Root      7 :     3.015375973724093
 Root      8 :     3.256155622777205
 Root      9 :     3.638378486126183
 Root     10 :     3.675431597157397
 Root     11 :     3.719726849897595
 Root     12 :     3.755268782851385
 Root     13 :     4.128883928446776
 Root     14 :     4.246342673457228
 Root     15 :     4.371596865730526
 Root     16 :     4.385939841550197
 Root     17 :     4.460584770083772
 Root     18 :     4.491770020439714
 Root     19 :     4.628845175421721
 Root     20 :     4.756602557080160
 Iteration     2 Dimension    30 NMult    20 NNew     10
 CISAX will form    10 AO SS matrices at one time.
 NMat=    10 NSing=    10 JSym2X= 0.
 New state      1 was old state      3
 Root      1 not converged, maximum delta is    0.309139611314400
 New state      2 was old state      4
 Root      2 not converged, maximum delta is    0.127873227390391
 New state      3 was old state      1
 Root      3 not converged, maximum delta is    0.021297353437658
 New state      4 was old state      5
 Root      4 not converged, maximum delta is    0.194463409109468
 New state      5 was old state      2
 Root      5 not converged, maximum delta is    0.009161226469858
 Excitation Energies [eV] at current iteration:
 Root      1 :     1.763625081153065   Change is   -0.822441866111406
 Root      2 :     2.221942814857928   Change is   -0.394533493017614
 Root      3 :     2.228948476726157   Change is   -0.001266375266979
 Root      4 :     2.244745013112356   Change is   -0.389245842302738
 Root      5 :     2.463558740416799   Change is   -0.001609130583360
 Iteration     3 Dimension    40 NMult    30 NNew     10
 CISAX will form    10 AO SS matrices at one time.
 NMat=    10 NSing=    10 JSym2X= 0.
 Root      1 not converged, maximum delta is    0.052783187073167
 Root      2 not converged, maximum delta is    0.465036738500810
 New state      3 was old state      4
 Root      3 not converged, maximum delta is    0.762944906744927
 No map to state      4
 New state      5 was old state      3
 Root      5 not converged, maximum delta is    0.027860810695375
 Excitation Energies [eV] at current iteration:
 Root      1 :     1.660849200650093   Change is   -0.102775880502972
 Root      2 :     1.848162741213314   Change is   -0.373780073644614
 Root      3 :     2.193503367903674   Change is   -0.051241645208682
 Root      4 :     2.207377818747379
 Root      5 :     2.228944616317636   Change is   -0.000003860408521
 Iteration     4 Dimension    50 NMult    40 NNew     10
 CISAX will form    10 AO SS matrices at one time.
 NMat=    10 NSing=    10 JSym2X= 0.
 Root      1 not converged, maximum delta is    0.010001414223667
 Root      2 not converged, maximum delta is    0.031272924743637
 Root      3 not converged, maximum delta is    0.061225024581138
 Root      4 not converged, maximum delta is    0.060852307062566
 Root      5 not converged, maximum delta is    0.003389517527564
 Excitation Energies [eV] at current iteration:
 Root      1 :     1.644488830290173   Change is   -0.016360370359919
 Root      2 :     1.731284300210743   Change is   -0.116878441002571
 Root      3 :     2.184799338723407   Change is   -0.008704029180268
 Root      4 :     2.198699768316128   Change is   -0.008678050431251
 Root      5 :     2.228939506909973   Change is   -0.000005109407663
 Iteration     5 Dimension    60 NMult    50 NNew     10
 CISAX will form    10 AO SS matrices at one time.
 NMat=    10 NSing=    10 JSym2X= 0.
 Root      1 not converged, maximum delta is    0.001364856516462
 Root      2 not converged, maximum delta is    0.012934835287180
 Root      3 not converged, maximum delta is    0.011493907314209
 Root      4 not converged, maximum delta is    0.011412773388571
 Root      5 has converged.
 Excitation Energies [eV] at current iteration:
 Root      1 :     1.642826293065276   Change is   -0.001662537224898
 Root      2 :     1.709121385748613   Change is   -0.022162914462130
 Root      3 :     2.183443250284619   Change is   -0.001356088438788
 Root      4 :     2.197736838347703   Change is   -0.000962929968425
 Root      5 :     2.228938900234303   Change is   -0.000000606675670
 Iteration     6 Dimension    68 NMult    60 NNew      8
 CISAX will form     8 AO SS matrices at one time.
 NMat=     8 NSing=     8 JSym2X= 0.
 Root      1 has converged.
 Root      2 not converged, maximum delta is    0.001988436899761
 Root      3 has converged.
 Root      4 has converged.
 Root      5 has converged.
 Excitation Energies [eV] at current iteration:
 Root      1 :     1.642591226589914   Change is   -0.000235066475361
 Root      2 :     1.707461180227682   Change is   -0.001660205520931
 Root      3 :     2.183296473562724   Change is   -0.000146776721896
 Root      4 :     2.197609233143410   Change is   -0.000127605204293
 Root      5 :     2.228938861715725   Change is   -0.000000038518578
 Iteration     7 Dimension    70 NMult    68 NNew      2
 CISAX will form     2 AO SS matrices at one time.
 NMat=     2 NSing=     2 JSym2X= 0.
 Root      1 has converged.
 Root      2 has converged.
 Root      3 has converged.
 Root      4 has converged.
 Root      5 has converged.
 Excitation Energies [eV] at current iteration:
 Root      1 :     1.642591138616090   Change is   -0.000000087973825
 Root      2 :     1.707245243337194   Change is   -0.000215936890488
[...]
 Alpha virt. eigenvalues --    1.86114   1.86284   1.86523   1.86554   1.86642
 Alpha virt. eigenvalues --    1.86891   1.86940   1.87094   1.87203   1.87317
 Alpha virt. eigenvalues --    1.87587   1.87700   1.87814   1.87885   1.87968
 Alpha virt. eigenvalues --    1.88194   1.88421   1.88469   1.88541   1.88772
 Alpha virt. eigenvalues --    1.88922   1.89177   1.89435   1.89538   1.89833
 Alpha virt. eigenvalues --    1.89915   1.90103   1.90305   1.90534   1.90685
 Alpha virt. eigenvalues --    1.91073   1.91329   1.91569   1.91622   1.91891
 Alpha virt. eigenvalues --    1.92272   1.92382   1.92695   1.92782   1.92855
 Alpha virt. eigenvalues --    1.93202   1.93392   1.93670   1.94251   1.94325
 Alpha virt. eigenvalues --    1.94623   1.94657   1.95022   1.95615   1.95718
 Alpha virt. eigenvalues --    1.95868   1.95930   1.96077   1.96211   1.96295
 Alpha virt. eigenvalues --    1.96505   1.96756   1.96892   1.97104   1.97393
 Alpha virt. eigenvalues --    1.97582   1.97725   1.98017   1.98136   1.98335
 Alpha virt. eigenvalues --    1.98618   1.98638   1.98936   1.99119   1.99774
 Alpha virt. eigenvalues --    2.00089   2.00474   2.00626   2.00985   2.01096
 Alpha virt. eigenvalues --    2.01425   2.01454   2.01683   2.01731   2.01828
 Alpha virt. eigenvalues --    2.02028   2.02607   2.02741   2.02947   2.03228
 Alpha virt. eigenvalues --    2.03323   2.03399   2.03542   2.03837   2.04025
 Alpha virt. eigenvalues --    2.04154   2.04830   2.04936   2.05252   2.05575
 Alpha virt. eigenvalues --    2.05950   2.06228   2.06603   2.06865   2.07118
 Alpha virt. eigenvalues --    2.07289   2.07606   2.08756   2.08828   2.08929
 Alpha virt. eigenvalues --    2.09262   2.09536   2.09851   2.10854   2.11105
 Alpha virt. eigenvalues --    2.11184   2.11505   2.11645   2.11698   2.11744
 Alpha virt. eigenvalues --    2.12298   2.12471   2.12619   2.12733   2.12923
 Alpha virt. eigenvalues --    2.13230   2.13730   2.13855   2.14082   2.14257
 Alpha virt. eigenvalues --    2.14523   2.15384   2.15645   2.15855   2.16326
 Alpha virt. eigenvalues --    2.16573   2.16685   2.17053   2.17425   2.17564
 Alpha virt. eigenvalues --    2.17663   2.17835   2.18031   2.18287   2.18374
 Alpha virt. eigenvalues --    2.18506   2.18802   2.19115   2.19502   2.19936
 Alpha virt. eigenvalues --    2.20015   2.20140   2.20439   2.20567   2.20939
 Alpha virt. eigenvalues --    2.21348   2.21560   2.21677   2.21715   2.22037
 Alpha virt. eigenvalues --    2.22087   2.22786   2.22993   2.23430   2.23559
 Alpha virt. eigenvalues --    2.24479   2.24655   2.25108   2.25364   2.26228
 Alpha virt. eigenvalues --    2.26688   2.26845   2.27033   2.27240   2.27572
 Alpha virt. eigenvalues --    2.28083   2.28672   2.29262   2.29663   2.29745
 Alpha virt. eigenvalues --    2.30242   2.30434   2.31001   2.31082   2.31129
 Alpha virt. eigenvalues --    2.31283   2.31642   2.32310   2.32571   2.33074
 Alpha virt. eigenvalues --    2.33403   2.33553   2.33695   2.34180   2.34422
 Alpha virt. eigenvalues --    2.35368   2.35493   2.35733   2.36330   2.36551
 Alpha virt. eigenvalues --    2.36575   2.36615   2.36922   2.37745   2.37857
 Alpha virt. eigenvalues --    2.38216   2.38633   2.38810   2.39049   2.39542
 Alpha virt. eigenvalues --    2.39853   2.40324   2.40427   2.40446   2.41026
 Alpha virt. eigenvalues --    2.41286   2.41530   2.41889   2.41920   2.42002
 Alpha virt. eigenvalues --    2.42409   2.42968   2.43007   2.43195   2.43525
 Alpha virt. eigenvalues --    2.44135   2.44265   2.44667   2.44874   2.45052
 Alpha virt. eigenvalues --    2.45365   2.45531   2.45817   2.46226   2.46388
 Alpha virt. eigenvalues --    2.46587   2.46720   2.46764   2.47034   2.47213
 Alpha virt. eigenvalues --    2.47546   2.47723   2.48073   2.49327   2.49593
 Alpha virt. eigenvalues --    2.50043   2.50054   2.50571   2.50711   2.51059
 Alpha virt. eigenvalues --    2.51517   2.51858   2.51883   2.52411   2.52631
 Alpha virt. eigenvalues --    2.52793   2.53650   2.53915   2.54120   2.54271
 Alpha virt. eigenvalues --    2.54508   2.54825   2.54987   2.55450   2.55953
 Alpha virt. eigenvalues --    2.57792   2.58309   2.58569   2.59214   2.60133
 Alpha virt. eigenvalues --    2.60510   2.60563   2.61331   2.61661   2.62088
 Alpha virt. eigenvalues --    2.62459   2.62715   2.62883   2.63381   2.63861
 Alpha virt. eigenvalues --    2.64190   2.64459   2.64557   2.65004   2.65284
 Alpha virt. eigenvalues --    2.65750   2.66067   2.66714   2.66818   2.66996
 Alpha virt. eigenvalues --    2.67339   2.67845   2.68231   2.68809   2.68956
 Alpha virt. eigenvalues --    2.69042   2.69266   2.69313   2.69805   2.69957
 Alpha virt. eigenvalues --    2.70321   2.70907   2.71317   2.72009   2.72076
 Alpha virt. eigenvalues --    2.72561   2.72652   2.72785   2.73055   2.73225
 Alpha virt. eigenvalues --    2.73451   2.73480   2.73601   2.74450   2.74704
 Alpha virt. eigenvalues --    2.74891   2.75241   2.76543   2.76717   2.77135
 Alpha virt. eigenvalues --    2.77270   2.77397   2.77903   2.78156   2.78563
 Alpha virt. eigenvalues --    2.78657   2.78856   2.79068   2.79368   2.80287
 Alpha virt. eigenvalues --    2.80517   2.80526   2.80868   2.80997   2.81360
 Alpha virt. eigenvalues --    2.81844   2.82188   2.82243   2.82504   2.83654
 Alpha virt. eigenvalues --    2.83696   2.84087   2.84101   2.84449   2.84707
 Alpha virt. eigenvalues --    2.84821   2.85029   2.85611   2.85892   2.86805
 Alpha virt. eigenvalues --    2.86967   2.87323   2.87569   2.88104   2.88418
 Alpha virt. eigenvalues --    2.88494   2.88764   2.88897   2.89058   2.90464
 Alpha virt. eigenvalues --    2.90797   2.91139   2.91364   2.93088   2.93557
 Alpha virt. eigenvalues --    2.93944   2.94152   2.94562   2.94753   2.95363
 Alpha virt. eigenvalues --    2.95782   2.95977   2.96201   2.96547   2.96814
 Alpha virt. eigenvalues --    2.96974   2.97276   2.97781   2.98147   2.98257
 Alpha virt. eigenvalues --    2.98273   2.98500   2.98614   2.98809   2.98831
 Alpha virt. eigenvalues --    2.99039   2.99184   2.99691   2.99965   2.99996
 Alpha virt. eigenvalues --    3.00155   3.00220   3.00421   3.00611   3.01309
 Alpha virt. eigenvalues --    3.01979   3.02038   3.02134   3.02371   3.02697
 Alpha virt. eigenvalues --    3.02955   3.03066   3.03301   3.03608   3.03942
 Alpha virt. eigenvalues --    3.04181   3.04296   3.04559   3.04585   3.04825
 Alpha virt. eigenvalues --    3.05242   3.05578   3.05704   3.06116   3.06561
 Alpha virt. eigenvalues --    3.06804   3.07817   3.08139   3.08212   3.09374
 Alpha virt. eigenvalues --    3.09535   3.09672   3.10410   3.10651   3.11165
 Alpha virt. eigenvalues --    3.11312   3.11614   3.11897   3.11948   3.12363
 Alpha virt. eigenvalues --    3.12637   3.13240   3.13591   3.13860   3.14021
 Alpha virt. eigenvalues --    3.14067   3.14608   3.16027   3.16075   3.17169
 Alpha virt. eigenvalues --    3.17720   3.18077   3.18101   3.19072   3.19248
 Alpha virt. eigenvalues --    3.22235   3.22751   3.23845   3.24559   3.24641
 Alpha virt. eigenvalues --    3.25374   3.26400   3.26852   3.27529   3.27614
 Alpha virt. eigenvalues --    3.29032   3.29351   3.31432   3.31599   3.33328
 Alpha virt. eigenvalues --    3.33397   3.40357   3.40578   3.42765   3.43048
 Alpha virt. eigenvalues --    3.48544   3.48890   3.49931   3.50493   3.51057
 Alpha virt. eigenvalues --    3.51396   3.56470   3.57205   3.59014   3.59512
 Alpha virt. eigenvalues --    3.62704   3.62744   3.66165   3.66355   3.67123
 Alpha virt. eigenvalues --    3.67657   3.73184   3.74169   3.75955   3.76837
          Condensed to atoms (all electrons):
 Mulliken charges:
               1
     1  Mg   0.838971
     2  C   -0.002239
     3  C   -0.094290
     4  C   -0.045313
     5  C   -0.065240
     6  N   -0.256807
     7  C   -0.052323
     8  C   -0.014134
     9  C   -0.087027
    10  C    0.046744
    11  C    0.104763
    12  C    0.053131
    13  C   -0.072719
    14  H    0.038729
    15  N   -0.433424
    16  C    0.169071
    17  C   -0.177046
    18  C   -0.003242
    19  C    0.149538
    20  C    0.110171
    21  C    0.013020
    22  O   -0.247721
    23  C    0.062153
    24  N   -0.341146
    25  C    0.041110
    26  C   -0.029054
    27  C   -0.025734
    28  C    0.074740
    29  C    0.076138
    30  C    0.050743
    31  C   -0.029423
    32  N   -0.310156
    33  C    0.079508
    34  C   -0.172160
    35  C    0.007785
    36  C    0.082519
    37  C    0.127840
    38  C    0.044987
    39  O   -0.189574
    40  C   -0.004940
    41  C    0.212185
    42  O   -0.257001
    43  O   -0.304834
    44  C    0.157687
    45  H   -0.017219
    46  H   -0.015747
    47  H   -0.042884
    48  H    0.001048
    49  H   -0.003874
    50  H    0.025579
    51  H    0.016424
    52  H    0.016994
    53  H    0.010722
    54  H    0.045477
    55  H    0.017610
    56  H    0.017479
    57  H    0.005961
    58  H    0.027530
    59  H    0.039311
    60  H    0.037271
    61  H    0.037394
    62  H    0.030713
    63  H    0.017742
    64  H    0.009729
    65  H    0.024275
    66  H    0.012861
    67  H    0.004699
    68  H    0.005911
    69  H    0.001958
    70  H    0.011011
    71  H    0.021482
    72  H    0.034475
    73  H    0.045228
    74  H    0.007829
    75  H    0.046678
    76  H    0.035379
    77  H    0.042565
    78  H    0.047357
    79  H    0.054135
    80  Mg   0.836759
    81  C   -0.017004
    82  C   -0.086339
    83  C   -0.042897
    84  C   -0.065949
    85  N   -0.254553
    86  C   -0.050958
    87  C   -0.014295
    88  C   -0.090197
    89  C    0.044851
    90  C    0.101381
    91  C    0.063848
    92  C   -0.077364
    93  H    0.034245
    94  N   -0.424575
    95  C    0.162864
    96  C   -0.168400
    97  C   -0.005342
    98  C    0.153317
    99  C    0.096873
   100  C    0.017915
   101  O   -0.254357
   102  C    0.060190
   103  N   -0.350072
   104  C    0.037277
   105  C   -0.019800
   106  C   -0.034063
   107  C    0.088391
   108  C    0.073336
   109  C    0.035132
   110  C   -0.007493
   111  N   -0.323943
   112  C    0.077755
   113  C   -0.163743
   114  C    0.002624
   115  C    0.095386
   116  C    0.130992
   117  C    0.042672
   118  O   -0.188627
   119  C    0.000794
   120  C    0.211036
   121  O   -0.251294
   122  O   -0.305761
   123  C    0.152194
   124  H   -0.016755
   125  H   -0.015834
   126  H   -0.042605
   127  H   -0.001735
   128  H   -0.005181
   129  H    0.034061
   130  H    0.017157
   131  H    0.016490
   132  H    0.014009
   133  H    0.037235
   134  H    0.019399
   135  H    0.019539
   136  H    0.009039
   137  H    0.033981
   138  H    0.038306
   139  H    0.042141
   140  H    0.034792
   141  H    0.032771
   142  H    0.013918
   143  H    0.009713
   144  H    0.023638
   145  H    0.014975
   146  H    0.002287
   147  H    0.004855
   148  H    0.002619
   149  H    0.010719
   150  H    0.017298
   151  H    0.031050
   152  H    0.045369
   153  H    0.006654
   154  H    0.047159
   155  H    0.035151
   156  H    0.043420
   157  H    0.049073
   158  H    0.053398
 Sum of Mulliken charges =  -0.00000
 Mulliken charges with hydrogens summed into heavy atoms:
               1
     1  Mg   0.838971
     2  C   -0.002239
     3  C   -0.111509
     4  C   -0.061060
     5  C   -0.108125
     6  N   -0.256807
     7  C   -0.052323
     8  C   -0.013085
     9  C   -0.090901
    10  C    0.046744
    11  C    0.163759
    12  C    0.109330
    13  C    0.001099
    15  N   -0.433424
    16  C    0.169071
    17  C   -0.177046
    18  C   -0.003242
    19  C    0.149538
    20  C    0.182972
    21  C    0.013020
    22  O   -0.247721
    23  C    0.167531
    24  N   -0.341146
    25  C    0.041110
    26  C   -0.011312
    27  C   -0.016004
    28  C    0.074740
    29  C    0.117972
    30  C    0.058612
    31  C    0.037545
    32  N   -0.310156
    33  C    0.079508
    34  C   -0.172160
    35  C    0.007785
    36  C    0.082519
    37  C    0.227576
    38  C    0.044987
    39  O   -0.189574
    40  C    0.030439
    41  C    0.212185
    42  O   -0.257001
    43  O   -0.304834
    44  C    0.301744
    80  Mg   0.836759
    81  C   -0.017004
    82  C   -0.103094
    83  C   -0.058731
    84  C   -0.108554
    85  N   -0.254553
    86  C   -0.050958
    87  C   -0.016031
    88  C   -0.095378
    89  C    0.044851
    90  C    0.169089
    91  C    0.115092
    92  C   -0.004181
    94  N   -0.424575
    95  C    0.162864
    96  C   -0.168400
    97  C   -0.005342
    98  C    0.153317
    99  C    0.178199
   100  C    0.017915
   101  O   -0.254357
   102  C    0.169895
   103  N   -0.350072
   104  C    0.037277
   105  C   -0.005882
   106  C   -0.024350
   107  C    0.088391
   108  C    0.114236
   109  C    0.042606
   110  C    0.051574
   111  N   -0.323943
   112  C    0.077755
   113  C   -0.163743
   114  C    0.002624
   115  C    0.095386
   116  C    0.230174
   117  C    0.042672
   118  O   -0.188627
   119  C    0.035945
   120  C    0.211036
   121  O   -0.251294
   122  O   -0.305761
   123  C    0.298084
 Electronic spatial extent (au):  <R**2>=          88575.5131
 Charge=             -0.0000 electrons
 Dipole moment (field-independent basis, Debye):
    X=              4.7772    Y=             -0.4167    Z=              0.5202  Tot=              4.8235
 Quadrupole moment (field-independent basis, Debye-Ang):
   XX=           -533.7804   YY=           -529.7961   ZZ=           -456.9670
   XY=            -19.2206   XZ=             52.9824   YZ=             18.6773
 Traceless Quadrupole moment (field-independent basis, Debye-Ang):
   XX=            -26.9326   YY=            -22.9482   ZZ=             49.8808
   XY=            -19.2206   XZ=             52.9824   YZ=             18.6773
 Octapole moment (field-independent basis, Debye-Ang**2):
  XXX=            372.2057  YYY=             73.3475  ZZZ=            164.2063  XYY=             81.5500
  XXY=             52.9131  XXZ=             33.4998  XZZ=           -123.2218  YZZ=            -56.0383
  YYZ=           -202.7749  XYZ=            -34.5723
 Hexadecapole moment (field-independent basis, Debye-Ang**3):
 XXXX=         -58251.7613 YYYY=         -38329.9164 ZZZZ=         -25125.1680 XXXY=            629.0856
 XXXZ=           2488.9954 YYYX=            538.9636 YYYZ=           -172.5043 ZZZX=            483.3131
 ZZZY=            -55.0873 XXYY=         -15329.7713 XXZZ=         -13557.2079 YYZZ=          -9963.3510
 XXYZ=            876.9484 YYXZ=            421.5026 ZZXY=           -490.9191
 N-N= 1.591598309476D+04 E-N=-4.131318062731D+04  KE= 4.028814426951D+03
 Leave Link  601 at Wed Sep  8 16:35:12 2021, MaxMem= 23488102400 cpu:              14.2 elap:               0.7
 (Enter /sw/apps/gaussian-16.0/g16/l9999.exe)
 1\1\GINC-BP1-COMPUTE00154\SP\RCAM-B3LYP TD-FC\def2SVP\C68H72Mg2N8O8\OF
 15641\08-Sep-2021\0\\#p cam-b3lyp/Def2SVP td=(nstates=5)\\TDDFT excite
 d states in gaussian\\0,1\Mg,0,0.,0.,0.\C,0,-0.217,-2.218,2.801\C,0,-1
 .255,2.442,2.026\C,0,-0.245,1.85,-2.564\C,0,0.146,-2.824,-2.037\N,0,-0
 .617,-0.009,2.126\C,0,-0.594,-0.908,3.105\C,0,-0.936,-0.309,4.502\C,0,
 -1.773,0.964,4.032\C,0,-1.155,1.168,2.66\C,0,-3.263,0.685,3.863\C,0,0.
 345,0.11,5.299\C,0,0.124,0.397,6.787\H,0,1.168,0.033,7.733\N,0,-0.185,
 1.961,-0.152\C,0,-0.703,2.8,0.777\C,0,-0.62,4.156,0.193\C,0,-0.187,4.0
 15,-1.225\C,0,-0.214,2.583,-1.38\C,0,-0.887,5.406,0.974\C,0,0.181,5.01
 3,-2.277\O,0,0.303,4.69,-3.508\C,0,0.31,6.414,-1.837\N,0,-0.265,-0.413
 ,-2.029\C,0,-0.279,0.569,-2.937\C,0,-0.196,0.024,-4.332\C,0,0.124,-1.5
 33,-4.18\C,0,0.086,-1.632,-2.635\C,0,-1.451,0.205,-5.197\C,0,1.373,-2.
 07,-4.923\C,0,2.626,-1.49,-4.306\N,0,0.15,-2.144,0.303\C,0,0.173,-3.13
 6,-0.688\C,0,0.173,-4.438,0.004\C,0,0.133,-4.111,1.358\C,0,0.083,-2.69
 5,1.502\C,0,0.149,-5.715,-0.623\C,0,0.096,-4.629,2.716\O,0,0.208,-5.74
 7,3.221\C,0,-0.255,-3.428,3.701\C,0,0.717,-3.482,4.848\O,0,1.931,-3.25
 5,4.669\O,0,0.038,-3.556,6.003\C,0,0.943,-3.583,7.183\H,0,-1.859,3.22,
 2.497\H,0,-0.218,2.453,-3.474\H,0,0.276,-3.747,-2.605\H,0,-1.554,-0.94
 9,5.132\H,0,-1.585,1.831,4.665\H,0,-3.484,-0.377,3.969\H,0,-3.511,1.02
 7,2.858\H,0,-3.852,1.301,4.543\H,0,0.669,1.096,4.966\H,0,1.13,-0.639,5
 .189\H,0,-0.844,0.026,7.125\H,0,0.062,1.477,6.921\H,0,-1.344,5.186,1.9
 38\H,0,-1.651,5.963,0.432\H,0,0.007,6.02,1.084\H,0,-0.635,6.744,-1.405
 \H,0,0.665,6.97,-2.704\H,0,1.048,6.466,-1.036\H,0,0.608,0.501,-4.891\H
 ,0,-0.692,-2.156,-4.547\H,0,-1.267,0.74,-6.129\H,0,-2.204,0.714,-4.596
 \H,0,-1.967,-0.72,-5.453\H,0,1.356,-1.759,-5.967\H,0,1.452,-3.157,-4.9
 02\H,0,2.714,-0.522,-4.798\H,0,3.487,-2.121,-4.529\H,0,2.495,-1.303,-3
 .24\H,0,0.867,-6.333,-0.084\H,0,0.404,-5.642,-1.68\H,0,-0.891,-5.999,-
 0.463\H,0,-1.283,-3.581,4.028\H,0,0.698,-4.478,7.755\H,0,0.833,-2.619,
 7.68\H,0,2.,-3.754,6.976\Mg,0,7.89121,0.7034,0.59611\C,0,7.91544,1.134
 7,-2.96654\C,0,7.34927,-2.61807,0.04042\C,0,7.4162,0.36079,3.71451\C,0
 ,7.29338,4.1261,0.86702\N,0,7.67939,-0.46986,-1.26692\C,0,7.76825,-0.2
 0859,-2.56236\C,0,7.77585,-1.46567,-3.473\C,0,7.02735,-2.48448,-2.4827
 2\C,0,7.39954,-1.84466,-1.14677\C,0,5.51427,-2.45582,-2.62095\C,0,9.22
 945,-1.95294,-3.8071\C,0,9.31911,-2.98241,-4.93577\H,0,10.47192,-2.935
 24,-5.83091\N,0,7.93531,-0.92427,1.73071\C,0,7.71437,-2.19631,1.33779\
 C,0,7.84208,-3.0198,2.5501\C,0,7.99353,-2.11229,3.7198\C,0,7.76162,-0.
 82836,3.08907\C,0,7.89356,-4.51961,2.51331\C,0,8.28461,-2.36014,5.1689
 6\O,0,8.13588,-1.44315,6.05204\C,0,8.659,-3.73344,5.53689\N,0,7.2138,2
 .0034,2.07037\C,0,7.1511,1.61741,3.35684\C,0,6.90095,2.79525,4.26817\C
 ,0,7.05009,4.09232,3.34462\C,0,7.28281,3.40633,1.98056\C,0,5.54053,2.8
 2037,4.96459\C,0,8.06219,5.17489,3.80978\C,0,9.4719,4.63652,3.71886\N,
 0,7.8275,2.38339,-0.76095\C,0,7.53359,3.72717,-0.44162\C,0,7.49782,4.4
 7894,-1.71284\C,0,7.75269,3.50827,-2.69331\C,0,7.91446,2.23737,-2.0783
 6\C,0,7.20718,5.86546,-1.85144\C,0,7.91113,3.26788,-4.10957\O,0,7.9652
 8,3.98066,-5.11095\C,0,7.89817,1.69837,-4.36031\C,0,9.05139,1.36314,-5
 .26598\O,0,10.22354,1.52104,-4.88162\O,0,8.58717,0.71122,-6.34758\C,0,
 9.69513,0.34763,-7.27066\H,0,6.95307,-3.63224,-0.01746\H,0,7.34931,0.3
 1834,4.80409\H,0,7.21042,5.21501,0.87497\H,0,7.21483,-1.36273,-4.3941\
 H,0,7.44527,-3.48516,-2.55582\H,0,5.18488,-1.66728,-3.28114\H,0,5.1305
 2,-2.29753,-1.62159\H,0,5.14563,-3.43703,-2.93344\H,0,9.6055,-2.55709,
 -2.97144\H,0,9.86956,-1.12041,-4.02568\H,0,8.38773,-3.04492,-5.5116\H,
 0,9.42709,-3.97517,-4.49217\H,0,7.59213,-4.90851,1.53285\H,0,7.1205,-4
 .88301,3.19902\H,0,8.86093,-4.91574,2.82943\H,0,7.86115,-4.41438,5.250
 17\H,0,8.91489,-3.69239,6.59742\H,0,9.54282,-4.02233,4.95721\H,0,7.642
 11,2.83828,5.0568\H,0,6.10233,4.64425,3.26116\H,0,5.61555,2.86879,6.06
 736\H,0,4.98459,1.94383,4.65939\H,0,4.88039,3.63048,4.6594\H,0,7.89277
 ,5.42546,4.85985\H,0,7.99752,6.09824,3.24388\H,0,9.58356,4.0782,4.6531
 5\H,0,10.19009,5.4517,3.65795\H,0,9.56751,3.92106,2.89386\H,0,7.92112,
 6.26391,-2.55998\H,0,7.26469,6.38127,-0.89519\H,0,6.18236,5.81316,-2.2
 2864\H,0,6.93729,1.44649,-4.81067\H,0,9.44595,0.76778,-8.24998\H,0,9.7
 9064,-0.75246,-7.20402\H,0,10.66557,0.79467,-7.08944\\Version=ES64L-G1
 6RevA.03\State=1-A\HF=-4069.810623\RMSD=7.200e-09\PG=C01 [X(C68H72Mg2N
 8O8)]\\@


 I DO NOT KNOW WHAT I MAY APPEAR TO THE WORLD; BUT TO MYSELF
 I SEEM TO HAVE BEEN ONLY LIKE A BOY PLAYING ON THE SEASHORE,
 AND DIVERTING MYSELF IN NOW AND THEN FINDING A SMOOTHER PEBBLE
 OR A PRETTIER SHELL THAN ORDINARY, WHILST THE GREAT OCEAN OF
 TRUTH LAY ALL UNDISCOVERED BEFORE ME.
                                          -- NEWTON (1642-1726)
 Job cpu time:       0 days 14 hours 53 minutes  8.1 seconds.
 Elapsed time:       0 days  0 hours 37 minutes 51.0 seconds.
 File lengths (MBytes):  RWF=  13225 Int=      0 D2E=      0 Chk=    574 Scr=      1
 Normal termination of Gaussian 16 at Wed Sep  8 16:35:13 2021.
