 Entering Gaussian System, Link 0=g16
 Initial command:
 /sw/apps/gaussian-16.0/g16/l1.exe "/tmp/Gau-167649.inp" -scrdir="/tmp/"
 Entering Link 1 = /sw/apps/gaussian-16.0/g16/l1.exe PID=    167650.
  
 Copyright (c) 1988,1990,1992,1993,1995,1998,2003,2009,2016,
            Gaussian, Inc.  All Rights Reserved.
  
 This is part of the Gaussian(R) 16 program.  It is based on
 the Gaussian(R) 09 system (copyright 2009, Gaussian, Inc.),
 the Gaussian(R) 03 system (copyright 2003, Gaussian, Inc.),
 the Gaussian(R) 98 system (copyright 1998, Gaussian, Inc.),
 the Gaussian(R) 94 system (copyright 1995, Gaussian, Inc.),
 the Gaussian 92(TM) system (copyright 1992, Gaussian, Inc.),
 the Gaussian 90(TM) system (copyright 1990, Gaussian, Inc.),
 the Gaussian 88(TM) system (copyright 1988, Gaussian, Inc.),
 the Gaussian 86(TM) system (copyright 1986, Carnegie Mellon
 University), and the Gaussian 82(TM) system (copyright 1983,
 Carnegie Mellon University). Gaussian is a federally registered
 trademark of Gaussian, Inc.
  
 This software contains proprietary and confidential information,
 including trade secrets, belonging to Gaussian, Inc.
  
 This software is provided under written license and may be
 used, copied, transmitted, or stored only in accord with that
 written license.
  
 The following legend is applicable only to US Government
 contracts under FAR:
  
                    RESTRICTED RIGHTS LEGEND
  
 Use, reproduction and disclosure by the US Government is
 subject to restrictions as set forth in subparagraphs (a)
 and (c) of the Commercial Computer Software - Restricted
 Rights clause in FAR 52.227-19.
  
 Gaussian, Inc.
 340 Quinnipiac St., Bldg. 40, Wallingford CT 06492
  
  
 ---------------------------------------------------------------
 Warning -- This program may not be used in any manner that
 competes with the business of Gaussian, Inc. or will provide
 assistance to any competitor of Gaussian, Inc.  The licensee
 of this program is prohibited from giving any competitor of
 Gaussian, Inc. access to this program.  By using this program,
 the user acknowledges that Gaussian, Inc. is engaged in the
 business of creating and licensing software in the field of
 computational chemistry and represents and warrants to the
 licensee that it is not a competitor of Gaussian, Inc. and that
 it will not use this program in any manner prohibited above.
 ---------------------------------------------------------------
  

 Cite this work as:
 Gaussian 16, Revision A.03,
 M. J. Frisch, G. W. Trucks, H. B. Schlegel, G. E. Scuseria, 
 M. A. Robb, J. R. Cheeseman, G. Scalmani, V. Barone, 
 G. A. Petersson, H. Nakatsuji, X. Li, M. Caricato, A. V. Marenich, 
 J. Bloino, B. G. Janesko, R. Gomperts, B. Mennucci, H. P. Hratchian, 
 J. V. Ortiz, A. F. Izmaylov, J. L. Sonnenberg, D. Williams-Young, 
 F. Ding, F. Lipparini, F. Egidi, J. Goings, B. Peng, A. Petrone, 
 T. Henderson, D. Ranasinghe, V. G. Zakrzewski, J. Gao, N. Rega, 
 G. Zheng, W. Liang, M. Hada, M. Ehara, K. Toyota, R. Fukuda, 
 J. Hasegawa, M. Ishida, T. Nakajima, Y. Honda, O. Kitao, H. Nakai, 
 T. Vreven, K. Throssell, J. A. Montgomery, Jr., J. E. Peralta, 
 F. Ogliaro, M. J. Bearpark, J. J. Heyd, E. N. Brothers, K. N. Kudin, 
 V. N. Staroverov, T. A. Keith, R. Kobayashi, J. Normand, 
 K. Raghavachari, A. P. Rendell, J. C. Burant, S. S. Iyengar, 
 J. Tomasi, M. Cossi, J. M. Millam, M. Klene, C. Adamo, R. Cammi, 
 J. W. Ochterski, R. L. Martin, K. Morokuma, O. Farkas, 
 J. B. Foresman, and D. J. Fox, Gaussian, Inc., Wallingford CT, 2016.
 
 ******************************************
 Gaussian 16:  ES64L-G16RevA.03 25-Dec-2016
                 8-Sep-2021 
 ******************************************
 %nproc=24
 Will use up to   24 processors via shared memory.
 %mem=175gb
 -----------------------------------
 #p cam-b3lyp/Def2SVP td=(nstates=5)
 -----------------------------------
 1/38=1,172=1/1;
 2/12=2,17=6,18=5,40=1/2;
 3/5=43,7=101,11=9,25=1,30=1,74=-40/1,2,3,8;
 4//1;
 5/5=2,38=5/2;
 8/6=1,10=1,108=5/1;
 9/41=5,42=1,70=2/14;
 6/7=2,8=2,9=2,10=2/1;
 99/5=1,9=1/99;
 Leave Link    1 at Wed Sep  8 21:15:17 2021, MaxMem= 23488102400 cpu:               0.8 elap:               0.0
 (Enter /sw/apps/gaussian-16.0/g16/l101.exe)
 --------------------------------
 TDDFT excited states in gaussian
 --------------------------------
 Symbolic Z-matrix:
 Charge =  0 Multiplicity = 1
 Mg                    0.        0.        0. 
 C                    -0.217    -2.218     2.801 
 C                    -1.255     2.442     2.026 
 C                    -0.245     1.85     -2.564 
 C                     0.146    -2.824    -2.037 
 N                    -0.617    -0.009     2.126 
 C                    -0.594    -0.908     3.105 
 C                    -0.936    -0.309     4.502 
 C                    -1.773     0.964     4.032 
 C                    -1.155     1.168     2.66 
 C                    -3.263     0.685     3.863 
 C                     0.345     0.11      5.299 
 C                     0.124     0.397     6.787 
 H                     1.168     0.033     7.733 
 N                    -0.185     1.961    -0.152 
 C                    -0.703     2.8       0.777 
 C                    -0.62      4.156     0.193 
 C                    -0.187     4.015    -1.225 
 C                    -0.214     2.583    -1.38 
 C                    -0.887     5.406     0.974 
 C                     0.181     5.013    -2.277 
 O                     0.303     4.69     -3.508 
 C                     0.31      6.414    -1.837 
 N                    -0.265    -0.413    -2.029 
 C                    -0.279     0.569    -2.937 
 C                    -0.196     0.024    -4.332 
 C                     0.124    -1.533    -4.18 
 C                     0.086    -1.632    -2.635 
 C                    -1.451     0.205    -5.197 
 C                     1.373    -2.07     -4.923 
 C                     2.626    -1.49     -4.306 
 N                     0.15     -2.144     0.303 
 C                     0.173    -3.136    -0.688 
 C                     0.173    -4.438     0.004 
 C                     0.133    -4.111     1.358 
 C                     0.083    -2.695     1.502 
 C                     0.149    -5.715    -0.623 
 C                     0.096    -4.629     2.716 
 O                     0.208    -5.747     3.221 
 C                    -0.255    -3.428     3.701 
 C                     0.717    -3.482     4.848 
 O                     1.931    -3.255     4.669 
 O                     0.038    -3.556     6.003 
 C                     0.943    -3.583     7.183 
 H                    -1.859     3.22      2.497 
 H                    -0.218     2.453    -3.474 
 H                     0.276    -3.747    -2.605 
 H                    -1.554    -0.949     5.132 
 H                    -1.585     1.831     4.665 
 H                    -3.484    -0.377     3.969 
 H                    -3.511     1.027     2.858 
 H                    -3.852     1.301     4.543 
 H                     0.669     1.096     4.966 
 H                     1.13     -0.639     5.189 
 H                    -0.844     0.026     7.125 
 H                     0.062     1.477     6.921 
 H                    -1.344     5.186     1.938 
 H                    -1.651     5.963     0.432 
 H                     0.007     6.02      1.084 
 H                    -0.635     6.744    -1.405 
 H                     0.665     6.97     -2.704 
 H                     1.048     6.466    -1.036 
 H                     0.608     0.501    -4.891 
 H                    -0.692    -2.156    -4.547 
 H                    -1.267     0.74     -6.129 
 H                    -2.204     0.714    -4.596 
 H                    -1.967    -0.72     -5.453 
 H                     1.356    -1.759    -5.967 
 H                     1.452    -3.157    -4.902 
 H                     2.714    -0.522    -4.798 
 H                     3.487    -2.121    -4.529 
 H                     2.495    -1.303    -3.24 
 H                     0.867    -6.333    -0.084 
 H                     0.404    -5.642    -1.68 
 H                    -0.891    -5.999    -0.463 
 H                    -1.283    -3.581     4.028 
 H                     0.698    -4.478     7.755 
 H                     0.833    -2.619     7.68 
 H                     2.       -3.754     6.976 
 Mg                    7.87294   0.71254   0.5993 
 C                     6.31013  -2.10602  -0.97943 
 C                     6.52725   2.64945  -1.86487 
 C                     9.59705   3.13768   1.70093 
 C                     9.9804   -1.54033   2.22068 
 N                     6.60026   0.21964  -1.14127 
 C                     6.0185   -0.87609  -1.60526 
 C                     5.0081   -0.62918  -2.75751 
 C                     5.59827   0.76197  -3.30089 
 C                     6.25567   1.26636  -2.01788 
 C                     6.67931   0.58657  -4.35442 
 C                     3.53685  -0.46496  -2.23743 
 C                     2.46007  -0.52984  -3.32283 
 H                     1.17943  -1.1511   -2.99654 
 N                     7.66702   2.66644   0.31919 
 C                     7.07389   3.2806   -0.72593 
 C                     7.20181   4.72363  -0.47005 
 C                     8.06323   4.91291   0.72864 
 C                     8.50245   3.55065   0.95538 
 C                     6.47625   5.76063  -1.27728 
 C                     8.44075   6.12208   1.52964 
 O                     9.39195   6.09096   2.38817 
 C                     7.72659   7.36751   1.21282 
 N                     9.68002   0.80758   1.62291 
 C                     10.18215   1.98619   2.03116 
 C                     11.33959   1.78661   2.98031 
 C                     11.35592   0.22289   3.31513 
 C                     10.2102  -0.24565   2.39144 
 C                     12.71142   2.20858   2.45455 
 C                     11.30595  -0.17615   4.81544 
 C                     9.96342   0.19418   5.40355 
 N                     8.00846  -1.43612   0.78082 
 C                     8.98413  -2.17256   1.48779 
 C                     8.7265   -3.60292   1.22297 
 C                     7.62421  -3.59851   0.35497 
 C                     7.23574  -2.25928   0.08099 
 C                     9.49551  -4.69266   1.72016 
 C                     6.70755  -4.42196  -0.40025 
 O                     6.4966   -5.63087  -0.48844 
 C                     5.89496  -3.4891   -1.39817 
 C                     4.43832  -3.84725  -1.28668 
 O                     3.81639  -3.64309  -0.22927 
 O                     3.9686   -4.16707  -2.50629 
 C                     2.52479  -4.51917  -2.44916 
 H                     6.34404   3.31099  -2.71203 
 H                     10.15957   3.93415   2.19357 
 H                     10.53224  -2.3082    2.76704 
 H                     5.02599  -1.37343  -3.54463 
 H                     4.80261   1.43419  -3.61137 
 H                     6.95637  -0.44974  -4.47873 
 H                     7.52518   1.16531  -4.00713 
 H                     6.36597   1.04615  -5.29619 
 H                     3.39256   0.56651  -1.89105 
 H                     3.32119  -1.18383  -1.47105 
 H                     2.85049  -0.92745  -4.26751 
 H                     2.15249   0.48965  -3.56787 
 H                     6.05099   5.33232  -2.1933 
 H                     7.2287    6.47224  -1.63406 
 H                     5.72762   6.30077  -0.69379 
 H                     7.8819    7.61652   0.16576 
 H                     8.06991   8.09668   1.94924 
 H                     6.65175   7.19639   1.33954 
 H                     11.18701   2.34095   3.8982 
 H                     12.27275  -0.26251   2.94958 
 H                     13.21437   2.95548   3.0974 
 H                     12.5889   2.59213   1.45035 
 H                     13.41943   1.39498   2.30633 
 H                     12.05685   0.38124   5.38078 
 H                     11.49042  -1.2312    4.98814 
 H                     10.0861   1.25278   5.65133 
 H                     9.75829  -0.39817   6.29297 
 H                     9.1703    0.1217    4.65032 
 H                     8.79193  -5.44743   2.04542 
 H                     10.14865  -4.38049   2.5324 
 H                     10.05745  -4.96086   0.82152 
 H                     6.28423  -3.66532  -2.40166 
 H                     2.42174  -5.51704  -2.88656 
 H                     1.9949   -3.69028  -2.95503 
 H                     2.08418  -4.67061  -1.4707 
 
 ITRead=  0  0  0  0  0  0  0  0  0  0  0  0  0  0  0  0  0  0  0  0
 ITRead=  0  0  0  0  0  0  0  0  0  0  0  0  0  0  0  0  0  0  0  0
 ITRead=  0  0  0  0  0  0  0  0  0  0  0  0  0  0  0  0  0  0  0  0
 ITRead=  0  0  0  0  0  0  0  0  0  0  0  0  0  0  0  0  0  0  0  0
 ITRead=  0  0  0  0  0  0  0  0  0  0  0  0  0  0  0  0  0  0  0  0
 ITRead=  0  0  0  0  0  0  0  0  0  0  0  0  0  0  0  0  0  0  0  0
 ITRead=  0  0  0  0  0  0  0  0  0  0  0  0  0  0  0  0  0  0  0  0
 ITRead=  0  0  0  0  0  0  0  0  0  0  0  0  0  0  0  0  0  0
 MicOpt= -1 -1 -1 -1 -1 -1 -1 -1 -1 -1 -1 -1 -1 -1 -1 -1 -1 -1 -1 -1
 MicOpt= -1 -1 -1 -1 -1 -1 -1 -1 -1 -1 -1 -1 -1 -1 -1 -1 -1 -1 -1 -1
 MicOpt= -1 -1 -1 -1 -1 -1 -1 -1 -1 -1 -1 -1 -1 -1 -1 -1 -1 -1 -1 -1
 MicOpt= -1 -1 -1 -1 -1 -1 -1 -1 -1 -1 -1 -1 -1 -1 -1 -1 -1 -1 -1 -1
 MicOpt= -1 -1 -1 -1 -1 -1 -1 -1 -1 -1 -1 -1 -1 -1 -1 -1 -1 -1 -1 -1
 MicOpt= -1 -1 -1 -1 -1 -1 -1 -1 -1 -1 -1 -1 -1 -1 -1 -1 -1 -1 -1 -1
 MicOpt= -1 -1 -1 -1 -1 -1 -1 -1 -1 -1 -1 -1 -1 -1 -1 -1 -1 -1 -1 -1
 MicOpt= -1 -1 -1 -1 -1 -1 -1 -1 -1 -1 -1 -1 -1 -1 -1 -1 -1 -1
 NAtoms=    158 NQM=      158 NQMF=       0 NMMI=      0 NMMIF=      0
                NMic=       0 NMicF=      0.
                    Isotopes and Nuclear Properties:
 (Nuclear quadrupole moments (NQMom) in fm**2, nuclear magnetic moments (NMagM)
  in nuclear magnetons)

  Atom         1           2           3           4           5           6           7           8           9          10
 IAtWgt=          24          12          12          12          12          14          12          12          12          12
 AtmWgt=  23.9850450  12.0000000  12.0000000  12.0000000  12.0000000  14.0030740  12.0000000  12.0000000  12.0000000  12.0000000
 NucSpn=           0           0           0           0           0           2           0           0           0           0
 AtZEff=  -0.0000000  -0.0000000  -0.0000000  -0.0000000  -0.0000000  -0.0000000  -0.0000000  -0.0000000  -0.0000000  -0.0000000
 NQMom=    0.0000000   0.0000000   0.0000000   0.0000000   0.0000000   2.0440000   0.0000000   0.0000000   0.0000000   0.0000000
 NMagM=    0.0000000   0.0000000   0.0000000   0.0000000   0.0000000   0.4037610   0.0000000   0.0000000   0.0000000   0.0000000
 AtZNuc=  12.0000000   6.0000000   6.0000000   6.0000000   6.0000000   7.0000000   6.0000000   6.0000000   6.0000000   6.0000000

  Atom        11          12          13          14          15          16          17          18          19          20
 IAtWgt=          12          12          12           1          14          12          12          12          12          12
 AtmWgt=  12.0000000  12.0000000  12.0000000   1.0078250  14.0030740  12.0000000  12.0000000  12.0000000  12.0000000  12.0000000
 NucSpn=           0           0           0           1           2           0           0           0           0           0
 AtZEff=  -0.0000000  -0.0000000  -0.0000000  -0.0000000  -0.0000000  -0.0000000  -0.0000000  -0.0000000  -0.0000000  -0.0000000
 NQMom=    0.0000000   0.0000000   0.0000000   0.0000000   2.0440000   0.0000000   0.0000000   0.0000000   0.0000000   0.0000000
 NMagM=    0.0000000   0.0000000   0.0000000   2.7928460   0.4037610   0.0000000   0.0000000   0.0000000   0.0000000   0.0000000
 AtZNuc=   6.0000000   6.0000000   6.0000000   1.0000000   7.0000000   6.0000000   6.0000000   6.0000000   6.0000000   6.0000000

  Atom        21          22          23          24          25          26          27          28          29          30
 IAtWgt=          12          16          12          14          12          12          12          12          12          12
 AtmWgt=  12.0000000  15.9949146  12.0000000  14.0030740  12.0000000  12.0000000  12.0000000  12.0000000  12.0000000  12.0000000
 NucSpn=           0           0           0           2           0           0           0           0           0           0
 AtZEff=  -0.0000000  -0.0000000  -0.0000000  -0.0000000  -0.0000000  -0.0000000  -0.0000000  -0.0000000  -0.0000000  -0.0000000
 NQMom=    0.0000000   0.0000000   0.0000000   2.0440000   0.0000000   0.0000000   0.0000000   0.0000000   0.0000000   0.0000000
 NMagM=    0.0000000   0.0000000   0.0000000   0.4037610   0.0000000   0.0000000   0.0000000   0.0000000   0.0000000   0.0000000
 AtZNuc=   6.0000000   8.0000000   6.0000000   7.0000000   6.0000000   6.0000000   6.0000000   6.0000000   6.0000000   6.0000000

  Atom        31          32          33          34          35          36          37          38          39          40
 IAtWgt=          12          14          12          12          12          12          12          12          16          12
 AtmWgt=  12.0000000  14.0030740  12.0000000  12.0000000  12.0000000  12.0000000  12.0000000  12.0000000  15.9949146  12.0000000
 NucSpn=           0           2           0           0           0           0           0           0           0           0
 AtZEff=  -0.0000000  -0.0000000  -0.0000000  -0.0000000  -0.0000000  -0.0000000  -0.0000000  -0.0000000  -0.0000000  -0.0000000
 NQMom=    0.0000000   2.0440000   0.0000000   0.0000000   0.0000000   0.0000000   0.0000000   0.0000000   0.0000000   0.0000000
 NMagM=    0.0000000   0.4037610   0.0000000   0.0000000   0.0000000   0.0000000   0.0000000   0.0000000   0.0000000   0.0000000
 AtZNuc=   6.0000000   7.0000000   6.0000000   6.0000000   6.0000000   6.0000000   6.0000000   6.0000000   8.0000000   6.0000000

  Atom        41          42          43          44          45          46          47          48          49          50
 IAtWgt=          12          16          16          12           1           1           1           1           1           1
 AtmWgt=  12.0000000  15.9949146  15.9949146  12.0000000   1.0078250   1.0078250   1.0078250   1.0078250   1.0078250   1.0078250
 NucSpn=           0           0           0           0           1           1           1           1           1           1
 AtZEff=  -0.0000000  -0.0000000  -0.0000000  -0.0000000  -0.0000000  -0.0000000  -0.0000000  -0.0000000  -0.0000000  -0.0000000
 NQMom=    0.0000000   0.0000000   0.0000000   0.0000000   0.0000000   0.0000000   0.0000000   0.0000000   0.0000000   0.0000000
 NMagM=    0.0000000   0.0000000   0.0000000   0.0000000   2.7928460   2.7928460   2.7928460   2.7928460   2.7928460   2.7928460
 AtZNuc=   6.0000000   8.0000000   8.0000000   6.0000000   1.0000000   1.0000000   1.0000000   1.0000000   1.0000000   1.0000000

  Atom        51          52          53          54          55          56          57          58          59          60
 IAtWgt=           1           1           1           1           1           1           1           1           1           1
 AtmWgt=   1.0078250   1.0078250   1.0078250   1.0078250   1.0078250   1.0078250   1.0078250   1.0078250   1.0078250   1.0078250
 NucSpn=           1           1           1           1           1           1           1           1           1           1
 AtZEff=  -0.0000000  -0.0000000  -0.0000000  -0.0000000  -0.0000000  -0.0000000  -0.0000000  -0.0000000  -0.0000000  -0.0000000
 NQMom=    0.0000000   0.0000000   0.0000000   0.0000000   0.0000000   0.0000000   0.0000000   0.0000000   0.0000000   0.0000000
 NMagM=    2.7928460   2.7928460   2.7928460   2.7928460   2.7928460   2.7928460   2.7928460   2.7928460   2.7928460   2.7928460
 AtZNuc=   1.0000000   1.0000000   1.0000000   1.0000000   1.0000000   1.0000000   1.0000000   1.0000000   1.0000000   1.0000000

  Atom        61          62          63          64          65          66          67          68          69          70
 IAtWgt=           1           1           1           1           1           1           1           1           1           1
 AtmWgt=   1.0078250   1.0078250   1.0078250   1.0078250   1.0078250   1.0078250   1.0078250   1.0078250   1.0078250   1.0078250
 NucSpn=           1           1           1           1           1           1           1           1           1           1
 AtZEff=  -0.0000000  -0.0000000  -0.0000000  -0.0000000  -0.0000000  -0.0000000  -0.0000000  -0.0000000  -0.0000000  -0.0000000
 NQMom=    0.0000000   0.0000000   0.0000000   0.0000000   0.0000000   0.0000000   0.0000000   0.0000000   0.0000000   0.0000000
 NMagM=    2.7928460   2.7928460   2.7928460   2.7928460   2.7928460   2.7928460   2.7928460   2.7928460   2.7928460   2.7928460
 AtZNuc=   1.0000000   1.0000000   1.0000000   1.0000000   1.0000000   1.0000000   1.0000000   1.0000000   1.0000000   1.0000000

  Atom        71          72          73          74          75          76          77          78          79          80
 IAtWgt=           1           1           1           1           1           1           1           1           1          24
 AtmWgt=   1.0078250   1.0078250   1.0078250   1.0078250   1.0078250   1.0078250   1.0078250   1.0078250   1.0078250  23.9850450
 NucSpn=           1           1           1           1           1           1           1           1           1           0
 AtZEff=  -0.0000000  -0.0000000  -0.0000000  -0.0000000  -0.0000000  -0.0000000  -0.0000000  -0.0000000  -0.0000000  -0.0000000
 NQMom=    0.0000000   0.0000000   0.0000000   0.0000000   0.0000000   0.0000000   0.0000000   0.0000000   0.0000000   0.0000000
 NMagM=    2.7928460   2.7928460   2.7928460   2.7928460   2.7928460   2.7928460   2.7928460   2.7928460   2.7928460   0.0000000
 AtZNuc=   1.0000000   1.0000000   1.0000000   1.0000000   1.0000000   1.0000000   1.0000000   1.0000000   1.0000000  12.0000000

  Atom        81          82          83          84          85          86          87          88          89          90
 IAtWgt=          12          12          12          12          14          12          12          12          12          12
 AtmWgt=  12.0000000  12.0000000  12.0000000  12.0000000  14.0030740  12.0000000  12.0000000  12.0000000  12.0000000  12.0000000
 NucSpn=           0           0           0           0           2           0           0           0           0           0
 AtZEff=  -0.0000000  -0.0000000  -0.0000000  -0.0000000  -0.0000000  -0.0000000  -0.0000000  -0.0000000  -0.0000000  -0.0000000
 NQMom=    0.0000000   0.0000000   0.0000000   0.0000000   2.0440000   0.0000000   0.0000000   0.0000000   0.0000000   0.0000000
 NMagM=    0.0000000   0.0000000   0.0000000   0.0000000   0.4037610   0.0000000   0.0000000   0.0000000   0.0000000   0.0000000
 AtZNuc=   6.0000000   6.0000000   6.0000000   6.0000000   7.0000000   6.0000000   6.0000000   6.0000000   6.0000000   6.0000000

  Atom        91          92          93          94          95          96          97          98          99         100
 IAtWgt=          12          12           1          14          12          12          12          12          12          12
 AtmWgt=  12.0000000  12.0000000   1.0078250  14.0030740  12.0000000  12.0000000  12.0000000  12.0000000  12.0000000  12.0000000
 NucSpn=           0           0           1           2           0           0           0           0           0           0
 AtZEff=  -0.0000000  -0.0000000  -0.0000000  -0.0000000  -0.0000000  -0.0000000  -0.0000000  -0.0000000  -0.0000000  -0.0000000
 NQMom=    0.0000000   0.0000000   0.0000000   2.0440000   0.0000000   0.0000000   0.0000000   0.0000000   0.0000000   0.0000000
 NMagM=    0.0000000   0.0000000   2.7928460   0.4037610   0.0000000   0.0000000   0.0000000   0.0000000   0.0000000   0.0000000
 AtZNuc=   6.0000000   6.0000000   1.0000000   7.0000000   6.0000000   6.0000000   6.0000000   6.0000000   6.0000000   6.0000000

  Atom       101         102         103         104         105         106         107         108         109         110
 IAtWgt=          16          12          14          12          12          12          12          12          12          12
 AtmWgt=  15.9949146  12.0000000  14.0030740  12.0000000  12.0000000  12.0000000  12.0000000  12.0000000  12.0000000  12.0000000
 NucSpn=           0           0           2           0           0           0           0           0           0           0
 AtZEff=  -0.0000000  -0.0000000  -0.0000000  -0.0000000  -0.0000000  -0.0000000  -0.0000000  -0.0000000  -0.0000000  -0.0000000
 NQMom=    0.0000000   0.0000000   2.0440000   0.0000000   0.0000000   0.0000000   0.0000000   0.0000000   0.0000000   0.0000000
 NMagM=    0.0000000   0.0000000   0.4037610   0.0000000   0.0000000   0.0000000   0.0000000   0.0000000   0.0000000   0.0000000
 AtZNuc=   8.0000000   6.0000000   7.0000000   6.0000000   6.0000000   6.0000000   6.0000000   6.0000000   6.0000000   6.0000000

  Atom       111         112         113         114         115         116         117         118         119         120
 IAtWgt=          14          12          12          12          12          12          12          16          12          12
 AtmWgt=  14.0030740  12.0000000  12.0000000  12.0000000  12.0000000  12.0000000  12.0000000  15.9949146  12.0000000  12.0000000
 NucSpn=           2           0           0           0           0           0           0           0           0           0
 AtZEff=  -0.0000000  -0.0000000  -0.0000000  -0.0000000  -0.0000000  -0.0000000  -0.0000000  -0.0000000  -0.0000000  -0.0000000
 NQMom=    2.0440000   0.0000000   0.0000000   0.0000000   0.0000000   0.0000000   0.0000000   0.0000000   0.0000000   0.0000000
 NMagM=    0.4037610   0.0000000   0.0000000   0.0000000   0.0000000   0.0000000   0.0000000   0.0000000   0.0000000   0.0000000
 AtZNuc=   7.0000000   6.0000000   6.0000000   6.0000000   6.0000000   6.0000000   6.0000000   8.0000000   6.0000000   6.0000000

  Atom       121         122         123         124         125         126         127         128         129         130
 IAtWgt=          16          16          12           1           1           1           1           1           1           1
 AtmWgt=  15.9949146  15.9949146  12.0000000   1.0078250   1.0078250   1.0078250   1.0078250   1.0078250   1.0078250   1.0078250
 NucSpn=           0           0           0           1           1           1           1           1           1           1
 AtZEff=  -0.0000000  -0.0000000  -0.0000000  -0.0000000  -0.0000000  -0.0000000  -0.0000000  -0.0000000  -0.0000000  -0.0000000
 NQMom=    0.0000000   0.0000000   0.0000000   0.0000000   0.0000000   0.0000000   0.0000000   0.0000000   0.0000000   0.0000000
 NMagM=    0.0000000   0.0000000   0.0000000   2.7928460   2.7928460   2.7928460   2.7928460   2.7928460   2.7928460   2.7928460
 AtZNuc=   8.0000000   8.0000000   6.0000000   1.0000000   1.0000000   1.0000000   1.0000000   1.0000000   1.0000000   1.0000000

  Atom       131         132         133         134         135         136         137         138         139         140
 IAtWgt=           1           1           1           1           1           1           1           1           1           1
 AtmWgt=   1.0078250   1.0078250   1.0078250   1.0078250   1.0078250   1.0078250   1.0078250   1.0078250   1.0078250   1.0078250
 NucSpn=           1           1           1           1           1           1           1           1           1           1
 AtZEff=  -0.0000000  -0.0000000  -0.0000000  -0.0000000  -0.0000000  -0.0000000  -0.0000000  -0.0000000  -0.0000000  -0.0000000
 NQMom=    0.0000000   0.0000000   0.0000000   0.0000000   0.0000000   0.0000000   0.0000000   0.0000000   0.0000000   0.0000000
 NMagM=    2.7928460   2.7928460   2.7928460   2.7928460   2.7928460   2.7928460   2.7928460   2.7928460   2.7928460   2.7928460
 AtZNuc=   1.0000000   1.0000000   1.0000000   1.0000000   1.0000000   1.0000000   1.0000000   1.0000000   1.0000000   1.0000000

  Atom       141         142         143         144         145         146         147         148         149         150
 IAtWgt=           1           1           1           1           1           1           1           1           1           1
 AtmWgt=   1.0078250   1.0078250   1.0078250   1.0078250   1.0078250   1.0078250   1.0078250   1.0078250   1.0078250   1.0078250
 NucSpn=           1           1           1           1           1           1           1           1           1           1
 AtZEff=  -0.0000000  -0.0000000  -0.0000000  -0.0000000  -0.0000000  -0.0000000  -0.0000000  -0.0000000  -0.0000000  -0.0000000
 NQMom=    0.0000000   0.0000000   0.0000000   0.0000000   0.0000000   0.0000000   0.0000000   0.0000000   0.0000000   0.0000000
 NMagM=    2.7928460   2.7928460   2.7928460   2.7928460   2.7928460   2.7928460   2.7928460   2.7928460   2.7928460   2.7928460
 AtZNuc=   1.0000000   1.0000000   1.0000000   1.0000000   1.0000000   1.0000000   1.0000000   1.0000000   1.0000000   1.0000000

  Atom       151         152         153         154         155         156         157         158
 IAtWgt=           1           1           1           1           1           1           1           1
 AtmWgt=   1.0078250   1.0078250   1.0078250   1.0078250   1.0078250   1.0078250   1.0078250   1.0078250
 NucSpn=           1           1           1           1           1           1           1           1
 AtZEff=  -0.0000000  -0.0000000  -0.0000000  -0.0000000  -0.0000000  -0.0000000  -0.0000000  -0.0000000
 NQMom=    0.0000000   0.0000000   0.0000000   0.0000000   0.0000000   0.0000000   0.0000000   0.0000000
 NMagM=    2.7928460   2.7928460   2.7928460   2.7928460   2.7928460   2.7928460   2.7928460   2.7928460
 AtZNuc=   1.0000000   1.0000000   1.0000000   1.0000000   1.0000000   1.0000000   1.0000000   1.0000000
 Leave Link  101 at Wed Sep  8 21:15:17 2021, MaxMem= 23488102400 cpu:               3.1 elap:               0.2
 (Enter /sw/apps/gaussian-16.0/g16/l202.exe)
 Stoichiometry    C68H72Mg2N8O8
 Framework group  C1[X(C68H72Mg2N8O8)]
 Deg. of freedom   468
 Full point group                 C1      NOp   1
 Largest Abelian subgroup         C1      NOp   1
 Largest concise Abelian subgroup C1      NOp   1
                         Standard orientation:                         
 ---------------------------------------------------------------------
 Center     Atomic      Atomic             Coordinates (Angstroms)
 Number     Number       Type             X           Y           Z
 ---------------------------------------------------------------------
      1         12           0       -3.603372    0.858519    0.342934
      2          6           0       -4.029766   -2.293792    1.984072
      3          6           0       -4.084316    2.336606    3.380535
      4          6           0       -3.683377    3.654248   -1.151764
      5          6           0       -4.284022   -0.778451   -2.657516
      6          7           0       -3.996360    0.020799    2.354011
      7          6           0       -4.076786   -1.206231    2.859084
      8          6           0       -4.139954   -1.230726    4.415613
      9          6           0       -4.717175    0.234032    4.667204
     10          6           0       -4.206497    0.915607    3.409990
     11          6           0       -6.241212    0.295347    4.674654
     12          6           0       -2.726470   -1.408881    5.065271
     13          6           0       -2.732184   -1.768565    6.553877
     14          1           0       -1.706945   -2.668095    7.060907
     15          7           0       -3.364950    2.691451    1.040334
     16          6           0       -3.591678    3.111400    2.308215
     17          6           0       -3.268923    4.554410    2.323469
     18          6           0       -3.018414    4.979520    0.918257
     19          6           0       -3.375814    3.782568    0.200658
     20          6           0       -3.175824    5.363490    3.580638
     21          6           0       -2.543832    6.264474    0.316762
     22          8           0       -2.617022    6.495805   -0.938508
     23          6           0       -2.066439    7.293617    1.258039
     24          7           0       -4.149965    1.419047   -1.592183
     25          6           0       -4.035547    2.687242   -2.001542
     26          6           0       -4.211608    2.799530   -3.486915
     27          6           0       -4.229856    1.303276   -4.044272
     28          6           0       -4.137603    0.547892   -2.695512
     29          6           0       -5.474081    3.534853   -3.957521
     30          6           0       -3.208912    0.954599   -5.156259
     31          6           0       -1.804657    1.001991   -4.596869
     32          7           0       -3.901393   -1.196879   -0.287595
     33          6           0       -4.194855   -1.647343   -1.582830
     34          6           0       -4.414592   -3.102679   -1.494623
     35          6           0       -4.248924   -3.397021   -0.142675
     36          6           0       -3.970853   -2.197313    0.572636
     37          6           0       -4.780996   -3.956967   -2.571830
     38          6           0       -4.266451   -4.442272    0.867770
     39          8           0       -4.355163   -5.670694    0.843232
     40          6           0       -4.245748   -3.752318    2.302818
     41          6           0       -3.202320   -4.453473    3.129224
     42          8           0       -1.991607   -4.365627    2.839703
     43          8           0       -3.764708   -4.915634    4.256464
     44          6           0       -2.777115   -5.596696    5.135650
     45          1           0       -4.452720    2.915760    4.229534
     46          1           0       -3.613016    4.581049   -1.724937
     47          1           0       -4.417084   -1.369081   -3.565758
     48          1           0       -4.819369   -1.975080    4.831253
     49          1           0       -4.281524    0.696585    5.552627
     50          1           0       -6.679709   -0.657002    4.376876
     51          1           0       -6.504607    1.075658    3.960350
     52          1           0       -6.610391    0.637472    5.641833
     53          1           0       -2.226974   -0.441126    5.110154
     54          1           0       -2.140739   -2.148272    4.517962
     55          1           0       -3.720415   -2.092097    6.881956
     56          1           0       -2.540893   -0.860311    7.125439
     57          1           0       -3.573664    4.820261    4.436892
     58          1           0       -3.847266    6.213741    3.462535
     59          1           0       -2.161995    5.718650    3.765953
     60          1           0       -2.868449    7.546579    1.951825
     61          1           0       -1.683947    8.108332    0.644207
     62          1           0       -1.260508    6.874124    1.860908
     63          1           0       -3.380729    3.339189   -3.939501
     64          1           0       -5.195093    1.039906   -4.477432
     65          1           0       -5.268520    4.386253   -4.606804
     66          1           0       -6.033747    3.842466   -3.074662
     67          1           0       -6.203995    2.908223   -4.469360
     68          1           0       -3.258791    1.688041   -5.960324
     69          1           0       -3.370104   -0.030120   -5.595118
     70          1           0       -1.553693    2.060320   -4.658423
     71          1           0       -1.130172    0.404445   -5.211051
     72          1           0       -1.786340    0.723523   -3.543016
     73          1           0       -4.167951   -4.852708   -2.472873
     74          1           0       -4.620716   -3.471598   -3.534291
     75          1           0       -5.837292   -4.114455   -2.354357
     76          1           0       -5.245166   -3.868444    2.720910
     77          1           0       -3.156507   -6.600483    5.327240
     78          1           0       -2.622534   -4.941933    5.993435
     79          1           0       -1.809337   -5.824537    4.687505
     80         12           0        4.252611   -0.012262   -0.269707
     81          6           0        1.959659   -1.574915   -2.545565
     82          6           0        3.133397    2.990416   -1.438435
     83          6           0        6.568641    1.384416    1.389433
     84          6           0        5.958978   -3.047469   -0.123042
     85          7           0        2.738684    0.510524   -1.795148
     86          6           0        1.886949   -0.166325   -2.550647
     87          6           0        0.848320    0.714095   -3.296074
     88          6           0        1.674976    2.090606   -3.322868
     89          6           0        2.549638    1.874478   -2.089599
     90          6           0        2.582388    2.224186   -4.534519
     91          6           0       -0.492362    0.864705   -2.494876
     92          6           0       -1.657690    1.450184   -3.295490
     93          1           0       -3.005696    0.959294   -3.022770
     94          7           0        4.456646    1.873535    0.314013
     95          6           0        3.914472    2.966874   -0.262120
     96          6           0        4.382101    4.113708    0.531775
     97          6           0        5.376964    3.622995    1.523833
     98          6           0        5.524695    2.247909    1.090946
     99          6           0        3.827984    5.498841    0.365078
    100          6           0        6.088468    4.285599    2.664417
    101          8           0        7.088572    3.733774    3.245886
    102          6           0        5.639339    5.639779    3.019346
    103          7           0        6.127265   -0.659174    0.354414
    104          6           0        6.914570    0.127963    1.108398
    105          6           0        8.086490   -0.645139    1.664546
    106          6           0        7.789933   -2.179201    1.323518
    107          6           0        6.484415   -2.011020    0.515592
    108          6           0        9.459513   -0.258223    1.115450
    109          6           0        7.799982   -3.179057    2.512151
    110          6           0        6.636352   -2.895777    3.434714
    111          7           0        3.927639   -2.016539   -1.008166
    112          6           0        4.781009   -3.131069   -0.854340
    113          6           0        4.189428   -4.242336   -1.627353
    114          6           0        3.035882   -3.686235   -2.200563
    115          6           0        2.927701   -2.318955   -1.828605
    116          6           0        4.743774   -5.545861   -1.767469
    117          6           0        1.890783   -3.942072   -3.044358
    118          8           0        1.410638   -4.941500   -3.577598
    119          6           0        1.210590   -2.552349   -3.408200
    120          6           0       -0.271132   -2.688720   -3.188189
    121          8           0       -0.726282   -2.870867   -2.045274
    122          8           0       -0.916732   -2.366281   -4.323797
    123          6           0       -2.389980   -2.475612   -4.152296
    124          1           0        3.018825    3.974815   -1.893092
    125          1           0        7.338456    1.786652    2.052063
    126          1           0        6.378419   -4.053021   -0.048230
    127          1           0        0.624501    0.395053   -4.306967
    128          1           0        1.020865    2.946987   -3.181083
    129          1           0        2.610388    1.316523   -5.118915
    130          1           0        3.564917    2.452226   -4.142498
    131          1           0        2.287714    3.091404   -5.132371
    132          1           0       -0.370885    1.650327   -1.738060
    133          1           0       -0.785413   -0.072404   -2.062941
    134          1           0       -1.458884    1.448263   -4.374107
    135          1           0       -1.755113    2.508799   -3.042798
    136          1           0        3.231252    5.585775   -0.551297
    137          1           0        4.680378    6.166322    0.198482
    138          1           0        3.277721    5.840990    1.244170
    139          1           0        5.742695    6.292475    2.155767
    140          1           0        6.205404    5.910639    3.912698
    141          1           0        4.570895    5.602308    3.259440
    142          1           0        8.150466   -0.530154    2.739618
    143          1           0        8.536802   -2.594386    0.630968
    144          1           0       10.175257    0.043986    1.903138
    145          1           0        9.327136    0.538777    0.395862
    146          1           0        9.952537   -1.026052    0.521684
    147          1           0        8.706945   -3.050040    3.107899
    148          1           0        7.763017   -4.218234    2.202750
    149          1           0        7.013259   -2.085201    4.065577
    150          1           0        6.393467   -3.776095    4.026384
    151          1           0        5.777080   -2.506572    2.876308
    152          1           0        3.926199   -6.245542   -1.655603
    153          1           0        5.525873   -5.726363   -1.032952
    154          1           0        5.142089   -5.480228   -2.783490
    155          1           0        1.451395   -2.332289   -4.448951
    156          1           0       -2.752963   -3.152794   -4.931623
    157          1           0       -2.770695   -1.437109   -4.170018
    158          1           0       -2.755369   -2.966982   -3.258148
 ---------------------------------------------------------------------
 Rotational constants (GHZ):           0.0236936           0.0164494           0.0148673
 Leave Link  202 at Wed Sep  8 21:15:17 2021, MaxMem= 23488102400 cpu:               0.2 elap:               0.0
 (Enter /sw/apps/gaussian-16.0/g16/l301.exe)
 Standard basis: def2SVP (5D, 7F)
 Ernie: Thresh=  0.10000D-02 Tol=  0.10000D-05 Strict=F.
 There are  1658 symmetry adapted cartesian basis functions of A   symmetry.
 There are  1572 symmetry adapted basis functions of A   symmetry.
  1572 basis functions,  2678 primitive gaussians,  1658 cartesian basis functions
   312 alpha electrons      312 beta electrons
       nuclear repulsion energy     16462.1965320148 Hartrees.
 IExCor=20419 DFT=T Ex+Corr=CAM-B3LYP ExCW=0 ScaHFX=  1.000000
 ScaDFX=  1.000000  1.000000  1.000000  0.810000 ScalE2=  1.000000  1.000000
 IRadAn=      5 IRanWt=     -1 IRanGd=            0 ICorTp=0 IEmpDi=  4
 HFx  wShort=  0.000000 wLong=  0.330000 cFull=  0.190000 cShort=  0.000000 cLong=  0.460000
 DFx  wShort=  0.000000 wLong=  0.330000 cFull=  0.190000 cShort=  0.000000 cLong=  0.460000
 NAtoms=  158 NActive=  158 NUniq=  158 SFac= 1.00D+00 NAtFMM=   60 NAOKFM=T Big=T
 Integral buffers will be    131072 words long.
 Raffenetti 1 integral format.
 Two-electron integral symmetry is turned on.
 Leave Link  301 at Wed Sep  8 21:15:17 2021, MaxMem= 23488102400 cpu:               1.3 elap:               0.1
 (Enter /sw/apps/gaussian-16.0/g16/l302.exe)
 NPDir=0 NMtPBC=     1 NCelOv=     1 NCel=       1 NClECP=     1 NCelD=      1
         NCelK=      1 NCelE2=     1 NClLst=     1 CellRange=     0.0.
 One-electron integrals computed using PRISM.
 One-electron integral symmetry used in STVInt
   1 Symmetry operations used in ECPInt.
 ECPInt:  NShTT=  271216 NPrTT=  987664 LenC2=  167654 LenP2D=  355279.
 LDataN:  DoStor=T MaxTD1= 4 Len=   56
 NBasis=  1572 RedAO= T EigKep=  2.79D-04  NBF=  1572
 NBsUse=  1572 1.00D-06 EigRej= -1.00D+00 NBFU=  1572
 Precomputing XC quadrature grid using
 IXCGrd= 4 IRadAn=           5 IRanWt=          -1 IRanGd=           0 AccXCQ= 0.00D+00.
 Generated NRdTot=       0 NPtTot=           0 NUsed=           0 NTot=          32
 NSgBfM=  1365  1353  1360  1365  1365 MxSgAt=   158 MxSgA2=   158.
 Leave Link  302 at Wed Sep  8 21:15:23 2021, MaxMem= 23488102400 cpu:             135.9 elap:               5.7
 (Enter /sw/apps/gaussian-16.0/g16/l303.exe)
 DipDrv:  MaxL=1.
 Leave Link  303 at Wed Sep  8 21:15:23 2021, MaxMem= 23488102400 cpu:              11.5 elap:               0.5
 (Enter /sw/apps/gaussian-16.0/g16/l308.exe)
 Leave Link  308 at Wed Sep  8 21:15:24 2021, MaxMem= 23488102400 cpu:              16.4 elap:               0.8
 (Enter /sw/apps/gaussian-16.0/g16/l401.exe)
 ExpMin= 3.36D-02 ExpMax= 4.95D+03 ExpMxC= 7.45D+02 IAcc=3 IRadAn=         5 AccDes= 0.00D+00
 Harris functional with IExCor=20419 and IRadAn=       5 diagonalized for initial guess.
 HarFok:  IExCor=20419 AccDes= 0.00D+00 IRadAn=         5 IDoV= 1 UseB2=F ITyADJ=14
 ICtDFT=  3500011 ScaDFX=  1.000000  1.000000  1.000000  1.000000
 FoFCou: FMM=F IPFlag=           0 FMFlag=      100000 FMFlg1=        2001
         NFxFlg=           0 DoJE=T BraDBF=F KetDBF=T FulRan=T
         wScrn=  0.000000 ICntrl=       500 IOpCl=  0 I1Cent=   200000004 NGrid=           0
         NMat0=    1 NMatS0=      1 NMatT0=    0 NMatD0=    1 NMtDS0=    0 NMtDT0=    0
 Petite list used in FoFCou.
 Harris En= -3917.29667388444    
 JPrj=0 DoOrth=F DoCkMO=F.
 Leave Link  401 at Wed Sep  8 21:15:33 2021, MaxMem= 23488102400 cpu:             218.6 elap:               9.1
 (Enter /sw/apps/gaussian-16.0/g16/l502.exe)
 Integral symmetry usage will be decided dynamically.
 Closed shell SCF:
 Using DIIS extrapolation, IDIIS=  1040.
 NGot= 23488102400 LenX= 23482546722 LenY= 23479796100
 Requested convergence on RMS density matrix=1.00D-08 within 128 cycles.
 Requested convergence on MAX density matrix=1.00D-06.
 Requested convergence on             energy=1.00D-06.
 No special actions if energy rises.
 Fock matrices will be formed incrementally for  20 cycles.

 Cycle   1  Pass 1  IDiag  1:
 FoFJK:  IHMeth= 1 ICntrl=       0 DoSepK=T KAlg= 0 I1Cent=           0 FoldK=F
 IRaf=         1 NMat=       1 IRICut=       1 DoRegI=T DoRafI=F ISym2E= 0 IDoP0=0 IntGTp=1.
 FoFCou: FMM=T IPFlag=           0 FMFlag=      100000 FMFlg1=        2001
         NFxFlg=           0 DoJE=T BraDBF=F KetDBF=F FulRan=T
         wScrn=  0.000000 ICntrl=       500 IOpCl=  0 I1Cent=           0 NGrid=           0
         NMat0=    1 NMatS0=      1 NMatT0=    0 NMatD0=    1 NMtDS0=    0 NMtDT0=    0
 Symmetry not used in FoFCou.
 FMM levels:  10  Number of levels for PrismC:   9
 E= -4067.42737688794    
 DIIS: error= 1.95D-02 at cycle   1 NSaved=   1.
 NSaved= 1 IEnMin= 1 EnMin= -4067.42737688794     IErMin= 1 ErrMin= 1.95D-02
 ErrMax= 1.95D-02  0.00D+00 EMaxC= 1.00D-01 BMatC= 1.76D+00 BMatP= 1.76D+00
 IDIUse=3 WtCom= 8.05D-01 WtEn= 1.95D-01
 Coeff-Com:  0.100D+01
 Coeff-En:   0.100D+01
 Coeff:      0.100D+01
 Gap=    -0.041 Goal=   None    Shift=    0.000
 GapD=   -0.041 DampG=0.250 DampE=0.500 DampFc=0.2500 IDamp=-1.
 Damping current iteration by 2.50D-01
 RMSDP=3.76D-03 MaxDP=2.56D+00              OVMax= 9.85D-01

 Cycle   2  Pass 1  IDiag  1:
 RMSU=  9.37D-04    CP:  9.91D-01
 E= -4067.74771296293     Delta-E=       -0.320336074987 Rises=F Damp=T
 DIIS: error= 1.59D-02 at cycle   2 NSaved=   2.
 NSaved= 2 IEnMin= 2 EnMin= -4067.74771296293     IErMin= 2 ErrMin= 1.59D-02
 ErrMax= 1.59D-02  0.00D+00 EMaxC= 1.00D-01 BMatC= 7.77D-01 BMatP= 1.76D+00
 IDIUse=3 WtCom= 8.41D-01 WtEn= 1.59D-01
 Coeff-Com: -0.116D+01 0.216D+01
 Coeff-En:   0.000D+00 0.100D+01
 Coeff:     -0.974D+00 0.197D+01
 Gap=     0.212 Goal=   None    Shift=    0.000
 RMSDP=1.60D-03 MaxDP=6.56D-01 DE=-3.20D-01 OVMax= 7.85D-01

 Cycle   3  Pass 1  IDiag  1:
 RMSU=  1.45D-03    CP:  9.49D-01  3.88D-01
 E= -4067.85996796986     Delta-E=       -0.112255006930 Rises=F Damp=F
 DIIS: error= 1.08D-02 at cycle   3 NSaved=   3.
 NSaved= 3 IEnMin= 3 EnMin= -4067.85996796986     IErMin= 3 ErrMin= 1.08D-02
 ErrMax= 1.08D-02  0.00D+00 EMaxC= 1.00D-01 BMatC= 4.44D-01 BMatP= 7.77D-01
 IDIUse=3 WtCom= 8.92D-01 WtEn= 1.08D-01
 Coeff-Com: -0.884D+00 0.136D+01 0.523D+00
 Coeff-En:   0.000D+00 0.379D+00 0.621D+00
 Coeff:     -0.789D+00 0.126D+01 0.534D+00
 Gap=     0.039 Goal=   None    Shift=    0.000
 RMSDP=3.02D-03 MaxDP=1.95D+00 DE=-1.12D-01 OVMax= 9.96D-01

 Cycle   4  Pass 1  IDiag  1:
 RMSU=  1.21D-03    CP:  9.57D-01  3.00D+00  2.35D-01
 E= -4068.01582073978     Delta-E=       -0.155852769920 Rises=F Damp=F
 DIIS: error= 7.53D-03 at cycle   4 NSaved=   4.
 NSaved= 4 IEnMin= 4 EnMin= -4068.01582073978     IErMin= 4 ErrMin= 7.53D-03
 ErrMax= 7.53D-03  0.00D+00 EMaxC= 1.00D-01 BMatC= 2.36D-01 BMatP= 4.44D-01
 IDIUse=3 WtCom= 9.25D-01 WtEn= 7.53D-02
 Coeff-Com: -0.430D+00 0.621D+00 0.435D+00 0.373D+00
 Coeff-En:   0.000D+00 0.000D+00 0.445D+00 0.555D+00
 Coeff:     -0.397D+00 0.575D+00 0.436D+00 0.387D+00
 Gap=    -0.073 Goal=   None    Shift=    0.000
 RMSDP=2.92D-03 MaxDP=1.95D+00 DE=-1.56D-01 OVMax= 9.81D-01

 Cycle   5  Pass 1  IDiag  1:
 RMSU=  5.31D-04    CP:  9.49D-01  5.57D-01  8.64D-01 -9.73D-02
 E= -4068.30055639784     Delta-E=       -0.284735658068 Rises=F Damp=F
 DIIS: error= 3.73D-03 at cycle   5 NSaved=   5.
 NSaved= 5 IEnMin= 5 EnMin= -4068.30055639784     IErMin= 5 ErrMin= 3.73D-03
 ErrMax= 3.73D-03  0.00D+00 EMaxC= 1.00D-01 BMatC= 7.45D-02 BMatP= 2.36D-01
 IDIUse=3 WtCom= 9.63D-01 WtEn= 3.73D-02
 Coeff-Com: -0.233D+00 0.330D+00 0.229D+00 0.335D+00 0.340D+00
 Coeff-En:   0.000D+00 0.000D+00 0.000D+00 0.313D+00 0.687D+00
 Coeff:     -0.225D+00 0.317D+00 0.220D+00 0.334D+00 0.353D+00
 Gap=     0.018 Goal=   None    Shift=    0.000
 RMSDP=2.55D-04 MaxDP=6.69D-02 DE=-2.85D-01 OVMax= 3.44D-02

 Cycle   6  Pass 1  IDiag  1:
 RMSU=  2.35D-04    CP:  9.51D-01  6.15D-01  8.25D-01 -1.44D-01  9.98D-01
 E= -4068.36210472858     Delta-E=       -0.061548330737 Rises=F Damp=F
 DIIS: error= 2.18D-03 at cycle   6 NSaved=   6.
 NSaved= 6 IEnMin= 6 EnMin= -4068.36210472858     IErMin= 6 ErrMin= 2.18D-03
 ErrMax= 2.18D-03  0.00D+00 EMaxC= 1.00D-01 BMatC= 3.20D-02 BMatP= 7.45D-02
 IDIUse=3 WtCom= 9.78D-01 WtEn= 2.18D-02
 Coeff-Com: -0.114D+00 0.158D+00-0.295D-01 0.171D+00-0.258D+00 0.107D+01
 Coeff-En:   0.000D+00 0.000D+00 0.000D+00 0.227D+00 0.000D+00 0.773D+00
 Coeff:     -0.112D+00 0.155D+00-0.288D-01 0.172D+00-0.252D+00 0.107D+01
 Gap=     0.018 Goal=   None    Shift=    0.000
 RMSDP=3.38D-04 MaxDP=1.46D-01 DE=-6.15D-02 OVMax= 8.45D-02

 Cycle   7  Pass 1  IDiag  1:
 RMSU=  1.65D-04    CP:  9.54D-01  7.43D-01  7.44D-01 -2.47D-01  1.14D+00
                    CP:  1.82D+00
 E= -4068.40570794866     Delta-E=       -0.043603220074 Rises=F Damp=F
 DIIS: error= 1.22D-03 at cycle   7 NSaved=   7.
 NSaved= 7 IEnMin= 7 EnMin= -4068.40570794866     IErMin= 7 ErrMin= 1.22D-03
 ErrMax= 1.22D-03  0.00D+00 EMaxC= 1.00D-01 BMatC= 8.98D-03 BMatP= 3.20D-02
 IDIUse=3 WtCom= 9.88D-01 WtEn= 1.22D-02
 Coeff-Com: -0.562D-01 0.776D-01-0.433D-01 0.513D-01-0.409D+00 0.501D+00
 Coeff-Com:  0.879D+00
 Coeff-En:   0.000D+00 0.000D+00 0.000D+00 0.864D-01 0.000D+00 0.000D+00
 Coeff-En:   0.914D+00
 Coeff:     -0.555D-01 0.767D-01-0.427D-01 0.517D-01-0.404D+00 0.495D+00
 Coeff:      0.879D+00
 Gap=     0.020 Goal=   None    Shift=    0.000
 RMSDP=3.00D-04 MaxDP=1.58D-01 DE=-4.36D-02 OVMax= 8.06D-02

 Cycle   8  Pass 1  IDiag  1:
 RMSU=  1.18D-04    CP:  9.57D-01  8.63D-01  6.80D-01 -3.23D-01  1.16D+00
                    CP:  2.49D+00  1.87D+00
 E= -4068.42080533133     Delta-E=       -0.015097382671 Rises=F Damp=F
 DIIS: error= 4.91D-04 at cycle   8 NSaved=   8.
 NSaved= 8 IEnMin= 8 EnMin= -4068.42080533133     IErMin= 8 ErrMin= 4.91D-04
 ErrMax= 4.91D-04  0.00D+00 EMaxC= 1.00D-01 BMatC= 9.36D-04 BMatP= 8.98D-03
 IDIUse=3 WtCom= 9.95D-01 WtEn= 4.91D-03
 Coeff-Com: -0.179D-01 0.250D-01 0.822D-02 0.131D-01-0.158D+00-0.353D-01
 Coeff-Com:  0.407D+00 0.758D+00
 Coeff-En:   0.000D+00 0.000D+00 0.000D+00 0.000D+00 0.000D+00 0.000D+00
 Coeff-En:   0.000D+00 0.100D+01
 Coeff:     -0.179D-01 0.249D-01 0.818D-02 0.130D-01-0.157D+00-0.351D-01
 Coeff:      0.405D+00 0.759D+00
 Gap=     0.023 Goal=   None    Shift=    0.000
 RMSDP=2.62D-04 MaxDP=1.18D-01 DE=-1.51D-02 OVMax= 1.01D-01

 Cycle   9  Pass 1  IDiag  1:
 RMSU=  1.07D-04    CP:  9.58D-01  9.85D-01  6.40D-01 -3.46D-01  1.12D+00
                    CP:  2.65D+00  2.78D+00  2.04D+00
 E= -4068.42418274285     Delta-E=       -0.003377411525 Rises=F Damp=F
 DIIS: error= 2.66D-04 at cycle   9 NSaved=   9.
 NSaved= 9 IEnMin= 9 EnMin= -4068.42418274285     IErMin= 9 ErrMin= 2.66D-04
 ErrMax= 2.66D-04  0.00D+00 EMaxC= 1.00D-01 BMatC= 2.74D-04 BMatP= 9.36D-04
 IDIUse=3 WtCom= 9.97D-01 WtEn= 2.66D-03
 Coeff-Com: -0.979D-03 0.156D-02 0.154D-01 0.199D-02-0.158D-01-0.545D-01
 Coeff-Com:  0.192D-01 0.420D+00 0.613D+00
 Coeff-En:   0.000D+00 0.000D+00 0.000D+00 0.000D+00 0.000D+00 0.000D+00
 Coeff-En:   0.000D+00 0.000D+00 0.100D+01
 Coeff:     -0.976D-03 0.155D-02 0.154D-01 0.198D-02-0.157D-01-0.544D-01
 Coeff:      0.191D-01 0.418D+00 0.614D+00
 Gap=     0.026 Goal=   None    Shift=    0.000
 RMSDP=2.58D-04 MaxDP=1.32D-01 DE=-3.38D-03 OVMax= 1.04D-01

 Cycle  10  Pass 1  IDiag  1:
 RMSU=  8.45D-05    CP:  9.58D-01  1.12D+00  6.12D-01 -3.21D-01  1.04D+00
                    CP:  2.57D+00  3.00D+00  3.00D+00  2.15D+00
 E= -4068.42609311370     Delta-E=       -0.001910370844 Rises=F Damp=F
 DIIS: error= 2.80D-04 at cycle  10 NSaved=  10.
 NSaved=10 IEnMin=10 EnMin= -4068.42609311370     IErMin= 9 ErrMin= 2.66D-04
 ErrMax= 2.80D-04  0.00D+00 EMaxC= 1.00D-01 BMatC= 6.14D-04 BMatP= 2.74D-04
 IDIUse=3 WtCom= 9.97D-01 WtEn= 2.66D-03
 Coeff-Com:  0.417D-02-0.586D-02 0.554D-02-0.264D-02 0.367D-02 0.405D-01
 Coeff-Com: -0.269D-01 0.160D+00 0.290D+00 0.532D+00
 Coeff-En:   0.000D+00 0.000D+00 0.000D+00 0.000D+00 0.000D+00 0.000D+00
 Coeff-En:   0.000D+00 0.000D+00 0.000D+00 0.100D+01
 Coeff:      0.416D-02-0.585D-02 0.553D-02-0.263D-02 0.366D-02 0.404D-01
 Coeff:     -0.268D-01 0.159D+00 0.289D+00 0.533D+00
 Gap=     0.028 Goal=   None    Shift=    0.000
 RMSDP=2.08D-04 MaxDP=1.18D-01 DE=-1.91D-03 OVMax= 8.00D-02

 Cycle  11  Pass 1  IDiag  1:
 RMSU=  7.23D-05    CP:  9.57D-01  1.24D+00  5.96D-01 -2.67D-01  9.64D-01
                    CP:  2.38D+00  3.00D+00  3.00D+00  3.00D+00  1.96D+00
 E= -4068.42728074759     Delta-E=       -0.001187633890 Rises=F Damp=F
 DIIS: error= 3.65D-04 at cycle  11 NSaved=  11.
 NSaved=11 IEnMin=11 EnMin= -4068.42728074759     IErMin= 9 ErrMin= 2.66D-04
 ErrMax= 3.65D-04  0.00D+00 EMaxC= 1.00D-01 BMatC= 1.10D-03 BMatP= 2.74D-04
 IDIUse=3 WtCom= 9.97D-01 WtEn= 2.66D-03
 Coeff-Com:  0.402D-02-0.569D-02 0.358D-02-0.444D-02-0.463D-02 0.465D-01
 Coeff-Com:  0.124D-01 0.181D+00 0.217D+00 0.257D+00 0.293D+00
 Coeff-En:   0.000D+00 0.000D+00 0.000D+00 0.000D+00 0.000D+00 0.000D+00
 Coeff-En:   0.000D+00 0.000D+00 0.000D+00 0.000D+00 0.100D+01
 Coeff:      0.401D-02-0.568D-02 0.357D-02-0.443D-02-0.462D-02 0.463D-01
 Coeff:      0.124D-01 0.180D+00 0.217D+00 0.257D+00 0.295D+00
 Gap=     0.029 Goal=   None    Shift=    0.000
 RMSDP=4.97D-05 MaxDP=2.53D-02 DE=-1.19D-03 OVMax= 1.74D-02

 Cycle  12  Pass 1  IDiag  1:
 RMSU=  2.36D-05    CP:  9.57D-01  1.26D+00  5.95D-01 -2.47D-01  9.48D-01
                    CP:  2.30D+00  3.00D+00  3.00D+00  3.00D+00  2.12D+00
                    CP:  1.25D+00
 E= -4068.42770015460     Delta-E=       -0.000419407017 Rises=F Damp=F
 DIIS: error= 3.62D-04 at cycle  12 NSaved=  12.
 NSaved=12 IEnMin=12 EnMin= -4068.42770015460     IErMin= 9 ErrMin= 2.66D-04
 ErrMax= 3.62D-04  0.00D+00 EMaxC= 1.00D-01 BMatC= 1.11D-03 BMatP= 2.74D-04
 IDIUse=3 WtCom= 9.97D-01 WtEn= 2.66D-03
 Coeff-Com:  0.396D-02-0.556D-02 0.406D-02-0.516D-02-0.468D-02 0.393D-01
 Coeff-Com:  0.154D-01 0.197D+00 0.238D+00 0.173D+00-0.644D-01 0.408D+00
 Coeff-En:   0.000D+00 0.000D+00 0.000D+00 0.000D+00 0.000D+00 0.000D+00
 Coeff-En:   0.000D+00 0.000D+00 0.000D+00 0.000D+00 0.000D+00 0.100D+01
 Coeff:      0.395D-02-0.554D-02 0.405D-02-0.515D-02-0.467D-02 0.392D-01
 Coeff:      0.154D-01 0.197D+00 0.238D+00 0.173D+00-0.643D-01 0.410D+00
 Gap=     0.029 Goal=   None    Shift=    0.000
 RMSDP=1.89D-05 MaxDP=9.09D-03 DE=-4.19D-04 OVMax= 6.34D-03

 Cycle  13  Pass 1  IDiag  1:
 RMSU=  1.76D-06    CP:  9.57D-01  1.27D+00  5.95D-01 -2.40D-01  9.42D-01
                    CP:  2.27D+00  3.00D+00  3.00D+00  3.00D+00  2.18D+00
                    CP:  1.34D+00  1.40D+00
 E= -4068.42787349948     Delta-E=       -0.000173344877 Rises=F Damp=F
 DIIS: error= 3.62D-04 at cycle  13 NSaved=  13.
 NSaved=13 IEnMin=13 EnMin= -4068.42787349948     IErMin= 9 ErrMin= 2.66D-04
 ErrMax= 3.62D-04  0.00D+00 EMaxC= 1.00D-01 BMatC= 1.10D-03 BMatP= 2.74D-04
 IDIUse=3 WtCom= 9.97D-01 WtEn= 2.66D-03
 Coeff-Com:  0.525D-02-0.723D-02 0.715D-02-0.595D-02 0.870D-02 0.141D-01
 Coeff-Com: -0.355D-01 0.202D+00 0.375D+00 0.277D+00-0.160D+01-0.296D+01
 Coeff-Com:  0.473D+01
 Coeff-En:   0.000D+00 0.000D+00 0.000D+00 0.000D+00 0.000D+00 0.000D+00
 Coeff-En:   0.000D+00 0.000D+00 0.000D+00 0.000D+00 0.000D+00 0.000D+00
 Coeff-En:   0.100D+01
 Coeff:      0.523D-02-0.721D-02 0.713D-02-0.594D-02 0.868D-02 0.140D-01
 Coeff:     -0.354D-01 0.202D+00 0.374D+00 0.277D+00-0.160D+01-0.296D+01
 Coeff:      0.472D+01
 Gap=     0.030 Goal=   None    Shift=    0.000
 RMSDP=1.01D-04 MaxDP=4.81D-02 DE=-1.73D-04 OVMax= 3.37D-02

 Cycle  14  Pass 1  IDiag  1:
 RMSU=  1.38D-05    CP:  9.56D-01  1.32D+00  5.95D-01 -1.97D-01  9.10D-01
                    CP:  2.11D+00  3.00D+00  3.00D+00  3.00D+00  2.46D+00
                    CP:  1.80D+00  3.00D+00  3.00D+00
 E= -4068.42869446399     Delta-E=       -0.000820964509 Rises=F Damp=F
 DIIS: error= 3.83D-04 at cycle  14 NSaved=  14.
 NSaved=14 IEnMin=14 EnMin= -4068.42869446399     IErMin= 9 ErrMin= 2.66D-04
 ErrMax= 3.83D-04  0.00D+00 EMaxC= 1.00D-01 BMatC= 1.09D-03 BMatP= 2.74D-04
 IDIUse=3 WtCom= 9.97D-01 WtEn= 2.66D-03
 Coeff-Com:  0.806D-02-0.112D-01 0.980D-02-0.535D-02 0.336D-01 0.290D-02
 Coeff-Com: -0.133D+00 0.117D+00 0.473D+00 0.935D+00-0.173D+01-0.845D+01
 Coeff-Com:  0.799D+01 0.176D+01
 Coeff-En:   0.000D+00 0.000D+00 0.000D+00 0.000D+00 0.000D+00 0.000D+00
 Coeff-En:   0.000D+00 0.000D+00 0.000D+00 0.000D+00 0.000D+00 0.000D+00
 Coeff-En:   0.000D+00 0.100D+01
 Coeff:      0.804D-02-0.111D-01 0.977D-02-0.533D-02 0.335D-01 0.289D-02
 Coeff:     -0.132D+00 0.117D+00 0.472D+00 0.932D+00-0.172D+01-0.843D+01
 Coeff:      0.797D+01 0.176D+01
 Gap=     0.032 Goal=   None    Shift=    0.000
 RMSDP=1.46D-04 MaxDP=6.38D-02 DE=-8.21D-04 OVMax= 4.70D-02

 Cycle  15  Pass 1  IDiag  1:
 RMSU=  4.57D-05    CP:  9.56D-01  1.38D+00  5.94D-01 -1.29D-01  8.65D-01
                    CP:  1.89D+00  3.00D+00  3.00D+00  3.00D+00  2.81D+00
                    CP:  2.38D+00  3.00D+00  3.00D+00  3.00D+00
 E= -4068.42980327540     Delta-E=       -0.001108811412 Rises=F Damp=F
 DIIS: error= 4.03D-04 at cycle  15 NSaved=  15.
 NSaved=15 IEnMin=15 EnMin= -4068.42980327540     IErMin= 9 ErrMin= 2.66D-04
 ErrMax= 4.03D-04  0.00D+00 EMaxC= 1.00D-01 BMatC= 1.01D-03 BMatP= 2.74D-04
 IDIUse=3 WtCom= 9.97D-01 WtEn= 2.66D-03
 Coeff-Com:  0.642D-02-0.895D-02 0.537D-02-0.446D-02 0.329D-01 0.361D-01
 Coeff-Com: -0.112D+00-0.162D-01 0.247D+00 0.147D+01 0.230D+01-0.417D+01
 Coeff-Com: -0.166D+01 0.912D+00 0.196D+01
 Coeff-En:   0.000D+00 0.000D+00 0.000D+00 0.000D+00 0.000D+00 0.000D+00
 Coeff-En:   0.000D+00 0.000D+00 0.000D+00 0.000D+00 0.000D+00 0.000D+00
 Coeff-En:   0.000D+00 0.000D+00 0.100D+01
 Coeff:      0.640D-02-0.892D-02 0.535D-02-0.445D-02 0.328D-01 0.360D-01
 Coeff:     -0.112D+00-0.161D-01 0.247D+00 0.147D+01 0.229D+01-0.416D+01
 Coeff:     -0.165D+01 0.909D+00 0.195D+01
 Gap=     0.032 Goal=   None    Shift=    0.000
 RMSDP=5.94D-05 MaxDP=1.24D-02 DE=-1.11D-03 OVMax= 2.79D-02

 Cycle  16  Pass 1  IDiag  1:
 RMSU=  4.50D-05    CP:  9.55D-01  1.39D+00  5.96D-01 -1.11D-01  8.56D-01
                    CP:  1.83D+00  3.00D+00  3.00D+00  3.00D+00  2.91D+00
                    CP:  2.48D+00  3.00D+00  3.00D+00  3.00D+00  1.53D+00
 E= -4068.43035461116     Delta-E=       -0.000551335761 Rises=F Damp=F
 DIIS: error= 3.78D-04 at cycle  16 NSaved=  16.
 NSaved=16 IEnMin=16 EnMin= -4068.43035461116     IErMin= 9 ErrMin= 2.66D-04
 ErrMax= 3.78D-04  0.00D+00 EMaxC= 1.00D-01 BMatC= 7.98D-04 BMatP= 2.74D-04
 IDIUse=3 WtCom= 9.97D-01 WtEn= 2.66D-03
 Coeff-Com:  0.472D-02-0.667D-02 0.336D-02-0.376D-02 0.242D-01 0.484D-01
 Coeff-Com: -0.747D-01-0.321D-01 0.134D+00 0.139D+01 0.336D+01-0.166D+01
 Coeff-Com: -0.490D+01 0.210D+00 0.214D+01 0.374D+00
 Coeff-En:   0.000D+00 0.000D+00 0.000D+00 0.000D+00 0.000D+00 0.000D+00
 Coeff-En:   0.000D+00 0.000D+00 0.000D+00 0.000D+00 0.000D+00 0.000D+00
 Coeff-En:   0.000D+00 0.000D+00 0.000D+00 0.100D+01
 Coeff:      0.471D-02-0.665D-02 0.336D-02-0.375D-02 0.242D-01 0.483D-01
 Coeff:     -0.745D-01-0.320D-01 0.134D+00 0.139D+01 0.335D+01-0.166D+01
 Coeff:     -0.489D+01 0.210D+00 0.213D+01 0.375D+00
 Gap=     0.032 Goal=   None    Shift=    0.000
 RMSDP=2.61D-05 MaxDP=4.49D-03 DE=-5.51D-04 OVMax= 1.49D-02

 Cycle  17  Pass 1  IDiag  1:
 RMSU=  5.98D-06    CP:  9.55D-01  1.39D+00  5.96D-01 -1.05D-01  8.51D-01
                    CP:  1.81D+00  3.00D+00  3.00D+00  3.00D+00  2.95D+00
                    CP:  2.51D+00  3.00D+00  3.00D+00  3.00D+00  1.72D+00
                    CP:  1.49D+00
 E= -4068.43057476821     Delta-E=       -0.000220157046 Rises=F Damp=F
 DIIS: error= 3.45D-04 at cycle  17 NSaved=  17.
 NSaved=17 IEnMin=17 EnMin= -4068.43057476821     IErMin= 9 ErrMin= 2.66D-04
 ErrMax= 3.45D-04  0.00D+00 EMaxC= 1.00D-01 BMatC= 7.00D-04 BMatP= 2.74D-04
 IDIUse=3 WtCom= 9.97D-01 WtEn= 2.66D-03
 Coeff-Com:  0.178D-02-0.267D-02 0.907D-03-0.251D-02-0.166D-02 0.425D-01
 Coeff-Com:  0.143D-01 0.617D-01 0.548D-01 0.537D+00 0.239D+01 0.149D+01
 Coeff-Com: -0.508D+01-0.729D+00 0.120D+01-0.146D+01 0.247D+01
 Coeff-En:   0.000D+00 0.000D+00 0.000D+00 0.000D+00 0.000D+00 0.000D+00
 Coeff-En:   0.000D+00 0.000D+00 0.000D+00 0.000D+00 0.000D+00 0.000D+00
 Coeff-En:   0.000D+00 0.000D+00 0.000D+00 0.000D+00 0.100D+01
 Coeff:      0.178D-02-0.266D-02 0.905D-03-0.250D-02-0.165D-02 0.424D-01
 Coeff:      0.143D-01 0.616D-01 0.546D-01 0.536D+00 0.239D+01 0.149D+01
 Coeff:     -0.506D+01-0.727D+00 0.120D+01-0.146D+01 0.247D+01
 Gap=     0.031 Goal=   None    Shift=    0.000
 RMSDP=7.84D-05 MaxDP=1.65D-02 DE=-2.20D-04 OVMax= 4.77D-02

 Cycle  18  Pass 1  IDiag  1:
 RMSU=  2.06D-05    CP:  9.55D-01  1.41D+00  5.95D-01 -8.58D-02  8.35D-01
                    CP:  1.76D+00  3.00D+00  3.00D+00  3.00D+00  3.00D+00
                    CP:  2.65D+00  3.00D+00  3.00D+00  3.00D+00  2.24D+00
                    CP:  2.77D+00  3.00D+00
 E= -4068.43093635955     Delta-E=       -0.000361591345 Rises=F Damp=F
 DIIS: error= 3.12D-04 at cycle  18 NSaved=  18.
 NSaved=18 IEnMin=18 EnMin= -4068.43093635955     IErMin= 9 ErrMin= 2.66D-04
 ErrMax= 3.12D-04  0.00D+00 EMaxC= 1.00D-01 BMatC= 5.97D-04 BMatP= 2.74D-04
 IDIUse=3 WtCom= 9.97D-01 WtEn= 2.66D-03
 Coeff-Com:  0.160D-02-0.229D-02 0.548D-03-0.306D-02-0.190D-02 0.132D-01
 Coeff-Com:  0.315D-01 0.123D+00 0.149D+00-0.631D-01 0.279D+00 0.181D+01
 Coeff-Com: -0.197D+01-0.680D+00 0.215D+00-0.257D+01 0.206D+01 0.161D+01
 Coeff-En:   0.000D+00 0.000D+00 0.000D+00 0.000D+00 0.000D+00 0.000D+00
 Coeff-En:   0.000D+00 0.000D+00 0.000D+00 0.000D+00 0.000D+00 0.000D+00
 Coeff-En:   0.000D+00 0.000D+00 0.000D+00 0.000D+00 0.000D+00 0.100D+01
 Coeff:      0.160D-02-0.229D-02 0.546D-03-0.306D-02-0.189D-02 0.132D-01
 Coeff:      0.314D-01 0.122D+00 0.149D+00-0.630D-01 0.278D+00 0.180D+01
 Coeff:     -0.196D+01-0.679D+00 0.215D+00-0.256D+01 0.205D+01 0.161D+01
 Gap=     0.032 Goal=   None    Shift=    0.000
 RMSDP=1.36D-04 MaxDP=2.48D-02 DE=-3.62D-04 OVMax= 9.04D-02

 Cycle  19  Pass 1  IDiag  1:
 RMSU=  9.30D-05    CP:  9.55D-01  1.44D+00  5.93D-01 -5.47D-02  8.06D-01
                    CP:  1.67D+00  3.00D+00  3.00D+00  3.00D+00  3.00D+00
                    CP:  2.71D+00  3.00D+00  3.00D+00  3.00D+00  2.99D+00
                    CP:  3.00D+00  3.00D+00  3.00D+00
 E= -4068.43128625336     Delta-E=       -0.000349893802 Rises=F Damp=F
 DIIS: error= 2.73D-04 at cycle  19 NSaved=  19.
 NSaved=19 IEnMin=19 EnMin= -4068.43128625336     IErMin= 9 ErrMin= 2.66D-04
 ErrMax= 2.73D-04  0.00D+00 EMaxC= 1.00D-01 BMatC= 5.28D-04 BMatP= 2.74D-04
 IDIUse=3 WtCom= 9.97D-01 WtEn= 2.66D-03
 Coeff-Com:  0.166D-02-0.237D-02 0.601D-03-0.307D-02-0.130D-02 0.124D-01
 Coeff-Com:  0.309D-01 0.122D+00 0.154D+00-0.520D-01 0.278D+00 0.180D+01
 Coeff-Com: -0.199D+01-0.662D+00 0.224D+00-0.248D+01 0.195D+01 0.157D+01
 Coeff-Com:  0.461D-01
 Coeff-En:   0.000D+00 0.000D+00 0.000D+00 0.000D+00 0.000D+00 0.000D+00
 Coeff-En:   0.000D+00 0.000D+00 0.000D+00 0.000D+00 0.000D+00 0.000D+00
 Coeff-En:   0.000D+00 0.000D+00 0.000D+00 0.000D+00 0.000D+00 0.000D+00
 Coeff-En:   0.100D+01
 Coeff:      0.166D-02-0.237D-02 0.600D-03-0.306D-02-0.130D-02 0.123D-01
 Coeff:      0.308D-01 0.122D+00 0.154D+00-0.518D-01 0.278D+00 0.179D+01
 Coeff:     -0.198D+01-0.660D+00 0.223D+00-0.247D+01 0.194D+01 0.157D+01
 Coeff:      0.487D-01
 Gap=     0.033 Goal=   None    Shift=    0.000
 RMSDP=5.00D-06 MaxDP=1.23D-03 DE=-3.50D-04 OVMax= 3.43D-03

 Cycle  20  Pass 1  IDiag  1:
 RMSU=  2.63D-06    CP:  9.55D-01  1.44D+00  5.93D-01 -5.57D-02  8.07D-01
                    CP:  1.67D+00  3.00D+00  3.00D+00  3.00D+00  3.00D+00
                    CP:  2.70D+00  3.00D+00  3.00D+00  3.00D+00  2.98D+00
                    CP:  3.00D+00  3.00D+00  3.00D+00  1.04D+00
 E= -4068.43127807734     Delta-E=        0.000008176019 Rises=F Damp=F
 DIIS: error= 2.72D-04 at cycle  20 NSaved=  20.
 NSaved=20 IEnMin=19 EnMin= -4068.43128625336     IErMin= 9 ErrMin= 2.66D-04
 ErrMax= 2.72D-04  0.00D+00 EMaxC= 1.00D-01 BMatC= 5.27D-04 BMatP= 2.74D-04
 IDIUse=3 WtCom= 9.97D-01 WtEn= 2.66D-03
 Rare condition: small coef for last iteration:  0.000D+00
 Coeff-Com:  0.133D-02-0.192D-02 0.152D-03-0.304D-02-0.289D-02 0.158D-01
 Coeff-Com:  0.370D-01 0.121D+00 0.140D+00-0.743D-01 0.387D+00 0.226D+01
 Coeff-Com: -0.242D+01-0.799D+00 0.217D+00-0.251D+01 0.201D+01 0.174D+01
 Coeff-Com:  0.441D+01-0.452D+01
 Coeff-En:   0.000D+00 0.000D+00 0.000D+00 0.000D+00 0.000D+00 0.000D+00
 Coeff-En:   0.000D+00 0.000D+00 0.000D+00 0.000D+00 0.000D+00 0.000D+00
 Coeff-En:   0.000D+00 0.000D+00 0.000D+00 0.000D+00 0.000D+00 0.000D+00
 Coeff-En:   0.000D+00 0.100D+01
 Coeff:      0.133D-02-0.192D-02 0.152D-03-0.304D-02-0.289D-02 0.158D-01
 Coeff:      0.370D-01 0.121D+00 0.140D+00-0.743D-01 0.387D+00 0.226D+01
 Coeff:     -0.242D+01-0.799D+00 0.217D+00-0.251D+01 0.201D+01 0.174D+01
 Coeff:      0.441D+01-0.452D+01
 Gap=     0.032 Goal=   None    Shift=    0.000
 RMSDP=4.23D-05 MaxDP=3.70D-03 DE= 8.18D-06 OVMax= 3.17D-02

 Cycle  21  Pass 1  IDiag  1:
 Restarting incremental Fock formation.
 E= -4068.43122872178     Delta-E=        0.000049355556 Rises=F Damp=F
 DIIS: error= 2.88D-04 at cycle  21 NSaved=  20.
 NSaved=20 IEnMin=18 EnMin= -4068.43128625336     IErMin= 8 ErrMin= 2.66D-04
 ErrMax= 2.88D-04  0.00D+00 EMaxC= 1.00D-01 BMatC= 5.54D-04 BMatP= 2.74D-04
 IDIUse=3 WtCom= 9.97D-01 WtEn= 2.66D-03
 Rare condition: small coef for last iteration:  0.000D+00
 Coeff-Com: -0.352D-04 0.312D-03-0.285D-02-0.731D-02 0.229D-01 0.452D-01
 Coeff-Com:  0.118D+00 0.942D-01-0.562D-01 0.884D+00 0.277D+01-0.346D+01
 Coeff-Com: -0.970D+00 0.447D+00-0.232D+01 0.219D+01 0.137D+01-0.121D+01
 Coeff-Com:  0.279D+01-0.169D+01
 Coeff-En:   0.000D+00 0.000D+00 0.000D+00 0.000D+00 0.000D+00 0.000D+00
 Coeff-En:   0.000D+00 0.000D+00 0.000D+00 0.000D+00 0.000D+00 0.000D+00
 Coeff-En:   0.000D+00 0.000D+00 0.000D+00 0.000D+00 0.000D+00 0.000D+00
 Coeff-En:   0.000D+00 0.100D+01
 Coeff:     -0.352D-04 0.312D-03-0.285D-02-0.731D-02 0.229D-01 0.452D-01
 Coeff:      0.118D+00 0.942D-01-0.562D-01 0.884D+00 0.277D+01-0.346D+01
 Coeff:     -0.970D+00 0.447D+00-0.232D+01 0.219D+01 0.137D+01-0.121D+01
 Coeff:      0.279D+01-0.169D+01
 Gap=     0.033 Goal=   None    Shift=    0.000
 RMSDP=8.75D-05 MaxDP=8.64D-03 DE= 4.94D-05 OVMax= 6.57D-02

 Cycle  22  Pass 1  IDiag  1:
 RMSU=  8.75D-05    CP:  1.00D+00
 E= -4068.43119378775     Delta-E=        0.000034934030 Rises=F Damp=F
 DIIS: error= 2.72D-04 at cycle  22 NSaved=  20.
 NSaved=20 IEnMin=17 EnMin= -4068.43128625336     IErMin= 7 ErrMin= 2.66D-04
 ErrMax= 2.72D-04  0.00D+00 EMaxC= 1.00D-01 BMatC= 5.25D-04 BMatP= 2.74D-04
 IDIUse=3 WtCom= 9.97D-01 WtEn= 2.66D-03
 Rare condition: small coef for last iteration:  0.000D+00
 Coeff-Com:  0.711D-03-0.269D-02-0.717D-02 0.196D-01 0.470D-01 0.125D+00
 Coeff-Com:  0.109D+00-0.566D-01 0.813D+00 0.275D+01-0.338D+01-0.921D+00
 Coeff-Com:  0.411D+00-0.230D+01 0.207D+01 0.134D+01-0.335D+01 0.476D+01
 Coeff-Com: -0.863D+00-0.561D+00
 Coeff-En:   0.000D+00 0.000D+00 0.000D+00 0.000D+00 0.000D+00 0.000D+00
 Coeff-En:   0.000D+00 0.000D+00 0.000D+00 0.000D+00 0.000D+00 0.000D+00
 Coeff-En:   0.000D+00 0.000D+00 0.000D+00 0.000D+00 0.000D+00 0.000D+00
 Coeff-En:   0.000D+00 0.100D+01
 Coeff:      0.711D-03-0.269D-02-0.717D-02 0.196D-01 0.470D-01 0.125D+00
 Coeff:      0.109D+00-0.566D-01 0.813D+00 0.275D+01-0.338D+01-0.921D+00
 Coeff:      0.411D+00-0.230D+01 0.207D+01 0.134D+01-0.335D+01 0.476D+01
 Coeff:     -0.863D+00-0.561D+00
 Gap=     0.032 Goal=   None    Shift=    0.000
 RMSDP=3.97D-05 MaxDP=4.23D-03 DE= 3.49D-05 OVMax= 2.97D-02

 Cycle  23  Pass 1  IDiag  1:
 RMSU=  9.17D-06    CP:  1.00D+00  5.59D-01
 E= -4068.43118741139     Delta-E=        0.000006376358 Rises=F Damp=F
 DIIS: error= 2.77D-04 at cycle  23 NSaved=  20.
 NSaved=20 IEnMin=16 EnMin= -4068.43128625336     IErMin= 6 ErrMin= 2.66D-04
 ErrMax= 2.77D-04  0.00D+00 EMaxC= 1.00D-01 BMatC= 5.33D-04 BMatP= 2.74D-04
 IDIUse=3 WtCom= 9.97D-01 WtEn= 2.66D-03
 Large coefficients: NSaved= 20 BigCof=   10.20 CofMax=   10.00 Det=-4.08D-09
 Inversion failed.  Reducing to 19 matrices.
 Large coefficients: NSaved= 19 BigCof=   10.13 CofMax=   10.00 Det=-4.08D-09
 Inversion failed.  Reducing to 18 matrices.
 Rare condition: small coef for last iteration:  0.000D+00
 Coeff-Com:  0.364D-01 0.183D-01 0.760D-01 0.939D-01 0.172D+00 0.130D+01
 Coeff-Com:  0.200D+01-0.367D+01-0.693D+00 0.612D+00-0.219D+01 0.186D+01
 Coeff-Com:  0.126D+01-0.636D+01 0.880D+01-0.144D+01-0.312D+01 0.225D+01
 Coeff-En:   0.000D+00 0.000D+00 0.000D+00 0.000D+00 0.000D+00 0.000D+00
 Coeff-En:   0.000D+00 0.000D+00 0.000D+00 0.000D+00 0.000D+00 0.000D+00
 Coeff-En:   0.000D+00 0.000D+00 0.000D+00 0.000D+00 0.000D+00 0.100D+01
 Coeff:      0.364D-01 0.183D-01 0.760D-01 0.939D-01 0.172D+00 0.130D+01
 Coeff:      0.200D+01-0.367D+01-0.693D+00 0.612D+00-0.219D+01 0.186D+01
 Coeff:      0.126D+01-0.636D+01 0.880D+01-0.144D+01-0.312D+01 0.225D+01
 Gap=     0.032 Goal=   None    Shift=    0.000
 RMSDP=6.30D-05 MaxDP=7.84D-03 DE= 6.38D-06 OVMax= 4.34D-02

 Cycle  24  Pass 1  IDiag  1:
 RMSU=  2.32D-05    CP:  1.00D+00 -1.05D-01  1.69D-01
 E= -4068.43136193264     Delta-E=       -0.000174521250 Rises=F Damp=F
 DIIS: error= 2.60D-04 at cycle  24 NSaved=  19.
 NSaved=19 IEnMin=19 EnMin= -4068.43136193264     IErMin=19 ErrMin= 2.60D-04
 ErrMax= 2.60D-04  0.00D+00 EMaxC= 1.00D-01 BMatC= 5.03D-04 BMatP= 2.74D-04
 IDIUse=3 WtCom= 9.97D-01 WtEn= 2.66D-03
 Coeff-Com:  0.346D-01 0.226D-01 0.784D-01 0.113D+00 0.150D+00 0.111D+01
 Coeff-Com:  0.208D+01-0.343D+01-0.650D+00 0.439D+00-0.216D+01 0.153D+01
 Coeff-Com:  0.139D+01-0.446D+01 0.606D+01-0.672D-01-0.254D+01 0.171D+01
 Coeff-Com: -0.412D+00
 Coeff-En:   0.000D+00 0.000D+00 0.000D+00 0.000D+00 0.000D+00 0.000D+00
 Coeff-En:   0.000D+00 0.000D+00 0.000D+00 0.000D+00 0.000D+00 0.000D+00
 Coeff-En:   0.000D+00 0.000D+00 0.000D+00 0.000D+00 0.000D+00 0.000D+00
 Coeff-En:   0.100D+01
 Coeff:      0.345D-01 0.225D-01 0.782D-01 0.113D+00 0.150D+00 0.110D+01
 Coeff:      0.207D+01-0.342D+01-0.648D+00 0.437D+00-0.216D+01 0.153D+01
 Coeff:      0.139D+01-0.444D+01 0.605D+01-0.670D-01-0.253D+01 0.170D+01
 Coeff:     -0.408D+00
 Gap=     0.032 Goal=   None    Shift=    0.000
 RMSDP=1.91D-05 MaxDP=4.62D-03 DE=-1.75D-04 OVMax= 1.23D-02

 Cycle  25  Pass 1  IDiag  1:
 RMSU=  3.54D-06    CP:  1.00D+00  8.04D-02  1.00D+00  7.62D-01
 E= -4068.43128344746     Delta-E=        0.000078485180 Rises=F Damp=F
 DIIS: error= 2.62D-04 at cycle  25 NSaved=  20.
 NSaved=20 IEnMin=19 EnMin= -4068.43136193264     IErMin=19 ErrMin= 2.60D-04
 ErrMax= 2.62D-04  0.00D+00 EMaxC= 1.00D-01 BMatC= 5.17D-04 BMatP= 2.74D-04
 IDIUse=3 WtCom= 9.97D-01 WtEn= 2.66D-03
 Rare condition: small coef for last iteration:  0.000D+00
 Coeff-Com:  0.145D-01 0.410D-01 0.105D+00 0.933D-01-0.703D-01 0.120D+01
 Coeff-Com:  0.434D+01-0.502D+01-0.141D+01 0.455D+00-0.155D+01 0.162D+01
 Coeff-Com:  0.118D+01-0.139D+01 0.345D+01-0.328D+01-0.920D+00 0.681D+00
 Coeff-Com:  0.682D+01-0.535D+01
 Coeff-En:   0.000D+00 0.000D+00 0.000D+00 0.000D+00 0.000D+00 0.000D+00
 Coeff-En:   0.000D+00 0.000D+00 0.000D+00 0.000D+00 0.000D+00 0.000D+00
 Coeff-En:   0.000D+00 0.000D+00 0.000D+00 0.000D+00 0.000D+00 0.000D+00
 Coeff-En:   0.000D+00 0.100D+01
 Coeff:      0.145D-01 0.410D-01 0.105D+00 0.933D-01-0.703D-01 0.120D+01
 Coeff:      0.434D+01-0.502D+01-0.141D+01 0.455D+00-0.155D+01 0.162D+01
 Coeff:      0.118D+01-0.139D+01 0.345D+01-0.328D+01-0.920D+00 0.681D+00
 Coeff:      0.682D+01-0.535D+01
 Gap=     0.032 Goal=   None    Shift=    0.000
 RMSDP=7.10D-05 MaxDP=5.71D-03 DE= 7.85D-05 OVMax= 5.08D-02

 Cycle  26  Pass 1  IDiag  1:
 RMSU=  1.48D-05    CP:  1.00D+00 -6.37D-01  1.61D+00  1.76D+00 -3.00D+00
 E= -4068.43161219023     Delta-E=       -0.000328742764 Rises=F Damp=F
 DIIS: error= 2.28D-04 at cycle  26 NSaved=  20.
 NSaved=20 IEnMin=20 EnMin= -4068.43161219023     IErMin=20 ErrMin= 2.28D-04
 ErrMax= 2.28D-04  0.00D+00 EMaxC= 1.00D-01 BMatC= 3.85D-04 BMatP= 2.74D-04
 IDIUse=3 WtCom= 9.97D-01 WtEn= 2.66D-03
 Large coefficients: NSaved= 20 BigCof=   11.49 CofMax=   10.00 Det=-3.13D-09
 Inversion failed.  Reducing to 19 matrices.
 Large coefficients: NSaved= 19 BigCof=   10.53 CofMax=   10.00 Det=-3.15D-09
 Inversion failed.  Reducing to 18 matrices.
 Large coefficients: NSaved= 18 BigCof=   14.28 CofMax=   10.00 Det=-3.19D-09
 Inversion failed.  Reducing to 17 matrices.
 Large coefficients: NSaved= 17 BigCof=   14.14 CofMax=   10.00 Det=-3.36D-09
 Inversion failed.  Reducing to 16 matrices.
 Large coefficients: NSaved= 16 BigCof=   15.16 CofMax=   10.00 Det=-3.51D-09
 Inversion failed.  Reducing to 15 matrices.
 Large coefficients: NSaved= 15 BigCof=   16.89 CofMax=   10.00 Det=-3.66D-09
 Inversion failed.  Reducing to 14 matrices.
 Large coefficients: NSaved= 14 BigCof=   15.62 CofMax=   10.00 Det=-3.74D-09
 Inversion failed.  Reducing to 13 matrices.
 Large coefficients: NSaved= 13 BigCof=   13.94 CofMax=   10.00 Det=-4.11D-09
 Inversion failed.  Reducing to 12 matrices.
 Large coefficients: NSaved= 12 BigCof=   18.23 CofMax=   10.00 Det=-4.35D-09
 Inversion failed.  Reducing to 11 matrices.
 Large coefficients: NSaved= 11 BigCof=   15.92 CofMax=   10.00 Det=-4.46D-09
 Inversion failed.  Reducing to 10 matrices.
 Large coefficients: NSaved= 10 BigCof=   17.46 CofMax=   10.00 Det=-4.51D-09
 Inversion failed.  Reducing to  9 matrices.
 Large coefficients: NSaved=  9 BigCof=   17.48 CofMax=   10.00 Det=-4.55D-09
 Inversion failed.  Reducing to  8 matrices.
 Large coefficients: NSaved=  8 BigCof=   16.55 CofMax=   10.00 Det=-7.75D-09
 Inversion failed.  Reducing to  7 matrices.
 Large coefficients: NSaved=  7 BigCof=   17.19 CofMax=   10.00 Det=-1.03D-08
 Inversion failed.  Reducing to  6 matrices.
 Large coefficients: NSaved=  6 BigCof=   17.68 CofMax=   10.00 Det=-1.22D-08
 Inversion failed.  Reducing to  5 matrices.
 Large coefficients: NSaved=  5 BigCof=   45.90 CofMax=   10.00 Det=-3.02D-08
 Inversion failed.  Reducing to  4 matrices.
 Large coefficients: NSaved=  4 BigCof=   18.45 CofMax=   10.00 Det=-2.32D-07
 Inversion failed.  Reducing to  3 matrices.
 Coeff-Com:  0.628D+01-0.850D+01 0.322D+01
 Coeff-En:   0.000D+00 0.000D+00 0.100D+01
 Coeff:      0.626D+01-0.848D+01 0.321D+01
 Gap=     0.034 Goal=   None    Shift=    0.000
 RMSDP=3.05D-04 MaxDP=7.96D-02 DE=-3.29D-04 OVMax= 2.07D-01

 Cycle  27  Pass 1  IDiag  1:
 RMSU=  1.54D-04    CP:  9.97D-01 -3.00D+00 -2.57D+00  3.00D+00 -3.00D+00
                    CP:  3.00D+00
 E= -4068.43117074352     Delta-E=        0.000441446708 Rises=F Damp=F
 DIIS: error= 4.59D-04 at cycle  27 NSaved=   4.
 NSaved= 4 IEnMin= 3 EnMin= -4068.43161219023     IErMin= 3 ErrMin= 2.28D-04
 ErrMax= 4.59D-04  0.00D+00 EMaxC= 1.00D-01 BMatC= 1.14D-03 BMatP= 3.85D-04
 IDIUse=3 WtCom= 9.97D-01 WtEn= 2.66D-03
 Rare condition: small coef for last iteration:  0.000D+00
 Coeff-Com:  0.755D+01-0.947D+01 0.261D+01 0.313D+00
 Coeff-En:   0.000D+00 0.000D+00 0.000D+00 0.100D+01
 Coeff:      0.755D+01-0.947D+01 0.261D+01 0.313D+00
 Gap=     0.043 Goal=   None    Shift=    0.000
 RMSDP=1.10D-04 MaxDP=4.56D-02 DE= 4.41D-04 OVMax= 5.16D-02

 Cycle  28  Pass 1  IDiag  1:
 RMSU=  1.07D-04    CP:  9.98D-01 -3.00D+00 -3.00D+00  3.00D+00 -3.00D+00
                    CP:  3.00D+00  9.11D-01
 E= -4068.43215641282     Delta-E=       -0.000985669300 Rises=F Damp=F
 DIIS: error= 2.08D-04 at cycle  28 NSaved=   5.
 NSaved= 5 IEnMin= 5 EnMin= -4068.43215641282     IErMin= 5 ErrMin= 2.08D-04
 ErrMax= 2.08D-04  0.00D+00 EMaxC= 1.00D-01 BMatC= 3.23D-04 BMatP= 3.85D-04
 IDIUse=3 WtCom= 9.98D-01 WtEn= 2.08D-03
 Large coefficients: NSaved=  5 BigCof=   10.59 CofMax=   10.00 Det=-4.47D-07
 Inversion failed.  Reducing to  4 matrices.
 Coeff-Com: -0.212D+01 0.287D+01 0.349D+00-0.104D+00
 Coeff-En:   0.000D+00 0.000D+00 0.000D+00 0.100D+01
 Coeff:     -0.211D+01 0.287D+01 0.348D+00-0.102D+00
 Gap=     0.039 Goal=   None    Shift=    0.000
 RMSDP=1.62D-04 MaxDP=3.53D-02 DE=-9.86D-04 OVMax= 1.10D-01

 Cycle  29  Pass 1  IDiag  1:
 RMSU=  4.27D-05    CP:  9.99D-01 -2.58D+00 -3.00D+00  3.00D+00 -3.00D+00
                    CP:  3.00D+00  2.46D-01  2.84D-01
 E= -4068.43249927783     Delta-E=       -0.000342865012 Rises=F Damp=F
 DIIS: error= 1.68D-04 at cycle  29 NSaved=   5.
 NSaved= 5 IEnMin= 5 EnMin= -4068.43249927783     IErMin= 5 ErrMin= 1.68D-04
 ErrMax= 1.68D-04  0.00D+00 EMaxC= 1.00D-01 BMatC= 1.63D-04 BMatP= 3.23D-04
 IDIUse=3 WtCom= 9.98D-01 WtEn= 1.68D-03
 Coeff-Com: -0.220D+01 0.243D+01 0.177D+00 0.104D-01 0.585D+00
 Coeff-En:   0.000D+00 0.000D+00 0.000D+00 0.000D+00 0.100D+01
 Coeff:     -0.220D+01 0.242D+01 0.176D+00 0.104D-01 0.586D+00
 Gap=     0.041 Goal=   None    Shift=    0.000
 RMSDP=9.71D-05 MaxDP=8.16D-03 DE=-3.43D-04 OVMax= 6.79D-02

 Cycle  30  Pass 1  IDiag  1:
 RMSU=  1.75D-05    CP:  9.99D-01 -3.00D+00 -3.00D+00  3.00D+00 -3.00D+00
                    CP:  3.00D+00  5.55D-01  7.23D-01  7.08D-01
 E= -4068.43256137560     Delta-E=       -0.000062097770 Rises=F Damp=F
 DIIS: error= 1.09D-04 at cycle  30 NSaved=   6.
 NSaved= 6 IEnMin= 6 EnMin= -4068.43256137560     IErMin= 6 ErrMin= 1.09D-04
 ErrMax= 1.09D-04  0.00D+00 EMaxC= 1.00D-01 BMatC= 1.28D-04 BMatP= 1.63D-04
 IDIUse=3 WtCom= 9.99D-01 WtEn= 1.09D-03
 Coeff-Com: -0.208D+01 0.208D+01 0.862D-01-0.785D-01 0.496D+00 0.500D+00
 Coeff-En:   0.000D+00 0.000D+00 0.000D+00 0.000D+00 0.000D+00 0.100D+01
 Coeff:     -0.208D+01 0.208D+01 0.861D-01-0.784D-01 0.496D+00 0.501D+00
 Gap=     0.044 Goal=   None    Shift=    0.000
 RMSDP=4.89D-05 MaxDP=8.19D-03 DE=-6.21D-05 OVMax= 3.22D-02

 Cycle  31  Pass 1  IDiag  1:
 RMSU=  1.14D-05    CP:  9.98D-01 -3.00D+00 -3.00D+00  3.00D+00 -3.00D+00
                    CP:  3.00D+00  7.84D-01  9.96D-01  4.82D-01  1.43D+00
 E= -4068.43252692357     Delta-E=        0.000034452034 Rises=F Damp=F
 DIIS: error= 1.29D-04 at cycle  31 NSaved=   7.
 NSaved= 7 IEnMin= 6 EnMin= -4068.43256137560     IErMin= 6 ErrMin= 1.09D-04
[...]
                 (A) (A) (A) (A) (A) (A) (A) (A) (A) (A) (A) (A)
                 (A) (A) (A) (A) (A) (A) (A) (A) (A) (A) (A) (A)
                 (A) (A) (A) (A) (A) (A) (A) (A) (A) (A) (A) (A)
                 (A) (A) (A) (A) (A) (A) (A) (A) (A) (A) (A) (A)
                 (A) (A) (A) (A) (A) (A) (A) (A) (A) (A) (A) (A)
                 (A) (A) (A) (A) (A) (A) (A) (A) (A) (A) (A) (A)
                 (A) (A) (A) (A) (A) (A) (A) (A) (A) (A) (A) (A)
                 (A) (A) (A) (A) (A) (A) (A) (A) (A) (A) (A) (A)
                 (A) (A) (A) (A) (A) (A) (A) (A) (A) (A) (A) (A)
                 (A) (A) (A) (A) (A) (A) (A) (A) (A) (A) (A) (A)
                 (A) (A) (A) (A) (A) (A) (A) (A) (A) (A) (A) (A)
                 (A) (A) (A) (A) (A) (A) (A) (A) (A) (A) (A) (A)
                 (A) (A) (A) (A) (A) (A) (A) (A) (A) (A) (A) (A)
                 (A) (A) (A) (A) (A) (A) (A) (A) (A) (A) (A) (A)
                 (A) (A) (A) (A) (A) (A) (A) (A) (A) (A) (A) (A)
                 (A) (A) (A) (A) (A) (A) (A) (A) (A) (A) (A) (A)
                 (A) (A) (A) (A) (A) (A) (A) (A) (A) (A) (A) (A)
                 (A) (A) (A) (A) (A) (A) (A) (A) (A) (A) (A) (A)
                 (A) (A) (A) (A) (A) (A) (A) (A) (A) (A) (A) (A)
                 (A) (A) (A) (A) (A) (A) (A) (A) (A) (A) (A) (A)
                 (A) (A) (A) (A) (A) (A) (A) (A) (A) (A) (A) (A)
                 (A) (A) (A) (A) (A) (A) (A) (A) (A) (A) (A) (A)
                 (A) (A) (A) (A) (A) (A) (A) (A) (A) (A) (A) (A)
                 (A) (A) (A) (A) (A) (A) (A) (A) (A) (A) (A) (A)
                 (A) (A) (A) (A) (A) (A) (A) (A) (A) (A) (A) (A)
                 (A) (A) (A) (A) (A) (A) (A) (A) (A) (A) (A) (A)
                 (A) (A) (A) (A) (A) (A) (A) (A) (A) (A) (A) (A)
                 (A) (A) (A) (A) (A) (A) (A) (A) (A) (A) (A) (A)
                 (A) (A) (A) (A) (A) (A) (A) (A) (A) (A) (A) (A)
                 (A) (A) (A) (A) (A) (A) (A) (A) (A) (A) (A) (A)
                 (A) (A) (A) (A) (A) (A) (A) (A) (A) (A) (A) (A)
                 (A) (A) (A) (A) (A) (A) (A) (A) (A) (A) (A) (A)
                 (A) (A) (A) (A) (A) (A) (A) (A) (A) (A) (A) (A)
                 (A) (A) (A) (A) (A) (A) (A) (A) (A) (A) (A) (A)
                 (A) (A) (A) (A) (A) (A) (A) (A) (A) (A) (A) (A)
                 (A) (A) (A) (A) (A) (A) (A) (A) (A) (A) (A) (A)
                 (A) (A) (A) (A) (A) (A) (A) (A) (A) (A) (A) (A)
                 (A) (A) (A) (A) (A) (A) (A) (A) (A) (A) (A) (A)
                 (A) (A) (A) (A) (A) (A) (A) (A) (A) (A) (A) (A)
                 (A) (A) (A) (A) (A) (A) (A) (A) (A) (A) (A) (A)
                 (A) (A) (A) (A) (A) (A) (A) (A) (A) (A) (A) (A)
                 (A) (A) (A) (A) (A) (A) (A) (A) (A) (A) (A) (A)
                 (A) (A) (A) (A) (A) (A) (A) (A) (A) (A) (A) (A)
                 (A) (A) (A) (A) (A) (A) (A) (A) (A) (A) (A) (A)
                 (A) (A) (A) (A) (A) (A) (A) (A) (A) (A) (A) (A)
                 (A) (A) (A) (A) (A) (A) (A) (A) (A) (A) (A) (A)
                 (A) (A) (A) (A) (A) (A) (A) (A) (A) (A) (A) (A)
                 (A) (A) (A) (A) (A) (A) (A) (A) (A) (A) (A) (A)
                 (A) (A) (A) (A) (A) (A) (A) (A) (A) (A) (A) (A)
                 (A) (A) (A) (A) (A) (A) (A) (A) (A) (A) (A) (A)
                 (A) (A) (A) (A) (A) (A) (A) (A) (A) (A) (A) (A)
                 (A) (A) (A) (A) (A) (A) (A) (A) (A) (A) (A) (A)
                 (A) (A) (A) (A) (A) (A) (A) (A) (A) (A) (A) (A)
                 (A) (A) (A) (A) (A) (A) (A) (A) (A) (A) (A) (A)
                 (A) (A) (A) (A) (A) (A) (A) (A) (A) (A) (A) (A)
                 (A) (A) (A) (A) (A) (A) (A) (A) (A) (A) (A) (A)
                 (A) (A) (A) (A) (A) (A) (A) (A) (A) (A) (A) (A)
                 (A) (A) (A) (A) (A) (A) (A) (A) (A) (A) (A) (A)
                 (A) (A) (A) (A) (A) (A) (A) (A) (A) (A) (A) (A)
                 (A) (A) (A) (A) (A) (A) (A) (A) (A) (A) (A) (A)
                 (A) (A) (A) (A) (A) (A) (A) (A) (A) (A) (A) (A)
                 (A) (A) (A) (A) (A) (A) (A) (A) (A) (A) (A) (A)
                 (A) (A) (A) (A) (A) (A) (A) (A) (A) (A) (A) (A)
                 (A) (A) (A) (A) (A) (A) (A) (A) (A) (A) (A) (A)
                 (A) (A) (A) (A) (A) (A) (A) (A) (A) (A) (A) (A)
                 (A) (A) (A) (A) (A) (A) (A) (A) (A) (A) (A) (A)
                 (A) (A) (A) (A) (A) (A) (A) (A) (A) (A) (A) (A)
                 (A) (A) (A) (A) (A) (A) (A) (A) (A) (A) (A) (A)
                 (A) (A) (A) (A) (A) (A) (A) (A) (A) (A) (A) (A)
                 (A) (A) (A) (A) (A) (A) (A) (A) (A) (A) (A) (A)
                 (A) (A) (A) (A) (A) (A) (A) (A) (A) (A) (A) (A)
                 (A) (A) (A) (A) (A) (A) (A) (A) (A) (A) (A) (A)
                 (A) (A) (A) (A) (A) (A) (A) (A) (A) (A) (A) (A)
                 (A) (A) (A) (A) (A) (A) (A) (A) (A) (A) (A) (A)
                 (A) (A) (A) (A) (A) (A) (A) (A) (A) (A) (A) (A)
    20 initial guesses have been made.
 Convergence on wavefunction:    0.001000000000000
 Davidson Disk Diagonalization:  ConvIn= 1.00D-03 SkipCon=T Conv= 1.00D-03.
 Max sub-space:  2000 roots to seek:    20 dimension of matrix:       549360
 Iteration     1 Dimension    20 NMult     0 NNew     20
 CISAX will form    20 AO SS matrices at one time.
 NMat=    20 NSing=    20 JSym2X= 0.
 FoFJK:  IHMeth= 1 ICntrl=       0 DoSepK=T KAlg= 0 I1Cent=           0 FoldK=F
 IRaf=         1 NMat=      40 IRICut=       1 DoRegI=T DoRafI=F ISym2E= 0 IDoP0=3 IntGTp=3.
 FoFCou: FMM=T IPFlag=           0 FMFlag=      100000 FMFlg1=        2001
         NFxFlg=           0 DoJE=F BraDBF=F KetDBF=F FulRan=T
         wScrn=  0.000000 ICntrl=       500 IOpCl=  0 I1Cent=           0 NGrid=           0
         NMat0=   20 NMatS0=     20 NMatT0=    0 NMatD0=   20 NMtDS0=    0 NMtDT0=    0
 Symmetry not used in FoFCou.
 FMM levels:  10  Number of levels for PrismC:   9
 Excitation Energies [eV] at current iteration:
 Root      1 :     0.174905743774138
 Root      2 :     0.257212919423927
 Root      3 :     0.989624675104398
 Root      4 :     1.866619393057808
 Root      5 :     2.083456745720039
 Root      6 :     2.089858644498982
 Root      7 :     2.327005582082206
 Root      8 :     2.349729924744290
 Root      9 :     2.465142731734866
 Root     10 :     2.498161799783260
 Root     11 :     2.713690226296547
 Root     12 :     2.788661515196781
 Root     13 :     2.834711677802080
 Root     14 :     3.065499232711316
 Root     15 :     3.121570631117354
 Root     16 :     3.150944473468804
 Root     17 :     3.254205041191408
 Root     18 :     3.307027566756328
 Root     19 :     3.330250345821593
 Root     20 :     3.625963524217021
 Iteration     2 Dimension    30 NMult    20 NNew     10
 CISAX will form    10 AO SS matrices at one time.
 NMat=    10 NSing=    10 JSym2X= 0.
 No map to state      1
 New state      2 was old state      1
 Root      2 not converged, maximum delta is    0.053134589147815
 Root      3 not converged, maximum delta is    0.048561475218459
 Root      4 not converged, maximum delta is    0.089692652410472
 Root      5 not converged, maximum delta is    0.260083390994407
 Excitation Energies [eV] at current iteration:
 Root      1 :     0.012848521114365
 Root      2 :     0.127693223326918   Change is   -0.047212520447220
 Root      3 :     0.783566626337207   Change is   -0.206058048767191
 Root      4 :     1.832353634694724   Change is   -0.034265758363083
 Root      5 :     2.050541267792708   Change is   -0.032915477927330
 Iteration     3 Dimension    40 NMult    30 NNew     10
 CISAX will form    10 AO SS matrices at one time.
 NMat=    10 NSing=    10 JSym2X= 0.
 No map to state      1
 Root      2 not converged, maximum delta is    0.008413774068310
 Root      3 not converged, maximum delta is    0.013977011396532
 Root      4 not converged, maximum delta is    0.074084599857654
 Root      5 not converged, maximum delta is    0.454561519440895
 Excitation Energies [eV] at current iteration:
 Root      1 :     0.017685601347808
 Root      2 :     0.123198277131775   Change is   -0.004494946195143
 Root      3 :     0.762863145592755   Change is   -0.020703480744452
 Root      4 :     1.823526890109518   Change is   -0.008826744585207
 Root      5 :     1.897998901391694   Change is   -0.152542366401014
 Iteration     4 Dimension    50 NMult    40 NNew     10
 CISAX will form    10 AO SS matrices at one time.
 NMat=    10 NSing=    10 JSym2X= 0.
 No map to state      1
 Root      2 not converged, maximum delta is    0.002426481116066
 Root      3 not converged, maximum delta is    0.005822230574806
 New state      4 was old state      5
 Root      4 not converged, maximum delta is    0.184116376408091
 New state      5 was old state      4
 Root      5 not converged, maximum delta is    0.043117495444462
 Excitation Energies [eV] at current iteration:
 Root      1 :     0.017800938891083
 Root      2 :     0.122316038983352   Change is   -0.000882238148423
 Root      3 :     0.759041624370493   Change is   -0.003821521222262
 Root      4 :     1.763560788857306   Change is   -0.134438112534388
 Root      5 :     1.822866549430299   Change is   -0.000660340679219
 Iteration     5 Dimension    60 NMult    50 NNew     10
 CISAX will form    10 AO SS matrices at one time.
 NMat=    10 NSing=    10 JSym2X= 0.
 No map to state      1
 Root      2 has converged.
 Root      3 not converged, maximum delta is    0.001883701820287
 Root      4 not converged, maximum delta is    0.140022475558708
 Root      5 not converged, maximum delta is    0.017120134838713
 Excitation Energies [eV] at current iteration:
 Root      1 :     0.017780744334069
 Root      2 :     0.122208964764204   Change is   -0.000107074219148
 Root      3 :     0.758575653273384   Change is   -0.000465971097109
 Root      4 :     1.705325260852877   Change is   -0.058235528004429
 Root      5 :     1.822575119190298   Change is   -0.000291430240000
 Iteration     6 Dimension    68 NMult    60 NNew      8
 CISAX will form     8 AO SS matrices at one time.
 NMat=     8 NSing=     8 JSym2X= 0.
 No map to state      1
 Root      2 has converged.
 Root      3 has converged.
 Root      4 not converged, maximum delta is    0.087168320501839
 Root      5 not converged, maximum delta is    0.008742456324852
 Excitation Energies [eV] at current iteration:
 Root      1 :     0.017776395183514
 Root      2 :     0.122208147010732   Change is   -0.000000817753472
 Root      3 :     0.758516147619682   Change is   -0.000059505653702
 Root      4 :     1.685502604599165   Change is   -0.019822656253713
 Root      5 :     1.822510656471558   Change is   -0.000064462718740
 Iteration     7 Dimension    74 NMult    68 NNew      6
 CISAX will form     6 AO SS matrices at one time.
 NMat=     6 NSing=     6 JSym2X= 0.
 No map to state      1
 Root      2 has converged.
 Root      3 has converged.
 Root      4 not converged, maximum delta is    0.032030756094702
 Root      5 not converged, maximum delta is    0.005282939868326
 Excitation Energies [eV] at current iteration:
 Root      1 :     0.017775989565772
 Root      2 :     0.122207422432621   Change is   -0.000000724578111
 Root      3 :     0.758515934929005   Change is   -0.000000212690677
 Root      4 :     1.680314938510109   Change is   -0.005187666089056
 Root      5 :     1.822488084105616   Change is   -0.000022572365942
 Iteration     8 Dimension    80 NMult    74 NNew      6
 CISAX will form     6 AO SS matrices at one time.
 NMat=     6 NSing=     6 JSym2X= 0.
 No map to state      1
 Root      2 has converged.
 Root      3 has converged.
 Root      4 not converged, maximum delta is    0.010610566641074
 Root      5 not converged, maximum delta is    0.002733671496747
 Excitation Energies [eV] at current iteration:
 Root      1 :     0.017775979960396
 Root      2 :     0.122207353618596   Change is   -0.000000068814025
 Root      3 :     0.758515776214917   Change is   -0.000000158714088
 Root      4 :     1.679306125148625   Change is   -0.001008813361484
 Root      5 :     1.822480557279127   Change is   -0.000007526826489
 Iteration     9 Dimension    86 NMult    80 NNew      6
 CISAX will form     6 AO SS matrices at one time.
 NMat=     6 NSing=     6 JSym2X= 0.
 No map to state      1
 Root      2 has converged.
 Root      3 has converged.
 Root      4 not converged, maximum delta is    0.001993742383285
 Root      5 has converged.
 Excitation Energies [eV] at current iteration:
 Root      1 :     0.017775991975208
 Root      2 :     0.122207185017781   Change is   -0.000000168600815
 Root      3 :     0.758515210938430   Change is   -0.000000565276487
 Root      4 :     1.679174587061057   Change is   -0.000131538087568
 Root      5 :     1.822478864728917   Change is   -0.000001692550210
 Iteration    10 Dimension    90 NMult    86 NNew      4
 CISAX will form     4 AO SS matrices at one time.
 NMat=     4 NSing=     4 JSym2X= 0.
 No map to state      1
 Root      2 has converged.
 Root      3 has converged.
 Root      4 has converged.
 Root      5 has converged.
 Excitation Energies [eV] at current iteration:
 Root      1 :     0.017776008277047
 Root      2 :     0.122207021371773   Change is   -0.000000163646008
 Root      3 :     0.758515190118181   Change is   -0.000000020820248
 Root      4 :     1.679156845875584   Change is   -0.000017741185473
 Root      5 :     1.822478677737907   Change is   -0.000000186991010
 Iteration    11 Dimension    92 NMult    90 NNew      2
 CISAX will form     2 AO SS matrices at one time.
 NMat=     2 NSing=     2 JSym2X= 0.
 No map to state      1
 Root      2 has converged.
 Root      3 has converged.
 Root      4 has converged.
 Root      5 has converged.
 Excitation Energies [eV] at current iteration:
 Root      1 :     0.017776026021756
 Root      2 :     0.122207020803350   Change is   -0.000000000568424
 Root      3 :     0.758515186754515   Change is   -0.000000003363667
 Root      4 :     1.679156844029539   Change is   -0.000000001846045
 Root      5 :     1.822478676909552   Change is   -0.000000000828355
 Iteration    12 Dimension    94 NMult    92 NNew      2
 CISAX will form     2 AO SS matrices at one time.
 NMat=     2 NSing=     2 JSym2X= 0.
 No map to state      1
 Root      2 has converged.
 Root      3 has converged.
 Root      4 has converged.
 Root      5 has converged.
 Excitation Energies [eV] at current iteration:
 Root      1 :     0.017776050055933
 Root      2 :     0.122207016188019   Change is   -0.000000004615330
 Root      3 :     0.758515175594241   Change is   -0.000000011160273
 Root      4 :     1.679156843849326   Change is   -0.000000000180213
 Root      5 :     1.822478676355676   Change is   -0.000000000553876
 Iteration    13 Dimension    96 NMult    94 NNew      2
 CISAX will form     2 AO SS matrices at one time.
 NMat=     2 NSing=     2 JSym2X= 0.
 No map to state      1
 Root      2 has converged.
 Root      3 has converged.
 Root      4 has converged.
 Root      5 has converged.
 Excitation Energies [eV] at current iteration:
 Root      1 :     0.017776081910303
 Root      2 :     0.122207008793803   Change is   -0.000000007394216
 Root      3 :     0.758515172331042   Change is   -0.000000003263199
 Root      4 :     1.679156842955605   Change is   -0.000000000893721
 Root      5 :     1.822478675701978   Change is   -0.000000000653698
 Iteration    14 Dimension    98 NMult    96 NNew      2
 CISAX will form     2 AO SS matrices at one time.
 NMat=     2 NSing=     2 JSym2X= 0.
 No map to state      1
 Root      2 has converged.
 Root      3 has converged.
 Root      4 has converged.
 Root      5 has converged.
 Excitation Energies [eV] at current iteration:
 Root      1 :     0.017776118416967
 Root      2 :     0.122207006995701   Change is   -0.000000001798102
 Root      3 :     0.758515163711293   Change is   -0.000000008619749
 Root      4 :     1.679156842735785   Change is   -0.000000000219820
 Root      5 :     1.822478674952516   Change is   -0.000000000749462
 Iteration    15 Dimension   100 NMult    98 NNew      2
 CISAX will form     2 AO SS matrices at one time.
 NMat=     2 NSing=     2 JSym2X= 0.
 No map to state      1
 Root      2 has converged.
 Root      3 has converged.
 Root      4 has converged.
 Root      5 has converged.
 Excitation Energies [eV] at current iteration:
 Root      1 :     0.017776152680629
 Root      2 :     0.122207004796675   Change is   -0.000000002199026
 Root      3 :     0.758515160405176   Change is   -0.000000003306118
 Root      4 :     1.679156842177325   Change is   -0.000000000558459
 Root      5 :     1.822478674781604   Change is   -0.000000000170913
 Iteration    16 Dimension   102 NMult   100 NNew      2
 CISAX will form     2 AO SS matrices at one time.
 NMat=     2 NSing=     2 JSym2X= 0.
 No map to state      1
 Root      2 has converged.
 Root      3 has converged.
 Root      4 has converged.
 Root      5 has converged.
 Excitation Energies [eV] at current iteration:
 Root      1 :     0.017776183346295
 Root      2 :     0.122206998161927   Change is   -0.000000006634749
 Root      3 :     0.758515154120789   Change is   -0.000000006284387
 Root      4 :     1.679156841851512   Change is   -0.000000000325813
 Root      5 :     1.822478674418443   Change is   -0.000000000363161
 Iteration    17 Dimension   104 NMult   102 NNew      2
 CISAX will form     2 AO SS matrices at one time.
 NMat=     2 NSing=     2 JSym2X= 0.
 No map to state      1
 Root      2 has converged.
 Root      3 has converged.
 Root      4 has converged.
 Root      5 has converged.
 Excitation Energies [eV] at current iteration:
 Root      1 :     0.017776207375635
 Root      2 :     0.122206998097348   Change is   -0.000000000064578
 Root      3 :     0.758515152434837   Change is   -0.000000001685952
 Root      4 :     1.679156841114357   Change is   -0.000000000737155
 Root      5 :     1.822478674255605   Change is   -0.000000000162838
 Iteration    18 Dimension   106 NMult   104 NNew      2
 CISAX will form     2 AO SS matrices at one time.
 NMat=     2 NSing=     2 JSym2X= 0.
 No map to state      1
 Root      2 has converged.
 Root      3 has converged.
 Root      4 has converged.
 Root      5 has converged.
 Excitation Energies [eV] at current iteration:
 Root      1 :     0.017776225411493
 Root      2 :     0.122206989326806   Change is   -0.000000008770542
 Root      3 :     0.758515146907155   Change is   -0.000000005527681
 Root      4 :     1.679156840044242   Change is   -0.000000001070116
 Root      5 :     1.822478674097864   Change is   -0.000000000157741
 Iteration    19 Dimension   108 NMult   106 NNew      2
 CISAX will form     2 AO SS matrices at one time.
 NMat=     2 NSing=     2 JSym2X= 0.
 No map to state      1
 Root      2 has converged.
 Root      3 has converged.
 Root      4 has converged.
 Root      5 has converged.
 Excitation Energies [eV] at current iteration:
 Root      1 :     0.017776239687555
 Root      2 :     0.122206972769194   Change is   -0.000000016557612
 Root      3 :     0.758515145977801   Change is   -0.000000000929354
 Root      4 :     1.679156837429807   Change is   -0.000000002614435
 Root      5 :     1.822478673571053   Change is   -0.000000000526811
 Iteration    20 Dimension   110 NMult   108 NNew      2
 CISAX will form     2 AO SS matrices at one time.
 NMat=     2 NSing=     2 JSym2X= 0.
 No map to state      1
 Root      2 has converged.
 Root      3 has converged.
 Root      4 has converged.
 Root      5 has converged.
 Excitation Energies [eV] at current iteration:
 Root      1 :     0.017776249838490
 Root      2 :     0.122206968828571   Change is   -0.000000003940623
 Root      3 :     0.758515143598653   Change is   -0.000000002379147
 Root      4 :     1.679156836720020   Change is   -0.000000000709788
 Root      5 :     1.822478673220162   Change is   -0.000000000350891
 Iteration    21 Dimension   112 NMult   110 NNew      2
 CISAX will form     2 AO SS matrices at one time.
 NMat=     2 NSing=     2 JSym2X= 0.
