 Entering Gaussian System, Link 0=g16
 Initial command:
 /sw/apps/gaussian-16.0/g16/l1.exe "/tmp/Gau-75243.inp" -scrdir="/tmp/"
 Entering Link 1 = /sw/apps/gaussian-16.0/g16/l1.exe PID=     75244.
  
 Copyright (c) 1988,1990,1992,1993,1995,1998,2003,2009,2016,
            Gaussian, Inc.  All Rights Reserved.
  
 This is part of the Gaussian(R) 16 program.  It is based on
 the Gaussian(R) 09 system (copyright 2009, Gaussian, Inc.),
 the Gaussian(R) 03 system (copyright 2003, Gaussian, Inc.),
 the Gaussian(R) 98 system (copyright 1998, Gaussian, Inc.),
 the Gaussian(R) 94 system (copyright 1995, Gaussian, Inc.),
 the Gaussian 92(TM) system (copyright 1992, Gaussian, Inc.),
 the Gaussian 90(TM) system (copyright 1990, Gaussian, Inc.),
 the Gaussian 88(TM) system (copyright 1988, Gaussian, Inc.),
 the Gaussian 86(TM) system (copyright 1986, Carnegie Mellon
 University), and the Gaussian 82(TM) system (copyright 1983,
 Carnegie Mellon University). Gaussian is a federally registered
 trademark of Gaussian, Inc.
  
 This software contains proprietary and confidential information,
 including trade secrets, belonging to Gaussian, Inc.
  
 This software is provided under written license and may be
 used, copied, transmitted, or stored only in accord with that
 written license.
  
 The following legend is applicable only to US Government
 contracts under FAR:
  
                    RESTRICTED RIGHTS LEGEND
  
 Use, reproduction and disclosure by the US Government is
 subject to restrictions as set forth in subparagraphs (a)
 and (c) of the Commercial Computer Software - Restricted
 Rights clause in FAR 52.227-19.
  
 Gaussian, Inc.
 340 Quinnipiac St., Bldg. 40, Wallingford CT 06492
  
  
 ---------------------------------------------------------------
 Warning -- This program may not be used in any manner that
 competes with the business of Gaussian, Inc. or will provide
 assistance to any competitor of Gaussian, Inc.  The licensee
 of this program is prohibited from giving any competitor of
 Gaussian, Inc. access to this program.  By using this program,
 the user acknowledges that Gaussian, Inc. is engaged in the
 business of creating and licensing software in the field of
 computational chemistry and represents and warrants to the
 licensee that it is not a competitor of Gaussian, Inc. and that
 it will not use this program in any manner prohibited above.
 ---------------------------------------------------------------
  

 Cite this work as:
 Gaussian 16, Revision A.03,
 M. J. Frisch, G. W. Trucks, H. B. Schlegel, G. E. Scuseria, 
 M. A. Robb, J. R. Cheeseman, G. Scalmani, V. Barone, 
 G. A. Petersson, H. Nakatsuji, X. Li, M. Caricato, A. V. Marenich, 
 J. Bloino, B. G. Janesko, R. Gomperts, B. Mennucci, H. P. Hratchian, 
 J. V. Ortiz, A. F. Izmaylov, J. L. Sonnenberg, D. Williams-Young, 
 F. Ding, F. Lipparini, F. Egidi, J. Goings, B. Peng, A. Petrone, 
 T. Henderson, D. Ranasinghe, V. G. Zakrzewski, J. Gao, N. Rega, 
 G. Zheng, W. Liang, M. Hada, M. Ehara, K. Toyota, R. Fukuda, 
 J. Hasegawa, M. Ishida, T. Nakajima, Y. Honda, O. Kitao, H. Nakai, 
 T. Vreven, K. Throssell, J. A. Montgomery, Jr., J. E. Peralta, 
 F. Ogliaro, M. J. Bearpark, J. J. Heyd, E. N. Brothers, K. N. Kudin, 
 V. N. Staroverov, T. A. Keith, R. Kobayashi, J. Normand, 
 K. Raghavachari, A. P. Rendell, J. C. Burant, S. S. Iyengar, 
 J. Tomasi, M. Cossi, J. M. Millam, M. Klene, C. Adamo, R. Cammi, 
 J. W. Ochterski, R. L. Martin, K. Morokuma, O. Farkas, 
 J. B. Foresman, and D. J. Fox, Gaussian, Inc., Wallingford CT, 2016.
 
 ******************************************
 Gaussian 16:  ES64L-G16RevA.03 25-Dec-2016
                 8-Sep-2021 
 ******************************************
 %nproc=24
 Will use up to   24 processors via shared memory.
 %mem=175gb
 -----------------------------------
 #p cam-b3lyp/Def2SVP td=(nstates=5)
 -----------------------------------
 1/38=1,172=1/1;
 2/12=2,17=6,18=5,40=1/2;
 3/5=43,7=101,11=9,25=1,30=1,74=-40/1,2,3,8;
 4//1;
 5/5=2,38=5/2;
 8/6=1,10=1,108=5/1;
 9/41=5,42=1,70=2/14;
 6/7=2,8=2,9=2,10=2/1;
 99/5=1,9=1/99;
 Leave Link    1 at Wed Sep  8 19:08:24 2021, MaxMem= 23488102400 cpu:               0.6 elap:               0.0
 (Enter /sw/apps/gaussian-16.0/g16/l101.exe)
 --------------------------------
 TDDFT excited states in gaussian
 --------------------------------
 Symbolic Z-matrix:
 Charge =  0 Multiplicity = 1
 Mg                    0.        0.        0. 
 C                    -0.217    -2.218     2.801 
 C                    -1.255     2.442     2.026 
 C                    -0.245     1.85     -2.564 
 C                     0.146    -2.824    -2.037 
 N                    -0.617    -0.009     2.126 
 C                    -0.594    -0.908     3.105 
 C                    -0.936    -0.309     4.502 
 C                    -1.773     0.964     4.032 
 C                    -1.155     1.168     2.66 
 C                    -3.263     0.685     3.863 
 C                     0.345     0.11      5.299 
 C                     0.124     0.397     6.787 
 H                     1.168     0.033     7.733 
 N                    -0.185     1.961    -0.152 
 C                    -0.703     2.8       0.777 
 C                    -0.62      4.156     0.193 
 C                    -0.187     4.015    -1.225 
 C                    -0.214     2.583    -1.38 
 C                    -0.887     5.406     0.974 
 C                     0.181     5.013    -2.277 
 O                     0.303     4.69     -3.508 
 C                     0.31      6.414    -1.837 
 N                    -0.265    -0.413    -2.029 
 C                    -0.279     0.569    -2.937 
 C                    -0.196     0.024    -4.332 
 C                     0.124    -1.533    -4.18 
 C                     0.086    -1.632    -2.635 
 C                    -1.451     0.205    -5.197 
 C                     1.373    -2.07     -4.923 
 C                     2.626    -1.49     -4.306 
 N                     0.15     -2.144     0.303 
 C                     0.173    -3.136    -0.688 
 C                     0.173    -4.438     0.004 
 C                     0.133    -4.111     1.358 
 C                     0.083    -2.695     1.502 
 C                     0.149    -5.715    -0.623 
 C                     0.096    -4.629     2.716 
 O                     0.208    -5.747     3.221 
 C                    -0.255    -3.428     3.701 
 C                     0.717    -3.482     4.848 
 O                     1.931    -3.255     4.669 
 O                     0.038    -3.556     6.003 
 C                     0.943    -3.583     7.183 
 H                    -1.859     3.22      2.497 
 H                    -0.218     2.453    -3.474 
 H                     0.276    -3.747    -2.605 
 H                    -1.554    -0.949     5.132 
 H                    -1.585     1.831     4.665 
 H                    -3.484    -0.377     3.969 
 H                    -3.511     1.027     2.858 
 H                    -3.852     1.301     4.543 
 H                     0.669     1.096     4.966 
 H                     1.13     -0.639     5.189 
 H                    -0.844     0.026     7.125 
 H                     0.062     1.477     6.921 
 H                    -1.344     5.186     1.938 
 H                    -1.651     5.963     0.432 
 H                     0.007     6.02      1.084 
 H                    -0.635     6.744    -1.405 
 H                     0.665     6.97     -2.704 
 H                     1.048     6.466    -1.036 
 H                     0.608     0.501    -4.891 
 H                    -0.692    -2.156    -4.547 
 H                    -1.267     0.74     -6.129 
 H                    -2.204     0.714    -4.596 
 H                    -1.967    -0.72     -5.453 
 H                     1.356    -1.759    -5.967 
 H                     1.452    -3.157    -4.902 
 H                     2.714    -0.522    -4.798 
 H                     3.487    -2.121    -4.529 
 H                     2.495    -1.303    -3.24 
 H                     0.867    -6.333    -0.084 
 H                     0.404    -5.642    -1.68 
 H                    -0.891    -5.999    -0.463 
 H                    -1.283    -3.581     4.028 
 H                     0.698    -4.478     7.755 
 H                     0.833    -2.619     7.68 
 H                     2.       -3.754     6.976 
 Mg                    7.87793   0.70371   0.60585 
 C                     6.67082   3.21173   2.8712 
 C                     9.54384  -0.66766   3.24757 
 C                     9.31424  -1.24905  -1.44138 
 C                     7.07947   2.8731   -2.00219 
 N                     8.01139   1.28731   2.73514 
 C                     7.46043   2.22272   3.49395 
 C                     7.70767   2.04439   5.01599 
 C                     9.05332   1.17125   4.94035 
 C                     8.84845   0.52452   3.57198 
 C                     10.31597   2.01508   4.8856 
 C                     6.54952   1.25484   5.7212 
 C                     6.57095   1.31113   7.2503 
 H                     5.2971    1.34464   7.96349 
 N                     8.82447  -1.01268   0.91671 
 C                     9.42302  -1.41701   2.05668 
 C                     9.99143  -2.74205   1.76455 
 C                     9.82199  -3.01516   0.31148 
 C                     9.32141  -1.73273  -0.14116 
 C                     10.54726  -3.64187   2.82981 
 C                     10.08125  -4.22565  -0.53333 
 O                     10.08726  -4.16454  -1.81359 
 C                     10.42001  -5.46434   0.18247 
 N                     8.35453   0.87706  -1.41037 
 C                     8.93105  -0.1401   -2.0744 
 C                     8.92685   0.10879  -3.56384 
 C                     8.00708   1.39889  -3.78125 
 C                     7.69765   1.7404   -2.30713 
 C                     10.29513   0.34611  -4.20249 
 C                     6.81939   1.25754  -4.77224 
 C                     5.78912   0.30446  -4.21048 
 N                     6.86401   2.60223   0.41706 
 C                     6.66232   3.34767  -0.76519 
 C                     6.0266    4.62225  -0.37311 
 C                     5.9227    4.53899   1.02358 
 C                     6.47438   3.30864   1.47236 
 C                     5.67479   5.68238  -1.25542 
 C                     5.48142   5.21673   2.22135 
 O                     4.86006   6.25276   2.45436 
 C                     6.06092   4.44246   3.48272 
 C                     4.93951   4.25348   4.46722 
 O                     3.96663   3.5316    4.18615 
 O                     5.30132   4.77644   5.65296 
 C                     4.22582   4.60364   6.6655 
 H                     10.28451  -1.04469   3.95336 
 H                     9.69861  -1.93348  -2.20118 
 H                     6.71016   3.56058  -2.76617 
 H                     7.89153   2.96473   5.55724 
 H                     9.07742   0.41438   5.72005 
 H                     10.09346   3.06719   4.78709 
 H                     10.86805   1.66286   4.0241 
 H                     10.94708   1.80596   5.7541 
 H                     6.70616   0.17896   5.57058 
 H                     5.59269   1.57949   5.36103 
 H                     7.24165   2.09409   7.62458 
 H                     7.00743   0.38236   7.62565 
 H                     10.6893  -3.10513   3.77593 
 H                     11.56087  -3.91723   2.51893 
 H                     9.95849  -4.55216   2.96166 
 H                     11.30871  -5.30042   0.78728 
 H                     10.48191  -6.23796  -0.58536 
 H                     9.60604  -5.70095   0.8768 
 H                     8.48957  -0.72802  -4.09452 
 H                     8.58135   2.24519  -4.18601 
 H                     10.52303  -0.36159  -5.02182 
 H                     11.04826   0.2865   -3.42804 
 H                     10.45165   1.3473   -4.60039 
 H                     7.16219   0.82371  -5.71481 
 H                     6.3389    2.20123  -5.00798 
 H                     6.18459  -0.67748  -4.48707 
 H                     4.8163    0.4805   -4.66508 
 H                     5.7636    0.35309  -3.11566 
 H                     4.69175   6.0221   -0.95755 
 H                     5.68594   5.35611  -2.2933 
 H                     6.47878   6.39099  -1.03924 
 H                     6.86996   5.04679   3.8948 
 H                     3.99324   5.59858   7.05753 
 H                     4.60993   3.856     7.3847 
 H                     3.25264   4.28236   6.31314 
 
 ITRead=  0  0  0  0  0  0  0  0  0  0  0  0  0  0  0  0  0  0  0  0
 ITRead=  0  0  0  0  0  0  0  0  0  0  0  0  0  0  0  0  0  0  0  0
 ITRead=  0  0  0  0  0  0  0  0  0  0  0  0  0  0  0  0  0  0  0  0
 ITRead=  0  0  0  0  0  0  0  0  0  0  0  0  0  0  0  0  0  0  0  0
 ITRead=  0  0  0  0  0  0  0  0  0  0  0  0  0  0  0  0  0  0  0  0
 ITRead=  0  0  0  0  0  0  0  0  0  0  0  0  0  0  0  0  0  0  0  0
 ITRead=  0  0  0  0  0  0  0  0  0  0  0  0  0  0  0  0  0  0  0  0
 ITRead=  0  0  0  0  0  0  0  0  0  0  0  0  0  0  0  0  0  0
 MicOpt= -1 -1 -1 -1 -1 -1 -1 -1 -1 -1 -1 -1 -1 -1 -1 -1 -1 -1 -1 -1
 MicOpt= -1 -1 -1 -1 -1 -1 -1 -1 -1 -1 -1 -1 -1 -1 -1 -1 -1 -1 -1 -1
 MicOpt= -1 -1 -1 -1 -1 -1 -1 -1 -1 -1 -1 -1 -1 -1 -1 -1 -1 -1 -1 -1
 MicOpt= -1 -1 -1 -1 -1 -1 -1 -1 -1 -1 -1 -1 -1 -1 -1 -1 -1 -1 -1 -1
 MicOpt= -1 -1 -1 -1 -1 -1 -1 -1 -1 -1 -1 -1 -1 -1 -1 -1 -1 -1 -1 -1
 MicOpt= -1 -1 -1 -1 -1 -1 -1 -1 -1 -1 -1 -1 -1 -1 -1 -1 -1 -1 -1 -1
 MicOpt= -1 -1 -1 -1 -1 -1 -1 -1 -1 -1 -1 -1 -1 -1 -1 -1 -1 -1 -1 -1
 MicOpt= -1 -1 -1 -1 -1 -1 -1 -1 -1 -1 -1 -1 -1 -1 -1 -1 -1 -1
 NAtoms=    158 NQM=      158 NQMF=       0 NMMI=      0 NMMIF=      0
                NMic=       0 NMicF=      0.
                    Isotopes and Nuclear Properties:
 (Nuclear quadrupole moments (NQMom) in fm**2, nuclear magnetic moments (NMagM)
  in nuclear magnetons)

  Atom         1           2           3           4           5           6           7           8           9          10
 IAtWgt=          24          12          12          12          12          14          12          12          12          12
 AtmWgt=  23.9850450  12.0000000  12.0000000  12.0000000  12.0000000  14.0030740  12.0000000  12.0000000  12.0000000  12.0000000
 NucSpn=           0           0           0           0           0           2           0           0           0           0
 AtZEff=  -0.0000000  -0.0000000  -0.0000000  -0.0000000  -0.0000000  -0.0000000  -0.0000000  -0.0000000  -0.0000000  -0.0000000
 NQMom=    0.0000000   0.0000000   0.0000000   0.0000000   0.0000000   2.0440000   0.0000000   0.0000000   0.0000000   0.0000000
 NMagM=    0.0000000   0.0000000   0.0000000   0.0000000   0.0000000   0.4037610   0.0000000   0.0000000   0.0000000   0.0000000
 AtZNuc=  12.0000000   6.0000000   6.0000000   6.0000000   6.0000000   7.0000000   6.0000000   6.0000000   6.0000000   6.0000000

  Atom        11          12          13          14          15          16          17          18          19          20
 IAtWgt=          12          12          12           1          14          12          12          12          12          12
 AtmWgt=  12.0000000  12.0000000  12.0000000   1.0078250  14.0030740  12.0000000  12.0000000  12.0000000  12.0000000  12.0000000
 NucSpn=           0           0           0           1           2           0           0           0           0           0
 AtZEff=  -0.0000000  -0.0000000  -0.0000000  -0.0000000  -0.0000000  -0.0000000  -0.0000000  -0.0000000  -0.0000000  -0.0000000
 NQMom=    0.0000000   0.0000000   0.0000000   0.0000000   2.0440000   0.0000000   0.0000000   0.0000000   0.0000000   0.0000000
 NMagM=    0.0000000   0.0000000   0.0000000   2.7928460   0.4037610   0.0000000   0.0000000   0.0000000   0.0000000   0.0000000
 AtZNuc=   6.0000000   6.0000000   6.0000000   1.0000000   7.0000000   6.0000000   6.0000000   6.0000000   6.0000000   6.0000000

  Atom        21          22          23          24          25          26          27          28          29          30
 IAtWgt=          12          16          12          14          12          12          12          12          12          12
 AtmWgt=  12.0000000  15.9949146  12.0000000  14.0030740  12.0000000  12.0000000  12.0000000  12.0000000  12.0000000  12.0000000
 NucSpn=           0           0           0           2           0           0           0           0           0           0
 AtZEff=  -0.0000000  -0.0000000  -0.0000000  -0.0000000  -0.0000000  -0.0000000  -0.0000000  -0.0000000  -0.0000000  -0.0000000
 NQMom=    0.0000000   0.0000000   0.0000000   2.0440000   0.0000000   0.0000000   0.0000000   0.0000000   0.0000000   0.0000000
 NMagM=    0.0000000   0.0000000   0.0000000   0.4037610   0.0000000   0.0000000   0.0000000   0.0000000   0.0000000   0.0000000
 AtZNuc=   6.0000000   8.0000000   6.0000000   7.0000000   6.0000000   6.0000000   6.0000000   6.0000000   6.0000000   6.0000000

  Atom        31          32          33          34          35          36          37          38          39          40
 IAtWgt=          12          14          12          12          12          12          12          12          16          12
 AtmWgt=  12.0000000  14.0030740  12.0000000  12.0000000  12.0000000  12.0000000  12.0000000  12.0000000  15.9949146  12.0000000
 NucSpn=           0           2           0           0           0           0           0           0           0           0
 AtZEff=  -0.0000000  -0.0000000  -0.0000000  -0.0000000  -0.0000000  -0.0000000  -0.0000000  -0.0000000  -0.0000000  -0.0000000
 NQMom=    0.0000000   2.0440000   0.0000000   0.0000000   0.0000000   0.0000000   0.0000000   0.0000000   0.0000000   0.0000000
 NMagM=    0.0000000   0.4037610   0.0000000   0.0000000   0.0000000   0.0000000   0.0000000   0.0000000   0.0000000   0.0000000
 AtZNuc=   6.0000000   7.0000000   6.0000000   6.0000000   6.0000000   6.0000000   6.0000000   6.0000000   8.0000000   6.0000000

  Atom        41          42          43          44          45          46          47          48          49          50
 IAtWgt=          12          16          16          12           1           1           1           1           1           1
 AtmWgt=  12.0000000  15.9949146  15.9949146  12.0000000   1.0078250   1.0078250   1.0078250   1.0078250   1.0078250   1.0078250
 NucSpn=           0           0           0           0           1           1           1           1           1           1
 AtZEff=  -0.0000000  -0.0000000  -0.0000000  -0.0000000  -0.0000000  -0.0000000  -0.0000000  -0.0000000  -0.0000000  -0.0000000
 NQMom=    0.0000000   0.0000000   0.0000000   0.0000000   0.0000000   0.0000000   0.0000000   0.0000000   0.0000000   0.0000000
 NMagM=    0.0000000   0.0000000   0.0000000   0.0000000   2.7928460   2.7928460   2.7928460   2.7928460   2.7928460   2.7928460
 AtZNuc=   6.0000000   8.0000000   8.0000000   6.0000000   1.0000000   1.0000000   1.0000000   1.0000000   1.0000000   1.0000000

  Atom        51          52          53          54          55          56          57          58          59          60
 IAtWgt=           1           1           1           1           1           1           1           1           1           1
 AtmWgt=   1.0078250   1.0078250   1.0078250   1.0078250   1.0078250   1.0078250   1.0078250   1.0078250   1.0078250   1.0078250
 NucSpn=           1           1           1           1           1           1           1           1           1           1
 AtZEff=  -0.0000000  -0.0000000  -0.0000000  -0.0000000  -0.0000000  -0.0000000  -0.0000000  -0.0000000  -0.0000000  -0.0000000
 NQMom=    0.0000000   0.0000000   0.0000000   0.0000000   0.0000000   0.0000000   0.0000000   0.0000000   0.0000000   0.0000000
 NMagM=    2.7928460   2.7928460   2.7928460   2.7928460   2.7928460   2.7928460   2.7928460   2.7928460   2.7928460   2.7928460
 AtZNuc=   1.0000000   1.0000000   1.0000000   1.0000000   1.0000000   1.0000000   1.0000000   1.0000000   1.0000000   1.0000000

  Atom        61          62          63          64          65          66          67          68          69          70
 IAtWgt=           1           1           1           1           1           1           1           1           1           1
 AtmWgt=   1.0078250   1.0078250   1.0078250   1.0078250   1.0078250   1.0078250   1.0078250   1.0078250   1.0078250   1.0078250
 NucSpn=           1           1           1           1           1           1           1           1           1           1
 AtZEff=  -0.0000000  -0.0000000  -0.0000000  -0.0000000  -0.0000000  -0.0000000  -0.0000000  -0.0000000  -0.0000000  -0.0000000
 NQMom=    0.0000000   0.0000000   0.0000000   0.0000000   0.0000000   0.0000000   0.0000000   0.0000000   0.0000000   0.0000000
 NMagM=    2.7928460   2.7928460   2.7928460   2.7928460   2.7928460   2.7928460   2.7928460   2.7928460   2.7928460   2.7928460
 AtZNuc=   1.0000000   1.0000000   1.0000000   1.0000000   1.0000000   1.0000000   1.0000000   1.0000000   1.0000000   1.0000000

  Atom        71          72          73          74          75          76          77          78          79          80
 IAtWgt=           1           1           1           1           1           1           1           1           1          24
 AtmWgt=   1.0078250   1.0078250   1.0078250   1.0078250   1.0078250   1.0078250   1.0078250   1.0078250   1.0078250  23.9850450
 NucSpn=           1           1           1           1           1           1           1           1           1           0
 AtZEff=  -0.0000000  -0.0000000  -0.0000000  -0.0000000  -0.0000000  -0.0000000  -0.0000000  -0.0000000  -0.0000000  -0.0000000
 NQMom=    0.0000000   0.0000000   0.0000000   0.0000000   0.0000000   0.0000000   0.0000000   0.0000000   0.0000000   0.0000000
 NMagM=    2.7928460   2.7928460   2.7928460   2.7928460   2.7928460   2.7928460   2.7928460   2.7928460   2.7928460   0.0000000
 AtZNuc=   1.0000000   1.0000000   1.0000000   1.0000000   1.0000000   1.0000000   1.0000000   1.0000000   1.0000000  12.0000000

  Atom        81          82          83          84          85          86          87          88          89          90
 IAtWgt=          12          12          12          12          14          12          12          12          12          12
 AtmWgt=  12.0000000  12.0000000  12.0000000  12.0000000  14.0030740  12.0000000  12.0000000  12.0000000  12.0000000  12.0000000
 NucSpn=           0           0           0           0           2           0           0           0           0           0
 AtZEff=  -0.0000000  -0.0000000  -0.0000000  -0.0000000  -0.0000000  -0.0000000  -0.0000000  -0.0000000  -0.0000000  -0.0000000
 NQMom=    0.0000000   0.0000000   0.0000000   0.0000000   2.0440000   0.0000000   0.0000000   0.0000000   0.0000000   0.0000000
 NMagM=    0.0000000   0.0000000   0.0000000   0.0000000   0.4037610   0.0000000   0.0000000   0.0000000   0.0000000   0.0000000
 AtZNuc=   6.0000000   6.0000000   6.0000000   6.0000000   7.0000000   6.0000000   6.0000000   6.0000000   6.0000000   6.0000000

  Atom        91          92          93          94          95          96          97          98          99         100
 IAtWgt=          12          12           1          14          12          12          12          12          12          12
 AtmWgt=  12.0000000  12.0000000   1.0078250  14.0030740  12.0000000  12.0000000  12.0000000  12.0000000  12.0000000  12.0000000
 NucSpn=           0           0           1           2           0           0           0           0           0           0
 AtZEff=  -0.0000000  -0.0000000  -0.0000000  -0.0000000  -0.0000000  -0.0000000  -0.0000000  -0.0000000  -0.0000000  -0.0000000
 NQMom=    0.0000000   0.0000000   0.0000000   2.0440000   0.0000000   0.0000000   0.0000000   0.0000000   0.0000000   0.0000000
 NMagM=    0.0000000   0.0000000   2.7928460   0.4037610   0.0000000   0.0000000   0.0000000   0.0000000   0.0000000   0.0000000
 AtZNuc=   6.0000000   6.0000000   1.0000000   7.0000000   6.0000000   6.0000000   6.0000000   6.0000000   6.0000000   6.0000000

  Atom       101         102         103         104         105         106         107         108         109         110
 IAtWgt=          16          12          14          12          12          12          12          12          12          12
 AtmWgt=  15.9949146  12.0000000  14.0030740  12.0000000  12.0000000  12.0000000  12.0000000  12.0000000  12.0000000  12.0000000
 NucSpn=           0           0           2           0           0           0           0           0           0           0
 AtZEff=  -0.0000000  -0.0000000  -0.0000000  -0.0000000  -0.0000000  -0.0000000  -0.0000000  -0.0000000  -0.0000000  -0.0000000
 NQMom=    0.0000000   0.0000000   2.0440000   0.0000000   0.0000000   0.0000000   0.0000000   0.0000000   0.0000000   0.0000000
 NMagM=    0.0000000   0.0000000   0.4037610   0.0000000   0.0000000   0.0000000   0.0000000   0.0000000   0.0000000   0.0000000
 AtZNuc=   8.0000000   6.0000000   7.0000000   6.0000000   6.0000000   6.0000000   6.0000000   6.0000000   6.0000000   6.0000000

  Atom       111         112         113         114         115         116         117         118         119         120
 IAtWgt=          14          12          12          12          12          12          12          16          12          12
 AtmWgt=  14.0030740  12.0000000  12.0000000  12.0000000  12.0000000  12.0000000  12.0000000  15.9949146  12.0000000  12.0000000
 NucSpn=           2           0           0           0           0           0           0           0           0           0
 AtZEff=  -0.0000000  -0.0000000  -0.0000000  -0.0000000  -0.0000000  -0.0000000  -0.0000000  -0.0000000  -0.0000000  -0.0000000
 NQMom=    2.0440000   0.0000000   0.0000000   0.0000000   0.0000000   0.0000000   0.0000000   0.0000000   0.0000000   0.0000000
 NMagM=    0.4037610   0.0000000   0.0000000   0.0000000   0.0000000   0.0000000   0.0000000   0.0000000   0.0000000   0.0000000
 AtZNuc=   7.0000000   6.0000000   6.0000000   6.0000000   6.0000000   6.0000000   6.0000000   8.0000000   6.0000000   6.0000000

  Atom       121         122         123         124         125         126         127         128         129         130
 IAtWgt=          16          16          12           1           1           1           1           1           1           1
 AtmWgt=  15.9949146  15.9949146  12.0000000   1.0078250   1.0078250   1.0078250   1.0078250   1.0078250   1.0078250   1.0078250
 NucSpn=           0           0           0           1           1           1           1           1           1           1
 AtZEff=  -0.0000000  -0.0000000  -0.0000000  -0.0000000  -0.0000000  -0.0000000  -0.0000000  -0.0000000  -0.0000000  -0.0000000
 NQMom=    0.0000000   0.0000000   0.0000000   0.0000000   0.0000000   0.0000000   0.0000000   0.0000000   0.0000000   0.0000000
 NMagM=    0.0000000   0.0000000   0.0000000   2.7928460   2.7928460   2.7928460   2.7928460   2.7928460   2.7928460   2.7928460
 AtZNuc=   8.0000000   8.0000000   6.0000000   1.0000000   1.0000000   1.0000000   1.0000000   1.0000000   1.0000000   1.0000000

  Atom       131         132         133         134         135         136         137         138         139         140
 IAtWgt=           1           1           1           1           1           1           1           1           1           1
 AtmWgt=   1.0078250   1.0078250   1.0078250   1.0078250   1.0078250   1.0078250   1.0078250   1.0078250   1.0078250   1.0078250
 NucSpn=           1           1           1           1           1           1           1           1           1           1
 AtZEff=  -0.0000000  -0.0000000  -0.0000000  -0.0000000  -0.0000000  -0.0000000  -0.0000000  -0.0000000  -0.0000000  -0.0000000
 NQMom=    0.0000000   0.0000000   0.0000000   0.0000000   0.0000000   0.0000000   0.0000000   0.0000000   0.0000000   0.0000000
 NMagM=    2.7928460   2.7928460   2.7928460   2.7928460   2.7928460   2.7928460   2.7928460   2.7928460   2.7928460   2.7928460
 AtZNuc=   1.0000000   1.0000000   1.0000000   1.0000000   1.0000000   1.0000000   1.0000000   1.0000000   1.0000000   1.0000000

  Atom       141         142         143         144         145         146         147         148         149         150
 IAtWgt=           1           1           1           1           1           1           1           1           1           1
 AtmWgt=   1.0078250   1.0078250   1.0078250   1.0078250   1.0078250   1.0078250   1.0078250   1.0078250   1.0078250   1.0078250
 NucSpn=           1           1           1           1           1           1           1           1           1           1
 AtZEff=  -0.0000000  -0.0000000  -0.0000000  -0.0000000  -0.0000000  -0.0000000  -0.0000000  -0.0000000  -0.0000000  -0.0000000
 NQMom=    0.0000000   0.0000000   0.0000000   0.0000000   0.0000000   0.0000000   0.0000000   0.0000000   0.0000000   0.0000000
 NMagM=    2.7928460   2.7928460   2.7928460   2.7928460   2.7928460   2.7928460   2.7928460   2.7928460   2.7928460   2.7928460
 AtZNuc=   1.0000000   1.0000000   1.0000000   1.0000000   1.0000000   1.0000000   1.0000000   1.0000000   1.0000000   1.0000000

  Atom       151         152         153         154         155         156         157         158
 IAtWgt=           1           1           1           1           1           1           1           1
 AtmWgt=   1.0078250   1.0078250   1.0078250   1.0078250   1.0078250   1.0078250   1.0078250   1.0078250
 NucSpn=           1           1           1           1           1           1           1           1
 AtZEff=  -0.0000000  -0.0000000  -0.0000000  -0.0000000  -0.0000000  -0.0000000  -0.0000000  -0.0000000
 NQMom=    0.0000000   0.0000000   0.0000000   0.0000000   0.0000000   0.0000000   0.0000000   0.0000000
 NMagM=    2.7928460   2.7928460   2.7928460   2.7928460   2.7928460   2.7928460   2.7928460   2.7928460
 AtZNuc=   1.0000000   1.0000000   1.0000000   1.0000000   1.0000000   1.0000000   1.0000000   1.0000000
 Leave Link  101 at Wed Sep  8 19:08:24 2021, MaxMem= 23488102400 cpu:               3.2 elap:               0.2
 (Enter /sw/apps/gaussian-16.0/g16/l202.exe)
 Stoichiometry    C68H72Mg2N8O8
 Framework group  C1[X(C68H72Mg2N8O8)]
 Deg. of freedom   468
 Full point group                 C1      NOp   1
 Largest Abelian subgroup         C1      NOp   1
 Largest concise Abelian subgroup C1      NOp   1
                         Standard orientation:                         
 ---------------------------------------------------------------------
 Center     Atomic      Atomic             Coordinates (Angstroms)
 Number     Number       Type             X           Y           Z
 ---------------------------------------------------------------------
      1         12           0       -3.794034   -0.976706    0.255509
      2          6           0       -4.122135    1.801923    2.487948
      3          6           0       -4.981146    1.057682   -2.213315
      4          6           0       -3.943585   -3.526518   -1.624043
      5          6           0       -3.728921   -3.037201    3.065453
      6          7           0       -4.434013    1.142504    0.260123
      7          6           0       -4.454426    2.113622    1.167693
      8          6           0       -4.789527    3.512233    0.568555
      9          6           0       -5.574425    3.044824   -0.738144
     10          6           0       -4.934533    1.681295   -0.931143
     11          6           0       -7.071679    2.857636   -0.515222
     12          6           0       -3.502843    4.326408    0.203460
     13          6           0       -3.729390    5.814500   -0.078700
     14          1           0       -2.709687    6.768166    0.331268
     15          7           0       -3.905787   -1.113124   -1.712168
     16          6           0       -4.402930   -0.182179   -2.561566
     17          6           0       -4.264231   -0.753134   -3.918568
     18          6           0       -3.821277   -2.167693   -3.773961
     19          6           0       -3.898758   -2.335756   -2.345280
     20          6           0       -4.493970    0.036143   -5.170770
     21          6           0       -3.405746   -3.206796   -4.766800
     22          8           0       -3.282231   -4.439277   -4.450087
     23          6           0       -3.230564   -2.752962   -6.158342
     24          7           0       -4.051850   -3.011997    0.641203
     25          6           0       -4.020190   -3.911285   -0.348374
     26          6           0       -3.941955   -5.310145    0.187357
     27          6           0       -3.680578   -5.168695    1.756251
     28          6           0       -3.738943   -3.625127    1.866991
     29          6           0       -5.180054   -6.186679   -0.046757
     30          6           0       -2.443978   -5.903251    2.332158
     31          6           0       -1.177452   -5.267915    1.803616
     32          7           0       -3.725565   -0.691307    2.406068
     33          6           0       -3.727966   -1.690832    3.389744
     34          6           0       -3.782931   -1.010530    4.696739
     35          6           0       -3.825695    0.345840    4.380075
     36          6           0       -3.825622    0.501949    2.964475
     37          6           0       -3.846638   -1.649131    5.966606
     38          6           0       -3.896299    1.698693    4.907959
     39          8           0       -3.830608    2.194838    6.033578
     40          6           0       -4.213979    2.690627    3.703396
     41          6           0       -3.257111    3.847284    3.802669
     42          8           0       -2.033772    3.683131    3.618653
     43          8           0       -3.950865    4.994353    3.861676
     44          6           0       -3.060322    6.183542    3.931802
     45          1           0       -5.561474    1.529218   -3.008811
     46          1           0       -3.884744   -4.430759   -2.233406
     47          1           0       -3.626480   -3.612021    3.987700
     48          1           0       -5.437247    4.129939    1.190907
     49          1           0       -5.361843    3.687492   -1.592258
     50          1           0       -7.332372    2.951808    0.538861
     51          1           0       -7.296118    1.853172   -0.874628
     52          1           0       -7.645192    3.536863   -1.146498
     53          1           0       -3.139528    4.005665   -0.772853
     54          1           0       -2.744511    4.218005    0.979673
     55          1           0       -4.713882    6.138946    0.259560
     56          1           0       -3.753444    5.957481   -1.159060
     57          1           0       -4.969130    0.993266   -4.959387
     58          1           0       -5.231231   -0.508886   -5.759921
     59          1           0       -3.579437    0.161044   -5.750736
     60          1           0       -4.167548   -2.328020   -6.518945
     61          1           0       -2.846140   -3.611168   -6.708387
     62          1           0       -2.499905   -1.943791   -6.176499
     63          1           0       -3.115081   -5.856352   -0.264708
     64          1           0       -4.514704   -5.549830    2.345864
     65          1           0       -4.966566   -7.111871   -0.582620
     66          1           0       -5.920490   -5.589130   -0.577775
     67          1           0       -5.726609   -6.456360    0.856553
     68          1           0       -2.438291   -6.944552    2.011837
     69          1           0       -2.404876   -5.891130    3.421458
     70          1           0       -1.048895   -5.750292    0.835309
     71          1           0       -0.337646   -5.487452    2.463723
     72          1           0       -1.313123   -4.201728    1.621068
     73          1           0       -3.157534   -1.108133    6.615008
     74          1           0       -3.577679   -2.702689    5.893944
     75          1           0       -4.897974   -1.502651    6.213776
     76          1           0       -5.250364    3.005388    3.821523
     77          1           0       -3.343975    6.744909    4.822108
     78          1           0       -3.140512    6.687947    2.968708
     79          1           0       -2.008070    5.986180    4.139531
     80         12           0        4.097260   -0.281555   -0.154707
     81          6           0        2.957809    1.993255   -2.685711
     82          6           0        5.683291    2.365228    1.299130
     83          6           0        5.483611   -2.330889    1.831664
     84          6           0        3.406768   -2.878385   -2.374022
     85          7           0        4.228759    1.854153   -0.714830
     86          6           0        3.704042    2.615437   -1.663228
     87          6           0        3.928069    4.138346   -1.462988
     88          6           0        5.241749    4.069102   -0.541946
     89          6           0        5.028325    2.692925    0.085154
     90          6           0        6.534831    4.035211   -1.339518
     91          6           0        2.734323    4.824222   -0.710283
     92          6           0        2.741176    6.353905   -0.752688
     93          1           0        1.461721    7.053893   -0.826622
     94          7           0        4.977190    0.023923    1.597712
     95          6           0        5.548189    1.166484    2.033364
     96          6           0        6.071074    0.868538    3.375742
     97          6           0        5.907590   -0.588620    3.630056
     98          6           0        5.459024   -1.035039    2.326373
     99          6           0        6.582138    1.931519    4.304337
    100          6           0        6.131728   -1.441429    4.841949
    101          8           0        6.153870   -2.720958    4.770164
    102          6           0        6.417327   -0.733192    6.098258
    103          7           0        4.601737   -2.291008   -0.327747
    104          6           0        5.147987   -2.957982    0.704088
    105          6           0        5.169041   -4.445101    0.442495
    106          6           0        4.299312   -4.660664   -0.882158
    107          6           0        3.986536   -3.186896   -1.222139
    108          6           0        6.551918   -5.067141    0.249877
    109          6           0        3.118096   -5.665346   -0.792766
    110          6           0        2.047736   -5.123018    0.126801
    111          7           0        3.155310   -0.464058   -2.090547
    112          6           0        2.993775   -1.641662   -2.852931
    113          6           0        2.400703   -1.244937   -4.146490
    114          6           0        2.278671    0.149780   -4.055153
    115          6           0        2.780240    0.593343   -2.801680
    116          6           0        2.097366   -2.121402   -5.226265
    117          6           0        1.849395    1.348837   -4.738306
    118          8           0        1.263708    1.584528   -5.794317
    119          6           0        2.386557    2.609281   -3.932633
    120          6           0        1.248376    3.580173   -3.776346
    121          8           0        0.252946    3.282422   -3.092920
    122          8           0        1.616100    4.774287   -4.275590
    123          6           0        0.524081    5.773845   -4.133555
    124          1           0        6.402018    3.075393    1.708984
    125          1           0        5.851015   -3.092678    2.523165
    126          1           0        3.071078   -3.640045   -3.081037
    127          1           0        4.139455    4.689705   -2.371339
    128          1           0        5.229779    4.842220    0.221933
    129          1           0        6.351893    3.943763   -2.399858
    130          1           0        7.083035    3.176468   -0.974735
    131          1           0        7.148428    4.908414   -1.100068
    132          1           0        2.853279    4.665657    0.369275
    133          1           0        1.793928    4.456897   -1.072739
    134          1           0        3.435858    6.742216   -1.507395
    135          1           0        3.139417    6.725524    0.194582
    136          1           0        6.733357    2.883841    3.781247
    137          1           0        7.588358    1.628897    4.613879
    138          1           0        5.959189    2.049015    5.193601
    139          1           0        7.304787   -0.117604    5.972089
    140          1           0        6.459332   -1.507207    6.867036
    141          1           0        5.587780   -0.049625    6.310895
    142          1           0        4.707348   -4.987817    1.258206
    143          1           0        4.908404   -5.051769   -1.710339
    144          1           0        6.762765   -5.890312    0.958406
    145          1           0        7.293917   -4.285356    0.343577
    146          1           0        6.749133   -5.454408   -0.748289
    147          1           0        3.455078   -6.608087   -0.354769
    148          1           0        2.674904   -5.897700   -1.755360
    149          1           0        2.410141   -5.404184    1.120135
    150          1           0        1.086974   -5.586260   -0.088541
    151          1           0        2.012113   -4.028137    0.086626
    152          1           0        1.124181   -1.830891   -5.599116
    153          1           0        2.107893   -3.161980   -4.908683
    154          1           0        2.924249   -1.890434   -5.903155
    155          1           0        3.212558    3.035251   -4.503458
    156          1           0        0.323667    6.172274   -5.132943
    157          1           0        0.872854    6.490348   -3.366264
    158          1           0       -0.456276    5.408387   -3.851067
 ---------------------------------------------------------------------
 Rotational constants (GHZ):           0.0210033           0.0159157           0.0152125
 Leave Link  202 at Wed Sep  8 19:08:24 2021, MaxMem= 23488102400 cpu:               0.2 elap:               0.0
 (Enter /sw/apps/gaussian-16.0/g16/l301.exe)
 Standard basis: def2SVP (5D, 7F)
 Ernie: Thresh=  0.10000D-02 Tol=  0.10000D-05 Strict=F.
 There are  1658 symmetry adapted cartesian basis functions of A   symmetry.
 There are  1572 symmetry adapted basis functions of A   symmetry.
  1572 basis functions,  2678 primitive gaussians,  1658 cartesian basis functions
   312 alpha electrons      312 beta electrons
       nuclear repulsion energy     15948.0036498718 Hartrees.
 IExCor=20419 DFT=T Ex+Corr=CAM-B3LYP ExCW=0 ScaHFX=  1.000000
 ScaDFX=  1.000000  1.000000  1.000000  0.810000 ScalE2=  1.000000  1.000000
 IRadAn=      5 IRanWt=     -1 IRanGd=            0 ICorTp=0 IEmpDi=  4
 HFx  wShort=  0.000000 wLong=  0.330000 cFull=  0.190000 cShort=  0.000000 cLong=  0.460000
 DFx  wShort=  0.000000 wLong=  0.330000 cFull=  0.190000 cShort=  0.000000 cLong=  0.460000
 NAtoms=  158 NActive=  158 NUniq=  158 SFac= 1.00D+00 NAtFMM=   60 NAOKFM=T Big=T
 Integral buffers will be    131072 words long.
 Raffenetti 1 integral format.
 Two-electron integral symmetry is turned on.
 Leave Link  301 at Wed Sep  8 19:08:24 2021, MaxMem= 23488102400 cpu:               1.3 elap:               0.1
 (Enter /sw/apps/gaussian-16.0/g16/l302.exe)
 NPDir=0 NMtPBC=     1 NCelOv=     1 NCel=       1 NClECP=     1 NCelD=      1
         NCelK=      1 NCelE2=     1 NClLst=     1 CellRange=     0.0.
 One-electron integrals computed using PRISM.
 One-electron integral symmetry used in STVInt
   1 Symmetry operations used in ECPInt.
 ECPInt:  NShTT=  271216 NPrTT=  987664 LenC2=  163478 LenP2D=  340853.
 LDataN:  DoStor=T MaxTD1= 4 Len=   56
 NBasis=  1572 RedAO= T EigKep=  3.36D-04  NBF=  1572
 NBsUse=  1572 1.00D-06 EigRej= -1.00D+00 NBFU=  1572
 Precomputing XC quadrature grid using
 IXCGrd= 4 IRadAn=           5 IRanWt=          -1 IRanGd=           0 AccXCQ= 0.00D+00.
 Generated NRdTot=       0 NPtTot=           0 NUsed=           0 NTot=          32
 NSgBfM=  1239  1221  1235  1238  1239 MxSgAt=   158 MxSgA2=   158.
 Leave Link  302 at Wed Sep  8 19:08:29 2021, MaxMem= 23488102400 cpu:             123.1 elap:               5.2
 (Enter /sw/apps/gaussian-16.0/g16/l303.exe)
 DipDrv:  MaxL=1.
 Leave Link  303 at Wed Sep  8 19:08:29 2021, MaxMem= 23488102400 cpu:               8.7 elap:               0.4
 (Enter /sw/apps/gaussian-16.0/g16/l308.exe)
 Leave Link  308 at Wed Sep  8 19:08:30 2021, MaxMem= 23488102400 cpu:              12.8 elap:               0.6
 (Enter /sw/apps/gaussian-16.0/g16/l401.exe)
 ExpMin= 3.36D-02 ExpMax= 4.95D+03 ExpMxC= 7.45D+02 IAcc=3 IRadAn=         5 AccDes= 0.00D+00
 Harris functional with IExCor=20419 and IRadAn=       5 diagonalized for initial guess.
 HarFok:  IExCor=20419 AccDes= 0.00D+00 IRadAn=         5 IDoV= 1 UseB2=F ITyADJ=14
 ICtDFT=  3500011 ScaDFX=  1.000000  1.000000  1.000000  1.000000
 FoFCou: FMM=F IPFlag=           0 FMFlag=      100000 FMFlg1=        2001
         NFxFlg=           0 DoJE=T BraDBF=F KetDBF=T FulRan=T
         wScrn=  0.000000 ICntrl=       500 IOpCl=  0 I1Cent=   200000004 NGrid=           0
         NMat0=    1 NMatS0=      1 NMatT0=    0 NMatD0=    1 NMtDS0=    0 NMtDT0=    0
 Petite list used in FoFCou.
 Harris En= -3918.65738873814    
 JPrj=0 DoOrth=F DoCkMO=F.
 Leave Link  401 at Wed Sep  8 19:08:38 2021, MaxMem= 23488102400 cpu:             195.4 elap:               8.2
 (Enter /sw/apps/gaussian-16.0/g16/l502.exe)
 Integral symmetry usage will be decided dynamically.
 Closed shell SCF:
 Using DIIS extrapolation, IDIIS=  1040.
 NGot= 23488102400 LenX= 23482547354 LenY= 23479796732
 Requested convergence on RMS density matrix=1.00D-08 within 128 cycles.
 Requested convergence on MAX density matrix=1.00D-06.
 Requested convergence on             energy=1.00D-06.
 No special actions if energy rises.
 Fock matrices will be formed incrementally for  20 cycles.

 Cycle   1  Pass 1  IDiag  1:
 FoFJK:  IHMeth= 1 ICntrl=       0 DoSepK=T KAlg= 0 I1Cent=           0 FoldK=F
 IRaf=         1 NMat=       1 IRICut=       1 DoRegI=T DoRafI=F ISym2E= 0 IDoP0=0 IntGTp=1.
 FoFCou: FMM=T IPFlag=           0 FMFlag=      100000 FMFlg1=        2001
         NFxFlg=           0 DoJE=T BraDBF=F KetDBF=F FulRan=T
         wScrn=  0.000000 ICntrl=       500 IOpCl=  0 I1Cent=           0 NGrid=           0
         NMat0=    1 NMatS0=      1 NMatT0=    0 NMatD0=    1 NMtDS0=    0 NMtDT0=    0
 Symmetry not used in FoFCou.
 FMM levels:  10  Number of levels for PrismC:   9
 E= -4068.95316381850    
 DIIS: error= 2.03D-02 at cycle   1 NSaved=   1.
 NSaved= 1 IEnMin= 1 EnMin= -4068.95316381850     IErMin= 1 ErrMin= 2.03D-02
 ErrMax= 2.03D-02  0.00D+00 EMaxC= 1.00D-01 BMatC= 1.69D+00 BMatP= 1.69D+00
 IDIUse=3 WtCom= 7.97D-01 WtEn= 2.03D-01
 Coeff-Com:  0.100D+01
 Coeff-En:   0.100D+01
 Coeff:      0.100D+01
 Gap=     0.120 Goal=   None    Shift=    0.000
 GapD=    0.120 DampG=1.000 DampE=0.500 DampFc=0.5000 IDamp=-1.
 Damping current iteration by 5.00D-01
 RMSDP=1.57D-03 MaxDP=1.37D-01              OVMax= 1.87D-01

 Cycle   2  Pass 1  IDiag  1:
 RMSU=  7.67D-04    CP:  9.82D-01
 E= -4069.34221916055     Delta-E=       -0.389055342050 Rises=F Damp=T
 DIIS: error= 1.26D-02 at cycle   2 NSaved=   2.
 NSaved= 2 IEnMin= 2 EnMin= -4069.34221916055     IErMin= 2 ErrMin= 1.26D-02
 ErrMax= 1.26D-02  0.00D+00 EMaxC= 1.00D-01 BMatC= 3.06D-01 BMatP= 1.69D+00
 IDIUse=3 WtCom= 8.74D-01 WtEn= 1.26D-01
 Coeff-Com: -0.217D+00 0.122D+01
 Coeff-En:   0.000D+00 0.100D+01
 Coeff:     -0.189D+00 0.119D+01
 Gap=     0.135 Goal=   None    Shift=    0.000
 RMSDP=7.58D-04 MaxDP=9.21D-02 DE=-3.89D-01 OVMax= 1.89D-01

 Cycle   3  Pass 1  IDiag  1:
 RMSU=  7.23D-04    CP:  9.68D-01  1.25D+00
 E= -4069.63487571074     Delta-E=       -0.292656550195 Rises=F Damp=F
 DIIS: error= 1.56D-02 at cycle   3 NSaved=   3.
 NSaved= 3 IEnMin= 3 EnMin= -4069.63487571074     IErMin= 2 ErrMin= 1.26D-02
 ErrMax= 1.56D-02  0.00D+00 EMaxC= 1.00D-01 BMatC= 1.97D-01 BMatP= 3.06D-01
 IDIUse=3 WtCom= 8.44D-01 WtEn= 1.56D-01
 Coeff-Com: -0.267D+00 0.649D+00 0.618D+00
 Coeff-En:   0.000D+00 0.000D+00 0.100D+01
 Coeff:     -0.226D+00 0.548D+00 0.678D+00
 Gap=     0.120 Goal=   None    Shift=    0.000
 RMSDP=4.92D-04 MaxDP=4.75D-02 DE=-2.93D-01 OVMax= 1.13D-01

 Cycle   4  Pass 1  IDiag  1:
 RMSU=  2.59D-04    CP:  9.65D-01  1.55D+00  5.16D-01
 E= -4069.76946753072     Delta-E=       -0.134591819973 Rises=F Damp=F
 DIIS: error= 7.20D-03 at cycle   4 NSaved=   4.
 NSaved= 4 IEnMin= 4 EnMin= -4069.76946753072     IErMin= 4 ErrMin= 7.20D-03
 ErrMax= 7.20D-03  0.00D+00 EMaxC= 1.00D-01 BMatC= 4.76D-02 BMatP= 1.97D-01
 IDIUse=3 WtCom= 9.28D-01 WtEn= 7.20D-02
 Coeff-Com: -0.108D+00 0.224D+00 0.407D+00 0.477D+00
 Coeff-En:   0.000D+00 0.000D+00 0.211D+00 0.789D+00
 Coeff:     -0.100D+00 0.208D+00 0.393D+00 0.500D+00
 Gap=     0.120 Goal=   None    Shift=    0.000
 RMSDP=1.89D-04 MaxDP=2.06D-02 DE=-1.35D-01 OVMax= 4.40D-02

 Cycle   5  Pass 1  IDiag  1:
 RMSU=  7.24D-05    CP:  9.64D-01  1.50D+00  6.91D-01  5.62D-01
 E= -4069.81175547564     Delta-E=       -0.042287944929 Rises=F Damp=F
 DIIS: error= 7.40D-04 at cycle   5 NSaved=   5.
 NSaved= 5 IEnMin= 5 EnMin= -4069.81175547564     IErMin= 5 ErrMin= 7.40D-04
 ErrMax= 7.40D-04  0.00D+00 EMaxC= 1.00D-01 BMatC= 9.79D-04 BMatP= 4.76D-02
 IDIUse=3 WtCom= 9.93D-01 WtEn= 7.40D-03
 Coeff-Com: -0.333D-01 0.651D-01 0.155D+00 0.240D+00 0.573D+00
 Coeff-En:   0.000D+00 0.000D+00 0.000D+00 0.000D+00 0.100D+01
 Coeff:     -0.331D-01 0.646D-01 0.154D+00 0.239D+00 0.576D+00
 Gap=     0.119 Goal=   None    Shift=    0.000
 RMSDP=3.58D-05 MaxDP=3.80D-03 DE=-4.23D-02 OVMax= 1.07D-02

 Cycle   6  Pass 1  IDiag  1:
 RMSU=  2.74D-05    CP:  9.64D-01  1.50D+00  6.85D-01  6.26D-01  7.91D-01
 E= -4069.81256325483     Delta-E=       -0.000807779186 Rises=F Damp=F
 DIIS: error= 2.73D-04 at cycle   6 NSaved=   6.
 NSaved= 6 IEnMin= 6 EnMin= -4069.81256325483     IErMin= 6 ErrMin= 2.73D-04
 ErrMax= 2.73D-04  0.00D+00 EMaxC= 1.00D-01 BMatC= 1.46D-04 BMatP= 9.79D-04
 IDIUse=3 WtCom= 9.97D-01 WtEn= 2.73D-03
 Coeff-Com:  0.268D-02-0.741D-02 0.817D-02 0.358D-01 0.308D+00 0.653D+00
 Coeff-En:   0.000D+00 0.000D+00 0.000D+00 0.000D+00 0.807D-01 0.919D+00
 Coeff:      0.268D-02-0.739D-02 0.815D-02 0.357D-01 0.307D+00 0.654D+00
 Gap=     0.120 Goal=   None    Shift=    0.000
 RMSDP=1.35D-05 MaxDP=1.03D-03 DE=-8.08D-04 OVMax= 4.50D-03

 Cycle   7  Pass 1  IDiag  1:
 RMSU=  9.48D-06    CP:  9.64D-01  1.50D+00  6.90D-01  6.28D-01  8.77D-01
                    CP:  7.83D-01
 E= -4069.81271480879     Delta-E=       -0.000151553962 Rises=F Damp=F
 DIIS: error= 6.73D-05 at cycle   7 NSaved=   7.
 NSaved= 7 IEnMin= 7 EnMin= -4069.81271480879     IErMin= 7 ErrMin= 6.73D-05
 ErrMax= 6.73D-05  0.00D+00 EMaxC= 1.00D-01 BMatC= 1.35D-05 BMatP= 1.46D-04
 IDIUse=1 WtCom= 1.00D+00 WtEn= 0.00D+00
 Coeff-Com:  0.423D-02-0.914D-02-0.951D-02-0.624D-02 0.853D-01 0.298D+00
 Coeff-Com:  0.637D+00
 Coeff:      0.423D-02-0.914D-02-0.951D-02-0.624D-02 0.853D-01 0.298D+00
 Coeff:      0.637D+00
 Gap=     0.120 Goal=   None    Shift=    0.000
 RMSDP=5.51D-06 MaxDP=8.25D-04 DE=-1.52D-04 OVMax= 2.35D-03

 Cycle   8  Pass 1  IDiag  1:
 RMSU=  4.08D-06    CP:  9.64D-01  1.50D+00  6.91D-01  6.32D-01  8.89D-01
                    CP:  8.98D-01  8.79D-01
 E= -4069.81273193125     Delta-E=       -0.000017122456 Rises=F Damp=F
 DIIS: error= 2.54D-05 at cycle   8 NSaved=   8.
 NSaved= 8 IEnMin= 8 EnMin= -4069.81273193125     IErMin= 8 ErrMin= 2.54D-05
 ErrMax= 2.54D-05  0.00D+00 EMaxC= 1.00D-01 BMatC= 3.64D-06 BMatP= 1.35D-05
 IDIUse=1 WtCom= 1.00D+00 WtEn= 0.00D+00
 Coeff-Com:  0.193D-02-0.379D-02-0.730D-02-0.120D-01-0.181D-01 0.273D-01
 Coeff-Com:  0.368D+00 0.643D+00
 Coeff:      0.193D-02-0.379D-02-0.730D-02-0.120D-01-0.181D-01 0.273D-01
 Coeff:      0.368D+00 0.643D+00
 Gap=     0.120 Goal=   None    Shift=    0.000
 RMSDP=2.97D-06 MaxDP=4.02D-04 DE=-1.71D-05 OVMax= 1.16D-03

 Cycle   9  Pass 1  IDiag  1:
 RMSU=  1.74D-06    CP:  9.64D-01  1.50D+00  6.91D-01  6.33D-01  9.04D-01
                    CP:  9.24D-01  1.08D+00  9.12D-01
 E= -4069.81273770047     Delta-E=       -0.000005769220 Rises=F Damp=F
 DIIS: error= 1.93D-05 at cycle   9 NSaved=   9.
 NSaved= 9 IEnMin= 9 EnMin= -4069.81273770047     IErMin= 9 ErrMin= 1.93D-05
 ErrMax= 1.93D-05  0.00D+00 EMaxC= 1.00D-01 BMatC= 4.97D-07 BMatP= 3.64D-06
 IDIUse=1 WtCom= 1.00D+00 WtEn= 0.00D+00
 Coeff-Com:  0.401D-03-0.658D-03-0.236D-02-0.542D-02-0.216D-01-0.333D-01
 Coeff-Com:  0.111D+00 0.312D+00 0.640D+00
 Coeff:      0.401D-03-0.658D-03-0.236D-02-0.542D-02-0.216D-01-0.333D-01
 Coeff:      0.111D+00 0.312D+00 0.640D+00
 Gap=     0.120 Goal=   None    Shift=    0.000
 RMSDP=1.23D-06 MaxDP=1.10D-04 DE=-5.77D-06 OVMax= 6.29D-04

 Cycle  10  Pass 1  IDiag  1:
 RMSU=  8.71D-07    CP:  9.64D-01  1.50D+00  6.91D-01  6.33D-01  9.06D-01
                    CP:  9.38D-01  1.12D+00  1.08D+00  9.93D-01
 E= -4069.81273887539     Delta-E=       -0.000001174925 Rises=F Damp=F
 DIIS: error= 1.28D-05 at cycle  10 NSaved=  10.
 NSaved=10 IEnMin=10 EnMin= -4069.81273887539     IErMin=10 ErrMin= 1.28D-05
 ErrMax= 1.28D-05  0.00D+00 EMaxC= 1.00D-01 BMatC= 1.78D-07 BMatP= 4.97D-07
 IDIUse=1 WtCom= 1.00D+00 WtEn= 0.00D+00
 Coeff-Com: -0.395D-03 0.828D-03 0.113D-02 0.106D-02-0.430D-02-0.290D-01
 Coeff-Com: -0.498D-01-0.743D-01 0.341D+00 0.814D+00
 Coeff:     -0.395D-03 0.828D-03 0.113D-02 0.106D-02-0.430D-02-0.290D-01
 Coeff:     -0.498D-01-0.743D-01 0.341D+00 0.814D+00
 Gap=     0.120 Goal=   None    Shift=    0.000
 RMSDP=1.06D-06 MaxDP=1.25D-04 DE=-1.17D-06 OVMax= 4.54D-04

 Cycle  11  Pass 1  IDiag  1:
 RMSU=  4.28D-07    CP:  9.64D-01  1.50D+00  6.92D-01  6.34D-01  9.09D-01
                    CP:  9.47D-01  1.17D+00  1.17D+00  1.32D+00  1.31D+00
 E= -4069.81273948155     Delta-E=       -0.000000606160 Rises=F Damp=F
 DIIS: error= 5.03D-06 at cycle  11 NSaved=  11.
 NSaved=11 IEnMin=11 EnMin= -4069.81273948155     IErMin=11 ErrMin= 5.03D-06
 ErrMax= 5.03D-06  0.00D+00 EMaxC= 1.00D-01 BMatC= 3.97D-08 BMatP= 1.78D-07
 IDIUse=1 WtCom= 1.00D+00 WtEn= 0.00D+00
 Coeff-Com: -0.278D-03 0.540D-03 0.114D-02 0.190D-02 0.403D-02-0.717D-02
 Coeff-Com: -0.445D-01-0.129D+00 0.412D-01 0.367D+00 0.765D+00
 Coeff:     -0.278D-03 0.540D-03 0.114D-02 0.190D-02 0.403D-02-0.717D-02
 Coeff:     -0.445D-01-0.129D+00 0.412D-01 0.367D+00 0.765D+00
 Gap=     0.120 Goal=   None    Shift=    0.000
 RMSDP=5.69D-07 MaxDP=4.49D-05 DE=-6.06D-07 OVMax= 3.29D-04

 Cycle  12  Pass 1  IDiag  1:
 RMSU=  2.35D-07    CP:  9.64D-01  1.50D+00  6.91D-01  6.34D-01  9.10D-01
                    CP:  9.49D-01  1.19D+00  1.23D+00  1.47D+00  1.64D+00
                    CP:  1.21D+00
 E= -4069.81273966577     Delta-E=       -0.000000184213 Rises=F Damp=F
 DIIS: error= 3.04D-06 at cycle  12 NSaved=  12.
 NSaved=12 IEnMin=12 EnMin= -4069.81273966577     IErMin=12 ErrMin= 3.04D-06
 ErrMax= 3.04D-06  0.00D+00 EMaxC= 1.00D-01 BMatC= 1.25D-08 BMatP= 3.97D-08
 IDIUse=1 WtCom= 1.00D+00 WtEn= 0.00D+00
 Coeff-Com:  0.124D-04-0.388D-04 0.106D-03 0.393D-03 0.272D-02 0.414D-02
 Coeff-Com:  0.363D-02-0.326D-01-0.543D-01-0.137D+00 0.285D+00 0.928D+00
 Coeff:      0.124D-04-0.388D-04 0.106D-03 0.393D-03 0.272D-02 0.414D-02
 Coeff:      0.363D-02-0.326D-01-0.543D-01-0.137D+00 0.285D+00 0.928D+00
 Gap=     0.120 Goal=   None    Shift=    0.000
 RMSDP=3.86D-07 MaxDP=2.18D-05 DE=-1.84D-07 OVMax= 2.15D-04

 Cycle  13  Pass 1  IDiag  1:
 RMSU=  1.37D-07    CP:  9.64D-01  1.50D+00  6.91D-01  6.34D-01  9.10D-01
                    CP:  9.49D-01  1.20D+00  1.26D+00  1.58D+00  1.86D+00
                    CP:  1.61D+00  1.34D+00
 E= -4069.81273973554     Delta-E=       -0.000000069773 Rises=F Damp=F
 DIIS: error= 1.50D-06 at cycle  13 NSaved=  13.
 NSaved=13 IEnMin=13 EnMin= -4069.81273973554     IErMin=13 ErrMin= 1.50D-06
 ErrMax= 1.50D-06  0.00D+00 EMaxC= 1.00D-01 BMatC= 4.74D-09 BMatP= 1.25D-08
 IDIUse=1 WtCom= 1.00D+00 WtEn= 0.00D+00
 Coeff-Com:  0.109D-03-0.223D-03-0.344D-03-0.436D-03 0.284D-03 0.480D-02
 Coeff-Com:  0.200D-01 0.222D-01-0.430D-01-0.235D+00-0.995D-01 0.566D+00
 Coeff-Com:  0.765D+00
 Coeff:      0.109D-03-0.223D-03-0.344D-03-0.436D-03 0.284D-03 0.480D-02
 Coeff:      0.200D-01 0.222D-01-0.430D-01-0.235D+00-0.995D-01 0.566D+00
 Coeff:      0.765D+00
 Gap=     0.120 Goal=   None    Shift=    0.000
 RMSDP=2.55D-07 MaxDP=1.88D-05 DE=-6.98D-08 OVMax= 1.68D-04

 Cycle  14  Pass 1  IDiag  1:
 RMSU=  7.07D-08    CP:  9.64D-01  1.50D+00  6.91D-01  6.34D-01  9.10D-01
                    CP:  9.49D-01  1.21D+00  1.27D+00  1.64D+00  2.01D+00
                    CP:  1.87D+00  1.79D+00  1.03D+00
 E= -4069.81273975753     Delta-E=       -0.000000021992 Rises=F Damp=F
 DIIS: error= 7.05D-07 at cycle  14 NSaved=  14.
 NSaved=14 IEnMin=14 EnMin= -4069.81273975753     IErMin=14 ErrMin= 7.05D-07
 ErrMax= 7.05D-07  0.00D+00 EMaxC= 1.00D-01 BMatC= 1.11D-09 BMatP= 4.74D-09
 IDIUse=1 WtCom= 1.00D+00 WtEn= 0.00D+00
 Coeff-Com:  0.637D-04-0.126D-03-0.234D-03-0.367D-03-0.533D-03 0.159D-02
 Coeff-Com:  0.116D-01 0.200D-01-0.772D-02-0.102D+00-0.125D+00 0.982D-01
 Coeff-Com:  0.448D+00 0.657D+00
 Coeff:      0.637D-04-0.126D-03-0.234D-03-0.367D-03-0.533D-03 0.159D-02
 Coeff:      0.116D-01 0.200D-01-0.772D-02-0.102D+00-0.125D+00 0.982D-01
 Coeff:      0.448D+00 0.657D+00
 Gap=     0.120 Goal=   None    Shift=    0.000
 RMSDP=8.92D-08 MaxDP=6.39D-06 DE=-2.20D-08 OVMax= 5.24D-05

 Cycle  15  Pass 1  IDiag  1:
 RMSU=  3.59D-08    CP:  9.64D-01  1.50D+00  6.91D-01  6.34D-01  9.10D-01
                    CP:  9.49D-01  1.21D+00  1.28D+00  1.65D+00  2.05D+00
                    CP:  1.96D+00  1.93D+00  1.30D+00  9.29D-01
 E= -4069.81273976066     Delta-E=       -0.000000003132 Rises=F Damp=F
 DIIS: error= 4.28D-07 at cycle  15 NSaved=  15.
 NSaved=15 IEnMin=15 EnMin= -4069.81273976066     IErMin=15 ErrMin= 4.28D-07
 ErrMax= 4.28D-07  0.00D+00 EMaxC= 1.00D-01 BMatC= 1.99D-10 BMatP= 1.11D-09
 IDIUse=1 WtCom= 1.00D+00 WtEn= 0.00D+00
 Coeff-Com:  0.917D-05-0.166D-04-0.448D-04-0.966D-04-0.344D-03-0.273D-03
 Coeff-Com:  0.179D-02 0.454D-02 0.635D-02-0.245D-02-0.405D-01-0.740D-01
 Coeff-Com:  0.719D-01 0.327D+00 0.707D+00
 Coeff:      0.917D-05-0.166D-04-0.448D-04-0.966D-04-0.344D-03-0.273D-03
 Coeff:      0.179D-02 0.454D-02 0.635D-02-0.245D-02-0.405D-01-0.740D-01
 Coeff:      0.719D-01 0.327D+00 0.707D+00
 Gap=     0.120 Goal=   None    Shift=    0.000
 RMSDP=3.69D-08 MaxDP=2.32D-06 DE=-3.13D-09 OVMax= 3.06D-05

 Cycle  16  Pass 1  IDiag  1:
 RMSU=  1.83D-08    CP:  9.64D-01  1.50D+00  6.91D-01  6.34D-01  9.10D-01
                    CP:  9.49D-01  1.21D+00  1.28D+00  1.66D+00  2.07D+00
                    CP:  1.99D+00  2.00D+00  1.36D+00  1.17D+00  1.03D+00
 E= -4069.81273976141     Delta-E=       -0.000000000749 Rises=F Damp=F
 DIIS: error= 1.87D-07 at cycle  16 NSaved=  16.
 NSaved=16 IEnMin=16 EnMin= -4069.81273976141     IErMin=16 ErrMin= 1.87D-07
 ErrMax= 1.87D-07  0.00D+00 EMaxC= 1.00D-01 BMatC= 7.51D-11 BMatP= 1.99D-10
 IDIUse=1 WtCom= 1.00D+00 WtEn= 0.00D+00
 Coeff-Com: -0.124D-04 0.252D-04 0.406D-04 0.454D-04-0.525D-04-0.588D-03
 Coeff-Com: -0.212D-02-0.343D-02 0.616D-02 0.253D-01 0.119D-01-0.717D-01
 Coeff-Com: -0.751D-01-0.101D-01 0.415D+00 0.704D+00
 Coeff:     -0.124D-04 0.252D-04 0.406D-04 0.454D-04-0.525D-04-0.588D-03
 Coeff:     -0.212D-02-0.343D-02 0.616D-02 0.253D-01 0.119D-01-0.717D-01
 Coeff:     -0.751D-01-0.101D-01 0.415D+00 0.704D+00
 Gap=     0.120 Goal=   None    Shift=    0.000
 RMSDP=2.14D-08 MaxDP=1.23D-06 DE=-7.49D-10 OVMax= 1.19D-05

 Cycle  17  Pass 1  IDiag  1:
 RMSU=  1.03D-08    CP:  9.64D-01  1.50D+00  6.91D-01  6.34D-01  9.10D-01
                    CP:  9.49D-01  1.21D+00  1.28D+00  1.66D+00  2.07D+00
                    CP:  2.00D+00  2.03D+00  1.41D+00  1.25D+00  1.33D+00
                    CP:  1.15D+00
 E= -4069.81273976175     Delta-E=       -0.000000000338 Rises=F Damp=F
 DIIS: error= 8.22D-08 at cycle  17 NSaved=  17.
 NSaved=17 IEnMin=17 EnMin= -4069.81273976175     IErMin=17 ErrMin= 8.22D-08
 ErrMax= 8.22D-08  0.00D+00 EMaxC= 1.00D-01 BMatC= 1.51D-11 BMatP= 7.51D-11
 IDIUse=1 WtCom= 1.00D+00 WtEn= 0.00D+00
 Coeff-Com: -0.802D-05 0.157D-04 0.310D-04 0.456D-04 0.714D-04-0.179D-03
 Coeff-Com: -0.139D-02-0.300D-02 0.166D-02 0.118D-01 0.174D-01-0.139D-01
 Coeff-Com: -0.491D-01-0.105D+00 0.106D-01 0.300D+00 0.832D+00
 Coeff:     -0.802D-05 0.157D-04 0.310D-04 0.456D-04 0.714D-04-0.179D-03
 Coeff:     -0.139D-02-0.300D-02 0.166D-02 0.118D-01 0.174D-01-0.139D-01
 Coeff:     -0.491D-01-0.105D+00 0.106D-01 0.300D+00 0.832D+00
 Gap=     0.120 Goal=   None    Shift=    0.000
 RMSDP=1.31D-08 MaxDP=8.46D-07 DE=-3.38D-10 OVMax= 9.68D-06

 Cycle  18  Pass 1  IDiag  1:
 RMSU=  4.89D-09    CP:  9.64D-01  1.50D+00  6.91D-01  6.34D-01  9.10D-01
                    CP:  9.49D-01  1.21D+00  1.28D+00  1.66D+00  2.07D+00
                    CP:  2.01D+00  2.04D+00  1.44D+00  1.32D+00  1.49D+00
                    CP:  1.53D+00  1.38D+00
 E= -4069.81273976180     Delta-E=       -0.000000000047 Rises=F Damp=F
 DIIS: error= 6.46D-08 at cycle  18 NSaved=  18.
 NSaved=18 IEnMin=18 EnMin= -4069.81273976180     IErMin=18 ErrMin= 6.46D-08
 ErrMax= 6.46D-08  0.00D+00 EMaxC= 1.00D-01 BMatC= 5.41D-12 BMatP= 1.51D-11
 IDIUse=1 WtCom= 1.00D+00 WtEn= 0.00D+00
 Coeff-Com:  0.585D-06-0.148D-05 0.674D-06 0.507D-05 0.590D-04 0.138D-03
 Coeff-Com:  0.149D-03-0.291D-03-0.113D-02-0.416D-02 0.416D-02 0.186D-01
 Coeff-Com:  0.856D-02-0.473D-01-0.127D+00-0.136D+00 0.356D+00 0.929D+00
 Coeff:      0.585D-06-0.148D-05 0.674D-06 0.507D-05 0.590D-04 0.138D-03
 Coeff:      0.149D-03-0.291D-03-0.113D-02-0.416D-02 0.416D-02 0.186D-01
 Coeff:      0.856D-02-0.473D-01-0.127D+00-0.136D+00 0.356D+00 0.929D+00
 Gap=     0.120 Goal=   None    Shift=    0.000
 RMSDP=9.92D-09 MaxDP=7.63D-07 DE=-4.73D-11 OVMax= 6.26D-06

 SCF Done:  E(RCAM-B3LYP) =  -4069.81273976     A.U. after   18 cycles
            NFock= 18  Conv=0.99D-08     -V/T= 2.0102
 KE= 4.028800979616D+03 PE=-4.137836274553D+04 EE= 1.733174537628D+04
 Leave Link  502 at Wed Sep  8 19:19:31 2021, MaxMem= 23488102400 cpu:           15084.8 elap:             652.5
 (Enter /sw/apps/gaussian-16.0/g16/l801.exe)
 DoSCS=F DFT=T ScalE2(SS,OS)=  1.000000  1.000000
 ExpMin= 3.36D-02 ExpMax= 4.95D+03 ExpMxC= 7.45D+02 IAcc=3 IRadAn=         5 AccDes= 0.00D+00
 HarFok:  IExCor=  205 AccDes= 0.00D+00 IRadAn=         5 IDoV=-2 UseB2=F ITyADJ=14
 ICtDFT= 12500011 ScaDFX=  1.000000  1.000000  1.000000  1.000000
 GSVD:  LWork=       -9588 too small for GESVD, short by       45590 words or       45590 for optimal perf.
 Largest valence mixing into a core orbital is  2.02D-04
 Largest core mixing into a valence orbital is  5.23D-05
 Range of M.O.s used for correlation:    95  1572
 NBasis=  1572 NAE=   312 NBE=   312 NFC=    94 NFV=     0
 NROrb=   1478 NOA=   218 NOB=   218 NVA=  1260 NVB=  1260
 Leave Link  801 at Wed Sep  8 19:19:31 2021, MaxMem= 23488102400 cpu:               7.5 elap:               0.3
 (Enter /sw/apps/gaussian-16.0/g16/l914.exe)
 RHF ground state
 Two-electron integrals replicated using symmetry.
 MDV= 23488102400 DFT=T DoStab=F Mixed=T DoRPA=T DoScal=F NonHer=T
 Making orbital integer symmetry assigments:
 Orbital symmetries:
       Occupied  (A) (A) (A) (A) (A) (A) (A) (A) (A) (A) (A) (A)
                 (A) (A) (A) (A) (A) (A) (A) (A) (A) (A) (A) (A)
                 (A) (A) (A) (A) (A) (A) (A) (A) (A) (A) (A) (A)
                 (A) (A) (A) (A) (A) (A) (A) (A) (A) (A) (A) (A)
                 (A) (A) (A) (A) (A) (A) (A) (A) (A) (A) (A) (A)
                 (A) (A) (A) (A) (A) (A) (A) (A) (A) (A) (A) (A)
                 (A) (A) (A) (A) (A) (A) (A) (A) (A) (A) (A) (A)
                 (A) (A) (A) (A) (A) (A) (A) (A) (A) (A) (A) (A)
                 (A) (A) (A) (A) (A) (A) (A) (A) (A) (A) (A) (A)
                 (A) (A) (A) (A) (A) (A) (A) (A) (A) (A) (A) (A)
                 (A) (A) (A) (A) (A) (A) (A) (A) (A) (A) (A) (A)
                 (A) (A) (A) (A) (A) (A) (A) (A) (A) (A) (A) (A)
                 (A) (A) (A) (A) (A) (A) (A) (A) (A) (A) (A) (A)
                 (A) (A) (A) (A) (A) (A) (A) (A) (A) (A) (A) (A)
                 (A) (A) (A) (A) (A) (A) (A) (A) (A) (A) (A) (A)
                 (A) (A) (A) (A) (A) (A) (A) (A) (A) (A) (A) (A)
                 (A) (A) (A) (A) (A) (A) (A) (A) (A) (A) (A) (A)
                 (A) (A) (A) (A) (A) (A) (A) (A) (A) (A) (A) (A)
                 (A) (A) (A) (A) (A) (A) (A) (A) (A) (A) (A) (A)
                 (A) (A) (A) (A) (A) (A) (A) (A) (A) (A) (A) (A)
                 (A) (A) (A) (A) (A) (A) (A) (A) (A) (A) (A) (A)
                 (A) (A) (A) (A) (A) (A) (A) (A) (A) (A) (A) (A)
                 (A) (A) (A) (A) (A) (A) (A) (A) (A) (A) (A) (A)
                 (A) (A) (A) (A) (A) (A) (A) (A) (A) (A) (A) (A)
                 (A) (A) (A) (A) (A) (A) (A) (A) (A) (A) (A) (A)
                 (A) (A) (A) (A) (A) (A) (A) (A) (A) (A) (A) (A)
       Virtual   (A) (A) (A) (A) (A) (A) (A) (A) (A) (A) (A) (A)
                 (A) (A) (A) (A) (A) (A) (A) (A) (A) (A) (A) (A)
                 (A) (A) (A) (A) (A) (A) (A) (A) (A) (A) (A) (A)
                 (A) (A) (A) (A) (A) (A) (A) (A) (A) (A) (A) (A)
                 (A) (A) (A) (A) (A) (A) (A) (A) (A) (A) (A) (A)
                 (A) (A) (A) (A) (A) (A) (A) (A) (A) (A) (A) (A)
                 (A) (A) (A) (A) (A) (A) (A) (A) (A) (A) (A) (A)
                 (A) (A) (A) (A) (A) (A) (A) (A) (A) (A) (A) (A)
                 (A) (A) (A) (A) (A) (A) (A) (A) (A) (A) (A) (A)
                 (A) (A) (A) (A) (A) (A) (A) (A) (A) (A) (A) (A)
                 (A) (A) (A) (A) (A) (A) (A) (A) (A) (A) (A) (A)
                 (A) (A) (A) (A) (A) (A) (A) (A) (A) (A) (A) (A)
                 (A) (A) (A) (A) (A) (A) (A) (A) (A) (A) (A) (A)
                 (A) (A) (A) (A) (A) (A) (A) (A) (A) (A) (A) (A)
                 (A) (A) (A) (A) (A) (A) (A) (A) (A) (A) (A) (A)
                 (A) (A) (A) (A) (A) (A) (A) (A) (A) (A) (A) (A)
                 (A) (A) (A) (A) (A) (A) (A) (A) (A) (A) (A) (A)
                 (A) (A) (A) (A) (A) (A) (A) (A) (A) (A) (A) (A)
                 (A) (A) (A) (A) (A) (A) (A) (A) (A) (A) (A) (A)
                 (A) (A) (A) (A) (A) (A) (A) (A) (A) (A) (A) (A)
                 (A) (A) (A) (A) (A) (A) (A) (A) (A) (A) (A) (A)
                 (A) (A) (A) (A) (A) (A) (A) (A) (A) (A) (A) (A)
                 (A) (A) (A) (A) (A) (A) (A) (A) (A) (A) (A) (A)
                 (A) (A) (A) (A) (A) (A) (A) (A) (A) (A) (A) (A)
                 (A) (A) (A) (A) (A) (A) (A) (A) (A) (A) (A) (A)
                 (A) (A) (A) (A) (A) (A) (A) (A) (A) (A) (A) (A)
                 (A) (A) (A) (A) (A) (A) (A) (A) (A) (A) (A) (A)
                 (A) (A) (A) (A) (A) (A) (A) (A) (A) (A) (A) (A)
                 (A) (A) (A) (A) (A) (A) (A) (A) (A) (A) (A) (A)
                 (A) (A) (A) (A) (A) (A) (A) (A) (A) (A) (A) (A)
                 (A) (A) (A) (A) (A) (A) (A) (A) (A) (A) (A) (A)
                 (A) (A) (A) (A) (A) (A) (A) (A) (A) (A) (A) (A)
                 (A) (A) (A) (A) (A) (A) (A) (A) (A) (A) (A) (A)
                 (A) (A) (A) (A) (A) (A) (A) (A) (A) (A) (A) (A)
                 (A) (A) (A) (A) (A) (A) (A) (A) (A) (A) (A) (A)
                 (A) (A) (A) (A) (A) (A) (A) (A) (A) (A) (A) (A)
                 (A) (A) (A) (A) (A) (A) (A) (A) (A) (A) (A) (A)
                 (A) (A) (A) (A) (A) (A) (A) (A) (A) (A) (A) (A)
                 (A) (A) (A) (A) (A) (A) (A) (A) (A) (A) (A) (A)
                 (A) (A) (A) (A) (A) (A) (A) (A) (A) (A) (A) (A)
                 (A) (A) (A) (A) (A) (A) (A) (A) (A) (A) (A) (A)
                 (A) (A) (A) (A) (A) (A) (A) (A) (A) (A) (A) (A)
                 (A) (A) (A) (A) (A) (A) (A) (A) (A) (A) (A) (A)
                 (A) (A) (A) (A) (A) (A) (A) (A) (A) (A) (A) (A)
                 (A) (A) (A) (A) (A) (A) (A) (A) (A) (A) (A) (A)
                 (A) (A) (A) (A) (A) (A) (A) (A) (A) (A) (A) (A)
                 (A) (A) (A) (A) (A) (A) (A) (A) (A) (A) (A) (A)
                 (A) (A) (A) (A) (A) (A) (A) (A) (A) (A) (A) (A)
                 (A) (A) (A) (A) (A) (A) (A) (A) (A) (A) (A) (A)
                 (A) (A) (A) (A) (A) (A) (A) (A) (A) (A) (A) (A)
                 (A) (A) (A) (A) (A) (A) (A) (A) (A) (A) (A) (A)
                 (A) (A) (A) (A) (A) (A) (A) (A) (A) (A) (A) (A)
                 (A) (A) (A) (A) (A) (A) (A) (A) (A) (A) (A) (A)
                 (A) (A) (A) (A) (A) (A) (A) (A) (A) (A) (A) (A)
                 (A) (A) (A) (A) (A) (A) (A) (A) (A) (A) (A) (A)
                 (A) (A) (A) (A) (A) (A) (A) (A) (A) (A) (A) (A)
                 (A) (A) (A) (A) (A) (A) (A) (A) (A) (A) (A) (A)
                 (A) (A) (A) (A) (A) (A) (A) (A) (A) (A) (A) (A)
                 (A) (A) (A) (A) (A) (A) (A) (A) (A) (A) (A) (A)
                 (A) (A) (A) (A) (A) (A) (A) (A) (A) (A) (A) (A)
                 (A) (A) (A) (A) (A) (A) (A) (A) (A) (A) (A) (A)
                 (A) (A) (A) (A) (A) (A) (A) (A) (A) (A) (A) (A)
                 (A) (A) (A) (A) (A) (A) (A) (A) (A) (A) (A) (A)
                 (A) (A) (A) (A) (A) (A) (A) (A) (A) (A) (A) (A)
                 (A) (A) (A) (A) (A) (A) (A) (A) (A) (A) (A) (A)
                 (A) (A) (A) (A) (A) (A) (A) (A) (A) (A) (A) (A)
                 (A) (A) (A) (A) (A) (A) (A) (A) (A) (A) (A) (A)
                 (A) (A) (A) (A) (A) (A) (A) (A) (A) (A) (A) (A)
                 (A) (A) (A) (A) (A) (A) (A) (A) (A) (A) (A) (A)
                 (A) (A) (A) (A) (A) (A) (A) (A) (A) (A) (A) (A)
                 (A) (A) (A) (A) (A) (A) (A) (A) (A) (A) (A) (A)
                 (A) (A) (A) (A) (A) (A) (A) (A) (A) (A) (A) (A)
                 (A) (A) (A) (A) (A) (A) (A) (A) (A) (A) (A) (A)
                 (A) (A) (A) (A) (A) (A) (A) (A) (A) (A) (A) (A)
                 (A) (A) (A) (A) (A) (A) (A) (A) (A) (A) (A) (A)
                 (A) (A) (A) (A) (A) (A) (A) (A) (A) (A) (A) (A)
                 (A) (A) (A) (A) (A) (A) (A) (A) (A) (A) (A) (A)
                 (A) (A) (A) (A) (A) (A) (A) (A) (A) (A) (A) (A)
                 (A) (A) (A) (A) (A) (A) (A) (A) (A) (A) (A) (A)
                 (A) (A) (A) (A) (A) (A) (A) (A) (A) (A) (A) (A)
                 (A) (A) (A) (A) (A) (A) (A) (A) (A) (A) (A) (A)
                 (A) (A) (A) (A) (A) (A) (A) (A) (A) (A) (A) (A)
                 (A) (A) (A) (A) (A) (A) (A) (A) (A) (A) (A) (A)
                 (A) (A) (A) (A) (A) (A) (A) (A) (A) (A) (A) (A)
                 (A) (A) (A) (A) (A) (A) (A) (A) (A) (A) (A) (A)
                 (A) (A) (A) (A) (A) (A) (A) (A) (A) (A) (A) (A)
                 (A) (A) (A) (A) (A) (A) (A) (A) (A) (A) (A) (A)
                 (A) (A) (A) (A) (A) (A) (A) (A) (A) (A) (A) (A)
                 (A) (A) (A) (A) (A) (A) (A) (A) (A) (A) (A) (A)
                 (A) (A) (A) (A) (A) (A) (A) (A) (A) (A) (A) (A)
                 (A) (A) (A) (A) (A) (A) (A) (A) (A) (A) (A) (A)
                 (A) (A) (A) (A) (A) (A) (A) (A) (A) (A) (A) (A)
                 (A) (A) (A) (A) (A) (A) (A) (A) (A) (A) (A) (A)
                 (A) (A) (A) (A) (A) (A) (A) (A) (A) (A) (A) (A)
                 (A) (A) (A) (A) (A) (A) (A) (A) (A) (A) (A) (A)
                 (A) (A) (A) (A) (A) (A) (A) (A) (A) (A) (A) (A)
                 (A) (A) (A) (A) (A) (A) (A) (A) (A) (A) (A) (A)
                 (A) (A) (A) (A) (A) (A) (A) (A) (A) (A) (A) (A)
                 (A) (A) (A) (A) (A) (A) (A) (A) (A) (A) (A) (A)
                 (A) (A) (A) (A) (A) (A) (A) (A) (A) (A) (A) (A)
                 (A) (A) (A) (A) (A) (A) (A) (A) (A) (A) (A) (A)
                 (A) (A) (A) (A) (A) (A) (A) (A) (A) (A) (A) (A)
                 (A) (A) (A) (A) (A) (A) (A) (A) (A) (A) (A) (A)
                 (A) (A) (A) (A) (A) (A) (A) (A) (A) (A) (A) (A)
                 (A) (A) (A) (A) (A) (A) (A) (A) (A) (A) (A) (A)
    20 initial guesses have been made.
 Convergence on wavefunction:    0.001000000000000
 Davidson Disk Diagonalization:  ConvIn= 1.00D-03 SkipCon=T Conv= 1.00D-03.
 Max sub-space:  2000 roots to seek:    20 dimension of matrix:       549360
 Iteration     1 Dimension    20 NMult     0 NNew     20
 CISAX will form    20 AO SS matrices at one time.
 NMat=    20 NSing=    20 JSym2X= 0.
 FoFJK:  IHMeth= 1 ICntrl=       0 DoSepK=T KAlg= 0 I1Cent=           0 FoldK=F
 IRaf=         1 NMat=      40 IRICut=       1 DoRegI=T DoRafI=F ISym2E= 0 IDoP0=3 IntGTp=3.
 FoFCou: FMM=T IPFlag=           0 FMFlag=      100000 FMFlg1=        2001
         NFxFlg=           0 DoJE=F BraDBF=F KetDBF=F FulRan=T
         wScrn=  0.000000 ICntrl=       500 IOpCl=  0 I1Cent=           0 NGrid=           0
         NMat0=   20 NMatS0=     20 NMatT0=    0 NMatD0=   20 NMtDS0=    0 NMtDT0=    0
 Symmetry not used in FoFCou.
 FMM levels:  10  Number of levels for PrismC:   9
 New state      2 was old state      4
 New state      3 was old state      2
 New state      4 was old state      6
 New state      5 was old state      7
 Excitation Energies [eV] at current iteration:
 Root      1 :     2.285214445217175
 Root      2 :     2.472390181991714
 Root      3 :     2.587291303387150
 Root      4 :     2.613143711610828
 Root      5 :     2.631955331361226
 Root      6 :     2.771818562111162
 Root      7 :     3.083690934762107
 Root      8 :     3.258812070688555
 Root      9 :     3.642879404695936
 Root     10 :     3.679910714784837
 Root     11 :     3.727772546781398
 Root     12 :     3.750558233611025
 Root     13 :     4.234695864392970
 Root     14 :     4.240211403175353
 Root     15 :     4.363222607104042
 Root     16 :     4.368989085301687
 Root     17 :     4.470620365757142
 Root     18 :     4.572685502835504
 Root     19 :     4.692917494156893
 Root     20 :     4.745299539055215
 Iteration     2 Dimension    30 NMult    20 NNew     10
 CISAX will form    10 AO SS matrices at one time.
 NMat=    10 NSing=    10 JSym2X= 0.
 New state      1 was old state      3
 Root      1 not converged, maximum delta is    0.202353101304223
 New state      2 was old state      4
 Root      2 not converged, maximum delta is    0.066804142010718
 New state      3 was old state      5
 Root      3 not converged, maximum delta is    0.124349017168237
 New state      4 was old state      1
 Root      4 not converged, maximum delta is    0.003308661314665
 New state      5 was old state      2
 Root      5 not converged, maximum delta is    0.009954717048534
 Excitation Energies [eV] at current iteration:
 Root      1 :     1.759384984589438   Change is   -0.827906318797712
 Root      2 :     2.226923957863929   Change is   -0.386219753746900
 Root      3 :     2.246902147910098   Change is   -0.385053183451128
 Root      4 :     2.283882058165945   Change is   -0.001332387051230
 Root      5 :     2.469749275882162   Change is   -0.002640906109553
 Iteration     3 Dimension    40 NMult    30 NNew     10
 CISAX will form    10 AO SS matrices at one time.
 NMat=    10 NSing=    10 JSym2X= 0.
 Root      1 not converged, maximum delta is    0.054112171609242
 No map to state      2
 New state      3 was old state      2
 Root      3 not converged, maximum delta is    0.049919487149800
 New state      4 was old state      3
 Root      4 not converged, maximum delta is    0.048963313917607
 New state      5 was old state      4
 Root      5 not converged, maximum delta is    0.001811291914213
 Excitation Energies [eV] at current iteration:
 Root      1 :     1.656136263146711   Change is   -0.103248721442727
 Root      2 :     1.874997525937409
 Root      3 :     2.188723985474334   Change is   -0.038199972389594
 Root      4 :     2.206019271719202   Change is   -0.040882876190896
 Root      5 :     2.283876372605406   Change is   -0.000005685560539
 Iteration     4 Dimension    50 NMult    40 NNew     10
 CISAX will form    10 AO SS matrices at one time.
 NMat=    10 NSing=    10 JSym2X= 0.
 Root      1 not converged, maximum delta is    0.011194820780656
 Root      2 not converged, maximum delta is    0.034498995386280
 Root      3 not converged, maximum delta is    0.015968062967943
 Root      4 not converged, maximum delta is    0.015855109573573
 Root      5 has converged.
 Excitation Energies [eV] at current iteration:
 Root      1 :     1.639488444724865   Change is   -0.016647818421846
 Root      2 :     1.728167119947318   Change is   -0.146830405990091
 Root      3 :     2.180272074785103   Change is   -0.008451910689231
 Root      4 :     2.198649202550383   Change is   -0.007370069168819
 Root      5 :     2.283874241417827   Change is   -0.000002131187578
 Iteration     5 Dimension    58 NMult    50 NNew      8
 CISAX will form     8 AO SS matrices at one time.
 NMat=     8 NSing=     8 JSym2X= 0.
 Root      1 not converged, maximum delta is    0.002718843773095
 Root      2 not converged, maximum delta is    0.009362922777093
 Root      3 not converged, maximum delta is    0.002009677833841
 Root      4 not converged, maximum delta is    0.001819352607471
 Root      5 has converged.
 Excitation Energies [eV] at current iteration:
 Root      1 :     1.637781230493454   Change is   -0.001707214231411
 Root      2 :     1.712436353620386   Change is   -0.015730766326931
 Root      3 :     2.179408524771110   Change is   -0.000863550013993
 Root      4 :     2.197811230144515   Change is   -0.000837972405868
 Root      5 :     2.283874183787905   Change is   -0.000000057629923
 Iteration     6 Dimension    66 NMult    58 NNew      8
 CISAX will form     8 AO SS matrices at one time.
 NMat=     8 NSing=     8 JSym2X= 0.
 Root      1 has converged.
 Root      2 not converged, maximum delta is    0.003077278646183
 Root      3 has converged.
 Root      4 has converged.
 Root      5 has converged.
 Excitation Energies [eV] at current iteration:
 Root      1 :     1.637547679204112   Change is   -0.000233551289343
 Root      2 :     1.710768324304911   Change is   -0.001668029315475
 Root      3 :     2.179274350368524   Change is   -0.000134174402586
 Root      4 :     2.197691191745752   Change is   -0.000120038398763
 Root      5 :     2.283874179623310   Change is   -0.000000004164595
 Iteration     7 Dimension    68 NMult    66 NNew      2
 CISAX will form     2 AO SS matrices at one time.
 NMat=     2 NSing=     2 JSym2X= 0.
 Root      1 has converged.
 Root      2 has converged.
 Root      3 has converged.
 Root      4 has converged.
 Root      5 has converged.
 Excitation Energies [eV] at current iteration:
 Root      1 :     1.637547368841618   Change is   -0.000000310362494
 Root      2 :     1.710567918350329   Change is   -0.000200405954583
 Root      3 :     2.179274274574587   Change is   -0.000000075793937
 Root      4 :     2.197691114057148   Change is   -0.000000077688604
 Root      5 :     2.283874177498827   Change is   -0.000000002124483
 Convergence achieved on expansion vectors.
 ***********************************************************************
 Excited states from <AA,BB:AA,BB> singles matrix:
 ***********************************************************************
 
 1PDM for each excited state written to RWF  633
 Ground to excited state transition densities written to RWF  633
 Ground to excited state transition electric dipole moments (Au):
       state          X           Y           Z        Dip. S.      Osc.
         1        -1.0372      0.1627      0.0481      1.1045      0.0443
         2         1.1143      0.3877      3.7645     15.5632      0.6522
         3        -0.0316      0.3880     -0.2231      0.2013      0.0108
         4        -0.1840      1.7011     -0.0869      2.9352      0.1580
         5         0.0004      0.0007      0.0014      0.0000      0.0000
 Ground to excited state transition velocity dipole moments (Au):
       state          X           Y           Z        Dip. S.      Osc.
[...]
 Alpha virt. eigenvalues --    1.84645   1.84864   1.85140   1.85241   1.85305
 Alpha virt. eigenvalues --    1.85411   1.85510   1.85684   1.85844   1.85917
 Alpha virt. eigenvalues --    1.86205   1.86295   1.86549   1.86638   1.86817
 Alpha virt. eigenvalues --    1.86923   1.86994   1.87256   1.87500   1.87642
 Alpha virt. eigenvalues --    1.87756   1.87822   1.88122   1.88181   1.88283
 Alpha virt. eigenvalues --    1.88307   1.88461   1.88663   1.88965   1.89039
 Alpha virt. eigenvalues --    1.89086   1.89281   1.89538   1.89740   1.89925
 Alpha virt. eigenvalues --    1.90117   1.90222   1.90267   1.90583   1.90928
 Alpha virt. eigenvalues --    1.91071   1.91216   1.91599   1.91671   1.91867
 Alpha virt. eigenvalues --    1.92183   1.92598   1.92651   1.93077   1.93165
 Alpha virt. eigenvalues --    1.93371   1.93586   1.93691   1.93920   1.94568
 Alpha virt. eigenvalues --    1.94800   1.94896   1.95173   1.95528   1.95848
 Alpha virt. eigenvalues --    1.96074   1.96182   1.96211   1.96409   1.96527
 Alpha virt. eigenvalues --    1.96601   1.96962   1.97104   1.97219   1.97589
 Alpha virt. eigenvalues --    1.97777   1.97874   1.98201   1.98255   1.98431
 Alpha virt. eigenvalues --    1.98619   1.98730   1.99037   1.99240   1.99682
 Alpha virt. eigenvalues --    1.99997   2.00322   2.00819   2.01116   2.01137
 Alpha virt. eigenvalues --    2.01496   2.01618   2.01778   2.01944   2.02008
 Alpha virt. eigenvalues --    2.02197   2.02703   2.03105   2.03232   2.03322
 Alpha virt. eigenvalues --    2.03495   2.03558   2.03854   2.03935   2.04054
 Alpha virt. eigenvalues --    2.04405   2.05078   2.05360   2.05496   2.05772
 Alpha virt. eigenvalues --    2.06287   2.06536   2.06587   2.07023   2.07337
 Alpha virt. eigenvalues --    2.07447   2.07813   2.08799   2.09047   2.09205
 Alpha virt. eigenvalues --    2.09478   2.09726   2.10119   2.11084   2.11479
 Alpha virt. eigenvalues --    2.11585   2.11664   2.11758   2.11967   2.12123
 Alpha virt. eigenvalues --    2.12350   2.12543   2.12890   2.12957   2.13015
 Alpha virt. eigenvalues --    2.13319   2.13389   2.13705   2.14334   2.14356
 Alpha virt. eigenvalues --    2.14532   2.15530   2.15839   2.16132   2.16363
 Alpha virt. eigenvalues --    2.16650   2.17101   2.17208   2.17346   2.17763
 Alpha virt. eigenvalues --    2.17969   2.18014   2.18138   2.18322   2.18595
 Alpha virt. eigenvalues --    2.18621   2.18891   2.19272   2.19399   2.19852
 Alpha virt. eigenvalues --    2.20160   2.20314   2.20460   2.20631   2.20730
 Alpha virt. eigenvalues --    2.21301   2.21790   2.21855   2.22163   2.22217
 Alpha virt. eigenvalues --    2.22592   2.22937   2.23451   2.23511   2.23900
 Alpha virt. eigenvalues --    2.24663   2.25028   2.25211   2.25831   2.26485
 Alpha virt. eigenvalues --    2.26771   2.27078   2.27281   2.27390   2.27578
 Alpha virt. eigenvalues --    2.28404   2.28687   2.29542   2.29785   2.29953
 Alpha virt. eigenvalues --    2.30243   2.30575   2.30722   2.31201   2.31313
 Alpha virt. eigenvalues --    2.31529   2.31637   2.32345   2.32775   2.33294
 Alpha virt. eigenvalues --    2.33626   2.33677   2.34056   2.34383   2.34723
 Alpha virt. eigenvalues --    2.35308   2.35791   2.35973   2.36304   2.36370
 Alpha virt. eigenvalues --    2.36460   2.37131   2.37281   2.37920   2.38480
 Alpha virt. eigenvalues --    2.38773   2.38851   2.38966   2.39424   2.39759
 Alpha virt. eigenvalues --    2.40140   2.40463   2.40825   2.40904   2.40983
 Alpha virt. eigenvalues --    2.41346   2.41738   2.41893   2.42129   2.42446
 Alpha virt. eigenvalues --    2.42464   2.42850   2.43174   2.43579   2.43815
 Alpha virt. eigenvalues --    2.44134   2.44628   2.44889   2.45086   2.45246
 Alpha virt. eigenvalues --    2.45400   2.45739   2.46029   2.46372   2.46539
 Alpha virt. eigenvalues --    2.46753   2.46936   2.46998   2.47288   2.47531
 Alpha virt. eigenvalues --    2.47740   2.48104   2.48260   2.49542   2.49860
 Alpha virt. eigenvalues --    2.50198   2.50551   2.50821   2.51187   2.51331
 Alpha virt. eigenvalues --    2.51652   2.51818   2.52417   2.52472   2.52945
 Alpha virt. eigenvalues --    2.53228   2.53297   2.54086   2.54364   2.54410
 Alpha virt. eigenvalues --    2.54634   2.54913   2.55449   2.55714   2.55986
 Alpha virt. eigenvalues --    2.58162   2.58427   2.58974   2.59161   2.60292
 Alpha virt. eigenvalues --    2.60670   2.60982   2.61102   2.61921   2.62216
 Alpha virt. eigenvalues --    2.62500   2.63013   2.63191   2.63412   2.64271
 Alpha virt. eigenvalues --    2.64443   2.64558   2.64725   2.65181   2.65532
 Alpha virt. eigenvalues --    2.65913   2.66293   2.66922   2.67125   2.67292
 Alpha virt. eigenvalues --    2.67391   2.68034   2.68379   2.68878   2.69020
 Alpha virt. eigenvalues --    2.69327   2.69462   2.69666   2.69834   2.70200
 Alpha virt. eigenvalues --    2.70459   2.71084   2.71393   2.71886   2.72414
 Alpha virt. eigenvalues --    2.72507   2.72727   2.73059   2.73208   2.73281
 Alpha virt. eigenvalues --    2.73390   2.73736   2.73856   2.74526   2.74964
 Alpha virt. eigenvalues --    2.75072   2.75440   2.76627   2.77024   2.77062
 Alpha virt. eigenvalues --    2.77656   2.77694   2.77943   2.78368   2.78645
 Alpha virt. eigenvalues --    2.78709   2.79144   2.79172   2.79586   2.80302
 Alpha virt. eigenvalues --    2.80633   2.80815   2.81071   2.81137   2.81547
 Alpha virt. eigenvalues --    2.81944   2.82362   2.82417   2.82790   2.83816
 Alpha virt. eigenvalues --    2.83918   2.84168   2.84330   2.84594   2.84944
 Alpha virt. eigenvalues --    2.85021   2.85344   2.85756   2.86263   2.86626
 Alpha virt. eigenvalues --    2.87105   2.87423   2.87974   2.88301   2.88560
 Alpha virt. eigenvalues --    2.88834   2.88938   2.89069   2.89441   2.90780
 Alpha virt. eigenvalues --    2.91018   2.91194   2.91741   2.93353   2.93649
 Alpha virt. eigenvalues --    2.93840   2.94547   2.94713   2.95185   2.95539
 Alpha virt. eigenvalues --    2.95650   2.95822   2.96394   2.96616   2.96690
 Alpha virt. eigenvalues --    2.97344   2.97692   2.98138   2.98259   2.98338
 Alpha virt. eigenvalues --    2.98622   2.98724   2.98812   2.98898   2.98980
 Alpha virt. eigenvalues --    2.99028   2.99349   2.99852   2.99963   3.00247
 Alpha virt. eigenvalues --    3.00428   3.00644   3.00877   3.00969   3.01077
 Alpha virt. eigenvalues --    3.02048   3.02107   3.02526   3.02594   3.02763
 Alpha virt. eigenvalues --    3.03111   3.03385   3.03506   3.03776   3.03908
 Alpha virt. eigenvalues --    3.04305   3.04659   3.04739   3.04925   3.05074
 Alpha virt. eigenvalues --    3.05392   3.05659   3.05778   3.06234   3.06753
 Alpha virt. eigenvalues --    3.07040   3.07403   3.08068   3.08738   3.09451
 Alpha virt. eigenvalues --    3.09913   3.10153   3.10497   3.10819   3.10959
 Alpha virt. eigenvalues --    3.11577   3.11724   3.12305   3.12421   3.12634
 Alpha virt. eigenvalues --    3.13031   3.13706   3.13772   3.13830   3.14134
 Alpha virt. eigenvalues --    3.14316   3.14445   3.16217   3.16479   3.17508
 Alpha virt. eigenvalues --    3.17716   3.17982   3.18553   3.19100   3.19629
 Alpha virt. eigenvalues --    3.22453   3.22639   3.24392   3.24426   3.25071
 Alpha virt. eigenvalues --    3.25101   3.26675   3.26992   3.27408   3.28095
 Alpha virt. eigenvalues --    3.29018   3.29423   3.31385   3.31991   3.33227
 Alpha virt. eigenvalues --    3.33907   3.40028   3.40906   3.42873   3.43306
 Alpha virt. eigenvalues --    3.48649   3.49096   3.50316   3.50526   3.50873
 Alpha virt. eigenvalues --    3.51967   3.57019   3.57038   3.59388   3.59563
 Alpha virt. eigenvalues --    3.62495   3.63290   3.66173   3.66625   3.67365
 Alpha virt. eigenvalues --    3.67497   3.73603   3.73857   3.76406   3.76547
          Condensed to atoms (all electrons):
 Mulliken charges:
               1
     1  Mg   0.841701
     2  C   -0.002568
     3  C   -0.087463
     4  C   -0.047884
     5  C   -0.064778
     6  N   -0.256890
     7  C   -0.051684
     8  C   -0.014860
     9  C   -0.088298
    10  C    0.049512
    11  C    0.105011
    12  C    0.050933
    13  C   -0.069666
    14  H    0.030301
    15  N   -0.433482
    16  C    0.172751
    17  C   -0.172360
    18  C   -0.003651
    19  C    0.149719
    20  C    0.109737
    21  C    0.011278
    22  O   -0.252710
    23  C    0.059644
    24  N   -0.341166
    25  C    0.042263
    26  C   -0.029168
    27  C   -0.023975
    28  C    0.073773
    29  C    0.076881
    30  C    0.042382
    31  C   -0.019755
    32  N   -0.309976
    33  C    0.079235
    34  C   -0.171061
    35  C    0.007397
    36  C    0.082100
    37  C    0.127683
    38  C    0.044901
    39  O   -0.191149
    40  C   -0.005298
    41  C    0.212816
    42  O   -0.257813
    43  O   -0.304595
    44  C    0.158763
    45  H   -0.018228
    46  H   -0.018708
    47  H   -0.042984
    48  H   -0.001073
    49  H   -0.003109
    50  H    0.024621
    51  H    0.016113
    52  H    0.015616
    53  H    0.023953
    54  H    0.043347
    55  H    0.016189
    56  H    0.016868
    57  H    0.005830
    58  H    0.024197
    59  H    0.049646
    60  H    0.037277
    61  H    0.033217
    62  H    0.038793
    63  H    0.015221
    64  H    0.008792
    65  H    0.021718
    66  H    0.012733
    67  H    0.004293
    68  H    0.003802
    69  H    0.003310
    70  H    0.017029
    71  H    0.021751
    72  H    0.030562
    73  H    0.045958
    74  H    0.008428
    75  H    0.044880
    76  H    0.034295
    77  H    0.041697
    78  H    0.046320
    79  H    0.051645
    80  Mg   0.840176
    81  C   -0.017043
    82  C   -0.086546
    83  C   -0.045481
    84  C   -0.064433
    85  N   -0.254861
    86  C   -0.049037
    87  C   -0.015931
    88  C   -0.090994
    89  C    0.047326
    90  C    0.114439
    91  C    0.062131
    92  C   -0.077032
    93  H    0.032069
    94  N   -0.423677
    95  C    0.165109
    96  C   -0.173448
    97  C   -0.006815
    98  C    0.152925
    99  C    0.099391
   100  C    0.016465
   101  O   -0.253552
   102  C    0.060459
   103  N   -0.350086
   104  C    0.037918
   105  C   -0.020304
   106  C   -0.034209
   107  C    0.088044
   108  C    0.073890
   109  C    0.038670
   110  C   -0.013550
   111  N   -0.323821
   112  C    0.077615
   113  C   -0.163244
   114  C    0.000278
   115  C    0.096071
   116  C    0.132436
   117  C    0.040875
   118  O   -0.193040
   119  C    0.001377
   120  C    0.210423
   121  O   -0.251956
   122  O   -0.304857
   123  C    0.153334
   124  H   -0.019723
   125  H   -0.015697
   126  H   -0.039594
   127  H   -0.001958
   128  H   -0.003694
   129  H    0.021902
   130  H    0.014414
   131  H    0.016053
   132  H    0.018658
   133  H    0.037784
   134  H    0.019629
   135  H    0.020500
   136  H    0.008877
   137  H    0.025656
   138  H    0.042405
   139  H    0.037821
   140  H    0.036271
   141  H    0.036400
   142  H    0.014327
   143  H    0.012033
   144  H    0.024749
   145  H    0.011430
   146  H    0.005571
   147  H    0.004395
   148  H    0.004063
   149  H    0.010653
   150  H    0.020406
   151  H    0.029568
   152  H    0.040859
   153  H    0.012084
   154  H    0.046158
   155  H    0.034759
   156  H    0.042729
   157  H    0.050893
   158  H    0.049582
 Sum of Mulliken charges =  -0.00000
 Mulliken charges with hydrogens summed into heavy atoms:
               1
     1  Mg   0.841701
     2  C   -0.002568
     3  C   -0.105690
     4  C   -0.066592
     5  C   -0.107762
     6  N   -0.256890
     7  C   -0.051684
     8  C   -0.015933
     9  C   -0.091408
    10  C    0.049512
    11  C    0.161362
    12  C    0.118233
    13  C   -0.006308
    15  N   -0.433482
    16  C    0.172751
    17  C   -0.172360
    18  C   -0.003651
    19  C    0.149719
    20  C    0.189409
    21  C    0.011278
    22  O   -0.252710
    23  C    0.168931
    24  N   -0.341166
    25  C    0.042263
    26  C   -0.013947
    27  C   -0.015183
    28  C    0.073773
    29  C    0.115624
    30  C    0.049494
    31  C    0.049587
    32  N   -0.309976
    33  C    0.079235
    34  C   -0.171061
    35  C    0.007397
    36  C    0.082100
    37  C    0.226950
    38  C    0.044901
    39  O   -0.191149
    40  C    0.028997
    41  C    0.212816
    42  O   -0.257813
    43  O   -0.304595
    44  C    0.298425
    80  Mg   0.840176
    81  C   -0.017043
    82  C   -0.106269
    83  C   -0.061178
    84  C   -0.104027
    85  N   -0.254861
    86  C   -0.049037
    87  C   -0.017889
    88  C   -0.094687
    89  C    0.047326
    90  C    0.166808
    91  C    0.118574
    92  C   -0.004834
    94  N   -0.423677
    95  C    0.165109
    96  C   -0.173448
    97  C   -0.006815
    98  C    0.152925
    99  C    0.176330
   100  C    0.016465
   101  O   -0.253552
   102  C    0.170951
   103  N   -0.350086
   104  C    0.037918
   105  C   -0.005977
   106  C   -0.022176
   107  C    0.088044
   108  C    0.115640
   109  C    0.047127
   110  C    0.047077
   111  N   -0.323821
   112  C    0.077615
   113  C   -0.163244
   114  C    0.000278
   115  C    0.096071
   116  C    0.231536
   117  C    0.040875
   118  O   -0.193040
   119  C    0.036136
   120  C    0.210423
   121  O   -0.251956
   122  O   -0.304857
   123  C    0.296539
 Electronic spatial extent (au):  <R**2>=          87461.0466
 Charge=              0.0000 electrons
 Dipole moment (field-independent basis, Debye):
    X=              1.1806    Y=              3.2794    Z=             -1.8462  Tot=              3.9442
 Quadrupole moment (field-independent basis, Debye-Ang):
   XX=           -479.9446   YY=           -462.8471   ZZ=           -543.0415
   XY=             10.8264   XZ=             16.3537   YZ=            -10.0465
 Traceless Quadrupole moment (field-independent basis, Debye-Ang):
   XX=             15.3332   YY=             32.4306   ZZ=            -47.7638
   XY=             10.8264   XZ=             16.3537   YZ=            -10.0465
 Octapole moment (field-independent basis, Debye-Ang**2):
  XXX=            -12.4843  YYY=            233.3436  ZZZ=            -78.0162  XYY=             16.0809
  XXY=            229.3838  XXZ=            -81.0076  XZZ=             36.4643  YZZ=             13.8791
  YYZ=             41.5256  XYZ=            232.7485
 Hexadecapole moment (field-independent basis, Debye-Ang**3):
 XXXX=         -53875.6823 YYYY=         -33056.1358 ZZZZ=         -31066.7306 XXXY=            645.8592
 XXXZ=            418.5408 YYYX=           -380.2888 YYYZ=           -300.8933 ZZZX=           1284.4638
 ZZZY=            -60.4618 XXYY=         -14434.5527 XXZZ=         -13922.6879 YYZZ=         -10908.0480
 XXYZ=            221.3275 YYXZ=           -667.7930 ZZXY=            455.9024
 N-N= 1.594800364987D+04 E-N=-4.137836272165D+04  KE= 4.028800979616D+03
 Leave Link  601 at Wed Sep  8 19:43:20 2021, MaxMem= 23488102400 cpu:              15.3 elap:               0.8
 (Enter /sw/apps/gaussian-16.0/g16/l9999.exe)
 1\1\GINC-BP1-COMPUTE00137\SP\RCAM-B3LYP TD-FC\def2SVP\C68H72Mg2N8O8\OF
 15641\08-Sep-2021\0\\#p cam-b3lyp/Def2SVP td=(nstates=5)\\TDDFT excite
 d states in gaussian\\0,1\Mg,0,0.,0.,0.\C,0,-0.217,-2.218,2.801\C,0,-1
 .255,2.442,2.026\C,0,-0.245,1.85,-2.564\C,0,0.146,-2.824,-2.037\N,0,-0
 .617,-0.009,2.126\C,0,-0.594,-0.908,3.105\C,0,-0.936,-0.309,4.502\C,0,
 -1.773,0.964,4.032\C,0,-1.155,1.168,2.66\C,0,-3.263,0.685,3.863\C,0,0.
 345,0.11,5.299\C,0,0.124,0.397,6.787\H,0,1.168,0.033,7.733\N,0,-0.185,
 1.961,-0.152\C,0,-0.703,2.8,0.777\C,0,-0.62,4.156,0.193\C,0,-0.187,4.0
 15,-1.225\C,0,-0.214,2.583,-1.38\C,0,-0.887,5.406,0.974\C,0,0.181,5.01
 3,-2.277\O,0,0.303,4.69,-3.508\C,0,0.31,6.414,-1.837\N,0,-0.265,-0.413
 ,-2.029\C,0,-0.279,0.569,-2.937\C,0,-0.196,0.024,-4.332\C,0,0.124,-1.5
 33,-4.18\C,0,0.086,-1.632,-2.635\C,0,-1.451,0.205,-5.197\C,0,1.373,-2.
 07,-4.923\C,0,2.626,-1.49,-4.306\N,0,0.15,-2.144,0.303\C,0,0.173,-3.13
 6,-0.688\C,0,0.173,-4.438,0.004\C,0,0.133,-4.111,1.358\C,0,0.083,-2.69
 5,1.502\C,0,0.149,-5.715,-0.623\C,0,0.096,-4.629,2.716\O,0,0.208,-5.74
 7,3.221\C,0,-0.255,-3.428,3.701\C,0,0.717,-3.482,4.848\O,0,1.931,-3.25
 5,4.669\O,0,0.038,-3.556,6.003\C,0,0.943,-3.583,7.183\H,0,-1.859,3.22,
 2.497\H,0,-0.218,2.453,-3.474\H,0,0.276,-3.747,-2.605\H,0,-1.554,-0.94
 9,5.132\H,0,-1.585,1.831,4.665\H,0,-3.484,-0.377,3.969\H,0,-3.511,1.02
 7,2.858\H,0,-3.852,1.301,4.543\H,0,0.669,1.096,4.966\H,0,1.13,-0.639,5
 .189\H,0,-0.844,0.026,7.125\H,0,0.062,1.477,6.921\H,0,-1.344,5.186,1.9
 38\H,0,-1.651,5.963,0.432\H,0,0.007,6.02,1.084\H,0,-0.635,6.744,-1.405
 \H,0,0.665,6.97,-2.704\H,0,1.048,6.466,-1.036\H,0,0.608,0.501,-4.891\H
 ,0,-0.692,-2.156,-4.547\H,0,-1.267,0.74,-6.129\H,0,-2.204,0.714,-4.596
 \H,0,-1.967,-0.72,-5.453\H,0,1.356,-1.759,-5.967\H,0,1.452,-3.157,-4.9
 02\H,0,2.714,-0.522,-4.798\H,0,3.487,-2.121,-4.529\H,0,2.495,-1.303,-3
 .24\H,0,0.867,-6.333,-0.084\H,0,0.404,-5.642,-1.68\H,0,-0.891,-5.999,-
 0.463\H,0,-1.283,-3.581,4.028\H,0,0.698,-4.478,7.755\H,0,0.833,-2.619,
 7.68\H,0,2.,-3.754,6.976\Mg,0,7.87793,0.70371,0.60585\C,0,6.67082,3.21
 173,2.8712\C,0,9.54384,-0.66766,3.24757\C,0,9.31424,-1.24905,-1.44138\
 C,0,7.07947,2.8731,-2.00219\N,0,8.01139,1.28731,2.73514\C,0,7.46043,2.
 22272,3.49395\C,0,7.70767,2.04439,5.01599\C,0,9.05332,1.17125,4.94035\
 C,0,8.84845,0.52452,3.57198\C,0,10.31597,2.01508,4.8856\C,0,6.54952,1.
 25484,5.7212\C,0,6.57095,1.31113,7.2503\H,0,5.2971,1.34464,7.96349\N,0
 ,8.82447,-1.01268,0.91671\C,0,9.42302,-1.41701,2.05668\C,0,9.99143,-2.
 74205,1.76455\C,0,9.82199,-3.01516,0.31148\C,0,9.32141,-1.73273,-0.141
 16\C,0,10.54726,-3.64187,2.82981\C,0,10.08125,-4.22565,-0.53333\O,0,10
 .08726,-4.16454,-1.81359\C,0,10.42001,-5.46434,0.18247\N,0,8.35453,0.8
 7706,-1.41037\C,0,8.93105,-0.1401,-2.0744\C,0,8.92685,0.10879,-3.56384
 \C,0,8.00708,1.39889,-3.78125\C,0,7.69765,1.7404,-2.30713\C,0,10.29513
 ,0.34611,-4.20249\C,0,6.81939,1.25754,-4.77224\C,0,5.78912,0.30446,-4.
 21048\N,0,6.86401,2.60223,0.41706\C,0,6.66232,3.34767,-0.76519\C,0,6.0
 266,4.62225,-0.37311\C,0,5.9227,4.53899,1.02358\C,0,6.47438,3.30864,1.
 47236\C,0,5.67479,5.68238,-1.25542\C,0,5.48142,5.21673,2.22135\O,0,4.8
 6006,6.25276,2.45436\C,0,6.06092,4.44246,3.48272\C,0,4.93951,4.25348,4
 .46722\O,0,3.96663,3.5316,4.18615\O,0,5.30132,4.77644,5.65296\C,0,4.22
 582,4.60364,6.6655\H,0,10.28451,-1.04469,3.95336\H,0,9.69861,-1.93348,
 -2.20118\H,0,6.71016,3.56058,-2.76617\H,0,7.89153,2.96473,5.55724\H,0,
 9.07742,0.41438,5.72005\H,0,10.09346,3.06719,4.78709\H,0,10.86805,1.66
 286,4.0241\H,0,10.94708,1.80596,5.7541\H,0,6.70616,0.17896,5.57058\H,0
 ,5.59269,1.57949,5.36103\H,0,7.24165,2.09409,7.62458\H,0,7.00743,0.382
 36,7.62565\H,0,10.6893,-3.10513,3.77593\H,0,11.56087,-3.91723,2.51893\
 H,0,9.95849,-4.55216,2.96166\H,0,11.30871,-5.30042,0.78728\H,0,10.4819
 1,-6.23796,-0.58536\H,0,9.60604,-5.70095,0.8768\H,0,8.48957,-0.72802,-
 4.09452\H,0,8.58135,2.24519,-4.18601\H,0,10.52303,-0.36159,-5.02182\H,
 0,11.04826,0.2865,-3.42804\H,0,10.45165,1.3473,-4.60039\H,0,7.16219,0.
 82371,-5.71481\H,0,6.3389,2.20123,-5.00798\H,0,6.18459,-0.67748,-4.487
 07\H,0,4.8163,0.4805,-4.66508\H,0,5.7636,0.35309,-3.11566\H,0,4.69175,
 6.0221,-0.95755\H,0,5.68594,5.35611,-2.2933\H,0,6.47878,6.39099,-1.039
 24\H,0,6.86996,5.04679,3.8948\H,0,3.99324,5.59858,7.05753\H,0,4.60993,
 3.856,7.3847\H,0,3.25264,4.28236,6.31314\\Version=ES64L-G16RevA.03\Sta
 te=1-A\HF=-4069.8127398\RMSD=9.916e-09\PG=C01 [X(C68H72Mg2N8O8)]\\@


 LET US PLACE AT THE END OF EVERY CHAPTER.....THE
 TWO LETTERS USED BY THE ROMAN JUDGES WHEN THEY DID
 NOT UNDERSTAND A PLEADING.
 N. L. -NON LIQUET- IT IS NOT CLEAR.
                                              -- VOLTAIRE
 Job cpu time:       0 days 13 hours 43 minutes 53.5 seconds.
 Elapsed time:       0 days  0 hours 34 minutes 56.9 seconds.
 File lengths (MBytes):  RWF=  13225 Int=      0 D2E=      0 Chk=    574 Scr=      1
 Normal termination of Gaussian 16 at Wed Sep  8 19:43:21 2021.
