 Entering Gaussian System, Link 0=g16
 Initial command:
 /sw/apps/gaussian-16.0/g16/l1.exe "/tmp/Gau-67804.inp" -scrdir="/tmp/"
 Entering Link 1 = /sw/apps/gaussian-16.0/g16/l1.exe PID=     67805.
  
 Copyright (c) 1988,1990,1992,1993,1995,1998,2003,2009,2016,
            Gaussian, Inc.  All Rights Reserved.
  
 This is part of the Gaussian(R) 16 program.  It is based on
 the Gaussian(R) 09 system (copyright 2009, Gaussian, Inc.),
 the Gaussian(R) 03 system (copyright 2003, Gaussian, Inc.),
 the Gaussian(R) 98 system (copyright 1998, Gaussian, Inc.),
 the Gaussian(R) 94 system (copyright 1995, Gaussian, Inc.),
 the Gaussian 92(TM) system (copyright 1992, Gaussian, Inc.),
 the Gaussian 90(TM) system (copyright 1990, Gaussian, Inc.),
 the Gaussian 88(TM) system (copyright 1988, Gaussian, Inc.),
 the Gaussian 86(TM) system (copyright 1986, Carnegie Mellon
 University), and the Gaussian 82(TM) system (copyright 1983,
 Carnegie Mellon University). Gaussian is a federally registered
 trademark of Gaussian, Inc.
  
 This software contains proprietary and confidential information,
 including trade secrets, belonging to Gaussian, Inc.
  
 This software is provided under written license and may be
 used, copied, transmitted, or stored only in accord with that
 written license.
  
 The following legend is applicable only to US Government
 contracts under FAR:
  
                    RESTRICTED RIGHTS LEGEND
  
 Use, reproduction and disclosure by the US Government is
 subject to restrictions as set forth in subparagraphs (a)
 and (c) of the Commercial Computer Software - Restricted
 Rights clause in FAR 52.227-19.
  
 Gaussian, Inc.
 340 Quinnipiac St., Bldg. 40, Wallingford CT 06492
  
  
 ---------------------------------------------------------------
 Warning -- This program may not be used in any manner that
 competes with the business of Gaussian, Inc. or will provide
 assistance to any competitor of Gaussian, Inc.  The licensee
 of this program is prohibited from giving any competitor of
 Gaussian, Inc. access to this program.  By using this program,
 the user acknowledges that Gaussian, Inc. is engaged in the
 business of creating and licensing software in the field of
 computational chemistry and represents and warrants to the
 licensee that it is not a competitor of Gaussian, Inc. and that
 it will not use this program in any manner prohibited above.
 ---------------------------------------------------------------
  

 Cite this work as:
 Gaussian 16, Revision A.03,
 M. J. Frisch, G. W. Trucks, H. B. Schlegel, G. E. Scuseria, 
 M. A. Robb, J. R. Cheeseman, G. Scalmani, V. Barone, 
 G. A. Petersson, H. Nakatsuji, X. Li, M. Caricato, A. V. Marenich, 
 J. Bloino, B. G. Janesko, R. Gomperts, B. Mennucci, H. P. Hratchian, 
 J. V. Ortiz, A. F. Izmaylov, J. L. Sonnenberg, D. Williams-Young, 
 F. Ding, F. Lipparini, F. Egidi, J. Goings, B. Peng, A. Petrone, 
 T. Henderson, D. Ranasinghe, V. G. Zakrzewski, J. Gao, N. Rega, 
 G. Zheng, W. Liang, M. Hada, M. Ehara, K. Toyota, R. Fukuda, 
 J. Hasegawa, M. Ishida, T. Nakajima, Y. Honda, O. Kitao, H. Nakai, 
 T. Vreven, K. Throssell, J. A. Montgomery, Jr., J. E. Peralta, 
 F. Ogliaro, M. J. Bearpark, J. J. Heyd, E. N. Brothers, K. N. Kudin, 
 V. N. Staroverov, T. A. Keith, R. Kobayashi, J. Normand, 
 K. Raghavachari, A. P. Rendell, J. C. Burant, S. S. Iyengar, 
 J. Tomasi, M. Cossi, J. M. Millam, M. Klene, C. Adamo, R. Cammi, 
 J. W. Ochterski, R. L. Martin, K. Morokuma, O. Farkas, 
 J. B. Foresman, and D. J. Fox, Gaussian, Inc., Wallingford CT, 2016.
 
 ******************************************
 Gaussian 16:  ES64L-G16RevA.03 25-Dec-2016
                 9-Sep-2021 
 ******************************************
 %nproc=24
 Will use up to   24 processors via shared memory.
 %mem=175gb
 -----------------------------------
 #p cam-b3lyp/Def2SVP td=(nstates=5)
 -----------------------------------
 1/38=1,172=1/1;
 2/12=2,17=6,18=5,40=1/2;
 3/5=43,7=101,11=9,25=1,30=1,74=-40/1,2,3,8;
 4//1;
 5/5=2,38=5/2;
 8/6=1,10=1,108=5/1;
 9/41=5,42=1,70=2/14;
 6/7=2,8=2,9=2,10=2/1;
 99/5=1,9=1/99;
 Leave Link    1 at Thu Sep  9 18:05:51 2021, MaxMem= 23488102400 cpu:               0.5 elap:               0.0
 (Enter /sw/apps/gaussian-16.0/g16/l101.exe)
 --------------------------------
 TDDFT excited states in gaussian
 --------------------------------
 Symbolic Z-matrix:
 Charge =  0 Multiplicity = 1
 Mg                    0.        0.        0. 
 C                    -0.217    -2.218     2.801 
 C                    -1.255     2.442     2.026 
 C                    -0.245     1.85     -2.564 
 C                     0.146    -2.824    -2.037 
 N                    -0.617    -0.009     2.126 
 C                    -0.594    -0.908     3.105 
 C                    -0.936    -0.309     4.502 
 C                    -1.773     0.964     4.032 
 C                    -1.155     1.168     2.66 
 C                    -3.263     0.685     3.863 
 C                     0.345     0.11      5.299 
 C                     0.124     0.397     6.787 
 H                     1.168     0.033     7.733 
 N                    -0.185     1.961    -0.152 
 C                    -0.703     2.8       0.777 
 C                    -0.62      4.156     0.193 
 C                    -0.187     4.015    -1.225 
 C                    -0.214     2.583    -1.38 
 C                    -0.887     5.406     0.974 
 C                     0.181     5.013    -2.277 
 O                     0.303     4.69     -3.508 
 C                     0.31      6.414    -1.837 
 N                    -0.265    -0.413    -2.029 
 C                    -0.279     0.569    -2.937 
 C                    -0.196     0.024    -4.332 
 C                     0.124    -1.533    -4.18 
 C                     0.086    -1.632    -2.635 
 C                    -1.451     0.205    -5.197 
 C                     1.373    -2.07     -4.923 
 C                     2.626    -1.49     -4.306 
 N                     0.15     -2.144     0.303 
 C                     0.173    -3.136    -0.688 
 C                     0.173    -4.438     0.004 
 C                     0.133    -4.111     1.358 
 C                     0.083    -2.695     1.502 
 C                     0.149    -5.715    -0.623 
 C                     0.096    -4.629     2.716 
 O                     0.208    -5.747     3.221 
 C                    -0.255    -3.428     3.701 
 C                     0.717    -3.482     4.848 
 O                     1.931    -3.255     4.669 
 O                     0.038    -3.556     6.003 
 C                     0.943    -3.583     7.183 
 H                    -1.859     3.22      2.497 
 H                    -0.218     2.453    -3.474 
 H                     0.276    -3.747    -2.605 
 H                    -1.554    -0.949     5.132 
 H                    -1.585     1.831     4.665 
 H                    -3.484    -0.377     3.969 
 H                    -3.511     1.027     2.858 
 H                    -3.852     1.301     4.543 
 H                     0.669     1.096     4.966 
 H                     1.13     -0.639     5.189 
 H                    -0.844     0.026     7.125 
 H                     0.062     1.477     6.921 
 H                    -1.344     5.186     1.938 
 H                    -1.651     5.963     0.432 
 H                     0.007     6.02      1.084 
 H                    -0.635     6.744    -1.405 
 H                     0.665     6.97     -2.704 
 H                     1.048     6.466    -1.036 
 H                     0.608     0.501    -4.891 
 H                    -0.692    -2.156    -4.547 
 H                    -1.267     0.74     -6.129 
 H                    -2.204     0.714    -4.596 
 H                    -1.967    -0.72     -5.453 
 H                     1.356    -1.759    -5.967 
 H                     1.452    -3.157    -4.902 
 H                     2.714    -0.522    -4.798 
 H                     3.487    -2.121    -4.529 
 H                     2.495    -1.303    -3.24 
 H                     0.867    -6.333    -0.084 
 H                     0.404    -5.642    -1.68 
 H                    -0.891    -5.999    -0.463 
 H                    -1.283    -3.581     4.028 
 H                     0.698    -4.478     7.755 
 H                     0.833    -2.619     7.68 
 H                     2.       -3.754     6.976 
 Mg                    8.92518   0.80666   0.67367 
 C                     8.65532  -1.98022  -1.57122 
 C                     8.96842   2.82533  -2.07546 
 C                     9.61411   3.23789   2.5925 
 C                     9.99655  -1.44012   3.1129 
 N                     8.81852   0.36197  -1.49038 
 C                     8.65534  -0.72937  -2.22298 
 C                     8.40201  -0.46007  -3.73058 
 C                     9.08909   0.98764  -3.83503 
 C                     8.9211    1.44298  -2.38689 
 C                     10.57506   0.92743  -4.14746 
 C                     6.87314  -0.39668  -4.07778 
 C                     6.55065  -0.44542  -5.5729 
 H                     5.34246  -1.14449  -6.00192 
 N                     8.76053   2.76226   0.37857 
 C                     8.77496   3.41067  -0.80492 
 C                     8.642     4.8398   -0.48232 
 C                     8.71361   4.99562   0.99596 
 C                     9.06063   3.64404   1.38699 
 C                     8.38733   5.88911  -1.52515 
 C                     8.51656   6.16998   1.90604 
 O                     8.86138   6.13098   3.1399 
 C                     7.99449   7.39774   1.28834 
 N                     9.89362   0.9233    2.50966 
 C                     10.01353   2.09696   3.15469 
 C                     10.4958   1.89409   4.57125 
 C                     10.44341   0.31534   4.82098 
 C                     10.00557  -0.14895   3.41452 
 C                     11.90171   2.41087   4.87578 
 C                     9.62864  -0.17635   6.04861 
 C                     8.157     0.0944    5.83334 
 N                     9.09724  -1.34041   0.84269 
 C                     9.59446  -2.07227   1.94324 
 C                     9.62203  -3.49427   1.54379 
 C                     9.15693  -3.48838   0.22011 
 C                     8.87955  -2.15452  -0.1841 
 C                     10.08272  -4.57524   2.34715 
 C                     8.84761  -4.30611  -0.93069 
 O                     8.80418  -5.51592  -1.15029 
 C                     8.62901  -3.35306  -2.1838 
 C                     7.36835  -3.78491  -2.88149 
 O                     6.26494  -3.67484  -2.31849 
 O                     7.64726  -4.05133  -4.17052 
 C                     6.42601  -4.47323  -4.90698 
 H                     9.21896   3.52802  -2.87065 
 H                     9.76734   4.02821   3.33101 
 H                     10.22485  -2.2133    3.84962 
 H                     8.89118  -1.15329  -4.40433 
 H                     8.53632   1.6397   -4.50632 
 H                     10.94953  -0.08531  -4.13089 
 H                     11.0603   1.52275  -3.3851 
 H                     10.78109   1.42846  -5.09764 
 H                     6.49222   0.60389  -3.83594 
 H                     6.33391  -1.17022  -3.56641 
 H                     7.41278  -0.76604  -6.17029 
 H                     6.34899   0.57166  -5.91773 
 H                     8.54933   5.49808  -2.53721 
 H                     9.16041   6.65548  -1.4031 
 H                     7.40614   6.35716  -1.42091 
 H                     8.66668   7.71711   0.49548 
 H                     7.83773   8.09587   2.11291 
 H                     7.03381   7.16926   0.81347 
 H                     9.837     2.38371   5.27791 
 H                     11.44591  -0.10358   4.99227 
 H                     11.92811   3.13983   5.70764 
 H                     12.30729   2.8488    3.97341 
 H                     12.63589   1.64175   5.10949 
 H                     9.91895   0.37996   6.94326 
 H                     9.76782  -1.23021   6.2654 
 H                     8.05166   1.14049   6.13613 
 H                     7.55179  -0.56001   6.45746 
 H                     7.89654   0.03107   4.77042 
 H                     9.37075  -5.38044   2.22362 
 H                     10.17647  -4.28306   3.39099 
 H                     11.05541  -4.76165   1.88412 
 H                     9.50563  -3.44941  -2.82553 
 H                     6.64478  -5.44629  -5.3575 
 H                     6.19017  -3.64065  -5.59614 
 H                     5.54313  -4.70443  -4.32259 
 
 ITRead=  0  0  0  0  0  0  0  0  0  0  0  0  0  0  0  0  0  0  0  0
 ITRead=  0  0  0  0  0  0  0  0  0  0  0  0  0  0  0  0  0  0  0  0
 ITRead=  0  0  0  0  0  0  0  0  0  0  0  0  0  0  0  0  0  0  0  0
 ITRead=  0  0  0  0  0  0  0  0  0  0  0  0  0  0  0  0  0  0  0  0
 ITRead=  0  0  0  0  0  0  0  0  0  0  0  0  0  0  0  0  0  0  0  0
 ITRead=  0  0  0  0  0  0  0  0  0  0  0  0  0  0  0  0  0  0  0  0
 ITRead=  0  0  0  0  0  0  0  0  0  0  0  0  0  0  0  0  0  0  0  0
 ITRead=  0  0  0  0  0  0  0  0  0  0  0  0  0  0  0  0  0  0
 MicOpt= -1 -1 -1 -1 -1 -1 -1 -1 -1 -1 -1 -1 -1 -1 -1 -1 -1 -1 -1 -1
 MicOpt= -1 -1 -1 -1 -1 -1 -1 -1 -1 -1 -1 -1 -1 -1 -1 -1 -1 -1 -1 -1
 MicOpt= -1 -1 -1 -1 -1 -1 -1 -1 -1 -1 -1 -1 -1 -1 -1 -1 -1 -1 -1 -1
 MicOpt= -1 -1 -1 -1 -1 -1 -1 -1 -1 -1 -1 -1 -1 -1 -1 -1 -1 -1 -1 -1
 MicOpt= -1 -1 -1 -1 -1 -1 -1 -1 -1 -1 -1 -1 -1 -1 -1 -1 -1 -1 -1 -1
 MicOpt= -1 -1 -1 -1 -1 -1 -1 -1 -1 -1 -1 -1 -1 -1 -1 -1 -1 -1 -1 -1
 MicOpt= -1 -1 -1 -1 -1 -1 -1 -1 -1 -1 -1 -1 -1 -1 -1 -1 -1 -1 -1 -1
 MicOpt= -1 -1 -1 -1 -1 -1 -1 -1 -1 -1 -1 -1 -1 -1 -1 -1 -1 -1
 NAtoms=    158 NQM=      158 NQMF=       0 NMMI=      0 NMMIF=      0
                NMic=       0 NMicF=      0.
                    Isotopes and Nuclear Properties:
 (Nuclear quadrupole moments (NQMom) in fm**2, nuclear magnetic moments (NMagM)
  in nuclear magnetons)

  Atom         1           2           3           4           5           6           7           8           9          10
 IAtWgt=          24          12          12          12          12          14          12          12          12          12
 AtmWgt=  23.9850450  12.0000000  12.0000000  12.0000000  12.0000000  14.0030740  12.0000000  12.0000000  12.0000000  12.0000000
 NucSpn=           0           0           0           0           0           2           0           0           0           0
 AtZEff=  -0.0000000  -0.0000000  -0.0000000  -0.0000000  -0.0000000  -0.0000000  -0.0000000  -0.0000000  -0.0000000  -0.0000000
 NQMom=    0.0000000   0.0000000   0.0000000   0.0000000   0.0000000   2.0440000   0.0000000   0.0000000   0.0000000   0.0000000
 NMagM=    0.0000000   0.0000000   0.0000000   0.0000000   0.0000000   0.4037610   0.0000000   0.0000000   0.0000000   0.0000000
 AtZNuc=  12.0000000   6.0000000   6.0000000   6.0000000   6.0000000   7.0000000   6.0000000   6.0000000   6.0000000   6.0000000

  Atom        11          12          13          14          15          16          17          18          19          20
 IAtWgt=          12          12          12           1          14          12          12          12          12          12
 AtmWgt=  12.0000000  12.0000000  12.0000000   1.0078250  14.0030740  12.0000000  12.0000000  12.0000000  12.0000000  12.0000000
 NucSpn=           0           0           0           1           2           0           0           0           0           0
 AtZEff=  -0.0000000  -0.0000000  -0.0000000  -0.0000000  -0.0000000  -0.0000000  -0.0000000  -0.0000000  -0.0000000  -0.0000000
 NQMom=    0.0000000   0.0000000   0.0000000   0.0000000   2.0440000   0.0000000   0.0000000   0.0000000   0.0000000   0.0000000
 NMagM=    0.0000000   0.0000000   0.0000000   2.7928460   0.4037610   0.0000000   0.0000000   0.0000000   0.0000000   0.0000000
 AtZNuc=   6.0000000   6.0000000   6.0000000   1.0000000   7.0000000   6.0000000   6.0000000   6.0000000   6.0000000   6.0000000

  Atom        21          22          23          24          25          26          27          28          29          30
 IAtWgt=          12          16          12          14          12          12          12          12          12          12
 AtmWgt=  12.0000000  15.9949146  12.0000000  14.0030740  12.0000000  12.0000000  12.0000000  12.0000000  12.0000000  12.0000000
 NucSpn=           0           0           0           2           0           0           0           0           0           0
 AtZEff=  -0.0000000  -0.0000000  -0.0000000  -0.0000000  -0.0000000  -0.0000000  -0.0000000  -0.0000000  -0.0000000  -0.0000000
 NQMom=    0.0000000   0.0000000   0.0000000   2.0440000   0.0000000   0.0000000   0.0000000   0.0000000   0.0000000   0.0000000
 NMagM=    0.0000000   0.0000000   0.0000000   0.4037610   0.0000000   0.0000000   0.0000000   0.0000000   0.0000000   0.0000000
 AtZNuc=   6.0000000   8.0000000   6.0000000   7.0000000   6.0000000   6.0000000   6.0000000   6.0000000   6.0000000   6.0000000

  Atom        31          32          33          34          35          36          37          38          39          40
 IAtWgt=          12          14          12          12          12          12          12          12          16          12
 AtmWgt=  12.0000000  14.0030740  12.0000000  12.0000000  12.0000000  12.0000000  12.0000000  12.0000000  15.9949146  12.0000000
 NucSpn=           0           2           0           0           0           0           0           0           0           0
 AtZEff=  -0.0000000  -0.0000000  -0.0000000  -0.0000000  -0.0000000  -0.0000000  -0.0000000  -0.0000000  -0.0000000  -0.0000000
 NQMom=    0.0000000   2.0440000   0.0000000   0.0000000   0.0000000   0.0000000   0.0000000   0.0000000   0.0000000   0.0000000
 NMagM=    0.0000000   0.4037610   0.0000000   0.0000000   0.0000000   0.0000000   0.0000000   0.0000000   0.0000000   0.0000000
 AtZNuc=   6.0000000   7.0000000   6.0000000   6.0000000   6.0000000   6.0000000   6.0000000   6.0000000   8.0000000   6.0000000

  Atom        41          42          43          44          45          46          47          48          49          50
 IAtWgt=          12          16          16          12           1           1           1           1           1           1
 AtmWgt=  12.0000000  15.9949146  15.9949146  12.0000000   1.0078250   1.0078250   1.0078250   1.0078250   1.0078250   1.0078250
 NucSpn=           0           0           0           0           1           1           1           1           1           1
 AtZEff=  -0.0000000  -0.0000000  -0.0000000  -0.0000000  -0.0000000  -0.0000000  -0.0000000  -0.0000000  -0.0000000  -0.0000000
 NQMom=    0.0000000   0.0000000   0.0000000   0.0000000   0.0000000   0.0000000   0.0000000   0.0000000   0.0000000   0.0000000
 NMagM=    0.0000000   0.0000000   0.0000000   0.0000000   2.7928460   2.7928460   2.7928460   2.7928460   2.7928460   2.7928460
 AtZNuc=   6.0000000   8.0000000   8.0000000   6.0000000   1.0000000   1.0000000   1.0000000   1.0000000   1.0000000   1.0000000

  Atom        51          52          53          54          55          56          57          58          59          60
 IAtWgt=           1           1           1           1           1           1           1           1           1           1
 AtmWgt=   1.0078250   1.0078250   1.0078250   1.0078250   1.0078250   1.0078250   1.0078250   1.0078250   1.0078250   1.0078250
 NucSpn=           1           1           1           1           1           1           1           1           1           1
 AtZEff=  -0.0000000  -0.0000000  -0.0000000  -0.0000000  -0.0000000  -0.0000000  -0.0000000  -0.0000000  -0.0000000  -0.0000000
 NQMom=    0.0000000   0.0000000   0.0000000   0.0000000   0.0000000   0.0000000   0.0000000   0.0000000   0.0000000   0.0000000
 NMagM=    2.7928460   2.7928460   2.7928460   2.7928460   2.7928460   2.7928460   2.7928460   2.7928460   2.7928460   2.7928460
 AtZNuc=   1.0000000   1.0000000   1.0000000   1.0000000   1.0000000   1.0000000   1.0000000   1.0000000   1.0000000   1.0000000

  Atom        61          62          63          64          65          66          67          68          69          70
 IAtWgt=           1           1           1           1           1           1           1           1           1           1
 AtmWgt=   1.0078250   1.0078250   1.0078250   1.0078250   1.0078250   1.0078250   1.0078250   1.0078250   1.0078250   1.0078250
 NucSpn=           1           1           1           1           1           1           1           1           1           1
 AtZEff=  -0.0000000  -0.0000000  -0.0000000  -0.0000000  -0.0000000  -0.0000000  -0.0000000  -0.0000000  -0.0000000  -0.0000000
 NQMom=    0.0000000   0.0000000   0.0000000   0.0000000   0.0000000   0.0000000   0.0000000   0.0000000   0.0000000   0.0000000
 NMagM=    2.7928460   2.7928460   2.7928460   2.7928460   2.7928460   2.7928460   2.7928460   2.7928460   2.7928460   2.7928460
 AtZNuc=   1.0000000   1.0000000   1.0000000   1.0000000   1.0000000   1.0000000   1.0000000   1.0000000   1.0000000   1.0000000

  Atom        71          72          73          74          75          76          77          78          79          80
 IAtWgt=           1           1           1           1           1           1           1           1           1          24
 AtmWgt=   1.0078250   1.0078250   1.0078250   1.0078250   1.0078250   1.0078250   1.0078250   1.0078250   1.0078250  23.9850450
 NucSpn=           1           1           1           1           1           1           1           1           1           0
 AtZEff=  -0.0000000  -0.0000000  -0.0000000  -0.0000000  -0.0000000  -0.0000000  -0.0000000  -0.0000000  -0.0000000  -0.0000000
 NQMom=    0.0000000   0.0000000   0.0000000   0.0000000   0.0000000   0.0000000   0.0000000   0.0000000   0.0000000   0.0000000
 NMagM=    2.7928460   2.7928460   2.7928460   2.7928460   2.7928460   2.7928460   2.7928460   2.7928460   2.7928460   0.0000000
 AtZNuc=   1.0000000   1.0000000   1.0000000   1.0000000   1.0000000   1.0000000   1.0000000   1.0000000   1.0000000  12.0000000

  Atom        81          82          83          84          85          86          87          88          89          90
 IAtWgt=          12          12          12          12          14          12          12          12          12          12
 AtmWgt=  12.0000000  12.0000000  12.0000000  12.0000000  14.0030740  12.0000000  12.0000000  12.0000000  12.0000000  12.0000000
 NucSpn=           0           0           0           0           2           0           0           0           0           0
 AtZEff=  -0.0000000  -0.0000000  -0.0000000  -0.0000000  -0.0000000  -0.0000000  -0.0000000  -0.0000000  -0.0000000  -0.0000000
 NQMom=    0.0000000   0.0000000   0.0000000   0.0000000   2.0440000   0.0000000   0.0000000   0.0000000   0.0000000   0.0000000
 NMagM=    0.0000000   0.0000000   0.0000000   0.0000000   0.4037610   0.0000000   0.0000000   0.0000000   0.0000000   0.0000000
 AtZNuc=   6.0000000   6.0000000   6.0000000   6.0000000   7.0000000   6.0000000   6.0000000   6.0000000   6.0000000   6.0000000

  Atom        91          92          93          94          95          96          97          98          99         100
 IAtWgt=          12          12           1          14          12          12          12          12          12          12
 AtmWgt=  12.0000000  12.0000000   1.0078250  14.0030740  12.0000000  12.0000000  12.0000000  12.0000000  12.0000000  12.0000000
 NucSpn=           0           0           1           2           0           0           0           0           0           0
 AtZEff=  -0.0000000  -0.0000000  -0.0000000  -0.0000000  -0.0000000  -0.0000000  -0.0000000  -0.0000000  -0.0000000  -0.0000000
 NQMom=    0.0000000   0.0000000   0.0000000   2.0440000   0.0000000   0.0000000   0.0000000   0.0000000   0.0000000   0.0000000
 NMagM=    0.0000000   0.0000000   2.7928460   0.4037610   0.0000000   0.0000000   0.0000000   0.0000000   0.0000000   0.0000000
 AtZNuc=   6.0000000   6.0000000   1.0000000   7.0000000   6.0000000   6.0000000   6.0000000   6.0000000   6.0000000   6.0000000

  Atom       101         102         103         104         105         106         107         108         109         110
 IAtWgt=          16          12          14          12          12          12          12          12          12          12
 AtmWgt=  15.9949146  12.0000000  14.0030740  12.0000000  12.0000000  12.0000000  12.0000000  12.0000000  12.0000000  12.0000000
 NucSpn=           0           0           2           0           0           0           0           0           0           0
 AtZEff=  -0.0000000  -0.0000000  -0.0000000  -0.0000000  -0.0000000  -0.0000000  -0.0000000  -0.0000000  -0.0000000  -0.0000000
 NQMom=    0.0000000   0.0000000   2.0440000   0.0000000   0.0000000   0.0000000   0.0000000   0.0000000   0.0000000   0.0000000
 NMagM=    0.0000000   0.0000000   0.4037610   0.0000000   0.0000000   0.0000000   0.0000000   0.0000000   0.0000000   0.0000000
 AtZNuc=   8.0000000   6.0000000   7.0000000   6.0000000   6.0000000   6.0000000   6.0000000   6.0000000   6.0000000   6.0000000

  Atom       111         112         113         114         115         116         117         118         119         120
 IAtWgt=          14          12          12          12          12          12          12          16          12          12
 AtmWgt=  14.0030740  12.0000000  12.0000000  12.0000000  12.0000000  12.0000000  12.0000000  15.9949146  12.0000000  12.0000000
 NucSpn=           2           0           0           0           0           0           0           0           0           0
 AtZEff=  -0.0000000  -0.0000000  -0.0000000  -0.0000000  -0.0000000  -0.0000000  -0.0000000  -0.0000000  -0.0000000  -0.0000000
 NQMom=    2.0440000   0.0000000   0.0000000   0.0000000   0.0000000   0.0000000   0.0000000   0.0000000   0.0000000   0.0000000
 NMagM=    0.4037610   0.0000000   0.0000000   0.0000000   0.0000000   0.0000000   0.0000000   0.0000000   0.0000000   0.0000000
 AtZNuc=   7.0000000   6.0000000   6.0000000   6.0000000   6.0000000   6.0000000   6.0000000   8.0000000   6.0000000   6.0000000

  Atom       121         122         123         124         125         126         127         128         129         130
 IAtWgt=          16          16          12           1           1           1           1           1           1           1
 AtmWgt=  15.9949146  15.9949146  12.0000000   1.0078250   1.0078250   1.0078250   1.0078250   1.0078250   1.0078250   1.0078250
 NucSpn=           0           0           0           1           1           1           1           1           1           1
 AtZEff=  -0.0000000  -0.0000000  -0.0000000  -0.0000000  -0.0000000  -0.0000000  -0.0000000  -0.0000000  -0.0000000  -0.0000000
 NQMom=    0.0000000   0.0000000   0.0000000   0.0000000   0.0000000   0.0000000   0.0000000   0.0000000   0.0000000   0.0000000
 NMagM=    0.0000000   0.0000000   0.0000000   2.7928460   2.7928460   2.7928460   2.7928460   2.7928460   2.7928460   2.7928460
 AtZNuc=   8.0000000   8.0000000   6.0000000   1.0000000   1.0000000   1.0000000   1.0000000   1.0000000   1.0000000   1.0000000

  Atom       131         132         133         134         135         136         137         138         139         140
 IAtWgt=           1           1           1           1           1           1           1           1           1           1
 AtmWgt=   1.0078250   1.0078250   1.0078250   1.0078250   1.0078250   1.0078250   1.0078250   1.0078250   1.0078250   1.0078250
 NucSpn=           1           1           1           1           1           1           1           1           1           1
 AtZEff=  -0.0000000  -0.0000000  -0.0000000  -0.0000000  -0.0000000  -0.0000000  -0.0000000  -0.0000000  -0.0000000  -0.0000000
 NQMom=    0.0000000   0.0000000   0.0000000   0.0000000   0.0000000   0.0000000   0.0000000   0.0000000   0.0000000   0.0000000
 NMagM=    2.7928460   2.7928460   2.7928460   2.7928460   2.7928460   2.7928460   2.7928460   2.7928460   2.7928460   2.7928460
 AtZNuc=   1.0000000   1.0000000   1.0000000   1.0000000   1.0000000   1.0000000   1.0000000   1.0000000   1.0000000   1.0000000

  Atom       141         142         143         144         145         146         147         148         149         150
 IAtWgt=           1           1           1           1           1           1           1           1           1           1
 AtmWgt=   1.0078250   1.0078250   1.0078250   1.0078250   1.0078250   1.0078250   1.0078250   1.0078250   1.0078250   1.0078250
 NucSpn=           1           1           1           1           1           1           1           1           1           1
 AtZEff=  -0.0000000  -0.0000000  -0.0000000  -0.0000000  -0.0000000  -0.0000000  -0.0000000  -0.0000000  -0.0000000  -0.0000000
 NQMom=    0.0000000   0.0000000   0.0000000   0.0000000   0.0000000   0.0000000   0.0000000   0.0000000   0.0000000   0.0000000
 NMagM=    2.7928460   2.7928460   2.7928460   2.7928460   2.7928460   2.7928460   2.7928460   2.7928460   2.7928460   2.7928460
 AtZNuc=   1.0000000   1.0000000   1.0000000   1.0000000   1.0000000   1.0000000   1.0000000   1.0000000   1.0000000   1.0000000

  Atom       151         152         153         154         155         156         157         158
 IAtWgt=           1           1           1           1           1           1           1           1
 AtmWgt=   1.0078250   1.0078250   1.0078250   1.0078250   1.0078250   1.0078250   1.0078250   1.0078250
 NucSpn=           1           1           1           1           1           1           1           1
 AtZEff=  -0.0000000  -0.0000000  -0.0000000  -0.0000000  -0.0000000  -0.0000000  -0.0000000  -0.0000000
 NQMom=    0.0000000   0.0000000   0.0000000   0.0000000   0.0000000   0.0000000   0.0000000   0.0000000
 NMagM=    2.7928460   2.7928460   2.7928460   2.7928460   2.7928460   2.7928460   2.7928460   2.7928460
 AtZNuc=   1.0000000   1.0000000   1.0000000   1.0000000   1.0000000   1.0000000   1.0000000   1.0000000
 Leave Link  101 at Thu Sep  9 18:05:51 2021, MaxMem= 23488102400 cpu:               3.9 elap:               0.2
 (Enter /sw/apps/gaussian-16.0/g16/l202.exe)
 Stoichiometry    C68H72Mg2N8O8
 Framework group  C1[X(C68H72Mg2N8O8)]
 Deg. of freedom   468
 Full point group                 C1      NOp   1
 Largest Abelian subgroup         C1      NOp   1
 Largest concise Abelian subgroup C1      NOp   1
                         Standard orientation:                         
 ---------------------------------------------------------------------
 Center     Atomic      Atomic             Coordinates (Angstroms)
 Number     Number       Type             X           Y           Z
 ---------------------------------------------------------------------
      1         12           0        4.329662   -0.577086    0.558551
      2          6           0        4.920477    2.342964   -1.425499
      3          6           0        5.345149    1.237449    3.263974
      4          6           0        4.251090   -3.258474    2.249885
      5          6           0        4.460797   -2.427851   -2.391556
      6          7           0        5.019398    1.516221    0.765851
      7          6           0        5.143194    2.548805   -0.062168
      8          6           0        5.458660    3.889849    0.665469
      9          6           0        6.114168    3.305952    1.996398
     10          6           0        5.426536    1.952512    2.032271
     11          6           0        7.620160    3.089068    1.889378
     12          6           0        4.165276    4.715111    0.978253
     13          6           0        4.402648    6.171438    1.388278
     14          1           0        3.446565    7.183080    0.964211
     15          7           0        4.264953   -0.857593    2.513028
     16          6           0        4.708350   -0.005734    3.468550
     17          6           0        4.437147   -0.667940    4.762618
     18          6           0        3.974004   -2.054135    4.476160
     19          6           0        4.172394   -2.121662    3.050867
     20          6           0        4.575432    0.022068    6.084933
     21          6           0        3.447583   -3.148405    5.349994
     22          8           0        3.322121   -4.350607    4.933409
     23          6           0        3.162172   -2.790297    6.751187
     24          7           0        4.570292   -2.586482    0.046630
     25          6           0        4.429863   -3.552986    0.960486
     26          6           0        4.364626   -4.906758    0.317847
     27          6           0        4.245466   -4.645199   -1.252866
     28          6           0        4.351191   -3.100206   -1.243517
     29          6           0        5.555520   -5.835642    0.591628
     30          6           0        3.046512   -5.298034   -1.985489
     31          6           0        1.754472   -4.663405   -1.521834
     32          7           0        4.457178   -0.136280   -1.562881
     33          6           0        4.521346   -1.062314   -2.614078
     34          6           0        4.707458   -0.292093   -3.857537
     35          6           0        4.755551    1.036118   -3.438743
     36          6           0        4.635102    1.090275   -2.020698
     37          6           0        4.866648   -0.839682   -5.161085
     38          6           0        4.905384    2.420504   -3.856934
     39          8           0        4.950908    2.997854   -4.944172
     40          6           0        5.140398    3.313249   -2.559397
     41          6           0        4.224610    4.503050   -2.654344
     42          8           0        2.986184    4.363992   -2.588535
     43          8           0        4.948809    5.629420   -2.568511
     44          6           0        4.097312    6.847515   -2.626403
     45          1           0        5.864838    1.632596    4.139030
     46          1           0        4.116833   -4.201821    2.783278
     47          1           0        4.425594   -2.931642   -3.359238
     48          1           0        6.173453    4.530277    0.148414
     49          1           0        5.843302    3.891997    2.874409
     50          1           0        7.974567    3.250463    0.871406
     51          1           0        7.787477    2.054972    2.191279
     52          1           0        8.152569    3.703255    2.616077
     53          1           0        3.709936    4.336581    1.893371
     54          1           0        3.475544    4.686105    0.134005
     55          1           0        5.420688    6.488733    1.160623
     56          1           0        4.335318    6.235794    2.474338
     57          1           0        5.090654    0.976747    5.986559
     58          1           0        5.244556   -0.586304    6.693099
     59          1           0        3.616880    0.133261    6.592029
     60          1           0        4.074049   -2.421443    7.221268
     61          1           0        2.710021   -3.673442    7.201148
     62          1           0        2.452819   -1.962329    6.766556
     63          1           0        3.488120   -5.458165    0.655653
     64          1           0        5.118502   -5.008669   -1.795427
     65          1           0        5.273194   -6.789830    1.037187
     66          1           0        6.260950   -5.300853    1.226971
     67          1           0        6.172441   -6.056628   -0.278999
     68          1           0        2.987185   -6.358945   -1.744876
     69          1           0        3.103448   -5.206656   -3.070228
     70          1           0        1.529648   -5.209753   -0.606526
     71          1           0        0.970690   -4.809012   -2.265942
     72          1           0        1.899731   -3.617748   -1.249831
     73          1           0        4.250580   -0.232568   -5.824292
     74          1           0        4.566573   -1.886927   -5.190011
     75          1           0        5.938893   -0.708403   -5.305695
     76          1           0        6.190563    3.603507   -2.564607
     77          1           0        4.471680    7.462229   -3.445066
     78          1           0        4.105045    7.278864   -1.625262
     79          1           0        3.062818    6.698148   -2.937612
     80         12           0       -4.596545    0.437641    0.320808
     81          6           0       -4.065121   -1.641000   -2.555977
     82          6           0       -4.988510   -2.426054    2.131949
     83          6           0       -5.511306    2.231506    2.772885
     84          6           0       -5.292852    3.055418   -1.871930
     85          7           0       -4.513889   -1.697497   -0.250670
     86          6           0       -4.243470   -2.367945   -1.360502
     87          6           0       -4.080020   -3.898955   -1.163397
     88          6           0       -4.944295   -4.062058    0.180209
     89          6           0       -4.781763   -2.653515    0.747883
     90          6           0       -6.421697   -4.304504   -0.080267
     91          6           0       -2.584289   -4.316329   -0.938460
     92          6           0       -2.312448   -5.818345   -1.047132
     93          1           0       -1.043320   -6.256227   -1.621636
     94          7           0       -4.685934    0.015673    2.257950
     95          6           0       -4.823221   -1.203730    2.819644
     96          6           0       -4.856578   -0.975944    4.272628
     97          6           0       -4.893493    0.491646    4.516631
     98          6           0       -5.056237    0.980083    3.161994
     99          6           0       -4.771544   -2.091627    5.273340
    100          6           0       -4.810552    1.318101    5.764144
    101          8           0       -5.103114    2.565994    5.765829
    102          6           0       -4.467081    0.603570    7.002279
    103          7           0       -5.505041    2.303787    0.441136
    104          6           0       -5.745900    2.879940    1.631914
    105          6           0       -6.147888    4.326152    1.466804
    106          6           0       -5.891545    4.670116   -0.073826
    107          6           0       -5.450690    3.277029   -0.574181
    108          6           0       -7.595023    4.659829    1.828527
    109          6           0       -4.978396    5.888665   -0.380389
    110          6           0       -3.560315    5.592585    0.051760
    111          7           0       -4.495363    0.746012   -1.815251
    112          6           0       -4.858125    1.910365   -2.527111
    113          6           0       -4.723914    1.600874   -3.965376
    114          6           0       -4.311223    0.260166   -3.991255
    115          6           0       -4.215820   -0.237257   -2.663484
    116          6           0       -5.017979    2.488789   -5.038340
    117          6           0       -3.944844   -0.850566   -4.840220
    118          8           0       -3.759991   -0.996919   -6.047763
    119          6           0       -3.891260   -2.168409   -3.953206
    120          6           0       -2.612870   -2.892959   -4.274573
    121          8           0       -1.511958   -2.386902   -3.994399
    122          8           0       -2.903031   -4.149607   -4.657995
    123          6           0       -1.666354   -4.911695   -4.976863
    124          1           0       -5.352633   -3.251226    2.744627
    125          1           0       -5.734392    2.925952    3.586185
    126          1           0       -5.396962    3.847698   -2.616334
    127          1           0       -4.503651   -4.506545   -1.954063
    128          1           0       -4.501071   -4.795911    0.848326
    129          1           0       -6.667116   -4.209118   -1.127557
    130          1           0       -6.949031   -3.559656    0.501262
    131          1           0       -6.722322   -5.273758    0.327768
    132          1           0       -2.321636   -4.153581    0.114751
    133          1           0       -1.935366   -3.782499   -1.605211
    134          1           0       -3.149279   -6.356339   -1.508886
    135          1           0       -2.250787   -6.233713   -0.038324
    136          1           0       -4.920347   -3.069567    4.799098
    137          1           0       -5.628605   -1.983124    5.946797
    138          1           0       -3.852699   -2.059689    5.862724
    139          1           0       -5.201815   -0.177114    7.184380
    140          1           0       -4.368248    1.375870    7.767563
    141          1           0       -3.503290    0.101870    6.860805
    142          1           0       -5.529659    4.971636    2.078567
    143          1           0       -6.827653    4.910828   -0.598802
    144          1           0       -7.681374    5.445557    2.602636
    145          1           0       -8.083998    3.750915    2.153070
    146          1           0       -8.219458    4.972550    0.993379
    147          1           0       -5.302822    6.759250    0.194927
    148          1           0       -4.978170    6.175877   -1.426572
    149          1           0       -3.574375    5.825430    1.120717
    150          1           0       -2.856633    6.228601   -0.481508
    151          1           0       -3.332573    4.525157   -0.050122
    152          1           0       -4.216766    2.383891   -5.757758
    153          1           0       -5.109411    3.515759   -4.690874
    154          1           0       -5.976205    2.081367   -5.371630
    155          1           0       -4.771815   -2.763793   -4.197549
    156          1           0       -1.779149   -5.291354   -5.997064
    157          1           0       -1.560400   -5.660543   -4.169551
    158          1           0       -0.741127   -4.353584   -5.059981
 ---------------------------------------------------------------------
 Rotational constants (GHZ):           0.0206028           0.0135149           0.0133994
 Leave Link  202 at Thu Sep  9 18:05:51 2021, MaxMem= 23488102400 cpu:               0.2 elap:               0.0
 (Enter /sw/apps/gaussian-16.0/g16/l301.exe)
 Standard basis: def2SVP (5D, 7F)
 Ernie: Thresh=  0.10000D-02 Tol=  0.10000D-05 Strict=F.
 There are  1658 symmetry adapted cartesian basis functions of A   symmetry.
 There are  1572 symmetry adapted basis functions of A   symmetry.
  1572 basis functions,  2678 primitive gaussians,  1658 cartesian basis functions
   312 alpha electrons      312 beta electrons
       nuclear repulsion energy     15501.1715403051 Hartrees.
 IExCor=20419 DFT=T Ex+Corr=CAM-B3LYP ExCW=0 ScaHFX=  1.000000
 ScaDFX=  1.000000  1.000000  1.000000  0.810000 ScalE2=  1.000000  1.000000
 IRadAn=      5 IRanWt=     -1 IRanGd=            0 ICorTp=0 IEmpDi=  4
 HFx  wShort=  0.000000 wLong=  0.330000 cFull=  0.190000 cShort=  0.000000 cLong=  0.460000
 DFx  wShort=  0.000000 wLong=  0.330000 cFull=  0.190000 cShort=  0.000000 cLong=  0.460000
 NAtoms=  158 NActive=  158 NUniq=  158 SFac= 1.00D+00 NAtFMM=   60 NAOKFM=T Big=T
 Integral buffers will be    131072 words long.
 Raffenetti 1 integral format.
 Two-electron integral symmetry is turned on.
 Leave Link  301 at Thu Sep  9 18:05:51 2021, MaxMem= 23488102400 cpu:               1.3 elap:               0.1
 (Enter /sw/apps/gaussian-16.0/g16/l302.exe)
 NPDir=0 NMtPBC=     1 NCelOv=     1 NCel=       1 NClECP=     1 NCelD=      1
         NCelK=      1 NCelE2=     1 NClLst=     1 CellRange=     0.0.
 One-electron integrals computed using PRISM.
 One-electron integral symmetry used in STVInt
   1 Symmetry operations used in ECPInt.
 ECPInt:  NShTT=  271216 NPrTT=  987664 LenC2=  152460 LenP2D=  316563.
 LDataN:  DoStor=T MaxTD1= 4 Len=   56
 NBasis=  1572 RedAO= T EigKep=  3.36D-04  NBF=  1572
 NBsUse=  1572 1.00D-06 EigRej= -1.00D+00 NBFU=  1572
 Precomputing XC quadrature grid using
 IXCGrd= 4 IRadAn=           5 IRanWt=          -1 IRanGd=           0 AccXCQ= 0.00D+00.
 Generated NRdTot=       0 NPtTot=           0 NUsed=           0 NTot=          32
 NSgBfM=  1137  1137  1137  1137  1137 MxSgAt=   158 MxSgA2=   158.
 Leave Link  302 at Thu Sep  9 18:05:56 2021, MaxMem= 23488102400 cpu:             127.5 elap:               5.3
 (Enter /sw/apps/gaussian-16.0/g16/l303.exe)
 DipDrv:  MaxL=1.
 Leave Link  303 at Thu Sep  9 18:05:57 2021, MaxMem= 23488102400 cpu:               8.6 elap:               0.4
 (Enter /sw/apps/gaussian-16.0/g16/l308.exe)
 Leave Link  308 at Thu Sep  9 18:05:58 2021, MaxMem= 23488102400 cpu:              15.9 elap:               0.8
 (Enter /sw/apps/gaussian-16.0/g16/l401.exe)
 ExpMin= 3.36D-02 ExpMax= 4.95D+03 ExpMxC= 7.45D+02 IAcc=3 IRadAn=         5 AccDes= 0.00D+00
 Harris functional with IExCor=20419 and IRadAn=       5 diagonalized for initial guess.
 HarFok:  IExCor=20419 AccDes= 0.00D+00 IRadAn=         5 IDoV= 1 UseB2=F ITyADJ=14
 ICtDFT=  3500011 ScaDFX=  1.000000  1.000000  1.000000  1.000000
 FoFCou: FMM=F IPFlag=           0 FMFlag=      100000 FMFlg1=        2001
         NFxFlg=           0 DoJE=T BraDBF=F KetDBF=T FulRan=T
         wScrn=  0.000000 ICntrl=       500 IOpCl=  0 I1Cent=   200000004 NGrid=           0
         NMat0=    1 NMatS0=      1 NMatT0=    0 NMatD0=    1 NMtDS0=    0 NMtDT0=    0
 Petite list used in FoFCou.
 Harris En= -3918.65807107953    
 JPrj=0 DoOrth=F DoCkMO=F.
 Leave Link  401 at Thu Sep  9 18:06:05 2021, MaxMem= 23488102400 cpu:             187.6 elap:               7.8
 (Enter /sw/apps/gaussian-16.0/g16/l502.exe)
 Integral symmetry usage will be decided dynamically.
 Closed shell SCF:
 Using DIIS extrapolation, IDIIS=  1040.
 NGot= 23488102400 LenX= 23482547354 LenY= 23479796732
 Requested convergence on RMS density matrix=1.00D-08 within 128 cycles.
 Requested convergence on MAX density matrix=1.00D-06.
 Requested convergence on             energy=1.00D-06.
 No special actions if energy rises.
 Fock matrices will be formed incrementally for  20 cycles.

 Cycle   1  Pass 1  IDiag  1:
 FoFJK:  IHMeth= 1 ICntrl=       0 DoSepK=T KAlg= 0 I1Cent=           0 FoldK=F
 IRaf=         1 NMat=       1 IRICut=       1 DoRegI=T DoRafI=F ISym2E= 0 IDoP0=0 IntGTp=1.
 FoFCou: FMM=T IPFlag=           0 FMFlag=      100000 FMFlg1=        2001
         NFxFlg=           0 DoJE=T BraDBF=F KetDBF=F FulRan=T
         wScrn=  0.000000 ICntrl=       500 IOpCl=  0 I1Cent=           0 NGrid=           0
         NMat0=    1 NMatS0=      1 NMatT0=    0 NMatD0=    1 NMtDS0=    0 NMtDT0=    0
 Symmetry not used in FoFCou.
 FMM levels:  10  Number of levels for PrismC:   9
 E= -4068.94751602320    
 DIIS: error= 2.04D-02 at cycle   1 NSaved=   1.
 NSaved= 1 IEnMin= 1 EnMin= -4068.94751602320     IErMin= 1 ErrMin= 2.04D-02
 ErrMax= 2.04D-02  0.00D+00 EMaxC= 1.00D-01 BMatC= 1.69D+00 BMatP= 1.69D+00
 IDIUse=3 WtCom= 7.96D-01 WtEn= 2.04D-01
 Coeff-Com:  0.100D+01
 Coeff-En:   0.100D+01
 Coeff:      0.100D+01
 Gap=     0.120 Goal=   None    Shift=    0.000
 GapD=    0.120 DampG=1.000 DampE=0.500 DampFc=0.5000 IDamp=-1.
 Damping current iteration by 5.00D-01
 RMSDP=1.58D-03 MaxDP=1.34D-01              OVMax= 2.21D-01

 Cycle   2  Pass 1  IDiag  1:
 RMSU=  7.72D-04    CP:  9.82D-01
 E= -4069.33549534813     Delta-E=       -0.387979324933 Rises=F Damp=T
 DIIS: error= 1.27D-02 at cycle   2 NSaved=   2.
 NSaved= 2 IEnMin= 2 EnMin= -4069.33549534813     IErMin= 2 ErrMin= 1.27D-02
 ErrMax= 1.27D-02  0.00D+00 EMaxC= 1.00D-01 BMatC= 3.08D-01 BMatP= 1.69D+00
 IDIUse=3 WtCom= 8.73D-01 WtEn= 1.27D-01
 Coeff-Com: -0.210D+00 0.121D+01
 Coeff-En:   0.000D+00 0.100D+01
 Coeff:     -0.183D+00 0.118D+01
 Gap=     0.138 Goal=   None    Shift=    0.000
 RMSDP=7.73D-04 MaxDP=9.48D-02 DE=-3.88D-01 OVMax= 2.01D-01

 Cycle   3  Pass 1  IDiag  1:
 RMSU=  7.42D-04    CP:  9.68D-01  1.23D+00
 E= -4069.61976651931     Delta-E=       -0.284271171178 Rises=F Damp=F
 DIIS: error= 1.59D-02 at cycle   3 NSaved=   3.
 NSaved= 3 IEnMin= 3 EnMin= -4069.61976651931     IErMin= 2 ErrMin= 1.27D-02
 ErrMax= 1.59D-02  0.00D+00 EMaxC= 1.00D-01 BMatC= 2.08D-01 BMatP= 3.08D-01
 IDIUse=3 WtCom= 8.41D-01 WtEn= 1.59D-01
 Coeff-Com: -0.268D+00 0.656D+00 0.612D+00
 Coeff-En:   0.000D+00 0.000D+00 0.100D+01
 Coeff:     -0.225D+00 0.551D+00 0.674D+00
 Gap=     0.125 Goal=   None    Shift=    0.000
 RMSDP=5.28D-04 MaxDP=4.82D-02 DE=-2.84D-01 OVMax= 1.70D-01

 Cycle   4  Pass 1  IDiag  1:
 RMSU=  2.74D-04    CP:  9.65D-01  1.55D+00  4.92D-01
 E= -4069.75960069453     Delta-E=       -0.139834175217 Rises=F Damp=F
 DIIS: error= 7.41D-03 at cycle   4 NSaved=   4.
 NSaved= 4 IEnMin= 4 EnMin= -4069.75960069453     IErMin= 4 ErrMin= 7.41D-03
 ErrMax= 7.41D-03  0.00D+00 EMaxC= 1.00D-01 BMatC= 5.44D-02 BMatP= 2.08D-01
 IDIUse=3 WtCom= 9.26D-01 WtEn= 7.41D-02
 Coeff-Com: -0.110D+00 0.230D+00 0.412D+00 0.469D+00
 Coeff-En:   0.000D+00 0.000D+00 0.234D+00 0.766D+00
 Coeff:     -0.102D+00 0.213D+00 0.399D+00 0.491D+00
 Gap=     0.122 Goal=   None    Shift=    0.000
 RMSDP=2.16D-04 MaxDP=2.09D-02 DE=-1.40D-01 OVMax= 8.04D-02

 Cycle   5  Pass 1  IDiag  1:
 RMSU=  8.33D-05    CP:  9.64D-01  1.48D+00  6.85D-01  5.31D-01
 E= -4069.80970316699     Delta-E=       -0.050102472462 Rises=F Damp=F
 DIIS: error= 7.42D-04 at cycle   5 NSaved=   5.
 NSaved= 5 IEnMin= 5 EnMin= -4069.80970316699     IErMin= 5 ErrMin= 7.42D-04
 ErrMax= 7.42D-04  0.00D+00 EMaxC= 1.00D-01 BMatC= 1.52D-03 BMatP= 5.44D-02
 IDIUse=3 WtCom= 9.93D-01 WtEn= 7.42D-03
 Coeff-Com: -0.397D-01 0.784D-01 0.180D+00 0.262D+00 0.519D+00
 Coeff-En:   0.000D+00 0.000D+00 0.000D+00 0.000D+00 0.100D+01
 Coeff:     -0.394D-01 0.778D-01 0.179D+00 0.260D+00 0.523D+00
 Gap=     0.122 Goal=   None    Shift=    0.000
 RMSDP=4.87D-05 MaxDP=4.64D-03 DE=-5.01D-02 OVMax= 2.42D-02

 Cycle   6  Pass 1  IDiag  1:
 RMSU=  3.41D-05    CP:  9.64D-01  1.49D+00  6.75D-01  6.13D-01  6.98D-01
 E= -4069.81113275936     Delta-E=       -0.001429592372 Rises=F Damp=F
 DIIS: error= 2.35D-04 at cycle   6 NSaved=   6.
 NSaved= 6 IEnMin= 6 EnMin= -4069.81113275936     IErMin= 6 ErrMin= 2.35D-04
 ErrMax= 2.35D-04  0.00D+00 EMaxC= 1.00D-01 BMatC= 2.19D-04 BMatP= 1.52D-03
 IDIUse=3 WtCom= 9.98D-01 WtEn= 2.35D-03
 Coeff-Com:  0.162D-02-0.551D-02 0.149D-01 0.449D-01 0.298D+00 0.646D+00
 Coeff-En:   0.000D+00 0.000D+00 0.000D+00 0.000D+00 0.114D+00 0.886D+00
 Coeff:      0.161D-02-0.550D-02 0.149D-01 0.448D-01 0.297D+00 0.647D+00
 Gap=     0.122 Goal=   None    Shift=    0.000
 RMSDP=1.84D-05 MaxDP=1.45D-03 DE=-1.43D-03 OVMax= 8.90D-03

 Cycle   7  Pass 1  IDiag  1:
 RMSU=  1.20D-05    CP:  9.64D-01  1.49D+00  6.81D-01  6.10D-01  8.14D-01
                    CP:  7.42D-01
 E= -4069.81137950715     Delta-E=       -0.000246747790 Rises=F Damp=F
 DIIS: error= 1.13D-04 at cycle   7 NSaved=   7.
 NSaved= 7 IEnMin= 7 EnMin= -4069.81137950715     IErMin= 7 ErrMin= 1.13D-04
 ErrMax= 1.13D-04  0.00D+00 EMaxC= 1.00D-01 BMatC= 3.03D-05 BMatP= 2.19D-04
 IDIUse=3 WtCom= 9.99D-01 WtEn= 1.13D-03
 Coeff-Com:  0.471D-02-0.104D-01-0.875D-02-0.249D-02 0.108D+00 0.349D+00
 Coeff-Com:  0.559D+00
 Coeff-En:   0.000D+00 0.000D+00 0.000D+00 0.000D+00 0.000D+00 0.000D+00
 Coeff-En:   0.100D+01
 Coeff:      0.470D-02-0.104D-01-0.874D-02-0.249D-02 0.108D+00 0.349D+00
 Coeff:      0.560D+00
 Gap=     0.123 Goal=   None    Shift=    0.000
 RMSDP=7.16D-06 MaxDP=1.14D-03 DE=-2.47D-04 OVMax= 3.68D-03

 Cycle   8  Pass 1  IDiag  1:
 RMSU=  5.08D-06    CP:  9.64D-01  1.49D+00  6.82D-01  6.16D-01  8.13D-01
                    CP:  8.62D-01  7.99D-01
 E= -4069.81141642703     Delta-E=       -0.000036919882 Rises=F Damp=F
 DIIS: error= 5.04D-05 at cycle   8 NSaved=   8.
 NSaved= 8 IEnMin= 8 EnMin= -4069.81141642703     IErMin= 8 ErrMin= 5.04D-05
 ErrMax= 5.04D-05  0.00D+00 EMaxC= 1.00D-01 BMatC= 5.21D-06 BMatP= 3.03D-05
 IDIUse=1 WtCom= 1.00D+00 WtEn= 0.00D+00
 Coeff-Com:  0.228D-02-0.455D-02-0.796D-02-0.120D-01-0.636D-02 0.347D-01
 Coeff-Com:  0.303D+00 0.691D+00
 Coeff:      0.228D-02-0.455D-02-0.796D-02-0.120D-01-0.636D-02 0.347D-01
 Coeff:      0.303D+00 0.691D+00
 Gap=     0.123 Goal=   None    Shift=    0.000
 RMSDP=3.52D-06 MaxDP=3.79D-04 DE=-3.69D-05 OVMax= 1.26D-03

 Cycle   9  Pass 1  IDiag  1:
 RMSU=  2.07D-06    CP:  9.64D-01  1.49D+00  6.83D-01  6.17D-01  8.29D-01
                    CP:  8.92D-01  9.83D-01  9.92D-01
 E= -4069.81142503320     Delta-E=       -0.000008606166 Rises=F Damp=F
 DIIS: error= 1.74D-05 at cycle   9 NSaved=   9.
 NSaved= 9 IEnMin= 9 EnMin= -4069.81142503320     IErMin= 9 ErrMin= 1.74D-05
 ErrMax= 1.74D-05  0.00D+00 EMaxC= 1.00D-01 BMatC= 8.81D-07 BMatP= 5.21D-06
 IDIUse=1 WtCom= 1.00D+00 WtEn= 0.00D+00
 Coeff-Com:  0.480D-03-0.790D-03-0.277D-02-0.616D-02-0.192D-01-0.435D-01
 Coeff-Com:  0.826D-01 0.349D+00 0.640D+00
 Coeff:      0.480D-03-0.790D-03-0.277D-02-0.616D-02-0.192D-01-0.435D-01
 Coeff:      0.826D-01 0.349D+00 0.640D+00
 Gap=     0.123 Goal=   None    Shift=    0.000
 RMSDP=1.57D-06 MaxDP=1.71D-04 DE=-8.61D-06 OVMax= 7.95D-04

 Cycle  10  Pass 1  IDiag  1:
 RMSU=  1.01D-06    CP:  9.64D-01  1.49D+00  6.83D-01  6.18D-01  8.33D-01
                    CP:  9.04D-01  1.03D+00  1.16D+00  1.07D+00
 E= -4069.81142703355     Delta-E=       -0.000002000354 Rises=F Damp=F
 DIIS: error= 8.62D-06 at cycle  10 NSaved=  10.
 NSaved=10 IEnMin=10 EnMin= -4069.81142703355     IErMin=10 ErrMin= 8.62D-06
 ErrMax= 8.62D-06  0.00D+00 EMaxC= 1.00D-01 BMatC= 1.92D-07 BMatP= 8.81D-07
 IDIUse=1 WtCom= 1.00D+00 WtEn= 0.00D+00
 Coeff-Com: -0.445D-03 0.936D-03 0.127D-02 0.105D-02-0.327D-02-0.321D-01
 Coeff-Com: -0.447D-01-0.692D-01 0.219D+00 0.927D+00
 Coeff:     -0.445D-03 0.936D-03 0.127D-02 0.105D-02-0.327D-02-0.321D-01
 Coeff:     -0.447D-01-0.692D-01 0.219D+00 0.927D+00
 Gap=     0.123 Goal=   None    Shift=    0.000
 RMSDP=1.35D-06 MaxDP=1.23D-04 DE=-2.00D-06 OVMax= 6.66D-04

 Cycle  11  Pass 1  IDiag  1:
 RMSU=  5.76D-07    CP:  9.64D-01  1.49D+00  6.83D-01  6.18D-01  8.35D-01
                    CP:  9.15D-01  1.08D+00  1.28D+00  1.41D+00  1.41D+00
 E= -4069.81142798910     Delta-E=       -0.000000955548 Rises=F Damp=F
 DIIS: error= 4.81D-06 at cycle  11 NSaved=  11.
 NSaved=11 IEnMin=11 EnMin= -4069.81142798910     IErMin=11 ErrMin= 4.81D-06
 ErrMax= 4.81D-06  0.00D+00 EMaxC= 1.00D-01 BMatC= 7.98D-08 BMatP= 1.92D-07
 IDIUse=1 WtCom= 1.00D+00 WtEn= 0.00D+00
 Coeff-Com: -0.351D-03 0.682D-03 0.142D-02 0.218D-02 0.457D-02-0.815D-02
 Coeff-Com: -0.399D-01-0.133D+00-0.560D-01 0.495D+00 0.733D+00
 Coeff:     -0.351D-03 0.682D-03 0.142D-02 0.218D-02 0.457D-02-0.815D-02
 Coeff:     -0.399D-01-0.133D+00-0.560D-01 0.495D+00 0.733D+00
 Gap=     0.123 Goal=   None    Shift=    0.000
 RMSDP=7.78D-07 MaxDP=7.88D-05 DE=-9.56D-07 OVMax= 4.17D-04

 Cycle  12  Pass 1  IDiag  1:
 RMSU=  2.89D-07    CP:  9.64D-01  1.49D+00  6.83D-01  6.18D-01  8.36D-01
                    CP:  9.17D-01  1.10D+00  1.35D+00  1.59D+00  1.81D+00
                    CP:  1.20D+00
 E= -4069.81142832429     Delta-E=       -0.000000335189 Rises=F Damp=F
 DIIS: error= 2.72D-06 at cycle  12 NSaved=  12.
 NSaved=12 IEnMin=12 EnMin= -4069.81142832429     IErMin=12 ErrMin= 2.72D-06
 ErrMax= 2.72D-06  0.00D+00 EMaxC= 1.00D-01 BMatC= 1.89D-08 BMatP= 7.98D-08
 IDIUse=1 WtCom= 1.00D+00 WtEn= 0.00D+00
 Coeff-Com: -0.610D-05-0.667D-05 0.221D-03 0.557D-03 0.358D-02 0.426D-02
 Coeff-Com:  0.251D-02-0.344D-01-0.781D-01-0.594D-01 0.244D+00 0.917D+00
 Coeff:     -0.610D-05-0.667D-05 0.221D-03 0.557D-03 0.358D-02 0.426D-02
 Coeff:      0.251D-02-0.344D-01-0.781D-01-0.594D-01 0.244D+00 0.917D+00
 Gap=     0.123 Goal=   None    Shift=    0.000
 RMSDP=4.90D-07 MaxDP=3.51D-05 DE=-3.35D-07 OVMax= 2.68D-04

 Cycle  13  Pass 1  IDiag  1:
 RMSU=  1.80D-07    CP:  9.64D-01  1.49D+00  6.83D-01  6.18D-01  8.36D-01
                    CP:  9.18D-01  1.10D+00  1.38D+00  1.70D+00  2.05D+00
                    CP:  1.61D+00  1.28D+00
 E= -4069.81142843876     Delta-E=       -0.000000114469 Rises=F Damp=F
 DIIS: error= 1.65D-06 at cycle  13 NSaved=  13.
 NSaved=13 IEnMin=13 EnMin= -4069.81142843876     IErMin=13 ErrMin= 1.65D-06
 ErrMax= 1.65D-06  0.00D+00 EMaxC= 1.00D-01 BMatC= 1.03D-08 BMatP= 1.89D-08
 IDIUse=1 WtCom= 1.00D+00 WtEn= 0.00D+00
 Coeff-Com:  0.126D-03-0.257D-03-0.383D-03-0.470D-03 0.735D-03 0.494D-02
 Coeff-Com:  0.182D-01 0.254D-01-0.287D-01-0.243D+00-0.174D+00 0.602D+00
 Coeff-Com:  0.795D+00
 Coeff:      0.126D-03-0.257D-03-0.383D-03-0.470D-03 0.735D-03 0.494D-02
 Coeff:      0.182D-01 0.254D-01-0.287D-01-0.243D+00-0.174D+00 0.602D+00
 Coeff:      0.795D+00
 Gap=     0.123 Goal=   None    Shift=    0.000
 RMSDP=3.84D-07 MaxDP=2.69D-05 DE=-1.14D-07 OVMax= 2.23D-04

 Cycle  14  Pass 1  IDiag  1:
 RMSU=  8.47D-08    CP:  9.64D-01  1.49D+00  6.83D-01  6.18D-01  8.36D-01
                    CP:  9.18D-01  1.11D+00  1.41D+00  1.78D+00  2.26D+00
                    CP:  1.88D+00  1.80D+00  1.09D+00
 E= -4069.81142848400     Delta-E=       -0.000000045238 Rises=F Damp=F
 DIIS: error= 7.61D-07 at cycle  14 NSaved=  14.
 NSaved=14 IEnMin=14 EnMin= -4069.81142848400     IErMin=14 ErrMin= 7.61D-07
 ErrMax= 7.61D-07  0.00D+00 EMaxC= 1.00D-01 BMatC= 1.54D-09 BMatP= 1.03D-08
 IDIUse=1 WtCom= 1.00D+00 WtEn= 0.00D+00
 Coeff-Com:  0.704D-04-0.139D-03-0.259D-03-0.401D-03-0.385D-03 0.115D-02
 Coeff-Com:  0.977D-02 0.205D-01 0.677D-02-0.103D+00-0.149D+00 0.997D-01
 Coeff-Com:  0.405D+00 0.710D+00
 Coeff:      0.704D-04-0.139D-03-0.259D-03-0.401D-03-0.385D-03 0.115D-02
 Coeff:      0.977D-02 0.205D-01 0.677D-02-0.103D+00-0.149D+00 0.997D-01
 Coeff:      0.405D+00 0.710D+00
 Gap=     0.123 Goal=   None    Shift=    0.000
 RMSDP=1.13D-07 MaxDP=7.78D-06 DE=-4.52D-08 OVMax= 5.95D-05

 Cycle  15  Pass 1  IDiag  1:
 RMSU=  4.12D-08    CP:  9.64D-01  1.49D+00  6.83D-01  6.18D-01  8.36D-01
                    CP:  9.18D-01  1.11D+00  1.41D+00  1.80D+00  2.30D+00
                    CP:  1.98D+00  1.94D+00  1.32D+00  1.02D+00
 E= -4069.81142848846     Delta-E=       -0.000000004464 Rises=F Damp=F
 DIIS: error= 4.15D-07 at cycle  15 NSaved=  15.
 NSaved=15 IEnMin=15 EnMin= -4069.81142848846     IErMin=15 ErrMin= 4.15D-07
 ErrMax= 4.15D-07  0.00D+00 EMaxC= 1.00D-01 BMatC= 2.83D-10 BMatP= 1.54D-09
 IDIUse=1 WtCom= 1.00D+00 WtEn= 0.00D+00
 Coeff-Com:  0.704D-05-0.121D-04-0.397D-04-0.939D-04-0.283D-03-0.587D-03
 Coeff-Com:  0.112D-02 0.312D-02 0.903D-02 0.823D-03-0.335D-01-0.686D-01
 Coeff-Com:  0.346D-01 0.313D+00 0.741D+00
 Coeff:      0.704D-05-0.121D-04-0.397D-04-0.939D-04-0.283D-03-0.587D-03
 Coeff:      0.112D-02 0.312D-02 0.903D-02 0.823D-03-0.335D-01-0.686D-01
 Coeff:      0.346D-01 0.313D+00 0.741D+00
 Gap=     0.123 Goal=   None    Shift=    0.000
 RMSDP=4.08D-08 MaxDP=2.99D-06 DE=-4.46D-09 OVMax= 2.84D-05

 Cycle  16  Pass 1  IDiag  1:
 RMSU=  2.06D-08    CP:  9.64D-01  1.49D+00  6.83D-01  6.18D-01  8.36D-01
                    CP:  9.18D-01  1.11D+00  1.41D+00  1.80D+00  2.32D+00
                    CP:  2.00D+00  1.99D+00  1.39D+00  1.22D+00  1.11D+00
 E= -4069.81142848928     Delta-E=       -0.000000000815 Rises=F Damp=F
 DIIS: error= 1.87D-07 at cycle  16 NSaved=  16.
 NSaved=16 IEnMin=16 EnMin= -4069.81142848928     IErMin=16 ErrMin= 1.87D-07
 ErrMax= 1.87D-07  0.00D+00 EMaxC= 1.00D-01 BMatC= 9.98D-11 BMatP= 2.83D-10
 IDIUse=1 WtCom= 1.00D+00 WtEn= 0.00D+00
 Coeff-Com: -0.136D-04 0.277D-04 0.434D-04 0.454D-04-0.427D-04-0.641D-03
 Coeff-Com: -0.162D-02-0.399D-02 0.356D-02 0.247D-01 0.181D-01-0.619D-01
 Coeff-Com: -0.763D-01-0.171D-01 0.396D+00 0.719D+00
 Coeff:     -0.136D-04 0.277D-04 0.434D-04 0.454D-04-0.427D-04-0.641D-03
 Coeff:     -0.162D-02-0.399D-02 0.356D-02 0.247D-01 0.181D-01-0.619D-01
 Coeff:     -0.763D-01-0.171D-01 0.396D+00 0.719D+00
 Gap=     0.123 Goal=   None    Shift=    0.000
 RMSDP=2.38D-08 MaxDP=1.50D-06 DE=-8.15D-10 OVMax= 1.26D-05

 Cycle  17  Pass 1  IDiag  1:
 RMSU=  1.17D-08    CP:  9.64D-01  1.49D+00  6.83D-01  6.18D-01  8.36D-01
                    CP:  9.18D-01  1.11D+00  1.41D+00  1.81D+00  2.32D+00
                    CP:  2.01D+00  2.02D+00  1.43D+00  1.30D+00  1.38D+00
                    CP:  1.16D+00
 E= -4069.81142848975     Delta-E=       -0.000000000469 Rises=F Damp=F
 DIIS: error= 9.82D-08 at cycle  17 NSaved=  17.
 NSaved=17 IEnMin=17 EnMin= -4069.81142848975     IErMin=17 ErrMin= 9.82D-08
 ErrMax= 9.82D-08  0.00D+00 EMaxC= 1.00D-01 BMatC= 2.26D-11 BMatP= 9.98D-11
 IDIUse=1 WtCom= 1.00D+00 WtEn= 0.00D+00
 Coeff-Com: -0.799D-05 0.156D-04 0.307D-04 0.433D-04 0.728D-04-0.158D-03
 Coeff-Com: -0.872D-03-0.292D-02-0.196D-03 0.111D-01 0.175D-01-0.109D-01
 Coeff-Com: -0.401D-01-0.951D-01-0.891D-02 0.316D+00 0.814D+00
 Coeff:     -0.799D-05 0.156D-04 0.307D-04 0.433D-04 0.728D-04-0.158D-03
 Coeff:     -0.872D-03-0.292D-02-0.196D-03 0.111D-01 0.175D-01-0.109D-01
 Coeff:     -0.401D-01-0.951D-01-0.891D-02 0.316D+00 0.814D+00
 Gap=     0.123 Goal=   None    Shift=    0.000
 RMSDP=1.39D-08 MaxDP=9.72D-07 DE=-4.69D-10 OVMax= 9.08D-06

 Cycle  18  Pass 1  IDiag  1:
 RMSU=  5.69D-09    CP:  9.64D-01  1.49D+00  6.83D-01  6.18D-01  8.36D-01
                    CP:  9.18D-01  1.11D+00  1.41D+00  1.81D+00  2.32D+00
                    CP:  2.01D+00  2.02D+00  1.45D+00  1.37D+00  1.54D+00
                    CP:  1.54D+00  1.30D+00
 E= -4069.81142848987     Delta-E=       -0.000000000127 Rises=F Damp=F
 DIIS: error= 6.75D-08 at cycle  18 NSaved=  18.
 NSaved=18 IEnMin=18 EnMin= -4069.81142848987     IErMin=18 ErrMin= 6.75D-08
 ErrMax= 6.75D-08  0.00D+00 EMaxC= 1.00D-01 BMatC= 8.99D-12 BMatP= 2.26D-11
 IDIUse=1 WtCom= 1.00D+00 WtEn= 0.00D+00
 Coeff-Com:  0.451D-06-0.126D-05 0.136D-05 0.640D-05 0.663D-04 0.139D-03
 Coeff-Com:  0.190D-03-0.260D-03-0.119D-02-0.355D-02 0.242D-02 0.154D-01
 Coeff-Com:  0.883D-02-0.452D-01-0.141D+00-0.109D+00 0.408D+00 0.865D+00
 Coeff:      0.451D-06-0.126D-05 0.136D-05 0.640D-05 0.663D-04 0.139D-03
 Coeff:      0.190D-03-0.260D-03-0.119D-02-0.355D-02 0.242D-02 0.154D-01
 Coeff:      0.883D-02-0.452D-01-0.141D+00-0.109D+00 0.408D+00 0.865D+00
 Gap=     0.123 Goal=   None    Shift=    0.000
 RMSDP=1.07D-08 MaxDP=7.60D-07 DE=-1.27D-10 OVMax= 5.96D-06

 Cycle  19  Pass 1  IDiag  1:
 RMSU=  3.26D-09    CP:  9.64D-01  1.49D+00  6.83D-01  6.18D-01  8.36D-01
                    CP:  9.18D-01  1.11D+00  1.41D+00  1.81D+00  2.32D+00
                    CP:  2.02D+00  2.03D+00  1.46D+00  1.40D+00  1.66D+00
                    CP:  1.78D+00  1.80D+00  1.19D+00
 E= -4069.81142848977     Delta-E=        0.000000000098 Rises=F Damp=F
 DIIS: error= 2.61D-08 at cycle  19 NSaved=  19.
 NSaved=19 IEnMin=18 EnMin= -4069.81142848987     IErMin=19 ErrMin= 2.61D-08
 ErrMax= 2.61D-08  0.00D+00 EMaxC= 1.00D-01 BMatC= 2.77D-12 BMatP= 8.99D-12
 IDIUse=1 WtCom= 1.00D+00 WtEn= 0.00D+00
 Coeff-Com:  0.315D-05-0.640D-05-0.102D-04-0.119D-04 0.219D-04 0.140D-03
 Coeff-Com:  0.464D-03 0.854D-03-0.597D-03-0.649D-02-0.485D-02 0.139D-01
 Coeff-Com:  0.216D-01 0.575D-02-0.876D-01-0.196D+00-0.323D-01 0.534D+00
 Coeff-Com:  0.751D+00
 Coeff:      0.315D-05-0.640D-05-0.102D-04-0.119D-04 0.219D-04 0.140D-03
 Coeff:      0.464D-03 0.854D-03-0.597D-03-0.649D-02-0.485D-02 0.139D-01
 Coeff:      0.216D-01 0.575D-02-0.876D-01-0.196D+00-0.323D-01 0.534D+00
 Coeff:      0.751D+00
 Gap=     0.123 Goal=   None    Shift=    0.000
 RMSDP=6.40D-09 MaxDP=4.03D-07 DE= 9.82D-11 OVMax= 3.94D-06

 SCF Done:  E(RCAM-B3LYP) =  -4069.81142849     A.U. after   19 cycles
            NFock= 19  Conv=0.64D-08     -V/T= 2.0102
 KE= 4.028800528965D+03 PE=-4.048422357287D+04 EE= 1.688444007511D+04
 Leave Link  502 at Thu Sep  9 18:17:11 2021, MaxMem= 23488102400 cpu:           15357.1 elap:             666.0
 (Enter /sw/apps/gaussian-16.0/g16/l801.exe)
 DoSCS=F DFT=T ScalE2(SS,OS)=  1.000000  1.000000
 ExpMin= 3.36D-02 ExpMax= 4.95D+03 ExpMxC= 7.45D+02 IAcc=3 IRadAn=         5 AccDes= 0.00D+00
 HarFok:  IExCor=  205 AccDes= 0.00D+00 IRadAn=         5 IDoV=-2 UseB2=F ITyADJ=14
 ICtDFT= 12500011 ScaDFX=  1.000000  1.000000  1.000000  1.000000
 GSVD:  LWork=       -9588 too small for GESVD, short by       45590 words or       45590 for optimal perf.
 Largest valence mixing into a core orbital is  2.03D-04
 Largest core mixing into a valence orbital is  5.23D-05
 Range of M.O.s used for correlation:    95  1572
 NBasis=  1572 NAE=   312 NBE=   312 NFC=    94 NFV=     0
 NROrb=   1478 NOA=   218 NOB=   218 NVA=  1260 NVB=  1260
 Leave Link  801 at Thu Sep  9 18:17:12 2021, MaxMem= 23488102400 cpu:               9.0 elap:               0.4
 (Enter /sw/apps/gaussian-16.0/g16/l914.exe)
 RHF ground state
 Two-electron integrals replicated using symmetry.
 MDV= 23488102400 DFT=T DoStab=F Mixed=T DoRPA=T DoScal=F NonHer=T
 Making orbital integer symmetry assigments:
 Orbital symmetries:
       Occupied  (A) (A) (A) (A) (A) (A) (A) (A) (A) (A) (A) (A)
                 (A) (A) (A) (A) (A) (A) (A) (A) (A) (A) (A) (A)
                 (A) (A) (A) (A) (A) (A) (A) (A) (A) (A) (A) (A)
                 (A) (A) (A) (A) (A) (A) (A) (A) (A) (A) (A) (A)
                 (A) (A) (A) (A) (A) (A) (A) (A) (A) (A) (A) (A)
                 (A) (A) (A) (A) (A) (A) (A) (A) (A) (A) (A) (A)
                 (A) (A) (A) (A) (A) (A) (A) (A) (A) (A) (A) (A)
                 (A) (A) (A) (A) (A) (A) (A) (A) (A) (A) (A) (A)
                 (A) (A) (A) (A) (A) (A) (A) (A) (A) (A) (A) (A)
                 (A) (A) (A) (A) (A) (A) (A) (A) (A) (A) (A) (A)
                 (A) (A) (A) (A) (A) (A) (A) (A) (A) (A) (A) (A)
                 (A) (A) (A) (A) (A) (A) (A) (A) (A) (A) (A) (A)
                 (A) (A) (A) (A) (A) (A) (A) (A) (A) (A) (A) (A)
                 (A) (A) (A) (A) (A) (A) (A) (A) (A) (A) (A) (A)
                 (A) (A) (A) (A) (A) (A) (A) (A) (A) (A) (A) (A)
                 (A) (A) (A) (A) (A) (A) (A) (A) (A) (A) (A) (A)
                 (A) (A) (A) (A) (A) (A) (A) (A) (A) (A) (A) (A)
                 (A) (A) (A) (A) (A) (A) (A) (A) (A) (A) (A) (A)
                 (A) (A) (A) (A) (A) (A) (A) (A) (A) (A) (A) (A)
                 (A) (A) (A) (A) (A) (A) (A) (A) (A) (A) (A) (A)
                 (A) (A) (A) (A) (A) (A) (A) (A) (A) (A) (A) (A)
                 (A) (A) (A) (A) (A) (A) (A) (A) (A) (A) (A) (A)
                 (A) (A) (A) (A) (A) (A) (A) (A) (A) (A) (A) (A)
                 (A) (A) (A) (A) (A) (A) (A) (A) (A) (A) (A) (A)
                 (A) (A) (A) (A) (A) (A) (A) (A) (A) (A) (A) (A)
                 (A) (A) (A) (A) (A) (A) (A) (A) (A) (A) (A) (A)
       Virtual   (A) (A) (A) (A) (A) (A) (A) (A) (A) (A) (A) (A)
                 (A) (A) (A) (A) (A) (A) (A) (A) (A) (A) (A) (A)
                 (A) (A) (A) (A) (A) (A) (A) (A) (A) (A) (A) (A)
                 (A) (A) (A) (A) (A) (A) (A) (A) (A) (A) (A) (A)
                 (A) (A) (A) (A) (A) (A) (A) (A) (A) (A) (A) (A)
                 (A) (A) (A) (A) (A) (A) (A) (A) (A) (A) (A) (A)
                 (A) (A) (A) (A) (A) (A) (A) (A) (A) (A) (A) (A)
                 (A) (A) (A) (A) (A) (A) (A) (A) (A) (A) (A) (A)
                 (A) (A) (A) (A) (A) (A) (A) (A) (A) (A) (A) (A)
                 (A) (A) (A) (A) (A) (A) (A) (A) (A) (A) (A) (A)
                 (A) (A) (A) (A) (A) (A) (A) (A) (A) (A) (A) (A)
                 (A) (A) (A) (A) (A) (A) (A) (A) (A) (A) (A) (A)
                 (A) (A) (A) (A) (A) (A) (A) (A) (A) (A) (A) (A)
                 (A) (A) (A) (A) (A) (A) (A) (A) (A) (A) (A) (A)
                 (A) (A) (A) (A) (A) (A) (A) (A) (A) (A) (A) (A)
                 (A) (A) (A) (A) (A) (A) (A) (A) (A) (A) (A) (A)
                 (A) (A) (A) (A) (A) (A) (A) (A) (A) (A) (A) (A)
                 (A) (A) (A) (A) (A) (A) (A) (A) (A) (A) (A) (A)
                 (A) (A) (A) (A) (A) (A) (A) (A) (A) (A) (A) (A)
                 (A) (A) (A) (A) (A) (A) (A) (A) (A) (A) (A) (A)
                 (A) (A) (A) (A) (A) (A) (A) (A) (A) (A) (A) (A)
                 (A) (A) (A) (A) (A) (A) (A) (A) (A) (A) (A) (A)
                 (A) (A) (A) (A) (A) (A) (A) (A) (A) (A) (A) (A)
                 (A) (A) (A) (A) (A) (A) (A) (A) (A) (A) (A) (A)
                 (A) (A) (A) (A) (A) (A) (A) (A) (A) (A) (A) (A)
                 (A) (A) (A) (A) (A) (A) (A) (A) (A) (A) (A) (A)
                 (A) (A) (A) (A) (A) (A) (A) (A) (A) (A) (A) (A)
                 (A) (A) (A) (A) (A) (A) (A) (A) (A) (A) (A) (A)
                 (A) (A) (A) (A) (A) (A) (A) (A) (A) (A) (A) (A)
                 (A) (A) (A) (A) (A) (A) (A) (A) (A) (A) (A) (A)
                 (A) (A) (A) (A) (A) (A) (A) (A) (A) (A) (A) (A)
                 (A) (A) (A) (A) (A) (A) (A) (A) (A) (A) (A) (A)
                 (A) (A) (A) (A) (A) (A) (A) (A) (A) (A) (A) (A)
                 (A) (A) (A) (A) (A) (A) (A) (A) (A) (A) (A) (A)
                 (A) (A) (A) (A) (A) (A) (A) (A) (A) (A) (A) (A)
                 (A) (A) (A) (A) (A) (A) (A) (A) (A) (A) (A) (A)
                 (A) (A) (A) (A) (A) (A) (A) (A) (A) (A) (A) (A)
                 (A) (A) (A) (A) (A) (A) (A) (A) (A) (A) (A) (A)
                 (A) (A) (A) (A) (A) (A) (A) (A) (A) (A) (A) (A)
                 (A) (A) (A) (A) (A) (A) (A) (A) (A) (A) (A) (A)
                 (A) (A) (A) (A) (A) (A) (A) (A) (A) (A) (A) (A)
                 (A) (A) (A) (A) (A) (A) (A) (A) (A) (A) (A) (A)
                 (A) (A) (A) (A) (A) (A) (A) (A) (A) (A) (A) (A)
                 (A) (A) (A) (A) (A) (A) (A) (A) (A) (A) (A) (A)
                 (A) (A) (A) (A) (A) (A) (A) (A) (A) (A) (A) (A)
                 (A) (A) (A) (A) (A) (A) (A) (A) (A) (A) (A) (A)
                 (A) (A) (A) (A) (A) (A) (A) (A) (A) (A) (A) (A)
                 (A) (A) (A) (A) (A) (A) (A) (A) (A) (A) (A) (A)
                 (A) (A) (A) (A) (A) (A) (A) (A) (A) (A) (A) (A)
                 (A) (A) (A) (A) (A) (A) (A) (A) (A) (A) (A) (A)
                 (A) (A) (A) (A) (A) (A) (A) (A) (A) (A) (A) (A)
                 (A) (A) (A) (A) (A) (A) (A) (A) (A) (A) (A) (A)
                 (A) (A) (A) (A) (A) (A) (A) (A) (A) (A) (A) (A)
                 (A) (A) (A) (A) (A) (A) (A) (A) (A) (A) (A) (A)
                 (A) (A) (A) (A) (A) (A) (A) (A) (A) (A) (A) (A)
                 (A) (A) (A) (A) (A) (A) (A) (A) (A) (A) (A) (A)
                 (A) (A) (A) (A) (A) (A) (A) (A) (A) (A) (A) (A)
                 (A) (A) (A) (A) (A) (A) (A) (A) (A) (A) (A) (A)
                 (A) (A) (A) (A) (A) (A) (A) (A) (A) (A) (A) (A)
                 (A) (A) (A) (A) (A) (A) (A) (A) (A) (A) (A) (A)
                 (A) (A) (A) (A) (A) (A) (A) (A) (A) (A) (A) (A)
                 (A) (A) (A) (A) (A) (A) (A) (A) (A) (A) (A) (A)
                 (A) (A) (A) (A) (A) (A) (A) (A) (A) (A) (A) (A)
                 (A) (A) (A) (A) (A) (A) (A) (A) (A) (A) (A) (A)
                 (A) (A) (A) (A) (A) (A) (A) (A) (A) (A) (A) (A)
                 (A) (A) (A) (A) (A) (A) (A) (A) (A) (A) (A) (A)
                 (A) (A) (A) (A) (A) (A) (A) (A) (A) (A) (A) (A)
                 (A) (A) (A) (A) (A) (A) (A) (A) (A) (A) (A) (A)
                 (A) (A) (A) (A) (A) (A) (A) (A) (A) (A) (A) (A)
                 (A) (A) (A) (A) (A) (A) (A) (A) (A) (A) (A) (A)
                 (A) (A) (A) (A) (A) (A) (A) (A) (A) (A) (A) (A)
                 (A) (A) (A) (A) (A) (A) (A) (A) (A) (A) (A) (A)
                 (A) (A) (A) (A) (A) (A) (A) (A) (A) (A) (A) (A)
                 (A) (A) (A) (A) (A) (A) (A) (A) (A) (A) (A) (A)
                 (A) (A) (A) (A) (A) (A) (A) (A) (A) (A) (A) (A)
                 (A) (A) (A) (A) (A) (A) (A) (A) (A) (A) (A) (A)
                 (A) (A) (A) (A) (A) (A) (A) (A) (A) (A) (A) (A)
                 (A) (A) (A) (A) (A) (A) (A) (A) (A) (A) (A) (A)
                 (A) (A) (A) (A) (A) (A) (A) (A) (A) (A) (A) (A)
                 (A) (A) (A) (A) (A) (A) (A) (A) (A) (A) (A) (A)
                 (A) (A) (A) (A) (A) (A) (A) (A) (A) (A) (A) (A)
                 (A) (A) (A) (A) (A) (A) (A) (A) (A) (A) (A) (A)
                 (A) (A) (A) (A) (A) (A) (A) (A) (A) (A) (A) (A)
                 (A) (A) (A) (A) (A) (A) (A) (A) (A) (A) (A) (A)
                 (A) (A) (A) (A) (A) (A) (A) (A) (A) (A) (A) (A)
                 (A) (A) (A) (A) (A) (A) (A) (A) (A) (A) (A) (A)
                 (A) (A) (A) (A) (A) (A) (A) (A) (A) (A) (A) (A)
                 (A) (A) (A) (A) (A) (A) (A) (A) (A) (A) (A) (A)
                 (A) (A) (A) (A) (A) (A) (A) (A) (A) (A) (A) (A)
                 (A) (A) (A) (A) (A) (A) (A) (A) (A) (A) (A) (A)
                 (A) (A) (A) (A) (A) (A) (A) (A) (A) (A) (A) (A)
                 (A) (A) (A) (A) (A) (A) (A) (A) (A) (A) (A) (A)
                 (A) (A) (A) (A) (A) (A) (A) (A) (A) (A) (A) (A)
                 (A) (A) (A) (A) (A) (A) (A) (A) (A) (A) (A) (A)
                 (A) (A) (A) (A) (A) (A) (A) (A) (A) (A) (A) (A)
                 (A) (A) (A) (A) (A) (A) (A) (A) (A) (A) (A) (A)
                 (A) (A) (A) (A) (A) (A) (A) (A) (A) (A) (A) (A)
                 (A) (A) (A) (A) (A) (A) (A) (A) (A) (A) (A) (A)
                 (A) (A) (A) (A) (A) (A) (A) (A) (A) (A) (A) (A)
                 (A) (A) (A) (A) (A) (A) (A) (A) (A) (A) (A) (A)
                 (A) (A) (A) (A) (A) (A) (A) (A) (A) (A) (A) (A)
                 (A) (A) (A) (A) (A) (A) (A) (A) (A) (A) (A) (A)
                 (A) (A) (A) (A) (A) (A) (A) (A) (A) (A) (A) (A)
                 (A) (A) (A) (A) (A) (A) (A) (A) (A) (A) (A) (A)
                 (A) (A) (A) (A) (A) (A) (A) (A) (A) (A) (A) (A)
    20 initial guesses have been made.
 Convergence on wavefunction:    0.001000000000000
 Davidson Disk Diagonalization:  ConvIn= 1.00D-03 SkipCon=T Conv= 1.00D-03.
 Max sub-space:  2000 roots to seek:    20 dimension of matrix:       549360
 Iteration     1 Dimension    20 NMult     0 NNew     20
 CISAX will form    20 AO SS matrices at one time.
 NMat=    20 NSing=    20 JSym2X= 0.
 FoFJK:  IHMeth= 1 ICntrl=       0 DoSepK=T KAlg= 0 I1Cent=           0 FoldK=F
 IRaf=         1 NMat=      40 IRICut=       1 DoRegI=T DoRafI=F ISym2E= 0 IDoP0=3 IntGTp=3.
 FoFCou: FMM=T IPFlag=           0 FMFlag=      100000 FMFlg1=        2001
         NFxFlg=           0 DoJE=F BraDBF=F KetDBF=F FulRan=T
         wScrn=  0.000000 ICntrl=       500 IOpCl=  0 I1Cent=           0 NGrid=           0
         NMat0=   20 NMatS0=     20 NMatT0=    0 NMatD0=   20 NMtDS0=    0 NMtDT0=    0
 Symmetry not used in FoFCou.
 FMM levels:  10  Number of levels for PrismC:   9
 New state      2 was old state      4
 New state      3 was old state      7
 New state      4 was old state      6
 New state      5 was old state      2
 Excitation Energies [eV] at current iteration:
 Root      1 :     2.458092120267859
 Root      2 :     2.494149332118931
 Root      3 :     2.601950355491077
 Root      4 :     2.614615140272318
 Root      5 :     2.635192090056128
 Root      6 :     2.749666640338264
 Root      7 :     3.255923176864143
 Root      8 :     3.279483098434655
 Root      9 :     3.620796068844702
 Root     10 :     3.654770433197655
 Root     11 :     3.741943159350859
 Root     12 :     3.767310444556323
 Root     13 :     4.252219795475182
 Root     14 :     4.345003920014427
 Root     15 :     4.390564040873710
 Root     16 :     4.397606709420344
 Root     17 :     4.674419821635169
 Root     18 :     4.687731562106270
 Root     19 :     4.718794996527465
 Root     20 :     4.730232933662900
 Iteration     2 Dimension    30 NMult    20 NNew     10
 CISAX will form    10 AO SS matrices at one time.
 NMat=    10 NSing=    10 JSym2X= 0.
 New state      1 was old state      3
 Root      1 not converged, maximum delta is    0.338126561323506
 New state      2 was old state      4
 Root      2 not converged, maximum delta is    0.096717850528915
 New state      3 was old state      5
 Root      3 not converged, maximum delta is    0.243955785410449
 New state      4 was old state      1
 Root      4 not converged, maximum delta is    0.003119757708001
 New state      5 was old state      2
 Root      5 not converged, maximum delta is    0.006466663620926
 Excitation Energies [eV] at current iteration:
 Root      1 :     1.768843294033931   Change is   -0.833107061457147
 Root      2 :     2.229154344537038   Change is   -0.385460795735280
 Root      3 :     2.241433041360548   Change is   -0.393759048695580
 Root      4 :     2.457255062906968   Change is   -0.000837057360890
 Root      5 :     2.493180990447688   Change is   -0.000968341671243
 Iteration     3 Dimension    40 NMult    30 NNew     10
 CISAX will form    10 AO SS matrices at one time.
 NMat=    10 NSing=    10 JSym2X= 0.
 Root      1 not converged, maximum delta is    0.052817069949409
 Root      2 not converged, maximum delta is    0.453003630133536
 Root      3 not converged, maximum delta is    0.681437858742199
 No map to state      4
 New state      5 was old state      4
 Root      5 not converged, maximum delta is    0.001053173000770
 Excitation Energies [eV] at current iteration:
 Root      1 :     1.664805968690380   Change is   -0.104037325343551
 Root      2 :     1.974246364830357   Change is   -0.254907979706681
 Root      3 :     2.190943571421251   Change is   -0.050489469939296
 Root      4 :     2.206322528786407
 Root      5 :     2.457250194683320   Change is   -0.000004868223648
 Iteration     4 Dimension    50 NMult    40 NNew     10
 CISAX will form    10 AO SS matrices at one time.
 NMat=    10 NSing=    10 JSym2X= 0.
 Root      1 not converged, maximum delta is    0.009955110575196
 Root      2 not converged, maximum delta is    0.081245403223121
 Root      3 not converged, maximum delta is    0.111391075828386
 Root      4 not converged, maximum delta is    0.110156770312628
 Root      5 has converged.
 Excitation Energies [eV] at current iteration:
 Root      1 :     1.648256563654696   Change is   -0.016549405035683
 Root      2 :     1.727549507144019   Change is   -0.246696857686337
 Root      3 :     2.181499296358999   Change is   -0.009444275062252
 Root      4 :     2.194764582992496   Change is   -0.011557945793911
 Root      5 :     2.457248823625244   Change is   -0.000001371058076
 Iteration     5 Dimension    58 NMult    50 NNew      8
 CISAX will form     8 AO SS matrices at one time.
 NMat=     8 NSing=     8 JSym2X= 0.
 Root      1 not converged, maximum delta is    0.001361483984197
 Root      2 not converged, maximum delta is    0.009612325195787
 Root      3 not converged, maximum delta is    0.002692959577060
 Root      4 not converged, maximum delta is    0.002851730419656
 Root      5 has converged.
 Excitation Energies [eV] at current iteration:
 Root      1 :     1.646563602826973   Change is   -0.001692960827724
 Root      2 :     1.706180176894178   Change is   -0.021369330249842
 Root      3 :     2.180594357460523   Change is   -0.000904938898476
 Root      4 :     2.193792952618692   Change is   -0.000971630373804
 Root      5 :     2.457248803124491   Change is   -0.000000020500753
 Iteration     6 Dimension    66 NMult    58 NNew      8
 CISAX will form     8 AO SS matrices at one time.
 NMat=     8 NSing=     8 JSym2X= 0.
 Root      1 has converged.
 Root      2 not converged, maximum delta is    0.005301908882897
 Root      3 has converged.
 Root      4 has converged.
 Root      5 has converged.
 Excitation Energies [eV] at current iteration:
 Root      1 :     1.646324135999306   Change is   -0.000239466827666
 Root      2 :     1.703219260194882   Change is   -0.002960916699296
 Root      3 :     2.180466499982386   Change is   -0.000127857478136
 Root      4 :     2.193645712648541   Change is   -0.000147239970151
 Root      5 :     2.457248799385950   Change is   -0.000000003738541
 Iteration     7 Dimension    68 NMult    66 NNew      2
 CISAX will form     2 AO SS matrices at one time.
 NMat=     2 NSing=     2 JSym2X= 0.
 Root      1 has converged.
 Root      2 has converged.
 Root      3 has converged.
 Root      4 has converged.
 Root      5 has converged.
 Excitation Energies [eV] at current iteration:
 Root      1 :     1.646324101886359   Change is   -0.000000034112948
 Root      2 :     1.702882934570174   Change is   -0.000336325624708
[...]
 Alpha virt. eigenvalues --    1.84668   1.84858   1.84944   1.85050   1.85247
 Alpha virt. eigenvalues --    1.85314   1.85477   1.85490   1.85682   1.85954
 Alpha virt. eigenvalues --    1.86021   1.86243   1.86463   1.86655   1.86810
 Alpha virt. eigenvalues --    1.86912   1.86979   1.87138   1.87331   1.87458
 Alpha virt. eigenvalues --    1.87624   1.87850   1.87913   1.88010   1.88109
 Alpha virt. eigenvalues --    1.88190   1.88296   1.88682   1.88749   1.88773
 Alpha virt. eigenvalues --    1.89045   1.89082   1.89292   1.89598   1.89825
 Alpha virt. eigenvalues --    1.89882   1.90020   1.90106   1.90288   1.90568
 Alpha virt. eigenvalues --    1.91001   1.91136   1.91534   1.91619   1.91634
 Alpha virt. eigenvalues --    1.92106   1.92371   1.92531   1.92803   1.92929
 Alpha virt. eigenvalues --    1.93232   1.93309   1.93579   1.93654   1.94436
 Alpha virt. eigenvalues --    1.94744   1.94889   1.94938   1.95705   1.95843
 Alpha virt. eigenvalues --    1.95978   1.96145   1.96209   1.96286   1.96451
 Alpha virt. eigenvalues --    1.96564   1.96644   1.96881   1.97029   1.97264
 Alpha virt. eigenvalues --    1.97657   1.97818   1.97991   1.98150   1.98300
 Alpha virt. eigenvalues --    1.98437   1.98544   1.98916   1.99249   1.99404
 Alpha virt. eigenvalues --    2.00034   2.00060   2.00842   2.00909   2.01187
 Alpha virt. eigenvalues --    2.01288   2.01593   2.01675   2.01711   2.01769
 Alpha virt. eigenvalues --    2.01969   2.02371   2.02899   2.03029   2.03272
 Alpha virt. eigenvalues --    2.03502   2.03517   2.03628   2.03684   2.03753
 Alpha virt. eigenvalues --    2.04183   2.04298   2.05077   2.05212   2.05714
 Alpha virt. eigenvalues --    2.05758   2.06283   2.06392   2.07141   2.07261
 Alpha virt. eigenvalues --    2.07426   2.07580   2.08604   2.08713   2.09238
 Alpha virt. eigenvalues --    2.09356   2.09829   2.09998   2.11091   2.11168
 Alpha virt. eigenvalues --    2.11400   2.11525   2.11745   2.11849   2.11969
 Alpha virt. eigenvalues --    2.12063   2.12692   2.12772   2.12926   2.13057
 Alpha virt. eigenvalues --    2.13073   2.13180   2.14015   2.14031   2.14341
 Alpha virt. eigenvalues --    2.14421   2.15476   2.15647   2.16171   2.16219
 Alpha virt. eigenvalues --    2.16678   2.16888   2.17051   2.17295   2.17720
 Alpha virt. eigenvalues --    2.17803   2.17930   2.18035   2.18126   2.18378
 Alpha virt. eigenvalues --    2.18567   2.18813   2.19143   2.19406   2.19909
 Alpha virt. eigenvalues --    2.20020   2.20285   2.20386   2.20493   2.20909
 Alpha virt. eigenvalues --    2.21280   2.21592   2.21884   2.21900   2.22015
 Alpha virt. eigenvalues --    2.22029   2.22799   2.23042   2.23473   2.23702
 Alpha virt. eigenvalues --    2.24528   2.24662   2.25101   2.25277   2.26542
 Alpha virt. eigenvalues --    2.26611   2.26998   2.27153   2.27331   2.27475
 Alpha virt. eigenvalues --    2.28390   2.28473   2.29518   2.29567   2.29987
 Alpha virt. eigenvalues --    2.29993   2.30661   2.30808   2.31076   2.31347
 Alpha virt. eigenvalues --    2.31378   2.31429   2.32348   2.32431   2.33362
 Alpha virt. eigenvalues --    2.33462   2.33593   2.33750   2.34251   2.34508
 Alpha virt. eigenvalues --    2.35360   2.35638   2.36001   2.36037   2.36417
 Alpha virt. eigenvalues --    2.36556   2.36706   2.36863   2.37794   2.38052
 Alpha virt. eigenvalues --    2.38444   2.38459   2.38967   2.39093   2.39792
 Alpha virt. eigenvalues --    2.39856   2.40382   2.40593   2.40743   2.40944
 Alpha virt. eigenvalues --    2.41427   2.41560   2.41792   2.42207   2.42263
 Alpha virt. eigenvalues --    2.42299   2.42923   2.43118   2.43358   2.43801
 Alpha virt. eigenvalues --    2.44069   2.44420   2.44940   2.44986   2.45133
 Alpha virt. eigenvalues --    2.45175   2.45694   2.45856   2.46353   2.46504
 Alpha virt. eigenvalues --    2.46597   2.46737   2.46974   2.47058   2.47491
 Alpha virt. eigenvalues --    2.47566   2.48004   2.48056   2.49464   2.49549
 Alpha virt. eigenvalues --    2.50017   2.50366   2.50548   2.50912   2.51372
 Alpha virt. eigenvalues --    2.51442   2.51718   2.52150   2.52655   2.52819
 Alpha virt. eigenvalues --    2.53083   2.53255   2.54081   2.54190   2.54310
 Alpha virt. eigenvalues --    2.54333   2.54912   2.55196   2.55732   2.55776
 Alpha virt. eigenvalues --    2.58103   2.58160   2.58883   2.59000   2.60440
 Alpha virt. eigenvalues --    2.60472   2.60841   2.61042   2.61908   2.61951
 Alpha virt. eigenvalues --    2.62527   2.62780   2.63205   2.63243   2.64166
 Alpha virt. eigenvalues --    2.64323   2.64489   2.64529   2.65232   2.65322
 Alpha virt. eigenvalues --    2.65992   2.66017   2.66923   2.67065   2.67127
 Alpha virt. eigenvalues --    2.67173   2.68077   2.68163   2.68913   2.69073
 Alpha virt. eigenvalues --    2.69211   2.69260   2.69626   2.69760   2.70240
 Alpha virt. eigenvalues --    2.70275   2.71149   2.71228   2.72030   2.72277
 Alpha virt. eigenvalues --    2.72642   2.72878   2.72927   2.73067   2.73381
 Alpha virt. eigenvalues --    2.73475   2.73650   2.73792   2.74613   2.74795
 Alpha virt. eigenvalues --    2.75156   2.75226   2.76618   2.76953   2.77168
 Alpha virt. eigenvalues --    2.77505   2.77654   2.77667   2.78336   2.78363
 Alpha virt. eigenvalues --    2.78782   2.78972   2.79237   2.79374   2.80305
 Alpha virt. eigenvalues --    2.80532   2.80780   2.80839   2.81245   2.81385
 Alpha virt. eigenvalues --    2.82119   2.82176   2.82419   2.82576   2.83900
 Alpha virt. eigenvalues --    2.83948   2.83998   2.84030   2.84611   2.84810
 Alpha virt. eigenvalues --    2.84971   2.85164   2.85756   2.85861   2.86715
 Alpha virt. eigenvalues --    2.87134   2.87281   2.87871   2.88276   2.88344
 Alpha virt. eigenvalues --    2.88716   2.88787   2.88954   2.89221   2.90707
 Alpha virt. eigenvalues --    2.90806   2.91153   2.91494   2.93394   2.93409
 Alpha virt. eigenvalues --    2.93859   2.94450   2.94641   2.94808   2.95537
 Alpha virt. eigenvalues --    2.95625   2.95831   2.96432   2.96481   2.96843
 Alpha virt. eigenvalues --    2.96924   2.97501   2.98050   2.98084   2.98406
 Alpha virt. eigenvalues --    2.98420   2.98637   2.98769   2.98892   2.98901
 Alpha virt. eigenvalues --    2.99018   2.99117   2.99872   2.99958   3.00080
 Alpha virt. eigenvalues --    3.00328   3.00404   3.00583   3.00708   3.01121
 Alpha virt. eigenvalues --    3.01993   3.02137   3.02232   3.02344   3.02790
 Alpha virt. eigenvalues --    3.02945   3.03241   3.03344   3.03566   3.03836
 Alpha virt. eigenvalues --    3.04117   3.04517   3.04643   3.04775   3.04866
 Alpha virt. eigenvalues --    3.05342   3.05419   3.05576   3.06229   3.06426
 Alpha virt. eigenvalues --    3.07030   3.07076   3.07972   3.08363   3.09407
 Alpha virt. eigenvalues --    3.09612   3.09895   3.10611   3.10687   3.11112
 Alpha virt. eigenvalues --    3.11532   3.11549   3.11999   3.12176   3.12372
 Alpha virt. eigenvalues --    3.12735   3.13531   3.13755   3.13858   3.13976
 Alpha virt. eigenvalues --    3.14336   3.14562   3.16093   3.16275   3.17537
 Alpha virt. eigenvalues --    3.17614   3.17912   3.18263   3.19095   3.19359
 Alpha virt. eigenvalues --    3.22565   3.22610   3.24210   3.24517   3.24954
 Alpha virt. eigenvalues --    3.25259   3.26743   3.26774   3.27468   3.27879
 Alpha virt. eigenvalues --    3.29263   3.29366   3.31449   3.31780   3.33267
 Alpha virt. eigenvalues --    3.33676   3.40209   3.40883   3.42864   3.43001
 Alpha virt. eigenvalues --    3.48779   3.48938   3.50277   3.50362   3.50915
 Alpha virt. eigenvalues --    3.51719   3.56791   3.57075   3.59347   3.59419
 Alpha virt. eigenvalues --    3.62592   3.63103   3.66129   3.66328   3.67447
 Alpha virt. eigenvalues --    3.67533   3.73548   3.74064   3.76340   3.76742
          Condensed to atoms (all electrons):
 Mulliken charges:
               1
     1  Mg   0.840444
     2  C   -0.002894
     3  C   -0.094199
     4  C   -0.046554
     5  C   -0.061038
     6  N   -0.256674
     7  C   -0.052248
     8  C   -0.014081
     9  C   -0.086933
    10  C    0.045964
    11  C    0.104961
    12  C    0.053472
    13  C   -0.071430
    14  H    0.035452
    15  N   -0.432785
    16  C    0.167823
    17  C   -0.177810
    18  C   -0.005033
    19  C    0.148343
    20  C    0.110349
    21  C    0.011027
    22  O   -0.251411
    23  C    0.063015
    24  N   -0.341219
    25  C    0.041118
    26  C   -0.027868
    27  C   -0.023514
    28  C    0.074896
    29  C    0.076510
    30  C    0.034794
    31  C   -0.009169
    32  N   -0.311473
    33  C    0.083437
    34  C   -0.165273
    35  C    0.008579
    36  C    0.085023
    37  C    0.127095
    38  C    0.047573
    39  O   -0.187743
    40  C   -0.006000
    41  C    0.212804
    42  O   -0.255874
    43  O   -0.305029
    44  C    0.157950
    45  H   -0.018298
    46  H   -0.018326
    47  H   -0.041083
    48  H    0.000700
    49  H   -0.004323
    50  H    0.025222
    51  H    0.016248
    52  H    0.016129
    53  H    0.011481
    54  H    0.044408
    55  H    0.017592
    56  H    0.017943
    57  H    0.005856
    58  H    0.025930
    59  H    0.038367
    60  H    0.037757
    61  H    0.033648
    62  H    0.030212
    63  H    0.015276
    64  H    0.008864
    65  H    0.021894
    66  H    0.012578
    67  H    0.004397
    68  H    0.003167
    69  H    0.003749
    70  H    0.006571
    71  H    0.022615
    72  H    0.034998
    73  H    0.050797
    74  H    0.009787
    75  H    0.044729
    76  H    0.034616
    77  H    0.042579
    78  H    0.045943
    79  H    0.053411
    80  Mg   0.838810
    81  C   -0.016771
    82  C   -0.087243
    83  C   -0.045732
    84  C   -0.064044
    85  N   -0.254522
    86  C   -0.049834
    87  C   -0.016135
    88  C   -0.090246
    89  C    0.045448
    90  C    0.114462
    91  C    0.062212
    92  C   -0.080397
    93  H    0.034059
    94  N   -0.423299
    95  C    0.162594
    96  C   -0.174981
    97  C   -0.008547
    98  C    0.151948
    99  C    0.099597
   100  C    0.014788
   101  O   -0.253978
   102  C    0.061668
   103  N   -0.350144
   104  C    0.037480
   105  C   -0.019571
   106  C   -0.034969
   107  C    0.089265
   108  C    0.073887
   109  C    0.034680
   110  C   -0.007482
   111  N   -0.324644
   112  C    0.079897
   113  C   -0.160743
   114  C    0.002614
   115  C    0.097562
   116  C    0.131098
   117  C    0.043735
   118  O   -0.187570
   119  C    0.000081
   120  C    0.210783
   121  O   -0.249828
   122  O   -0.305327
   123  C    0.150106
   124  H   -0.019944
   125  H   -0.016276
   126  H   -0.039869
   127  H   -0.001240
   128  H   -0.003899
   129  H    0.022119
   130  H    0.014329
   131  H    0.015992
   132  H    0.015450
   133  H    0.039513
   134  H    0.019881
   135  H    0.020478
   136  H    0.009262
   137  H    0.025449
   138  H    0.039170
   139  H    0.038513
   140  H    0.035167
   141  H    0.032663
   142  H    0.013888
   143  H    0.012081
   144  H    0.024446
   145  H    0.011403
   146  H    0.005427
   147  H    0.005141
   148  H    0.004187
   149  H    0.009129
   150  H    0.019418
   151  H    0.032104
   152  H    0.048141
   153  H    0.009105
   154  H    0.046127
   155  H    0.034647
   156  H    0.043991
   157  H    0.049133
   158  H    0.054294
 Sum of Mulliken charges =  -0.00000
 Mulliken charges with hydrogens summed into heavy atoms:
               1
     1  Mg   0.840444
     2  C   -0.002894
     3  C   -0.112498
     4  C   -0.064880
     5  C   -0.102121
     6  N   -0.256674
     7  C   -0.052248
     8  C   -0.013382
     9  C   -0.091256
    10  C    0.045964
    11  C    0.162560
    12  C    0.109361
    13  C   -0.000443
    15  N   -0.432785
    16  C    0.167823
    17  C   -0.177810
    18  C   -0.005033
    19  C    0.148343
    20  C    0.180503
    21  C    0.011027
    22  O   -0.251411
    23  C    0.164632
    24  N   -0.341219
    25  C    0.041118
    26  C   -0.012592
    27  C   -0.014650
    28  C    0.074896
    29  C    0.115378
    30  C    0.041710
    31  C    0.055016
    32  N   -0.311473
    33  C    0.083437
    34  C   -0.165273
    35  C    0.008579
    36  C    0.085023
    37  C    0.232408
    38  C    0.047573
    39  O   -0.187743
    40  C    0.028616
    41  C    0.212804
    42  O   -0.255874
    43  O   -0.305029
    44  C    0.299883
    80  Mg   0.838810
    81  C   -0.016771
    82  C   -0.107187
    83  C   -0.062008
    84  C   -0.103914
    85  N   -0.254522
    86  C   -0.049834
    87  C   -0.017375
    88  C   -0.094145
    89  C    0.045448
    90  C    0.166902
    91  C    0.117175
    92  C   -0.005979
    94  N   -0.423299
    95  C    0.162594
    96  C   -0.174981
    97  C   -0.008547
    98  C    0.151948
    99  C    0.173477
   100  C    0.014788
   101  O   -0.253978
   102  C    0.168012
   103  N   -0.350144
   104  C    0.037480
   105  C   -0.005683
   106  C   -0.022889
   107  C    0.089265
   108  C    0.115163
   109  C    0.044008
   110  C    0.053169
   111  N   -0.324644
   112  C    0.079897
   113  C   -0.160743
   114  C    0.002614
   115  C    0.097562
   116  C    0.234472
   117  C    0.043735
   118  O   -0.187570
   119  C    0.034728
   120  C    0.210783
   121  O   -0.249828
   122  O   -0.305327
   123  C    0.297524
 Electronic spatial extent (au):  <R**2>=          97467.4641
 Charge=             -0.0000 electrons
 Dipole moment (field-independent basis, Debye):
    X=              0.3103    Y=             -1.6487    Z=              6.4109  Tot=              6.6268
 Quadrupole moment (field-independent basis, Debye-Ang):
   XX=           -485.6911   YY=           -465.2571   ZZ=           -536.4189
   XY=             14.0833   XZ=             15.3390   YZ=             15.0981
 Traceless Quadrupole moment (field-independent basis, Debye-Ang):
   XX=             10.0979   YY=             30.5320   ZZ=            -40.6299
   XY=             14.0833   XZ=             15.3390   YZ=             15.0981
 Octapole moment (field-independent basis, Debye-Ang**2):
  XXX=             39.9584  YYY=            150.9904  ZZZ=            335.0955  XYY=            -59.7193
  XXY=             28.3827  XXZ=             71.1424  XZZ=            113.3592  YZZ=           -117.8119
  YYZ=           -220.6121  XYZ=            288.7392
 Hexadecapole moment (field-independent basis, Debye-Ang**3):
 XXXX=         -66411.2833 YYYY=         -32045.2313 ZZZZ=         -32543.6860 XXXY=            464.1763
 XXXZ=            878.6340 YYYX=            571.5577 YYYZ=            270.6247 ZZZX=            321.8292
 ZZZY=            -20.4863 XXYY=         -15852.2469 XXZZ=         -16994.1821 YYZZ=         -11304.8490
 XXYZ=              4.1493 YYXZ=            -47.0792 ZZXY=            285.9360
 N-N= 1.550117154031D+04 E-N=-4.048422357222D+04  KE= 4.028800528965D+03
 Leave Link  601 at Thu Sep  9 18:41:28 2021, MaxMem= 23488102400 cpu:              13.8 elap:               0.7
 (Enter /sw/apps/gaussian-16.0/g16/l9999.exe)
 1\1\GINC-BP1-COMPUTE00108\SP\RCAM-B3LYP TD-FC\def2SVP\C68H72Mg2N8O8\OF
 15641\09-Sep-2021\0\\#p cam-b3lyp/Def2SVP td=(nstates=5)\\TDDFT excite
 d states in gaussian\\0,1\Mg,0,0.,0.,0.\C,0,-0.217,-2.218,2.801\C,0,-1
 .255,2.442,2.026\C,0,-0.245,1.85,-2.564\C,0,0.146,-2.824,-2.037\N,0,-0
 .617,-0.009,2.126\C,0,-0.594,-0.908,3.105\C,0,-0.936,-0.309,4.502\C,0,
 -1.773,0.964,4.032\C,0,-1.155,1.168,2.66\C,0,-3.263,0.685,3.863\C,0,0.
 345,0.11,5.299\C,0,0.124,0.397,6.787\H,0,1.168,0.033,7.733\N,0,-0.185,
 1.961,-0.152\C,0,-0.703,2.8,0.777\C,0,-0.62,4.156,0.193\C,0,-0.187,4.0
 15,-1.225\C,0,-0.214,2.583,-1.38\C,0,-0.887,5.406,0.974\C,0,0.181,5.01
 3,-2.277\O,0,0.303,4.69,-3.508\C,0,0.31,6.414,-1.837\N,0,-0.265,-0.413
 ,-2.029\C,0,-0.279,0.569,-2.937\C,0,-0.196,0.024,-4.332\C,0,0.124,-1.5
 33,-4.18\C,0,0.086,-1.632,-2.635\C,0,-1.451,0.205,-5.197\C,0,1.373,-2.
 07,-4.923\C,0,2.626,-1.49,-4.306\N,0,0.15,-2.144,0.303\C,0,0.173,-3.13
 6,-0.688\C,0,0.173,-4.438,0.004\C,0,0.133,-4.111,1.358\C,0,0.083,-2.69
 5,1.502\C,0,0.149,-5.715,-0.623\C,0,0.096,-4.629,2.716\O,0,0.208,-5.74
 7,3.221\C,0,-0.255,-3.428,3.701\C,0,0.717,-3.482,4.848\O,0,1.931,-3.25
 5,4.669\O,0,0.038,-3.556,6.003\C,0,0.943,-3.583,7.183\H,0,-1.859,3.22,
 2.497\H,0,-0.218,2.453,-3.474\H,0,0.276,-3.747,-2.605\H,0,-1.554,-0.94
 9,5.132\H,0,-1.585,1.831,4.665\H,0,-3.484,-0.377,3.969\H,0,-3.511,1.02
 7,2.858\H,0,-3.852,1.301,4.543\H,0,0.669,1.096,4.966\H,0,1.13,-0.639,5
 .189\H,0,-0.844,0.026,7.125\H,0,0.062,1.477,6.921\H,0,-1.344,5.186,1.9
 38\H,0,-1.651,5.963,0.432\H,0,0.007,6.02,1.084\H,0,-0.635,6.744,-1.405
 \H,0,0.665,6.97,-2.704\H,0,1.048,6.466,-1.036\H,0,0.608,0.501,-4.891\H
 ,0,-0.692,-2.156,-4.547\H,0,-1.267,0.74,-6.129\H,0,-2.204,0.714,-4.596
 \H,0,-1.967,-0.72,-5.453\H,0,1.356,-1.759,-5.967\H,0,1.452,-3.157,-4.9
 02\H,0,2.714,-0.522,-4.798\H,0,3.487,-2.121,-4.529\H,0,2.495,-1.303,-3
 .24\H,0,0.867,-6.333,-0.084\H,0,0.404,-5.642,-1.68\H,0,-0.891,-5.999,-
 0.463\H,0,-1.283,-3.581,4.028\H,0,0.698,-4.478,7.755\H,0,0.833,-2.619,
 7.68\H,0,2.,-3.754,6.976\Mg,0,8.92518,0.80666,0.67367\C,0,8.65532,-1.9
 8022,-1.57122\C,0,8.96842,2.82533,-2.07546\C,0,9.61411,3.23789,2.5925\
 C,0,9.99655,-1.44012,3.1129\N,0,8.81852,0.36197,-1.49038\C,0,8.65534,-
 0.72937,-2.22298\C,0,8.40201,-0.46007,-3.73058\C,0,9.08909,0.98764,-3.
 83503\C,0,8.9211,1.44298,-2.38689\C,0,10.57506,0.92743,-4.14746\C,0,6.
 87314,-0.39668,-4.07778\C,0,6.55065,-0.44542,-5.5729\H,0,5.34246,-1.14
 449,-6.00192\N,0,8.76053,2.76226,0.37857\C,0,8.77496,3.41067,-0.80492\
 C,0,8.642,4.8398,-0.48232\C,0,8.71361,4.99562,0.99596\C,0,9.06063,3.64
 404,1.38699\C,0,8.38733,5.88911,-1.52515\C,0,8.51656,6.16998,1.90604\O
 ,0,8.86138,6.13098,3.1399\C,0,7.99449,7.39774,1.28834\N,0,9.89362,0.92
 33,2.50966\C,0,10.01353,2.09696,3.15469\C,0,10.4958,1.89409,4.57125\C,
 0,10.44341,0.31534,4.82098\C,0,10.00557,-0.14895,3.41452\C,0,11.90171,
 2.41087,4.87578\C,0,9.62864,-0.17635,6.04861\C,0,8.157,0.0944,5.83334\
 N,0,9.09724,-1.34041,0.84269\C,0,9.59446,-2.07227,1.94324\C,0,9.62203,
 -3.49427,1.54379\C,0,9.15693,-3.48838,0.22011\C,0,8.87955,-2.15452,-0.
 1841\C,0,10.08272,-4.57524,2.34715\C,0,8.84761,-4.30611,-0.93069\O,0,8
 .80418,-5.51592,-1.15029\C,0,8.62901,-3.35306,-2.1838\C,0,7.36835,-3.7
 8491,-2.88149\O,0,6.26494,-3.67484,-2.31849\O,0,7.64726,-4.05133,-4.17
 052\C,0,6.42601,-4.47323,-4.90698\H,0,9.21896,3.52802,-2.87065\H,0,9.7
 6734,4.02821,3.33101\H,0,10.22485,-2.2133,3.84962\H,0,8.89118,-1.15329
 ,-4.40433\H,0,8.53632,1.6397,-4.50632\H,0,10.94953,-0.08531,-4.13089\H
 ,0,11.0603,1.52275,-3.3851\H,0,10.78109,1.42846,-5.09764\H,0,6.49222,0
 .60389,-3.83594\H,0,6.33391,-1.17022,-3.56641\H,0,7.41278,-0.76604,-6.
 17029\H,0,6.34899,0.57166,-5.91773\H,0,8.54933,5.49808,-2.53721\H,0,9.
 16041,6.65548,-1.4031\H,0,7.40614,6.35716,-1.42091\H,0,8.66668,7.71711
 ,0.49548\H,0,7.83773,8.09587,2.11291\H,0,7.03381,7.16926,0.81347\H,0,9
 .837,2.38371,5.27791\H,0,11.44591,-0.10358,4.99227\H,0,11.92811,3.1398
 3,5.70764\H,0,12.30729,2.8488,3.97341\H,0,12.63589,1.64175,5.10949\H,0
 ,9.91895,0.37996,6.94326\H,0,9.76782,-1.23021,6.2654\H,0,8.05166,1.140
 49,6.13613\H,0,7.55179,-0.56001,6.45746\H,0,7.89654,0.03107,4.77042\H,
 0,9.37075,-5.38044,2.22362\H,0,10.17647,-4.28306,3.39099\H,0,11.05541,
 -4.76165,1.88412\H,0,9.50563,-3.44941,-2.82553\H,0,6.64478,-5.44629,-5
 .3575\H,0,6.19017,-3.64065,-5.59614\H,0,5.54313,-4.70443,-4.32259\\Ver
 sion=ES64L-G16RevA.03\State=1-A\HF=-4069.8114285\RMSD=6.402e-09\PG=C01
  [X(C68H72Mg2N8O8)]\\@


 WE LEARN WISDOM FROM FAILURE MUCH MORE THAN FROM SUCCESS.
 WE DISCOVER WHAT WILL DO BY FINDING OUT WHAT WILL NOT DO...
 AND HE WHO NEVER MADE A MISTAKE NEVER MADE A DISCOVERY
 Job cpu time:       0 days 13 hours 59 minutes  9.8 seconds.
 Elapsed time:       0 days  0 hours 35 minutes 37.1 seconds.
 File lengths (MBytes):  RWF=  13225 Int=      0 D2E=      0 Chk=    574 Scr=      1
 Normal termination of Gaussian 16 at Thu Sep  9 18:41:29 2021.
