 Entering Gaussian System, Link 0=g16
 Initial command:
 /sw/apps/gaussian-16.0/g16/l1.exe "/tmp/Gau-100645.inp" -scrdir="/tmp/"
 Entering Link 1 = /sw/apps/gaussian-16.0/g16/l1.exe PID=    100646.
  
 Copyright (c) 1988,1990,1992,1993,1995,1998,2003,2009,2016,
            Gaussian, Inc.  All Rights Reserved.
  
 This is part of the Gaussian(R) 16 program.  It is based on
 the Gaussian(R) 09 system (copyright 2009, Gaussian, Inc.),
 the Gaussian(R) 03 system (copyright 2003, Gaussian, Inc.),
 the Gaussian(R) 98 system (copyright 1998, Gaussian, Inc.),
 the Gaussian(R) 94 system (copyright 1995, Gaussian, Inc.),
 the Gaussian 92(TM) system (copyright 1992, Gaussian, Inc.),
 the Gaussian 90(TM) system (copyright 1990, Gaussian, Inc.),
 the Gaussian 88(TM) system (copyright 1988, Gaussian, Inc.),
 the Gaussian 86(TM) system (copyright 1986, Carnegie Mellon
 University), and the Gaussian 82(TM) system (copyright 1983,
 Carnegie Mellon University). Gaussian is a federally registered
 trademark of Gaussian, Inc.
  
 This software contains proprietary and confidential information,
 including trade secrets, belonging to Gaussian, Inc.
  
 This software is provided under written license and may be
 used, copied, transmitted, or stored only in accord with that
 written license.
  
 The following legend is applicable only to US Government
 contracts under FAR:
  
                    RESTRICTED RIGHTS LEGEND
  
 Use, reproduction and disclosure by the US Government is
 subject to restrictions as set forth in subparagraphs (a)
 and (c) of the Commercial Computer Software - Restricted
 Rights clause in FAR 52.227-19.
  
 Gaussian, Inc.
 340 Quinnipiac St., Bldg. 40, Wallingford CT 06492
  
  
 ---------------------------------------------------------------
 Warning -- This program may not be used in any manner that
 competes with the business of Gaussian, Inc. or will provide
 assistance to any competitor of Gaussian, Inc.  The licensee
 of this program is prohibited from giving any competitor of
 Gaussian, Inc. access to this program.  By using this program,
 the user acknowledges that Gaussian, Inc. is engaged in the
 business of creating and licensing software in the field of
 computational chemistry and represents and warrants to the
 licensee that it is not a competitor of Gaussian, Inc. and that
 it will not use this program in any manner prohibited above.
 ---------------------------------------------------------------
  

 Cite this work as:
 Gaussian 16, Revision A.03,
 M. J. Frisch, G. W. Trucks, H. B. Schlegel, G. E. Scuseria, 
 M. A. Robb, J. R. Cheeseman, G. Scalmani, V. Barone, 
 G. A. Petersson, H. Nakatsuji, X. Li, M. Caricato, A. V. Marenich, 
 J. Bloino, B. G. Janesko, R. Gomperts, B. Mennucci, H. P. Hratchian, 
 J. V. Ortiz, A. F. Izmaylov, J. L. Sonnenberg, D. Williams-Young, 
 F. Ding, F. Lipparini, F. Egidi, J. Goings, B. Peng, A. Petrone, 
 T. Henderson, D. Ranasinghe, V. G. Zakrzewski, J. Gao, N. Rega, 
 G. Zheng, W. Liang, M. Hada, M. Ehara, K. Toyota, R. Fukuda, 
 J. Hasegawa, M. Ishida, T. Nakajima, Y. Honda, O. Kitao, H. Nakai, 
 T. Vreven, K. Throssell, J. A. Montgomery, Jr., J. E. Peralta, 
 F. Ogliaro, M. J. Bearpark, J. J. Heyd, E. N. Brothers, K. N. Kudin, 
 V. N. Staroverov, T. A. Keith, R. Kobayashi, J. Normand, 
 K. Raghavachari, A. P. Rendell, J. C. Burant, S. S. Iyengar, 
 J. Tomasi, M. Cossi, J. M. Millam, M. Klene, C. Adamo, R. Cammi, 
 J. W. Ochterski, R. L. Martin, K. Morokuma, O. Farkas, 
 J. B. Foresman, and D. J. Fox, Gaussian, Inc., Wallingford CT, 2016.
 
 ******************************************
 Gaussian 16:  ES64L-G16RevA.03 25-Dec-2016
                 9-Sep-2021 
 ******************************************
 %nproc=24
 Will use up to   24 processors via shared memory.
 %mem=175gb
 -----------------------------------
 #p cam-b3lyp/Def2SVP td=(nstates=5)
 -----------------------------------
 1/38=1,172=1/1;
 2/12=2,17=6,18=5,40=1/2;
 3/5=43,7=101,11=9,25=1,30=1,74=-40/1,2,3,8;
 4//1;
 5/5=2,38=5/2;
 8/6=1,10=1,108=5/1;
 9/41=5,42=1,70=2/14;
 6/7=2,8=2,9=2,10=2/1;
 99/5=1,9=1/99;
 Leave Link    1 at Thu Sep  9 18:52:51 2021, MaxMem= 23488102400 cpu:               0.7 elap:               0.0
 (Enter /sw/apps/gaussian-16.0/g16/l101.exe)
 --------------------------------
 TDDFT excited states in gaussian
 --------------------------------
 Symbolic Z-matrix:
 Charge =  0 Multiplicity = 1
 Mg                    0.        0.        0. 
 C                    -0.217    -2.218     2.801 
 C                    -1.255     2.442     2.026 
 C                    -0.245     1.85     -2.564 
 C                     0.146    -2.824    -2.037 
 N                    -0.617    -0.009     2.126 
 C                    -0.594    -0.908     3.105 
 C                    -0.936    -0.309     4.502 
 C                    -1.773     0.964     4.032 
 C                    -1.155     1.168     2.66 
 C                    -3.263     0.685     3.863 
 C                     0.345     0.11      5.299 
 C                     0.124     0.397     6.787 
 H                     1.168     0.033     7.733 
 N                    -0.185     1.961    -0.152 
 C                    -0.703     2.8       0.777 
 C                    -0.62      4.156     0.193 
 C                    -0.187     4.015    -1.225 
 C                    -0.214     2.583    -1.38 
 C                    -0.887     5.406     0.974 
 C                     0.181     5.013    -2.277 
 O                     0.303     4.69     -3.508 
 C                     0.31      6.414    -1.837 
 N                    -0.265    -0.413    -2.029 
 C                    -0.279     0.569    -2.937 
 C                    -0.196     0.024    -4.332 
 C                     0.124    -1.533    -4.18 
 C                     0.086    -1.632    -2.635 
 C                    -1.451     0.205    -5.197 
 C                     1.373    -2.07     -4.923 
 C                     2.626    -1.49     -4.306 
 N                     0.15     -2.144     0.303 
 C                     0.173    -3.136    -0.688 
 C                     0.173    -4.438     0.004 
 C                     0.133    -4.111     1.358 
 C                     0.083    -2.695     1.502 
 C                     0.149    -5.715    -0.623 
 C                     0.096    -4.629     2.716 
 O                     0.208    -5.747     3.221 
 C                    -0.255    -3.428     3.701 
 C                     0.717    -3.482     4.848 
 O                     1.931    -3.255     4.669 
 O                     0.038    -3.556     6.003 
 C                     0.943    -3.583     7.183 
 H                    -1.859     3.22      2.497 
 H                    -0.218     2.453    -3.474 
 H                     0.276    -3.747    -2.605 
 H                    -1.554    -0.949     5.132 
 H                    -1.585     1.831     4.665 
 H                    -3.484    -0.377     3.969 
 H                    -3.511     1.027     2.858 
 H                    -3.852     1.301     4.543 
 H                     0.669     1.096     4.966 
 H                     1.13     -0.639     5.189 
 H                    -0.844     0.026     7.125 
 H                     0.062     1.477     6.921 
 H                    -1.344     5.186     1.938 
 H                    -1.651     5.963     0.432 
 H                     0.007     6.02      1.084 
 H                    -0.635     6.744    -1.405 
 H                     0.665     6.97     -2.704 
 H                     1.048     6.466    -1.036 
 H                     0.608     0.501    -4.891 
 H                    -0.692    -2.156    -4.547 
 H                    -1.267     0.74     -6.129 
 H                    -2.204     0.714    -4.596 
 H                    -1.967    -0.72     -5.453 
 H                     1.356    -1.759    -5.967 
 H                     1.452    -3.157    -4.902 
 H                     2.714    -0.522    -4.798 
 H                     3.487    -2.121    -4.529 
 H                     2.495    -1.303    -3.24 
 H                     0.867    -6.333    -0.084 
 H                     0.404    -5.642    -1.68 
 H                    -0.891    -5.999    -0.463 
 H                    -1.283    -3.581     4.028 
 H                     0.698    -4.478     7.755 
 H                     0.833    -2.619     7.68 
 H                     2.       -3.754     6.976 
 Mg                    8.92415   0.8069    0.67664 
 C                     7.8884   -2.0115   -1.28878 
 C                     8.17531   2.76762  -2.01212 
 C                     10.24648   3.24751   2.21362 
 C                     10.62947  -1.4305    2.73373 
 N                     8.13942   0.32387  -1.33412 
 C                     7.72452  -0.77471  -1.94675 
 C                     7.0252   -0.52582  -3.31004 
 C                     7.68968   0.8922   -3.66581 
 C                     7.99209   1.38221  -2.2512 
 C                     9.00341   0.769    -4.41966 
 C                     5.4666   -0.41086  -3.17013 
 C                     4.69581  -0.47681  -4.49047 
 H                     3.39358  -1.13749  -4.50395 
 N                     8.7355    2.76115   0.38696 
 C                     8.40248   3.38497  -0.76248 
 C                     8.41923   4.82425  -0.45856 
 C                     8.94961   5.00645   0.91992 
 C                     9.35956   3.65059   1.22597 
 C                     7.88613   5.86169  -1.40352 
 C                     9.07961   6.20528   1.80992 
 O                     9.7881    6.17754   2.87768 
 C                     8.42938   7.43964   1.3462 
 N                     10.41644   0.92273   2.11955 
 C                     10.76559   2.10348   2.65977 
 C                     11.65631   1.91039   3.86381 
 C                     11.63605   0.34004   4.16579 
 C                     10.77049  -0.1349    2.97809 
 C                     13.1024   2.37892   3.7035 
 C                     11.22685  -0.09571   5.59944 
 C                     9.76975   0.22683   5.84075 
 N                     9.07501  -1.34141   0.85003 
 C                     9.86612  -2.06983   1.76526 
 C                     9.72562  -3.49947   1.42059 
 C                     8.87401  -3.50199   0.30559 
 C                     8.52564  -2.16676  -0.03396 
 C                     10.37944  -4.58117   2.07526 
 C                     8.19905  -4.32991  -0.66789 
 O                     8.05318  -5.54128  -0.82617 
 C                     7.63221  -3.39418  -1.82093 
 C                     6.20504  -3.79121  -2.08183 
 O                     5.33397  -3.62788  -1.20938 
 O                     6.06302  -4.09357  -3.3852 
 C                     4.6616   -4.48293  -3.69543 
 H                     8.18852   3.44434  -2.86697 
 H                     10.64465   4.04584   2.84418 
 H                     11.05111  -2.19711   3.38733 
 H                     7.26057  -1.25044  -4.0803 
 H                     6.97626   1.55151  -4.15335 
 H                     9.33378  -0.2568   -4.48845 
 H                     9.7186    1.36029  -3.86294 
 H                     8.92024   1.24287  -5.40193 
 H                     5.20973   0.60815  -2.85331 
 H                     5.08902  -1.15293  -2.49383 
 H                     5.32054  -0.84195  -5.31468 
 H                     4.42818   0.54021  -4.78722 
 H                     7.71496   5.44479  -2.40367 
 H                     8.68183   6.60019  -1.54961 
 H                     7.00004   6.36891  -1.0159 
 H                     8.83244   7.7173    0.37517 
 H                     8.55677   8.15945   2.15708 
 H                     7.36243   7.23873   1.1983 
 H                     11.26377   2.43874   4.72396 
 H                     12.62917  -0.11345   4.03203 
 H                     13.40707   3.12266   4.46384 
 H                     13.22178   2.78306   2.70703 
 H                     13.84923   1.58704   3.72265 
 H                     11.79654   0.46669   6.3433 
 H                     11.39433  -1.14962   5.79489 
 H                     9.79503   1.28198   6.12905 
 H                     9.36797  -0.39146   6.64096 
 H                     9.19126   0.15248   4.9126 
 H                     9.64018  -5.36082   2.20228 
 H                     10.80051  -4.27217   3.02972 
 H                     11.1549  -4.81378   1.34054 
 H                     8.26378  -3.53669  -2.69865 
 H                     4.7006   -5.47238  -4.16143 
 H                     4.24931  -3.65575  -4.30333 
 H                     3.99641  -4.66857  -2.86026 
 
 ITRead=  0  0  0  0  0  0  0  0  0  0  0  0  0  0  0  0  0  0  0  0
 ITRead=  0  0  0  0  0  0  0  0  0  0  0  0  0  0  0  0  0  0  0  0
 ITRead=  0  0  0  0  0  0  0  0  0  0  0  0  0  0  0  0  0  0  0  0
 ITRead=  0  0  0  0  0  0  0  0  0  0  0  0  0  0  0  0  0  0  0  0
 ITRead=  0  0  0  0  0  0  0  0  0  0  0  0  0  0  0  0  0  0  0  0
 ITRead=  0  0  0  0  0  0  0  0  0  0  0  0  0  0  0  0  0  0  0  0
 ITRead=  0  0  0  0  0  0  0  0  0  0  0  0  0  0  0  0  0  0  0  0
 ITRead=  0  0  0  0  0  0  0  0  0  0  0  0  0  0  0  0  0  0
 MicOpt= -1 -1 -1 -1 -1 -1 -1 -1 -1 -1 -1 -1 -1 -1 -1 -1 -1 -1 -1 -1
 MicOpt= -1 -1 -1 -1 -1 -1 -1 -1 -1 -1 -1 -1 -1 -1 -1 -1 -1 -1 -1 -1
 MicOpt= -1 -1 -1 -1 -1 -1 -1 -1 -1 -1 -1 -1 -1 -1 -1 -1 -1 -1 -1 -1
 MicOpt= -1 -1 -1 -1 -1 -1 -1 -1 -1 -1 -1 -1 -1 -1 -1 -1 -1 -1 -1 -1
 MicOpt= -1 -1 -1 -1 -1 -1 -1 -1 -1 -1 -1 -1 -1 -1 -1 -1 -1 -1 -1 -1
 MicOpt= -1 -1 -1 -1 -1 -1 -1 -1 -1 -1 -1 -1 -1 -1 -1 -1 -1 -1 -1 -1
 MicOpt= -1 -1 -1 -1 -1 -1 -1 -1 -1 -1 -1 -1 -1 -1 -1 -1 -1 -1 -1 -1
 MicOpt= -1 -1 -1 -1 -1 -1 -1 -1 -1 -1 -1 -1 -1 -1 -1 -1 -1 -1
 NAtoms=    158 NQM=      158 NQMF=       0 NMMI=      0 NMMIF=      0
                NMic=       0 NMicF=      0.
                    Isotopes and Nuclear Properties:
 (Nuclear quadrupole moments (NQMom) in fm**2, nuclear magnetic moments (NMagM)
  in nuclear magnetons)

  Atom         1           2           3           4           5           6           7           8           9          10
 IAtWgt=          24          12          12          12          12          14          12          12          12          12
 AtmWgt=  23.9850450  12.0000000  12.0000000  12.0000000  12.0000000  14.0030740  12.0000000  12.0000000  12.0000000  12.0000000
 NucSpn=           0           0           0           0           0           2           0           0           0           0
 AtZEff=  -0.0000000  -0.0000000  -0.0000000  -0.0000000  -0.0000000  -0.0000000  -0.0000000  -0.0000000  -0.0000000  -0.0000000
 NQMom=    0.0000000   0.0000000   0.0000000   0.0000000   0.0000000   2.0440000   0.0000000   0.0000000   0.0000000   0.0000000
 NMagM=    0.0000000   0.0000000   0.0000000   0.0000000   0.0000000   0.4037610   0.0000000   0.0000000   0.0000000   0.0000000
 AtZNuc=  12.0000000   6.0000000   6.0000000   6.0000000   6.0000000   7.0000000   6.0000000   6.0000000   6.0000000   6.0000000

  Atom        11          12          13          14          15          16          17          18          19          20
 IAtWgt=          12          12          12           1          14          12          12          12          12          12
 AtmWgt=  12.0000000  12.0000000  12.0000000   1.0078250  14.0030740  12.0000000  12.0000000  12.0000000  12.0000000  12.0000000
 NucSpn=           0           0           0           1           2           0           0           0           0           0
 AtZEff=  -0.0000000  -0.0000000  -0.0000000  -0.0000000  -0.0000000  -0.0000000  -0.0000000  -0.0000000  -0.0000000  -0.0000000
 NQMom=    0.0000000   0.0000000   0.0000000   0.0000000   2.0440000   0.0000000   0.0000000   0.0000000   0.0000000   0.0000000
 NMagM=    0.0000000   0.0000000   0.0000000   2.7928460   0.4037610   0.0000000   0.0000000   0.0000000   0.0000000   0.0000000
 AtZNuc=   6.0000000   6.0000000   6.0000000   1.0000000   7.0000000   6.0000000   6.0000000   6.0000000   6.0000000   6.0000000

  Atom        21          22          23          24          25          26          27          28          29          30
 IAtWgt=          12          16          12          14          12          12          12          12          12          12
 AtmWgt=  12.0000000  15.9949146  12.0000000  14.0030740  12.0000000  12.0000000  12.0000000  12.0000000  12.0000000  12.0000000
 NucSpn=           0           0           0           2           0           0           0           0           0           0
 AtZEff=  -0.0000000  -0.0000000  -0.0000000  -0.0000000  -0.0000000  -0.0000000  -0.0000000  -0.0000000  -0.0000000  -0.0000000
 NQMom=    0.0000000   0.0000000   0.0000000   2.0440000   0.0000000   0.0000000   0.0000000   0.0000000   0.0000000   0.0000000
 NMagM=    0.0000000   0.0000000   0.0000000   0.4037610   0.0000000   0.0000000   0.0000000   0.0000000   0.0000000   0.0000000
 AtZNuc=   6.0000000   8.0000000   6.0000000   7.0000000   6.0000000   6.0000000   6.0000000   6.0000000   6.0000000   6.0000000

  Atom        31          32          33          34          35          36          37          38          39          40
 IAtWgt=          12          14          12          12          12          12          12          12          16          12
 AtmWgt=  12.0000000  14.0030740  12.0000000  12.0000000  12.0000000  12.0000000  12.0000000  12.0000000  15.9949146  12.0000000
 NucSpn=           0           2           0           0           0           0           0           0           0           0
 AtZEff=  -0.0000000  -0.0000000  -0.0000000  -0.0000000  -0.0000000  -0.0000000  -0.0000000  -0.0000000  -0.0000000  -0.0000000
 NQMom=    0.0000000   2.0440000   0.0000000   0.0000000   0.0000000   0.0000000   0.0000000   0.0000000   0.0000000   0.0000000
 NMagM=    0.0000000   0.4037610   0.0000000   0.0000000   0.0000000   0.0000000   0.0000000   0.0000000   0.0000000   0.0000000
 AtZNuc=   6.0000000   7.0000000   6.0000000   6.0000000   6.0000000   6.0000000   6.0000000   6.0000000   8.0000000   6.0000000

  Atom        41          42          43          44          45          46          47          48          49          50
 IAtWgt=          12          16          16          12           1           1           1           1           1           1
 AtmWgt=  12.0000000  15.9949146  15.9949146  12.0000000   1.0078250   1.0078250   1.0078250   1.0078250   1.0078250   1.0078250
 NucSpn=           0           0           0           0           1           1           1           1           1           1
 AtZEff=  -0.0000000  -0.0000000  -0.0000000  -0.0000000  -0.0000000  -0.0000000  -0.0000000  -0.0000000  -0.0000000  -0.0000000
 NQMom=    0.0000000   0.0000000   0.0000000   0.0000000   0.0000000   0.0000000   0.0000000   0.0000000   0.0000000   0.0000000
 NMagM=    0.0000000   0.0000000   0.0000000   0.0000000   2.7928460   2.7928460   2.7928460   2.7928460   2.7928460   2.7928460
 AtZNuc=   6.0000000   8.0000000   8.0000000   6.0000000   1.0000000   1.0000000   1.0000000   1.0000000   1.0000000   1.0000000

  Atom        51          52          53          54          55          56          57          58          59          60
 IAtWgt=           1           1           1           1           1           1           1           1           1           1
 AtmWgt=   1.0078250   1.0078250   1.0078250   1.0078250   1.0078250   1.0078250   1.0078250   1.0078250   1.0078250   1.0078250
 NucSpn=           1           1           1           1           1           1           1           1           1           1
 AtZEff=  -0.0000000  -0.0000000  -0.0000000  -0.0000000  -0.0000000  -0.0000000  -0.0000000  -0.0000000  -0.0000000  -0.0000000
 NQMom=    0.0000000   0.0000000   0.0000000   0.0000000   0.0000000   0.0000000   0.0000000   0.0000000   0.0000000   0.0000000
 NMagM=    2.7928460   2.7928460   2.7928460   2.7928460   2.7928460   2.7928460   2.7928460   2.7928460   2.7928460   2.7928460
 AtZNuc=   1.0000000   1.0000000   1.0000000   1.0000000   1.0000000   1.0000000   1.0000000   1.0000000   1.0000000   1.0000000

  Atom        61          62          63          64          65          66          67          68          69          70
 IAtWgt=           1           1           1           1           1           1           1           1           1           1
 AtmWgt=   1.0078250   1.0078250   1.0078250   1.0078250   1.0078250   1.0078250   1.0078250   1.0078250   1.0078250   1.0078250
 NucSpn=           1           1           1           1           1           1           1           1           1           1
 AtZEff=  -0.0000000  -0.0000000  -0.0000000  -0.0000000  -0.0000000  -0.0000000  -0.0000000  -0.0000000  -0.0000000  -0.0000000
 NQMom=    0.0000000   0.0000000   0.0000000   0.0000000   0.0000000   0.0000000   0.0000000   0.0000000   0.0000000   0.0000000
 NMagM=    2.7928460   2.7928460   2.7928460   2.7928460   2.7928460   2.7928460   2.7928460   2.7928460   2.7928460   2.7928460
 AtZNuc=   1.0000000   1.0000000   1.0000000   1.0000000   1.0000000   1.0000000   1.0000000   1.0000000   1.0000000   1.0000000

  Atom        71          72          73          74          75          76          77          78          79          80
 IAtWgt=           1           1           1           1           1           1           1           1           1          24
 AtmWgt=   1.0078250   1.0078250   1.0078250   1.0078250   1.0078250   1.0078250   1.0078250   1.0078250   1.0078250  23.9850450
 NucSpn=           1           1           1           1           1           1           1           1           1           0
 AtZEff=  -0.0000000  -0.0000000  -0.0000000  -0.0000000  -0.0000000  -0.0000000  -0.0000000  -0.0000000  -0.0000000  -0.0000000
 NQMom=    0.0000000   0.0000000   0.0000000   0.0000000   0.0000000   0.0000000   0.0000000   0.0000000   0.0000000   0.0000000
 NMagM=    2.7928460   2.7928460   2.7928460   2.7928460   2.7928460   2.7928460   2.7928460   2.7928460   2.7928460   0.0000000
 AtZNuc=   1.0000000   1.0000000   1.0000000   1.0000000   1.0000000   1.0000000   1.0000000   1.0000000   1.0000000  12.0000000

  Atom        81          82          83          84          85          86          87          88          89          90
 IAtWgt=          12          12          12          12          14          12          12          12          12          12
 AtmWgt=  12.0000000  12.0000000  12.0000000  12.0000000  14.0030740  12.0000000  12.0000000  12.0000000  12.0000000  12.0000000
 NucSpn=           0           0           0           0           2           0           0           0           0           0
 AtZEff=  -0.0000000  -0.0000000  -0.0000000  -0.0000000  -0.0000000  -0.0000000  -0.0000000  -0.0000000  -0.0000000  -0.0000000
 NQMom=    0.0000000   0.0000000   0.0000000   0.0000000   2.0440000   0.0000000   0.0000000   0.0000000   0.0000000   0.0000000
 NMagM=    0.0000000   0.0000000   0.0000000   0.0000000   0.4037610   0.0000000   0.0000000   0.0000000   0.0000000   0.0000000
 AtZNuc=   6.0000000   6.0000000   6.0000000   6.0000000   7.0000000   6.0000000   6.0000000   6.0000000   6.0000000   6.0000000

  Atom        91          92          93          94          95          96          97          98          99         100
 IAtWgt=          12          12           1          14          12          12          12          12          12          12
 AtmWgt=  12.0000000  12.0000000   1.0078250  14.0030740  12.0000000  12.0000000  12.0000000  12.0000000  12.0000000  12.0000000
 NucSpn=           0           0           1           2           0           0           0           0           0           0
 AtZEff=  -0.0000000  -0.0000000  -0.0000000  -0.0000000  -0.0000000  -0.0000000  -0.0000000  -0.0000000  -0.0000000  -0.0000000
 NQMom=    0.0000000   0.0000000   0.0000000   2.0440000   0.0000000   0.0000000   0.0000000   0.0000000   0.0000000   0.0000000
 NMagM=    0.0000000   0.0000000   2.7928460   0.4037610   0.0000000   0.0000000   0.0000000   0.0000000   0.0000000   0.0000000
 AtZNuc=   6.0000000   6.0000000   1.0000000   7.0000000   6.0000000   6.0000000   6.0000000   6.0000000   6.0000000   6.0000000

  Atom       101         102         103         104         105         106         107         108         109         110
 IAtWgt=          16          12          14          12          12          12          12          12          12          12
 AtmWgt=  15.9949146  12.0000000  14.0030740  12.0000000  12.0000000  12.0000000  12.0000000  12.0000000  12.0000000  12.0000000
 NucSpn=           0           0           2           0           0           0           0           0           0           0
 AtZEff=  -0.0000000  -0.0000000  -0.0000000  -0.0000000  -0.0000000  -0.0000000  -0.0000000  -0.0000000  -0.0000000  -0.0000000
 NQMom=    0.0000000   0.0000000   2.0440000   0.0000000   0.0000000   0.0000000   0.0000000   0.0000000   0.0000000   0.0000000
 NMagM=    0.0000000   0.0000000   0.4037610   0.0000000   0.0000000   0.0000000   0.0000000   0.0000000   0.0000000   0.0000000
 AtZNuc=   8.0000000   6.0000000   7.0000000   6.0000000   6.0000000   6.0000000   6.0000000   6.0000000   6.0000000   6.0000000

  Atom       111         112         113         114         115         116         117         118         119         120
 IAtWgt=          14          12          12          12          12          12          12          16          12          12
 AtmWgt=  14.0030740  12.0000000  12.0000000  12.0000000  12.0000000  12.0000000  12.0000000  15.9949146  12.0000000  12.0000000
 NucSpn=           2           0           0           0           0           0           0           0           0           0
 AtZEff=  -0.0000000  -0.0000000  -0.0000000  -0.0000000  -0.0000000  -0.0000000  -0.0000000  -0.0000000  -0.0000000  -0.0000000
 NQMom=    2.0440000   0.0000000   0.0000000   0.0000000   0.0000000   0.0000000   0.0000000   0.0000000   0.0000000   0.0000000
 NMagM=    0.4037610   0.0000000   0.0000000   0.0000000   0.0000000   0.0000000   0.0000000   0.0000000   0.0000000   0.0000000
 AtZNuc=   7.0000000   6.0000000   6.0000000   6.0000000   6.0000000   6.0000000   6.0000000   8.0000000   6.0000000   6.0000000

  Atom       121         122         123         124         125         126         127         128         129         130
 IAtWgt=          16          16          12           1           1           1           1           1           1           1
 AtmWgt=  15.9949146  15.9949146  12.0000000   1.0078250   1.0078250   1.0078250   1.0078250   1.0078250   1.0078250   1.0078250
 NucSpn=           0           0           0           1           1           1           1           1           1           1
 AtZEff=  -0.0000000  -0.0000000  -0.0000000  -0.0000000  -0.0000000  -0.0000000  -0.0000000  -0.0000000  -0.0000000  -0.0000000
 NQMom=    0.0000000   0.0000000   0.0000000   0.0000000   0.0000000   0.0000000   0.0000000   0.0000000   0.0000000   0.0000000
 NMagM=    0.0000000   0.0000000   0.0000000   2.7928460   2.7928460   2.7928460   2.7928460   2.7928460   2.7928460   2.7928460
 AtZNuc=   8.0000000   8.0000000   6.0000000   1.0000000   1.0000000   1.0000000   1.0000000   1.0000000   1.0000000   1.0000000

  Atom       131         132         133         134         135         136         137         138         139         140
 IAtWgt=           1           1           1           1           1           1           1           1           1           1
 AtmWgt=   1.0078250   1.0078250   1.0078250   1.0078250   1.0078250   1.0078250   1.0078250   1.0078250   1.0078250   1.0078250
 NucSpn=           1           1           1           1           1           1           1           1           1           1
 AtZEff=  -0.0000000  -0.0000000  -0.0000000  -0.0000000  -0.0000000  -0.0000000  -0.0000000  -0.0000000  -0.0000000  -0.0000000
 NQMom=    0.0000000   0.0000000   0.0000000   0.0000000   0.0000000   0.0000000   0.0000000   0.0000000   0.0000000   0.0000000
 NMagM=    2.7928460   2.7928460   2.7928460   2.7928460   2.7928460   2.7928460   2.7928460   2.7928460   2.7928460   2.7928460
 AtZNuc=   1.0000000   1.0000000   1.0000000   1.0000000   1.0000000   1.0000000   1.0000000   1.0000000   1.0000000   1.0000000

  Atom       141         142         143         144         145         146         147         148         149         150
 IAtWgt=           1           1           1           1           1           1           1           1           1           1
 AtmWgt=   1.0078250   1.0078250   1.0078250   1.0078250   1.0078250   1.0078250   1.0078250   1.0078250   1.0078250   1.0078250
 NucSpn=           1           1           1           1           1           1           1           1           1           1
 AtZEff=  -0.0000000  -0.0000000  -0.0000000  -0.0000000  -0.0000000  -0.0000000  -0.0000000  -0.0000000  -0.0000000  -0.0000000
 NQMom=    0.0000000   0.0000000   0.0000000   0.0000000   0.0000000   0.0000000   0.0000000   0.0000000   0.0000000   0.0000000
 NMagM=    2.7928460   2.7928460   2.7928460   2.7928460   2.7928460   2.7928460   2.7928460   2.7928460   2.7928460   2.7928460
 AtZNuc=   1.0000000   1.0000000   1.0000000   1.0000000   1.0000000   1.0000000   1.0000000   1.0000000   1.0000000   1.0000000

  Atom       151         152         153         154         155         156         157         158
 IAtWgt=           1           1           1           1           1           1           1           1
 AtmWgt=   1.0078250   1.0078250   1.0078250   1.0078250   1.0078250   1.0078250   1.0078250   1.0078250
 NucSpn=           1           1           1           1           1           1           1           1
 AtZEff=  -0.0000000  -0.0000000  -0.0000000  -0.0000000  -0.0000000  -0.0000000  -0.0000000  -0.0000000
 NQMom=    0.0000000   0.0000000   0.0000000   0.0000000   0.0000000   0.0000000   0.0000000   0.0000000
 NMagM=    2.7928460   2.7928460   2.7928460   2.7928460   2.7928460   2.7928460   2.7928460   2.7928460
 AtZNuc=   1.0000000   1.0000000   1.0000000   1.0000000   1.0000000   1.0000000   1.0000000   1.0000000
 Leave Link  101 at Thu Sep  9 18:52:51 2021, MaxMem= 23488102400 cpu:               3.6 elap:               0.2
 (Enter /sw/apps/gaussian-16.0/g16/l202.exe)
 Stoichiometry    C68H72Mg2N8O8
 Framework group  C1[X(C68H72Mg2N8O8)]
 Deg. of freedom   468
 Full point group                 C1      NOp   1
 Largest Abelian subgroup         C1      NOp   1
 Largest concise Abelian subgroup C1      NOp   1
                         Standard orientation:                         
 ---------------------------------------------------------------------
 Center     Atomic      Atomic             Coordinates (Angstroms)
 Number     Number       Type             X           Y           Z
 ---------------------------------------------------------------------
      1         12           0        4.238993    0.723282   -0.273845
      2          6           0        4.641618   -2.603313   -1.532365
      3          6           0        4.950569    1.839628   -3.418761
      4          6           0        4.336707    3.663803    0.909543
      5          6           0        4.682441   -0.590829    2.923361
      6          7           0        4.716468   -0.344145   -2.153543
      7          6           0        4.780079   -1.621537   -2.516026
      8          6           0        4.932581   -1.820541   -4.053724
      9          6           0        5.577895   -0.411246   -4.427162
     10          6           0        5.020947    0.421050   -3.285664
     11          6           0        7.101017   -0.398157   -4.346972
     12          6           0        3.553535   -2.026019   -4.766285
     13          6           0        3.632221   -2.548673   -6.203642
     14          1           0        2.605191   -3.466869   -6.672120
     15          7           0        4.110296    2.473980   -1.180127
     16          6           0        4.425848    2.743450   -2.469739
     17          6           0        4.158797    4.185116   -2.661996
     18          6           0        3.843195    4.771054   -1.329642
     19          6           0        4.113233    3.650678   -0.465227
     20          6           0        4.169240    4.852177   -4.003141
     21          6           0        3.382940    6.128837   -0.902182
     22          8           0        3.391714    6.495667    0.322535
     23          6           0        2.999902    7.061400   -1.977659
     24          7           0        4.692883    1.477963    1.618792
     25          6           0        4.602463    2.786672    1.879729
     26          6           0        4.696038    3.057612    3.352066
     27          6           0        4.625831    1.632602    4.069121
     28          6           0        4.583842    0.735419    2.807547
     29          6           0        5.955701    3.801339    3.816963
     30          6           0        3.529686    1.441118    5.147183
     31          6           0        2.163051    1.469419    4.500184
     32          7           0        4.422698   -1.257659    0.594007
     33          6           0        4.623361   -1.570445    1.946255
     34          6           0        4.793188   -3.032660    2.030836
     35          6           0        4.695412   -3.469957    0.711345
     36          6           0        4.504484   -2.349036   -0.146195
     37          6           0        5.064156   -3.773025    3.215264
     38          6           0        4.732434   -4.620920   -0.176220
     39          8           0        4.773500   -5.841180   -0.012598
     40          6           0        4.820969   -4.094163   -1.676392
     41          6           0        3.801772   -4.850184   -2.484461
     42          8           0        2.580428   -4.693465   -2.281669
     43          8           0        4.410975   -5.451697   -3.517707
     44          6           0        3.451297   -6.195338   -4.376876
     45          1           0        5.389093    2.309358   -4.301366
     46          1           0        4.267937    4.650210    1.372912
     47          1           0        4.740313   -1.080846    3.897007
     48          1           0        5.606633   -2.627012   -4.343001
     49          1           0        5.212034   -0.036592   -5.382935
     50          1           0        7.485502   -1.324645   -3.920696
     51          1           0        7.351522    0.448105   -3.706986
     52          1           0        7.538300   -0.177017   -5.320962
     53          1           0        3.094087   -1.054283   -4.947108
     54          1           0        2.909725   -2.681696   -4.178984
     55          1           0        4.625026   -2.936928   -6.432780
     56          1           0        3.508601   -1.703990   -6.881454
     57          1           0        4.595513    4.205280   -4.768883
     58          1           0        4.864062    5.689173   -3.937043
     59          1           0        3.181899    5.215670   -4.288383
     60          1           0        3.849764    7.210962   -2.643929
     61          1           0        2.613188    7.950603   -1.481049
     62          1           0        2.215201    6.602649   -2.579939
     63          1           0        3.861072    3.669522    3.690924
     64          1           0        5.553739    1.389290    4.587254
     65          1           0        5.744810    4.725460    4.355692
     66          1           0        6.576826    3.991679    2.942169
     67          1           0        6.630673    3.213170    4.438163
     68          1           0        3.560216    2.257368    5.868121
     69          1           0        3.628122    0.506681    5.699803
     70          1           0        1.948752    2.535274    4.430468
     71          1           0        1.432128    0.964800    5.132894
     72          1           0        2.195556    1.076425    3.483826
     73          1           0        4.424775   -4.654884    3.176727
     74          1           0        4.866539   -3.179142    4.107370
     75          1           0        6.124658   -3.986166    3.081987
     76          1           0        5.837931   -4.286726   -2.016731
     77          1           0        3.803313   -7.225404   -4.434168
     78          1           0        3.371428   -5.635352   -5.308778
     79          1           0        2.451271   -6.342093   -3.967302
     80         12           0       -4.721654    0.095194   -0.025463
     81          6           0       -3.119958   -1.126423    2.944597
     82          6           0       -4.138207    3.248534    1.136712
     83          6           0       -6.517325    1.195159   -2.398875
     84          6           0       -6.162622   -3.058349   -0.378273
     85          7           0       -3.745713    0.836546    1.815790
     86          6           0       -3.119879    0.280319    2.842084
     87          6           0       -2.387619    1.285879    3.770630
     88          6           0       -3.251462    2.597088    3.433890
     89          6           0       -3.716757    2.228496    2.026651
     90          6           0       -4.478250    2.752757    4.317129
     91          6           0       -0.880400    1.474325    3.377182
     92          6           0       -0.029008    2.199751    4.421526
     93          1           0        1.361942    1.789286    4.592575
     94          7           0       -4.837138    1.913483   -0.812281
     95          6           0       -4.540010    3.082456   -0.206903
     96          6           0       -4.810356    4.131214   -1.202490
     97          6           0       -5.447614    3.498423   -2.389160
     98          6           0       -5.648766    2.151594   -1.893510
     99          6           0       -4.396421    5.561357   -1.010720
    100          6           0       -5.826456    4.022493   -3.741204
    101          8           0       -6.585580    3.358546   -4.532244
    102          6           0       -5.359120    5.376078   -4.074197
    103          7           0       -6.299187   -0.729864   -1.099244
    104          6           0       -6.869221   -0.059150   -2.115668
    105          6           0       -7.789201   -0.953795   -2.911675
    106          6           0       -7.531474   -2.433254   -2.361784
    107          6           0       -6.528180   -2.112210   -1.232303
    108          6           0       -9.279669   -0.628358   -2.816855
    109          6           0       -7.146083   -3.515453   -3.407247
    110          6           0       -5.778977   -3.216762   -3.979267
    111          7           0       -4.530074   -1.820854    0.954394
    112          6           0       -5.246683   -3.002597    0.664476
    113          6           0       -4.853541   -4.008509    1.672439
    114          6           0       -3.945633   -3.329803    2.499199
    115          6           0       -3.799672   -1.989151    2.051042
    116          6           0       -5.361156   -5.335069    1.765792
    117          6           0       -3.085615   -3.439533    3.655492
    118          8           0       -2.734363   -4.359830    4.392665
    119          6           0       -2.608976   -1.981257    4.070997
    120          6           0       -1.122758   -2.025544    4.298396
    121          8           0       -0.345717   -2.257295    3.355471
    122          8           0       -0.852915   -1.574953    5.537152
    123          6           0        0.609748   -1.589408    5.805910
    124          1           0       -4.208850    4.269261    1.513564
    125          1           0       -7.078760    1.490956   -3.288127
    126          1           0       -6.493017   -4.094442   -0.478344
    127          1           0       -2.453384    1.058704    4.827910
    128          1           0       -2.626520    3.485989    3.408259
    129          1           0       -4.631762    1.890633    4.949045
    130          1           0       -5.313454    2.879665    3.640825
    131          1           0       -4.412985    3.680451    4.892845
    132          1           0       -0.813493    2.191615    2.549078
    133          1           0       -0.429268    0.531864    3.134565
    134          1           0       -0.533520    2.262301    5.393375
    135          1           0        0.086774    3.241324    4.112112
    136          1           0       -4.097927    5.758121    0.026387
    137          1           0       -5.291463    6.175664   -1.156971
    138          1           0       -3.630761    5.877313   -1.722488
    139          1           0       -5.741264    6.080965   -3.339654
    140          1           0       -5.652267    5.539123   -5.113120
    141          1           0       -4.266605    5.398735   -3.993449
    142          1           0       -7.542188   -0.922691   -3.965770
    143          1           0       -8.426997   -2.849756   -1.877640
    144          1           0       -9.748154   -0.437269   -3.800774
    145          1           0       -9.401575    0.226622   -2.165179
    146          1           0       -9.886883   -1.384437   -2.322050
    147          1           0       -7.844881   -3.496457   -4.247181
    148          1           0       -7.150963   -4.523799   -3.007007
    149          1           0       -5.994023   -2.483961   -4.762756
    150          1           0       -5.331897   -4.118061   -4.393785
    151          1           0       -5.139819   -2.726476   -3.235804
    152          1           0       -4.513786   -5.979918    1.957175
    153          1           0       -5.885262   -5.625039    0.857495
    154          1           0       -6.041262   -5.224374    2.614593
    155          1           0       -3.153272   -1.703722    4.974490
    156          1           0        0.761764   -2.179675    6.714845
    157          1           0        0.918217   -0.527521    5.837434
    158          1           0        1.243370   -2.117044    5.102651
 ---------------------------------------------------------------------
 Rotational constants (GHZ):           0.0219813           0.0138517           0.0132723
 Leave Link  202 at Thu Sep  9 18:52:51 2021, MaxMem= 23488102400 cpu:               0.2 elap:               0.0
 (Enter /sw/apps/gaussian-16.0/g16/l301.exe)
 Standard basis: def2SVP (5D, 7F)
 Ernie: Thresh=  0.10000D-02 Tol=  0.10000D-05 Strict=F.
 There are  1658 symmetry adapted cartesian basis functions of A   symmetry.
 There are  1572 symmetry adapted basis functions of A   symmetry.
  1572 basis functions,  2678 primitive gaussians,  1658 cartesian basis functions
   312 alpha electrons      312 beta electrons
       nuclear repulsion energy     15713.7977532266 Hartrees.
 IExCor=20419 DFT=T Ex+Corr=CAM-B3LYP ExCW=0 ScaHFX=  1.000000
 ScaDFX=  1.000000  1.000000  1.000000  0.810000 ScalE2=  1.000000  1.000000
 IRadAn=      5 IRanWt=     -1 IRanGd=            0 ICorTp=0 IEmpDi=  4
 HFx  wShort=  0.000000 wLong=  0.330000 cFull=  0.190000 cShort=  0.000000 cLong=  0.460000
 DFx  wShort=  0.000000 wLong=  0.330000 cFull=  0.190000 cShort=  0.000000 cLong=  0.460000
 NAtoms=  158 NActive=  158 NUniq=  158 SFac= 1.00D+00 NAtFMM=   60 NAOKFM=T Big=T
 Integral buffers will be    131072 words long.
 Raffenetti 1 integral format.
 Two-electron integral symmetry is turned on.
 Leave Link  301 at Thu Sep  9 18:52:51 2021, MaxMem= 23488102400 cpu:               1.3 elap:               0.1
 (Enter /sw/apps/gaussian-16.0/g16/l302.exe)
 NPDir=0 NMtPBC=     1 NCelOv=     1 NCel=       1 NClECP=     1 NCelD=      1
         NCelK=      1 NCelE2=     1 NClLst=     1 CellRange=     0.0.
 One-electron integrals computed using PRISM.
 One-electron integral symmetry used in STVInt
   1 Symmetry operations used in ECPInt.
 ECPInt:  NShTT=  271216 NPrTT=  987664 LenC2=  155359 LenP2D=  325144.
 LDataN:  DoStor=T MaxTD1= 4 Len=   56
 NBasis=  1572 RedAO= T EigKep=  3.36D-04  NBF=  1572
 NBsUse=  1572 1.00D-06 EigRej= -1.00D+00 NBFU=  1572
 Precomputing XC quadrature grid using
 IXCGrd= 4 IRadAn=           5 IRanWt=          -1 IRanGd=           0 AccXCQ= 0.00D+00.
 Generated NRdTot=       0 NPtTot=           0 NUsed=           0 NTot=          32
 NSgBfM=  1244  1230  1230  1230  1244 MxSgAt=   158 MxSgA2=   158.
 Leave Link  302 at Thu Sep  9 18:52:56 2021, MaxMem= 23488102400 cpu:             127.7 elap:               5.3
 (Enter /sw/apps/gaussian-16.0/g16/l303.exe)
 DipDrv:  MaxL=1.
 Leave Link  303 at Thu Sep  9 18:52:57 2021, MaxMem= 23488102400 cpu:               8.7 elap:               0.4
 (Enter /sw/apps/gaussian-16.0/g16/l308.exe)
 Leave Link  308 at Thu Sep  9 18:52:57 2021, MaxMem= 23488102400 cpu:              14.5 elap:               0.7
 (Enter /sw/apps/gaussian-16.0/g16/l401.exe)
 ExpMin= 3.36D-02 ExpMax= 4.95D+03 ExpMxC= 7.45D+02 IAcc=3 IRadAn=         5 AccDes= 0.00D+00
 Harris functional with IExCor=20419 and IRadAn=       5 diagonalized for initial guess.
 HarFok:  IExCor=20419 AccDes= 0.00D+00 IRadAn=         5 IDoV= 1 UseB2=F ITyADJ=14
 ICtDFT=  3500011 ScaDFX=  1.000000  1.000000  1.000000  1.000000
 FoFCou: FMM=F IPFlag=           0 FMFlag=      100000 FMFlg1=        2001
         NFxFlg=           0 DoJE=T BraDBF=F KetDBF=T FulRan=T
         wScrn=  0.000000 ICntrl=       500 IOpCl=  0 I1Cent=   200000004 NGrid=           0
         NMat0=    1 NMatS0=      1 NMatT0=    0 NMatD0=    1 NMtDS0=    0 NMtDT0=    0
 Petite list used in FoFCou.
 Harris En= -3918.36667723926    
 JPrj=0 DoOrth=F DoCkMO=F.
 Leave Link  401 at Thu Sep  9 18:53:06 2021, MaxMem= 23488102400 cpu:             198.5 elap:               8.3
 (Enter /sw/apps/gaussian-16.0/g16/l502.exe)
 Integral symmetry usage will be decided dynamically.
 Closed shell SCF:
 Using DIIS extrapolation, IDIIS=  1040.
 NGot= 23488102400 LenX= 23482547038 LenY= 23479796416
 Requested convergence on RMS density matrix=1.00D-08 within 128 cycles.
 Requested convergence on MAX density matrix=1.00D-06.
 Requested convergence on             energy=1.00D-06.
 No special actions if energy rises.
 Fock matrices will be formed incrementally for  20 cycles.

 Cycle   1  Pass 1  IDiag  1:
 FoFJK:  IHMeth= 1 ICntrl=       0 DoSepK=T KAlg= 0 I1Cent=           0 FoldK=F
 IRaf=         1 NMat=       1 IRICut=       1 DoRegI=T DoRafI=F ISym2E= 0 IDoP0=0 IntGTp=1.
 FoFCou: FMM=T IPFlag=           0 FMFlag=      100000 FMFlg1=        2001
         NFxFlg=           0 DoJE=T BraDBF=F KetDBF=F FulRan=T
         wScrn=  0.000000 ICntrl=       500 IOpCl=  0 I1Cent=           0 NGrid=           0
         NMat0=    1 NMatS0=      1 NMatT0=    0 NMatD0=    1 NMtDS0=    0 NMtDT0=    0
 Symmetry not used in FoFCou.
 FMM levels:  10  Number of levels for PrismC:   9
 E= -4068.59205359907    
 DIIS: error= 1.94D-02 at cycle   1 NSaved=   1.
 NSaved= 1 IEnMin= 1 EnMin= -4068.59205359907     IErMin= 1 ErrMin= 1.94D-02
 ErrMax= 1.94D-02  0.00D+00 EMaxC= 1.00D-01 BMatC= 1.73D+00 BMatP= 1.73D+00
 IDIUse=3 WtCom= 8.06D-01 WtEn= 1.94D-01
 Coeff-Com:  0.100D+01
 Coeff-En:   0.100D+01
 Coeff:      0.100D+01
 Gap=     0.118 Goal=   None    Shift=    0.000
 GapD=    0.118 DampG=1.000 DampE=0.500 DampFc=0.5000 IDamp=-1.
 Damping current iteration by 5.00D-01
 RMSDP=1.87D-03 MaxDP=2.66D-01              OVMax= 9.81D-01

 Cycle   2  Pass 1  IDiag  1:
 RMSU=  9.13D-04    CP:  9.78D-01
 E= -4068.76617919150     Delta-E=       -0.174125592428 Rises=F Damp=T
 DIIS: error= 1.20D-02 at cycle   2 NSaved=   2.
 NSaved= 2 IEnMin= 2 EnMin= -4068.76617919150     IErMin= 2 ErrMin= 1.20D-02
 ErrMax= 1.20D-02  0.00D+00 EMaxC= 1.00D-01 BMatC= 3.74D-01 BMatP= 1.73D+00
 IDIUse=3 WtCom= 8.80D-01 WtEn= 1.20D-01
 Coeff-Com: -0.738D-01 0.107D+01
 Coeff-En:   0.363D+00 0.637D+00
 Coeff:     -0.215D-01 0.102D+01
 Gap=    -0.072 Goal=   None    Shift=    0.000
 RMSDP=1.20D-03 MaxDP=2.01D-01 DE=-1.74D-01 OVMax= 3.95D-01

 Cycle   3  Pass 1  IDiag  1:
 RMSU=  1.19D-03    CP:  9.67D-01  9.47D-01
 E= -4068.96428812219     Delta-E=       -0.198108930690 Rises=F Damp=F
 DIIS: error= 1.20D-02 at cycle   3 NSaved=   3.
 NSaved= 3 IEnMin= 3 EnMin= -4068.96428812219     IErMin= 2 ErrMin= 1.20D-02
 ErrMax= 1.20D-02  0.00D+00 EMaxC= 1.00D-01 BMatC= 4.53D-01 BMatP= 3.74D-01
 IDIUse=2 WtCom= 0.00D+00 WtEn= 1.00D+00
 Coeff-En:   0.000D+00 0.389D+00 0.611D+00
 Coeff:      0.000D+00 0.389D+00 0.611D+00
 Gap=     0.282 Goal=   None    Shift=    0.000
 RMSDP=1.34D-03 MaxDP=3.30D-01 DE=-1.98D-01 OVMax= 9.47D-01

 Cycle   4  Pass 1  IDiag  1:
 RMSU=  4.69D-04    CP:  9.58D-01  1.69D+00  1.18D-01
 E= -4068.44935554773     Delta-E=        0.514932574461 Rises=F Damp=F
 DIIS: error= 1.10D-02 at cycle   4 NSaved=   4.
 NSaved= 4 IEnMin= 3 EnMin= -4068.96428812219     IErMin= 4 ErrMin= 1.10D-02
 ErrMax= 1.10D-02  0.00D+00 EMaxC= 1.00D-01 BMatC= 5.14D-01 BMatP= 3.74D-01
 IDIUse=2 WtCom= 0.00D+00 WtEn= 1.00D+00
 Coeff-En:   0.000D+00 0.000D+00 0.621D+00 0.379D+00
 Coeff:      0.000D+00 0.000D+00 0.621D+00 0.379D+00
 Gap=     0.006 Goal=   None    Shift=    0.000
 RMSDP=1.07D-03 MaxDP=2.17D-01 DE= 5.15D-01 OVMax= 9.59D-01

 Cycle   5  Pass 1  IDiag  1:
 RMSU=  6.87D-04    CP:  9.65D-01  1.08D+00  4.72D-01  6.67D-02
 E= -4069.45398246121     Delta-E=       -1.004626913484 Rises=F Damp=F
 DIIS: error= 5.27D-03 at cycle   5 NSaved=   5.
 NSaved= 5 IEnMin= 5 EnMin= -4069.45398246121     IErMin= 5 ErrMin= 5.27D-03
 ErrMax= 5.27D-03  0.00D+00 EMaxC= 1.00D-01 BMatC= 4.22D-02 BMatP= 3.74D-01
 IDIUse=3 WtCom= 9.47D-01 WtEn= 5.27D-02
 Coeff-Com:  0.220D-01-0.918D-02 0.256D+00 0.257D+00 0.474D+00
 Coeff-En:   0.000D+00 0.000D+00 0.000D+00 0.000D+00 0.100D+01
 Coeff:      0.208D-01-0.869D-02 0.243D+00 0.243D+00 0.502D+00
 Gap=     0.110 Goal=   None    Shift=    0.000
 RMSDP=2.63D-04 MaxDP=4.00D-02 DE=-1.00D+00 OVMax= 5.22D-02

 Cycle   6  Pass 1  IDiag  1:
 RMSU=  2.43D-04    CP:  9.65D-01  1.00D+00  5.09D-01  1.72D-01  9.88D-01
 E= -4069.47450752066     Delta-E=       -0.020525059444 Rises=F Damp=F
 DIIS: error= 3.31D-03 at cycle   6 NSaved=   6.
 NSaved= 6 IEnMin= 6 EnMin= -4069.47450752066     IErMin= 6 ErrMin= 3.31D-03
 ErrMax= 3.31D-03  0.00D+00 EMaxC= 1.00D-01 BMatC= 2.33D-02 BMatP= 4.22D-02
 IDIUse=3 WtCom= 9.67D-01 WtEn= 3.31D-02
 Coeff-Com:  0.401D-02-0.415D-02-0.114D+00 0.595D-01 0.229D+00 0.825D+00
 Coeff-En:   0.000D+00 0.000D+00 0.000D+00 0.000D+00 0.290D+00 0.710D+00
 Coeff:      0.388D-02-0.401D-02-0.110D+00 0.575D-01 0.231D+00 0.821D+00
 Gap=     0.108 Goal=   None    Shift=    0.000
 RMSDP=2.51D-04 MaxDP=7.51D-02 DE=-2.05D-02 OVMax= 6.45D-02

 Cycle   7  Pass 1  IDiag  1:
 RMSU=  1.55D-04    CP:  9.65D-01  1.03D+00  4.06D-01  1.52D-01  1.21D+00
                    CP:  1.13D+00
 E= -4069.50117905981     Delta-E=       -0.026671539155 Rises=F Damp=F
 DIIS: error= 7.21D-04 at cycle   7 NSaved=   7.
 NSaved= 7 IEnMin= 7 EnMin= -4069.50117905981     IErMin= 7 ErrMin= 7.21D-04
 ErrMax= 7.21D-04  0.00D+00 EMaxC= 1.00D-01 BMatC= 1.85D-03 BMatP= 2.33D-02
 IDIUse=3 WtCom= 9.93D-01 WtEn= 7.21D-03
 Coeff-Com: -0.125D-01 0.296D-01-0.699D-01 0.971D-02 0.216D-01 0.385D+00
 Coeff-Com:  0.636D+00
 Coeff-En:   0.000D+00 0.000D+00 0.000D+00 0.000D+00 0.000D+00 0.000D+00
 Coeff-En:   0.100D+01
 Coeff:     -0.124D-01 0.294D-01-0.694D-01 0.964D-02 0.215D-01 0.382D+00
 Coeff:      0.639D+00
 Gap=     0.102 Goal=   None    Shift=    0.000
 RMSDP=6.60D-05 MaxDP=1.54D-02 DE=-2.67D-02 OVMax= 1.81D-02

 Cycle   8  Pass 1  IDiag  1:
 RMSU=  5.06D-05    CP:  9.65D-01  1.03D+00  3.96D-01  1.35D-01  1.23D+00
                    CP:  1.27D+00  1.06D+00
 E= -4069.50278912941     Delta-E=       -0.001610069594 Rises=F Damp=F
 DIIS: error= 4.46D-04 at cycle   8 NSaved=   8.
 NSaved= 8 IEnMin= 8 EnMin= -4069.50278912941     IErMin= 8 ErrMin= 4.46D-04
 ErrMax= 4.46D-04  0.00D+00 EMaxC= 1.00D-01 BMatC= 5.04D-04 BMatP= 1.85D-03
 IDIUse=3 WtCom= 9.96D-01 WtEn= 4.46D-03
 Coeff-Com: -0.104D-01 0.225D-01-0.145D-01-0.263D-02-0.621D-01 0.209D-01
 Coeff-Com:  0.382D+00 0.664D+00
 Coeff-En:   0.000D+00 0.000D+00 0.000D+00 0.000D+00 0.000D+00 0.000D+00
 Coeff-En:   0.338D-01 0.966D+00
 Coeff:     -0.104D-01 0.224D-01-0.145D-01-0.262D-02-0.618D-01 0.208D-01
 Coeff:      0.380D+00 0.666D+00
 Gap=     0.102 Goal=   None    Shift=    0.000
 RMSDP=3.51D-05 MaxDP=6.77D-03 DE=-1.61D-03 OVMax= 1.67D-02

 Cycle   9  Pass 1  IDiag  1:
 RMSU=  2.23D-05    CP:  9.65D-01  1.03D+00  3.88D-01  1.37D-01  1.25D+00
                    CP:  1.30D+00  1.18D+00  8.00D-01
 E= -4069.50350439474     Delta-E=       -0.000715265338 Rises=F Damp=F
 DIIS: error= 1.69D-04 at cycle   9 NSaved=   9.
 NSaved= 9 IEnMin= 9 EnMin= -4069.50350439474     IErMin= 9 ErrMin= 1.69D-04
 ErrMax= 1.69D-04  0.00D+00 EMaxC= 1.00D-01 BMatC= 8.08D-05 BMatP= 5.04D-04
 IDIUse=3 WtCom= 9.98D-01 WtEn= 1.69D-03
 Coeff-Com: -0.460D-02 0.968D-02-0.253D-03-0.197D-02-0.410D-01-0.375D-01
 Coeff-Com:  0.112D+00 0.388D+00 0.576D+00
 Coeff-En:   0.000D+00 0.000D+00 0.000D+00 0.000D+00 0.000D+00 0.000D+00
 Coeff-En:   0.000D+00 0.000D+00 0.100D+01
 Coeff:     -0.459D-02 0.966D-02-0.253D-03-0.196D-02-0.409D-01-0.374D-01
 Coeff:      0.112D+00 0.387D+00 0.577D+00
 Gap=     0.102 Goal=   None    Shift=    0.000
 RMSDP=1.56D-05 MaxDP=4.07D-03 DE=-7.15D-04 OVMax= 5.21D-03

 Cycle  10  Pass 1  IDiag  1:
 RMSU=  9.01D-06    CP:  9.65D-01  1.03D+00  3.86D-01  1.35D-01  1.26D+00
                    CP:  1.32D+00  1.22D+00  9.53D-01  1.08D+00
 E= -4069.50362184384     Delta-E=       -0.000117449097 Rises=F Damp=F
 DIIS: error= 7.89D-05 at cycle  10 NSaved=  10.
 NSaved=10 IEnMin=10 EnMin= -4069.50362184384     IErMin=10 ErrMin= 7.89D-05
 ErrMax= 7.89D-05  0.00D+00 EMaxC= 1.00D-01 BMatC= 1.03D-05 BMatP= 8.08D-05
 IDIUse=1 WtCom= 1.00D+00 WtEn= 0.00D+00
 Coeff-Com: -0.258D-03 0.529D-03 0.321D-02-0.693D-03-0.832D-02-0.248D-01
 Coeff-Com: -0.468D-01 0.629D-01 0.266D+00 0.748D+00
 Coeff:     -0.258D-03 0.529D-03 0.321D-02-0.693D-03-0.832D-02-0.248D-01
 Coeff:     -0.468D-01 0.629D-01 0.266D+00 0.748D+00
 Gap=     0.102 Goal=   None    Shift=    0.000
 RMSDP=1.02D-05 MaxDP=2.11D-03 DE=-1.17D-04 OVMax= 4.61D-03

 Cycle  11  Pass 1  IDiag  1:
 RMSU=  4.64D-06    CP:  9.65D-01  1.03D+00  3.85D-01  1.34D-01  1.26D+00
                    CP:  1.33D+00  1.25D+00  1.01D+00  1.35D+00  1.16D+00
 E= -4069.50365105676     Delta-E=       -0.000029212923 Rises=F Damp=F
 DIIS: error= 3.63D-05 at cycle  11 NSaved=  11.
 NSaved=11 IEnMin=11 EnMin= -4069.50365105676     IErMin=11 ErrMin= 3.63D-05
 ErrMax= 3.63D-05  0.00D+00 EMaxC= 1.00D-01 BMatC= 3.96D-06 BMatP= 1.03D-05
 IDIUse=1 WtCom= 1.00D+00 WtEn= 0.00D+00
 Coeff-Com:  0.612D-03-0.129D-02 0.187D-02-0.310D-03 0.348D-02-0.460D-02
 Coeff-Com: -0.489D-01-0.237D-01 0.780D-02 0.410D+00 0.655D+00
 Coeff:      0.612D-03-0.129D-02 0.187D-02-0.310D-03 0.348D-02-0.460D-02
 Coeff:     -0.489D-01-0.237D-01 0.780D-02 0.410D+00 0.655D+00
 Gap=     0.102 Goal=   None    Shift=    0.000
 RMSDP=4.72D-06 MaxDP=1.42D-03 DE=-2.92D-05 OVMax= 2.64D-03

 Cycle  12  Pass 1  IDiag  1:
 RMSU=  2.13D-06    CP:  9.65D-01  1.03D+00  3.85D-01  1.34D-01  1.26D+00
                    CP:  1.33D+00  1.26D+00  1.04D+00  1.48D+00  1.46D+00
                    CP:  1.16D+00
 E= -4069.50366131381     Delta-E=       -0.000010257045 Rises=F Damp=F
 DIIS: error= 2.28D-05 at cycle  12 NSaved=  12.
 NSaved=12 IEnMin=12 EnMin= -4069.50366131381     IErMin=12 ErrMin= 2.28D-05
 ErrMax= 2.28D-05  0.00D+00 EMaxC= 1.00D-01 BMatC= 1.60D-06 BMatP= 3.96D-06
 IDIUse=1 WtCom= 1.00D+00 WtEn= 0.00D+00
 Coeff-Com:  0.398D-03-0.808D-03 0.147D-03-0.233D-03 0.587D-02 0.831D-02
 Coeff-Com: -0.106D-01-0.249D-01-0.119D+00-0.583D-01 0.298D+00 0.901D+00
 Coeff:      0.398D-03-0.808D-03 0.147D-03-0.233D-03 0.587D-02 0.831D-02
 Coeff:     -0.106D-01-0.249D-01-0.119D+00-0.583D-01 0.298D+00 0.901D+00
 Gap=     0.102 Goal=   None    Shift=    0.000
 RMSDP=4.55D-06 MaxDP=1.86D-03 DE=-1.03D-05 OVMax= 2.30D-03

 Cycle  13  Pass 1  IDiag  1:
 RMSU=  1.37D-06    CP:  9.65D-01  1.03D+00  3.85D-01  1.34D-01  1.26D+00
                    CP:  1.33D+00  1.25D+00  1.06D+00  1.60D+00  1.68D+00
                    CP:  1.59D+00  1.45D+00
 E= -4069.50366736384     Delta-E=       -0.000006050028 Rises=F Damp=F
 DIIS: error= 1.07D-05 at cycle  13 NSaved=  13.
 NSaved=13 IEnMin=13 EnMin= -4069.50366736384     IErMin=13 ErrMin= 1.07D-05
 ErrMax= 1.07D-05  0.00D+00 EMaxC= 1.00D-01 BMatC= 4.59D-07 BMatP= 1.60D-06
 IDIUse=1 WtCom= 1.00D+00 WtEn= 0.00D+00
 Coeff-Com: -0.262D-04 0.675D-04-0.510D-03-0.130D-03 0.189D-02 0.649D-02
 Coeff-Com:  0.115D-01 0.439D-02-0.660D-01-0.151D+00-0.102D+00 0.402D+00
 Coeff-Com:  0.893D+00
 Coeff:     -0.262D-04 0.675D-04-0.510D-03-0.130D-03 0.189D-02 0.649D-02
 Coeff:      0.115D-01 0.439D-02-0.660D-01-0.151D+00-0.102D+00 0.402D+00
 Coeff:      0.893D+00
 Gap=     0.103 Goal=   None    Shift=    0.000
 RMSDP=2.88D-06 MaxDP=1.23D-03 DE=-6.05D-06 OVMax= 1.40D-03

 Cycle  14  Pass 1  IDiag  1:
 RMSU=  7.53D-07    CP:  9.65D-01  1.03D+00  3.86D-01  1.34D-01  1.26D+00
                    CP:  1.33D+00  1.25D+00  1.06D+00  1.67D+00  1.82D+00
                    CP:  1.83D+00  1.98D+00  1.41D+00
 E= -4069.50366932224     Delta-E=       -0.000001958400 Rises=F Damp=F
 DIIS: error= 6.76D-06 at cycle  14 NSaved=  14.
 NSaved=14 IEnMin=14 EnMin= -4069.50366932224     IErMin=14 ErrMin= 6.76D-06
 ErrMax= 6.76D-06  0.00D+00 EMaxC= 1.00D-01 BMatC= 1.02D-07 BMatP= 4.59D-07
 IDIUse=1 WtCom= 1.00D+00 WtEn= 0.00D+00
 Coeff-Com: -0.866D-04 0.184D-03-0.313D-03-0.610D-04-0.398D-03 0.138D-02
 Coeff-Com:  0.764D-02 0.905D-02-0.101D-01-0.610D-01-0.145D+00-0.357D-01
 Coeff-Com:  0.491D+00 0.744D+00
 Coeff:     -0.866D-04 0.184D-03-0.313D-03-0.610D-04-0.398D-03 0.138D-02
 Coeff:      0.764D-02 0.905D-02-0.101D-01-0.610D-01-0.145D+00-0.357D-01
 Coeff:      0.491D+00 0.744D+00
 Gap=     0.103 Goal=   None    Shift=    0.000
 RMSDP=1.28D-06 MaxDP=3.80D-04 DE=-1.96D-06 OVMax= 7.69D-04

 Cycle  15  Pass 1  IDiag  1:
 RMSU=  4.01D-07    CP:  9.65D-01  1.03D+00  3.86D-01  1.34D-01  1.26D+00
                    CP:  1.33D+00  1.25D+00  1.07D+00  1.69D+00  1.88D+00
                    CP:  1.95D+00  2.20D+00  1.79D+00  1.17D+00
 E= -4069.50366975455     Delta-E=       -0.000000432316 Rises=F Damp=F
 DIIS: error= 2.98D-06 at cycle  15 NSaved=  15.
 NSaved=15 IEnMin=15 EnMin= -4069.50366975455     IErMin=15 ErrMin= 2.98D-06
 ErrMax= 2.98D-06  0.00D+00 EMaxC= 1.00D-01 BMatC= 1.96D-08 BMatP= 1.02D-07
 IDIUse=1 WtCom= 1.00D+00 WtEn= 0.00D+00
 Coeff-Com: -0.321D-04 0.634D-04-0.740D-04 0.211D-04-0.674D-03-0.619D-03
 Coeff-Com:  0.976D-03 0.449D-02 0.700D-02 0.758D-02-0.476D-01-0.929D-01
 Coeff-Com:  0.458D-01 0.344D+00 0.732D+00
 Coeff:     -0.321D-04 0.634D-04-0.740D-04 0.211D-04-0.674D-03-0.619D-03
 Coeff:      0.976D-03 0.449D-02 0.700D-02 0.758D-02-0.476D-01-0.929D-01
 Coeff:      0.458D-01 0.344D+00 0.732D+00
 Gap=     0.103 Goal=   None    Shift=    0.000
 RMSDP=3.79D-07 MaxDP=3.00D-05 DE=-4.32D-07 OVMax= 2.69D-04

 Cycle  16  Pass 1  IDiag  1:
 RMSU=  2.13D-07    CP:  9.65D-01  1.03D+00  3.86D-01  1.34D-01  1.26D+00
                    CP:  1.33D+00  1.25D+00  1.07D+00  1.69D+00  1.88D+00
                    CP:  1.96D+00  2.27D+00  1.90D+00  1.43D+00  1.22D+00
 E= -4069.50366982412     Delta-E=       -0.000000069569 Rises=F Damp=F
 DIIS: error= 1.64D-06 at cycle  16 NSaved=  16.
 NSaved=16 IEnMin=16 EnMin= -4069.50366982412     IErMin=16 ErrMin= 1.64D-06
 ErrMax= 1.64D-06  0.00D+00 EMaxC= 1.00D-01 BMatC= 6.62D-09 BMatP= 1.96D-08
 IDIUse=1 WtCom= 1.00D+00 WtEn= 0.00D+00
 Coeff-Com:  0.131D-05-0.403D-05 0.187D-04 0.203D-04-0.256D-03-0.584D-03
 Coeff-Com: -0.160D-02-0.832D-04 0.339D-02 0.190D-01 0.125D-01-0.223D-01
 Coeff-Com: -0.109D+00-0.588D-01 0.329D+00 0.829D+00
 Coeff:      0.131D-05-0.403D-05 0.187D-04 0.203D-04-0.256D-03-0.584D-03
 Coeff:     -0.160D-02-0.832D-04 0.339D-02 0.190D-01 0.125D-01-0.223D-01
 Coeff:     -0.109D+00-0.588D-01 0.329D+00 0.829D+00
 Gap=     0.103 Goal=   None    Shift=    0.000
 RMSDP=2.96D-07 MaxDP=1.09D-04 DE=-6.96D-08 OVMax= 1.59D-04

 Cycle  17  Pass 1  IDiag  1:
 RMSU=  1.11D-07    CP:  9.65D-01  1.03D+00  3.86D-01  1.34D-01  1.26D+00
                    CP:  1.33D+00  1.25D+00  1.07D+00  1.69D+00  1.87D+00
                    CP:  1.96D+00  2.30D+00  1.97D+00  1.56D+00  1.62D+00
                    CP:  1.50D+00
 E= -4069.50366985022     Delta-E=       -0.000000026102 Rises=F Damp=F
 DIIS: error= 7.22D-07 at cycle  17 NSaved=  17.
 NSaved=17 IEnMin=17 EnMin= -4069.50366985022     IErMin=17 ErrMin= 7.22D-07
 ErrMax= 7.22D-07  0.00D+00 EMaxC= 1.00D-01 BMatC= 1.52D-09 BMatP= 6.62D-09
 IDIUse=1 WtCom= 1.00D+00 WtEn= 0.00D+00
 Coeff-Com:  0.151D-05-0.261D-05 0.228D-04 0.618D-05 0.860D-05-0.107D-03
 Coeff-Com: -0.912D-03-0.708D-03-0.808D-03 0.725D-02 0.143D-01 0.168D-01
 Coeff-Com: -0.592D-01-0.118D+00-0.385D-01 0.364D+00 0.816D+00
 Coeff:      0.151D-05-0.261D-05 0.228D-04 0.618D-05 0.860D-05-0.107D-03
 Coeff:     -0.912D-03-0.708D-03-0.808D-03 0.725D-02 0.143D-01 0.168D-01
 Coeff:     -0.592D-01-0.118D+00-0.385D-01 0.364D+00 0.816D+00
 Gap=     0.103 Goal=   None    Shift=    0.000
 RMSDP=1.84D-07 MaxDP=8.41D-05 DE=-2.61D-08 OVMax= 9.09D-05

 Cycle  18  Pass 1  IDiag  1:
 RMSU=  5.29D-08    CP:  9.65D-01  1.03D+00  3.86D-01  1.34D-01  1.26D+00
                    CP:  1.33D+00  1.25D+00  1.07D+00  1.69D+00  1.87D+00
                    CP:  1.96D+00  2.31D+00  1.99D+00  1.63D+00  1.84D+00
                    CP:  1.96D+00  1.35D+00
 E= -4069.50366985707     Delta-E=       -0.000000006850 Rises=F Damp=F
 DIIS: error= 6.95D-07 at cycle  18 NSaved=  18.
 NSaved=18 IEnMin=18 EnMin= -4069.50366985707     IErMin=18 ErrMin= 6.95D-07
 ErrMax= 6.95D-07  0.00D+00 EMaxC= 1.00D-01 BMatC= 5.02D-10 BMatP= 1.52D-09
 IDIUse=1 WtCom= 1.00D+00 WtEn= 0.00D+00
 Coeff-Com: -0.283D-05 0.679D-05 0.782D-05-0.172D-05 0.615D-04 0.109D-03
 Coeff-Com: -0.432D-04-0.146D-03-0.155D-02-0.100D-02 0.250D-02 0.163D-01
 Coeff-Com:  0.996D-04-0.474D-01-0.109D+00-0.430D-01 0.450D+00 0.734D+00
 Coeff:     -0.283D-05 0.679D-05 0.782D-05-0.172D-05 0.615D-04 0.109D-03
 Coeff:     -0.432D-04-0.146D-03-0.155D-02-0.100D-02 0.250D-02 0.163D-01
 Coeff:      0.996D-04-0.474D-01-0.109D+00-0.430D-01 0.450D+00 0.734D+00
 Gap=     0.103 Goal=   None    Shift=    0.000
 RMSDP=1.03D-07 MaxDP=4.98D-05 DE=-6.85D-09 OVMax= 3.71D-05

 Cycle  19  Pass 1  IDiag  1:
 RMSU=  2.73D-08    CP:  9.65D-01  1.03D+00  3.86D-01  1.34D-01  1.26D+00
                    CP:  1.33D+00  1.25D+00  1.07D+00  1.69D+00  1.87D+00
                    CP:  1.96D+00  2.31D+00  1.99D+00  1.66D+00  1.96D+00
                    CP:  2.21D+00  1.71D+00  1.22D+00
 E= -4069.50366985903     Delta-E=       -0.000000001957 Rises=F Damp=F
 DIIS: error= 2.05D-07 at cycle  19 NSaved=  19.
 NSaved=19 IEnMin=19 EnMin= -4069.50366985903     IErMin=19 ErrMin= 2.05D-07
 ErrMax= 2.05D-07  0.00D+00 EMaxC= 1.00D-01 BMatC= 1.20D-10 BMatP= 5.02D-10
 IDIUse=1 WtCom= 1.00D+00 WtEn= 0.00D+00
 Coeff-Com: -0.243D-05 0.515D-05-0.218D-05-0.228D-05 0.269D-04 0.914D-04
 Coeff-Com:  0.212D-03 0.186D-03-0.677D-03-0.235D-02-0.385D-02 0.380D-02
 Coeff-Com:  0.183D-01 0.925D-02-0.432D-01-0.131D+00-0.417D-02 0.355D+00
 Coeff-Com:  0.799D+00
 Coeff:     -0.243D-05 0.515D-05-0.218D-05-0.228D-05 0.269D-04 0.914D-04
 Coeff:      0.212D-03 0.186D-03-0.677D-03-0.235D-02-0.385D-02 0.380D-02
 Coeff:      0.183D-01 0.925D-02-0.432D-01-0.131D+00-0.417D-02 0.355D+00
 Coeff:      0.799D+00
 Gap=     0.103 Goal=   None    Shift=    0.000
 RMSDP=5.59D-08 MaxDP=2.61D-05 DE=-1.96D-09 OVMax= 2.72D-05

 Cycle  20  Pass 1  IDiag  1:
 RMSU=  1.52D-08    CP:  9.65D-01  1.03D+00  3.86D-01  1.34D-01  1.26D+00
                    CP:  1.33D+00  1.25D+00  1.07D+00  1.69D+00  1.87D+00
                    CP:  1.96D+00  2.31D+00  1.99D+00  1.67D+00  2.02D+00
                    CP:  2.34D+00  1.90D+00  1.57D+00  1.17D+00
 E= -4069.50366985974     Delta-E=       -0.000000000706 Rises=F Damp=F
 DIIS: error= 1.06D-07 at cycle  20 NSaved=  20.
 NSaved=20 IEnMin=20 EnMin= -4069.50366985974     IErMin=20 ErrMin= 1.06D-07
 ErrMax= 1.06D-07  0.00D+00 EMaxC= 1.00D-01 BMatC= 3.90D-11 BMatP= 1.20D-10
 IDIUse=1 WtCom= 1.00D+00 WtEn= 0.00D+00
 Coeff-Com: -0.141D-06-0.563D-07-0.311D-05-0.101D-06-0.385D-06 0.229D-04
 Coeff-Com:  0.969D-04 0.129D-03-0.137D-04-0.775D-03-0.289D-02-0.178D-02
 Coeff-Com:  0.941D-02 0.158D-01 0.473D-02-0.558D-01-0.116D+00-0.240D-01
 Coeff-Com:  0.440D+00 0.731D+00
 Coeff:     -0.141D-06-0.563D-07-0.311D-05-0.101D-06-0.385D-06 0.229D-04
 Coeff:      0.969D-04 0.129D-03-0.137D-04-0.775D-03-0.289D-02-0.178D-02
 Coeff:      0.941D-02 0.158D-01 0.473D-02-0.558D-01-0.116D+00-0.240D-01
 Coeff:      0.440D+00 0.731D+00
 Gap=     0.103 Goal=   None    Shift=    0.000
 RMSDP=2.37D-08 MaxDP=9.15D-06 DE=-7.06D-10 OVMax= 1.15D-05

 Cycle  21  Pass 1  IDiag  1:
 Restarting incremental Fock formation.
 E= -4069.50366985981     Delta-E=       -0.000000000069 Rises=F Damp=F
 DIIS: error= 6.90D-08 at cycle  21 NSaved=  20.
 NSaved=20 IEnMin=20 EnMin= -4069.50366985981     IErMin=20 ErrMin= 6.90D-08
 ErrMax= 6.90D-08  0.00D+00 EMaxC= 1.00D-01 BMatC= 9.25D-12 BMatP= 3.90D-11
 IDIUse=1 WtCom= 1.00D+00 WtEn= 0.00D+00
 Coeff-Com:  0.602D-06-0.141D-05-0.149D-05-0.772D-05-0.114D-04-0.145D-04
 Coeff-Com:  0.166D-04 0.151D-03 0.330D-03-0.630D-03-0.163D-02-0.145D-04
 Coeff-Com:  0.594D-02 0.145D-01 0.932D-02-0.600D-01-0.125D+00 0.296D-01
 Coeff-Com:  0.392D+00 0.735D+00
 Coeff:      0.602D-06-0.141D-05-0.149D-05-0.772D-05-0.114D-04-0.145D-04
 Coeff:      0.166D-04 0.151D-03 0.330D-03-0.630D-03-0.163D-02-0.145D-04
 Coeff:      0.594D-02 0.145D-01 0.932D-02-0.600D-01-0.125D+00 0.296D-01
 Coeff:      0.392D+00 0.735D+00
 Gap=     0.103 Goal=   None    Shift=    0.000
 RMSDP=9.44D-09 MaxDP=2.09D-06 DE=-6.91D-11 OVMax= 6.58D-06

 Cycle  22  Pass 1  IDiag  1:
 RMSU=  9.43D-09    CP:  1.00D+00
 E= -4069.50366986001     Delta-E=       -0.000000000200 Rises=F Damp=F
 DIIS: error= 2.75D-08 at cycle  22 NSaved=  20.
 NSaved=20 IEnMin=20 EnMin= -4069.50366986001     IErMin=20 ErrMin= 2.75D-08
 ErrMax= 2.75D-08  0.00D+00 EMaxC= 1.00D-01 BMatC= 2.28D-12 BMatP= 9.25D-12
 IDIUse=1 WtCom= 1.00D+00 WtEn= 0.00D+00
 Coeff-Com:  0.400D-07 0.181D-06-0.438D-05-0.102D-04-0.232D-04-0.160D-04
 Coeff-Com:  0.840D-04 0.362D-03 0.278D-03-0.261D-03-0.254D-02-0.117D-02
 Coeff-Com:  0.479D-02 0.190D-01 0.299D-02-0.565D-01-0.912D-01-0.213D-01
 Coeff-Com:  0.325D+00 0.821D+00
 Coeff:      0.400D-07 0.181D-06-0.438D-05-0.102D-04-0.232D-04-0.160D-04
 Coeff:      0.840D-04 0.362D-03 0.278D-03-0.261D-03-0.254D-02-0.117D-02
 Coeff:      0.479D-02 0.190D-01 0.299D-02-0.565D-01-0.912D-01-0.213D-01
 Coeff:      0.325D+00 0.821D+00
 Gap=     0.103 Goal=   None    Shift=    0.000
 RMSDP=5.53D-09 MaxDP=1.65D-06 DE=-2.00D-10 OVMax= 3.30D-06

 Cycle  23  Pass 1  IDiag  1:
 RMSU=  4.78D-09    CP:  1.00D+00  1.29D+00
 E= -4069.50366985997     Delta-E=        0.000000000033 Rises=F Damp=F
 DIIS: error= 1.57D-08 at cycle  23 NSaved=  20.
 NSaved=20 IEnMin=19 EnMin= -4069.50366986001     IErMin=20 ErrMin= 1.57D-08
 ErrMax= 1.57D-08  0.00D+00 EMaxC= 1.00D-01 BMatC= 4.64D-13 BMatP= 2.28D-12
 IDIUse=1 WtCom= 1.00D+00 WtEn= 0.00D+00
 Coeff-Com:  0.595D-06 0.858D-06-0.188D-05-0.136D-04-0.206D-04-0.647D-05
 Coeff-Com:  0.125D-03 0.281D-03 0.343D-03-0.127D-02-0.192D-02-0.122D-02
 Coeff-Com:  0.691D-02 0.160D-01 0.944D-03-0.405D-01-0.100D+00-0.268D-01
 Coeff-Com:  0.351D+00 0.796D+00
 Coeff:      0.595D-06 0.858D-06-0.188D-05-0.136D-04-0.206D-04-0.647D-05
 Coeff:      0.125D-03 0.281D-03 0.343D-03-0.127D-02-0.192D-02-0.122D-02
 Coeff:      0.691D-02 0.160D-01 0.944D-03-0.405D-01-0.100D+00-0.268D-01
 Coeff:      0.351D+00 0.796D+00
 Gap=     0.103 Goal=   None    Shift=    0.000
 RMSDP=3.29D-09 MaxDP=1.51D-06 DE= 3.27D-11 OVMax= 1.50D-06

 Cycle  24  Pass 1  IDiag  1:
 RMSU=  2.12D-09    CP:  1.00D+00  1.36D+00  1.51D+00
 E= -4069.50366985978     Delta-E=        0.000000000193 Rises=F Damp=F
 DIIS: error= 7.29D-09 at cycle  24 NSaved=  20.
 NSaved=20 IEnMin=18 EnMin= -4069.50366986001     IErMin=20 ErrMin= 7.29D-09
 ErrMax= 7.29D-09  0.00D+00 EMaxC= 1.00D-01 BMatC= 1.77D-13 BMatP= 4.64D-13
 IDIUse=1 WtCom= 1.00D+00 WtEn= 0.00D+00
 Coeff-Com:  0.164D-05 0.279D-05 0.384D-05-0.319D-05-0.286D-04-0.569D-04
 Coeff-Com:  0.679D-05 0.230D-03 0.169D-03-0.398D-03-0.196D-02-0.216D-02
 Coeff-Com:  0.649D-02 0.138D-01 0.710D-02-0.461D-01-0.103D+00-0.662D-01
 Coeff-Com:  0.422D+00 0.770D+00
 Coeff:      0.164D-05 0.279D-05 0.384D-05-0.319D-05-0.286D-04-0.569D-04
 Coeff:      0.679D-05 0.230D-03 0.169D-03-0.398D-03-0.196D-02-0.216D-02
 Coeff:      0.649D-02 0.138D-01 0.710D-02-0.461D-01-0.103D+00-0.662D-01
 Coeff:      0.422D+00 0.770D+00
 Gap=     0.103 Goal=   None    Shift=    0.000
 RMSDP=2.01D-09 MaxDP=9.17D-07 DE= 1.93D-10 OVMax= 8.55D-07

 SCF Done:  E(RCAM-B3LYP) =  -4069.50366986     A.U. after   24 cycles
            NFock= 24  Conv=0.20D-08     -V/T= 2.0098
 KE= 4.029921261589D+03 PE=-4.090968139712D+04 EE= 1.709645871245D+04
 Leave Link  502 at Thu Sep  9 19:09:20 2021, MaxMem= 23488102400 cpu:           22554.1 elap:             973.7
 (Enter /sw/apps/gaussian-16.0/g16/l801.exe)
 DoSCS=F DFT=T ScalE2(SS,OS)=  1.000000  1.000000
 ExpMin= 3.36D-02 ExpMax= 4.95D+03 ExpMxC= 7.45D+02 IAcc=3 IRadAn=         5 AccDes= 0.00D+00
 HarFok:  IExCor=  205 AccDes= 0.00D+00 IRadAn=         5 IDoV=-2 UseB2=F ITyADJ=14
 ICtDFT= 12500011 ScaDFX=  1.000000  1.000000  1.000000  1.000000
 GSVD:  LWork=       -9588 too small for GESVD, short by       45590 words or       45590 for optimal perf.
 Largest valence mixing into a core orbital is  2.02D-04
 Largest core mixing into a valence orbital is  5.15D-05
 Range of M.O.s used for correlation:    95  1572
 NBasis=  1572 NAE=   312 NBE=   312 NFC=    94 NFV=     0
 NROrb=   1478 NOA=   218 NOB=   218 NVA=  1260 NVB=  1260
 Leave Link  801 at Thu Sep  9 19:09:20 2021, MaxMem= 23488102400 cpu:               8.1 elap:               0.4
 (Enter /sw/apps/gaussian-16.0/g16/l914.exe)
 RHF ground state
 Two-electron integrals replicated using symmetry.
 MDV= 23488102400 DFT=T DoStab=F Mixed=T DoRPA=T DoScal=F NonHer=T
 Making orbital integer symmetry assigments:
 Orbital symmetries:
       Occupied  (A) (A) (A) (A) (A) (A) (A) (A) (A) (A) (A) (A)
                 (A) (A) (A) (A) (A) (A) (A) (A) (A) (A) (A) (A)
                 (A) (A) (A) (A) (A) (A) (A) (A) (A) (A) (A) (A)
                 (A) (A) (A) (A) (A) (A) (A) (A) (A) (A) (A) (A)
                 (A) (A) (A) (A) (A) (A) (A) (A) (A) (A) (A) (A)
                 (A) (A) (A) (A) (A) (A) (A) (A) (A) (A) (A) (A)
                 (A) (A) (A) (A) (A) (A) (A) (A) (A) (A) (A) (A)
                 (A) (A) (A) (A) (A) (A) (A) (A) (A) (A) (A) (A)
                 (A) (A) (A) (A) (A) (A) (A) (A) (A) (A) (A) (A)
                 (A) (A) (A) (A) (A) (A) (A) (A) (A) (A) (A) (A)
                 (A) (A) (A) (A) (A) (A) (A) (A) (A) (A) (A) (A)
                 (A) (A) (A) (A) (A) (A) (A) (A) (A) (A) (A) (A)
                 (A) (A) (A) (A) (A) (A) (A) (A) (A) (A) (A) (A)
                 (A) (A) (A) (A) (A) (A) (A) (A) (A) (A) (A) (A)
                 (A) (A) (A) (A) (A) (A) (A) (A) (A) (A) (A) (A)
                 (A) (A) (A) (A) (A) (A) (A) (A) (A) (A) (A) (A)
                 (A) (A) (A) (A) (A) (A) (A) (A) (A) (A) (A) (A)
                 (A) (A) (A) (A) (A) (A) (A) (A) (A) (A) (A) (A)
                 (A) (A) (A) (A) (A) (A) (A) (A) (A) (A) (A) (A)
                 (A) (A) (A) (A) (A) (A) (A) (A) (A) (A) (A) (A)
                 (A) (A) (A) (A) (A) (A) (A) (A) (A) (A) (A) (A)
                 (A) (A) (A) (A) (A) (A) (A) (A) (A) (A) (A) (A)
                 (A) (A) (A) (A) (A) (A) (A) (A) (A) (A) (A) (A)
                 (A) (A) (A) (A) (A) (A) (A) (A) (A) (A) (A) (A)
                 (A) (A) (A) (A) (A) (A) (A) (A) (A) (A) (A) (A)
                 (A) (A) (A) (A) (A) (A) (A) (A) (A) (A) (A) (A)
       Virtual   (A) (A) (A) (A) (A) (A) (A) (A) (A) (A) (A) (A)
                 (A) (A) (A) (A) (A) (A) (A) (A) (A) (A) (A) (A)
                 (A) (A) (A) (A) (A) (A) (A) (A) (A) (A) (A) (A)
                 (A) (A) (A) (A) (A) (A) (A) (A) (A) (A) (A) (A)
                 (A) (A) (A) (A) (A) (A) (A) (A) (A) (A) (A) (A)
                 (A) (A) (A) (A) (A) (A) (A) (A) (A) (A) (A) (A)
                 (A) (A) (A) (A) (A) (A) (A) (A) (A) (A) (A) (A)
                 (A) (A) (A) (A) (A) (A) (A) (A) (A) (A) (A) (A)
                 (A) (A) (A) (A) (A) (A) (A) (A) (A) (A) (A) (A)
                 (A) (A) (A) (A) (A) (A) (A) (A) (A) (A) (A) (A)
                 (A) (A) (A) (A) (A) (A) (A) (A) (A) (A) (A) (A)
                 (A) (A) (A) (A) (A) (A) (A) (A) (A) (A) (A) (A)
                 (A) (A) (A) (A) (A) (A) (A) (A) (A) (A) (A) (A)
                 (A) (A) (A) (A) (A) (A) (A) (A) (A) (A) (A) (A)
                 (A) (A) (A) (A) (A) (A) (A) (A) (A) (A) (A) (A)
                 (A) (A) (A) (A) (A) (A) (A) (A) (A) (A) (A) (A)
                 (A) (A) (A) (A) (A) (A) (A) (A) (A) (A) (A) (A)
                 (A) (A) (A) (A) (A) (A) (A) (A) (A) (A) (A) (A)
                 (A) (A) (A) (A) (A) (A) (A) (A) (A) (A) (A) (A)
                 (A) (A) (A) (A) (A) (A) (A) (A) (A) (A) (A) (A)
                 (A) (A) (A) (A) (A) (A) (A) (A) (A) (A) (A) (A)
                 (A) (A) (A) (A) (A) (A) (A) (A) (A) (A) (A) (A)
                 (A) (A) (A) (A) (A) (A) (A) (A) (A) (A) (A) (A)
                 (A) (A) (A) (A) (A) (A) (A) (A) (A) (A) (A) (A)
                 (A) (A) (A) (A) (A) (A) (A) (A) (A) (A) (A) (A)
                 (A) (A) (A) (A) (A) (A) (A) (A) (A) (A) (A) (A)
                 (A) (A) (A) (A) (A) (A) (A) (A) (A) (A) (A) (A)
                 (A) (A) (A) (A) (A) (A) (A) (A) (A) (A) (A) (A)
                 (A) (A) (A) (A) (A) (A) (A) (A) (A) (A) (A) (A)
                 (A) (A) (A) (A) (A) (A) (A) (A) (A) (A) (A) (A)
                 (A) (A) (A) (A) (A) (A) (A) (A) (A) (A) (A) (A)
                 (A) (A) (A) (A) (A) (A) (A) (A) (A) (A) (A) (A)
                 (A) (A) (A) (A) (A) (A) (A) (A) (A) (A) (A) (A)
                 (A) (A) (A) (A) (A) (A) (A) (A) (A) (A) (A) (A)
                 (A) (A) (A) (A) (A) (A) (A) (A) (A) (A) (A) (A)
                 (A) (A) (A) (A) (A) (A) (A) (A) (A) (A) (A) (A)
                 (A) (A) (A) (A) (A) (A) (A) (A) (A) (A) (A) (A)
                 (A) (A) (A) (A) (A) (A) (A) (A) (A) (A) (A) (A)
                 (A) (A) (A) (A) (A) (A) (A) (A) (A) (A) (A) (A)
                 (A) (A) (A) (A) (A) (A) (A) (A) (A) (A) (A) (A)
                 (A) (A) (A) (A) (A) (A) (A) (A) (A) (A) (A) (A)
                 (A) (A) (A) (A) (A) (A) (A) (A) (A) (A) (A) (A)
                 (A) (A) (A) (A) (A) (A) (A) (A) (A) (A) (A) (A)
                 (A) (A) (A) (A) (A) (A) (A) (A) (A) (A) (A) (A)
                 (A) (A) (A) (A) (A) (A) (A) (A) (A) (A) (A) (A)
                 (A) (A) (A) (A) (A) (A) (A) (A) (A) (A) (A) (A)
                 (A) (A) (A) (A) (A) (A) (A) (A) (A) (A) (A) (A)
                 (A) (A) (A) (A) (A) (A) (A) (A) (A) (A) (A) (A)
                 (A) (A) (A) (A) (A) (A) (A) (A) (A) (A) (A) (A)
                 (A) (A) (A) (A) (A) (A) (A) (A) (A) (A) (A) (A)
                 (A) (A) (A) (A) (A) (A) (A) (A) (A) (A) (A) (A)
                 (A) (A) (A) (A) (A) (A) (A) (A) (A) (A) (A) (A)
                 (A) (A) (A) (A) (A) (A) (A) (A) (A) (A) (A) (A)
                 (A) (A) (A) (A) (A) (A) (A) (A) (A) (A) (A) (A)
                 (A) (A) (A) (A) (A) (A) (A) (A) (A) (A) (A) (A)
                 (A) (A) (A) (A) (A) (A) (A) (A) (A) (A) (A) (A)
                 (A) (A) (A) (A) (A) (A) (A) (A) (A) (A) (A) (A)
                 (A) (A) (A) (A) (A) (A) (A) (A) (A) (A) (A) (A)
                 (A) (A) (A) (A) (A) (A) (A) (A) (A) (A) (A) (A)
                 (A) (A) (A) (A) (A) (A) (A) (A) (A) (A) (A) (A)
                 (A) (A) (A) (A) (A) (A) (A) (A) (A) (A) (A) (A)
                 (A) (A) (A) (A) (A) (A) (A) (A) (A) (A) (A) (A)
                 (A) (A) (A) (A) (A) (A) (A) (A) (A) (A) (A) (A)
                 (A) (A) (A) (A) (A) (A) (A) (A) (A) (A) (A) (A)
                 (A) (A) (A) (A) (A) (A) (A) (A) (A) (A) (A) (A)
                 (A) (A) (A) (A) (A) (A) (A) (A) (A) (A) (A) (A)
                 (A) (A) (A) (A) (A) (A) (A) (A) (A) (A) (A) (A)
                 (A) (A) (A) (A) (A) (A) (A) (A) (A) (A) (A) (A)
                 (A) (A) (A) (A) (A) (A) (A) (A) (A) (A) (A) (A)
                 (A) (A) (A) (A) (A) (A) (A) (A) (A) (A) (A) (A)
                 (A) (A) (A) (A) (A) (A) (A) (A) (A) (A) (A) (A)
                 (A) (A) (A) (A) (A) (A) (A) (A) (A) (A) (A) (A)
                 (A) (A) (A) (A) (A) (A) (A) (A) (A) (A) (A) (A)
                 (A) (A) (A) (A) (A) (A) (A) (A) (A) (A) (A) (A)
                 (A) (A) (A) (A) (A) (A) (A) (A) (A) (A) (A) (A)
                 (A) (A) (A) (A) (A) (A) (A) (A) (A) (A) (A) (A)
                 (A) (A) (A) (A) (A) (A) (A) (A) (A) (A) (A) (A)
                 (A) (A) (A) (A) (A) (A) (A) (A) (A) (A) (A) (A)
                 (A) (A) (A) (A) (A) (A) (A) (A) (A) (A) (A) (A)
                 (A) (A) (A) (A) (A) (A) (A) (A) (A) (A) (A) (A)
                 (A) (A) (A) (A) (A) (A) (A) (A) (A) (A) (A) (A)
                 (A) (A) (A) (A) (A) (A) (A) (A) (A) (A) (A) (A)
                 (A) (A) (A) (A) (A) (A) (A) (A) (A) (A) (A) (A)
                 (A) (A) (A) (A) (A) (A) (A) (A) (A) (A) (A) (A)
                 (A) (A) (A) (A) (A) (A) (A) (A) (A) (A) (A) (A)
                 (A) (A) (A) (A) (A) (A) (A) (A) (A) (A) (A) (A)
                 (A) (A) (A) (A) (A) (A) (A) (A) (A) (A) (A) (A)
                 (A) (A) (A) (A) (A) (A) (A) (A) (A) (A) (A) (A)
                 (A) (A) (A) (A) (A) (A) (A) (A) (A) (A) (A) (A)
                 (A) (A) (A) (A) (A) (A) (A) (A) (A) (A) (A) (A)
                 (A) (A) (A) (A) (A) (A) (A) (A) (A) (A) (A) (A)
                 (A) (A) (A) (A) (A) (A) (A) (A) (A) (A) (A) (A)
                 (A) (A) (A) (A) (A) (A) (A) (A) (A) (A) (A) (A)
                 (A) (A) (A) (A) (A) (A) (A) (A) (A) (A) (A) (A)
                 (A) (A) (A) (A) (A) (A) (A) (A) (A) (A) (A) (A)
                 (A) (A) (A) (A) (A) (A) (A) (A) (A) (A) (A) (A)
                 (A) (A) (A) (A) (A) (A) (A) (A) (A) (A) (A) (A)
                 (A) (A) (A) (A) (A) (A) (A) (A) (A) (A) (A) (A)
                 (A) (A) (A) (A) (A) (A) (A) (A) (A) (A) (A) (A)
                 (A) (A) (A) (A) (A) (A) (A) (A) (A) (A) (A) (A)
                 (A) (A) (A) (A) (A) (A) (A) (A) (A) (A) (A) (A)
                 (A) (A) (A) (A) (A) (A) (A) (A) (A) (A) (A) (A)
                 (A) (A) (A) (A) (A) (A) (A) (A) (A) (A) (A) (A)
                 (A) (A) (A) (A) (A) (A) (A) (A) (A) (A) (A) (A)
                 (A) (A) (A) (A) (A) (A) (A) (A) (A) (A) (A) (A)
    20 initial guesses have been made.
 Convergence on wavefunction:    0.001000000000000
 Davidson Disk Diagonalization:  ConvIn= 1.00D-03 SkipCon=T Conv= 1.00D-03.
 Max sub-space:  2000 roots to seek:    20 dimension of matrix:       549360
 Iteration     1 Dimension    20 NMult     0 NNew     20
 CISAX will form    20 AO SS matrices at one time.
 NMat=    20 NSing=    20 JSym2X= 0.
 FoFJK:  IHMeth= 1 ICntrl=       0 DoSepK=T KAlg= 0 I1Cent=           0 FoldK=F
 IRaf=         1 NMat=      40 IRICut=       1 DoRegI=T DoRafI=F ISym2E= 0 IDoP0=3 IntGTp=3.
 FoFCou: FMM=T IPFlag=           0 FMFlag=      100000 FMFlg1=        2001
         NFxFlg=           0 DoJE=F BraDBF=F KetDBF=F FulRan=T
         wScrn=  0.000000 ICntrl=       500 IOpCl=  0 I1Cent=           0 NGrid=           0
         NMat0=   20 NMatS0=     20 NMatT0=    0 NMatD0=   20 NMtDS0=    0 NMtDT0=    0
 Symmetry not used in FoFCou.
 FMM levels:  10  Number of levels for PrismC:   9
 New state      5 was old state      9
 Excitation Energies [eV] at current iteration:
 Root      1 :     1.507176321927818
 Root      2 :     1.964583073820964
 Root      3 :     1.975588014586468
 Root      4 :     2.606523485340962
 Root      5 :     2.658997484506460
 Root      6 :     2.702298083373948
 Root      7 :     2.756973648437247
[...]
 Alpha virt. eigenvalues --    1.84200   1.84309   1.84421   1.84581   1.84820
 Alpha virt. eigenvalues --    1.84884   1.85071   1.85366   1.85381   1.85609
 Alpha virt. eigenvalues --    1.85847   1.85997   1.86053   1.86127   1.86255
 Alpha virt. eigenvalues --    1.86567   1.86608   1.86921   1.87016   1.87136
 Alpha virt. eigenvalues --    1.87231   1.87341   1.87464   1.87602   1.87706
 Alpha virt. eigenvalues --    1.87884   1.88002   1.88325   1.88510   1.88727
 Alpha virt. eigenvalues --    1.88904   1.88976   1.89053   1.89146   1.89399
 Alpha virt. eigenvalues --    1.89608   1.89681   1.89879   1.89935   1.90171
 Alpha virt. eigenvalues --    1.90333   1.90817   1.90921   1.91145   1.91373
 Alpha virt. eigenvalues --    1.91439   1.91713   1.92189   1.92217   1.92369
 Alpha virt. eigenvalues --    1.92799   1.93061   1.93429   1.93559   1.93844
 Alpha virt. eigenvalues --    1.94037   1.94200   1.94511   1.94766   1.95217
 Alpha virt. eigenvalues --    1.95260   1.95549   1.95686   1.95922   1.96119
 Alpha virt. eigenvalues --    1.96335   1.96478   1.96604   1.97070   1.97181
 Alpha virt. eigenvalues --    1.97239   1.97472   1.97554   1.97851   1.98121
 Alpha virt. eigenvalues --    1.98323   1.98675   1.98700   1.99204   1.99287
 Alpha virt. eigenvalues --    1.99479   1.99590   1.99884   2.00474   2.00626
 Alpha virt. eigenvalues --    2.00807   2.01170   2.01466   2.01550   2.01929
 Alpha virt. eigenvalues --    2.02060   2.02377   2.02589   2.02846   2.02964
 Alpha virt. eigenvalues --    2.03097   2.03358   2.03636   2.03735   2.03894
 Alpha virt. eigenvalues --    2.04260   2.04597   2.04770   2.05015   2.05128
 Alpha virt. eigenvalues --    2.05587   2.05732   2.06145   2.06603   2.06718
 Alpha virt. eigenvalues --    2.06907   2.07351   2.07991   2.08230   2.08465
 Alpha virt. eigenvalues --    2.08901   2.09146   2.09363   2.09513   2.09908
 Alpha virt. eigenvalues --    2.10464   2.10717   2.11262   2.11381   2.11740
 Alpha virt. eigenvalues --    2.11822   2.12083   2.12257   2.12380   2.12549
 Alpha virt. eigenvalues --    2.12975   2.13185   2.13323   2.13434   2.13845
 Alpha virt. eigenvalues --    2.13905   2.14902   2.15083   2.15349   2.15648
 Alpha virt. eigenvalues --    2.16092   2.16235   2.16498   2.16692   2.16978
 Alpha virt. eigenvalues --    2.17116   2.17329   2.17943   2.17968   2.18351
 Alpha virt. eigenvalues --    2.18374   2.18485   2.18780   2.18953   2.19148
 Alpha virt. eigenvalues --    2.19449   2.19553   2.19742   2.19923   2.20487
 Alpha virt. eigenvalues --    2.20956   2.21084   2.21302   2.21330   2.21664
 Alpha virt. eigenvalues --    2.21944   2.22224   2.22479   2.22745   2.22781
 Alpha virt. eigenvalues --    2.23833   2.24010   2.24239   2.24486   2.25154
 Alpha virt. eigenvalues --    2.25794   2.25851   2.26188   2.26511   2.26755
 Alpha virt. eigenvalues --    2.27592   2.27658   2.27819   2.28423   2.28555
 Alpha virt. eigenvalues --    2.29216   2.29880   2.30145   2.30383   2.30645
 Alpha virt. eigenvalues --    2.30775   2.30963   2.31253   2.31865   2.32158
 Alpha virt. eigenvalues --    2.32569   2.32725   2.33038   2.33308   2.33615
 Alpha virt. eigenvalues --    2.34324   2.34492   2.35137   2.35343   2.35409
 Alpha virt. eigenvalues --    2.35865   2.36075   2.36605   2.37108   2.37294
 Alpha virt. eigenvalues --    2.37481   2.37857   2.37910   2.38469   2.38581
 Alpha virt. eigenvalues --    2.38979   2.39274   2.39886   2.40060   2.40366
 Alpha virt. eigenvalues --    2.40759   2.40918   2.41125   2.41699   2.41998
 Alpha virt. eigenvalues --    2.42077   2.42470   2.42921   2.43081   2.43250
 Alpha virt. eigenvalues --    2.43575   2.43788   2.44117   2.44241   2.44542
 Alpha virt. eigenvalues --    2.44917   2.45397   2.45697   2.45847   2.45924
 Alpha virt. eigenvalues --    2.46295   2.46406   2.46501   2.46705   2.47057
 Alpha virt. eigenvalues --    2.47255   2.47550   2.47834   2.48186   2.48470
 Alpha virt. eigenvalues --    2.48610   2.49698   2.49748   2.50242   2.50708
 Alpha virt. eigenvalues --    2.50964   2.51183   2.51464   2.51905   2.52181
 Alpha virt. eigenvalues --    2.52480   2.52677   2.53044   2.53132   2.53493
 Alpha virt. eigenvalues --    2.54416   2.54707   2.54912   2.55060   2.55193
 Alpha virt. eigenvalues --    2.55664   2.56630   2.57222   2.57867   2.58970
 Alpha virt. eigenvalues --    2.59180   2.59841   2.60019   2.60392   2.60991
 Alpha virt. eigenvalues --    2.61676   2.61846   2.62109   2.62317   2.62855
 Alpha virt. eigenvalues --    2.63016   2.63555   2.63792   2.64090   2.64616
 Alpha virt. eigenvalues --    2.65263   2.65354   2.65536   2.65802   2.66567
 Alpha virt. eigenvalues --    2.66774   2.67008   2.67454   2.67787   2.67994
 Alpha virt. eigenvalues --    2.68276   2.68605   2.68650   2.68933   2.69749
 Alpha virt. eigenvalues --    2.69858   2.70398   2.70904   2.71081   2.71269
 Alpha virt. eigenvalues --    2.71354   2.72153   2.72477   2.72601   2.72727
 Alpha virt. eigenvalues --    2.73157   2.73342   2.73686   2.73885   2.74137
 Alpha virt. eigenvalues --    2.74333   2.74421   2.75025   2.75474   2.76450
 Alpha virt. eigenvalues --    2.76600   2.76850   2.76881   2.77522   2.77614
 Alpha virt. eigenvalues --    2.77859   2.78268   2.78557   2.78662   2.79351
 Alpha virt. eigenvalues --    2.79694   2.79756   2.80260   2.80571   2.80650
 Alpha virt. eigenvalues --    2.81038   2.81262   2.81435   2.81731   2.82081
 Alpha virt. eigenvalues --    2.82693   2.83150   2.83328   2.83441   2.83900
 Alpha virt. eigenvalues --    2.84054   2.84625   2.84752   2.85008   2.85447
 Alpha virt. eigenvalues --    2.85764   2.86163   2.86609   2.87048   2.87480
 Alpha virt. eigenvalues --    2.87632   2.87857   2.88062   2.88520   2.89138
 Alpha virt. eigenvalues --    2.89614   2.89789   2.89931   2.90532   2.91738
 Alpha virt. eigenvalues --    2.92358   2.92703   2.93542   2.93941   2.94488
 Alpha virt. eigenvalues --    2.94581   2.94950   2.95415   2.95707   2.96084
 Alpha virt. eigenvalues --    2.96321   2.96568   2.96925   2.97227   2.97455
 Alpha virt. eigenvalues --    2.97732   2.97848   2.98127   2.98291   2.98720
 Alpha virt. eigenvalues --    2.98861   2.99488   2.99523   2.99847   2.99912
 Alpha virt. eigenvalues --    3.00005   3.00042   3.00174   3.00586   3.00771
 Alpha virt. eigenvalues --    3.01189   3.01303   3.01555   3.02223   3.02472
 Alpha virt. eigenvalues --    3.02483   3.02781   3.03050   3.03311   3.03373
 Alpha virt. eigenvalues --    3.03718   3.03947   3.04071   3.04398   3.04577
 Alpha virt. eigenvalues --    3.04901   3.05334   3.05508   3.05746   3.06003
 Alpha virt. eigenvalues --    3.06291   3.06484   3.07120   3.07739   3.08071
 Alpha virt. eigenvalues --    3.08610   3.09033   3.09260   3.09846   3.10118
 Alpha virt. eigenvalues --    3.10194   3.10834   3.11510   3.11716   3.12234
 Alpha virt. eigenvalues --    3.12567   3.12711   3.12849   3.13453   3.13726
 Alpha virt. eigenvalues --    3.13880   3.14462   3.14888   3.16450   3.16670
 Alpha virt. eigenvalues --    3.16816   3.17164   3.17571   3.18422   3.18614
 Alpha virt. eigenvalues --    3.18679   3.19931   3.22067   3.22432   3.23023
 Alpha virt. eigenvalues --    3.23377   3.23779   3.24372   3.25340   3.25940
 Alpha virt. eigenvalues --    3.25986   3.27002   3.27687   3.28562   3.28942
 Alpha virt. eigenvalues --    3.29675   3.30965   3.32406   3.32785   3.34322
 Alpha virt. eigenvalues --    3.40351   3.40549   3.42235   3.43756   3.48215
 Alpha virt. eigenvalues --    3.49336   3.49598   3.50842   3.51351   3.52105
 Alpha virt. eigenvalues --    3.55892   3.57961   3.58190   3.60291   3.62322
 Alpha virt. eigenvalues --    3.63413   3.65630   3.66852   3.67057   3.67842
 Alpha virt. eigenvalues --    3.73108   3.74498   3.75864   3.77280   4.05306
          Condensed to atoms (all electrons):
 Mulliken charges:
               1
     1  Mg   0.847255
     2  C    0.000975
     3  C   -0.090758
     4  C   -0.045987
     5  C   -0.066977
     6  N   -0.255848
     7  C   -0.051111
     8  C   -0.014329
     9  C   -0.087556
    10  C    0.046869
    11  C    0.104412
    12  C    0.052979
    13  C   -0.072947
    14  H    0.039298
    15  N   -0.433391
    16  C    0.168977
    17  C   -0.175127
    18  C   -0.003365
    19  C    0.150389
    20  C    0.109671
    21  C    0.014141
    22  O   -0.249828
    23  C    0.061788
    24  N   -0.336507
    25  C    0.038418
    26  C   -0.037509
    27  C   -0.026800
    28  C    0.057069
    29  C    0.076278
    30  C    0.088480
    31  C    0.522430
    32  N   -0.312154
    33  C    0.086071
    34  C   -0.162231
    35  C    0.010896
    36  C    0.087228
    37  C    0.126586
    38  C    0.050491
    39  O   -0.184024
    40  C   -0.007333
    41  C    0.212920
    42  O   -0.251943
    43  O   -0.305671
    44  C    0.157035
    45  H   -0.015169
    46  H   -0.017496
    47  H   -0.047261
    48  H    0.002384
    49  H   -0.002087
    50  H    0.026326
    51  H    0.015744
    52  H    0.018372
    53  H    0.012135
    54  H    0.046706
    55  H    0.017751
    56  H    0.018526
    57  H    0.007440
    58  H    0.028026
    59  H    0.041908
    60  H    0.038185
    61  H    0.036820
    62  H    0.032723
    63  H    0.019471
    64  H    0.017832
    65  H    0.026825
    66  H    0.019460
    67  H    0.007855
    68  H    0.021651
    69  H    0.013461
    70  H    0.194469
    71  H    0.199902
    72  H    0.101668
    73  H    0.055295
    74  H    0.003243
    75  H    0.046713
    76  H    0.036106
    77  H    0.043573
    78  H    0.046207
    79  H    0.055931
    80  Mg   0.832756
    81  C   -0.019896
    82  C   -0.088098
    83  C   -0.048000
    84  C   -0.067661
    85  N   -0.259229
    86  C   -0.043247
    87  C    0.005493
    88  C   -0.082160
    89  C    0.049710
    90  C    0.117127
    91  C    0.140979
    92  C   -0.244271
    93  H   -0.697110
    94  N   -0.422736
    95  C    0.162211
    96  C   -0.176580
    97  C   -0.010577
    98  C    0.151578
    99  C    0.100130
   100  C    0.013020
   101  O   -0.256240
   102  C    0.062718
   103  N   -0.350366
   104  C    0.036751
   105  C   -0.018978
   106  C   -0.034324
   107  C    0.088888
   108  C    0.074679
   109  C    0.035469
   110  C   -0.007094
   111  N   -0.324188
   112  C    0.079396
   113  C   -0.163754
   114  C    0.001292
   115  C    0.097760
   116  C    0.131527
   117  C    0.042001
   118  O   -0.192646
   119  C    0.000435
   120  C    0.217943
   121  O   -0.248865
   122  O   -0.301846
   123  C    0.177644
   124  H   -0.020768
   125  H   -0.018969
   126  H   -0.043530
   127  H   -0.014708
   128  H   -0.002165
   129  H    0.016703
   130  H    0.006181
   131  H    0.012101
   132  H   -0.015085
   133  H   -0.020299
   134  H   -0.052364
   135  H   -0.055243
   136  H    0.010633
   137  H    0.023337
   138  H    0.034733
   139  H    0.037837
   140  H    0.032860
   141  H    0.030705
   142  H    0.011892
   143  H    0.010494
   144  H    0.022488
   145  H    0.011415
   146  H    0.003828
   147  H    0.003663
   148  H    0.002513
   149  H    0.008976
   150  H    0.015772
   151  H    0.032330
   152  H    0.045170
   153  H    0.007067
   154  H    0.044809
   155  H    0.034610
   156  H    0.045422
   157  H    0.010819
   158  H    0.055188
 Sum of Mulliken charges =  -0.00000
 Mulliken charges with hydrogens summed into heavy atoms:
               1
     1  Mg   0.847255
     2  C    0.000975
     3  C   -0.105928
     4  C   -0.063483
     5  C   -0.114238
     6  N   -0.255848
     7  C   -0.051111
     8  C   -0.011945
     9  C   -0.089643
    10  C    0.046869
    11  C    0.164854
    12  C    0.111820
    13  C    0.002628
    15  N   -0.433391
    16  C    0.168977
    17  C   -0.175127
    18  C   -0.003365
    19  C    0.150389
    20  C    0.187045
    21  C    0.014141
    22  O   -0.249828
    23  C    0.169515
    24  N   -0.336507
    25  C    0.038418
    26  C   -0.018039
    27  C   -0.008968
    28  C    0.057069
    29  C    0.130418
    30  C    0.123591
    31  C    0.321359
    32  N   -0.312154
    33  C    0.086071
    34  C   -0.162231
    35  C    0.010896
    36  C    0.087228
    37  C    0.231836
    38  C    0.050491
    39  O   -0.184024
    40  C    0.028773
    41  C    0.212920
    42  O   -0.251943
    43  O   -0.305671
    44  C    0.302747
    80  Mg   0.832756
    81  C   -0.019896
    82  C   -0.108866
    83  C   -0.066969
    84  C   -0.111192
    85  N   -0.259229
    86  C   -0.043247
    87  C   -0.009216
    88  C   -0.084325
    89  C    0.049710
    90  C    0.152111
    91  C    0.105594
    92  C   -0.351878
    94  N   -0.422736
    95  C    0.162211
    96  C   -0.176580
    97  C   -0.010577
    98  C    0.151578
    99  C    0.168832
   100  C    0.013020
   101  O   -0.256240
   102  C    0.164120
   103  N   -0.350366
   104  C    0.036751
   105  C   -0.007086
   106  C   -0.023829
   107  C    0.088888
   108  C    0.112410
   109  C    0.041645
   110  C    0.049984
   111  N   -0.324188
   112  C    0.079396
   113  C   -0.163754
   114  C    0.001292
   115  C    0.097760
   116  C    0.228573
   117  C    0.042001
   118  O   -0.192646
   119  C    0.035045
   120  C    0.217943
   121  O   -0.248865
   122  O   -0.301846
   123  C    0.289072
 Electronic spatial extent (au):  <R**2>=          95484.6129
 Charge=              0.0000 electrons
 Dipole moment (field-independent basis, Debye):
    X=              7.3998    Y=              5.6626    Z=             -2.2094  Tot=              9.5762
 Quadrupole moment (field-independent basis, Debye-Ang):
   XX=           -488.9949   YY=           -531.8774   ZZ=           -467.1978
   XY=             23.7215   XZ=             -4.3921   YZ=             19.8564
 Traceless Quadrupole moment (field-independent basis, Debye-Ang):
   XX=              7.0285   YY=            -35.8540   ZZ=             28.8256
   XY=             23.7215   XZ=             -4.3921   YZ=             19.8564
 Octapole moment (field-independent basis, Debye-Ang**2):
  XXX=            162.6795  YYY=            119.5900  ZZZ=             69.6314  XYY=           -167.5698
  XXY=           -100.5327  XXZ=             40.5301  XZZ=            434.2625  YZZ=            -10.9511
  YYZ=           -280.3303  XYZ=           -129.1946
 Hexadecapole moment (field-independent basis, Debye-Ang**3):
 XXXX=         -68259.8722 YYYY=         -33163.1609 ZZZZ=         -28616.7368 XXXY=           1577.0981
 XXXZ=           -776.0571 YYYX=           -120.0413 YYYZ=            168.3125 ZZZX=           -111.8594
 ZZZY=            646.1482 XXYY=         -16940.1098 XXZZ=         -15787.4925 YYZZ=          -9907.8113
 XXYZ=            691.6666 YYXZ=           -278.7742 ZZXY=            236.2886
 N-N= 1.571379775323D+04 E-N=-4.090968139629D+04  KE= 4.029921261589D+03
 Leave Link  601 at Thu Sep  9 19:41:24 2021, MaxMem= 23488102400 cpu:              18.8 elap:               0.9
 (Enter /sw/apps/gaussian-16.0/g16/l9999.exe)
 1\1\GINC-BP1-COMPUTE00100\SP\RCAM-B3LYP TD-FC\def2SVP\C68H72Mg2N8O8\OF
 15641\09-Sep-2021\0\\#p cam-b3lyp/Def2SVP td=(nstates=5)\\TDDFT excite
 d states in gaussian\\0,1\Mg,0,0.,0.,0.\C,0,-0.217,-2.218,2.801\C,0,-1
 .255,2.442,2.026\C,0,-0.245,1.85,-2.564\C,0,0.146,-2.824,-2.037\N,0,-0
 .617,-0.009,2.126\C,0,-0.594,-0.908,3.105\C,0,-0.936,-0.309,4.502\C,0,
 -1.773,0.964,4.032\C,0,-1.155,1.168,2.66\C,0,-3.263,0.685,3.863\C,0,0.
 345,0.11,5.299\C,0,0.124,0.397,6.787\H,0,1.168,0.033,7.733\N,0,-0.185,
 1.961,-0.152\C,0,-0.703,2.8,0.777\C,0,-0.62,4.156,0.193\C,0,-0.187,4.0
 15,-1.225\C,0,-0.214,2.583,-1.38\C,0,-0.887,5.406,0.974\C,0,0.181,5.01
 3,-2.277\O,0,0.303,4.69,-3.508\C,0,0.31,6.414,-1.837\N,0,-0.265,-0.413
 ,-2.029\C,0,-0.279,0.569,-2.937\C,0,-0.196,0.024,-4.332\C,0,0.124,-1.5
 33,-4.18\C,0,0.086,-1.632,-2.635\C,0,-1.451,0.205,-5.197\C,0,1.373,-2.
 07,-4.923\C,0,2.626,-1.49,-4.306\N,0,0.15,-2.144,0.303\C,0,0.173,-3.13
 6,-0.688\C,0,0.173,-4.438,0.004\C,0,0.133,-4.111,1.358\C,0,0.083,-2.69
 5,1.502\C,0,0.149,-5.715,-0.623\C,0,0.096,-4.629,2.716\O,0,0.208,-5.74
 7,3.221\C,0,-0.255,-3.428,3.701\C,0,0.717,-3.482,4.848\O,0,1.931,-3.25
 5,4.669\O,0,0.038,-3.556,6.003\C,0,0.943,-3.583,7.183\H,0,-1.859,3.22,
 2.497\H,0,-0.218,2.453,-3.474\H,0,0.276,-3.747,-2.605\H,0,-1.554,-0.94
 9,5.132\H,0,-1.585,1.831,4.665\H,0,-3.484,-0.377,3.969\H,0,-3.511,1.02
 7,2.858\H,0,-3.852,1.301,4.543\H,0,0.669,1.096,4.966\H,0,1.13,-0.639,5
 .189\H,0,-0.844,0.026,7.125\H,0,0.062,1.477,6.921\H,0,-1.344,5.186,1.9
 38\H,0,-1.651,5.963,0.432\H,0,0.007,6.02,1.084\H,0,-0.635,6.744,-1.405
 \H,0,0.665,6.97,-2.704\H,0,1.048,6.466,-1.036\H,0,0.608,0.501,-4.891\H
 ,0,-0.692,-2.156,-4.547\H,0,-1.267,0.74,-6.129\H,0,-2.204,0.714,-4.596
 \H,0,-1.967,-0.72,-5.453\H,0,1.356,-1.759,-5.967\H,0,1.452,-3.157,-4.9
 02\H,0,2.714,-0.522,-4.798\H,0,3.487,-2.121,-4.529\H,0,2.495,-1.303,-3
 .24\H,0,0.867,-6.333,-0.084\H,0,0.404,-5.642,-1.68\H,0,-0.891,-5.999,-
 0.463\H,0,-1.283,-3.581,4.028\H,0,0.698,-4.478,7.755\H,0,0.833,-2.619,
 7.68\H,0,2.,-3.754,6.976\Mg,0,8.92415,0.8069,0.67664\C,0,7.8884,-2.011
 5,-1.28878\C,0,8.17531,2.76762,-2.01212\C,0,10.24648,3.24751,2.21362\C
 ,0,10.62947,-1.4305,2.73373\N,0,8.13942,0.32387,-1.33412\C,0,7.72452,-
 0.77471,-1.94675\C,0,7.0252,-0.52582,-3.31004\C,0,7.68968,0.8922,-3.66
 581\C,0,7.99209,1.38221,-2.2512\C,0,9.00341,0.769,-4.41966\C,0,5.4666,
 -0.41086,-3.17013\C,0,4.69581,-0.47681,-4.49047\H,0,3.39358,-1.13749,-
 4.50395\N,0,8.7355,2.76115,0.38696\C,0,8.40248,3.38497,-0.76248\C,0,8.
 41923,4.82425,-0.45856\C,0,8.94961,5.00645,0.91992\C,0,9.35956,3.65059
 ,1.22597\C,0,7.88613,5.86169,-1.40352\C,0,9.07961,6.20528,1.80992\O,0,
 9.7881,6.17754,2.87768\C,0,8.42938,7.43964,1.3462\N,0,10.41644,0.92273
 ,2.11955\C,0,10.76559,2.10348,2.65977\C,0,11.65631,1.91039,3.86381\C,0
 ,11.63605,0.34004,4.16579\C,0,10.77049,-0.1349,2.97809\C,0,13.1024,2.3
 7892,3.7035\C,0,11.22685,-0.09571,5.59944\C,0,9.76975,0.22683,5.84075\
 N,0,9.07501,-1.34141,0.85003\C,0,9.86612,-2.06983,1.76526\C,0,9.72562,
 -3.49947,1.42059\C,0,8.87401,-3.50199,0.30559\C,0,8.52564,-2.16676,-0.
 03396\C,0,10.37944,-4.58117,2.07526\C,0,8.19905,-4.32991,-0.66789\O,0,
 8.05318,-5.54128,-0.82617\C,0,7.63221,-3.39418,-1.82093\C,0,6.20504,-3
 .79121,-2.08183\O,0,5.33397,-3.62788,-1.20938\O,0,6.06302,-4.09357,-3.
 3852\C,0,4.6616,-4.48293,-3.69543\H,0,8.18852,3.44434,-2.86697\H,0,10.
 64465,4.04584,2.84418\H,0,11.05111,-2.19711,3.38733\H,0,7.26057,-1.250
 44,-4.0803\H,0,6.97626,1.55151,-4.15335\H,0,9.33378,-0.2568,-4.48845\H
 ,0,9.7186,1.36029,-3.86294\H,0,8.92024,1.24287,-5.40193\H,0,5.20973,0.
 60815,-2.85331\H,0,5.08902,-1.15293,-2.49383\H,0,5.32054,-0.84195,-5.3
 1468\H,0,4.42818,0.54021,-4.78722\H,0,7.71496,5.44479,-2.40367\H,0,8.6
 8183,6.60019,-1.54961\H,0,7.00004,6.36891,-1.0159\H,0,8.83244,7.7173,0
 .37517\H,0,8.55677,8.15945,2.15708\H,0,7.36243,7.23873,1.1983\H,0,11.2
 6377,2.43874,4.72396\H,0,12.62917,-0.11345,4.03203\H,0,13.40707,3.1226
 6,4.46384\H,0,13.22178,2.78306,2.70703\H,0,13.84923,1.58704,3.72265\H,
 0,11.79654,0.46669,6.3433\H,0,11.39433,-1.14962,5.79489\H,0,9.79503,1.
 28198,6.12905\H,0,9.36797,-0.39146,6.64096\H,0,9.19126,0.15248,4.9126\
 H,0,9.64018,-5.36082,2.20228\H,0,10.80051,-4.27217,3.02972\H,0,11.1549
 ,-4.81378,1.34054\H,0,8.26378,-3.53669,-2.69865\H,0,4.7006,-5.47238,-4
 .16143\H,0,4.24931,-3.65575,-4.30333\H,0,3.99641,-4.66857,-2.86026\\Ve
 rsion=ES64L-G16RevA.03\State=1-A\HF=-4069.5036699\RMSD=2.011e-09\PG=C0
 1 [X(C68H72Mg2N8O8)]\\@


 EVERYTHING'S GOT A MORAL, IF ONLY YOU CAN FIND IT.

                                    -- LEWIS CARROL, ALICE IN WONDERLAND
 Job cpu time:       0 days 19 hours  5 minutes 10.7 seconds.
 Elapsed time:       0 days  0 hours 48 minutes 32.6 seconds.
 File lengths (MBytes):  RWF=  13225 Int=      0 D2E=      0 Chk=    574 Scr=      1
 Normal termination of Gaussian 16 at Thu Sep  9 19:41:25 2021.
