 Entering Gaussian System, Link 0=g16
 Initial command:
 /sw/apps/gaussian-16.0/g16/l1.exe "/tmp/Gau-122807.inp" -scrdir="/tmp/"
 Entering Link 1 = /sw/apps/gaussian-16.0/g16/l1.exe PID=    122808.
  
 Copyright (c) 1988,1990,1992,1993,1995,1998,2003,2009,2016,
            Gaussian, Inc.  All Rights Reserved.
  
 This is part of the Gaussian(R) 16 program.  It is based on
 the Gaussian(R) 09 system (copyright 2009, Gaussian, Inc.),
 the Gaussian(R) 03 system (copyright 2003, Gaussian, Inc.),
 the Gaussian(R) 98 system (copyright 1998, Gaussian, Inc.),
 the Gaussian(R) 94 system (copyright 1995, Gaussian, Inc.),
 the Gaussian 92(TM) system (copyright 1992, Gaussian, Inc.),
 the Gaussian 90(TM) system (copyright 1990, Gaussian, Inc.),
 the Gaussian 88(TM) system (copyright 1988, Gaussian, Inc.),
 the Gaussian 86(TM) system (copyright 1986, Carnegie Mellon
 University), and the Gaussian 82(TM) system (copyright 1983,
 Carnegie Mellon University). Gaussian is a federally registered
 trademark of Gaussian, Inc.
  
 This software contains proprietary and confidential information,
 including trade secrets, belonging to Gaussian, Inc.
  
 This software is provided under written license and may be
 used, copied, transmitted, or stored only in accord with that
 written license.
  
 The following legend is applicable only to US Government
 contracts under FAR:
  
                    RESTRICTED RIGHTS LEGEND
  
 Use, reproduction and disclosure by the US Government is
 subject to restrictions as set forth in subparagraphs (a)
 and (c) of the Commercial Computer Software - Restricted
 Rights clause in FAR 52.227-19.
  
 Gaussian, Inc.
 340 Quinnipiac St., Bldg. 40, Wallingford CT 06492
  
  
 ---------------------------------------------------------------
 Warning -- This program may not be used in any manner that
 competes with the business of Gaussian, Inc. or will provide
 assistance to any competitor of Gaussian, Inc.  The licensee
 of this program is prohibited from giving any competitor of
 Gaussian, Inc. access to this program.  By using this program,
 the user acknowledges that Gaussian, Inc. is engaged in the
 business of creating and licensing software in the field of
 computational chemistry and represents and warrants to the
 licensee that it is not a competitor of Gaussian, Inc. and that
 it will not use this program in any manner prohibited above.
 ---------------------------------------------------------------
  

 Cite this work as:
 Gaussian 16, Revision A.03,
 M. J. Frisch, G. W. Trucks, H. B. Schlegel, G. E. Scuseria, 
 M. A. Robb, J. R. Cheeseman, G. Scalmani, V. Barone, 
 G. A. Petersson, H. Nakatsuji, X. Li, M. Caricato, A. V. Marenich, 
 J. Bloino, B. G. Janesko, R. Gomperts, B. Mennucci, H. P. Hratchian, 
 J. V. Ortiz, A. F. Izmaylov, J. L. Sonnenberg, D. Williams-Young, 
 F. Ding, F. Lipparini, F. Egidi, J. Goings, B. Peng, A. Petrone, 
 T. Henderson, D. Ranasinghe, V. G. Zakrzewski, J. Gao, N. Rega, 
 G. Zheng, W. Liang, M. Hada, M. Ehara, K. Toyota, R. Fukuda, 
 J. Hasegawa, M. Ishida, T. Nakajima, Y. Honda, O. Kitao, H. Nakai, 
 T. Vreven, K. Throssell, J. A. Montgomery, Jr., J. E. Peralta, 
 F. Ogliaro, M. J. Bearpark, J. J. Heyd, E. N. Brothers, K. N. Kudin, 
 V. N. Staroverov, T. A. Keith, R. Kobayashi, J. Normand, 
 K. Raghavachari, A. P. Rendell, J. C. Burant, S. S. Iyengar, 
 J. Tomasi, M. Cossi, J. M. Millam, M. Klene, C. Adamo, R. Cammi, 
 J. W. Ochterski, R. L. Martin, K. Morokuma, O. Farkas, 
 J. B. Foresman, and D. J. Fox, Gaussian, Inc., Wallingford CT, 2016.
 
 ******************************************
 Gaussian 16:  ES64L-G16RevA.03 25-Dec-2016
                 4-Sep-2021 
 ******************************************
 %nproc=24
 Will use up to   24 processors via shared memory.
 %mem=175gb
 -----------------------------------
 #p cam-b3lyp/Def2SVP td=(nstates=5)
 -----------------------------------
 1/38=1,172=1/1;
 2/12=2,17=6,18=5,40=1/2;
 3/5=43,7=101,11=9,25=1,30=1,74=-40/1,2,3,8;
 4//1;
 5/5=2,38=5/2;
 8/6=1,10=1,108=5/1;
 9/41=5,42=1,70=2/14;
 6/7=2,8=2,9=2,10=2/1;
 99/5=1,9=1/99;
 Leave Link    1 at Sat Sep  4 07:19:36 2021, MaxMem= 23488102400 cpu:               0.9 elap:               0.0
 (Enter /sw/apps/gaussian-16.0/g16/l101.exe)
 --------------------------------
 TDDFT excited states in gaussian
 --------------------------------
 Symbolic Z-matrix:
 Charge =  0 Multiplicity = 1
 Mg                    0.        0.        0. 
 C                    -0.217    -2.218     2.801 
 C                    -1.255     2.442     2.026 
 C                    -0.245     1.85     -2.564 
 C                     0.146    -2.824    -2.037 
 N                    -0.617    -0.009     2.126 
 C                    -0.594    -0.908     3.105 
 C                    -0.936    -0.309     4.502 
 C                    -1.773     0.964     4.032 
 C                    -1.155     1.168     2.66 
 C                    -3.263     0.685     3.863 
 C                     0.345     0.11      5.299 
 C                     0.124     0.397     6.787 
 H                     1.168     0.033     7.733 
 N                    -0.185     1.961    -0.152 
 C                    -0.703     2.8       0.777 
 C                    -0.62      4.156     0.193 
 C                    -0.187     4.015    -1.225 
 C                    -0.214     2.583    -1.38 
 C                    -0.887     5.406     0.974 
 C                     0.181     5.013    -2.277 
 O                     0.303     4.69     -3.508 
 C                     0.31      6.414    -1.837 
 N                    -0.265    -0.413    -2.029 
 C                    -0.279     0.569    -2.937 
 C                    -0.196     0.024    -4.332 
 C                     0.124    -1.533    -4.18 
 C                     0.086    -1.632    -2.635 
 C                    -1.451     0.205    -5.197 
 C                     1.373    -2.07     -4.923 
 C                     2.626    -1.49     -4.306 
 N                     0.15     -2.144     0.303 
 C                     0.173    -3.136    -0.688 
 C                     0.173    -4.438     0.004 
 C                     0.133    -4.111     1.358 
 C                     0.083    -2.695     1.502 
 C                     0.149    -5.715    -0.623 
 C                     0.096    -4.629     2.716 
 O                     0.208    -5.747     3.221 
 C                    -0.255    -3.428     3.701 
 C                     0.717    -3.482     4.848 
 O                     1.931    -3.255     4.669 
 O                     0.038    -3.556     6.003 
 C                     0.943    -3.583     7.183 
 H                    -1.859     3.22      2.497 
 H                    -0.218     2.453    -3.474 
 H                     0.276    -3.747    -2.605 
 H                    -1.554    -0.949     5.132 
 H                    -1.585     1.831     4.665 
 H                    -3.484    -0.377     3.969 
 H                    -3.511     1.027     2.858 
 H                    -3.852     1.301     4.543 
 H                     0.669     1.096     4.966 
 H                     1.13     -0.639     5.189 
 H                    -0.844     0.026     7.125 
 H                     0.062     1.477     6.921 
 H                    -1.344     5.186     1.938 
 H                    -1.651     5.963     0.432 
 H                     0.007     6.02      1.084 
 H                    -0.635     6.744    -1.405 
 H                     0.665     6.97     -2.704 
 H                     1.048     6.466    -1.036 
 H                     0.608     0.501    -4.891 
 H                    -0.692    -2.156    -4.547 
 H                    -1.267     0.74     -6.129 
 H                    -2.204     0.714    -4.596 
 H                    -1.967    -0.72     -5.453 
 H                     1.356    -1.759    -5.967 
 H                     1.452    -3.157    -4.902 
 H                     2.714    -0.522    -4.798 
 H                     3.487    -2.121    -4.529 
 H                     2.495    -1.303    -3.24 
 H                     0.867    -6.333    -0.084 
 H                     0.404    -5.642    -1.68 
 H                    -0.891    -5.999    -0.463 
 H                    -1.283    -3.581     4.028 
 H                     0.698    -4.478     7.755 
 H                     0.833    -2.619     7.68 
 H                     2.       -3.754     6.976 
 Mg                    13.14666   1.17701   0.99447 
 C                     13.12461   2.05283  -2.48569 
 C                     12.6275  -2.05368   0.03127 
 C                     12.71191   0.44037   4.04992 
 C                     12.52188   4.53221   1.70012 
 N                     12.92302   0.24506  -0.99895 
 C                     12.99412   0.66796  -2.25212 
 C                     13.00196  -0.46457  -3.31367 
 C                     12.27436  -1.60738  -2.45144 
 C                     12.65678  -1.13674  -1.04968 
 C                     10.75954  -1.57711  -2.56874 
 C                     14.45573  -0.89105  -3.72196 
 C                     14.54102  -1.76954  -4.97205 
 H                     15.68261  -1.59842  -5.86645 
 N                     13.21866  -0.5798    1.9148 
 C                     13.0043  -1.79458   1.36739 
 C                     13.15372  -2.76254   2.46507 
 C                     13.31108  -2.00771   3.73793 
 C                     13.06034  -0.65714   3.27622 
 C                     13.21801  -4.24522   2.23938 
 C                     13.6216  -2.43271   5.1412 
 O                     13.47531  -1.63554   6.13415 
 C                     14.01247  -3.83744   5.32945 
 N                     12.47542   2.27441   2.62771 
 C                     12.43146   1.72919   3.85601 
 C                     12.1818   2.78053   4.91088 
 C                     12.30845   4.18485   4.15626 
 C                     12.53095   3.67814   2.71434 
 C                     10.82961   2.70398   5.61947 
 C                     13.31642   5.21071   4.74301 
 C                     14.72965   4.70253   4.57 
 N                     13.05193   3.01348  -0.13974 
 C                     12.74998   4.30338   0.3492 
 C                     12.69243   5.20854  -0.81691 
 C                     12.94416   4.37145  -1.91436 
 C                     13.12446   3.03508  -1.46592 
 C                     12.38791   6.59843  -0.7769 
 C                     13.08782   4.31259  -3.35123 
 O                     13.12373   5.14607  -4.25552 
 C                     13.08574   2.78698  -3.79722 
 C                     14.23099   2.58008  -4.75017 
 O                     15.4062   2.70045  -4.36158 
 O                     13.7597   2.06451  -5.90015 
 C                     14.85974   1.8312   -6.87344 
 H                     12.23961  -3.05656  -0.14946 
 H                     12.65839   0.26065   5.12617 
 H                     12.42941   5.61058   1.84586 
 H                     12.42912  -0.25246  -4.20845 
 H                     12.70021  -2.5866   -2.65429 
 H                     10.41536  -0.71528  -3.12094 
 H                     10.38635  -1.54962  -1.55335 
 H                     10.39589  -2.51501  -2.9982 
 H                     14.84704  -1.59153  -2.973 
 H                     15.08581  -0.03112  -3.84094 
 H                     13.60344  -1.76875  -5.54116 
 H                     14.66305  -2.80902  -4.65802 
 H                     12.90837  -4.5109    1.22108 
 H                     12.45643  -4.69983   2.88217 
 H                     14.19255  -4.66799   2.49277 
 H                     13.21731  -4.48511   4.96792 
 H                     14.28061  -3.92737   6.38391 
 H                     14.89183  -4.04211   4.7086 
 H                     12.9319   2.73172   5.69067 
 H                     11.35492   4.73313   4.15304 
 H                     10.91734   2.61419   6.7187 
 H                     10.27784   1.86708   5.21241 
 H                     10.15874   3.53919   5.42569 
 H                     13.15732   5.32558   5.81802 
 H                     13.23686   6.19714   4.29847 
 H                     14.85737   4.0324    5.4254 
 H                     15.43983   5.52624   4.60442 
 H                     14.82173   4.09744   3.66059 
 H                     13.08981   7.09007  -1.4373 
 H                     12.45226   6.99054   0.23596 
 H                     11.35918   6.58343  -1.14668 
 H                     12.12182   2.58384  -4.26537 
 H                     14.5952   2.36851  -7.78941 
 H                     14.96576   0.7325   -6.94673 
 H                     15.82828   2.26187  -6.64785 
 
 ITRead=  0  0  0  0  0  0  0  0  0  0  0  0  0  0  0  0  0  0  0  0
 ITRead=  0  0  0  0  0  0  0  0  0  0  0  0  0  0  0  0  0  0  0  0
 ITRead=  0  0  0  0  0  0  0  0  0  0  0  0  0  0  0  0  0  0  0  0
 ITRead=  0  0  0  0  0  0  0  0  0  0  0  0  0  0  0  0  0  0  0  0
 ITRead=  0  0  0  0  0  0  0  0  0  0  0  0  0  0  0  0  0  0  0  0
 ITRead=  0  0  0  0  0  0  0  0  0  0  0  0  0  0  0  0  0  0  0  0
 ITRead=  0  0  0  0  0  0  0  0  0  0  0  0  0  0  0  0  0  0  0  0
 ITRead=  0  0  0  0  0  0  0  0  0  0  0  0  0  0  0  0  0  0
 MicOpt= -1 -1 -1 -1 -1 -1 -1 -1 -1 -1 -1 -1 -1 -1 -1 -1 -1 -1 -1 -1
 MicOpt= -1 -1 -1 -1 -1 -1 -1 -1 -1 -1 -1 -1 -1 -1 -1 -1 -1 -1 -1 -1
 MicOpt= -1 -1 -1 -1 -1 -1 -1 -1 -1 -1 -1 -1 -1 -1 -1 -1 -1 -1 -1 -1
 MicOpt= -1 -1 -1 -1 -1 -1 -1 -1 -1 -1 -1 -1 -1 -1 -1 -1 -1 -1 -1 -1
 MicOpt= -1 -1 -1 -1 -1 -1 -1 -1 -1 -1 -1 -1 -1 -1 -1 -1 -1 -1 -1 -1
 MicOpt= -1 -1 -1 -1 -1 -1 -1 -1 -1 -1 -1 -1 -1 -1 -1 -1 -1 -1 -1 -1
 MicOpt= -1 -1 -1 -1 -1 -1 -1 -1 -1 -1 -1 -1 -1 -1 -1 -1 -1 -1 -1 -1
 MicOpt= -1 -1 -1 -1 -1 -1 -1 -1 -1 -1 -1 -1 -1 -1 -1 -1 -1 -1
 NAtoms=    158 NQM=      158 NQMF=       0 NMMI=      0 NMMIF=      0
                NMic=       0 NMicF=      0.
                    Isotopes and Nuclear Properties:
 (Nuclear quadrupole moments (NQMom) in fm**2, nuclear magnetic moments (NMagM)
  in nuclear magnetons)

  Atom         1           2           3           4           5           6           7           8           9          10
 IAtWgt=          24          12          12          12          12          14          12          12          12          12
 AtmWgt=  23.9850450  12.0000000  12.0000000  12.0000000  12.0000000  14.0030740  12.0000000  12.0000000  12.0000000  12.0000000
 NucSpn=           0           0           0           0           0           2           0           0           0           0
 AtZEff=  -0.0000000  -0.0000000  -0.0000000  -0.0000000  -0.0000000  -0.0000000  -0.0000000  -0.0000000  -0.0000000  -0.0000000
 NQMom=    0.0000000   0.0000000   0.0000000   0.0000000   0.0000000   2.0440000   0.0000000   0.0000000   0.0000000   0.0000000
 NMagM=    0.0000000   0.0000000   0.0000000   0.0000000   0.0000000   0.4037610   0.0000000   0.0000000   0.0000000   0.0000000
 AtZNuc=  12.0000000   6.0000000   6.0000000   6.0000000   6.0000000   7.0000000   6.0000000   6.0000000   6.0000000   6.0000000

  Atom        11          12          13          14          15          16          17          18          19          20
 IAtWgt=          12          12          12           1          14          12          12          12          12          12
 AtmWgt=  12.0000000  12.0000000  12.0000000   1.0078250  14.0030740  12.0000000  12.0000000  12.0000000  12.0000000  12.0000000
 NucSpn=           0           0           0           1           2           0           0           0           0           0
 AtZEff=  -0.0000000  -0.0000000  -0.0000000  -0.0000000  -0.0000000  -0.0000000  -0.0000000  -0.0000000  -0.0000000  -0.0000000
 NQMom=    0.0000000   0.0000000   0.0000000   0.0000000   2.0440000   0.0000000   0.0000000   0.0000000   0.0000000   0.0000000
 NMagM=    0.0000000   0.0000000   0.0000000   2.7928460   0.4037610   0.0000000   0.0000000   0.0000000   0.0000000   0.0000000
 AtZNuc=   6.0000000   6.0000000   6.0000000   1.0000000   7.0000000   6.0000000   6.0000000   6.0000000   6.0000000   6.0000000

  Atom        21          22          23          24          25          26          27          28          29          30
 IAtWgt=          12          16          12          14          12          12          12          12          12          12
 AtmWgt=  12.0000000  15.9949146  12.0000000  14.0030740  12.0000000  12.0000000  12.0000000  12.0000000  12.0000000  12.0000000
 NucSpn=           0           0           0           2           0           0           0           0           0           0
 AtZEff=  -0.0000000  -0.0000000  -0.0000000  -0.0000000  -0.0000000  -0.0000000  -0.0000000  -0.0000000  -0.0000000  -0.0000000
 NQMom=    0.0000000   0.0000000   0.0000000   2.0440000   0.0000000   0.0000000   0.0000000   0.0000000   0.0000000   0.0000000
 NMagM=    0.0000000   0.0000000   0.0000000   0.4037610   0.0000000   0.0000000   0.0000000   0.0000000   0.0000000   0.0000000
 AtZNuc=   6.0000000   8.0000000   6.0000000   7.0000000   6.0000000   6.0000000   6.0000000   6.0000000   6.0000000   6.0000000

  Atom        31          32          33          34          35          36          37          38          39          40
 IAtWgt=          12          14          12          12          12          12          12          12          16          12
 AtmWgt=  12.0000000  14.0030740  12.0000000  12.0000000  12.0000000  12.0000000  12.0000000  12.0000000  15.9949146  12.0000000
 NucSpn=           0           2           0           0           0           0           0           0           0           0
 AtZEff=  -0.0000000  -0.0000000  -0.0000000  -0.0000000  -0.0000000  -0.0000000  -0.0000000  -0.0000000  -0.0000000  -0.0000000
 NQMom=    0.0000000   2.0440000   0.0000000   0.0000000   0.0000000   0.0000000   0.0000000   0.0000000   0.0000000   0.0000000
 NMagM=    0.0000000   0.4037610   0.0000000   0.0000000   0.0000000   0.0000000   0.0000000   0.0000000   0.0000000   0.0000000
 AtZNuc=   6.0000000   7.0000000   6.0000000   6.0000000   6.0000000   6.0000000   6.0000000   6.0000000   8.0000000   6.0000000

  Atom        41          42          43          44          45          46          47          48          49          50
 IAtWgt=          12          16          16          12           1           1           1           1           1           1
 AtmWgt=  12.0000000  15.9949146  15.9949146  12.0000000   1.0078250   1.0078250   1.0078250   1.0078250   1.0078250   1.0078250
 NucSpn=           0           0           0           0           1           1           1           1           1           1
 AtZEff=  -0.0000000  -0.0000000  -0.0000000  -0.0000000  -0.0000000  -0.0000000  -0.0000000  -0.0000000  -0.0000000  -0.0000000
 NQMom=    0.0000000   0.0000000   0.0000000   0.0000000   0.0000000   0.0000000   0.0000000   0.0000000   0.0000000   0.0000000
 NMagM=    0.0000000   0.0000000   0.0000000   0.0000000   2.7928460   2.7928460   2.7928460   2.7928460   2.7928460   2.7928460
 AtZNuc=   6.0000000   8.0000000   8.0000000   6.0000000   1.0000000   1.0000000   1.0000000   1.0000000   1.0000000   1.0000000

  Atom        51          52          53          54          55          56          57          58          59          60
 IAtWgt=           1           1           1           1           1           1           1           1           1           1
 AtmWgt=   1.0078250   1.0078250   1.0078250   1.0078250   1.0078250   1.0078250   1.0078250   1.0078250   1.0078250   1.0078250
 NucSpn=           1           1           1           1           1           1           1           1           1           1
 AtZEff=  -0.0000000  -0.0000000  -0.0000000  -0.0000000  -0.0000000  -0.0000000  -0.0000000  -0.0000000  -0.0000000  -0.0000000
 NQMom=    0.0000000   0.0000000   0.0000000   0.0000000   0.0000000   0.0000000   0.0000000   0.0000000   0.0000000   0.0000000
 NMagM=    2.7928460   2.7928460   2.7928460   2.7928460   2.7928460   2.7928460   2.7928460   2.7928460   2.7928460   2.7928460
 AtZNuc=   1.0000000   1.0000000   1.0000000   1.0000000   1.0000000   1.0000000   1.0000000   1.0000000   1.0000000   1.0000000

  Atom        61          62          63          64          65          66          67          68          69          70
 IAtWgt=           1           1           1           1           1           1           1           1           1           1
 AtmWgt=   1.0078250   1.0078250   1.0078250   1.0078250   1.0078250   1.0078250   1.0078250   1.0078250   1.0078250   1.0078250
 NucSpn=           1           1           1           1           1           1           1           1           1           1
 AtZEff=  -0.0000000  -0.0000000  -0.0000000  -0.0000000  -0.0000000  -0.0000000  -0.0000000  -0.0000000  -0.0000000  -0.0000000
 NQMom=    0.0000000   0.0000000   0.0000000   0.0000000   0.0000000   0.0000000   0.0000000   0.0000000   0.0000000   0.0000000
 NMagM=    2.7928460   2.7928460   2.7928460   2.7928460   2.7928460   2.7928460   2.7928460   2.7928460   2.7928460   2.7928460
 AtZNuc=   1.0000000   1.0000000   1.0000000   1.0000000   1.0000000   1.0000000   1.0000000   1.0000000   1.0000000   1.0000000

  Atom        71          72          73          74          75          76          77          78          79          80
 IAtWgt=           1           1           1           1           1           1           1           1           1          24
 AtmWgt=   1.0078250   1.0078250   1.0078250   1.0078250   1.0078250   1.0078250   1.0078250   1.0078250   1.0078250  23.9850450
 NucSpn=           1           1           1           1           1           1           1           1           1           0
 AtZEff=  -0.0000000  -0.0000000  -0.0000000  -0.0000000  -0.0000000  -0.0000000  -0.0000000  -0.0000000  -0.0000000  -0.0000000
 NQMom=    0.0000000   0.0000000   0.0000000   0.0000000   0.0000000   0.0000000   0.0000000   0.0000000   0.0000000   0.0000000
 NMagM=    2.7928460   2.7928460   2.7928460   2.7928460   2.7928460   2.7928460   2.7928460   2.7928460   2.7928460   0.0000000
 AtZNuc=   1.0000000   1.0000000   1.0000000   1.0000000   1.0000000   1.0000000   1.0000000   1.0000000   1.0000000  12.0000000

  Atom        81          82          83          84          85          86          87          88          89          90
 IAtWgt=          12          12          12          12          14          12          12          12          12          12
 AtmWgt=  12.0000000  12.0000000  12.0000000  12.0000000  14.0030740  12.0000000  12.0000000  12.0000000  12.0000000  12.0000000
 NucSpn=           0           0           0           0           2           0           0           0           0           0
 AtZEff=  -0.0000000  -0.0000000  -0.0000000  -0.0000000  -0.0000000  -0.0000000  -0.0000000  -0.0000000  -0.0000000  -0.0000000
 NQMom=    0.0000000   0.0000000   0.0000000   0.0000000   2.0440000   0.0000000   0.0000000   0.0000000   0.0000000   0.0000000
 NMagM=    0.0000000   0.0000000   0.0000000   0.0000000   0.4037610   0.0000000   0.0000000   0.0000000   0.0000000   0.0000000
 AtZNuc=   6.0000000   6.0000000   6.0000000   6.0000000   7.0000000   6.0000000   6.0000000   6.0000000   6.0000000   6.0000000

  Atom        91          92          93          94          95          96          97          98          99         100
 IAtWgt=          12          12           1          14          12          12          12          12          12          12
 AtmWgt=  12.0000000  12.0000000   1.0078250  14.0030740  12.0000000  12.0000000  12.0000000  12.0000000  12.0000000  12.0000000
 NucSpn=           0           0           1           2           0           0           0           0           0           0
 AtZEff=  -0.0000000  -0.0000000  -0.0000000  -0.0000000  -0.0000000  -0.0000000  -0.0000000  -0.0000000  -0.0000000  -0.0000000
 NQMom=    0.0000000   0.0000000   0.0000000   2.0440000   0.0000000   0.0000000   0.0000000   0.0000000   0.0000000   0.0000000
 NMagM=    0.0000000   0.0000000   2.7928460   0.4037610   0.0000000   0.0000000   0.0000000   0.0000000   0.0000000   0.0000000
 AtZNuc=   6.0000000   6.0000000   1.0000000   7.0000000   6.0000000   6.0000000   6.0000000   6.0000000   6.0000000   6.0000000

  Atom       101         102         103         104         105         106         107         108         109         110
 IAtWgt=          16          12          14          12          12          12          12          12          12          12
 AtmWgt=  15.9949146  12.0000000  14.0030740  12.0000000  12.0000000  12.0000000  12.0000000  12.0000000  12.0000000  12.0000000
 NucSpn=           0           0           2           0           0           0           0           0           0           0
 AtZEff=  -0.0000000  -0.0000000  -0.0000000  -0.0000000  -0.0000000  -0.0000000  -0.0000000  -0.0000000  -0.0000000  -0.0000000
 NQMom=    0.0000000   0.0000000   2.0440000   0.0000000   0.0000000   0.0000000   0.0000000   0.0000000   0.0000000   0.0000000
 NMagM=    0.0000000   0.0000000   0.4037610   0.0000000   0.0000000   0.0000000   0.0000000   0.0000000   0.0000000   0.0000000
 AtZNuc=   8.0000000   6.0000000   7.0000000   6.0000000   6.0000000   6.0000000   6.0000000   6.0000000   6.0000000   6.0000000

  Atom       111         112         113         114         115         116         117         118         119         120
 IAtWgt=          14          12          12          12          12          12          12          16          12          12
 AtmWgt=  14.0030740  12.0000000  12.0000000  12.0000000  12.0000000  12.0000000  12.0000000  15.9949146  12.0000000  12.0000000
 NucSpn=           2           0           0           0           0           0           0           0           0           0
 AtZEff=  -0.0000000  -0.0000000  -0.0000000  -0.0000000  -0.0000000  -0.0000000  -0.0000000  -0.0000000  -0.0000000  -0.0000000
 NQMom=    2.0440000   0.0000000   0.0000000   0.0000000   0.0000000   0.0000000   0.0000000   0.0000000   0.0000000   0.0000000
 NMagM=    0.4037610   0.0000000   0.0000000   0.0000000   0.0000000   0.0000000   0.0000000   0.0000000   0.0000000   0.0000000
 AtZNuc=   7.0000000   6.0000000   6.0000000   6.0000000   6.0000000   6.0000000   6.0000000   8.0000000   6.0000000   6.0000000

  Atom       121         122         123         124         125         126         127         128         129         130
 IAtWgt=          16          16          12           1           1           1           1           1           1           1
 AtmWgt=  15.9949146  15.9949146  12.0000000   1.0078250   1.0078250   1.0078250   1.0078250   1.0078250   1.0078250   1.0078250
 NucSpn=           0           0           0           1           1           1           1           1           1           1
 AtZEff=  -0.0000000  -0.0000000  -0.0000000  -0.0000000  -0.0000000  -0.0000000  -0.0000000  -0.0000000  -0.0000000  -0.0000000
 NQMom=    0.0000000   0.0000000   0.0000000   0.0000000   0.0000000   0.0000000   0.0000000   0.0000000   0.0000000   0.0000000
 NMagM=    0.0000000   0.0000000   0.0000000   2.7928460   2.7928460   2.7928460   2.7928460   2.7928460   2.7928460   2.7928460
 AtZNuc=   8.0000000   8.0000000   6.0000000   1.0000000   1.0000000   1.0000000   1.0000000   1.0000000   1.0000000   1.0000000

  Atom       131         132         133         134         135         136         137         138         139         140
 IAtWgt=           1           1           1           1           1           1           1           1           1           1
 AtmWgt=   1.0078250   1.0078250   1.0078250   1.0078250   1.0078250   1.0078250   1.0078250   1.0078250   1.0078250   1.0078250
 NucSpn=           1           1           1           1           1           1           1           1           1           1
 AtZEff=  -0.0000000  -0.0000000  -0.0000000  -0.0000000  -0.0000000  -0.0000000  -0.0000000  -0.0000000  -0.0000000  -0.0000000
 NQMom=    0.0000000   0.0000000   0.0000000   0.0000000   0.0000000   0.0000000   0.0000000   0.0000000   0.0000000   0.0000000
 NMagM=    2.7928460   2.7928460   2.7928460   2.7928460   2.7928460   2.7928460   2.7928460   2.7928460   2.7928460   2.7928460
 AtZNuc=   1.0000000   1.0000000   1.0000000   1.0000000   1.0000000   1.0000000   1.0000000   1.0000000   1.0000000   1.0000000

  Atom       141         142         143         144         145         146         147         148         149         150
 IAtWgt=           1           1           1           1           1           1           1           1           1           1
 AtmWgt=   1.0078250   1.0078250   1.0078250   1.0078250   1.0078250   1.0078250   1.0078250   1.0078250   1.0078250   1.0078250
 NucSpn=           1           1           1           1           1           1           1           1           1           1
 AtZEff=  -0.0000000  -0.0000000  -0.0000000  -0.0000000  -0.0000000  -0.0000000  -0.0000000  -0.0000000  -0.0000000  -0.0000000
 NQMom=    0.0000000   0.0000000   0.0000000   0.0000000   0.0000000   0.0000000   0.0000000   0.0000000   0.0000000   0.0000000
 NMagM=    2.7928460   2.7928460   2.7928460   2.7928460   2.7928460   2.7928460   2.7928460   2.7928460   2.7928460   2.7928460
 AtZNuc=   1.0000000   1.0000000   1.0000000   1.0000000   1.0000000   1.0000000   1.0000000   1.0000000   1.0000000   1.0000000

  Atom       151         152         153         154         155         156         157         158
 IAtWgt=           1           1           1           1           1           1           1           1
 AtmWgt=   1.0078250   1.0078250   1.0078250   1.0078250   1.0078250   1.0078250   1.0078250   1.0078250
 NucSpn=           1           1           1           1           1           1           1           1
 AtZEff=  -0.0000000  -0.0000000  -0.0000000  -0.0000000  -0.0000000  -0.0000000  -0.0000000  -0.0000000
 NQMom=    0.0000000   0.0000000   0.0000000   0.0000000   0.0000000   0.0000000   0.0000000   0.0000000
 NMagM=    2.7928460   2.7928460   2.7928460   2.7928460   2.7928460   2.7928460   2.7928460   2.7928460
 AtZNuc=   1.0000000   1.0000000   1.0000000   1.0000000   1.0000000   1.0000000   1.0000000   1.0000000
 Leave Link  101 at Sat Sep  4 07:19:36 2021, MaxMem= 23488102400 cpu:               3.6 elap:               0.2
 (Enter /sw/apps/gaussian-16.0/g16/l202.exe)
 Stoichiometry    C68H72Mg2N8O8
 Framework group  C1[X(C68H72Mg2N8O8)]
 Deg. of freedom   468
 Full point group                 C1      NOp   1
 Largest Abelian subgroup         C1      NOp   1
 Largest concise Abelian subgroup C1      NOp   1
                         Standard orientation:                         
 ---------------------------------------------------------------------
 Center     Atomic      Atomic             Coordinates (Angstroms)
 Number     Number       Type             X           Y           Z
 ---------------------------------------------------------------------
      1         12           0        6.447038   -1.067056    0.059095
      2          6           0        7.187485    2.309038   -0.871464
      3          6           0        7.514154   -0.277456    3.202479
      4          6           0        6.231929   -4.145873    0.787957
      5          6           0        6.526267   -1.863461   -3.332825
      6          7           0        7.226932    0.811909    0.931965
      7          6           0        7.405036    2.050674    0.483735
      8          6           0        7.772248    3.066978    1.606079
      9          6           0        8.387381    2.053418    2.672055
     10          6           0        7.639953    0.794356    2.269512
     11          6           0        9.883273    1.814934    2.493348
     12          6           0        6.513651    3.803740    2.176034
     13          6           0        6.811254    5.035636    3.035813
     14          1           0        5.905499    6.172447    2.967863
     15          7           0        6.349744   -1.963801    1.816717
     16          6           0        6.820663   -1.489446    2.995067
     17          6           0        6.506951   -2.522961    4.005073
     18          6           0        5.985653   -3.718482    3.285995
     19          6           0        6.195557   -3.328441    1.915161
     20          6           0        6.662096   -2.306773    5.479163
     21          6           0        5.402130   -5.012130    3.759395
     22          8           0        5.227680   -6.006899    2.975446
     23          6           0        5.118456   -5.115880    5.202242
     24          7           0        6.603416   -2.810048   -1.078956
     25          6           0        6.410747   -4.013507   -0.528002
     26          6           0        6.292060   -5.080791   -1.575264
     27          6           0        6.200869   -4.318224   -2.975238
     28          6           0        6.375041   -2.866476   -2.464979
     29          6           0        7.437610   -6.101273   -1.623659
     30          6           0        4.981722   -4.642652   -3.874595
     31          6           0        3.714437   -4.135038   -3.223890
     32          7           0        6.615920    0.032492   -1.804642
     33          6           0        6.649730   -0.503902   -3.099946
     34          6           0        6.882717    0.619084   -4.026600
     35          6           0        6.985454    1.735688   -3.199264
     36          6           0        6.852891    1.331833   -1.839992
     37          6           0        7.030872    0.517847   -5.438065
     38          6           0        7.200966    3.172541   -3.145732
     39          8           0        7.283328    4.068969   -3.986640
     40          6           0        7.462004    3.583915   -1.629666
     41          6           0        6.601020    4.780331   -1.328661
     42          8           0        5.357024    4.683791   -1.305811
     43          8           0        7.373630    5.783695   -0.884952
     44          6           0        6.577744    6.991890   -0.540011
     45          1           0        8.041823   -0.211896    4.156003
     46          1           0        6.050384   -5.204186    0.986583
     47          1           0        6.478709   -2.023565   -4.411508
     48          1           0        8.520096    3.807468    1.321786
     49          1           0        8.133770    2.334238    3.694084
     50          1           0       10.254997    2.281891    1.581376
     51          1           0       10.001346    0.732377    2.442149
     52          1           0       10.434914    2.135023    3.377662
     53          1           0        6.032513    3.169632    2.920664
     54          1           0        5.832068    4.081793    1.371387
     55          1           0        7.844685    5.363118    2.918829
     56          1           0        6.735636    4.746811    4.084175
     57          1           0        7.220220   -1.396307    5.693859
     58          1           0        7.297208   -3.109368    5.853573
     59          1           0        5.704246   -2.322897    5.999350
     60          1           0        6.040919   -4.961450    5.762388
     61          1           0        4.622885   -6.075800    5.343005
     62          1           0        4.446475   -4.306485    5.489068
     63          1           0        5.388474   -5.671635   -1.430820
     64          1           0        7.062449   -4.525032   -3.610521
     65          1           0        7.108575   -7.134585   -1.510933
     66          1           0        8.159507   -5.834377   -0.852347
     67          1           0        8.053061   -6.055317   -2.521727
     68          1           0        4.872828   -5.720355   -3.991409
     69          1           0        5.053862   -4.206660   -4.871068
     70          1           0        3.456117   -4.938210   -2.534675
     71          1           0        2.932688   -3.995391   -3.971271
     72          1           0        3.903200   -3.242108   -2.627627
     73          1           0        6.449274    1.334719   -5.865185
     74          1           0        6.684873   -0.448492   -5.804231
     75          1           0        8.109328    0.640168   -5.537192
     76          1           0        8.524027    3.812162   -1.545206
     77          1           0        6.987493    7.821478   -1.116313
     78          1           0        6.594295    7.073939    0.546911
     79          1           0        5.540904    6.998786   -0.878028
     80         12           0       -6.615711    1.061556    0.265471
     81          6           0       -6.990914   -2.466385   -0.274816
     82          6           0       -5.738567    1.320146   -3.020619
     83          6           0       -5.842314    4.089692    0.812892
     84          6           0       -6.400842    0.375709    3.675618
     85          7           0       -6.426454   -0.449349   -1.338778
     86          6           0       -6.654293   -1.750008   -1.442265
     87          6           0       -6.591942   -2.300544   -2.892298
     88          6           0       -5.648687   -1.172341   -3.537501
     89          6           0       -5.978868   -0.012417   -2.600359
     90          6           0       -4.166411   -1.482178   -3.410168
     91          6           0       -8.001704   -2.333027   -3.580446
     92          6           0       -8.065553   -3.142094   -4.877780
     93          1           0       -9.287430   -3.884124   -5.175893
     94          7           0       -6.373499    2.573577   -0.996947
     95          6           0       -6.039535    2.498213   -2.302353
     96          6           0       -5.967384    3.887740   -2.780038
     97          6           0       -6.124427    4.794554   -1.610539
     98          6           0       -6.098111    3.833403   -0.526297
     99          6           0       -5.846333    4.243292   -4.233427
    100          6           0       -6.261157    6.281957   -1.487447
    101          8           0       -6.146461    6.877523   -0.358299
    102          6           0       -6.440235    7.029775   -2.740517
    103          7           0       -5.972652    2.066952    1.967815
    104          6           0       -5.756886    3.393951    1.946893
    105          6           0       -5.569902    3.938282    3.343008
    106          6           0       -5.946913    2.735422    4.327182
    107          6           0       -6.212314    1.628267    3.283552
    108          6           0       -4.167801    4.447691    3.676162
    109          6           0       -7.035560    3.017552    5.398591
    110          6           0       -8.375384    3.226703    4.730363
    111          7           0       -6.863405   -0.679640    1.520426
    112          6           0       -6.702476   -0.751116    2.921522
    113          6           0       -6.862217   -2.168447    3.306355
    114          6           0       -7.083902   -2.831809    2.090094
    115          6           0       -7.043661   -1.897033    1.020484
    116          6           0       -6.748184   -2.690122    4.625816
    117          6           0       -7.332224   -4.111836    1.466743
    118          8           0       -7.553593   -5.250026    1.878129
    119          6           0       -7.157331   -3.950979   -0.104859
    120          6           0       -8.335854   -4.604887   -0.772696
    121          8           0       -9.481749   -4.144931   -0.624461
    122          8           0       -7.891719   -5.527863   -1.645187
    123          6           0       -9.023615   -6.196269   -2.340788
    124          1           0       -5.232978    1.480531   -3.973272
    125          1           0       -5.679149    5.139021    1.069338
    126          1           0       -6.445215    0.094444    4.729940
    127          1           0       -6.126590   -3.274134   -2.988938
    128          1           0       -5.951593   -0.938671   -4.554857
    129          1           0       -3.988285   -2.355349   -2.800267
    130          1           0       -3.720751   -0.606554   -2.956613
    131          1           0       -3.713455   -1.571580   -4.401719
    132          1           0       -8.232725   -1.333522   -3.970776
    133          1           0       -8.750795   -2.684786   -2.897977
    134          1           0       -7.185233   -3.783322   -5.007423
    135          1           0       -8.019039   -2.449241   -5.721472
    136          1           0       -5.585452    3.368146   -4.841256
    137          1           0       -4.981014    4.908082   -4.328991
    138          1           0       -6.730671    4.757006   -4.616460
    139          1           0       -5.595427    6.839848   -3.398307
    140          1           0       -6.608684    8.065986   -2.440912
    141          1           0       -7.330052    6.646673   -3.252452
    142          1           0       -6.241753    4.767436    3.528008
    143          1           0       -5.080527    2.407236    4.920065
    144          1           0       -4.154561    5.502266    4.010467
    145          1           0       -3.541102    4.317388    2.803912
    146          1           0       -3.634896    3.872648    4.431498
    147          1           0       -6.808481    3.942213    5.934866
    148          1           0       -7.127165    2.229990    6.139093
    149          1           0       -8.341794    4.279453    4.434248
    150          1           0       -9.186394    3.039520    5.431264
    151          1           0       -8.456130    2.629189    3.814887
    152          1           0       -7.561035   -3.392462    4.754246
    153          1           0       -6.784564   -1.898168    5.370976
    154          1           0       -5.759819   -3.153781    4.567490
    155          1           0       -6.215102   -4.426455   -0.379993
    156          1           0       -8.908791   -7.272196   -2.176832
    157          1           0       -8.984071   -5.839126   -3.387038
    158          1           0      -10.020814   -6.028207   -1.951192
 ---------------------------------------------------------------------
 Rotational constants (GHZ):           0.0205065           0.0080579           0.0073278
 Leave Link  202 at Sat Sep  4 07:19:36 2021, MaxMem= 23488102400 cpu:               0.3 elap:               0.0
 (Enter /sw/apps/gaussian-16.0/g16/l301.exe)
 Standard basis: def2SVP (5D, 7F)
 Ernie: Thresh=  0.10000D-02 Tol=  0.10000D-05 Strict=F.
 There are  1658 symmetry adapted cartesian basis functions of A   symmetry.
 There are  1572 symmetry adapted basis functions of A   symmetry.
  1572 basis functions,  2678 primitive gaussians,  1658 cartesian basis functions
   312 alpha electrons      312 beta electrons
       nuclear repulsion energy     14237.4846506409 Hartrees.
 IExCor=20419 DFT=T Ex+Corr=CAM-B3LYP ExCW=0 ScaHFX=  1.000000
 ScaDFX=  1.000000  1.000000  1.000000  0.810000 ScalE2=  1.000000  1.000000
 IRadAn=      5 IRanWt=     -1 IRanGd=            0 ICorTp=0 IEmpDi=  4
 HFx  wShort=  0.000000 wLong=  0.330000 cFull=  0.190000 cShort=  0.000000 cLong=  0.460000
 DFx  wShort=  0.000000 wLong=  0.330000 cFull=  0.190000 cShort=  0.000000 cLong=  0.460000
 NAtoms=  158 NActive=  158 NUniq=  158 SFac= 1.00D+00 NAtFMM=   60 NAOKFM=T Big=T
 Integral buffers will be    131072 words long.
 Raffenetti 1 integral format.
 Two-electron integral symmetry is turned on.
 Leave Link  301 at Sat Sep  4 07:19:36 2021, MaxMem= 23488102400 cpu:               1.3 elap:               0.1
 (Enter /sw/apps/gaussian-16.0/g16/l302.exe)
 NPDir=0 NMtPBC=     1 NCelOv=     1 NCel=       1 NClECP=     1 NCelD=      1
         NCelK=      1 NCelE2=     1 NClLst=     1 CellRange=     0.0.
 One-electron integrals computed using PRISM.
 One-electron integral symmetry used in STVInt
   1 Symmetry operations used in ECPInt.
 ECPInt:  NShTT=  271216 NPrTT=  987664 LenC2=  116341 LenP2D=  254855.
 LDataN:  DoStor=T MaxTD1= 4 Len=   56
 NBasis=  1572 RedAO= T EigKep=  3.36D-04  NBF=  1572
 NBsUse=  1572 1.00D-06 EigRej= -1.00D+00 NBFU=  1572
 Precomputing XC quadrature grid using
 IXCGrd= 4 IRadAn=           5 IRanWt=          -1 IRanGd=           0 AccXCQ= 0.00D+00.
 Generated NRdTot=       0 NPtTot=           0 NUsed=           0 NTot=          32
 NSgBfM=   988   975   975   986   988 MxSgAt=   158 MxSgA2=   155.
 Leave Link  302 at Sat Sep  4 07:19:41 2021, MaxMem= 23488102400 cpu:             117.7 elap:               4.9
 (Enter /sw/apps/gaussian-16.0/g16/l303.exe)
 DipDrv:  MaxL=1.
 Leave Link  303 at Sat Sep  4 07:19:42 2021, MaxMem= 23488102400 cpu:               9.6 elap:               0.4
 (Enter /sw/apps/gaussian-16.0/g16/l308.exe)
 Leave Link  308 at Sat Sep  4 07:19:42 2021, MaxMem= 23488102400 cpu:              14.8 elap:               0.7
 (Enter /sw/apps/gaussian-16.0/g16/l401.exe)
 ExpMin= 3.36D-02 ExpMax= 4.95D+03 ExpMxC= 7.45D+02 IAcc=3 IRadAn=         5 AccDes= 0.00D+00
 Harris functional with IExCor=20419 and IRadAn=       5 diagonalized for initial guess.
 HarFok:  IExCor=20419 AccDes= 0.00D+00 IRadAn=         5 IDoV= 1 UseB2=F ITyADJ=14
 ICtDFT=  3500011 ScaDFX=  1.000000  1.000000  1.000000  1.000000
 FoFCou: FMM=F IPFlag=           0 FMFlag=      100000 FMFlg1=        2001
         NFxFlg=           0 DoJE=T BraDBF=F KetDBF=T FulRan=T
         wScrn=  0.000000 ICntrl=       500 IOpCl=  0 I1Cent=   200000004 NGrid=           0
         NMat0=    1 NMatS0=      1 NMatT0=    0 NMatD0=    1 NMtDS0=    0 NMtDT0=    0
 Petite list used in FoFCou.
 Harris En= -3918.65801236504    
 JPrj=0 DoOrth=F DoCkMO=F.
 Leave Link  401 at Sat Sep  4 07:19:49 2021, MaxMem= 23488102400 cpu:             166.6 elap:               7.0
 (Enter /sw/apps/gaussian-16.0/g16/l502.exe)
 Integral symmetry usage will be decided dynamically.
 Closed shell SCF:
 Using DIIS extrapolation, IDIIS=  1040.
 NGot= 23488102400 LenX= 23482547354 LenY= 23479796732
 Requested convergence on RMS density matrix=1.00D-08 within 128 cycles.
 Requested convergence on MAX density matrix=1.00D-06.
 Requested convergence on             energy=1.00D-06.
 No special actions if energy rises.
 Fock matrices will be formed incrementally for  20 cycles.

 Cycle   1  Pass 1  IDiag  1:
 FoFJK:  IHMeth= 1 ICntrl=       0 DoSepK=T KAlg= 0 I1Cent=           0 FoldK=F
 IRaf=         1 NMat=       1 IRICut=       1 DoRegI=T DoRafI=F ISym2E= 0 IDoP0=0 IntGTp=1.
 FoFCou: FMM=T IPFlag=           0 FMFlag=      100000 FMFlg1=        2001
         NFxFlg=           0 DoJE=T BraDBF=F KetDBF=F FulRan=T
         wScrn=  0.000000 ICntrl=       500 IOpCl=  0 I1Cent=           0 NGrid=           0
         NMat0=    1 NMatS0=      1 NMatT0=    0 NMatD0=    1 NMtDS0=    0 NMtDT0=    0
 Symmetry not used in FoFCou.
 FMM levels:  10  Number of levels for PrismC:   9
 E= -4068.94977879892    
 DIIS: error= 2.04D-02 at cycle   1 NSaved=   1.
 NSaved= 1 IEnMin= 1 EnMin= -4068.94977879892     IErMin= 1 ErrMin= 2.04D-02
 ErrMax= 2.04D-02  0.00D+00 EMaxC= 1.00D-01 BMatC= 1.69D+00 BMatP= 1.69D+00
 IDIUse=3 WtCom= 7.96D-01 WtEn= 2.04D-01
 Coeff-Com:  0.100D+01
 Coeff-En:   0.100D+01
 Coeff:      0.100D+01
 Gap=     0.120 Goal=   None    Shift=    0.000
 GapD=    0.120 DampG=1.000 DampE=0.500 DampFc=0.5000 IDamp=-1.
 Damping current iteration by 5.00D-01
 RMSDP=1.57D-03 MaxDP=1.35D-01              OVMax= 1.99D-01

 Cycle   2  Pass 1  IDiag  1:
 RMSU=  7.69D-04    CP:  9.82D-01
 E= -4069.33882779944     Delta-E=       -0.389049000521 Rises=F Damp=T
 DIIS: error= 1.27D-02 at cycle   2 NSaved=   2.
 NSaved= 2 IEnMin= 2 EnMin= -4069.33882779944     IErMin= 2 ErrMin= 1.27D-02
 ErrMax= 1.27D-02  0.00D+00 EMaxC= 1.00D-01 BMatC= 3.06D-01 BMatP= 1.69D+00
 IDIUse=3 WtCom= 8.73D-01 WtEn= 1.27D-01
 Coeff-Com: -0.214D+00 0.121D+01
 Coeff-En:   0.000D+00 0.100D+01
 Coeff:     -0.187D+00 0.119D+01
 Gap=     0.135 Goal=   None    Shift=    0.000
 RMSDP=7.63D-04 MaxDP=9.45D-02 DE=-3.89D-01 OVMax= 1.85D-01

 Cycle   3  Pass 1  IDiag  1:
 RMSU=  7.30D-04    CP:  9.68D-01  1.24D+00
 E= -4069.62976664601     Delta-E=       -0.290938846567 Rises=F Damp=F
 DIIS: error= 1.57D-02 at cycle   3 NSaved=   3.
 NSaved= 3 IEnMin= 3 EnMin= -4069.62976664601     IErMin= 2 ErrMin= 1.27D-02
 ErrMax= 1.57D-02  0.00D+00 EMaxC= 1.00D-01 BMatC= 2.01D-01 BMatP= 3.06D-01
 IDIUse=3 WtCom= 8.43D-01 WtEn= 1.57D-01
 Coeff-Com: -0.267D+00 0.651D+00 0.616D+00
 Coeff-En:   0.000D+00 0.000D+00 0.100D+01
 Coeff:     -0.225D+00 0.549D+00 0.677D+00
 Gap=     0.123 Goal=   None    Shift=    0.000
 RMSDP=5.03D-04 MaxDP=4.75D-02 DE=-2.91D-01 OVMax= 1.36D-01

 Cycle   4  Pass 1  IDiag  1:
 RMSU=  2.63D-04    CP:  9.65D-01  1.55D+00  5.09D-01
 E= -4069.76640869643     Delta-E=       -0.136642050420 Rises=F Damp=F
 DIIS: error= 7.26D-03 at cycle   4 NSaved=   4.
 NSaved= 4 IEnMin= 4 EnMin= -4069.76640869643     IErMin= 4 ErrMin= 7.26D-03
 ErrMax= 7.26D-03  0.00D+00 EMaxC= 1.00D-01 BMatC= 4.95D-02 BMatP= 2.01D-01
 IDIUse=3 WtCom= 9.27D-01 WtEn= 7.26D-02
 Coeff-Com: -0.108D+00 0.225D+00 0.408D+00 0.476D+00
 Coeff-En:   0.000D+00 0.000D+00 0.217D+00 0.783D+00
 Coeff:     -0.100D+00 0.208D+00 0.394D+00 0.498D+00
 Gap=     0.122 Goal=   None    Shift=    0.000
 RMSDP=1.96D-04 MaxDP=2.04D-02 DE=-1.37D-01 OVMax= 5.73D-02

 Cycle   5  Pass 1  IDiag  1:
 RMSU=  7.40D-05    CP:  9.64D-01  1.49D+00  6.90D-01  5.55D-01
 E= -4069.81070636052     Delta-E=       -0.044297664092 Rises=F Damp=F
 DIIS: error= 8.09D-04 at cycle   5 NSaved=   5.
 NSaved= 5 IEnMin= 5 EnMin= -4069.81070636052     IErMin= 5 ErrMin= 8.09D-04
 ErrMax= 8.09D-04  0.00D+00 EMaxC= 1.00D-01 BMatC= 1.08D-03 BMatP= 4.95D-02
 IDIUse=3 WtCom= 9.92D-01 WtEn= 8.09D-03
 Coeff-Com: -0.347D-01 0.679D-01 0.161D+00 0.245D+00 0.560D+00
 Coeff-En:   0.000D+00 0.000D+00 0.000D+00 0.000D+00 0.100D+01
 Coeff:     -0.344D-01 0.673D-01 0.160D+00 0.243D+00 0.564D+00
 Gap=     0.121 Goal=   None    Shift=    0.000
 RMSDP=3.85D-05 MaxDP=4.14D-03 DE=-4.43D-02 OVMax= 1.44D-02

 Cycle   6  Pass 1  IDiag  1:
 RMSU=  2.91D-05    CP:  9.64D-01  1.50D+00  6.83D-01  6.24D-01  7.77D-01
 E= -4069.81161655485     Delta-E=       -0.000910194332 Rises=F Damp=F
 DIIS: error= 2.38D-04 at cycle   6 NSaved=   6.
 NSaved= 6 IEnMin= 6 EnMin= -4069.81161655485     IErMin= 6 ErrMin= 2.38D-04
 ErrMax= 2.38D-04  0.00D+00 EMaxC= 1.00D-01 BMatC= 1.63D-04 BMatP= 1.08D-03
 IDIUse=3 WtCom= 9.98D-01 WtEn= 2.38D-03
 Coeff-Com:  0.254D-02-0.719D-02 0.956D-02 0.379D-01 0.307D+00 0.650D+00
 Coeff-En:   0.000D+00 0.000D+00 0.000D+00 0.000D+00 0.928D-01 0.907D+00
 Coeff:      0.253D-02-0.717D-02 0.953D-02 0.378D-01 0.306D+00 0.651D+00
 Gap=     0.122 Goal=   None    Shift=    0.000
 RMSDP=1.48D-05 MaxDP=1.28D-03 DE=-9.10D-04 OVMax= 6.61D-03

 Cycle   7  Pass 1  IDiag  1:
 RMSU=  1.01D-05    CP:  9.64D-01  1.50D+00  6.88D-01  6.24D-01  8.71D-01
                    CP:  7.59D-01
 E= -4069.81178747689     Delta-E=       -0.000170922031 Rises=F Damp=F
 DIIS: error= 7.60D-05 at cycle   7 NSaved=   7.
 NSaved= 7 IEnMin= 7 EnMin= -4069.81178747689     IErMin= 7 ErrMin= 7.60D-05
 ErrMax= 7.60D-05  0.00D+00 EMaxC= 1.00D-01 BMatC= 1.77D-05 BMatP= 1.63D-04
 IDIUse=1 WtCom= 1.00D+00 WtEn= 0.00D+00
 Coeff-Com:  0.437D-02-0.951D-02-0.916D-02-0.468D-02 0.962D-01 0.319D+00
 Coeff-Com:  0.604D+00
 Coeff:      0.437D-02-0.951D-02-0.916D-02-0.468D-02 0.962D-01 0.319D+00
 Coeff:      0.604D+00
 Gap=     0.122 Goal=   None    Shift=    0.000
 RMSDP=6.24D-06 MaxDP=1.14D-03 DE=-1.71D-04 OVMax= 3.26D-03

 Cycle   8  Pass 1  IDiag  1:
 RMSU=  4.53D-06    CP:  9.64D-01  1.50D+00  6.89D-01  6.29D-01  8.78D-01
                    CP:  8.86D-01  8.44D-01
 E= -4069.81180946011     Delta-E=       -0.000021983229 Rises=F Damp=F
 DIIS: error= 4.62D-05 at cycle   8 NSaved=   8.
 NSaved= 8 IEnMin= 8 EnMin= -4069.81180946011     IErMin= 8 ErrMin= 4.62D-05
 ErrMax= 4.62D-05  0.00D+00 EMaxC= 1.00D-01 BMatC= 4.49D-06 BMatP= 1.77D-05
 IDIUse=1 WtCom= 1.00D+00 WtEn= 0.00D+00
 Coeff-Com:  0.208D-02-0.411D-02-0.761D-02-0.121D-01-0.141D-01 0.323D-01
 Coeff-Com:  0.357D+00 0.646D+00
 Coeff:      0.208D-02-0.411D-02-0.761D-02-0.121D-01-0.141D-01 0.323D-01
 Coeff:      0.357D+00 0.646D+00
 Gap=     0.122 Goal=   None    Shift=    0.000
 RMSDP=3.15D-06 MaxDP=3.27D-04 DE=-2.20D-05 OVMax= 1.21D-03

 Cycle   9  Pass 1  IDiag  1:
 RMSU=  1.86D-06    CP:  9.64D-01  1.50D+00  6.89D-01  6.30D-01  8.94D-01
                    CP:  9.11D-01  1.04D+00  9.18D-01
 E= -4069.81181662799     Delta-E=       -0.000007167877 Rises=F Damp=F
 DIIS: error= 2.01D-05 at cycle   9 NSaved=   9.
 NSaved= 9 IEnMin= 9 EnMin= -4069.81181662799     IErMin= 9 ErrMin= 2.01D-05
 ErrMax= 2.01D-05  0.00D+00 EMaxC= 1.00D-01 BMatC= 6.42D-07 BMatP= 4.49D-06
 IDIUse=1 WtCom= 1.00D+00 WtEn= 0.00D+00
 Coeff-Com:  0.451D-03-0.748D-03-0.260D-02-0.590D-02-0.219D-01-0.366D-01
 Coeff-Com:  0.110D+00 0.325D+00 0.633D+00
 Coeff:      0.451D-03-0.748D-03-0.260D-02-0.590D-02-0.219D-01-0.366D-01
 Coeff:      0.110D+00 0.325D+00 0.633D+00
 Gap=     0.122 Goal=   None    Shift=    0.000
 RMSDP=1.38D-06 MaxDP=1.55D-04 DE=-7.17D-06 OVMax= 7.64D-04

 Cycle  10  Pass 1  IDiag  1:
 RMSU=  9.19D-07    CP:  9.64D-01  1.50D+00  6.89D-01  6.31D-01  8.97D-01
                    CP:  9.25D-01  1.09D+00  1.09D+00  1.04D+00
 E= -4069.81181810708     Delta-E=       -0.000001479089 Rises=F Damp=F
 DIIS: error= 1.10D-05 at cycle  10 NSaved=  10.
 NSaved=10 IEnMin=10 EnMin= -4069.81181810708     IErMin=10 ErrMin= 1.10D-05
 ErrMax= 1.10D-05  0.00D+00 EMaxC= 1.00D-01 BMatC= 1.66D-07 BMatP= 6.42D-07
 IDIUse=1 WtCom= 1.00D+00 WtEn= 0.00D+00
 Coeff-Com: -0.423D-03 0.886D-03 0.123D-02 0.115D-02-0.393D-02-0.304D-01
 Coeff-Com: -0.498D-01-0.748D-01 0.271D+00 0.885D+00
 Coeff:     -0.423D-03 0.886D-03 0.123D-02 0.115D-02-0.393D-02-0.304D-01
 Coeff:     -0.498D-01-0.748D-01 0.271D+00 0.885D+00
 Gap=     0.122 Goal=   None    Shift=    0.000
 RMSDP=1.18D-06 MaxDP=1.27D-04 DE=-1.48D-06 OVMax= 5.79D-04

 Cycle  11  Pass 1  IDiag  1:
 RMSU=  4.95D-07    CP:  9.64D-01  1.50D+00  6.89D-01  6.31D-01  9.00D-01
                    CP:  9.36D-01  1.14D+00  1.20D+00  1.37D+00  1.36D+00
 E= -4069.81181884805     Delta-E=       -0.000000740969 Rises=F Damp=F
 DIIS: error= 3.71D-06 at cycle  11 NSaved=  11.
 NSaved=11 IEnMin=11 EnMin= -4069.81181884805     IErMin=11 ErrMin= 3.71D-06
 ErrMax= 3.71D-06  0.00D+00 EMaxC= 1.00D-01 BMatC= 5.40D-08 BMatP= 1.66D-07
 IDIUse=1 WtCom= 1.00D+00 WtEn= 0.00D+00
 Coeff-Com: -0.317D-03 0.616D-03 0.129D-02 0.209D-02 0.437D-02-0.810D-02
 Coeff-Com: -0.461D-01-0.131D+00-0.101D-01 0.446D+00 0.741D+00
 Coeff:     -0.317D-03 0.616D-03 0.129D-02 0.209D-02 0.437D-02-0.810D-02
 Coeff:     -0.461D-01-0.131D+00-0.101D-01 0.446D+00 0.741D+00
 Gap=     0.122 Goal=   None    Shift=    0.000
 RMSDP=6.57D-07 MaxDP=5.12D-05 DE=-7.41D-07 OVMax= 3.40D-04

 Cycle  12  Pass 1  IDiag  1:
 RMSU=  2.53D-07    CP:  9.64D-01  1.50D+00  6.89D-01  6.31D-01  9.01D-01
                    CP:  9.38D-01  1.16D+00  1.26D+00  1.54D+00  1.73D+00
                    CP:  1.21D+00
 E= -4069.81181908901     Delta-E=       -0.000000240965 Rises=F Damp=F
 DIIS: error= 2.31D-06 at cycle  12 NSaved=  12.
 NSaved=12 IEnMin=12 EnMin= -4069.81181908901     IErMin=12 ErrMin= 2.31D-06
 ErrMax= 2.31D-06  0.00D+00 EMaxC= 1.00D-01 BMatC= 1.30D-08 BMatP= 5.40D-08
 IDIUse=1 WtCom= 1.00D+00 WtEn= 0.00D+00
 Coeff-Com:  0.913D-05-0.340D-04 0.138D-03 0.449D-03 0.311D-02 0.431D-02
 Coeff-Com:  0.369D-02-0.325D-01-0.642D-01-0.939D-01 0.240D+00 0.939D+00
 Coeff:      0.913D-05-0.340D-04 0.138D-03 0.449D-03 0.311D-02 0.431D-02
 Coeff:      0.369D-02-0.325D-01-0.642D-01-0.939D-01 0.240D+00 0.939D+00
 Gap=     0.122 Goal=   None    Shift=    0.000
 RMSDP=4.29D-07 MaxDP=2.91D-05 DE=-2.41D-07 OVMax= 2.45D-04

 Cycle  13  Pass 1  IDiag  1:
 RMSU=  1.60D-07    CP:  9.64D-01  1.50D+00  6.89D-01  6.31D-01  9.01D-01
                    CP:  9.39D-01  1.17D+00  1.29D+00  1.65D+00  1.96D+00
                    CP:  1.63D+00  1.30D+00
 E= -4069.81181917510     Delta-E=       -0.000000086082 Rises=F Damp=F
 DIIS: error= 1.42D-06 at cycle  13 NSaved=  13.
 NSaved=13 IEnMin=13 EnMin= -4069.81181917510     IErMin=13 ErrMin= 1.42D-06
 ErrMax= 1.42D-06  0.00D+00 EMaxC= 1.00D-01 BMatC= 7.41D-09 BMatP= 1.30D-08
 IDIUse=1 WtCom= 1.00D+00 WtEn= 0.00D+00
 Coeff-Com:  0.118D-03-0.241D-03-0.367D-03-0.459D-03 0.486D-03 0.512D-02
 Coeff-Com:  0.205D-01 0.218D-01-0.359D-01-0.240D+00-0.153D+00 0.614D+00
 Coeff-Com:  0.768D+00
 Coeff:      0.118D-03-0.241D-03-0.367D-03-0.459D-03 0.486D-03 0.512D-02
 Coeff:      0.205D-01 0.218D-01-0.359D-01-0.240D+00-0.153D+00 0.614D+00
 Coeff:      0.768D+00
 Gap=     0.122 Goal=   None    Shift=    0.000
 RMSDP=3.18D-07 MaxDP=2.00D-05 DE=-8.61D-08 OVMax= 1.68D-04

 Cycle  14  Pass 1  IDiag  1:
 RMSU=  7.43D-08    CP:  9.64D-01  1.50D+00  6.89D-01  6.31D-01  9.01D-01
                    CP:  9.39D-01  1.18D+00  1.31D+00  1.72D+00  2.14D+00
                    CP:  1.89D+00  1.81D+00  1.07D+00
 E= -4069.81181920722     Delta-E=       -0.000000032123 Rises=F Damp=F
 DIIS: error= 7.76D-07 at cycle  14 NSaved=  14.
 NSaved=14 IEnMin=14 EnMin= -4069.81181920722     IErMin=14 ErrMin= 7.76D-07
 ErrMax= 7.76D-07  0.00D+00 EMaxC= 1.00D-01 BMatC= 1.14D-09 BMatP= 7.41D-09
 IDIUse=1 WtCom= 1.00D+00 WtEn= 0.00D+00
 Coeff-Com:  0.648D-04-0.128D-03-0.241D-03-0.380D-03-0.505D-03 0.135D-02
 Coeff-Com:  0.112D-01 0.185D-01 0.221D-02-0.978D-01-0.140D+00 0.106D+00
 Coeff-Com:  0.397D+00 0.703D+00
 Coeff:      0.648D-04-0.128D-03-0.241D-03-0.380D-03-0.505D-03 0.135D-02
 Coeff:      0.112D-01 0.185D-01 0.221D-02-0.978D-01-0.140D+00 0.106D+00
 Coeff:      0.397D+00 0.703D+00
 Gap=     0.122 Goal=   None    Shift=    0.000
 RMSDP=9.59D-08 MaxDP=6.14D-06 DE=-3.21D-08 OVMax= 6.05D-05

 Cycle  15  Pass 1  IDiag  1:
 RMSU=  3.82D-08    CP:  9.64D-01  1.50D+00  6.89D-01  6.31D-01  9.01D-01
                    CP:  9.39D-01  1.18D+00  1.31D+00  1.73D+00  2.18D+00
                    CP:  1.99D+00  1.94D+00  1.31D+00  9.99D-01
 E= -4069.81181921069     Delta-E=       -0.000000003471 Rises=F Damp=F
 DIIS: error= 4.65D-07 at cycle  15 NSaved=  15.
 NSaved=15 IEnMin=15 EnMin= -4069.81181921069     IErMin=15 ErrMin= 4.65D-07
 ErrMax= 4.65D-07  0.00D+00 EMaxC= 1.00D-01 BMatC= 2.54D-10 BMatP= 1.14D-09
 IDIUse=1 WtCom= 1.00D+00 WtEn= 0.00D+00
 Coeff-Com:  0.684D-05-0.118D-04-0.380D-04-0.902D-04-0.322D-03-0.457D-03
 Coeff-Com:  0.149D-02 0.304D-02 0.890D-02-0.481D-03-0.360D-01-0.682D-01
 Coeff-Com:  0.313D-01 0.332D+00 0.729D+00
 Coeff:      0.684D-05-0.118D-04-0.380D-04-0.902D-04-0.322D-03-0.457D-03
 Coeff:      0.149D-02 0.304D-02 0.890D-02-0.481D-03-0.360D-01-0.682D-01
 Coeff:      0.313D-01 0.332D+00 0.729D+00
 Gap=     0.122 Goal=   None    Shift=    0.000
 RMSDP=4.10D-08 MaxDP=2.51D-06 DE=-3.47D-09 OVMax= 2.42D-05

 Cycle  16  Pass 1  IDiag  1:
 RMSU=  1.87D-08    CP:  9.64D-01  1.50D+00  6.89D-01  6.31D-01  9.01D-01
                    CP:  9.39D-01  1.18D+00  1.31D+00  1.74D+00  2.20D+00
                    CP:  2.02D+00  2.01D+00  1.38D+00  1.23D+00  1.12D+00
 E= -4069.81181921170     Delta-E=       -0.000000001011 Rises=F Damp=F
 DIIS: error= 2.39D-07 at cycle  16 NSaved=  16.
 NSaved=16 IEnMin=16 EnMin= -4069.81181921170     IErMin=16 ErrMin= 2.39D-07
 ErrMax= 2.39D-07  0.00D+00 EMaxC= 1.00D-01 BMatC= 7.81D-11 BMatP= 2.54D-10
 IDIUse=1 WtCom= 1.00D+00 WtEn= 0.00D+00
 Coeff-Com: -0.137D-04 0.277D-04 0.451D-04 0.510D-04-0.322D-04-0.635D-03
 Coeff-Com: -0.203D-02-0.406D-02 0.522D-02 0.250D-01 0.185D-01-0.653D-01
 Coeff-Com: -0.878D-01-0.810D-02 0.383D+00 0.736D+00
 Coeff:     -0.137D-04 0.277D-04 0.451D-04 0.510D-04-0.322D-04-0.635D-03
 Coeff:     -0.203D-02-0.406D-02 0.522D-02 0.250D-01 0.185D-01-0.653D-01
 Coeff:     -0.878D-01-0.810D-02 0.383D+00 0.736D+00
 Gap=     0.122 Goal=   None    Shift=    0.000
 RMSDP=2.29D-08 MaxDP=1.58D-06 DE=-1.01D-09 OVMax= 1.66D-05

 Cycle  17  Pass 1  IDiag  1:
 RMSU=  1.14D-08    CP:  9.64D-01  1.50D+00  6.89D-01  6.31D-01  9.01D-01
                    CP:  9.39D-01  1.18D+00  1.31D+00  1.74D+00  2.20D+00
                    CP:  2.03D+00  2.03D+00  1.43D+00  1.32D+00  1.42D+00
                    CP:  1.19D+00
 E= -4069.81181921191     Delta-E=       -0.000000000204 Rises=F Damp=F
 DIIS: error= 1.24D-07 at cycle  17 NSaved=  17.
 NSaved=17 IEnMin=17 EnMin= -4069.81181921191     IErMin=17 ErrMin= 1.24D-07
 ErrMax= 1.24D-07  0.00D+00 EMaxC= 1.00D-01 BMatC= 2.31D-11 BMatP= 7.81D-11
 IDIUse=1 WtCom= 1.00D+00 WtEn= 0.00D+00
 Coeff-Com: -0.863D-05 0.169D-04 0.333D-04 0.486D-04 0.811D-04-0.193D-03
 Coeff-Com: -0.129D-02-0.319D-02 0.910D-03 0.120D-01 0.196D-01-0.141D-01
 Coeff-Com: -0.508D-01-0.973D-01-0.183D-01 0.377D+00 0.775D+00
 Coeff:     -0.863D-05 0.169D-04 0.333D-04 0.486D-04 0.811D-04-0.193D-03
 Coeff:     -0.129D-02-0.319D-02 0.910D-03 0.120D-01 0.196D-01-0.141D-01
 Coeff:     -0.508D-01-0.973D-01-0.183D-01 0.377D+00 0.775D+00
 Gap=     0.122 Goal=   None    Shift=    0.000
 RMSDP=1.40D-08 MaxDP=8.97D-07 DE=-2.04D-10 OVMax= 8.31D-06

 Cycle  18  Pass 1  IDiag  1:
 RMSU=  5.51D-09    CP:  9.64D-01  1.50D+00  6.89D-01  6.31D-01  9.01D-01
                    CP:  9.39D-01  1.18D+00  1.31D+00  1.74D+00  2.20D+00
                    CP:  2.04D+00  2.04D+00  1.45D+00  1.40D+00  1.58D+00
                    CP:  1.59D+00  1.27D+00
 E= -4069.81181921202     Delta-E=       -0.000000000116 Rises=F Damp=F
 DIIS: error= 7.30D-08 at cycle  18 NSaved=  18.
 NSaved=18 IEnMin=18 EnMin= -4069.81181921202     IErMin=18 ErrMin= 7.30D-08
 ErrMax= 7.30D-08  0.00D+00 EMaxC= 1.00D-01 BMatC= 7.26D-12 BMatP= 2.31D-11
 IDIUse=1 WtCom= 1.00D+00 WtEn= 0.00D+00
 Coeff-Com:  0.421D-06-0.119D-05 0.146D-05 0.668D-05 0.676D-04 0.138D-03
 Coeff-Com:  0.159D-03-0.383D-03-0.111D-02-0.370D-02 0.354D-02 0.174D-01
 Coeff-Com:  0.795D-02-0.471D-01-0.154D+00-0.725D-01 0.374D+00 0.875D+00
 Coeff:      0.421D-06-0.119D-05 0.146D-05 0.668D-05 0.676D-04 0.138D-03
 Coeff:      0.159D-03-0.383D-03-0.111D-02-0.370D-02 0.354D-02 0.174D-01
 Coeff:      0.795D-02-0.471D-01-0.154D+00-0.725D-01 0.374D+00 0.875D+00
 Gap=     0.122 Goal=   None    Shift=    0.000
 RMSDP=1.05D-08 MaxDP=8.69D-07 DE=-1.16D-10 OVMax= 7.24D-06

 Cycle  19  Pass 1  IDiag  1:
 RMSU=  3.30D-09    CP:  9.64D-01  1.50D+00  6.89D-01  6.31D-01  9.01D-01
                    CP:  9.39D-01  1.18D+00  1.31D+00  1.74D+00  2.20D+00
                    CP:  2.04D+00  2.05D+00  1.46D+00  1.44D+00  1.72D+00
                    CP:  1.87D+00  1.77D+00  1.16D+00
 E= -4069.81181921186     Delta-E=        0.000000000160 Rises=F Damp=F
 DIIS: error= 3.51D-08 at cycle  19 NSaved=  19.
 NSaved=19 IEnMin=18 EnMin= -4069.81181921202     IErMin=19 ErrMin= 3.51D-08
 ErrMax= 3.51D-08  0.00D+00 EMaxC= 1.00D-01 BMatC= 3.11D-12 BMatP= 7.26D-12
 IDIUse=1 WtCom= 1.00D+00 WtEn= 0.00D+00
 Coeff-Com:  0.340D-05-0.690D-05-0.113D-04-0.135D-04 0.190D-04 0.159D-03
 Coeff-Com:  0.598D-03 0.880D-03-0.954D-03-0.722D-02-0.497D-02 0.167D-01
 Coeff-Com:  0.245D-01 0.471D-02-0.101D+00-0.198D+00-0.615D-01 0.580D+00
 Coeff-Com:  0.746D+00
 Coeff:      0.340D-05-0.690D-05-0.113D-04-0.135D-04 0.190D-04 0.159D-03
 Coeff:      0.598D-03 0.880D-03-0.954D-03-0.722D-02-0.497D-02 0.167D-01
 Coeff:      0.245D-01 0.471D-02-0.101D+00-0.198D+00-0.615D-01 0.580D+00
 Coeff:      0.746D+00
 Gap=     0.122 Goal=   None    Shift=    0.000
 RMSDP=7.04D-09 MaxDP=4.48D-07 DE= 1.60D-10 OVMax= 3.88D-06

 SCF Done:  E(RCAM-B3LYP) =  -4069.81181921     A.U. after   19 cycles
            NFock= 19  Conv=0.70D-08     -V/T= 2.0102
 KE= 4.028801761248D+03 PE=-3.795594169527D+04 EE= 1.561984346417D+04
 Leave Link  502 at Sat Sep  4 07:28:43 2021, MaxMem= 23488102400 cpu:           12239.5 elap:             533.9
 (Enter /sw/apps/gaussian-16.0/g16/l801.exe)
 DoSCS=F DFT=T ScalE2(SS,OS)=  1.000000  1.000000
 ExpMin= 3.36D-02 ExpMax= 4.95D+03 ExpMxC= 7.45D+02 IAcc=3 IRadAn=         5 AccDes= 0.00D+00
 HarFok:  IExCor=  205 AccDes= 0.00D+00 IRadAn=         5 IDoV=-2 UseB2=F ITyADJ=14
 ICtDFT= 12500011 ScaDFX=  1.000000  1.000000  1.000000  1.000000
 GSVD:  LWork=       -9588 too small for GESVD, short by       45590 words or       45590 for optimal perf.
 Largest valence mixing into a core orbital is  2.03D-04
 Largest core mixing into a valence orbital is  5.24D-05
 Range of M.O.s used for correlation:    95  1572
 NBasis=  1572 NAE=   312 NBE=   312 NFC=    94 NFV=     0
 NROrb=   1478 NOA=   218 NOB=   218 NVA=  1260 NVB=  1260
 Leave Link  801 at Sat Sep  4 07:28:44 2021, MaxMem= 23488102400 cpu:               9.0 elap:               0.4
 (Enter /sw/apps/gaussian-16.0/g16/l914.exe)
 RHF ground state
 Two-electron integrals replicated using symmetry.
 MDV= 23488102400 DFT=T DoStab=F Mixed=T DoRPA=T DoScal=F NonHer=T
 Making orbital integer symmetry assigments:
 Orbital symmetries:
       Occupied  (A) (A) (A) (A) (A) (A) (A) (A) (A) (A) (A) (A)
                 (A) (A) (A) (A) (A) (A) (A) (A) (A) (A) (A) (A)
                 (A) (A) (A) (A) (A) (A) (A) (A) (A) (A) (A) (A)
                 (A) (A) (A) (A) (A) (A) (A) (A) (A) (A) (A) (A)
                 (A) (A) (A) (A) (A) (A) (A) (A) (A) (A) (A) (A)
                 (A) (A) (A) (A) (A) (A) (A) (A) (A) (A) (A) (A)
                 (A) (A) (A) (A) (A) (A) (A) (A) (A) (A) (A) (A)
                 (A) (A) (A) (A) (A) (A) (A) (A) (A) (A) (A) (A)
                 (A) (A) (A) (A) (A) (A) (A) (A) (A) (A) (A) (A)
                 (A) (A) (A) (A) (A) (A) (A) (A) (A) (A) (A) (A)
                 (A) (A) (A) (A) (A) (A) (A) (A) (A) (A) (A) (A)
                 (A) (A) (A) (A) (A) (A) (A) (A) (A) (A) (A) (A)
                 (A) (A) (A) (A) (A) (A) (A) (A) (A) (A) (A) (A)
                 (A) (A) (A) (A) (A) (A) (A) (A) (A) (A) (A) (A)
                 (A) (A) (A) (A) (A) (A) (A) (A) (A) (A) (A) (A)
                 (A) (A) (A) (A) (A) (A) (A) (A) (A) (A) (A) (A)
                 (A) (A) (A) (A) (A) (A) (A) (A) (A) (A) (A) (A)
                 (A) (A) (A) (A) (A) (A) (A) (A) (A) (A) (A) (A)
                 (A) (A) (A) (A) (A) (A) (A) (A) (A) (A) (A) (A)
                 (A) (A) (A) (A) (A) (A) (A) (A) (A) (A) (A) (A)
                 (A) (A) (A) (A) (A) (A) (A) (A) (A) (A) (A) (A)
                 (A) (A) (A) (A) (A) (A) (A) (A) (A) (A) (A) (A)
                 (A) (A) (A) (A) (A) (A) (A) (A) (A) (A) (A) (A)
                 (A) (A) (A) (A) (A) (A) (A) (A) (A) (A) (A) (A)
                 (A) (A) (A) (A) (A) (A) (A) (A) (A) (A) (A) (A)
                 (A) (A) (A) (A) (A) (A) (A) (A) (A) (A) (A) (A)
       Virtual   (A) (A) (A) (A) (A) (A) (A) (A) (A) (A) (A) (A)
                 (A) (A) (A) (A) (A) (A) (A) (A) (A) (A) (A) (A)
                 (A) (A) (A) (A) (A) (A) (A) (A) (A) (A) (A) (A)
                 (A) (A) (A) (A) (A) (A) (A) (A) (A) (A) (A) (A)
                 (A) (A) (A) (A) (A) (A) (A) (A) (A) (A) (A) (A)
                 (A) (A) (A) (A) (A) (A) (A) (A) (A) (A) (A) (A)
                 (A) (A) (A) (A) (A) (A) (A) (A) (A) (A) (A) (A)
                 (A) (A) (A) (A) (A) (A) (A) (A) (A) (A) (A) (A)
                 (A) (A) (A) (A) (A) (A) (A) (A) (A) (A) (A) (A)
                 (A) (A) (A) (A) (A) (A) (A) (A) (A) (A) (A) (A)
                 (A) (A) (A) (A) (A) (A) (A) (A) (A) (A) (A) (A)
                 (A) (A) (A) (A) (A) (A) (A) (A) (A) (A) (A) (A)
                 (A) (A) (A) (A) (A) (A) (A) (A) (A) (A) (A) (A)
                 (A) (A) (A) (A) (A) (A) (A) (A) (A) (A) (A) (A)
                 (A) (A) (A) (A) (A) (A) (A) (A) (A) (A) (A) (A)
                 (A) (A) (A) (A) (A) (A) (A) (A) (A) (A) (A) (A)
                 (A) (A) (A) (A) (A) (A) (A) (A) (A) (A) (A) (A)
                 (A) (A) (A) (A) (A) (A) (A) (A) (A) (A) (A) (A)
                 (A) (A) (A) (A) (A) (A) (A) (A) (A) (A) (A) (A)
                 (A) (A) (A) (A) (A) (A) (A) (A) (A) (A) (A) (A)
                 (A) (A) (A) (A) (A) (A) (A) (A) (A) (A) (A) (A)
                 (A) (A) (A) (A) (A) (A) (A) (A) (A) (A) (A) (A)
                 (A) (A) (A) (A) (A) (A) (A) (A) (A) (A) (A) (A)
                 (A) (A) (A) (A) (A) (A) (A) (A) (A) (A) (A) (A)
                 (A) (A) (A) (A) (A) (A) (A) (A) (A) (A) (A) (A)
                 (A) (A) (A) (A) (A) (A) (A) (A) (A) (A) (A) (A)
                 (A) (A) (A) (A) (A) (A) (A) (A) (A) (A) (A) (A)
                 (A) (A) (A) (A) (A) (A) (A) (A) (A) (A) (A) (A)
                 (A) (A) (A) (A) (A) (A) (A) (A) (A) (A) (A) (A)
                 (A) (A) (A) (A) (A) (A) (A) (A) (A) (A) (A) (A)
                 (A) (A) (A) (A) (A) (A) (A) (A) (A) (A) (A) (A)
                 (A) (A) (A) (A) (A) (A) (A) (A) (A) (A) (A) (A)
                 (A) (A) (A) (A) (A) (A) (A) (A) (A) (A) (A) (A)
                 (A) (A) (A) (A) (A) (A) (A) (A) (A) (A) (A) (A)
                 (A) (A) (A) (A) (A) (A) (A) (A) (A) (A) (A) (A)
                 (A) (A) (A) (A) (A) (A) (A) (A) (A) (A) (A) (A)
                 (A) (A) (A) (A) (A) (A) (A) (A) (A) (A) (A) (A)
                 (A) (A) (A) (A) (A) (A) (A) (A) (A) (A) (A) (A)
                 (A) (A) (A) (A) (A) (A) (A) (A) (A) (A) (A) (A)
                 (A) (A) (A) (A) (A) (A) (A) (A) (A) (A) (A) (A)
                 (A) (A) (A) (A) (A) (A) (A) (A) (A) (A) (A) (A)
                 (A) (A) (A) (A) (A) (A) (A) (A) (A) (A) (A) (A)
                 (A) (A) (A) (A) (A) (A) (A) (A) (A) (A) (A) (A)
                 (A) (A) (A) (A) (A) (A) (A) (A) (A) (A) (A) (A)
                 (A) (A) (A) (A) (A) (A) (A) (A) (A) (A) (A) (A)
                 (A) (A) (A) (A) (A) (A) (A) (A) (A) (A) (A) (A)
                 (A) (A) (A) (A) (A) (A) (A) (A) (A) (A) (A) (A)
                 (A) (A) (A) (A) (A) (A) (A) (A) (A) (A) (A) (A)
                 (A) (A) (A) (A) (A) (A) (A) (A) (A) (A) (A) (A)
                 (A) (A) (A) (A) (A) (A) (A) (A) (A) (A) (A) (A)
                 (A) (A) (A) (A) (A) (A) (A) (A) (A) (A) (A) (A)
                 (A) (A) (A) (A) (A) (A) (A) (A) (A) (A) (A) (A)
                 (A) (A) (A) (A) (A) (A) (A) (A) (A) (A) (A) (A)
                 (A) (A) (A) (A) (A) (A) (A) (A) (A) (A) (A) (A)
                 (A) (A) (A) (A) (A) (A) (A) (A) (A) (A) (A) (A)
                 (A) (A) (A) (A) (A) (A) (A) (A) (A) (A) (A) (A)
                 (A) (A) (A) (A) (A) (A) (A) (A) (A) (A) (A) (A)
                 (A) (A) (A) (A) (A) (A) (A) (A) (A) (A) (A) (A)
                 (A) (A) (A) (A) (A) (A) (A) (A) (A) (A) (A) (A)
                 (A) (A) (A) (A) (A) (A) (A) (A) (A) (A) (A) (A)
                 (A) (A) (A) (A) (A) (A) (A) (A) (A) (A) (A) (A)
                 (A) (A) (A) (A) (A) (A) (A) (A) (A) (A) (A) (A)
                 (A) (A) (A) (A) (A) (A) (A) (A) (A) (A) (A) (A)
                 (A) (A) (A) (A) (A) (A) (A) (A) (A) (A) (A) (A)
                 (A) (A) (A) (A) (A) (A) (A) (A) (A) (A) (A) (A)
                 (A) (A) (A) (A) (A) (A) (A) (A) (A) (A) (A) (A)
                 (A) (A) (A) (A) (A) (A) (A) (A) (A) (A) (A) (A)
                 (A) (A) (A) (A) (A) (A) (A) (A) (A) (A) (A) (A)
                 (A) (A) (A) (A) (A) (A) (A) (A) (A) (A) (A) (A)
                 (A) (A) (A) (A) (A) (A) (A) (A) (A) (A) (A) (A)
                 (A) (A) (A) (A) (A) (A) (A) (A) (A) (A) (A) (A)
                 (A) (A) (A) (A) (A) (A) (A) (A) (A) (A) (A) (A)
                 (A) (A) (A) (A) (A) (A) (A) (A) (A) (A) (A) (A)
                 (A) (A) (A) (A) (A) (A) (A) (A) (A) (A) (A) (A)
                 (A) (A) (A) (A) (A) (A) (A) (A) (A) (A) (A) (A)
                 (A) (A) (A) (A) (A) (A) (A) (A) (A) (A) (A) (A)
                 (A) (A) (A) (A) (A) (A) (A) (A) (A) (A) (A) (A)
                 (A) (A) (A) (A) (A) (A) (A) (A) (A) (A) (A) (A)
                 (A) (A) (A) (A) (A) (A) (A) (A) (A) (A) (A) (A)
                 (A) (A) (A) (A) (A) (A) (A) (A) (A) (A) (A) (A)
                 (A) (A) (A) (A) (A) (A) (A) (A) (A) (A) (A) (A)
                 (A) (A) (A) (A) (A) (A) (A) (A) (A) (A) (A) (A)
                 (A) (A) (A) (A) (A) (A) (A) (A) (A) (A) (A) (A)
                 (A) (A) (A) (A) (A) (A) (A) (A) (A) (A) (A) (A)
                 (A) (A) (A) (A) (A) (A) (A) (A) (A) (A) (A) (A)
                 (A) (A) (A) (A) (A) (A) (A) (A) (A) (A) (A) (A)
                 (A) (A) (A) (A) (A) (A) (A) (A) (A) (A) (A) (A)
                 (A) (A) (A) (A) (A) (A) (A) (A) (A) (A) (A) (A)
                 (A) (A) (A) (A) (A) (A) (A) (A) (A) (A) (A) (A)
                 (A) (A) (A) (A) (A) (A) (A) (A) (A) (A) (A) (A)
                 (A) (A) (A) (A) (A) (A) (A) (A) (A) (A) (A) (A)
                 (A) (A) (A) (A) (A) (A) (A) (A) (A) (A) (A) (A)
                 (A) (A) (A) (A) (A) (A) (A) (A) (A) (A) (A) (A)
                 (A) (A) (A) (A) (A) (A) (A) (A) (A) (A) (A) (A)
                 (A) (A) (A) (A) (A) (A) (A) (A) (A) (A) (A) (A)
                 (A) (A) (A) (A) (A) (A) (A) (A) (A) (A) (A) (A)
                 (A) (A) (A) (A) (A) (A) (A) (A) (A) (A) (A) (A)
                 (A) (A) (A) (A) (A) (A) (A) (A) (A) (A) (A) (A)
                 (A) (A) (A) (A) (A) (A) (A) (A) (A) (A) (A) (A)
                 (A) (A) (A) (A) (A) (A) (A) (A) (A) (A) (A) (A)
                 (A) (A) (A) (A) (A) (A) (A) (A) (A) (A) (A) (A)
                 (A) (A) (A) (A) (A) (A) (A) (A) (A) (A) (A) (A)
                 (A) (A) (A) (A) (A) (A) (A) (A) (A) (A) (A) (A)
                 (A) (A) (A) (A) (A) (A) (A) (A) (A) (A) (A) (A)
                 (A) (A) (A) (A) (A) (A) (A) (A) (A) (A) (A) (A)
    20 initial guesses have been made.
 Convergence on wavefunction:    0.001000000000000
 Davidson Disk Diagonalization:  ConvIn= 1.00D-03 SkipCon=T Conv= 1.00D-03.
 Max sub-space:  2000 roots to seek:    20 dimension of matrix:       549360
 Iteration     1 Dimension    20 NMult     0 NNew     20
 CISAX will form    20 AO SS matrices at one time.
 NMat=    20 NSing=    20 JSym2X= 0.
 FoFJK:  IHMeth= 1 ICntrl=       0 DoSepK=T KAlg= 0 I1Cent=           0 FoldK=F
 IRaf=         1 NMat=      40 IRICut=       1 DoRegI=T DoRafI=F ISym2E= 0 IDoP0=3 IntGTp=3.
 FoFCou: FMM=T IPFlag=           0 FMFlag=      100000 FMFlg1=        2001
         NFxFlg=           0 DoJE=F BraDBF=F KetDBF=F FulRan=T
         wScrn=  0.000000 ICntrl=       500 IOpCl=  0 I1Cent=           0 NGrid=           0
         NMat0=   20 NMatS0=     20 NMatT0=    0 NMatD0=   20 NMtDS0=    0 NMtDT0=    0
 Symmetry not used in FoFCou.
 FMM levels:  10  Number of levels for PrismC:   9
 New state      1 was old state      7
 New state      2 was old state      6
 New state      3 was old state      1
 New state      4 was old state      2
 New state      5 was old state      3
 Excitation Energies [eV] at current iteration:
 Root      1 :     2.612830207302526
 Root      2 :     2.620323006814726
 Root      3 :     2.649499610896104
 Root      4 :     2.661066253167229
 Root      5 :     2.710989998777395
 Root      6 :     2.741085731194775
 Root      7 :     3.439636401466006
 Root      8 :     3.541421345082938
 Root      9 :     3.631990809072528
 Root     10 :     3.671309145091866
 Root     11 :     3.732476359627070
 Root     12 :     3.757566838536338
 Root     13 :     4.287482552133915
 Root     14 :     4.324557737921486
 Root     15 :     4.555939849751383
 Root     16 :     4.673026905302701
 Root     17 :     4.865909250527317
 Root     18 :     4.898264149639072
 Root     19 :     4.967010239527370
 Root     20 :     4.998936509576540
 Iteration     2 Dimension    30 NMult    20 NNew     10
 CISAX will form    10 AO SS matrices at one time.
 NMat=    10 NSing=    10 JSym2X= 0.
 New state      1 was old state      4
 Root      1 not converged, maximum delta is    0.147548798768642
 New state      2 was old state      5
 Root      2 not converged, maximum delta is    0.153131262773451
 New state      3 was old state      2
 Root      3 not converged, maximum delta is    0.449364676225337
 New state      4 was old state      1
 Root      4 not converged, maximum delta is    0.442614067701215
 New state      5 was old state      3
 Root      5 not converged, maximum delta is    0.001224705101765
 Excitation Energies [eV] at current iteration:
 Root      1 :     1.791770286850928   Change is   -0.869295966316301
 Root      2 :     1.816727157614548   Change is   -0.894262841162847
 Root      3 :     2.234853449396036   Change is   -0.385469557418690
 Root      4 :     2.240652765709175   Change is   -0.372177441593350
 Root      5 :     2.649331509122046   Change is   -0.000168101774058
 Iteration     3 Dimension    40 NMult    30 NNew     10
 CISAX will form    10 AO SS matrices at one time.
 NMat=    10 NSing=    10 JSym2X= 0.
 Root      1 not converged, maximum delta is    0.054514738678509
 Root      2 not converged, maximum delta is    0.055337391443586
 Root      3 not converged, maximum delta is    0.094505935694057
 Root      4 not converged, maximum delta is    0.094047764513660
 Root      5 has converged.
 Excitation Energies [eV] at current iteration:
 Root      1 :     1.685324635807788   Change is   -0.106445651043140
 Root      2 :     1.707745059885288   Change is   -0.108982097729260
 Root      3 :     2.193986537807113   Change is   -0.040866911588923
 Root      4 :     2.201330989482483   Change is   -0.039321776226693
 Root      5 :     2.649330789572367   Change is   -0.000000719549678
 Iteration     4 Dimension    48 NMult    40 NNew      8
 CISAX will form     8 AO SS matrices at one time.
 NMat=     8 NSing=     8 JSym2X= 0.
 Root      1 not converged, maximum delta is    0.010496780819892
 Root      2 not converged, maximum delta is    0.010366993699937
 Root      3 not converged, maximum delta is    0.014403300967622
 Root      4 not converged, maximum delta is    0.014266593730574
 Root      5 has converged.
 Excitation Energies [eV] at current iteration:
 Root      1 :     1.668617785144706   Change is   -0.016706850663082
 Root      2 :     1.690858173036756   Change is   -0.016886886848532
 Root      3 :     2.186784236471092   Change is   -0.007202301336021
 Root      4 :     2.194511141256744   Change is   -0.006819848225738
 Root      5 :     2.649330789570475   Change is   -0.000000000001893
 Iteration     5 Dimension    56 NMult    48 NNew      8
 CISAX will form     8 AO SS matrices at one time.
 NMat=     8 NSing=     8 JSym2X= 0.
 Root      1 not converged, maximum delta is    0.001687289917142
 Root      2 not converged, maximum delta is    0.001740872133099
 Root      3 not converged, maximum delta is    0.002396193651095
 Root      4 not converged, maximum delta is    0.002276001013274
 Root      5 has converged.
 Excitation Energies [eV] at current iteration:
 Root      1 :     1.666870792471211   Change is   -0.001746992673495
 Root      2 :     1.689054105343887   Change is   -0.001804067692869
 Root      3 :     2.185944170548808   Change is   -0.000840065922284
 Root      4 :     2.193731404281591   Change is   -0.000779736975153
 Root      5 :     2.649330789570320   Change is   -0.000000000000155
 Iteration     6 Dimension    64 NMult    56 NNew      8
 CISAX will form     8 AO SS matrices at one time.
 NMat=     8 NSing=     8 JSym2X= 0.
 Root      1 not converged, maximum delta is    0.001055548293819
 Root      2 not converged, maximum delta is    0.001081973023600
 Root      3 not converged, maximum delta is    0.001006596556142
 Root      4 has converged.
 Root      5 has converged.
 Excitation Energies [eV] at current iteration:
 Root      1 :     1.666622371082713   Change is   -0.000248421388498
 Root      2 :     1.688795067600319   Change is   -0.000259037743568
 Root      3 :     2.185817792992865   Change is   -0.000126377555943
 Root      4 :     2.193612622826125   Change is   -0.000118781455466
 Root      5 :     2.649330789569606   Change is   -0.000000000000714
 Iteration     7 Dimension    70 NMult    64 NNew      6
 CISAX will form     6 AO SS matrices at one time.
 NMat=     6 NSing=     6 JSym2X= 0.
 Root      1 has converged.
 Root      2 has converged.
 Root      3 has converged.
 Root      4 has converged.
 Root      5 has converged.
 Excitation Energies [eV] at current iteration:
 Root      1 :     1.666598134595156   Change is   -0.000024236487557
[...]
 Alpha virt. eigenvalues --    1.84426   1.84573   1.84801   1.84855   1.85069
 Alpha virt. eigenvalues --    1.85166   1.85257   1.85421   1.85493   1.85551
 Alpha virt. eigenvalues --    1.85846   1.85959   1.86338   1.86441   1.86546
 Alpha virt. eigenvalues --    1.86710   1.86762   1.86872   1.87008   1.87081
 Alpha virt. eigenvalues --    1.87422   1.87537   1.87664   1.87819   1.87850
 Alpha virt. eigenvalues --    1.88021   1.88066   1.88237   1.88524   1.88639
 Alpha virt. eigenvalues --    1.88814   1.89003   1.89099   1.89114   1.89620
 Alpha virt. eigenvalues --    1.89728   1.89737   1.89940   1.90105   1.90253
 Alpha virt. eigenvalues --    1.90732   1.90946   1.91332   1.91425   1.91469
 Alpha virt. eigenvalues --    1.91654   1.92132   1.92236   1.92613   1.92707
 Alpha virt. eigenvalues --    1.92962   1.93205   1.93314   1.93549   1.94252
 Alpha virt. eigenvalues --    1.94347   1.94676   1.94873   1.95447   1.95628
 Alpha virt. eigenvalues --    1.95709   1.95860   1.95977   1.96098   1.96122
 Alpha virt. eigenvalues --    1.96222   1.96528   1.96570   1.96885   1.97000
 Alpha virt. eigenvalues --    1.97424   1.97578   1.97805   1.97845   1.98152
 Alpha virt. eigenvalues --    1.98220   1.98390   1.98662   1.99123   1.99127
 Alpha virt. eigenvalues --    1.99809   1.99993   2.00635   2.00772   2.00980
 Alpha virt. eigenvalues --    2.01151   2.01467   2.01549   2.01647   2.01661
 Alpha virt. eigenvalues --    2.01705   2.01874   2.02761   2.02770   2.03181
 Alpha virt. eigenvalues --    2.03216   2.03390   2.03433   2.03466   2.03571
 Alpha virt. eigenvalues --    2.04018   2.04074   2.04943   2.05034   2.05499
 Alpha virt. eigenvalues --    2.05688   2.06068   2.06344   2.06888   2.07081
 Alpha virt. eigenvalues --    2.07158   2.07393   2.08579   2.08617   2.08966
 Alpha virt. eigenvalues --    2.09056   2.09575   2.09667   2.10748   2.11071
 Alpha virt. eigenvalues --    2.11162   2.11460   2.11525   2.11579   2.11714
 Alpha virt. eigenvalues --    2.11934   2.12449   2.12516   2.12789   2.12812
 Alpha virt. eigenvalues --    2.12857   2.12920   2.13686   2.13756   2.14115
 Alpha virt. eigenvalues --    2.14294   2.15319   2.15460   2.15908   2.16133
 Alpha virt. eigenvalues --    2.16500   2.16646   2.16729   2.17220   2.17398
 Alpha virt. eigenvalues --    2.17689   2.17696   2.17989   2.18039   2.18044
 Alpha virt. eigenvalues --    2.18312   2.18722   2.18852   2.19282   2.19624
 Alpha virt. eigenvalues --    2.19873   2.20025   2.20185   2.20285   2.20495
 Alpha virt. eigenvalues --    2.21121   2.21211   2.21655   2.21721   2.21815
 Alpha virt. eigenvalues --    2.21922   2.22659   2.22758   2.23284   2.23382
 Alpha virt. eigenvalues --    2.24374   2.24457   2.24926   2.25055   2.26281
 Alpha virt. eigenvalues --    2.26492   2.26759   2.27056   2.27083   2.27252
 Alpha virt. eigenvalues --    2.28120   2.28372   2.29249   2.29491   2.29718
 Alpha virt. eigenvalues --    2.29933   2.30439   2.30669   2.30865   2.31059
 Alpha virt. eigenvalues --    2.31165   2.31242   2.32102   2.32291   2.33119
 Alpha virt. eigenvalues --    2.33289   2.33436   2.33521   2.34112   2.34178
 Alpha virt. eigenvalues --    2.35337   2.35352   2.35782   2.35970   2.36323
 Alpha virt. eigenvalues --    2.36393   2.36484   2.36607   2.37622   2.37710
 Alpha virt. eigenvalues --    2.38246   2.38439   2.38836   2.38845   2.39593
 Alpha virt. eigenvalues --    2.39716   2.40152   2.40298   2.40467   2.40876
 Alpha virt. eigenvalues --    2.41251   2.41254   2.41657   2.41729   2.42018
 Alpha virt. eigenvalues --    2.42169   2.42859   2.42915   2.43089   2.43521
 Alpha virt. eigenvalues --    2.44029   2.44158   2.44713   2.44857   2.44884
 Alpha virt. eigenvalues --    2.45033   2.45519   2.45616   2.46290   2.46342
 Alpha virt. eigenvalues --    2.46455   2.46544   2.46781   2.46843   2.47224
 Alpha virt. eigenvalues --    2.47408   2.47691   2.47928   2.49292   2.49439
 Alpha virt. eigenvalues --    2.49917   2.50033   2.50507   2.50521   2.51101
 Alpha virt. eigenvalues --    2.51307   2.51663   2.51869   2.52423   2.52430
 Alpha virt. eigenvalues --    2.52789   2.53211   2.53897   2.54015   2.54144
 Alpha virt. eigenvalues --    2.54335   2.54761   2.54838   2.55502   2.55708
 Alpha virt. eigenvalues --    2.57848   2.58126   2.58621   2.58945   2.60185
 Alpha virt. eigenvalues --    2.60338   2.60597   2.60968   2.61692   2.61866
 Alpha virt. eigenvalues --    2.62469   2.62513   2.62930   2.63159   2.63918
 Alpha virt. eigenvalues --    2.64209   2.64268   2.64443   2.65053   2.65130
 Alpha virt. eigenvalues --    2.65772   2.65897   2.66743   2.66847   2.66888
 Alpha virt. eigenvalues --    2.67100   2.67882   2.68014   2.68837   2.68853
 Alpha virt. eigenvalues --    2.69002   2.69062   2.69354   2.69622   2.69967
 Alpha virt. eigenvalues --    2.70164   2.70952   2.71097   2.71921   2.72032
 Alpha virt. eigenvalues --    2.72514   2.72629   2.72760   2.72809   2.73240
 Alpha virt. eigenvalues --    2.73308   2.73483   2.73508   2.74482   2.74532
 Alpha virt. eigenvalues --    2.74950   2.75084   2.76543   2.76560   2.77093
 Alpha virt. eigenvalues --    2.77204   2.77442   2.77647   2.78186   2.78341
 Alpha virt. eigenvalues --    2.78705   2.78715   2.79113   2.79186   2.80312
 Alpha virt. eigenvalues --    2.80332   2.80568   2.80713   2.81085   2.81179
 Alpha virt. eigenvalues --    2.81911   2.82017   2.82312   2.82357   2.83726
 Alpha virt. eigenvalues --    2.83754   2.83888   2.83924   2.84515   2.84551
 Alpha virt. eigenvalues --    2.84851   2.84903   2.85651   2.85724   2.86672
 Alpha virt. eigenvalues --    2.86969   2.87183   2.87585   2.88146   2.88279
 Alpha virt. eigenvalues --    2.88471   2.88626   2.88894   2.88906   2.90470
 Alpha virt. eigenvalues --    2.90674   2.91084   2.91156   2.93134   2.93350
 Alpha virt. eigenvalues --    2.93793   2.94174   2.94536   2.94594   2.95351
 Alpha virt. eigenvalues --    2.95497   2.95844   2.96177   2.96385   2.96406
 Alpha virt. eigenvalues --    2.96876   2.97154   2.97800   2.98066   2.98197
 Alpha virt. eigenvalues --    2.98326   2.98377   2.98566   2.98598   2.98791
 Alpha virt. eigenvalues --    2.98862   2.98944   2.99551   2.99820   3.00014
 Alpha virt. eigenvalues --    3.00029   3.00200   3.00373   3.00440   3.01015
 Alpha virt. eigenvalues --    3.01911   3.01950   3.02026   3.02147   3.02721
 Alpha virt. eigenvalues --    3.02845   3.02956   3.03315   3.03360   3.03730
 Alpha virt. eigenvalues --    3.04070   3.04128   3.04405   3.04441   3.04511
 Alpha virt. eigenvalues --    3.04728   3.05276   3.05386   3.06093   3.06179
 Alpha virt. eigenvalues --    3.06786   3.06959   3.07955   3.08128   3.09376
 Alpha virt. eigenvalues --    3.09387   3.09679   3.10423   3.10450   3.10766
 Alpha virt. eigenvalues --    3.11309   3.11488   3.11887   3.11927   3.12123
 Alpha virt. eigenvalues --    3.12323   3.13263   3.13612   3.13669   3.13708
 Alpha virt. eigenvalues --    3.14073   3.14480   3.15874   3.15979   3.17234
 Alpha virt. eigenvalues --    3.17537   3.17911   3.18069   3.19060   3.19108
 Alpha virt. eigenvalues --    3.22283   3.22605   3.23922   3.24460   3.24645
 Alpha virt. eigenvalues --    3.25208   3.26477   3.26678   3.27416   3.27596
 Alpha virt. eigenvalues --    3.29078   3.29226   3.31401   3.31502   3.33209
 Alpha virt. eigenvalues --    3.33395   3.40259   3.40612   3.42811   3.42853
 Alpha virt. eigenvalues --    3.48631   3.48716   3.49999   3.50307   3.50863
 Alpha virt. eigenvalues --    3.51455   3.56531   3.57031   3.59075   3.59360
 Alpha virt. eigenvalues --    3.62536   3.62813   3.66153   3.66190   3.67165
 Alpha virt. eigenvalues --    3.67544   3.73246   3.74026   3.76029   3.76687
          Condensed to atoms (all electrons):
 Mulliken charges:
               1
     1  Mg   0.838610
     2  C   -0.002921
     3  C   -0.094059
     4  C   -0.045824
     5  C   -0.064160
     6  N   -0.256808
     7  C   -0.052477
     8  C   -0.014019
     9  C   -0.087008
    10  C    0.046398
    11  C    0.104776
    12  C    0.053453
    13  C   -0.071965
    14  H    0.036448
    15  N   -0.433211
    16  C    0.168512
    17  C   -0.177011
    18  C   -0.003809
    19  C    0.148779
    20  C    0.110150
    21  C    0.012504
    22  O   -0.249238
    23  C    0.062372
    24  N   -0.341110
    25  C    0.041245
    26  C   -0.028306
    27  C   -0.023854
    28  C    0.074677
    29  C    0.076096
    30  C    0.035200
    31  C   -0.004434
    32  N   -0.310356
    33  C    0.080153
    34  C   -0.170222
    35  C    0.008271
    36  C    0.082760
    37  C    0.127443
    38  C    0.045859
    39  O   -0.188729
    40  C   -0.005220
    41  C    0.212820
    42  O   -0.257273
    43  O   -0.304760
    44  C    0.157665
    45  H   -0.017398
    46  H   -0.016571
    47  H   -0.041867
    48  H    0.000994
    49  H   -0.003916
    50  H    0.025504
    51  H    0.016471
    52  H    0.016821
    53  H    0.011154
    54  H    0.044103
    55  H    0.017916
    56  H    0.017983
    57  H    0.005929
    58  H    0.027085
    59  H    0.039740
    60  H    0.037350
    61  H    0.036262
    62  H    0.031553
    63  H    0.016716
    64  H    0.009488
    65  H    0.023476
    66  H    0.012701
    67  H    0.004752
    68  H    0.006520
    69  H    0.004298
    70  H    0.009288
    71  H    0.016879
    72  H    0.029000
    73  H    0.046979
    74  H    0.008720
    75  H    0.046135
    76  H    0.035239
    77  H    0.042963
    78  H    0.046599
    79  H    0.053716
    80  Mg   0.838043
    81  C   -0.016789
    82  C   -0.087373
    83  C   -0.045136
    84  C   -0.065085
    85  N   -0.254556
    86  C   -0.049878
    87  C   -0.015114
    88  C   -0.090522
    89  C    0.045699
    90  C    0.114160
    91  C    0.062551
    92  C   -0.077764
    93  H    0.034538
    94  N   -0.423690
    95  C    0.162957
    96  C   -0.173714
    97  C   -0.007531
    98  C    0.152367
    99  C    0.098966
   100  C    0.015909
   101  O   -0.253286
   102  C    0.061114
   103  N   -0.350012
   104  C    0.037716
   105  C   -0.019883
   106  C   -0.034597
   107  C    0.088832
   108  C    0.073598
   109  C    0.034837
   110  C   -0.007599
   111  N   -0.324008
   112  C    0.078305
   113  C   -0.163464
   114  C    0.002185
   115  C    0.096037
   116  C    0.131513
   117  C    0.042243
   118  O   -0.188265
   119  C    0.000939
   120  C    0.211198
   121  O   -0.251157
   122  O   -0.305586
   123  C    0.152114
   124  H   -0.018831
   125  H   -0.015532
   126  H   -0.041068
   127  H   -0.000794
   128  H   -0.004369
   129  H    0.022355
   130  H    0.015496
   131  H    0.016308
   132  H    0.013902
   133  H    0.037525
   134  H    0.020685
   135  H    0.019626
   136  H    0.009037
   137  H    0.027554
   138  H    0.039583
   139  H    0.039106
   140  H    0.036222
   141  H    0.033604
   142  H    0.014184
   143  H    0.011851
   144  H    0.024770
   145  H    0.012837
   146  H    0.005001
   147  H    0.005833
   148  H    0.003248
   149  H    0.010890
   150  H    0.017614
   151  H    0.030347
   152  H    0.045721
   153  H    0.008045
   154  H    0.046686
   155  H    0.035124
   156  H    0.043740
   157  H    0.049457
   158  H    0.053434
 Sum of Mulliken charges =  -0.00000
 Mulliken charges with hydrogens summed into heavy atoms:
               1
     1  Mg   0.838610
     2  C   -0.002921
     3  C   -0.111457
     4  C   -0.062395
     5  C   -0.106027
     6  N   -0.256808
     7  C   -0.052477
     8  C   -0.013025
     9  C   -0.090923
    10  C    0.046398
    11  C    0.163572
    12  C    0.108710
    13  C    0.000382
    15  N   -0.433211
    16  C    0.168512
    17  C   -0.177011
    18  C   -0.003809
    19  C    0.148779
    20  C    0.182904
    21  C    0.012504
    22  O   -0.249238
    23  C    0.167538
    24  N   -0.341110
    25  C    0.041245
    26  C   -0.011590
    27  C   -0.014366
    28  C    0.074677
    29  C    0.117025
    30  C    0.046018
    31  C    0.050733
    32  N   -0.310356
    33  C    0.080153
    34  C   -0.170222
    35  C    0.008271
    36  C    0.082760
    37  C    0.229277
    38  C    0.045859
    39  O   -0.188729
    40  C    0.030019
    41  C    0.212820
    42  O   -0.257273
    43  O   -0.304760
    44  C    0.300943
    80  Mg   0.838043
    81  C   -0.016789
    82  C   -0.106204
    83  C   -0.060669
    84  C   -0.106153
    85  N   -0.254556
    86  C   -0.049878
    87  C   -0.015908
    88  C   -0.094891
    89  C    0.045699
    90  C    0.168318
    91  C    0.113978
    92  C   -0.002915
    94  N   -0.423690
    95  C    0.162957
    96  C   -0.173714
    97  C   -0.007531
    98  C    0.152367
    99  C    0.175140
   100  C    0.015909
   101  O   -0.253286
   102  C    0.170047
   103  N   -0.350012
   104  C    0.037716
   105  C   -0.005699
   106  C   -0.022746
   107  C    0.088832
   108  C    0.116205
   109  C    0.043919
   110  C    0.051253
   111  N   -0.324008
   112  C    0.078305
   113  C   -0.163464
   114  C    0.002185
   115  C    0.096037
   116  C    0.231964
   117  C    0.042243
   118  O   -0.188265
   119  C    0.036063
   120  C    0.211198
   121  O   -0.251157
   122  O   -0.305586
   123  C    0.298745
 Electronic spatial extent (au):  <R**2>=         151067.8540
 Charge=             -0.0000 electrons
 Dipole moment (field-independent basis, Debye):
    X=              4.2748    Y=              0.8464    Z=              0.5312  Tot=              4.3900
 Quadrupole moment (field-independent basis, Debye-Ang):
   XX=           -522.0329   YY=           -545.3308   ZZ=           -451.9168
   XY=            -20.8189   XZ=             59.2909   YZ=             40.7362
 Traceless Quadrupole moment (field-independent basis, Debye-Ang):
   XX=            -15.6061   YY=            -38.9040   ZZ=             54.5101
   XY=            -20.8189   XZ=             59.2909   YZ=             40.7362
 Octapole moment (field-independent basis, Debye-Ang**2):
  XXX=            622.6292  YYY=            116.1108  ZZZ=            133.7235  XYY=            113.4884
  XXY=            137.9875  XXZ=             50.4944  XZZ=           -124.3764  YZZ=            -65.1312
  YYZ=           -171.6241  XYZ=             99.5338
 Hexadecapole moment (field-independent basis, Debye-Ang**3):
 XXXX=        -142499.5423 YYYY=         -41610.0211 ZZZZ=         -24547.8507 XXXY=           -913.1226
 XXXZ=           3673.2665 YYYX=           2365.0588 YYYZ=            950.0490 ZZZX=            671.2014
 ZZZY=            -37.6079 XXYY=         -30961.5137 XXZZ=         -25261.2778 YYZZ=         -10750.9646
 XXYZ=           2254.8352 YYXZ=           1436.5935 ZZXY=          -1128.9381
 N-N= 1.423748465064D+04 E-N=-3.795594169246D+04  KE= 4.028801761248D+03
 Leave Link  601 at Sat Sep  4 07:50:17 2021, MaxMem= 23488102400 cpu:              17.0 elap:               0.8
 (Enter /sw/apps/gaussian-16.0/g16/l9999.exe)
 1\1\GINC-BP1-COMPUTE00083\SP\RCAM-B3LYP TD-FC\def2SVP\C68H72Mg2N8O8\OF
 15641\04-Sep-2021\0\\#p cam-b3lyp/Def2SVP td=(nstates=5)\\TDDFT excite
 d states in gaussian\\0,1\Mg,0,0.,0.,0.\C,0,-0.217,-2.218,2.801\C,0,-1
 .255,2.442,2.026\C,0,-0.245,1.85,-2.564\C,0,0.146,-2.824,-2.037\N,0,-0
 .617,-0.009,2.126\C,0,-0.594,-0.908,3.105\C,0,-0.936,-0.309,4.502\C,0,
 -1.773,0.964,4.032\C,0,-1.155,1.168,2.66\C,0,-3.263,0.685,3.863\C,0,0.
 345,0.11,5.299\C,0,0.124,0.397,6.787\H,0,1.168,0.033,7.733\N,0,-0.185,
 1.961,-0.152\C,0,-0.703,2.8,0.777\C,0,-0.62,4.156,0.193\C,0,-0.187,4.0
 15,-1.225\C,0,-0.214,2.583,-1.38\C,0,-0.887,5.406,0.974\C,0,0.181,5.01
 3,-2.277\O,0,0.303,4.69,-3.508\C,0,0.31,6.414,-1.837\N,0,-0.265,-0.413
 ,-2.029\C,0,-0.279,0.569,-2.937\C,0,-0.196,0.024,-4.332\C,0,0.124,-1.5
 33,-4.18\C,0,0.086,-1.632,-2.635\C,0,-1.451,0.205,-5.197\C,0,1.373,-2.
 07,-4.923\C,0,2.626,-1.49,-4.306\N,0,0.15,-2.144,0.303\C,0,0.173,-3.13
 6,-0.688\C,0,0.173,-4.438,0.004\C,0,0.133,-4.111,1.358\C,0,0.083,-2.69
 5,1.502\C,0,0.149,-5.715,-0.623\C,0,0.096,-4.629,2.716\O,0,0.208,-5.74
 7,3.221\C,0,-0.255,-3.428,3.701\C,0,0.717,-3.482,4.848\O,0,1.931,-3.25
 5,4.669\O,0,0.038,-3.556,6.003\C,0,0.943,-3.583,7.183\H,0,-1.859,3.22,
 2.497\H,0,-0.218,2.453,-3.474\H,0,0.276,-3.747,-2.605\H,0,-1.554,-0.94
 9,5.132\H,0,-1.585,1.831,4.665\H,0,-3.484,-0.377,3.969\H,0,-3.511,1.02
 7,2.858\H,0,-3.852,1.301,4.543\H,0,0.669,1.096,4.966\H,0,1.13,-0.639,5
 .189\H,0,-0.844,0.026,7.125\H,0,0.062,1.477,6.921\H,0,-1.344,5.186,1.9
 38\H,0,-1.651,5.963,0.432\H,0,0.007,6.02,1.084\H,0,-0.635,6.744,-1.405
 \H,0,0.665,6.97,-2.704\H,0,1.048,6.466,-1.036\H,0,0.608,0.501,-4.891\H
 ,0,-0.692,-2.156,-4.547\H,0,-1.267,0.74,-6.129\H,0,-2.204,0.714,-4.596
 \H,0,-1.967,-0.72,-5.453\H,0,1.356,-1.759,-5.967\H,0,1.452,-3.157,-4.9
 02\H,0,2.714,-0.522,-4.798\H,0,3.487,-2.121,-4.529\H,0,2.495,-1.303,-3
 .24\H,0,0.867,-6.333,-0.084\H,0,0.404,-5.642,-1.68\H,0,-0.891,-5.999,-
 0.463\H,0,-1.283,-3.581,4.028\H,0,0.698,-4.478,7.755\H,0,0.833,-2.619,
 7.68\H,0,2.,-3.754,6.976\Mg,0,13.14666,1.17701,0.99447\C,0,13.12461,2.
 05283,-2.48569\C,0,12.6275,-2.05368,0.03127\C,0,12.71191,0.44037,4.049
 92\C,0,12.52188,4.53221,1.70012\N,0,12.92302,0.24506,-0.99895\C,0,12.9
 9412,0.66796,-2.25212\C,0,13.00196,-0.46457,-3.31367\C,0,12.27436,-1.6
 0738,-2.45144\C,0,12.65678,-1.13674,-1.04968\C,0,10.75954,-1.57711,-2.
 56874\C,0,14.45573,-0.89105,-3.72196\C,0,14.54102,-1.76954,-4.97205\H,
 0,15.68261,-1.59842,-5.86645\N,0,13.21866,-0.5798,1.9148\C,0,13.0043,-
 1.79458,1.36739\C,0,13.15372,-2.76254,2.46507\C,0,13.31108,-2.00771,3.
 73793\C,0,13.06034,-0.65714,3.27622\C,0,13.21801,-4.24522,2.23938\C,0,
 13.6216,-2.43271,5.1412\O,0,13.47531,-1.63554,6.13415\C,0,14.01247,-3.
 83744,5.32945\N,0,12.47542,2.27441,2.62771\C,0,12.43146,1.72919,3.8560
 1\C,0,12.1818,2.78053,4.91088\C,0,12.30845,4.18485,4.15626\C,0,12.5309
 5,3.67814,2.71434\C,0,10.82961,2.70398,5.61947\C,0,13.31642,5.21071,4.
 74301\C,0,14.72965,4.70253,4.57\N,0,13.05193,3.01348,-0.13974\C,0,12.7
 4998,4.30338,0.3492\C,0,12.69243,5.20854,-0.81691\C,0,12.94416,4.37145
 ,-1.91436\C,0,13.12446,3.03508,-1.46592\C,0,12.38791,6.59843,-0.7769\C
 ,0,13.08782,4.31259,-3.35123\O,0,13.12373,5.14607,-4.25552\C,0,13.0857
 4,2.78698,-3.79722\C,0,14.23099,2.58008,-4.75017\O,0,15.4062,2.70045,-
 4.36158\O,0,13.7597,2.06451,-5.90015\C,0,14.85974,1.8312,-6.87344\H,0,
 12.23961,-3.05656,-0.14946\H,0,12.65839,0.26065,5.12617\H,0,12.42941,5
 .61058,1.84586\H,0,12.42912,-0.25246,-4.20845\H,0,12.70021,-2.5866,-2.
 65429\H,0,10.41536,-0.71528,-3.12094\H,0,10.38635,-1.54962,-1.55335\H,
 0,10.39589,-2.51501,-2.9982\H,0,14.84704,-1.59153,-2.973\H,0,15.08581,
 -0.03112,-3.84094\H,0,13.60344,-1.76875,-5.54116\H,0,14.66305,-2.80902
 ,-4.65802\H,0,12.90837,-4.5109,1.22108\H,0,12.45643,-4.69983,2.88217\H
 ,0,14.19255,-4.66799,2.49277\H,0,13.21731,-4.48511,4.96792\H,0,14.2806
 1,-3.92737,6.38391\H,0,14.89183,-4.04211,4.7086\H,0,12.9319,2.73172,5.
 69067\H,0,11.35492,4.73313,4.15304\H,0,10.91734,2.61419,6.7187\H,0,10.
 27784,1.86708,5.21241\H,0,10.15874,3.53919,5.42569\H,0,13.15732,5.3255
 8,5.81802\H,0,13.23686,6.19714,4.29847\H,0,14.85737,4.0324,5.4254\H,0,
 15.43983,5.52624,4.60442\H,0,14.82173,4.09744,3.66059\H,0,13.08981,7.0
 9007,-1.4373\H,0,12.45226,6.99054,0.23596\H,0,11.35918,6.58343,-1.1466
 8\H,0,12.12182,2.58384,-4.26537\H,0,14.5952,2.36851,-7.78941\H,0,14.96
 576,0.7325,-6.94673\H,0,15.82828,2.26187,-6.64785\\Version=ES64L-G16Re
 vA.03\State=1-A\HF=-4069.8118192\RMSD=7.042e-09\PG=C01 [X(C68H72Mg2N8O
 8)]\\@


  THE LARGE PRINT GIVETH,
  AND THE SMALL PRINT TAKETH AWAY.

                     -- TOM WAITS
 Job cpu time:       0 days 12 hours  2 minutes 12.6 seconds.
 Elapsed time:       0 days  0 hours 30 minutes 40.7 seconds.
 File lengths (MBytes):  RWF=  13225 Int=      0 D2E=      0 Chk=    574 Scr=      1
 Normal termination of Gaussian 16 at Sat Sep  4 07:50:18 2021.
