 Entering Gaussian System, Link 0=g16
 Initial command:
 /sw/apps/gaussian-16.0/g16/l1.exe "/tmp/Gau-244112.inp" -scrdir="/tmp/"
 Entering Link 1 = /sw/apps/gaussian-16.0/g16/l1.exe PID=    244113.
  
 Copyright (c) 1988,1990,1992,1993,1995,1998,2003,2009,2016,
            Gaussian, Inc.  All Rights Reserved.
  
 This is part of the Gaussian(R) 16 program.  It is based on
 the Gaussian(R) 09 system (copyright 2009, Gaussian, Inc.),
 the Gaussian(R) 03 system (copyright 2003, Gaussian, Inc.),
 the Gaussian(R) 98 system (copyright 1998, Gaussian, Inc.),
 the Gaussian(R) 94 system (copyright 1995, Gaussian, Inc.),
 the Gaussian 92(TM) system (copyright 1992, Gaussian, Inc.),
 the Gaussian 90(TM) system (copyright 1990, Gaussian, Inc.),
 the Gaussian 88(TM) system (copyright 1988, Gaussian, Inc.),
 the Gaussian 86(TM) system (copyright 1986, Carnegie Mellon
 University), and the Gaussian 82(TM) system (copyright 1983,
 Carnegie Mellon University). Gaussian is a federally registered
 trademark of Gaussian, Inc.
  
 This software contains proprietary and confidential information,
 including trade secrets, belonging to Gaussian, Inc.
  
 This software is provided under written license and may be
 used, copied, transmitted, or stored only in accord with that
 written license.
  
 The following legend is applicable only to US Government
 contracts under FAR:
  
                    RESTRICTED RIGHTS LEGEND
  
 Use, reproduction and disclosure by the US Government is
 subject to restrictions as set forth in subparagraphs (a)
 and (c) of the Commercial Computer Software - Restricted
 Rights clause in FAR 52.227-19.
  
 Gaussian, Inc.
 340 Quinnipiac St., Bldg. 40, Wallingford CT 06492
  
  
 ---------------------------------------------------------------
 Warning -- This program may not be used in any manner that
 competes with the business of Gaussian, Inc. or will provide
 assistance to any competitor of Gaussian, Inc.  The licensee
 of this program is prohibited from giving any competitor of
 Gaussian, Inc. access to this program.  By using this program,
 the user acknowledges that Gaussian, Inc. is engaged in the
 business of creating and licensing software in the field of
 computational chemistry and represents and warrants to the
 licensee that it is not a competitor of Gaussian, Inc. and that
 it will not use this program in any manner prohibited above.
 ---------------------------------------------------------------
  

 Cite this work as:
 Gaussian 16, Revision A.03,
 M. J. Frisch, G. W. Trucks, H. B. Schlegel, G. E. Scuseria, 
 M. A. Robb, J. R. Cheeseman, G. Scalmani, V. Barone, 
 G. A. Petersson, H. Nakatsuji, X. Li, M. Caricato, A. V. Marenich, 
 J. Bloino, B. G. Janesko, R. Gomperts, B. Mennucci, H. P. Hratchian, 
 J. V. Ortiz, A. F. Izmaylov, J. L. Sonnenberg, D. Williams-Young, 
 F. Ding, F. Lipparini, F. Egidi, J. Goings, B. Peng, A. Petrone, 
 T. Henderson, D. Ranasinghe, V. G. Zakrzewski, J. Gao, N. Rega, 
 G. Zheng, W. Liang, M. Hada, M. Ehara, K. Toyota, R. Fukuda, 
 J. Hasegawa, M. Ishida, T. Nakajima, Y. Honda, O. Kitao, H. Nakai, 
 T. Vreven, K. Throssell, J. A. Montgomery, Jr., J. E. Peralta, 
 F. Ogliaro, M. J. Bearpark, J. J. Heyd, E. N. Brothers, K. N. Kudin, 
 V. N. Staroverov, T. A. Keith, R. Kobayashi, J. Normand, 
 K. Raghavachari, A. P. Rendell, J. C. Burant, S. S. Iyengar, 
 J. Tomasi, M. Cossi, J. M. Millam, M. Klene, C. Adamo, R. Cammi, 
 J. W. Ochterski, R. L. Martin, K. Morokuma, O. Farkas, 
 J. B. Foresman, and D. J. Fox, Gaussian, Inc., Wallingford CT, 2016.
 
 ******************************************
 Gaussian 16:  ES64L-G16RevA.03 25-Dec-2016
                 4-Sep-2021 
 ******************************************
 %nproc=24
 Will use up to   24 processors via shared memory.
 %mem=175gb
 -----------------------------------
 #p cam-b3lyp/Def2SVP td=(nstates=5)
 -----------------------------------
 1/38=1,172=1/1;
 2/12=2,17=6,18=5,40=1/2;
 3/5=43,7=101,11=9,25=1,30=1,74=-40/1,2,3,8;
 4//1;
 5/5=2,38=5/2;
 8/6=1,10=1,108=5/1;
 9/41=5,42=1,70=2/14;
 6/7=2,8=2,9=2,10=2/1;
 99/5=1,9=1/99;
 Leave Link    1 at Sat Sep  4 15:20:47 2021, MaxMem= 23488102400 cpu:               0.8 elap:               0.0
 (Enter /sw/apps/gaussian-16.0/g16/l101.exe)
 --------------------------------
 TDDFT excited states in gaussian
 --------------------------------
 Symbolic Z-matrix:
 Charge =  0 Multiplicity = 1
 Mg                    0.        0.        0. 
 C                    -0.217    -2.218     2.801 
 C                    -1.255     2.442     2.026 
 C                    -0.245     1.85     -2.564 
 C                     0.146    -2.824    -2.037 
 N                    -0.617    -0.009     2.126 
 C                    -0.594    -0.908     3.105 
 C                    -0.936    -0.309     4.502 
 C                    -1.773     0.964     4.032 
 C                    -1.155     1.168     2.66 
 C                    -3.263     0.685     3.863 
 C                     0.345     0.11      5.299 
 C                     0.124     0.397     6.787 
 H                     1.168     0.033     7.733 
 N                    -0.185     1.961    -0.152 
 C                    -0.703     2.8       0.777 
 C                    -0.62      4.156     0.193 
 C                    -0.187     4.015    -1.225 
 C                    -0.214     2.583    -1.38 
 C                    -0.887     5.406     0.974 
 C                     0.181     5.013    -2.277 
 O                     0.303     4.69     -3.508 
 C                     0.31      6.414    -1.837 
 N                    -0.265    -0.413    -2.029 
 C                    -0.279     0.569    -2.937 
 C                    -0.196     0.024    -4.332 
 C                     0.124    -1.533    -4.18 
 C                     0.086    -1.632    -2.635 
 C                    -1.451     0.205    -5.197 
 C                     1.373    -2.07     -4.923 
 C                     2.626    -1.49     -4.306 
 N                     0.15     -2.144     0.303 
 C                     0.173    -3.136    -0.688 
 C                     0.173    -4.438     0.004 
 C                     0.133    -4.111     1.358 
 C                     0.083    -2.695     1.502 
 C                     0.149    -5.715    -0.623 
 C                     0.096    -4.629     2.716 
 O                     0.208    -5.747     3.221 
 C                    -0.255    -3.428     3.701 
 C                     0.717    -3.482     4.848 
 O                     1.931    -3.255     4.669 
 O                     0.038    -3.556     6.003 
 C                     0.943    -3.583     7.183 
 H                    -1.859     3.22      2.497 
 H                    -0.218     2.453    -3.474 
 H                     0.276    -3.747    -2.605 
 H                    -1.554    -0.949     5.132 
 H                    -1.585     1.831     4.665 
 H                    -3.484    -0.377     3.969 
 H                    -3.511     1.027     2.858 
 H                    -3.852     1.301     4.543 
 H                     0.669     1.096     4.966 
 H                     1.13     -0.639     5.189 
 H                    -0.844     0.026     7.125 
 H                     0.062     1.477     6.921 
 H                    -1.344     5.186     1.938 
 H                    -1.651     5.963     0.432 
 H                     0.007     6.02      1.084 
 H                    -0.635     6.744    -1.405 
 H                     0.665     6.97     -2.704 
 H                     1.048     6.466    -1.036 
 H                     0.608     0.501    -4.891 
 H                    -0.692    -2.156    -4.547 
 H                    -1.267     0.74     -6.129 
 H                    -2.204     0.714    -4.596 
 H                    -1.967    -0.72     -5.453 
 H                     1.356    -1.759    -5.967 
 H                     1.452    -3.157    -4.902 
 H                     2.714    -0.522    -4.798 
 H                     3.487    -2.121    -4.529 
 H                     2.495    -1.303    -3.24 
 H                     0.867    -6.333    -0.084 
 H                     0.404    -5.642    -1.68 
 H                    -0.891    -5.999    -0.463 
 H                    -1.283    -3.581     4.028 
 H                     0.698    -4.478     7.755 
 H                     0.833    -2.619     7.68 
 H                     2.       -3.754     6.976 
 Mg                    15.77302   1.41871   1.20581 
 C                     15.84565  -2.13158   1.7247 
 C                     14.62059   1.71196   4.40276 
 C                     15.26997   4.4993    0.63634 
 C                     15.8217   0.77917  -2.21973 
 N                     15.33139  -0.08819   2.76352 
 C                     15.4558  -1.40274   2.86761 
 C                     15.22255  -1.95965   4.29765 
 C                     14.307   -0.77185   4.87191 
 C                     14.80286   0.36915   3.98595 
 C                     12.82425  -0.97283   4.60659 
 C                     16.55782  -2.09963   5.10974 
 C                     16.44546  -2.92219   6.39524 
 H                     17.57923  -3.75297   6.7913 
 N                     15.52484   2.93347   2.46377 
 C                     15.06876   2.8713    3.7324 
 C                     15.05233   4.2583    4.22244 
 C                     15.37939   5.16134   3.08566 
 C                     15.38376   4.21384   1.98916 
 C                     14.82488   4.60929   5.66414 
 C                     15.63216   6.63598   2.99778 
 O                     15.6635   7.24786   1.87197 
 C                     15.74897   7.35825   4.273 
 N                     15.36092   2.48232  -0.53236 
 C                     15.23904   3.82121  -0.51107 
 C                     15.21927   4.38946  -1.91003 
 C                     15.59795   3.17095  -2.87409 
 C                     15.68773   2.03869  -1.82751 
 C                     13.89315   5.00153  -2.36075 
 C                     16.79702   3.38289  -3.83844 
 C                     18.08182   3.48913  -3.04888 
 N                     16.00967  -0.32509  -0.04767 
 C                     15.97247  -0.37285  -1.45849 
 C                     16.06546  -1.79469  -1.84858 
 C                     16.12762  -2.48263  -0.62737 
 C                     16.05661  -1.55652   0.44816 
 C                     16.03539  -2.29553  -3.18063 
 C                     16.22647  -3.7825   -0.00344 
 O                     16.40294  -4.93016  -0.41021 
 C                     15.92092  -3.62282   1.54818 
 C                     16.98418  -4.36572   2.30983 
 O                     18.1686  -3.98841   2.27262 
 O                     16.39787  -5.26162   3.12467 
 C                     17.41125  -6.01586   3.90953 
 H                     14.04295   1.9003    5.30816 
 H                     15.20587   5.55981   0.382 
 H                     15.94188   0.50442  -3.26984 
 H                     14.6823  -2.8979    4.33723 
 H                     14.53175  -0.56931   5.91586 
 H                     12.64084  -1.82565   3.97004 
 H                     12.48517  -0.0635    4.12785 
 H                     12.27758  -1.03774   5.55172 
 H                     16.82277  -1.12276   5.53431 
 H                     17.33909  -2.4987    4.4925 
 H                     15.51364  -3.4993    6.43519 
 H                     16.37161  -2.235     7.2416 
 H                     14.44812   3.75011   6.23271 
 H                     14.00391   5.33395   5.69114 
 H                     15.70489   5.05457   6.13314 
 H                     14.83636   7.22419   4.84887 
 H                     16.01727   8.38211   4.00543 
 H                     16.55892   6.90759   4.85739 
 H                     15.96242   5.16952  -2.02112 
 H                     14.76809   2.91119  -3.54766 
 H                     13.98544   6.05712  -2.67901 
 H                     13.18188   4.90938  -1.55073 
 H                     13.39179   4.47289  -3.16969 
 H                     16.68609   4.32606  -4.37908 
 H                     16.89953   2.5971   -4.5794 
 H                     18.0963   4.53899  -2.74122 
 H                     18.93798   3.24987  -3.6764 
 H                     18.0361   2.87957  -2.13893 
 H                     16.80456  -3.05358  -3.24567 
 H                     16.19574  -1.50196  -3.90748 
 H                     15.01536  -2.68714  -3.21878 
 H                     14.92612  -4.03139   1.72992 
 H                     17.23566  -7.07926   3.71973 
 H                     17.30199  -5.66571   4.95318 
 H                     18.44923  -5.91688   3.61416 
 
 ITRead=  0  0  0  0  0  0  0  0  0  0  0  0  0  0  0  0  0  0  0  0
 ITRead=  0  0  0  0  0  0  0  0  0  0  0  0  0  0  0  0  0  0  0  0
 ITRead=  0  0  0  0  0  0  0  0  0  0  0  0  0  0  0  0  0  0  0  0
 ITRead=  0  0  0  0  0  0  0  0  0  0  0  0  0  0  0  0  0  0  0  0
 ITRead=  0  0  0  0  0  0  0  0  0  0  0  0  0  0  0  0  0  0  0  0
 ITRead=  0  0  0  0  0  0  0  0  0  0  0  0  0  0  0  0  0  0  0  0
 ITRead=  0  0  0  0  0  0  0  0  0  0  0  0  0  0  0  0  0  0  0  0
 ITRead=  0  0  0  0  0  0  0  0  0  0  0  0  0  0  0  0  0  0
 MicOpt= -1 -1 -1 -1 -1 -1 -1 -1 -1 -1 -1 -1 -1 -1 -1 -1 -1 -1 -1 -1
 MicOpt= -1 -1 -1 -1 -1 -1 -1 -1 -1 -1 -1 -1 -1 -1 -1 -1 -1 -1 -1 -1
 MicOpt= -1 -1 -1 -1 -1 -1 -1 -1 -1 -1 -1 -1 -1 -1 -1 -1 -1 -1 -1 -1
 MicOpt= -1 -1 -1 -1 -1 -1 -1 -1 -1 -1 -1 -1 -1 -1 -1 -1 -1 -1 -1 -1
 MicOpt= -1 -1 -1 -1 -1 -1 -1 -1 -1 -1 -1 -1 -1 -1 -1 -1 -1 -1 -1 -1
 MicOpt= -1 -1 -1 -1 -1 -1 -1 -1 -1 -1 -1 -1 -1 -1 -1 -1 -1 -1 -1 -1
 MicOpt= -1 -1 -1 -1 -1 -1 -1 -1 -1 -1 -1 -1 -1 -1 -1 -1 -1 -1 -1 -1
 MicOpt= -1 -1 -1 -1 -1 -1 -1 -1 -1 -1 -1 -1 -1 -1 -1 -1 -1 -1
 NAtoms=    158 NQM=      158 NQMF=       0 NMMI=      0 NMMIF=      0
                NMic=       0 NMicF=      0.
                    Isotopes and Nuclear Properties:
 (Nuclear quadrupole moments (NQMom) in fm**2, nuclear magnetic moments (NMagM)
  in nuclear magnetons)

  Atom         1           2           3           4           5           6           7           8           9          10
 IAtWgt=          24          12          12          12          12          14          12          12          12          12
 AtmWgt=  23.9850450  12.0000000  12.0000000  12.0000000  12.0000000  14.0030740  12.0000000  12.0000000  12.0000000  12.0000000
 NucSpn=           0           0           0           0           0           2           0           0           0           0
 AtZEff=  -0.0000000  -0.0000000  -0.0000000  -0.0000000  -0.0000000  -0.0000000  -0.0000000  -0.0000000  -0.0000000  -0.0000000
 NQMom=    0.0000000   0.0000000   0.0000000   0.0000000   0.0000000   2.0440000   0.0000000   0.0000000   0.0000000   0.0000000
 NMagM=    0.0000000   0.0000000   0.0000000   0.0000000   0.0000000   0.4037610   0.0000000   0.0000000   0.0000000   0.0000000
 AtZNuc=  12.0000000   6.0000000   6.0000000   6.0000000   6.0000000   7.0000000   6.0000000   6.0000000   6.0000000   6.0000000

  Atom        11          12          13          14          15          16          17          18          19          20
 IAtWgt=          12          12          12           1          14          12          12          12          12          12
 AtmWgt=  12.0000000  12.0000000  12.0000000   1.0078250  14.0030740  12.0000000  12.0000000  12.0000000  12.0000000  12.0000000
 NucSpn=           0           0           0           1           2           0           0           0           0           0
 AtZEff=  -0.0000000  -0.0000000  -0.0000000  -0.0000000  -0.0000000  -0.0000000  -0.0000000  -0.0000000  -0.0000000  -0.0000000
 NQMom=    0.0000000   0.0000000   0.0000000   0.0000000   2.0440000   0.0000000   0.0000000   0.0000000   0.0000000   0.0000000
 NMagM=    0.0000000   0.0000000   0.0000000   2.7928460   0.4037610   0.0000000   0.0000000   0.0000000   0.0000000   0.0000000
 AtZNuc=   6.0000000   6.0000000   6.0000000   1.0000000   7.0000000   6.0000000   6.0000000   6.0000000   6.0000000   6.0000000

  Atom        21          22          23          24          25          26          27          28          29          30
 IAtWgt=          12          16          12          14          12          12          12          12          12          12
 AtmWgt=  12.0000000  15.9949146  12.0000000  14.0030740  12.0000000  12.0000000  12.0000000  12.0000000  12.0000000  12.0000000
 NucSpn=           0           0           0           2           0           0           0           0           0           0
 AtZEff=  -0.0000000  -0.0000000  -0.0000000  -0.0000000  -0.0000000  -0.0000000  -0.0000000  -0.0000000  -0.0000000  -0.0000000
 NQMom=    0.0000000   0.0000000   0.0000000   2.0440000   0.0000000   0.0000000   0.0000000   0.0000000   0.0000000   0.0000000
 NMagM=    0.0000000   0.0000000   0.0000000   0.4037610   0.0000000   0.0000000   0.0000000   0.0000000   0.0000000   0.0000000
 AtZNuc=   6.0000000   8.0000000   6.0000000   7.0000000   6.0000000   6.0000000   6.0000000   6.0000000   6.0000000   6.0000000

  Atom        31          32          33          34          35          36          37          38          39          40
 IAtWgt=          12          14          12          12          12          12          12          12          16          12
 AtmWgt=  12.0000000  14.0030740  12.0000000  12.0000000  12.0000000  12.0000000  12.0000000  12.0000000  15.9949146  12.0000000
 NucSpn=           0           2           0           0           0           0           0           0           0           0
 AtZEff=  -0.0000000  -0.0000000  -0.0000000  -0.0000000  -0.0000000  -0.0000000  -0.0000000  -0.0000000  -0.0000000  -0.0000000
 NQMom=    0.0000000   2.0440000   0.0000000   0.0000000   0.0000000   0.0000000   0.0000000   0.0000000   0.0000000   0.0000000
 NMagM=    0.0000000   0.4037610   0.0000000   0.0000000   0.0000000   0.0000000   0.0000000   0.0000000   0.0000000   0.0000000
 AtZNuc=   6.0000000   7.0000000   6.0000000   6.0000000   6.0000000   6.0000000   6.0000000   6.0000000   8.0000000   6.0000000

  Atom        41          42          43          44          45          46          47          48          49          50
 IAtWgt=          12          16          16          12           1           1           1           1           1           1
 AtmWgt=  12.0000000  15.9949146  15.9949146  12.0000000   1.0078250   1.0078250   1.0078250   1.0078250   1.0078250   1.0078250
 NucSpn=           0           0           0           0           1           1           1           1           1           1
 AtZEff=  -0.0000000  -0.0000000  -0.0000000  -0.0000000  -0.0000000  -0.0000000  -0.0000000  -0.0000000  -0.0000000  -0.0000000
 NQMom=    0.0000000   0.0000000   0.0000000   0.0000000   0.0000000   0.0000000   0.0000000   0.0000000   0.0000000   0.0000000
 NMagM=    0.0000000   0.0000000   0.0000000   0.0000000   2.7928460   2.7928460   2.7928460   2.7928460   2.7928460   2.7928460
 AtZNuc=   6.0000000   8.0000000   8.0000000   6.0000000   1.0000000   1.0000000   1.0000000   1.0000000   1.0000000   1.0000000

  Atom        51          52          53          54          55          56          57          58          59          60
 IAtWgt=           1           1           1           1           1           1           1           1           1           1
 AtmWgt=   1.0078250   1.0078250   1.0078250   1.0078250   1.0078250   1.0078250   1.0078250   1.0078250   1.0078250   1.0078250
 NucSpn=           1           1           1           1           1           1           1           1           1           1
 AtZEff=  -0.0000000  -0.0000000  -0.0000000  -0.0000000  -0.0000000  -0.0000000  -0.0000000  -0.0000000  -0.0000000  -0.0000000
 NQMom=    0.0000000   0.0000000   0.0000000   0.0000000   0.0000000   0.0000000   0.0000000   0.0000000   0.0000000   0.0000000
 NMagM=    2.7928460   2.7928460   2.7928460   2.7928460   2.7928460   2.7928460   2.7928460   2.7928460   2.7928460   2.7928460
 AtZNuc=   1.0000000   1.0000000   1.0000000   1.0000000   1.0000000   1.0000000   1.0000000   1.0000000   1.0000000   1.0000000

  Atom        61          62          63          64          65          66          67          68          69          70
 IAtWgt=           1           1           1           1           1           1           1           1           1           1
 AtmWgt=   1.0078250   1.0078250   1.0078250   1.0078250   1.0078250   1.0078250   1.0078250   1.0078250   1.0078250   1.0078250
 NucSpn=           1           1           1           1           1           1           1           1           1           1
 AtZEff=  -0.0000000  -0.0000000  -0.0000000  -0.0000000  -0.0000000  -0.0000000  -0.0000000  -0.0000000  -0.0000000  -0.0000000
 NQMom=    0.0000000   0.0000000   0.0000000   0.0000000   0.0000000   0.0000000   0.0000000   0.0000000   0.0000000   0.0000000
 NMagM=    2.7928460   2.7928460   2.7928460   2.7928460   2.7928460   2.7928460   2.7928460   2.7928460   2.7928460   2.7928460
 AtZNuc=   1.0000000   1.0000000   1.0000000   1.0000000   1.0000000   1.0000000   1.0000000   1.0000000   1.0000000   1.0000000

  Atom        71          72          73          74          75          76          77          78          79          80
 IAtWgt=           1           1           1           1           1           1           1           1           1          24
 AtmWgt=   1.0078250   1.0078250   1.0078250   1.0078250   1.0078250   1.0078250   1.0078250   1.0078250   1.0078250  23.9850450
 NucSpn=           1           1           1           1           1           1           1           1           1           0
 AtZEff=  -0.0000000  -0.0000000  -0.0000000  -0.0000000  -0.0000000  -0.0000000  -0.0000000  -0.0000000  -0.0000000  -0.0000000
 NQMom=    0.0000000   0.0000000   0.0000000   0.0000000   0.0000000   0.0000000   0.0000000   0.0000000   0.0000000   0.0000000
 NMagM=    2.7928460   2.7928460   2.7928460   2.7928460   2.7928460   2.7928460   2.7928460   2.7928460   2.7928460   0.0000000
 AtZNuc=   1.0000000   1.0000000   1.0000000   1.0000000   1.0000000   1.0000000   1.0000000   1.0000000   1.0000000  12.0000000

  Atom        81          82          83          84          85          86          87          88          89          90
 IAtWgt=          12          12          12          12          14          12          12          12          12          12
 AtmWgt=  12.0000000  12.0000000  12.0000000  12.0000000  14.0030740  12.0000000  12.0000000  12.0000000  12.0000000  12.0000000
 NucSpn=           0           0           0           0           2           0           0           0           0           0
 AtZEff=  -0.0000000  -0.0000000  -0.0000000  -0.0000000  -0.0000000  -0.0000000  -0.0000000  -0.0000000  -0.0000000  -0.0000000
 NQMom=    0.0000000   0.0000000   0.0000000   0.0000000   2.0440000   0.0000000   0.0000000   0.0000000   0.0000000   0.0000000
 NMagM=    0.0000000   0.0000000   0.0000000   0.0000000   0.4037610   0.0000000   0.0000000   0.0000000   0.0000000   0.0000000
 AtZNuc=   6.0000000   6.0000000   6.0000000   6.0000000   7.0000000   6.0000000   6.0000000   6.0000000   6.0000000   6.0000000

  Atom        91          92          93          94          95          96          97          98          99         100
 IAtWgt=          12          12           1          14          12          12          12          12          12          12
 AtmWgt=  12.0000000  12.0000000   1.0078250  14.0030740  12.0000000  12.0000000  12.0000000  12.0000000  12.0000000  12.0000000
 NucSpn=           0           0           1           2           0           0           0           0           0           0
 AtZEff=  -0.0000000  -0.0000000  -0.0000000  -0.0000000  -0.0000000  -0.0000000  -0.0000000  -0.0000000  -0.0000000  -0.0000000
 NQMom=    0.0000000   0.0000000   0.0000000   2.0440000   0.0000000   0.0000000   0.0000000   0.0000000   0.0000000   0.0000000
 NMagM=    0.0000000   0.0000000   2.7928460   0.4037610   0.0000000   0.0000000   0.0000000   0.0000000   0.0000000   0.0000000
 AtZNuc=   6.0000000   6.0000000   1.0000000   7.0000000   6.0000000   6.0000000   6.0000000   6.0000000   6.0000000   6.0000000

  Atom       101         102         103         104         105         106         107         108         109         110
 IAtWgt=          16          12          14          12          12          12          12          12          12          12
 AtmWgt=  15.9949146  12.0000000  14.0030740  12.0000000  12.0000000  12.0000000  12.0000000  12.0000000  12.0000000  12.0000000
 NucSpn=           0           0           2           0           0           0           0           0           0           0
 AtZEff=  -0.0000000  -0.0000000  -0.0000000  -0.0000000  -0.0000000  -0.0000000  -0.0000000  -0.0000000  -0.0000000  -0.0000000
 NQMom=    0.0000000   0.0000000   2.0440000   0.0000000   0.0000000   0.0000000   0.0000000   0.0000000   0.0000000   0.0000000
 NMagM=    0.0000000   0.0000000   0.4037610   0.0000000   0.0000000   0.0000000   0.0000000   0.0000000   0.0000000   0.0000000
 AtZNuc=   8.0000000   6.0000000   7.0000000   6.0000000   6.0000000   6.0000000   6.0000000   6.0000000   6.0000000   6.0000000

  Atom       111         112         113         114         115         116         117         118         119         120
 IAtWgt=          14          12          12          12          12          12          12          16          12          12
 AtmWgt=  14.0030740  12.0000000  12.0000000  12.0000000  12.0000000  12.0000000  12.0000000  15.9949146  12.0000000  12.0000000
 NucSpn=           2           0           0           0           0           0           0           0           0           0
 AtZEff=  -0.0000000  -0.0000000  -0.0000000  -0.0000000  -0.0000000  -0.0000000  -0.0000000  -0.0000000  -0.0000000  -0.0000000
 NQMom=    2.0440000   0.0000000   0.0000000   0.0000000   0.0000000   0.0000000   0.0000000   0.0000000   0.0000000   0.0000000
 NMagM=    0.4037610   0.0000000   0.0000000   0.0000000   0.0000000   0.0000000   0.0000000   0.0000000   0.0000000   0.0000000
 AtZNuc=   7.0000000   6.0000000   6.0000000   6.0000000   6.0000000   6.0000000   6.0000000   8.0000000   6.0000000   6.0000000

  Atom       121         122         123         124         125         126         127         128         129         130
 IAtWgt=          16          16          12           1           1           1           1           1           1           1
 AtmWgt=  15.9949146  15.9949146  12.0000000   1.0078250   1.0078250   1.0078250   1.0078250   1.0078250   1.0078250   1.0078250
 NucSpn=           0           0           0           1           1           1           1           1           1           1
 AtZEff=  -0.0000000  -0.0000000  -0.0000000  -0.0000000  -0.0000000  -0.0000000  -0.0000000  -0.0000000  -0.0000000  -0.0000000
 NQMom=    0.0000000   0.0000000   0.0000000   0.0000000   0.0000000   0.0000000   0.0000000   0.0000000   0.0000000   0.0000000
 NMagM=    0.0000000   0.0000000   0.0000000   2.7928460   2.7928460   2.7928460   2.7928460   2.7928460   2.7928460   2.7928460
 AtZNuc=   8.0000000   8.0000000   6.0000000   1.0000000   1.0000000   1.0000000   1.0000000   1.0000000   1.0000000   1.0000000

  Atom       131         132         133         134         135         136         137         138         139         140
 IAtWgt=           1           1           1           1           1           1           1           1           1           1
 AtmWgt=   1.0078250   1.0078250   1.0078250   1.0078250   1.0078250   1.0078250   1.0078250   1.0078250   1.0078250   1.0078250
 NucSpn=           1           1           1           1           1           1           1           1           1           1
 AtZEff=  -0.0000000  -0.0000000  -0.0000000  -0.0000000  -0.0000000  -0.0000000  -0.0000000  -0.0000000  -0.0000000  -0.0000000
 NQMom=    0.0000000   0.0000000   0.0000000   0.0000000   0.0000000   0.0000000   0.0000000   0.0000000   0.0000000   0.0000000
 NMagM=    2.7928460   2.7928460   2.7928460   2.7928460   2.7928460   2.7928460   2.7928460   2.7928460   2.7928460   2.7928460
 AtZNuc=   1.0000000   1.0000000   1.0000000   1.0000000   1.0000000   1.0000000   1.0000000   1.0000000   1.0000000   1.0000000

  Atom       141         142         143         144         145         146         147         148         149         150
 IAtWgt=           1           1           1           1           1           1           1           1           1           1
 AtmWgt=   1.0078250   1.0078250   1.0078250   1.0078250   1.0078250   1.0078250   1.0078250   1.0078250   1.0078250   1.0078250
 NucSpn=           1           1           1           1           1           1           1           1           1           1
 AtZEff=  -0.0000000  -0.0000000  -0.0000000  -0.0000000  -0.0000000  -0.0000000  -0.0000000  -0.0000000  -0.0000000  -0.0000000
 NQMom=    0.0000000   0.0000000   0.0000000   0.0000000   0.0000000   0.0000000   0.0000000   0.0000000   0.0000000   0.0000000
 NMagM=    2.7928460   2.7928460   2.7928460   2.7928460   2.7928460   2.7928460   2.7928460   2.7928460   2.7928460   2.7928460
 AtZNuc=   1.0000000   1.0000000   1.0000000   1.0000000   1.0000000   1.0000000   1.0000000   1.0000000   1.0000000   1.0000000

  Atom       151         152         153         154         155         156         157         158
 IAtWgt=           1           1           1           1           1           1           1           1
 AtmWgt=   1.0078250   1.0078250   1.0078250   1.0078250   1.0078250   1.0078250   1.0078250   1.0078250
 NucSpn=           1           1           1           1           1           1           1           1
 AtZEff=  -0.0000000  -0.0000000  -0.0000000  -0.0000000  -0.0000000  -0.0000000  -0.0000000  -0.0000000
 NQMom=    0.0000000   0.0000000   0.0000000   0.0000000   0.0000000   0.0000000   0.0000000   0.0000000
 NMagM=    2.7928460   2.7928460   2.7928460   2.7928460   2.7928460   2.7928460   2.7928460   2.7928460
 AtZNuc=   1.0000000   1.0000000   1.0000000   1.0000000   1.0000000   1.0000000   1.0000000   1.0000000
 Leave Link  101 at Sat Sep  4 15:20:48 2021, MaxMem= 23488102400 cpu:               3.3 elap:               0.2
 (Enter /sw/apps/gaussian-16.0/g16/l202.exe)
 Stoichiometry    C68H72Mg2N8O8
 Framework group  C1[X(C68H72Mg2N8O8)]
 Deg. of freedom   468
 Full point group                 C1      NOp   1
 Largest Abelian subgroup         C1      NOp   1
 Largest concise Abelian subgroup C1      NOp   1
                         Standard orientation:                         
 ---------------------------------------------------------------------
 Center     Atomic      Atomic             Coordinates (Angstroms)
 Number     Number       Type             X           Y           Z
 ---------------------------------------------------------------------
      1         12           0        7.851292   -0.647808   -0.429678
      2          6           0        8.070658    2.749805    0.675002
      3          6           0        8.879797   -1.572211    2.689732
      4          6           0        8.103073   -3.618186   -1.511381
      5          6           0        7.950792    0.562741   -3.696226
      6          7           0        8.375654    0.531519    1.368898
      7          6           0        8.360623    1.823947    1.679666
      8          6           0        8.608200    2.098360    3.193198
      9          6           0        9.392435    0.761329    3.566452
     10          6           0        8.823720   -0.159301    2.501122
     11          6           0       10.901563    0.865414    3.371001
     12          6           0        7.272692    2.223668    4.000939
     13          6           0        7.413033    2.810411    5.408558
     14          1           0        6.351149    3.663242    5.920835
     15          7           0        7.933106   -2.363866    0.545669
     16          6           0        8.363037   -2.553502    1.816292
     17          6           0        8.229845   -4.002495    2.079656
     18          6           0        7.866877   -4.666627    0.796972
     19          6           0        7.980286   -3.565440   -0.124930
     20          6           0        8.392873   -4.610112    3.439058
     21          6           0        7.489508   -6.073205    0.454537
     22          8           0        7.438852   -6.488960   -0.753418
     23          6           0        7.263799   -6.987464    1.588657
     24          7           0        8.226075   -1.442517   -2.323249
     25          6           0        8.224443   -2.764021   -2.529672
     26          6           0        8.232128   -3.087893   -3.994249
     27          6           0        7.993137   -1.704056   -4.754269
     28          6           0        7.969987   -0.761162   -3.525984
     29          6           0        9.511197   -3.748403   -4.526904
     30          6           0        6.809178   -1.645008   -5.751854
     31          6           0        5.500385   -1.754296   -5.002045
     32          7           0        7.808082    1.303525   -1.379140
     33          6           0        7.883119    1.574520   -2.753041
     34          6           0        7.925854    3.040781   -2.902438
     35          6           0        7.889191    3.523636   -1.595781
     36          6           0        7.853956    2.427876   -0.686737
     37          6           0        8.047972    3.750203   -4.129728
     38          6           0        7.896450    4.709941   -0.755255
     39          8           0        7.825268    5.921735   -0.964971
     40          6           0        8.137210    4.254876    0.751655
     41          6           0        7.121211    4.960967    1.607511
     42          8           0        5.905290    4.699817    1.504057
     43          8           0        7.752880    5.651356    2.569228
     44          6           0        6.800788    6.351954    3.471911
     45          1           0        9.418648   -1.968557    3.552570
     46          1           0        8.081749   -4.625410   -1.932668
     47          1           0        7.897023    1.014756   -4.688317
     48          1           0        9.233182    2.966981    3.401329
     49          1           0        9.129314    0.399108    4.560075
     50          1           0       11.176626    1.800819    2.883888
     51          1           0       11.173194    0.015658    2.744403
     52          1           0       11.425473    0.720376    4.316125
     53          1           0        6.908901    1.227029    4.250794
     54          1           0        6.536119    2.801298    3.441359
     55          1           0        8.384739    3.285193    5.547409
     56          1           0        7.408923    1.987609    6.123527
     57          1           0        8.819460   -3.900148    4.146533
     58          1           0        9.147291   -5.391557    3.350140
     59          1           0        7.462140   -5.038341    3.811463
     60          1           0        8.169448   -7.041416    2.193172
     61          1           0        6.916056   -7.924407    1.154995
     62          1           0        6.490221   -6.567491    2.232200
     63          1           0        7.427631   -3.777526   -4.246473
     64          1           0        8.857640   -1.409942   -5.349925
     65          1           0        9.338000   -4.707976   -5.014683
     66          1           0       10.208066   -3.852363   -3.695727
     67          1           0       10.088491   -3.135120   -5.218303
     68          1           0        6.853790   -2.485647   -6.443433
     69          1           0        6.790042   -0.729581   -6.343359
     70          1           0        5.379862   -2.829923   -4.878217
     71          1           0        4.686294   -1.335902   -5.594847
     72          1           0        5.574706   -1.317908   -4.005788
     73          1           0        7.342968    4.579567   -4.074098
     74          1           0        7.835082    3.105855   -4.982428
     75          1           0        9.094320    4.051928   -4.085306
     76          1           0        9.157092    4.541299    1.006457
     77          1           0        7.070406    7.408125    3.465429
     78          1           0        6.835381    5.826769    4.426578
     79          1           0        5.764862    6.401941    3.134721
     80         12           0       -8.013562   -0.801390    0.303613
     81          6           0       -7.910531    2.435508   -1.242658
     82          6           0       -7.018088    0.712451    3.193578
     83          6           0       -7.658888   -3.686336    1.575887
     84          6           0       -7.878880   -2.179942   -2.894380
     85          7           0       -7.556177    1.307835    0.787573
     86          6           0       -7.611511    2.459422    0.135546
     87          6           0       -7.409425    3.713819    1.027298
     88          6           0       -6.587083    3.028082    2.224124
     89          6           0       -7.107118    1.598288    2.090194
     90          6           0       -5.085385    3.013876    1.991671
     91          6           0       -8.768570    4.312573    1.533508
     92          6           0       -8.666043    5.709484    2.149843
     93          1           0       -9.767768    6.644949    1.941037
     94          7           0       -7.904611   -1.362293    2.204159
     95          6           0       -7.500863   -0.613389    3.251740
     96          6           0       -7.582879   -1.491364    4.429285
     97          6           0       -7.910466   -2.867338    3.966575
     98          6           0       -7.814779   -2.692516    2.531177
     99          6           0       -7.437674   -0.983682    5.834490
    100          6           0       -8.240995   -4.134326    4.695733
    101          8           0       -8.257844   -5.269171    4.100192
    102          6           0       -8.452711   -4.019895    6.146108
    103          7           0       -7.586859   -2.662431   -0.519052
    104          6           0       -7.540808   -3.764239    0.250255
    105          6           0       -7.492473   -5.016346   -0.592526
    106          6           0       -7.760771   -4.534458   -2.093651
    107          6           0       -7.832329   -3.009306   -1.860860
    108          6           0       -6.184333   -5.805098   -0.537630
    109          6           0       -8.927120   -5.221407   -2.855484
    110          6           0      -10.248670   -4.840646   -2.227846
    111          7           0       -8.098440   -0.048196   -1.719638
    112          6           0       -7.997881   -0.796160   -2.913169
    113          6           0       -7.994600    0.168167   -4.032325
    114          6           0       -8.070891    1.421408   -3.406188
    115          6           0       -8.098008    1.251157   -1.995598
    116          6           0       -7.879299   -0.159760   -5.412641
    117          6           0       -8.123945    2.850142   -3.617435
    118          8           0       -8.218497    3.579520   -4.603738
    119          6           0       -7.894910    3.576127   -2.222131
    120          6           0       -8.946950    4.640980   -2.074369
    121          8           0      -10.147850    4.333520   -1.974839
    122          8           0       -8.347283    5.825722   -1.857239
    123          6           0       -9.349935    6.911818   -1.693200
    124          1           0       -6.491391    1.048222    4.087299
    125          1           0       -7.643084   -4.709576    1.958260
    126          1           0       -7.938203   -2.534898   -3.925471
    127          1           0       -6.819939    4.502392    0.575182
    128          1           0       -6.867544    3.447200    3.186958
    129          1           0       -4.827479    3.362453    1.002673
    130          1           0       -4.777190    1.984818    2.122451
    131          1           0       -4.577180    3.582631    2.775621
    132          1           0       -9.105592    3.744666    2.410224
    133          1           0       -9.499065    4.316890    0.748025
    134          1           0       -7.706100    6.189883    1.924751
    135          1           0       -8.667139    5.609618    3.237977
    136          1           0       -7.038472    0.037921    5.853862
    137          1           0       -6.660288   -1.588202    6.314155
    138          1           0       -8.360520   -1.072022    6.411729
    139          1           0       -7.559711   -3.607832    6.610016
    140          1           0       -8.765869   -5.012701    6.474947
    141          1           0       -9.260717   -3.302025    6.326147
    142          1           0       -8.272458   -5.709019   -0.301094
    143          1           0       -6.889474   -4.713021   -2.740796
    144          1           0       -6.321503   -6.856420   -0.221427
    145          1           0       -5.504598   -5.292751    0.130194
    146          1           0       -5.619904   -5.828730   -1.468257
    147          1           0       -8.845728   -6.307985   -2.772471
    148          1           0       -8.953661   -4.980310   -3.912917
    149          1           0      -10.334874   -5.539891   -1.390771
    150          1           0      -11.062332   -4.973000   -2.938109
    151          1           0      -10.208305   -3.828423   -1.808992
    152          1           0       -8.601514    0.450100   -5.938919
    153          1           0       -8.052153   -1.220007   -5.585191
    154          1           0       -6.838337    0.121200   -5.593566
    155          1           0       -6.887645    3.994346   -2.231884
    156          1           0       -9.107345    7.684438   -2.429328
    157          1           0       -9.305428    7.200850   -0.626323
    158          1           0      -10.378125    6.688080   -1.952448
 ---------------------------------------------------------------------
 Rotational constants (GHZ):           0.0202946           0.0059344           0.0055929
 Leave Link  202 at Sat Sep  4 15:20:48 2021, MaxMem= 23488102400 cpu:               0.2 elap:               0.0
 (Enter /sw/apps/gaussian-16.0/g16/l301.exe)
 Standard basis: def2SVP (5D, 7F)
 Ernie: Thresh=  0.10000D-02 Tol=  0.10000D-05 Strict=F.
 There are  1658 symmetry adapted cartesian basis functions of A   symmetry.
 There are  1572 symmetry adapted basis functions of A   symmetry.
  1572 basis functions,  2678 primitive gaussians,  1658 cartesian basis functions
   312 alpha electrons      312 beta electrons
       nuclear repulsion energy     13739.1445609159 Hartrees.
 IExCor=20419 DFT=T Ex+Corr=CAM-B3LYP ExCW=0 ScaHFX=  1.000000
 ScaDFX=  1.000000  1.000000  1.000000  0.810000 ScalE2=  1.000000  1.000000
 IRadAn=      5 IRanWt=     -1 IRanGd=            0 ICorTp=0 IEmpDi=  4
 HFx  wShort=  0.000000 wLong=  0.330000 cFull=  0.190000 cShort=  0.000000 cLong=  0.460000
 DFx  wShort=  0.000000 wLong=  0.330000 cFull=  0.190000 cShort=  0.000000 cLong=  0.460000
 NAtoms=  158 NActive=  158 NUniq=  158 SFac= 1.00D+00 NAtFMM=   60 NAOKFM=T Big=T
 Integral buffers will be    131072 words long.
 Raffenetti 1 integral format.
 Two-electron integral symmetry is turned on.
 Leave Link  301 at Sat Sep  4 15:20:48 2021, MaxMem= 23488102400 cpu:               1.3 elap:               0.1
 (Enter /sw/apps/gaussian-16.0/g16/l302.exe)
 NPDir=0 NMtPBC=     1 NCelOv=     1 NCel=       1 NClECP=     1 NCelD=      1
         NCelK=      1 NCelE2=     1 NClLst=     1 CellRange=     0.0.
 One-electron integrals computed using PRISM.
 One-electron integral symmetry used in STVInt
   1 Symmetry operations used in ECPInt.
 ECPInt:  NShTT=  271216 NPrTT=  987664 LenC2=  107359 LenP2D=  244305.
 LDataN:  DoStor=T MaxTD1= 4 Len=   56
 NBasis=  1572 RedAO= T EigKep=  3.36D-04  NBF=  1572
 NBsUse=  1572 1.00D-06 EigRej= -1.00D+00 NBFU=  1572
 Precomputing XC quadrature grid using
 IXCGrd= 4 IRadAn=           5 IRanWt=          -1 IRanGd=           0 AccXCQ= 0.00D+00.
 Generated NRdTot=       0 NPtTot=           0 NUsed=           0 NTot=          32
 NSgBfM=   916   899   911   914   916 MxSgAt=   158 MxSgA2=   148.
 Leave Link  302 at Sat Sep  4 15:20:52 2021, MaxMem= 23488102400 cpu:             107.4 elap:               4.5
 (Enter /sw/apps/gaussian-16.0/g16/l303.exe)
 DipDrv:  MaxL=1.
 Leave Link  303 at Sat Sep  4 15:20:53 2021, MaxMem= 23488102400 cpu:               8.7 elap:               0.4
 (Enter /sw/apps/gaussian-16.0/g16/l308.exe)
 Leave Link  308 at Sat Sep  4 15:20:53 2021, MaxMem= 23488102400 cpu:              14.9 elap:               0.7
 (Enter /sw/apps/gaussian-16.0/g16/l401.exe)
 ExpMin= 3.36D-02 ExpMax= 4.95D+03 ExpMxC= 7.45D+02 IAcc=3 IRadAn=         5 AccDes= 0.00D+00
 Harris functional with IExCor=20419 and IRadAn=       5 diagonalized for initial guess.
 HarFok:  IExCor=20419 AccDes= 0.00D+00 IRadAn=         5 IDoV= 1 UseB2=F ITyADJ=14
 ICtDFT=  3500011 ScaDFX=  1.000000  1.000000  1.000000  1.000000
 FoFCou: FMM=F IPFlag=           0 FMFlag=      100000 FMFlg1=        2001
         NFxFlg=           0 DoJE=T BraDBF=F KetDBF=T FulRan=T
         wScrn=  0.000000 ICntrl=       500 IOpCl=  0 I1Cent=   200000004 NGrid=           0
         NMat0=    1 NMatS0=      1 NMatT0=    0 NMatD0=    1 NMtDS0=    0 NMtDT0=    0
 Petite list used in FoFCou.
 Harris En= -3918.65801445504    
 JPrj=0 DoOrth=F DoCkMO=F.
 Leave Link  401 at Sat Sep  4 15:21:00 2021, MaxMem= 23488102400 cpu:             161.3 elap:               6.8
 (Enter /sw/apps/gaussian-16.0/g16/l502.exe)
 Integral symmetry usage will be decided dynamically.
 Closed shell SCF:
 Using DIIS extrapolation, IDIIS=  1040.
 NGot= 23488102400 LenX= 23482547354 LenY= 23479796732
 Requested convergence on RMS density matrix=1.00D-08 within 128 cycles.
 Requested convergence on MAX density matrix=1.00D-06.
 Requested convergence on             energy=1.00D-06.
 No special actions if energy rises.
 Fock matrices will be formed incrementally for  20 cycles.

 Cycle   1  Pass 1  IDiag  1:
 FoFJK:  IHMeth= 1 ICntrl=       0 DoSepK=T KAlg= 0 I1Cent=           0 FoldK=F
 IRaf=         1 NMat=       1 IRICut=       1 DoRegI=T DoRafI=F ISym2E= 0 IDoP0=0 IntGTp=1.
 FoFCou: FMM=T IPFlag=           0 FMFlag=      100000 FMFlg1=        2001
         NFxFlg=           0 DoJE=T BraDBF=F KetDBF=F FulRan=T
         wScrn=  0.000000 ICntrl=       500 IOpCl=  0 I1Cent=           0 NGrid=           0
         NMat0=    1 NMatS0=      1 NMatT0=    0 NMatD0=    1 NMtDS0=    0 NMtDT0=    0
 Symmetry not used in FoFCou.
 FMM levels:  10  Number of levels for PrismC:   9
 E= -4068.94932623209    
 DIIS: error= 2.04D-02 at cycle   1 NSaved=   1.
 NSaved= 1 IEnMin= 1 EnMin= -4068.94932623209     IErMin= 1 ErrMin= 2.04D-02
 ErrMax= 2.04D-02  0.00D+00 EMaxC= 1.00D-01 BMatC= 1.69D+00 BMatP= 1.69D+00
 IDIUse=3 WtCom= 7.96D-01 WtEn= 2.04D-01
 Coeff-Com:  0.100D+01
 Coeff-En:   0.100D+01
 Coeff:      0.100D+01
 Gap=     0.120 Goal=   None    Shift=    0.000
 GapD=    0.120 DampG=1.000 DampE=0.500 DampFc=0.5000 IDamp=-1.
 Damping current iteration by 5.00D-01
 RMSDP=1.57D-03 MaxDP=1.35D-01              OVMax= 2.03D-01

 Cycle   2  Pass 1  IDiag  1:
 RMSU=  7.69D-04    CP:  9.82D-01
 E= -4069.33822080794     Delta-E=       -0.388894575848 Rises=F Damp=T
 DIIS: error= 1.27D-02 at cycle   2 NSaved=   2.
 NSaved= 2 IEnMin= 2 EnMin= -4069.33822080794     IErMin= 2 ErrMin= 1.27D-02
 ErrMax= 1.27D-02  0.00D+00 EMaxC= 1.00D-01 BMatC= 3.07D-01 BMatP= 1.69D+00
 IDIUse=3 WtCom= 8.73D-01 WtEn= 1.27D-01
 Coeff-Com: -0.213D+00 0.121D+01
 Coeff-En:   0.000D+00 0.100D+01
 Coeff:     -0.186D+00 0.119D+01
 Gap=     0.136 Goal=   None    Shift=    0.000
 RMSDP=7.65D-04 MaxDP=9.44D-02 DE=-3.89D-01 OVMax= 1.88D-01

 Cycle   3  Pass 1  IDiag  1:
 RMSU=  7.32D-04    CP:  9.68D-01  1.24D+00
 E= -4069.62783929252     Delta-E=       -0.289618484585 Rises=F Damp=F
 DIIS: error= 1.57D-02 at cycle   3 NSaved=   3.
 NSaved= 3 IEnMin= 3 EnMin= -4069.62783929252     IErMin= 2 ErrMin= 1.27D-02
 ErrMax= 1.57D-02  0.00D+00 EMaxC= 1.00D-01 BMatC= 2.02D-01 BMatP= 3.07D-01
 IDIUse=3 WtCom= 8.43D-01 WtEn= 1.57D-01
 Coeff-Com: -0.267D+00 0.652D+00 0.616D+00
 Coeff-En:   0.000D+00 0.000D+00 0.100D+01
 Coeff:     -0.225D+00 0.549D+00 0.676D+00
 Gap=     0.123 Goal=   None    Shift=    0.000
 RMSDP=5.08D-04 MaxDP=4.78D-02 DE=-2.90D-01 OVMax= 1.43D-01

 Cycle   4  Pass 1  IDiag  1:
 RMSU=  2.66D-04    CP:  9.65D-01  1.55D+00  5.06D-01
 E= -4069.76509454496     Delta-E=       -0.137255252441 Rises=F Damp=F
 DIIS: error= 7.24D-03 at cycle   4 NSaved=   4.
 NSaved= 4 IEnMin= 4 EnMin= -4069.76509454496     IErMin= 4 ErrMin= 7.24D-03
 ErrMax= 7.24D-03  0.00D+00 EMaxC= 1.00D-01 BMatC= 5.02D-02 BMatP= 2.02D-01
 IDIUse=3 WtCom= 9.28D-01 WtEn= 7.24D-02
 Coeff-Com: -0.109D+00 0.226D+00 0.409D+00 0.474D+00
 Coeff-En:   0.000D+00 0.000D+00 0.221D+00 0.779D+00
 Coeff:     -0.101D+00 0.210D+00 0.395D+00 0.496D+00
 Gap=     0.122 Goal=   None    Shift=    0.000
 RMSDP=2.00D-04 MaxDP=2.02D-02 DE=-1.37D-01 OVMax= 6.19D-02

 Cycle   5  Pass 1  IDiag  1:
 RMSU=  7.61D-05    CP:  9.64D-01  1.49D+00  6.89D-01  5.49D-01
 E= -4069.81054401918     Delta-E=       -0.045449474215 Rises=F Damp=F
 DIIS: error= 7.69D-04 at cycle   5 NSaved=   5.
 NSaved= 5 IEnMin= 5 EnMin= -4069.81054401918     IErMin= 5 ErrMin= 7.69D-04
 ErrMax= 7.69D-04  0.00D+00 EMaxC= 1.00D-01 BMatC= 1.17D-03 BMatP= 5.02D-02
 IDIUse=3 WtCom= 9.92D-01 WtEn= 7.69D-03
 Coeff-Com: -0.360D-01 0.708D-01 0.166D+00 0.250D+00 0.550D+00
 Coeff-En:   0.000D+00 0.000D+00 0.000D+00 0.000D+00 0.100D+01
 Coeff:     -0.358D-01 0.702D-01 0.165D+00 0.248D+00 0.553D+00
 Gap=     0.122 Goal=   None    Shift=    0.000
 RMSDP=4.13D-05 MaxDP=4.12D-03 DE=-4.54D-02 OVMax= 1.64D-02

 Cycle   6  Pass 1  IDiag  1:
 RMSU=  3.06D-05    CP:  9.64D-01  1.49D+00  6.81D-01  6.22D-01  7.54D-01
 E= -4069.81156715510     Delta-E=       -0.001023135919 Rises=F Damp=F
 DIIS: error= 2.11D-04 at cycle   6 NSaved=   6.
 NSaved= 6 IEnMin= 6 EnMin= -4069.81156715510     IErMin= 6 ErrMin= 2.11D-04
 ErrMax= 2.11D-04  0.00D+00 EMaxC= 1.00D-01 BMatC= 1.80D-04 BMatP= 1.17D-03
 IDIUse=3 WtCom= 9.98D-01 WtEn= 2.11D-03
 Coeff-Com:  0.220D-02-0.657D-02 0.113D-01 0.404D-01 0.307D+00 0.645D+00
 Coeff-En:   0.000D+00 0.000D+00 0.000D+00 0.000D+00 0.108D+00 0.892D+00
 Coeff:      0.220D-02-0.656D-02 0.113D-01 0.403D-01 0.307D+00 0.646D+00
 Gap=     0.122 Goal=   None    Shift=    0.000
 RMSDP=1.62D-05 MaxDP=1.18D-03 DE=-1.02D-03 OVMax= 7.21D-03

 Cycle   7  Pass 1  IDiag  1:
 RMSU=  1.08D-05    CP:  9.64D-01  1.50D+00  6.87D-01  6.21D-01  8.57D-01
                    CP:  7.44D-01
 E= -4069.81176217522     Delta-E=       -0.000195020126 Rises=F Damp=F
 DIIS: error= 8.03D-05 at cycle   7 NSaved=   7.
 NSaved= 7 IEnMin= 7 EnMin= -4069.81176217522     IErMin= 7 ErrMin= 8.03D-05
 ErrMax= 8.03D-05  0.00D+00 EMaxC= 1.00D-01 BMatC= 2.17D-05 BMatP= 1.80D-04
 IDIUse=1 WtCom= 1.00D+00 WtEn= 0.00D+00
 Coeff-Com:  0.447D-02-0.980D-02-0.891D-02-0.360D-02 0.104D+00 0.332D+00
 Coeff-Com:  0.582D+00
 Coeff:      0.447D-02-0.980D-02-0.891D-02-0.360D-02 0.104D+00 0.332D+00
 Coeff:      0.582D+00
 Gap=     0.122 Goal=   None    Shift=    0.000
 RMSDP=6.58D-06 MaxDP=1.06D-03 DE=-1.95D-04 OVMax= 3.28D-03

 Cycle   8  Pass 1  IDiag  1:
 RMSU=  4.71D-06    CP:  9.64D-01  1.50D+00  6.87D-01  6.26D-01  8.61D-01
                    CP:  8.70D-01  8.18D-01
 E= -4069.81178907857     Delta-E=       -0.000026903344 Rises=F Damp=F
 DIIS: error= 4.98D-05 at cycle   8 NSaved=   8.
 NSaved= 8 IEnMin= 8 EnMin= -4069.81178907857     IErMin= 8 ErrMin= 4.98D-05
 ErrMax= 4.98D-05  0.00D+00 EMaxC= 1.00D-01 BMatC= 4.88D-06 BMatP= 2.17D-05
 IDIUse=1 WtCom= 1.00D+00 WtEn= 0.00D+00
 Coeff-Com:  0.217D-02-0.430D-02-0.778D-02-0.122D-01-0.111D-01 0.336D-01
 Coeff-Com:  0.340D+00 0.660D+00
 Coeff:      0.217D-02-0.430D-02-0.778D-02-0.122D-01-0.111D-01 0.336D-01
 Coeff:      0.340D+00 0.660D+00
 Gap=     0.122 Goal=   None    Shift=    0.000
 RMSDP=3.30D-06 MaxDP=3.42D-04 DE=-2.69D-05 OVMax= 1.07D-03

 Cycle   9  Pass 1  IDiag  1:
 RMSU=  1.92D-06    CP:  9.64D-01  1.50D+00  6.88D-01  6.27D-01  8.78D-01
                    CP:  8.97D-01  1.01D+00  9.46D-01
 E= -4069.81179688062     Delta-E=       -0.000007802053 Rises=F Damp=F
 DIIS: error= 2.01D-05 at cycle   9 NSaved=   9.
 NSaved= 9 IEnMin= 9 EnMin= -4069.81179688062     IErMin= 9 ErrMin= 2.01D-05
 ErrMax= 2.01D-05  0.00D+00 EMaxC= 1.00D-01 BMatC= 7.02D-07 BMatP= 4.88D-06
 IDIUse=1 WtCom= 1.00D+00 WtEn= 0.00D+00
 Coeff-Com:  0.472D-03-0.785D-03-0.269D-02-0.603D-02-0.211D-01-0.389D-01
 Coeff-Com:  0.103D+00 0.328D+00 0.639D+00
 Coeff:      0.472D-03-0.785D-03-0.269D-02-0.603D-02-0.211D-01-0.389D-01
 Coeff:      0.103D+00 0.328D+00 0.639D+00
 Gap=     0.122 Goal=   None    Shift=    0.000
 RMSDP=1.42D-06 MaxDP=1.45D-04 DE=-7.80D-06 OVMax= 7.54D-04

 Cycle  10  Pass 1  IDiag  1:
 RMSU=  9.43D-07    CP:  9.64D-01  1.50D+00  6.88D-01  6.28D-01  8.81D-01
                    CP:  9.10D-01  1.06D+00  1.11D+00  1.06D+00
 E= -4069.81179849002     Delta-E=       -0.000001609395 Rises=F Damp=F
 DIIS: error= 1.04D-05 at cycle  10 NSaved=  10.
 NSaved=10 IEnMin=10 EnMin= -4069.81179849002     IErMin=10 ErrMin= 1.04D-05
 ErrMax= 1.04D-05  0.00D+00 EMaxC= 1.00D-01 BMatC= 1.73D-07 BMatP= 7.02D-07
 IDIUse=1 WtCom= 1.00D+00 WtEn= 0.00D+00
 Coeff-Com: -0.427D-03 0.894D-03 0.123D-02 0.111D-02-0.375D-02-0.311D-01
 Coeff-Com: -0.454D-01-0.760D-01 0.250D+00 0.903D+00
 Coeff:     -0.427D-03 0.894D-03 0.123D-02 0.111D-02-0.375D-02-0.311D-01
 Coeff:     -0.454D-01-0.760D-01 0.250D+00 0.903D+00
 Gap=     0.122 Goal=   None    Shift=    0.000
 RMSDP=1.23D-06 MaxDP=1.21D-04 DE=-1.61D-06 OVMax= 6.21D-04

 Cycle  11  Pass 1  IDiag  1:
 RMSU=  5.21D-07    CP:  9.64D-01  1.50D+00  6.88D-01  6.28D-01  8.83D-01
                    CP:  9.20D-01  1.11D+00  1.22D+00  1.39D+00  1.37D+00
 E= -4069.81179928514     Delta-E=       -0.000000795124 Rises=F Damp=F
 DIIS: error= 4.05D-06 at cycle  11 NSaved=  11.
 NSaved=11 IEnMin=11 EnMin= -4069.81179928514     IErMin=11 ErrMin= 4.05D-06
 ErrMax= 4.05D-06  0.00D+00 EMaxC= 1.00D-01 BMatC= 6.35D-08 BMatP= 1.73D-07
 IDIUse=1 WtCom= 1.00D+00 WtEn= 0.00D+00
 Coeff-Com: -0.331D-03 0.644D-03 0.134D-02 0.213D-02 0.442D-02-0.854D-02
 Coeff-Com: -0.428D-01-0.133D+00-0.260D-01 0.472D+00 0.730D+00
 Coeff:     -0.331D-03 0.644D-03 0.134D-02 0.213D-02 0.442D-02-0.854D-02
 Coeff:     -0.428D-01-0.133D+00-0.260D-01 0.472D+00 0.730D+00
 Gap=     0.122 Goal=   None    Shift=    0.000
 RMSDP=6.91D-07 MaxDP=6.12D-05 DE=-7.95D-07 OVMax= 3.80D-04

 Cycle  12  Pass 1  IDiag  1:
 RMSU=  2.65D-07    CP:  9.64D-01  1.50D+00  6.88D-01  6.28D-01  8.84D-01
                    CP:  9.22D-01  1.13D+00  1.29D+00  1.56D+00  1.76D+00
                    CP:  1.20D+00
 E= -4069.81179955226     Delta-E=       -0.000000267122 Rises=F Damp=F
 DIIS: error= 2.48D-06 at cycle  12 NSaved=  12.
 NSaved=12 IEnMin=12 EnMin= -4069.81179955226     IErMin=12 ErrMin= 2.48D-06
 ErrMax= 2.48D-06  0.00D+00 EMaxC= 1.00D-01 BMatC= 1.55D-08 BMatP= 6.35D-08
 IDIUse=1 WtCom= 1.00D+00 WtEn= 0.00D+00
 Coeff-Com: -0.496D-05-0.690D-05 0.198D-03 0.538D-03 0.338D-02 0.386D-02
 Coeff-Com:  0.235D-02-0.363D-01-0.690D-01-0.666D-01 0.255D+00 0.906D+00
 Coeff:     -0.496D-05-0.690D-05 0.198D-03 0.538D-03 0.338D-02 0.386D-02
 Coeff:      0.235D-02-0.363D-01-0.690D-01-0.666D-01 0.255D+00 0.906D+00
 Gap=     0.122 Goal=   None    Shift=    0.000
 RMSDP=4.37D-07 MaxDP=3.11D-05 DE=-2.67D-07 OVMax= 2.52D-04

 Cycle  13  Pass 1  IDiag  1:
 RMSU=  1.67D-07    CP:  9.64D-01  1.50D+00  6.88D-01  6.28D-01  8.85D-01
                    CP:  9.23D-01  1.14D+00  1.32D+00  1.67D+00  1.98D+00
                    CP:  1.61D+00  1.26D+00
 E= -4069.81179964498     Delta-E=       -0.000000092721 Rises=F Damp=F
 DIIS: error= 1.27D-06 at cycle  13 NSaved=  13.
 NSaved=13 IEnMin=13 EnMin= -4069.81179964498     IErMin=13 ErrMin= 1.27D-06
 ErrMax= 1.27D-06  0.00D+00 EMaxC= 1.00D-01 BMatC= 8.44D-09 BMatP= 1.55D-08
 IDIUse=1 WtCom= 1.00D+00 WtEn= 0.00D+00
 Coeff-Com:  0.120D-03-0.245D-03-0.368D-03-0.453D-03 0.620D-03 0.504D-02
 Coeff-Com:  0.195D-01 0.227D-01-0.337D-01-0.240D+00-0.156D+00 0.594D+00
 Coeff-Com:  0.790D+00
 Coeff:      0.120D-03-0.245D-03-0.368D-03-0.453D-03 0.620D-03 0.504D-02
 Coeff:      0.195D-01 0.227D-01-0.337D-01-0.240D+00-0.156D+00 0.594D+00
 Coeff:      0.790D+00
 Gap=     0.122 Goal=   None    Shift=    0.000
 RMSDP=3.45D-07 MaxDP=2.31D-05 DE=-9.27D-08 OVMax= 2.04D-04

 Cycle  14  Pass 1  IDiag  1:
 RMSU=  7.68D-08    CP:  9.64D-01  1.50D+00  6.88D-01  6.28D-01  8.85D-01
                    CP:  9.23D-01  1.14D+00  1.34D+00  1.74D+00  2.18D+00
                    CP:  1.87D+00  1.78D+00  1.09D+00
 E= -4069.81179968215     Delta-E=       -0.000000037162 Rises=F Damp=F
 DIIS: error= 6.92D-07 at cycle  14 NSaved=  14.
 NSaved=14 IEnMin=14 EnMin= -4069.81179968215     IErMin=14 ErrMin= 6.92D-07
 ErrMax= 6.92D-07  0.00D+00 EMaxC= 1.00D-01 BMatC= 1.30D-09 BMatP= 8.44D-09
 IDIUse=1 WtCom= 1.00D+00 WtEn= 0.00D+00
 Coeff-Com:  0.673D-04-0.133D-03-0.249D-03-0.390D-03-0.474D-03 0.129D-02
 Coeff-Com:  0.107D-01 0.194D-01 0.392D-02-0.101D+00-0.143D+00 0.908D-01
 Coeff-Com:  0.406D+00 0.713D+00
 Coeff:      0.673D-04-0.133D-03-0.249D-03-0.390D-03-0.474D-03 0.129D-02
 Coeff:      0.107D-01 0.194D-01 0.392D-02-0.101D+00-0.143D+00 0.908D-01
 Coeff:      0.406D+00 0.713D+00
 Gap=     0.122 Goal=   None    Shift=    0.000
 RMSDP=1.04D-07 MaxDP=6.83D-06 DE=-3.72D-08 OVMax= 5.67D-05

 Cycle  15  Pass 1  IDiag  1:
 RMSU=  3.84D-08    CP:  9.64D-01  1.50D+00  6.88D-01  6.28D-01  8.85D-01
                    CP:  9.23D-01  1.15D+00  1.34D+00  1.76D+00  2.22D+00
                    CP:  1.98D+00  1.91D+00  1.33D+00  1.03D+00
 E= -4069.81179968642     Delta-E=       -0.000000004278 Rises=F Damp=F
 DIIS: error= 3.22D-07 at cycle  15 NSaved=  15.
 NSaved=15 IEnMin=15 EnMin= -4069.81179968642     IErMin=15 ErrMin= 3.22D-07
 ErrMax= 3.22D-07  0.00D+00 EMaxC= 1.00D-01 BMatC= 2.26D-10 BMatP= 1.30D-09
 IDIUse=1 WtCom= 1.00D+00 WtEn= 0.00D+00
 Coeff-Com:  0.566D-05-0.953D-05-0.337D-04-0.833D-04-0.299D-03-0.512D-03
 Coeff-Com:  0.117D-02 0.262D-02 0.876D-02 0.119D-02-0.307D-01-0.727D-01
 Coeff-Com:  0.312D-01 0.295D+00 0.765D+00
 Coeff:      0.566D-05-0.953D-05-0.337D-04-0.833D-04-0.299D-03-0.512D-03
 Coeff:      0.117D-02 0.262D-02 0.876D-02 0.119D-02-0.307D-01-0.727D-01
 Coeff:      0.312D-01 0.295D+00 0.765D+00
 Gap=     0.122 Goal=   None    Shift=    0.000
 RMSDP=4.00D-08 MaxDP=2.67D-06 DE=-4.28D-09 OVMax= 2.77D-05

 Cycle  16  Pass 1  IDiag  1:
 RMSU=  1.87D-08    CP:  9.64D-01  1.50D+00  6.88D-01  6.28D-01  8.85D-01
                    CP:  9.23D-01  1.15D+00  1.34D+00  1.77D+00  2.24D+00
                    CP:  2.00D+00  1.97D+00  1.41D+00  1.24D+00  1.15D+00
 E= -4069.81179968749     Delta-E=       -0.000000001070 Rises=F Damp=F
 DIIS: error= 1.79D-07 at cycle  16 NSaved=  16.
 NSaved=16 IEnMin=16 EnMin= -4069.81179968749     IErMin=16 ErrMin= 1.79D-07
 ErrMax= 1.79D-07  0.00D+00 EMaxC= 1.00D-01 BMatC= 8.43D-11 BMatP= 2.26D-10
 IDIUse=1 WtCom= 1.00D+00 WtEn= 0.00D+00
 Coeff-Com: -0.141D-04 0.286D-04 0.466D-04 0.530D-04-0.289D-04-0.631D-03
 Coeff-Com: -0.193D-02-0.424D-02 0.444D-02 0.253D-01 0.207D-01-0.643D-01
 Coeff-Com: -0.814D-01-0.398D-01 0.399D+00 0.742D+00
 Coeff:     -0.141D-04 0.286D-04 0.466D-04 0.530D-04-0.289D-04-0.631D-03
 Coeff:     -0.193D-02-0.424D-02 0.444D-02 0.253D-01 0.207D-01-0.643D-01
 Coeff:     -0.814D-01-0.398D-01 0.399D+00 0.742D+00
 Gap=     0.122 Goal=   None    Shift=    0.000
 RMSDP=2.31D-08 MaxDP=1.63D-06 DE=-1.07D-09 OVMax= 1.26D-05

 Cycle  17  Pass 1  IDiag  1:
 RMSU=  1.04D-08    CP:  9.64D-01  1.50D+00  6.88D-01  6.28D-01  8.85D-01
                    CP:  9.23D-01  1.15D+00  1.35D+00  1.77D+00  2.24D+00
                    CP:  2.01D+00  2.00D+00  1.46D+00  1.34D+00  1.44D+00
                    CP:  1.25D+00
 E= -4069.81179968765     Delta-E=       -0.000000000160 Rises=F Damp=F
 DIIS: error= 9.40D-08 at cycle  17 NSaved=  17.
 NSaved=17 IEnMin=17 EnMin= -4069.81179968765     IErMin=17 ErrMin= 9.40D-08
 ErrMax= 9.40D-08  0.00D+00 EMaxC= 1.00D-01 BMatC= 1.80D-11 BMatP= 8.43D-11
 IDIUse=1 WtCom= 1.00D+00 WtEn= 0.00D+00
 Coeff-Com: -0.725D-05 0.141D-04 0.286D-04 0.425D-04 0.833D-04-0.125D-03
 Coeff-Com: -0.940D-03-0.281D-02 0.111D-03 0.927D-02 0.175D-01-0.738D-02
 Coeff-Com: -0.358D-01-0.102D+00-0.287D-01 0.290D+00 0.860D+00
 Coeff:     -0.725D-05 0.141D-04 0.286D-04 0.425D-04 0.833D-04-0.125D-03
 Coeff:     -0.940D-03-0.281D-02 0.111D-03 0.927D-02 0.175D-01-0.738D-02
 Coeff:     -0.358D-01-0.102D+00-0.287D-01 0.290D+00 0.860D+00
 Gap=     0.122 Goal=   None    Shift=    0.000
 RMSDP=1.37D-08 MaxDP=1.05D-06 DE=-1.60D-10 OVMax= 9.23D-06

 Cycle  18  Pass 1  IDiag  1:
 RMSU=  4.92D-09    CP:  9.64D-01  1.50D+00  6.88D-01  6.28D-01  8.85D-01
                    CP:  9.23D-01  1.15D+00  1.35D+00  1.77D+00  2.24D+00
                    CP:  2.02D+00  2.01D+00  1.47D+00  1.41D+00  1.61D+00
                    CP:  1.65D+00  1.39D+00
 E= -4069.81179968781     Delta-E=       -0.000000000153 Rises=F Damp=F
 DIIS: error= 5.84D-08 at cycle  18 NSaved=  18.
 NSaved=18 IEnMin=18 EnMin= -4069.81179968781     IErMin=18 ErrMin= 5.84D-08
 ErrMax= 5.84D-08  0.00D+00 EMaxC= 1.00D-01 BMatC= 7.23D-12 BMatP= 1.80D-11
 IDIUse=1 WtCom= 1.00D+00 WtEn= 0.00D+00
 Coeff-Com:  0.187D-05-0.405D-05-0.391D-05-0.810D-06 0.603D-04 0.177D-03
 Coeff-Com:  0.375D-03 0.170D-03-0.126D-02-0.589D-02 0.140D-03 0.194D-01
 Coeff-Com:  0.176D-01-0.333D-01-0.160D+00-0.188D+00 0.362D+00 0.989D+00
 Coeff:      0.187D-05-0.405D-05-0.391D-05-0.810D-06 0.603D-04 0.177D-03
 Coeff:      0.375D-03 0.170D-03-0.126D-02-0.589D-02 0.140D-03 0.194D-01
 Coeff:      0.176D-01-0.333D-01-0.160D+00-0.188D+00 0.362D+00 0.989D+00
 Gap=     0.122 Goal=   None    Shift=    0.000
 RMSDP=1.17D-08 MaxDP=7.81D-07 DE=-1.53D-10 OVMax= 6.37D-06

 Cycle  19  Pass 1  IDiag  1:
 RMSU=  2.87D-09    CP:  9.64D-01  1.50D+00  6.88D-01  6.28D-01  8.85D-01
                    CP:  9.23D-01  1.15D+00  1.35D+00  1.77D+00  2.24D+00
                    CP:  2.02D+00  2.01D+00  1.48D+00  1.45D+00  1.76D+00
                    CP:  1.98D+00  1.93D+00  1.35D+00
 E= -4069.81179968772     Delta-E=        0.000000000091 Rises=F Damp=F
 DIIS: error= 3.03D-08 at cycle  19 NSaved=  19.
 NSaved=19 IEnMin=18 EnMin= -4069.81179968781     IErMin=19 ErrMin= 3.03D-08
 ErrMax= 3.03D-08  0.00D+00 EMaxC= 1.00D-01 BMatC= 1.55D-12 BMatP= 7.23D-12
 IDIUse=1 WtCom= 1.00D+00 WtEn= 0.00D+00
 Coeff-Com:  0.291D-05-0.587D-05-0.987D-05-0.123D-04 0.127D-04 0.121D-03
 Coeff-Com:  0.474D-03 0.794D-03-0.596D-03-0.599D-02-0.480D-02 0.122D-01
 Coeff-Com:  0.203D-01 0.110D-01-0.711D-01-0.182D+00-0.257D-01 0.502D+00
 Coeff-Com:  0.743D+00
 Coeff:      0.291D-05-0.587D-05-0.987D-05-0.123D-04 0.127D-04 0.121D-03
 Coeff:      0.474D-03 0.794D-03-0.596D-03-0.599D-02-0.480D-02 0.122D-01
 Coeff:      0.203D-01 0.110D-01-0.711D-01-0.182D+00-0.257D-01 0.502D+00
 Coeff:      0.743D+00
 Gap=     0.122 Goal=   None    Shift=    0.000
 RMSDP=4.62D-09 MaxDP=3.32D-07 DE= 9.09D-11 OVMax= 3.27D-06

 SCF Done:  E(RCAM-B3LYP) =  -4069.81179969     A.U. after   19 cycles
            NFock= 19  Conv=0.46D-08     -V/T= 2.0102
 KE= 4.028802102711D+03 PE=-3.695921261884D+04 EE= 1.512145415552D+04
 Leave Link  502 at Sat Sep  4 15:29:28 2021, MaxMem= 23488102400 cpu:           11606.1 elap:             508.1
 (Enter /sw/apps/gaussian-16.0/g16/l801.exe)
 DoSCS=F DFT=T ScalE2(SS,OS)=  1.000000  1.000000
 ExpMin= 3.36D-02 ExpMax= 4.95D+03 ExpMxC= 7.45D+02 IAcc=3 IRadAn=         5 AccDes= 0.00D+00
 HarFok:  IExCor=  205 AccDes= 0.00D+00 IRadAn=         5 IDoV=-2 UseB2=F ITyADJ=14
 ICtDFT= 12500011 ScaDFX=  1.000000  1.000000  1.000000  1.000000
 GSVD:  LWork=       -9588 too small for GESVD, short by       45590 words or       45590 for optimal perf.
 Largest valence mixing into a core orbital is  2.03D-04
 Largest core mixing into a valence orbital is  5.24D-05
 Range of M.O.s used for correlation:    95  1572
 NBasis=  1572 NAE=   312 NBE=   312 NFC=    94 NFV=     0
 NROrb=   1478 NOA=   218 NOB=   218 NVA=  1260 NVB=  1260
 Leave Link  801 at Sat Sep  4 15:29:29 2021, MaxMem= 23488102400 cpu:               8.2 elap:               0.4
 (Enter /sw/apps/gaussian-16.0/g16/l914.exe)
 RHF ground state
 Two-electron integrals replicated using symmetry.
 MDV= 23488102400 DFT=T DoStab=F Mixed=T DoRPA=T DoScal=F NonHer=T
 Making orbital integer symmetry assigments:
 Orbital symmetries:
       Occupied  (A) (A) (A) (A) (A) (A) (A) (A) (A) (A) (A) (A)
                 (A) (A) (A) (A) (A) (A) (A) (A) (A) (A) (A) (A)
                 (A) (A) (A) (A) (A) (A) (A) (A) (A) (A) (A) (A)
                 (A) (A) (A) (A) (A) (A) (A) (A) (A) (A) (A) (A)
                 (A) (A) (A) (A) (A) (A) (A) (A) (A) (A) (A) (A)
                 (A) (A) (A) (A) (A) (A) (A) (A) (A) (A) (A) (A)
                 (A) (A) (A) (A) (A) (A) (A) (A) (A) (A) (A) (A)
                 (A) (A) (A) (A) (A) (A) (A) (A) (A) (A) (A) (A)
                 (A) (A) (A) (A) (A) (A) (A) (A) (A) (A) (A) (A)
                 (A) (A) (A) (A) (A) (A) (A) (A) (A) (A) (A) (A)
                 (A) (A) (A) (A) (A) (A) (A) (A) (A) (A) (A) (A)
                 (A) (A) (A) (A) (A) (A) (A) (A) (A) (A) (A) (A)
                 (A) (A) (A) (A) (A) (A) (A) (A) (A) (A) (A) (A)
                 (A) (A) (A) (A) (A) (A) (A) (A) (A) (A) (A) (A)
                 (A) (A) (A) (A) (A) (A) (A) (A) (A) (A) (A) (A)
                 (A) (A) (A) (A) (A) (A) (A) (A) (A) (A) (A) (A)
                 (A) (A) (A) (A) (A) (A) (A) (A) (A) (A) (A) (A)
                 (A) (A) (A) (A) (A) (A) (A) (A) (A) (A) (A) (A)
                 (A) (A) (A) (A) (A) (A) (A) (A) (A) (A) (A) (A)
                 (A) (A) (A) (A) (A) (A) (A) (A) (A) (A) (A) (A)
                 (A) (A) (A) (A) (A) (A) (A) (A) (A) (A) (A) (A)
                 (A) (A) (A) (A) (A) (A) (A) (A) (A) (A) (A) (A)
                 (A) (A) (A) (A) (A) (A) (A) (A) (A) (A) (A) (A)
                 (A) (A) (A) (A) (A) (A) (A) (A) (A) (A) (A) (A)
                 (A) (A) (A) (A) (A) (A) (A) (A) (A) (A) (A) (A)
                 (A) (A) (A) (A) (A) (A) (A) (A) (A) (A) (A) (A)
       Virtual   (A) (A) (A) (A) (A) (A) (A) (A) (A) (A) (A) (A)
                 (A) (A) (A) (A) (A) (A) (A) (A) (A) (A) (A) (A)
                 (A) (A) (A) (A) (A) (A) (A) (A) (A) (A) (A) (A)
                 (A) (A) (A) (A) (A) (A) (A) (A) (A) (A) (A) (A)
                 (A) (A) (A) (A) (A) (A) (A) (A) (A) (A) (A) (A)
                 (A) (A) (A) (A) (A) (A) (A) (A) (A) (A) (A) (A)
                 (A) (A) (A) (A) (A) (A) (A) (A) (A) (A) (A) (A)
                 (A) (A) (A) (A) (A) (A) (A) (A) (A) (A) (A) (A)
                 (A) (A) (A) (A) (A) (A) (A) (A) (A) (A) (A) (A)
                 (A) (A) (A) (A) (A) (A) (A) (A) (A) (A) (A) (A)
                 (A) (A) (A) (A) (A) (A) (A) (A) (A) (A) (A) (A)
                 (A) (A) (A) (A) (A) (A) (A) (A) (A) (A) (A) (A)
                 (A) (A) (A) (A) (A) (A) (A) (A) (A) (A) (A) (A)
                 (A) (A) (A) (A) (A) (A) (A) (A) (A) (A) (A) (A)
                 (A) (A) (A) (A) (A) (A) (A) (A) (A) (A) (A) (A)
                 (A) (A) (A) (A) (A) (A) (A) (A) (A) (A) (A) (A)
                 (A) (A) (A) (A) (A) (A) (A) (A) (A) (A) (A) (A)
                 (A) (A) (A) (A) (A) (A) (A) (A) (A) (A) (A) (A)
                 (A) (A) (A) (A) (A) (A) (A) (A) (A) (A) (A) (A)
                 (A) (A) (A) (A) (A) (A) (A) (A) (A) (A) (A) (A)
                 (A) (A) (A) (A) (A) (A) (A) (A) (A) (A) (A) (A)
                 (A) (A) (A) (A) (A) (A) (A) (A) (A) (A) (A) (A)
                 (A) (A) (A) (A) (A) (A) (A) (A) (A) (A) (A) (A)
                 (A) (A) (A) (A) (A) (A) (A) (A) (A) (A) (A) (A)
                 (A) (A) (A) (A) (A) (A) (A) (A) (A) (A) (A) (A)
                 (A) (A) (A) (A) (A) (A) (A) (A) (A) (A) (A) (A)
                 (A) (A) (A) (A) (A) (A) (A) (A) (A) (A) (A) (A)
                 (A) (A) (A) (A) (A) (A) (A) (A) (A) (A) (A) (A)
                 (A) (A) (A) (A) (A) (A) (A) (A) (A) (A) (A) (A)
                 (A) (A) (A) (A) (A) (A) (A) (A) (A) (A) (A) (A)
                 (A) (A) (A) (A) (A) (A) (A) (A) (A) (A) (A) (A)
                 (A) (A) (A) (A) (A) (A) (A) (A) (A) (A) (A) (A)
                 (A) (A) (A) (A) (A) (A) (A) (A) (A) (A) (A) (A)
                 (A) (A) (A) (A) (A) (A) (A) (A) (A) (A) (A) (A)
                 (A) (A) (A) (A) (A) (A) (A) (A) (A) (A) (A) (A)
                 (A) (A) (A) (A) (A) (A) (A) (A) (A) (A) (A) (A)
                 (A) (A) (A) (A) (A) (A) (A) (A) (A) (A) (A) (A)
                 (A) (A) (A) (A) (A) (A) (A) (A) (A) (A) (A) (A)
                 (A) (A) (A) (A) (A) (A) (A) (A) (A) (A) (A) (A)
                 (A) (A) (A) (A) (A) (A) (A) (A) (A) (A) (A) (A)
                 (A) (A) (A) (A) (A) (A) (A) (A) (A) (A) (A) (A)
                 (A) (A) (A) (A) (A) (A) (A) (A) (A) (A) (A) (A)
                 (A) (A) (A) (A) (A) (A) (A) (A) (A) (A) (A) (A)
                 (A) (A) (A) (A) (A) (A) (A) (A) (A) (A) (A) (A)
                 (A) (A) (A) (A) (A) (A) (A) (A) (A) (A) (A) (A)
                 (A) (A) (A) (A) (A) (A) (A) (A) (A) (A) (A) (A)
                 (A) (A) (A) (A) (A) (A) (A) (A) (A) (A) (A) (A)
                 (A) (A) (A) (A) (A) (A) (A) (A) (A) (A) (A) (A)
                 (A) (A) (A) (A) (A) (A) (A) (A) (A) (A) (A) (A)
                 (A) (A) (A) (A) (A) (A) (A) (A) (A) (A) (A) (A)
                 (A) (A) (A) (A) (A) (A) (A) (A) (A) (A) (A) (A)
                 (A) (A) (A) (A) (A) (A) (A) (A) (A) (A) (A) (A)
                 (A) (A) (A) (A) (A) (A) (A) (A) (A) (A) (A) (A)
                 (A) (A) (A) (A) (A) (A) (A) (A) (A) (A) (A) (A)
                 (A) (A) (A) (A) (A) (A) (A) (A) (A) (A) (A) (A)
                 (A) (A) (A) (A) (A) (A) (A) (A) (A) (A) (A) (A)
                 (A) (A) (A) (A) (A) (A) (A) (A) (A) (A) (A) (A)
                 (A) (A) (A) (A) (A) (A) (A) (A) (A) (A) (A) (A)
                 (A) (A) (A) (A) (A) (A) (A) (A) (A) (A) (A) (A)
                 (A) (A) (A) (A) (A) (A) (A) (A) (A) (A) (A) (A)
                 (A) (A) (A) (A) (A) (A) (A) (A) (A) (A) (A) (A)
                 (A) (A) (A) (A) (A) (A) (A) (A) (A) (A) (A) (A)
                 (A) (A) (A) (A) (A) (A) (A) (A) (A) (A) (A) (A)
                 (A) (A) (A) (A) (A) (A) (A) (A) (A) (A) (A) (A)
                 (A) (A) (A) (A) (A) (A) (A) (A) (A) (A) (A) (A)
                 (A) (A) (A) (A) (A) (A) (A) (A) (A) (A) (A) (A)
                 (A) (A) (A) (A) (A) (A) (A) (A) (A) (A) (A) (A)
                 (A) (A) (A) (A) (A) (A) (A) (A) (A) (A) (A) (A)
                 (A) (A) (A) (A) (A) (A) (A) (A) (A) (A) (A) (A)
                 (A) (A) (A) (A) (A) (A) (A) (A) (A) (A) (A) (A)
                 (A) (A) (A) (A) (A) (A) (A) (A) (A) (A) (A) (A)
                 (A) (A) (A) (A) (A) (A) (A) (A) (A) (A) (A) (A)
                 (A) (A) (A) (A) (A) (A) (A) (A) (A) (A) (A) (A)
                 (A) (A) (A) (A) (A) (A) (A) (A) (A) (A) (A) (A)
                 (A) (A) (A) (A) (A) (A) (A) (A) (A) (A) (A) (A)
                 (A) (A) (A) (A) (A) (A) (A) (A) (A) (A) (A) (A)
                 (A) (A) (A) (A) (A) (A) (A) (A) (A) (A) (A) (A)
                 (A) (A) (A) (A) (A) (A) (A) (A) (A) (A) (A) (A)
                 (A) (A) (A) (A) (A) (A) (A) (A) (A) (A) (A) (A)
                 (A) (A) (A) (A) (A) (A) (A) (A) (A) (A) (A) (A)
                 (A) (A) (A) (A) (A) (A) (A) (A) (A) (A) (A) (A)
                 (A) (A) (A) (A) (A) (A) (A) (A) (A) (A) (A) (A)
                 (A) (A) (A) (A) (A) (A) (A) (A) (A) (A) (A) (A)
                 (A) (A) (A) (A) (A) (A) (A) (A) (A) (A) (A) (A)
                 (A) (A) (A) (A) (A) (A) (A) (A) (A) (A) (A) (A)
                 (A) (A) (A) (A) (A) (A) (A) (A) (A) (A) (A) (A)
                 (A) (A) (A) (A) (A) (A) (A) (A) (A) (A) (A) (A)
                 (A) (A) (A) (A) (A) (A) (A) (A) (A) (A) (A) (A)
                 (A) (A) (A) (A) (A) (A) (A) (A) (A) (A) (A) (A)
                 (A) (A) (A) (A) (A) (A) (A) (A) (A) (A) (A) (A)
                 (A) (A) (A) (A) (A) (A) (A) (A) (A) (A) (A) (A)
                 (A) (A) (A) (A) (A) (A) (A) (A) (A) (A) (A) (A)
                 (A) (A) (A) (A) (A) (A) (A) (A) (A) (A) (A) (A)
                 (A) (A) (A) (A) (A) (A) (A) (A) (A) (A) (A) (A)
                 (A) (A) (A) (A) (A) (A) (A) (A) (A) (A) (A) (A)
                 (A) (A) (A) (A) (A) (A) (A) (A) (A) (A) (A) (A)
                 (A) (A) (A) (A) (A) (A) (A) (A) (A) (A) (A) (A)
                 (A) (A) (A) (A) (A) (A) (A) (A) (A) (A) (A) (A)
                 (A) (A) (A) (A) (A) (A) (A) (A) (A) (A) (A) (A)
                 (A) (A) (A) (A) (A) (A) (A) (A) (A) (A) (A) (A)
                 (A) (A) (A) (A) (A) (A) (A) (A) (A) (A) (A) (A)
                 (A) (A) (A) (A) (A) (A) (A) (A) (A) (A) (A) (A)
                 (A) (A) (A) (A) (A) (A) (A) (A) (A) (A) (A) (A)
                 (A) (A) (A) (A) (A) (A) (A) (A) (A) (A) (A) (A)
                 (A) (A) (A) (A) (A) (A) (A) (A) (A) (A) (A) (A)
    20 initial guesses have been made.
 Convergence on wavefunction:    0.001000000000000
 Davidson Disk Diagonalization:  ConvIn= 1.00D-03 SkipCon=T Conv= 1.00D-03.
 Max sub-space:  2000 roots to seek:    20 dimension of matrix:       549360
 Iteration     1 Dimension    20 NMult     0 NNew     20
 CISAX will form    20 AO SS matrices at one time.
 NMat=    20 NSing=    20 JSym2X= 0.
 FoFJK:  IHMeth= 1 ICntrl=       0 DoSepK=T KAlg= 0 I1Cent=           0 FoldK=F
 IRaf=         1 NMat=      40 IRICut=       1 DoRegI=T DoRafI=F ISym2E= 0 IDoP0=3 IntGTp=3.
 FoFCou: FMM=T IPFlag=           0 FMFlag=      100000 FMFlg1=        2001
         NFxFlg=           0 DoJE=F BraDBF=F KetDBF=F FulRan=T
         wScrn=  0.000000 ICntrl=       500 IOpCl=  0 I1Cent=           0 NGrid=           0
         NMat0=   20 NMatS0=     20 NMatT0=    0 NMatD0=   20 NMtDS0=    0 NMtDT0=    0
 Symmetry not used in FoFCou.
 FMM levels:  10  Number of levels for PrismC:   9
 New state      1 was old state      7
 New state      2 was old state      6
 New state      3 was old state      2
 New state      4 was old state      3
 New state      5 was old state      1
 Excitation Energies [eV] at current iteration:
 Root      1 :     2.613596473430904
 Root      2 :     2.620051493586487
 Root      3 :     2.672024807308189
 Root      4 :     2.698415033700118
 Root      5 :     2.763892484174645
 Root      6 :     2.825700932841927
 Root      7 :     3.554709477468054
 Root      8 :     3.627413422740136
 Root      9 :     3.627771840310381
 Root     10 :     3.669280610200203
 Root     11 :     3.737601299573929
 Root     12 :     3.759211223124602
 Root     13 :     4.294361378665732
 Root     14 :     4.314358657467379
 Root     15 :     4.672482471649013
 Root     16 :     4.759526956581672
 Root     17 :     4.976735191043005
 Root     18 :     5.011444158049763
 Root     19 :     5.051950372026894
 Root     20 :     5.085819317304720
 Iteration     2 Dimension    30 NMult    20 NNew     10
 CISAX will form    10 AO SS matrices at one time.
 NMat=    10 NSing=    10 JSym2X= 0.
 New state      1 was old state      3
 Root      1 not converged, maximum delta is    0.160913904133072
 New state      2 was old state      4
 Root      2 not converged, maximum delta is    0.164251751659306
 New state      3 was old state      2
 Root      3 not converged, maximum delta is    0.358594634163473
 New state      4 was old state      1
 Root      4 not converged, maximum delta is    0.351061593833876
 Root      5 has converged.
 Excitation Energies [eV] at current iteration:
 Root      1 :     1.797512518348911   Change is   -0.874512288959278
 Root      2 :     1.810598731023081   Change is   -0.887816302677037
 Root      3 :     2.235187217161042   Change is   -0.384864276425445
 Root      4 :     2.239647921472555   Change is   -0.373948551958349
 Root      5 :     2.763810950026747   Change is   -0.000081534147897
 Iteration     3 Dimension    38 NMult    30 NNew      8
 CISAX will form     8 AO SS matrices at one time.
 NMat=     8 NSing=     8 JSym2X= 0.
 Root      1 not converged, maximum delta is    0.057960154957272
 Root      2 not converged, maximum delta is    0.059018140551438
 Root      3 not converged, maximum delta is    0.097957288811740
 Root      4 not converged, maximum delta is    0.097560245100475
 Root      5 has converged.
 Excitation Energies [eV] at current iteration:
 Root      1 :     1.690451215768019   Change is   -0.107061302580892
 Root      2 :     1.702111883984847   Change is   -0.108486847038234
 Root      3 :     2.193584998347598   Change is   -0.041602218813444
 Root      4 :     2.200688373733937   Change is   -0.038959547738618
 Root      5 :     2.763810950026866   Change is    0.000000000000119
 Iteration     4 Dimension    46 NMult    38 NNew      8
 CISAX will form     8 AO SS matrices at one time.
 NMat=     8 NSing=     8 JSym2X= 0.
 Root      1 not converged, maximum delta is    0.011225481041533
 Root      2 not converged, maximum delta is    0.011285566324175
 Root      3 not converged, maximum delta is    0.010342960304340
 Root      4 not converged, maximum delta is    0.010253614528316
 Root      5 has converged.
 Excitation Energies [eV] at current iteration:
 Root      1 :     1.673715183430976   Change is   -0.016736032337044
 Root      2 :     1.685256635116593   Change is   -0.016855248868254
 Root      3 :     2.186253935070581   Change is   -0.007331063277017
 Root      4 :     2.193911446004750   Change is   -0.006776927729186
 Root      5 :     2.763810950026926   Change is    0.000000000000060
 Iteration     5 Dimension    54 NMult    46 NNew      8
 CISAX will form     8 AO SS matrices at one time.
 NMat=     8 NSing=     8 JSym2X= 0.
 Root      1 not converged, maximum delta is    0.001830248238757
 Root      2 not converged, maximum delta is    0.001861155703961
 Root      3 not converged, maximum delta is    0.002497179388105
 Root      4 not converged, maximum delta is    0.002341101820160
 Root      5 has converged.
 Excitation Energies [eV] at current iteration:
 Root      1 :     1.671948224533341   Change is   -0.001766958897635
 Root      2 :     1.683474783209314   Change is   -0.001781851907278
 Root      3 :     2.185401035242297   Change is   -0.000852899828284
 Root      4 :     2.193137983077994   Change is   -0.000773462926757
 Root      5 :     2.763810950026896   Change is   -0.000000000000030
 Iteration     6 Dimension    62 NMult    54 NNew      8
 CISAX will form     8 AO SS matrices at one time.
 NMat=     8 NSing=     8 JSym2X= 0.
 Root      1 not converged, maximum delta is    0.001145499725964
 Root      2 not converged, maximum delta is    0.001159065279897
 Root      3 not converged, maximum delta is    0.001069322084963
 Root      4 has converged.
 Root      5 has converged.
 Excitation Energies [eV] at current iteration:
 Root      1 :     1.671696354394951   Change is   -0.000251870138390
 Root      2 :     1.683218925218227   Change is   -0.000255857991087
 Root      3 :     2.185271766313473   Change is   -0.000129268928824
 Root      4 :     2.193020254915724   Change is   -0.000117728162270
 Root      5 :     2.763810950026778   Change is   -0.000000000000119
 Iteration     7 Dimension    68 NMult    62 NNew      6
 CISAX will form     6 AO SS matrices at one time.
 NMat=     6 NSing=     6 JSym2X= 0.
 Root      1 has converged.
 Root      2 has converged.
 Root      3 has converged.
 Root      4 has converged.
 Root      5 has converged.
 Excitation Energies [eV] at current iteration:
 Root      1 :     1.671671970306755   Change is   -0.000024384088196
 Root      2 :     1.683194595938728   Change is   -0.000024329279499
[...]
 Alpha virt. eigenvalues --    1.83561   1.83755   1.83916   1.84021   1.84245
 Alpha virt. eigenvalues --    1.84446   1.84545   1.84807   1.84820   1.85097
 Alpha virt. eigenvalues --    1.85146   1.85270   1.85357   1.85489   1.85512
 Alpha virt. eigenvalues --    1.85864   1.85929   1.86360   1.86404   1.86554
 Alpha virt. eigenvalues --    1.86676   1.86780   1.86841   1.87030   1.87069
 Alpha virt. eigenvalues --    1.87438   1.87512   1.87670   1.87803   1.87864
 Alpha virt. eigenvalues --    1.88035   1.88036   1.88206   1.88531   1.88604
 Alpha virt. eigenvalues --    1.88812   1.88979   1.89105   1.89127   1.89625
 Alpha virt. eigenvalues --    1.89683   1.89745   1.89893   1.90113   1.90219
 Alpha virt. eigenvalues --    1.90743   1.90928   1.91340   1.91436   1.91447
 Alpha virt. eigenvalues --    1.91640   1.92149   1.92220   1.92603   1.92694
 Alpha virt. eigenvalues --    1.92980   1.93177   1.93340   1.93521   1.94280
 Alpha virt. eigenvalues --    1.94328   1.94688   1.94835   1.95480   1.95609
 Alpha virt. eigenvalues --    1.95715   1.95849   1.95980   1.96076   1.96153
 Alpha virt. eigenvalues --    1.96208   1.96509   1.96590   1.96894   1.96964
 Alpha virt. eigenvalues --    1.97445   1.97568   1.97833   1.97833   1.98159
 Alpha virt. eigenvalues --    1.98204   1.98386   1.98649   1.99100   1.99124
 Alpha virt. eigenvalues --    1.99805   1.99968   2.00658   2.00752   2.00985
 Alpha virt. eigenvalues --    2.01126   2.01457   2.01523   2.01639   2.01672
 Alpha virt. eigenvalues --    2.01704   2.01860   2.02738   2.02776   2.03162
 Alpha virt. eigenvalues --    2.03232   2.03391   2.03409   2.03468   2.03551
 Alpha virt. eigenvalues --    2.04026   2.04053   2.04956   2.04995   2.05512
 Alpha virt. eigenvalues --    2.05647   2.06075   2.06306   2.06883   2.07070
 Alpha virt. eigenvalues --    2.07180   2.07374   2.08556   2.08589   2.08974
 Alpha virt. eigenvalues --    2.09033   2.09575   2.09638   2.10784   2.11047
 Alpha virt. eigenvalues --    2.11177   2.11430   2.11517   2.11567   2.11720
 Alpha virt. eigenvalues --    2.11893   2.12452   2.12499   2.12801   2.12822
 Alpha virt. eigenvalues --    2.12829   2.12901   2.13676   2.13742   2.14141
 Alpha virt. eigenvalues --    2.14269   2.15330   2.15424   2.15915   2.16117
 Alpha virt. eigenvalues --    2.16522   2.16616   2.16750   2.17197   2.17410
 Alpha virt. eigenvalues --    2.17663   2.17700   2.17971   2.18020   2.18071
 Alpha virt. eigenvalues --    2.18308   2.18705   2.18849   2.19272   2.19628
 Alpha virt. eigenvalues --    2.19849   2.20025   2.20204   2.20269   2.20466
 Alpha virt. eigenvalues --    2.21157   2.21181   2.21665   2.21732   2.21787
 Alpha virt. eigenvalues --    2.21899   2.22674   2.22728   2.23312   2.23360
 Alpha virt. eigenvalues --    2.24393   2.24432   2.24965   2.25013   2.26283
 Alpha virt. eigenvalues --    2.26469   2.26774   2.27031   2.27088   2.27230
 Alpha virt. eigenvalues --    2.28126   2.28352   2.29263   2.29462   2.29722
 Alpha virt. eigenvalues --    2.29908   2.30436   2.30657   2.30863   2.31069
 Alpha virt. eigenvalues --    2.31158   2.31220   2.32119   2.32253   2.33121
 Alpha virt. eigenvalues --    2.33262   2.33452   2.33504   2.34134   2.34162
 Alpha virt. eigenvalues --    2.35330   2.35347   2.35783   2.35940   2.36351
 Alpha virt. eigenvalues --    2.36355   2.36456   2.36616   2.37661   2.37690
 Alpha virt. eigenvalues --    2.38257   2.38387   2.38816   2.38834   2.39601
 Alpha virt. eigenvalues --    2.39689   2.40177   2.40279   2.40468   2.40860
 Alpha virt. eigenvalues --    2.41243   2.41245   2.41684   2.41705   2.42019
 Alpha virt. eigenvalues --    2.42154   2.42826   2.42945   2.43104   2.43493
 Alpha virt. eigenvalues --    2.43991   2.44151   2.44720   2.44822   2.44892
 Alpha virt. eigenvalues --    2.45013   2.45543   2.45586   2.46297   2.46299
 Alpha virt. eigenvalues --    2.46468   2.46508   2.46786   2.46819   2.47247
 Alpha virt. eigenvalues --    2.47390   2.47706   2.47897   2.49309   2.49394
 Alpha virt. eigenvalues --    2.49896   2.50069   2.50460   2.50549   2.51100
 Alpha virt. eigenvalues --    2.51291   2.51619   2.51869   2.52415   2.52421
 Alpha virt. eigenvalues --    2.52794   2.53188   2.53912   2.53977   2.54149
 Alpha virt. eigenvalues --    2.54277   2.54782   2.54817   2.55514   2.55675
 Alpha virt. eigenvalues --    2.57857   2.58085   2.58638   2.58916   2.60185
 Alpha virt. eigenvalues --    2.60324   2.60591   2.60945   2.61704   2.61828
 Alpha virt. eigenvalues --    2.62442   2.62515   2.62944   2.63137   2.63922
 Alpha virt. eigenvalues --    2.64238   2.64245   2.64423   2.65069   2.65108
 Alpha virt. eigenvalues --    2.65765   2.65879   2.66773   2.66820   2.66900
 Alpha virt. eigenvalues --    2.67072   2.67900   2.67990   2.68820   2.68843
 Alpha virt. eigenvalues --    2.69004   2.69048   2.69384   2.69603   2.69987
 Alpha virt. eigenvalues --    2.70141   2.70966   2.71082   2.71900   2.72035
 Alpha virt. eigenvalues --    2.72502   2.72636   2.72753   2.72793   2.73275
 Alpha virt. eigenvalues --    2.73279   2.73483   2.73496   2.74499   2.74511
 Alpha virt. eigenvalues --    2.74960   2.75060   2.76521   2.76585   2.77070
 Alpha virt. eigenvalues --    2.77218   2.77445   2.77602   2.78185   2.78282
 Alpha virt. eigenvalues --    2.78688   2.78711   2.79121   2.79161   2.80250
 Alpha virt. eigenvalues --    2.80333   2.80563   2.80696   2.81103   2.81149
 Alpha virt. eigenvalues --    2.81918   2.81995   2.82334   2.82334   2.83734
 Alpha virt. eigenvalues --    2.83760   2.83833   2.83911   2.84518   2.84539
 Alpha virt. eigenvalues --    2.84876   2.84879   2.85661   2.85679   2.86655
 Alpha virt. eigenvalues --    2.86981   2.87184   2.87574   2.88148   2.88222
 Alpha virt. eigenvalues --    2.88500   2.88614   2.88863   2.88925   2.90479
 Alpha virt. eigenvalues --    2.90662   2.91064   2.91185   2.93137   2.93325
 Alpha virt. eigenvalues --    2.93768   2.94188   2.94555   2.94555   2.95339
 Alpha virt. eigenvalues --    2.95486   2.95855   2.96167   2.96364   2.96429
 Alpha virt. eigenvalues --    2.96881   2.97145   2.97786   2.98012   2.98195
 Alpha virt. eigenvalues --    2.98359   2.98369   2.98575   2.98593   2.98779
 Alpha virt. eigenvalues --    2.98876   2.98912   2.99584   2.99778   3.00005
 Alpha virt. eigenvalues --    3.00025   3.00202   3.00320   3.00442   3.01001
 Alpha virt. eigenvalues --    3.01897   3.01984   3.02019   3.02121   3.02700
 Alpha virt. eigenvalues --    3.02818   3.02954   3.03310   3.03320   3.03726
 Alpha virt. eigenvalues --    3.04056   3.04166   3.04424   3.04446   3.04540
 Alpha virt. eigenvalues --    3.04719   3.05296   3.05336   3.06101   3.06158
 Alpha virt. eigenvalues --    3.06778   3.06940   3.07902   3.08142   3.09335
 Alpha virt. eigenvalues --    3.09378   3.09672   3.10424   3.10444   3.10744
 Alpha virt. eigenvalues --    3.11331   3.11461   3.11877   3.11915   3.12182
 Alpha virt. eigenvalues --    3.12313   3.13261   3.13638   3.13651   3.13670
 Alpha virt. eigenvalues --    3.14057   3.14485   3.15926   3.15962   3.17255
 Alpha virt. eigenvalues --    3.17512   3.17852   3.18077   3.19014   3.19123
 Alpha virt. eigenvalues --    3.22272   3.22602   3.23937   3.24433   3.24658
 Alpha virt. eigenvalues --    3.25191   3.26496   3.26648   3.27389   3.27610
 Alpha virt. eigenvalues --    3.29065   3.29229   3.31371   3.31515   3.33176
 Alpha virt. eigenvalues --    3.33411   3.40272   3.40588   3.42797   3.42813
 Alpha virt. eigenvalues --    3.48649   3.48691   3.50014   3.50274   3.50830
 Alpha virt. eigenvalues --    3.51467   3.56545   3.56993   3.59096   3.59327
 Alpha virt. eigenvalues --    3.62507   3.62828   3.66086   3.66185   3.67149
 Alpha virt. eigenvalues --    3.67551   3.73242   3.74025   3.76033   3.76682
          Condensed to atoms (all electrons):
 Mulliken charges:
               1
     1  Mg   0.838645
     2  C   -0.003134
     3  C   -0.094239
     4  C   -0.045806
     5  C   -0.063823
     6  N   -0.256766
     7  C   -0.052540
     8  C   -0.013998
     9  C   -0.086972
    10  C    0.046236
    11  C    0.104793
    12  C    0.053512
    13  C   -0.071563
    14  H    0.035396
    15  N   -0.433145
    16  C    0.168379
    17  C   -0.177182
    18  C   -0.003960
    19  C    0.148690
    20  C    0.110172
    21  C    0.012300
    22  O   -0.249533
    23  C    0.062474
    24  N   -0.341139
    25  C    0.041250
    26  C   -0.028181
    27  C   -0.024013
    28  C    0.074806
    29  C    0.076138
    30  C    0.035090
    31  C   -0.004541
    32  N   -0.310487
    33  C    0.080379
    34  C   -0.169567
    35  C    0.008363
    36  C    0.082947
    37  C    0.127289
    38  C    0.046109
    39  O   -0.188424
    40  C   -0.005342
    41  C    0.212898
    42  O   -0.257405
    43  O   -0.304670
    44  C    0.157816
    45  H   -0.017609
    46  H   -0.016737
    47  H   -0.041273
    48  H    0.000943
    49  H   -0.004170
    50  H    0.025516
    51  H    0.016573
    52  H    0.016661
    53  H    0.011080
    54  H    0.043868
    55  H    0.018064
    56  H    0.017913
    57  H    0.005790
    58  H    0.026927
    59  H    0.039510
    60  H    0.037376
    61  H    0.035785
    62  H    0.031467
    63  H    0.016591
    64  H    0.009577
    65  H    0.023293
    66  H    0.012540
    67  H    0.004858
    68  H    0.006475
    69  H    0.004934
    70  H    0.008714
    71  H    0.018384
    72  H    0.028822
    73  H    0.047693
    74  H    0.009322
    75  H    0.046072
    76  H    0.035212
    77  H    0.043020
    78  H    0.046260
    79  H    0.053294
    80  Mg   0.837962
    81  C   -0.016771
    82  C   -0.087726
    83  C   -0.045644
    84  C   -0.064904
    85  N   -0.254615
    86  C   -0.049536
    87  C   -0.015172
    88  C   -0.090549
    89  C    0.045833
    90  C    0.114336
    91  C    0.062520
    92  C   -0.077858
    93  H    0.034647
    94  N   -0.423487
    95  C    0.162890
    96  C   -0.174708
    97  C   -0.008022
    98  C    0.152142
    99  C    0.099444
   100  C    0.015405
   101  O   -0.253415
   102  C    0.061263
   103  N   -0.350058
   104  C    0.037559
   105  C   -0.019823
   106  C   -0.034826
   107  C    0.088999
   108  C    0.073673
   109  C    0.034767
   110  C   -0.007641
   111  N   -0.324145
   112  C    0.078564
   113  C   -0.163121
   114  C    0.002393
   115  C    0.096201
   116  C    0.131455
   117  C    0.042479
   118  O   -0.187713
   119  C    0.000908
   120  C    0.211202
   121  O   -0.251240
   122  O   -0.305370
   123  C    0.152097
   124  H   -0.019627
   125  H   -0.015815
   126  H   -0.040559
   127  H   -0.000112
   128  H   -0.004525
   129  H    0.023276
   130  H    0.014471
   131  H    0.016699
   132  H    0.013697
   133  H    0.037544
   134  H    0.021232
   135  H    0.019435
   136  H    0.008785
   137  H    0.025791
   138  H    0.039557
   139  H    0.038038
   140  H    0.036107
   141  H    0.033874
   142  H    0.014212
   143  H    0.012483
   144  H    0.024891
   145  H    0.011693
   146  H    0.005793
   147  H    0.006131
   148  H    0.003605
   149  H    0.010827
   150  H    0.017800
   151  H    0.030178
   152  H    0.045921
   153  H    0.008351
   154  H    0.047188
   155  H    0.035740
   156  H    0.044046
   157  H    0.049524
   158  H    0.053357
 Sum of Mulliken charges =  -0.00000
 Mulliken charges with hydrogens summed into heavy atoms:
               1
     1  Mg   0.838645
     2  C   -0.003134
     3  C   -0.111848
     4  C   -0.062543
     5  C   -0.105096
     6  N   -0.256766
     7  C   -0.052540
     8  C   -0.013055
     9  C   -0.091141
    10  C    0.046236
    11  C    0.163544
    12  C    0.108460
    13  C   -0.000190
    15  N   -0.433145
    16  C    0.168379
    17  C   -0.177182
    18  C   -0.003960
    19  C    0.148690
    20  C    0.182399
    21  C    0.012300
    22  O   -0.249533
    23  C    0.167103
    24  N   -0.341139
    25  C    0.041250
    26  C   -0.011590
    27  C   -0.014436
    28  C    0.074806
    29  C    0.116829
    30  C    0.046499
    31  C    0.051379
    32  N   -0.310487
    33  C    0.080379
    34  C   -0.169567
    35  C    0.008363
    36  C    0.082947
    37  C    0.230378
    38  C    0.046109
    39  O   -0.188424
    40  C    0.029871
    41  C    0.212898
    42  O   -0.257405
    43  O   -0.304670
    44  C    0.300390
    80  Mg   0.837962
    81  C   -0.016771
    82  C   -0.107353
    83  C   -0.061459
    84  C   -0.105463
    85  N   -0.254615
    86  C   -0.049536
    87  C   -0.015284
    88  C   -0.095074
    89  C    0.045833
    90  C    0.168782
    91  C    0.113761
    92  C   -0.002544
    94  N   -0.423487
    95  C    0.162890
    96  C   -0.174708
    97  C   -0.008022
    98  C    0.152142
    99  C    0.173577
   100  C    0.015405
   101  O   -0.253415
   102  C    0.169282
   103  N   -0.350058
   104  C    0.037559
   105  C   -0.005612
   106  C   -0.022343
   107  C    0.088999
   108  C    0.116049
   109  C    0.044503
   110  C    0.051163
   111  N   -0.324145
   112  C    0.078564
   113  C   -0.163121
   114  C    0.002393
   115  C    0.096201
   116  C    0.232915
   117  C    0.042479
   118  O   -0.187713
   119  C    0.036648
   120  C    0.211202
   121  O   -0.251240
   122  O   -0.305370
   123  C    0.299024
 Electronic spatial extent (au):  <R**2>=         192866.5788
 Charge=             -0.0000 electrons
 Dipole moment (field-independent basis, Debye):
    X=              4.4030    Y=             -2.1901    Z=              6.8735  Tot=              8.4515
 Quadrupole moment (field-independent basis, Debye-Ang):
   XX=           -517.6408   YY=           -537.3135   ZZ=           -461.9431
   XY=            -17.4608   XZ=             -4.4733   YZ=             35.5075
 Traceless Quadrupole moment (field-independent basis, Debye-Ang):
   XX=            -12.0083   YY=            -31.6810   ZZ=             43.6893
   XY=            -17.4608   XZ=             -4.4733   YZ=             35.5075
 Octapole moment (field-independent basis, Debye-Ang**2):
  XXX=            848.0735  YYY=            243.3916  ZZZ=            136.0262  XYY=           -273.7877
  XXY=           -149.7560  XXZ=            511.2986  XZZ=            274.3977  YZZ=            -61.5829
  YYZ=            124.7161  XYZ=           -294.1847
 Hexadecapole moment (field-independent basis, Debye-Ang**3):
 XXXX=        -199783.4857 YYYY=         -40124.4608 ZZZZ=         -26119.9911 XXXY=           -309.2198
 XXXZ=            -54.2299 YYYX=          -2325.8213 YYYZ=            644.2688 ZZZX=          -1530.4316
 ZZZY=            445.6626 XXYY=         -40746.3100 XXZZ=         -34537.0500 YYZZ=         -11047.4280
 XXYZ=           2091.5584 YYXZ=           2081.6090 ZZXY=            687.8026
 N-N= 1.373914456092D+04 E-N=-3.695921261114D+04  KE= 4.028802102711D+03
 Leave Link  601 at Sat Sep  4 15:48:35 2021, MaxMem= 23488102400 cpu:              18.2 elap:               0.9
 (Enter /sw/apps/gaussian-16.0/g16/l9999.exe)
 1\1\GINC-BP1-COMPUTE00097\SP\RCAM-B3LYP TD-FC\def2SVP\C68H72Mg2N8O8\OF
 15641\04-Sep-2021\0\\#p cam-b3lyp/Def2SVP td=(nstates=5)\\TDDFT excite
 d states in gaussian\\0,1\Mg,0,0.,0.,0.\C,0,-0.217,-2.218,2.801\C,0,-1
 .255,2.442,2.026\C,0,-0.245,1.85,-2.564\C,0,0.146,-2.824,-2.037\N,0,-0
 .617,-0.009,2.126\C,0,-0.594,-0.908,3.105\C,0,-0.936,-0.309,4.502\C,0,
 -1.773,0.964,4.032\C,0,-1.155,1.168,2.66\C,0,-3.263,0.685,3.863\C,0,0.
 345,0.11,5.299\C,0,0.124,0.397,6.787\H,0,1.168,0.033,7.733\N,0,-0.185,
 1.961,-0.152\C,0,-0.703,2.8,0.777\C,0,-0.62,4.156,0.193\C,0,-0.187,4.0
 15,-1.225\C,0,-0.214,2.583,-1.38\C,0,-0.887,5.406,0.974\C,0,0.181,5.01
 3,-2.277\O,0,0.303,4.69,-3.508\C,0,0.31,6.414,-1.837\N,0,-0.265,-0.413
 ,-2.029\C,0,-0.279,0.569,-2.937\C,0,-0.196,0.024,-4.332\C,0,0.124,-1.5
 33,-4.18\C,0,0.086,-1.632,-2.635\C,0,-1.451,0.205,-5.197\C,0,1.373,-2.
 07,-4.923\C,0,2.626,-1.49,-4.306\N,0,0.15,-2.144,0.303\C,0,0.173,-3.13
 6,-0.688\C,0,0.173,-4.438,0.004\C,0,0.133,-4.111,1.358\C,0,0.083,-2.69
 5,1.502\C,0,0.149,-5.715,-0.623\C,0,0.096,-4.629,2.716\O,0,0.208,-5.74
 7,3.221\C,0,-0.255,-3.428,3.701\C,0,0.717,-3.482,4.848\O,0,1.931,-3.25
 5,4.669\O,0,0.038,-3.556,6.003\C,0,0.943,-3.583,7.183\H,0,-1.859,3.22,
 2.497\H,0,-0.218,2.453,-3.474\H,0,0.276,-3.747,-2.605\H,0,-1.554,-0.94
 9,5.132\H,0,-1.585,1.831,4.665\H,0,-3.484,-0.377,3.969\H,0,-3.511,1.02
 7,2.858\H,0,-3.852,1.301,4.543\H,0,0.669,1.096,4.966\H,0,1.13,-0.639,5
 .189\H,0,-0.844,0.026,7.125\H,0,0.062,1.477,6.921\H,0,-1.344,5.186,1.9
 38\H,0,-1.651,5.963,0.432\H,0,0.007,6.02,1.084\H,0,-0.635,6.744,-1.405
 \H,0,0.665,6.97,-2.704\H,0,1.048,6.466,-1.036\H,0,0.608,0.501,-4.891\H
 ,0,-0.692,-2.156,-4.547\H,0,-1.267,0.74,-6.129\H,0,-2.204,0.714,-4.596
 \H,0,-1.967,-0.72,-5.453\H,0,1.356,-1.759,-5.967\H,0,1.452,-3.157,-4.9
 02\H,0,2.714,-0.522,-4.798\H,0,3.487,-2.121,-4.529\H,0,2.495,-1.303,-3
 .24\H,0,0.867,-6.333,-0.084\H,0,0.404,-5.642,-1.68\H,0,-0.891,-5.999,-
 0.463\H,0,-1.283,-3.581,4.028\H,0,0.698,-4.478,7.755\H,0,0.833,-2.619,
 7.68\H,0,2.,-3.754,6.976\Mg,0,15.77302,1.41871,1.20581\C,0,15.84565,-2
 .13158,1.7247\C,0,14.62059,1.71196,4.40276\C,0,15.26997,4.4993,0.63634
 \C,0,15.8217,0.77917,-2.21973\N,0,15.33139,-0.08819,2.76352\C,0,15.455
 8,-1.40274,2.86761\C,0,15.22255,-1.95965,4.29765\C,0,14.307,-0.77185,4
 .87191\C,0,14.80286,0.36915,3.98595\C,0,12.82425,-0.97283,4.60659\C,0,
 16.55782,-2.09963,5.10974\C,0,16.44546,-2.92219,6.39524\H,0,17.57923,-
 3.75297,6.7913\N,0,15.52484,2.93347,2.46377\C,0,15.06876,2.8713,3.7324
 \C,0,15.05233,4.2583,4.22244\C,0,15.37939,5.16134,3.08566\C,0,15.38376
 ,4.21384,1.98916\C,0,14.82488,4.60929,5.66414\C,0,15.63216,6.63598,2.9
 9778\O,0,15.6635,7.24786,1.87197\C,0,15.74897,7.35825,4.273\N,0,15.360
 92,2.48232,-0.53236\C,0,15.23904,3.82121,-0.51107\C,0,15.21927,4.38946
 ,-1.91003\C,0,15.59795,3.17095,-2.87409\C,0,15.68773,2.03869,-1.82751\
 C,0,13.89315,5.00153,-2.36075\C,0,16.79702,3.38289,-3.83844\C,0,18.081
 82,3.48913,-3.04888\N,0,16.00967,-0.32509,-0.04767\C,0,15.97247,-0.372
 85,-1.45849\C,0,16.06546,-1.79469,-1.84858\C,0,16.12762,-2.48263,-0.62
 737\C,0,16.05661,-1.55652,0.44816\C,0,16.03539,-2.29553,-3.18063\C,0,1
 6.22647,-3.7825,-0.00344\O,0,16.40294,-4.93016,-0.41021\C,0,15.92092,-
 3.62282,1.54818\C,0,16.98418,-4.36572,2.30983\O,0,18.1686,-3.98841,2.2
 7262\O,0,16.39787,-5.26162,3.12467\C,0,17.41125,-6.01586,3.90953\H,0,1
 4.04295,1.9003,5.30816\H,0,15.20587,5.55981,0.382\H,0,15.94188,0.50442
 ,-3.26984\H,0,14.6823,-2.8979,4.33723\H,0,14.53175,-0.56931,5.91586\H,
 0,12.64084,-1.82565,3.97004\H,0,12.48517,-0.0635,4.12785\H,0,12.27758,
 -1.03774,5.55172\H,0,16.82277,-1.12276,5.53431\H,0,17.33909,-2.4987,4.
 4925\H,0,15.51364,-3.4993,6.43519\H,0,16.37161,-2.235,7.2416\H,0,14.44
 812,3.75011,6.23271\H,0,14.00391,5.33395,5.69114\H,0,15.70489,5.05457,
 6.13314\H,0,14.83636,7.22419,4.84887\H,0,16.01727,8.38211,4.00543\H,0,
 16.55892,6.90759,4.85739\H,0,15.96242,5.16952,-2.02112\H,0,14.76809,2.
 91119,-3.54766\H,0,13.98544,6.05712,-2.67901\H,0,13.18188,4.90938,-1.5
 5073\H,0,13.39179,4.47289,-3.16969\H,0,16.68609,4.32606,-4.37908\H,0,1
 6.89953,2.5971,-4.5794\H,0,18.0963,4.53899,-2.74122\H,0,18.93798,3.249
 87,-3.6764\H,0,18.0361,2.87957,-2.13893\H,0,16.80456,-3.05358,-3.24567
 \H,0,16.19574,-1.50196,-3.90748\H,0,15.01536,-2.68714,-3.21878\H,0,14.
 92612,-4.03139,1.72992\H,0,17.23566,-7.07926,3.71973\H,0,17.30199,-5.6
 6571,4.95318\H,0,18.44923,-5.91688,3.61416\\Version=ES64L-G16RevA.03\S
 tate=1-A\HF=-4069.8117997\RMSD=4.616e-09\PG=C01 [X(C68H72Mg2N8O8)]\\@


 TRUST EVERYONE, BUT CUT THE CARDS.
 Job cpu time:       0 days 10 hours 52 minutes 15.8 seconds.
 Elapsed time:       0 days  0 hours 27 minutes 46.9 seconds.
 File lengths (MBytes):  RWF=  13225 Int=      0 D2E=      0 Chk=    574 Scr=      1
 Normal termination of Gaussian 16 at Sat Sep  4 15:48:36 2021.
