 Entering Gaussian System, Link 0=g16
 Initial command:
 /sw/apps/gaussian-16.0/g16/l1.exe "/tmp/Gau-67013.inp" -scrdir="/tmp/"
 Entering Link 1 = /sw/apps/gaussian-16.0/g16/l1.exe PID=     67014.
  
 Copyright (c) 1988,1990,1992,1993,1995,1998,2003,2009,2016,
            Gaussian, Inc.  All Rights Reserved.
  
 This is part of the Gaussian(R) 16 program.  It is based on
 the Gaussian(R) 09 system (copyright 2009, Gaussian, Inc.),
 the Gaussian(R) 03 system (copyright 2003, Gaussian, Inc.),
 the Gaussian(R) 98 system (copyright 1998, Gaussian, Inc.),
 the Gaussian(R) 94 system (copyright 1995, Gaussian, Inc.),
 the Gaussian 92(TM) system (copyright 1992, Gaussian, Inc.),
 the Gaussian 90(TM) system (copyright 1990, Gaussian, Inc.),
 the Gaussian 88(TM) system (copyright 1988, Gaussian, Inc.),
 the Gaussian 86(TM) system (copyright 1986, Carnegie Mellon
 University), and the Gaussian 82(TM) system (copyright 1983,
 Carnegie Mellon University). Gaussian is a federally registered
 trademark of Gaussian, Inc.
  
 This software contains proprietary and confidential information,
 including trade secrets, belonging to Gaussian, Inc.
  
 This software is provided under written license and may be
 used, copied, transmitted, or stored only in accord with that
 written license.
  
 The following legend is applicable only to US Government
 contracts under FAR:
  
                    RESTRICTED RIGHTS LEGEND
  
 Use, reproduction and disclosure by the US Government is
 subject to restrictions as set forth in subparagraphs (a)
 and (c) of the Commercial Computer Software - Restricted
 Rights clause in FAR 52.227-19.
  
 Gaussian, Inc.
 340 Quinnipiac St., Bldg. 40, Wallingford CT 06492
  
  
 ---------------------------------------------------------------
 Warning -- This program may not be used in any manner that
 competes with the business of Gaussian, Inc. or will provide
 assistance to any competitor of Gaussian, Inc.  The licensee
 of this program is prohibited from giving any competitor of
 Gaussian, Inc. access to this program.  By using this program,
 the user acknowledges that Gaussian, Inc. is engaged in the
 business of creating and licensing software in the field of
 computational chemistry and represents and warrants to the
 licensee that it is not a competitor of Gaussian, Inc. and that
 it will not use this program in any manner prohibited above.
 ---------------------------------------------------------------
  

 Cite this work as:
 Gaussian 16, Revision A.03,
 M. J. Frisch, G. W. Trucks, H. B. Schlegel, G. E. Scuseria, 
 M. A. Robb, J. R. Cheeseman, G. Scalmani, V. Barone, 
 G. A. Petersson, H. Nakatsuji, X. Li, M. Caricato, A. V. Marenich, 
 J. Bloino, B. G. Janesko, R. Gomperts, B. Mennucci, H. P. Hratchian, 
 J. V. Ortiz, A. F. Izmaylov, J. L. Sonnenberg, D. Williams-Young, 
 F. Ding, F. Lipparini, F. Egidi, J. Goings, B. Peng, A. Petrone, 
 T. Henderson, D. Ranasinghe, V. G. Zakrzewski, J. Gao, N. Rega, 
 G. Zheng, W. Liang, M. Hada, M. Ehara, K. Toyota, R. Fukuda, 
 J. Hasegawa, M. Ishida, T. Nakajima, Y. Honda, O. Kitao, H. Nakai, 
 T. Vreven, K. Throssell, J. A. Montgomery, Jr., J. E. Peralta, 
 F. Ogliaro, M. J. Bearpark, J. J. Heyd, E. N. Brothers, K. N. Kudin, 
 V. N. Staroverov, T. A. Keith, R. Kobayashi, J. Normand, 
 K. Raghavachari, A. P. Rendell, J. C. Burant, S. S. Iyengar, 
 J. Tomasi, M. Cossi, J. M. Millam, M. Klene, C. Adamo, R. Cammi, 
 J. W. Ochterski, R. L. Martin, K. Morokuma, O. Farkas, 
 J. B. Foresman, and D. J. Fox, Gaussian, Inc., Wallingford CT, 2016.
 
 ******************************************
 Gaussian 16:  ES64L-G16RevA.03 25-Dec-2016
                 4-Sep-2021 
 ******************************************
 %nproc=24
 Will use up to   24 processors via shared memory.
 %mem=175gb
 -----------------------------------
 #p cam-b3lyp/Def2SVP td=(nstates=5)
 -----------------------------------
 1/38=1,172=1/1;
 2/12=2,17=6,18=5,40=1/2;
 3/5=43,7=101,11=9,25=1,30=1,74=-40/1,2,3,8;
 4//1;
 5/5=2,38=5/2;
 8/6=1,10=1,108=5/1;
 9/41=5,42=1,70=2/14;
 6/7=2,8=2,9=2,10=2/1;
 99/5=1,9=1/99;
 Leave Link    1 at Sat Sep  4 02:17:11 2021, MaxMem= 23488102400 cpu:               0.5 elap:               0.0
 (Enter /sw/apps/gaussian-16.0/g16/l101.exe)
 --------------------------------
 TDDFT excited states in gaussian
 --------------------------------
 Symbolic Z-matrix:
 Charge =  0 Multiplicity = 1
 Mg                    0.        0.        0. 
 C                    -0.217    -2.218     2.801 
 C                    -1.255     2.442     2.026 
 C                    -0.245     1.85     -2.564 
 C                     0.146    -2.824    -2.037 
 N                    -0.617    -0.009     2.126 
 C                    -0.594    -0.908     3.105 
 C                    -0.936    -0.309     4.502 
 C                    -1.773     0.964     4.032 
 C                    -1.155     1.168     2.66 
 C                    -3.263     0.685     3.863 
 C                     0.345     0.11      5.299 
 C                     0.124     0.397     6.787 
 H                     1.168     0.033     7.733 
 N                    -0.185     1.961    -0.152 
 C                    -0.703     2.8       0.777 
 C                    -0.62      4.156     0.193 
 C                    -0.187     4.015    -1.225 
 C                    -0.214     2.583    -1.38 
 C                    -0.887     5.406     0.974 
 C                     0.181     5.013    -2.277 
 O                     0.303     4.69     -3.508 
 C                     0.31      6.414    -1.837 
 N                    -0.265    -0.413    -2.029 
 C                    -0.279     0.569    -2.937 
 C                    -0.196     0.024    -4.332 
 C                     0.124    -1.533    -4.18 
 C                     0.086    -1.632    -2.635 
 C                    -1.451     0.205    -5.197 
 C                     1.373    -2.07     -4.923 
 C                     2.626    -1.49     -4.306 
 N                     0.15     -2.144     0.303 
 C                     0.173    -3.136    -0.688 
 C                     0.173    -4.438     0.004 
 C                     0.133    -4.111     1.358 
 C                     0.083    -2.695     1.502 
 C                     0.149    -5.715    -0.623 
 C                     0.096    -4.629     2.716 
 O                     0.208    -5.747     3.221 
 C                    -0.255    -3.428     3.701 
 C                     0.717    -3.482     4.848 
 O                     1.931    -3.255     4.669 
 O                     0.038    -3.556     6.003 
 C                     0.943    -3.583     7.183 
 H                    -1.859     3.22      2.497 
 H                    -0.218     2.453    -3.474 
 H                     0.276    -3.747    -2.605 
 H                    -1.554    -0.949     5.132 
 H                    -1.585     1.831     4.665 
 H                    -3.484    -0.377     3.969 
 H                    -3.511     1.027     2.858 
 H                    -3.852     1.301     4.543 
 H                     0.669     1.096     4.966 
 H                     1.13     -0.639     5.189 
 H                    -0.844     0.026     7.125 
 H                     0.062     1.477     6.921 
 H                    -1.344     5.186     1.938 
 H                    -1.651     5.963     0.432 
 H                     0.007     6.02      1.084 
 H                    -0.635     6.744    -1.405 
 H                     0.665     6.97     -2.704 
 H                     1.048     6.466    -1.036 
 H                     0.608     0.501    -4.891 
 H                    -0.692    -2.156    -4.547 
 H                    -1.267     0.74     -6.129 
 H                    -2.204     0.714    -4.596 
 H                    -1.967    -0.72     -5.453 
 H                     1.356    -1.759    -5.967 
 H                     1.452    -3.157    -4.902 
 H                     2.714    -0.522    -4.798 
 H                     3.487    -2.121    -4.529 
 H                     2.495    -1.303    -3.24 
 H                     0.867    -6.333    -0.084 
 H                     0.404    -5.642    -1.68 
 H                    -0.891    -5.999    -0.463 
 H                    -1.283    -3.581     4.028 
 H                     0.698    -4.478     7.755 
 H                     0.833    -2.619     7.68 
 H                     2.       -3.754     6.976 
 Mg                    10.51878   0.9451    0.79151 
 C                     10.18594   3.95782  -1.1299 
 C                     10.01116  -0.78163  -2.10596 
 C                     10.35772  -1.71128   2.51925 
 C                     9.86214   2.85064   3.63465 
 N                     10.15739   1.6139   -1.2856 
 C                     10.11331   2.78286  -1.90683 
 C                     10.06484   2.68685  -3.45538 
 C                     9.44249   1.21219  -3.58551 
 C                     9.92602   0.62507  -2.26106 
 C                     7.9229    1.19832  -3.58768 
 C                     11.49121   2.76765  -4.1042 
 C                     11.49735   2.99086  -5.6181 
 H                     12.55623   3.81382  -6.19602 
 N                     10.71471  -0.95375   0.24879 
 C                     10.4895  -1.47788  -0.97426 
 C                     10.75545  -2.91936  -0.84942 
 C                     10.99631  -3.22932   0.58607 
 C                     10.6713  -1.95252   1.18958 
 C                     10.84171  -3.83652  -2.03466 
 C                     11.43298  -4.47316   1.29907 
 O                     11.34712  -4.58433   2.57308 
 C                     11.87656  -5.59164   0.45425 
 N                     9.95444   0.57407   2.75777 
 C                     10.02687  -0.66462   3.27579 
 C                     9.83613  -0.6415    4.77361 
 C                     9.86146   0.90341   5.18614 
 C                     9.97826   1.53813   3.78297 
 C                     8.54955  -1.28495   5.29039 
 C                     10.88573   1.3243    6.27536 
 C                     12.29334   1.18188   5.74272 
 N                     10.28039   3.04623   1.23477 
 C                     9.98437   3.62532   2.48821 
 C                     9.80602   5.07502   2.26682 
 C                     9.98942   5.23669   0.88525 
 C                     10.24279   3.97388   0.28476 
 C                     9.4677    6.03332   3.26346 
 C                     10.01577   6.18703  -0.20326 
 O                     9.95408   7.41291  -0.28785 
 C                     10.01894   5.3842   -1.57506 
 C                     11.08704   5.97304  -2.45538 
 O                     12.28651   5.88484  -2.139 
 O                     10.53696   6.34865  -3.62444 
 C                     11.55907   6.92876  -4.53581 
 H                     9.63746  -1.41584  -2.91033 
 H                     10.39803  -2.58144   3.17855 
 H                     9.75234   3.52679   4.48521 
 H                     9.41459   3.40851  -3.93512 
 H                     9.87697   0.67259  -4.42302 
 H                     7.51079   2.17501  -3.38183 
 H                     7.63404   0.49569  -2.81702 
 H                     7.55106   0.78312  -4.52878 
 H                     11.96204   1.77722  -4.05839 
 H                     12.08542   3.52149  -3.62538 
 H                     10.5164   3.30859  -5.99189 
 H                     11.67342   2.03097  -6.10967 
 H                     10.45665  -3.35712  -2.94312 
 H                     10.14849  -4.66421  -1.84962 
 H                     11.84509  -4.24197  -2.18135 
 H                     11.07244  -5.87562  -0.22045 
 H                     12.23305  -6.35709   1.14626 
 H                     12.70707  -5.24853  -0.17276 
 H                     10.64899  -1.15245   5.2749 
 H                     8.89618   1.2306    5.59968 
 H                     8.72999  -2.09471   6.02237 
 H                     7.98936  -1.65654   4.44265 
 H                     7.84226  -0.59757   5.75131 
 H                     10.81265   0.66076   7.14054 
 H                     10.74268   2.33813   6.63408 
 H                     12.50952   0.12055   5.89739 
 H                     12.981    1.81072   6.30461 
 H                     12.32681   1.37124   4.66352 
 H                     10.09898   6.89536   3.09354 
 H                     9.60446   5.63064   4.26491 
 H                     8.41279   6.19638   3.02712 
 H                     9.02568   5.48288  -2.01469 
 H                     11.20527   7.9246   -4.82008 
 H                     11.6889   6.18938  -5.34835 
 H                     12.53068   7.16139  -4.11594 
 
 ITRead=  0  0  0  0  0  0  0  0  0  0  0  0  0  0  0  0  0  0  0  0
 ITRead=  0  0  0  0  0  0  0  0  0  0  0  0  0  0  0  0  0  0  0  0
 ITRead=  0  0  0  0  0  0  0  0  0  0  0  0  0  0  0  0  0  0  0  0
 ITRead=  0  0  0  0  0  0  0  0  0  0  0  0  0  0  0  0  0  0  0  0
 ITRead=  0  0  0  0  0  0  0  0  0  0  0  0  0  0  0  0  0  0  0  0
 ITRead=  0  0  0  0  0  0  0  0  0  0  0  0  0  0  0  0  0  0  0  0
 ITRead=  0  0  0  0  0  0  0  0  0  0  0  0  0  0  0  0  0  0  0  0
 ITRead=  0  0  0  0  0  0  0  0  0  0  0  0  0  0  0  0  0  0
 MicOpt= -1 -1 -1 -1 -1 -1 -1 -1 -1 -1 -1 -1 -1 -1 -1 -1 -1 -1 -1 -1
 MicOpt= -1 -1 -1 -1 -1 -1 -1 -1 -1 -1 -1 -1 -1 -1 -1 -1 -1 -1 -1 -1
 MicOpt= -1 -1 -1 -1 -1 -1 -1 -1 -1 -1 -1 -1 -1 -1 -1 -1 -1 -1 -1 -1
 MicOpt= -1 -1 -1 -1 -1 -1 -1 -1 -1 -1 -1 -1 -1 -1 -1 -1 -1 -1 -1 -1
 MicOpt= -1 -1 -1 -1 -1 -1 -1 -1 -1 -1 -1 -1 -1 -1 -1 -1 -1 -1 -1 -1
 MicOpt= -1 -1 -1 -1 -1 -1 -1 -1 -1 -1 -1 -1 -1 -1 -1 -1 -1 -1 -1 -1
 MicOpt= -1 -1 -1 -1 -1 -1 -1 -1 -1 -1 -1 -1 -1 -1 -1 -1 -1 -1 -1 -1
 MicOpt= -1 -1 -1 -1 -1 -1 -1 -1 -1 -1 -1 -1 -1 -1 -1 -1 -1 -1
 NAtoms=    158 NQM=      158 NQMF=       0 NMMI=      0 NMMIF=      0
                NMic=       0 NMicF=      0.
                    Isotopes and Nuclear Properties:
 (Nuclear quadrupole moments (NQMom) in fm**2, nuclear magnetic moments (NMagM)
  in nuclear magnetons)

  Atom         1           2           3           4           5           6           7           8           9          10
 IAtWgt=          24          12          12          12          12          14          12          12          12          12
 AtmWgt=  23.9850450  12.0000000  12.0000000  12.0000000  12.0000000  14.0030740  12.0000000  12.0000000  12.0000000  12.0000000
 NucSpn=           0           0           0           0           0           2           0           0           0           0
 AtZEff=  -0.0000000  -0.0000000  -0.0000000  -0.0000000  -0.0000000  -0.0000000  -0.0000000  -0.0000000  -0.0000000  -0.0000000
 NQMom=    0.0000000   0.0000000   0.0000000   0.0000000   0.0000000   2.0440000   0.0000000   0.0000000   0.0000000   0.0000000
 NMagM=    0.0000000   0.0000000   0.0000000   0.0000000   0.0000000   0.4037610   0.0000000   0.0000000   0.0000000   0.0000000
 AtZNuc=  12.0000000   6.0000000   6.0000000   6.0000000   6.0000000   7.0000000   6.0000000   6.0000000   6.0000000   6.0000000

  Atom        11          12          13          14          15          16          17          18          19          20
 IAtWgt=          12          12          12           1          14          12          12          12          12          12
 AtmWgt=  12.0000000  12.0000000  12.0000000   1.0078250  14.0030740  12.0000000  12.0000000  12.0000000  12.0000000  12.0000000
 NucSpn=           0           0           0           1           2           0           0           0           0           0
 AtZEff=  -0.0000000  -0.0000000  -0.0000000  -0.0000000  -0.0000000  -0.0000000  -0.0000000  -0.0000000  -0.0000000  -0.0000000
 NQMom=    0.0000000   0.0000000   0.0000000   0.0000000   2.0440000   0.0000000   0.0000000   0.0000000   0.0000000   0.0000000
 NMagM=    0.0000000   0.0000000   0.0000000   2.7928460   0.4037610   0.0000000   0.0000000   0.0000000   0.0000000   0.0000000
 AtZNuc=   6.0000000   6.0000000   6.0000000   1.0000000   7.0000000   6.0000000   6.0000000   6.0000000   6.0000000   6.0000000

  Atom        21          22          23          24          25          26          27          28          29          30
 IAtWgt=          12          16          12          14          12          12          12          12          12          12
 AtmWgt=  12.0000000  15.9949146  12.0000000  14.0030740  12.0000000  12.0000000  12.0000000  12.0000000  12.0000000  12.0000000
 NucSpn=           0           0           0           2           0           0           0           0           0           0
 AtZEff=  -0.0000000  -0.0000000  -0.0000000  -0.0000000  -0.0000000  -0.0000000  -0.0000000  -0.0000000  -0.0000000  -0.0000000
 NQMom=    0.0000000   0.0000000   0.0000000   2.0440000   0.0000000   0.0000000   0.0000000   0.0000000   0.0000000   0.0000000
 NMagM=    0.0000000   0.0000000   0.0000000   0.4037610   0.0000000   0.0000000   0.0000000   0.0000000   0.0000000   0.0000000
 AtZNuc=   6.0000000   8.0000000   6.0000000   7.0000000   6.0000000   6.0000000   6.0000000   6.0000000   6.0000000   6.0000000

  Atom        31          32          33          34          35          36          37          38          39          40
 IAtWgt=          12          14          12          12          12          12          12          12          16          12
 AtmWgt=  12.0000000  14.0030740  12.0000000  12.0000000  12.0000000  12.0000000  12.0000000  12.0000000  15.9949146  12.0000000
 NucSpn=           0           2           0           0           0           0           0           0           0           0
 AtZEff=  -0.0000000  -0.0000000  -0.0000000  -0.0000000  -0.0000000  -0.0000000  -0.0000000  -0.0000000  -0.0000000  -0.0000000
 NQMom=    0.0000000   2.0440000   0.0000000   0.0000000   0.0000000   0.0000000   0.0000000   0.0000000   0.0000000   0.0000000
 NMagM=    0.0000000   0.4037610   0.0000000   0.0000000   0.0000000   0.0000000   0.0000000   0.0000000   0.0000000   0.0000000
 AtZNuc=   6.0000000   7.0000000   6.0000000   6.0000000   6.0000000   6.0000000   6.0000000   6.0000000   8.0000000   6.0000000

  Atom        41          42          43          44          45          46          47          48          49          50
 IAtWgt=          12          16          16          12           1           1           1           1           1           1
 AtmWgt=  12.0000000  15.9949146  15.9949146  12.0000000   1.0078250   1.0078250   1.0078250   1.0078250   1.0078250   1.0078250
 NucSpn=           0           0           0           0           1           1           1           1           1           1
 AtZEff=  -0.0000000  -0.0000000  -0.0000000  -0.0000000  -0.0000000  -0.0000000  -0.0000000  -0.0000000  -0.0000000  -0.0000000
 NQMom=    0.0000000   0.0000000   0.0000000   0.0000000   0.0000000   0.0000000   0.0000000   0.0000000   0.0000000   0.0000000
 NMagM=    0.0000000   0.0000000   0.0000000   0.0000000   2.7928460   2.7928460   2.7928460   2.7928460   2.7928460   2.7928460
 AtZNuc=   6.0000000   8.0000000   8.0000000   6.0000000   1.0000000   1.0000000   1.0000000   1.0000000   1.0000000   1.0000000

  Atom        51          52          53          54          55          56          57          58          59          60
 IAtWgt=           1           1           1           1           1           1           1           1           1           1
 AtmWgt=   1.0078250   1.0078250   1.0078250   1.0078250   1.0078250   1.0078250   1.0078250   1.0078250   1.0078250   1.0078250
 NucSpn=           1           1           1           1           1           1           1           1           1           1
 AtZEff=  -0.0000000  -0.0000000  -0.0000000  -0.0000000  -0.0000000  -0.0000000  -0.0000000  -0.0000000  -0.0000000  -0.0000000
 NQMom=    0.0000000   0.0000000   0.0000000   0.0000000   0.0000000   0.0000000   0.0000000   0.0000000   0.0000000   0.0000000
 NMagM=    2.7928460   2.7928460   2.7928460   2.7928460   2.7928460   2.7928460   2.7928460   2.7928460   2.7928460   2.7928460
 AtZNuc=   1.0000000   1.0000000   1.0000000   1.0000000   1.0000000   1.0000000   1.0000000   1.0000000   1.0000000   1.0000000

  Atom        61          62          63          64          65          66          67          68          69          70
 IAtWgt=           1           1           1           1           1           1           1           1           1           1
 AtmWgt=   1.0078250   1.0078250   1.0078250   1.0078250   1.0078250   1.0078250   1.0078250   1.0078250   1.0078250   1.0078250
 NucSpn=           1           1           1           1           1           1           1           1           1           1
 AtZEff=  -0.0000000  -0.0000000  -0.0000000  -0.0000000  -0.0000000  -0.0000000  -0.0000000  -0.0000000  -0.0000000  -0.0000000
 NQMom=    0.0000000   0.0000000   0.0000000   0.0000000   0.0000000   0.0000000   0.0000000   0.0000000   0.0000000   0.0000000
 NMagM=    2.7928460   2.7928460   2.7928460   2.7928460   2.7928460   2.7928460   2.7928460   2.7928460   2.7928460   2.7928460
 AtZNuc=   1.0000000   1.0000000   1.0000000   1.0000000   1.0000000   1.0000000   1.0000000   1.0000000   1.0000000   1.0000000

  Atom        71          72          73          74          75          76          77          78          79          80
 IAtWgt=           1           1           1           1           1           1           1           1           1          24
 AtmWgt=   1.0078250   1.0078250   1.0078250   1.0078250   1.0078250   1.0078250   1.0078250   1.0078250   1.0078250  23.9850450
 NucSpn=           1           1           1           1           1           1           1           1           1           0
 AtZEff=  -0.0000000  -0.0000000  -0.0000000  -0.0000000  -0.0000000  -0.0000000  -0.0000000  -0.0000000  -0.0000000  -0.0000000
 NQMom=    0.0000000   0.0000000   0.0000000   0.0000000   0.0000000   0.0000000   0.0000000   0.0000000   0.0000000   0.0000000
 NMagM=    2.7928460   2.7928460   2.7928460   2.7928460   2.7928460   2.7928460   2.7928460   2.7928460   2.7928460   0.0000000
 AtZNuc=   1.0000000   1.0000000   1.0000000   1.0000000   1.0000000   1.0000000   1.0000000   1.0000000   1.0000000  12.0000000

  Atom        81          82          83          84          85          86          87          88          89          90
 IAtWgt=          12          12          12          12          14          12          12          12          12          12
 AtmWgt=  12.0000000  12.0000000  12.0000000  12.0000000  14.0030740  12.0000000  12.0000000  12.0000000  12.0000000  12.0000000
 NucSpn=           0           0           0           0           2           0           0           0           0           0
 AtZEff=  -0.0000000  -0.0000000  -0.0000000  -0.0000000  -0.0000000  -0.0000000  -0.0000000  -0.0000000  -0.0000000  -0.0000000
 NQMom=    0.0000000   0.0000000   0.0000000   0.0000000   2.0440000   0.0000000   0.0000000   0.0000000   0.0000000   0.0000000
 NMagM=    0.0000000   0.0000000   0.0000000   0.0000000   0.4037610   0.0000000   0.0000000   0.0000000   0.0000000   0.0000000
 AtZNuc=   6.0000000   6.0000000   6.0000000   6.0000000   7.0000000   6.0000000   6.0000000   6.0000000   6.0000000   6.0000000

  Atom        91          92          93          94          95          96          97          98          99         100
 IAtWgt=          12          12           1          14          12          12          12          12          12          12
 AtmWgt=  12.0000000  12.0000000   1.0078250  14.0030740  12.0000000  12.0000000  12.0000000  12.0000000  12.0000000  12.0000000
 NucSpn=           0           0           1           2           0           0           0           0           0           0
 AtZEff=  -0.0000000  -0.0000000  -0.0000000  -0.0000000  -0.0000000  -0.0000000  -0.0000000  -0.0000000  -0.0000000  -0.0000000
 NQMom=    0.0000000   0.0000000   0.0000000   2.0440000   0.0000000   0.0000000   0.0000000   0.0000000   0.0000000   0.0000000
 NMagM=    0.0000000   0.0000000   2.7928460   0.4037610   0.0000000   0.0000000   0.0000000   0.0000000   0.0000000   0.0000000
 AtZNuc=   6.0000000   6.0000000   1.0000000   7.0000000   6.0000000   6.0000000   6.0000000   6.0000000   6.0000000   6.0000000

  Atom       101         102         103         104         105         106         107         108         109         110
 IAtWgt=          16          12          14          12          12          12          12          12          12          12
 AtmWgt=  15.9949146  12.0000000  14.0030740  12.0000000  12.0000000  12.0000000  12.0000000  12.0000000  12.0000000  12.0000000
 NucSpn=           0           0           2           0           0           0           0           0           0           0
 AtZEff=  -0.0000000  -0.0000000  -0.0000000  -0.0000000  -0.0000000  -0.0000000  -0.0000000  -0.0000000  -0.0000000  -0.0000000
 NQMom=    0.0000000   0.0000000   2.0440000   0.0000000   0.0000000   0.0000000   0.0000000   0.0000000   0.0000000   0.0000000
 NMagM=    0.0000000   0.0000000   0.4037610   0.0000000   0.0000000   0.0000000   0.0000000   0.0000000   0.0000000   0.0000000
 AtZNuc=   8.0000000   6.0000000   7.0000000   6.0000000   6.0000000   6.0000000   6.0000000   6.0000000   6.0000000   6.0000000

  Atom       111         112         113         114         115         116         117         118         119         120
 IAtWgt=          14          12          12          12          12          12          12          16          12          12
 AtmWgt=  14.0030740  12.0000000  12.0000000  12.0000000  12.0000000  12.0000000  12.0000000  15.9949146  12.0000000  12.0000000
 NucSpn=           2           0           0           0           0           0           0           0           0           0
 AtZEff=  -0.0000000  -0.0000000  -0.0000000  -0.0000000  -0.0000000  -0.0000000  -0.0000000  -0.0000000  -0.0000000  -0.0000000
 NQMom=    2.0440000   0.0000000   0.0000000   0.0000000   0.0000000   0.0000000   0.0000000   0.0000000   0.0000000   0.0000000
 NMagM=    0.4037610   0.0000000   0.0000000   0.0000000   0.0000000   0.0000000   0.0000000   0.0000000   0.0000000   0.0000000
 AtZNuc=   7.0000000   6.0000000   6.0000000   6.0000000   6.0000000   6.0000000   6.0000000   8.0000000   6.0000000   6.0000000

  Atom       121         122         123         124         125         126         127         128         129         130
 IAtWgt=          16          16          12           1           1           1           1           1           1           1
 AtmWgt=  15.9949146  15.9949146  12.0000000   1.0078250   1.0078250   1.0078250   1.0078250   1.0078250   1.0078250   1.0078250
 NucSpn=           0           0           0           1           1           1           1           1           1           1
 AtZEff=  -0.0000000  -0.0000000  -0.0000000  -0.0000000  -0.0000000  -0.0000000  -0.0000000  -0.0000000  -0.0000000  -0.0000000
 NQMom=    0.0000000   0.0000000   0.0000000   0.0000000   0.0000000   0.0000000   0.0000000   0.0000000   0.0000000   0.0000000
 NMagM=    0.0000000   0.0000000   0.0000000   2.7928460   2.7928460   2.7928460   2.7928460   2.7928460   2.7928460   2.7928460
 AtZNuc=   8.0000000   8.0000000   6.0000000   1.0000000   1.0000000   1.0000000   1.0000000   1.0000000   1.0000000   1.0000000

  Atom       131         132         133         134         135         136         137         138         139         140
 IAtWgt=           1           1           1           1           1           1           1           1           1           1
 AtmWgt=   1.0078250   1.0078250   1.0078250   1.0078250   1.0078250   1.0078250   1.0078250   1.0078250   1.0078250   1.0078250
 NucSpn=           1           1           1           1           1           1           1           1           1           1
 AtZEff=  -0.0000000  -0.0000000  -0.0000000  -0.0000000  -0.0000000  -0.0000000  -0.0000000  -0.0000000  -0.0000000  -0.0000000
 NQMom=    0.0000000   0.0000000   0.0000000   0.0000000   0.0000000   0.0000000   0.0000000   0.0000000   0.0000000   0.0000000
 NMagM=    2.7928460   2.7928460   2.7928460   2.7928460   2.7928460   2.7928460   2.7928460   2.7928460   2.7928460   2.7928460
 AtZNuc=   1.0000000   1.0000000   1.0000000   1.0000000   1.0000000   1.0000000   1.0000000   1.0000000   1.0000000   1.0000000

  Atom       141         142         143         144         145         146         147         148         149         150
 IAtWgt=           1           1           1           1           1           1           1           1           1           1
 AtmWgt=   1.0078250   1.0078250   1.0078250   1.0078250   1.0078250   1.0078250   1.0078250   1.0078250   1.0078250   1.0078250
 NucSpn=           1           1           1           1           1           1           1           1           1           1
 AtZEff=  -0.0000000  -0.0000000  -0.0000000  -0.0000000  -0.0000000  -0.0000000  -0.0000000  -0.0000000  -0.0000000  -0.0000000
 NQMom=    0.0000000   0.0000000   0.0000000   0.0000000   0.0000000   0.0000000   0.0000000   0.0000000   0.0000000   0.0000000
 NMagM=    2.7928460   2.7928460   2.7928460   2.7928460   2.7928460   2.7928460   2.7928460   2.7928460   2.7928460   2.7928460
 AtZNuc=   1.0000000   1.0000000   1.0000000   1.0000000   1.0000000   1.0000000   1.0000000   1.0000000   1.0000000   1.0000000

  Atom       151         152         153         154         155         156         157         158
 IAtWgt=           1           1           1           1           1           1           1           1
 AtmWgt=   1.0078250   1.0078250   1.0078250   1.0078250   1.0078250   1.0078250   1.0078250   1.0078250
 NucSpn=           1           1           1           1           1           1           1           1
 AtZEff=  -0.0000000  -0.0000000  -0.0000000  -0.0000000  -0.0000000  -0.0000000  -0.0000000  -0.0000000
 NQMom=    0.0000000   0.0000000   0.0000000   0.0000000   0.0000000   0.0000000   0.0000000   0.0000000
 NMagM=    2.7928460   2.7928460   2.7928460   2.7928460   2.7928460   2.7928460   2.7928460   2.7928460
 AtZNuc=   1.0000000   1.0000000   1.0000000   1.0000000   1.0000000   1.0000000   1.0000000   1.0000000
 Leave Link  101 at Sat Sep  4 02:17:11 2021, MaxMem= 23488102400 cpu:               3.9 elap:               0.2
 (Enter /sw/apps/gaussian-16.0/g16/l202.exe)
 Stoichiometry    C68H72Mg2N8O8
 Framework group  C1[X(C68H72Mg2N8O8)]
 Deg. of freedom   468
 Full point group                 C1      NOp   1
 Largest Abelian subgroup         C1      NOp   1
 Largest concise Abelian subgroup C1      NOp   1
                         Standard orientation:                         
 ---------------------------------------------------------------------
 Center     Atomic      Atomic             Coordinates (Angstroms)
 Number     Number       Type             X           Y           Z
 ---------------------------------------------------------------------
      1         12           0       -5.046698   -1.281806    0.221134
      2          6           0       -6.133408    2.103819   -0.189740
      3          6           0       -5.878936   -1.789002   -3.048912
      4          6           0       -4.523448   -4.375594    0.680814
      5          6           0       -5.374695   -0.814405    3.659100
      6          7           0       -5.888619    0.065159   -1.320780
      7          6           0       -6.204289    1.355659   -1.366973
      8          6           0       -6.545620    1.857216   -2.802002
      9          6           0       -6.978248    0.469654   -3.457365
     10          6           0       -6.174134   -0.474199   -2.580742
     11          6           0       -8.460768    0.152612   -3.289669
     12          6           0       -5.301917    2.470989   -3.528788
     13          6           0       -5.615304    3.273977   -4.794629
     14          1           0       -4.812073    4.449540   -5.094994
     15          7           0       -4.717710   -2.732562   -1.078837
     16          6           0       -5.114117   -2.764828   -2.373869
     17          6           0       -4.628319   -4.051618   -2.916873
     18          6           0       -4.082804   -4.847349   -1.782272
     19          6           0       -4.448045   -4.017122   -0.663031
     20          6           0       -4.663716   -4.395509   -4.374349
     21          6           0       -3.358059   -6.154452   -1.716257
     22          8           0       -3.178629   -6.777802   -0.614525
     23          6           0       -2.935529   -6.737032   -3.002769
     24          7           0       -5.169272   -2.507727    1.906284
     25          6           0       -4.832473   -3.800704    1.844966
     26          6           0       -4.726909   -4.402989    3.214655
     27          6           0       -4.825316   -3.184618    4.242099
     28          6           0       -5.065671   -2.039361    3.227759
     29          6           0       -5.788044   -5.454609    3.566931
     30          6           0       -3.672338   -3.033245    5.265889
     31          6           0       -2.394520   -2.660007    4.548272
     32          7           0       -5.472496    0.387411    1.541533
     33          6           0       -5.582973    0.350084    2.939058
     34          6           0       -5.988022    1.698641    3.376547
     35          6           0       -6.101878    2.427127    2.194096
     36          6           0       -5.813382    1.579964    1.086226
     37          6           0       -6.256987    2.094326    4.716519
     38          6           0       -6.424122    3.717697    1.607201
     39          8           0       -6.653909    4.841498    2.056380
     40          6           0       -6.576154    3.528508    0.033377
     41          6           0       -5.788110    4.622459   -0.634131
     42          8           0       -4.543567    4.657643   -0.549028
     43          8           0       -6.593279    5.311706   -1.457042
     44          6           0       -5.866740    6.393895   -2.173395
     45          1           0       -6.320143   -2.126007   -3.988968
     46          1           0       -4.241551   -5.408968    0.893207
     47          1           0       -5.414127   -0.571575    4.722553
     48          1           0       -7.372481    2.565961   -2.851058
     49          1           0       -6.654592    0.391259   -4.495066
     50          1           0       -8.950476    0.872585   -2.634118
     51          1           0       -8.497360   -0.845805   -2.853414
     52          1           0       -8.952200    0.073919   -4.259761
     53          1           0       -4.705826    1.667586   -3.961547
     54          1           0       -4.721313    3.089849   -2.843780
     55          1           0       -6.677697    3.509211   -4.864595
     56          1           0       -5.421011    2.638758   -5.658890
     57          1           0       -5.269731   -3.687509   -4.938288
     58          1           0       -5.196440   -5.341888   -4.465348
     59          1           0       -3.663784   -4.494394   -4.797067
     60          1           0       -3.811823   -6.892924   -3.632336
     61          1           0       -2.354999   -7.624868   -2.754612
     62          1           0       -2.305897   -6.017181   -3.526531
     63          1           0       -3.770121   -4.906211    3.347888
     64          1           0       -5.722707   -3.241016    4.858689
     65          1           0       -5.369620   -6.418276    3.858432
     66          1           0       -6.454683   -5.560369    2.711538
     67          1           0       -6.485222   -5.156159    4.349419
     68          1           0       -3.490056   -3.979413    5.774303
     69          1           0       -3.870003   -2.279728    6.028379
     70          1           0       -2.011379   -3.624190    4.216026
     71          1           0       -1.698308   -2.179331    5.236349
     72          1           0       -2.597402   -2.065441    3.657309
     73          1           0       -5.783359    3.067105    4.848221
     74          1           0       -5.871069    1.366074    5.429485
     75          1           0       -7.346261    2.128056    4.702328
     76          1           0       -7.640570    3.596506   -0.189145
     77          1           0       -6.391886    7.325969   -1.964362
     78          1           0       -5.789619    6.079027   -3.214219
     79          1           0       -4.869186    6.632108   -1.802612
     80         12           0        5.210233    1.350331    0.043252
     81          6           0        5.864607   -2.081308   -0.778169
     82          6           0        4.627342    0.317993    3.241552
     83          6           0        4.192370    4.283160    0.698881
     84          6           0        4.724696    1.927480   -3.359226
     85          7           0        5.270453   -0.649250    0.986826
     86          6           0        5.591727   -1.871276    0.589621
     87          6           0        5.700709   -2.912331    1.735876
     88          6           0        4.749563   -2.189107    2.808791
     89          6           0        4.914410   -0.742971    2.345976
     90          6           0        3.285398   -2.571321    2.669213
     91          6           0        7.167423   -3.057363    2.274155
     92          6           0        7.404529   -4.270956    3.175668
     93          1           0        8.694865   -4.950790    3.102590
     94          7           0        4.987803    2.272879    1.786236
     95          6           0        4.782320    1.698993    2.990277
     96          6           0        4.663917    2.807992    3.949590
     97          6           0        4.651729    4.086993    3.188848
     98          6           0        4.587824    3.585337    1.830786
     99          6           0        4.655450    2.600447    5.436287
    100          6           0        4.678576    5.523948    3.613851
    101          8           0        4.420589    6.473861    2.792912
    102          6           0        4.923949    5.781206    5.040417
    103          7           0        4.347142    2.837433   -1.125475
    104          6           0        4.047693    4.040034   -0.603913
    105          6           0        3.696428    5.032119   -1.686853
    106          6           0        4.058375    4.308454   -3.066300
    107          6           0        4.491697    2.929357   -2.522496
    108          6           0        2.239050    5.491773   -1.720675
    109          6           0        5.021846    5.061194   -4.024310
    110          6           0        6.401366    5.140816   -3.411170
    111          7           0        5.453838    0.213053   -1.777548
    112          6           0        5.168390    0.638324   -3.093508
    113          6           0        5.384258   -0.521724   -3.982408
    114          6           0        5.761090   -1.555844   -3.112292
    115          6           0        5.759259   -1.079683   -1.773359
    116          6           0        5.182520   -0.539041   -5.391341
    117          6           0        6.149711   -2.944845   -3.020939
    118          8           0        6.406039   -3.830557   -3.835526
    119          6           0        6.111512   -3.380839   -1.492923
    120          6           0        7.387364   -4.116828   -1.187874
    121          8           0        8.481869   -3.527689   -1.227618
    122          8           0        7.087753   -5.330657   -0.690658
    123          6           0        8.320811   -6.094572   -0.362280
    124          1           0        4.203096    0.074032    4.215915
    125          1           0        3.937601    5.333578    0.857606
    126          1           0        4.689206    2.052254   -4.443597
    127          1           0        5.311207   -3.894450    1.496088
    128          1           0        5.129759   -2.311632    3.819633
    129          1           0        3.108986   -3.177409    1.793046
    130          1           0        2.743045   -1.637545    2.598787
    131          1           0        2.933430   -3.055983    3.584388
    132          1           0        7.367684   -2.249652    2.989857
    133          1           0        7.871259   -3.065484    1.464725
    134          1           0        6.584032   -4.996225    3.114816
    135          1           0        7.391325   -3.938025    4.216347
    136          1           0        4.510172    1.544137    5.694161
    137          1           0        3.761034    3.100148    5.823823
    138          1           0        5.535971    3.022393    5.925496
    139          1           0        4.158232    5.286787    5.633460
    140          1           0        4.995492    6.866602    5.133555
    141          1           0        5.880707    5.325316    5.318613
    142          1           0        4.292335    5.931887   -1.595120
    143          1           0        3.164023    4.136197   -3.682981
    144          1           0        2.125647    6.589477   -1.641617
    145          1           0        1.706056    4.995807   -0.920369
    146          1           0        1.677099    5.181054   -2.599801
    147          1           0        4.685740    6.091151   -4.167084
    148          1           0        5.095655    4.607394   -5.006966
    149          1           0        6.326493    6.006828   -2.746719
    150          1           0        7.154230    5.297871   -4.180953
    151          1           0        6.605904    4.263169   -2.787032
    152          1           0        6.024202   -1.066673   -5.819914
    153          1           0        5.097438    0.468439   -5.793213
    154          1           0        4.236394   -1.084124   -5.446207
    155          1           0        5.232165   -4.010919   -1.353912
    156          1           0        8.262060   -7.044003   -0.903400
    157          1           0        8.355376   -6.145603    0.742239
    158          1           0        9.264289   -5.702956   -0.724107
 ---------------------------------------------------------------------
 Rotational constants (GHZ):           0.0206964           0.0114000           0.0100047
 Leave Link  202 at Sat Sep  4 02:17:11 2021, MaxMem= 23488102400 cpu:               0.3 elap:               0.0
 (Enter /sw/apps/gaussian-16.0/g16/l301.exe)
 Standard basis: def2SVP (5D, 7F)
 Ernie: Thresh=  0.10000D-02 Tol=  0.10000D-05 Strict=F.
 There are  1658 symmetry adapted cartesian basis functions of A   symmetry.
 There are  1572 symmetry adapted basis functions of A   symmetry.
  1572 basis functions,  2678 primitive gaussians,  1658 cartesian basis functions
   312 alpha electrons      312 beta electrons
       nuclear repulsion energy     14928.4671310646 Hartrees.
 IExCor=20419 DFT=T Ex+Corr=CAM-B3LYP ExCW=0 ScaHFX=  1.000000
 ScaDFX=  1.000000  1.000000  1.000000  0.810000 ScalE2=  1.000000  1.000000
 IRadAn=      5 IRanWt=     -1 IRanGd=            0 ICorTp=0 IEmpDi=  4
 HFx  wShort=  0.000000 wLong=  0.330000 cFull=  0.190000 cShort=  0.000000 cLong=  0.460000
 DFx  wShort=  0.000000 wLong=  0.330000 cFull=  0.190000 cShort=  0.000000 cLong=  0.460000
 NAtoms=  158 NActive=  158 NUniq=  158 SFac= 1.00D+00 NAtFMM=   60 NAOKFM=T Big=T
 Integral buffers will be    131072 words long.
 Raffenetti 1 integral format.
 Two-electron integral symmetry is turned on.
 Leave Link  301 at Sat Sep  4 02:17:11 2021, MaxMem= 23488102400 cpu:               1.3 elap:               0.1
 (Enter /sw/apps/gaussian-16.0/g16/l302.exe)
 NPDir=0 NMtPBC=     1 NCelOv=     1 NCel=       1 NClECP=     1 NCelD=      1
         NCelK=      1 NCelE2=     1 NClLst=     1 CellRange=     0.0.
 One-electron integrals computed using PRISM.
 One-electron integral symmetry used in STVInt
   1 Symmetry operations used in ECPInt.
 ECPInt:  NShTT=  271216 NPrTT=  987664 LenC2=  137409 LenP2D=  286385.
 LDataN:  DoStor=T MaxTD1= 4 Len=   56
 NBasis=  1572 RedAO= T EigKep=  3.36D-04  NBF=  1572
 NBsUse=  1572 1.00D-06 EigRej= -1.00D+00 NBFU=  1572
 Precomputing XC quadrature grid using
 IXCGrd= 4 IRadAn=           5 IRanWt=          -1 IRanGd=           0 AccXCQ= 0.00D+00.
 Generated NRdTot=       0 NPtTot=           0 NUsed=           0 NTot=          32
 NSgBfM=  1118  1101  1107  1108  1118 MxSgAt=   158 MxSgA2=   156.
 Leave Link  302 at Sat Sep  4 02:17:17 2021, MaxMem= 23488102400 cpu:             124.4 elap:               5.2
 (Enter /sw/apps/gaussian-16.0/g16/l303.exe)
 DipDrv:  MaxL=1.
 Leave Link  303 at Sat Sep  4 02:17:17 2021, MaxMem= 23488102400 cpu:               9.0 elap:               0.4
 (Enter /sw/apps/gaussian-16.0/g16/l308.exe)
 Leave Link  308 at Sat Sep  4 02:17:18 2021, MaxMem= 23488102400 cpu:              16.3 elap:               0.8
 (Enter /sw/apps/gaussian-16.0/g16/l401.exe)
 ExpMin= 3.36D-02 ExpMax= 4.95D+03 ExpMxC= 7.45D+02 IAcc=3 IRadAn=         5 AccDes= 0.00D+00
 Harris functional with IExCor=20419 and IRadAn=       5 diagonalized for initial guess.
 HarFok:  IExCor=20419 AccDes= 0.00D+00 IRadAn=         5 IDoV= 1 UseB2=F ITyADJ=14
 ICtDFT=  3500011 ScaDFX=  1.000000  1.000000  1.000000  1.000000
 FoFCou: FMM=F IPFlag=           0 FMFlag=      100000 FMFlg1=        2001
         NFxFlg=           0 DoJE=T BraDBF=F KetDBF=T FulRan=T
         wScrn=  0.000000 ICntrl=       500 IOpCl=  0 I1Cent=   200000004 NGrid=           0
         NMat0=    1 NMatS0=      1 NMatT0=    0 NMatD0=    1 NMtDS0=    0 NMtDT0=    0
 Petite list used in FoFCou.
 Harris En= -3918.65798642953    
 JPrj=0 DoOrth=F DoCkMO=F.
 Leave Link  401 at Sat Sep  4 02:17:25 2021, MaxMem= 23488102400 cpu:             175.9 elap:               7.4
 (Enter /sw/apps/gaussian-16.0/g16/l502.exe)
 Integral symmetry usage will be decided dynamically.
 Closed shell SCF:
 Using DIIS extrapolation, IDIIS=  1040.
 NGot= 23488102400 LenX= 23482547354 LenY= 23479796732
 Requested convergence on RMS density matrix=1.00D-08 within 128 cycles.
 Requested convergence on MAX density matrix=1.00D-06.
 Requested convergence on             energy=1.00D-06.
 No special actions if energy rises.
 Fock matrices will be formed incrementally for  20 cycles.

 Cycle   1  Pass 1  IDiag  1:
 FoFJK:  IHMeth= 1 ICntrl=       0 DoSepK=T KAlg= 0 I1Cent=           0 FoldK=F
 IRaf=         1 NMat=       1 IRICut=       1 DoRegI=T DoRafI=F ISym2E= 0 IDoP0=0 IntGTp=1.
 FoFCou: FMM=T IPFlag=           0 FMFlag=      100000 FMFlg1=        2001
         NFxFlg=           0 DoJE=T BraDBF=F KetDBF=F FulRan=T
         wScrn=  0.000000 ICntrl=       500 IOpCl=  0 I1Cent=           0 NGrid=           0
         NMat0=    1 NMatS0=      1 NMatT0=    0 NMatD0=    1 NMtDS0=    0 NMtDT0=    0
 Symmetry not used in FoFCou.
 FMM levels:  10  Number of levels for PrismC:   9
 E= -4068.94961244791    
 DIIS: error= 2.04D-02 at cycle   1 NSaved=   1.
 NSaved= 1 IEnMin= 1 EnMin= -4068.94961244791     IErMin= 1 ErrMin= 2.04D-02
 ErrMax= 2.04D-02  0.00D+00 EMaxC= 1.00D-01 BMatC= 1.69D+00 BMatP= 1.69D+00
 IDIUse=3 WtCom= 7.96D-01 WtEn= 2.04D-01
 Coeff-Com:  0.100D+01
 Coeff-En:   0.100D+01
 Coeff:      0.100D+01
 Gap=     0.120 Goal=   None    Shift=    0.000
 GapD=    0.120 DampG=1.000 DampE=0.500 DampFc=0.5000 IDamp=-1.
 Damping current iteration by 5.00D-01
 RMSDP=1.57D-03 MaxDP=1.35D-01              OVMax= 2.00D-01

 Cycle   2  Pass 1  IDiag  1:
 RMSU=  7.69D-04    CP:  9.82D-01
 E= -4069.33866487562     Delta-E=       -0.389052427709 Rises=F Damp=T
 DIIS: error= 1.27D-02 at cycle   2 NSaved=   2.
 NSaved= 2 IEnMin= 2 EnMin= -4069.33866487562     IErMin= 2 ErrMin= 1.27D-02
 ErrMax= 1.27D-02  0.00D+00 EMaxC= 1.00D-01 BMatC= 3.06D-01 BMatP= 1.69D+00
 IDIUse=3 WtCom= 8.73D-01 WtEn= 1.27D-01
 Coeff-Com: -0.213D+00 0.121D+01
 Coeff-En:   0.000D+00 0.100D+01
 Coeff:     -0.186D+00 0.119D+01
 Gap=     0.135 Goal=   None    Shift=    0.000
 RMSDP=7.63D-04 MaxDP=9.44D-02 DE=-3.89D-01 OVMax= 1.87D-01

 Cycle   3  Pass 1  IDiag  1:
 RMSU=  7.30D-04    CP:  9.68D-01  1.24D+00
 E= -4069.62960161034     Delta-E=       -0.290936734717 Rises=F Damp=F
 DIIS: error= 1.57D-02 at cycle   3 NSaved=   3.
 NSaved= 3 IEnMin= 3 EnMin= -4069.62960161034     IErMin= 2 ErrMin= 1.27D-02
 ErrMax= 1.57D-02  0.00D+00 EMaxC= 1.00D-01 BMatC= 2.01D-01 BMatP= 3.06D-01
 IDIUse=3 WtCom= 8.43D-01 WtEn= 1.57D-01
 Coeff-Com: -0.267D+00 0.651D+00 0.616D+00
 Coeff-En:   0.000D+00 0.000D+00 0.100D+01
 Coeff:     -0.225D+00 0.549D+00 0.677D+00
 Gap=     0.122 Goal=   None    Shift=    0.000
 RMSDP=5.03D-04 MaxDP=4.82D-02 DE=-2.91D-01 OVMax= 1.38D-01

 Cycle   4  Pass 1  IDiag  1:
 RMSU=  2.63D-04    CP:  9.65D-01  1.55D+00  5.09D-01
 E= -4069.76638129412     Delta-E=       -0.136779683784 Rises=F Damp=F
 DIIS: error= 7.28D-03 at cycle   4 NSaved=   4.
 NSaved= 4 IEnMin= 4 EnMin= -4069.76638129412     IErMin= 4 ErrMin= 7.28D-03
 ErrMax= 7.28D-03  0.00D+00 EMaxC= 1.00D-01 BMatC= 4.96D-02 BMatP= 2.01D-01
 IDIUse=3 WtCom= 9.27D-01 WtEn= 7.28D-02
 Coeff-Com: -0.108D+00 0.224D+00 0.408D+00 0.476D+00
 Coeff-En:   0.000D+00 0.000D+00 0.217D+00 0.783D+00
 Coeff:     -0.100D+00 0.208D+00 0.394D+00 0.498D+00
 Gap=     0.121 Goal=   None    Shift=    0.000
 RMSDP=1.95D-04 MaxDP=2.04D-02 DE=-1.37D-01 OVMax= 5.82D-02

 Cycle   5  Pass 1  IDiag  1:
 RMSU=  7.39D-05    CP:  9.64D-01  1.49D+00  6.89D-01  5.57D-01
 E= -4069.81063122943     Delta-E=       -0.044249935312 Rises=F Damp=F
 DIIS: error= 8.27D-04 at cycle   5 NSaved=   5.
 NSaved= 5 IEnMin= 5 EnMin= -4069.81063122943     IErMin= 5 ErrMin= 8.27D-04
 ErrMax= 8.27D-04  0.00D+00 EMaxC= 1.00D-01 BMatC= 1.07D-03 BMatP= 4.96D-02
 IDIUse=3 WtCom= 9.92D-01 WtEn= 8.27D-03
 Coeff-Com: -0.344D-01 0.674D-01 0.160D+00 0.245D+00 0.562D+00
 Coeff-En:   0.000D+00 0.000D+00 0.000D+00 0.000D+00 0.100D+01
 Coeff:     -0.341D-01 0.668D-01 0.159D+00 0.243D+00 0.566D+00
 Gap=     0.120 Goal=   None    Shift=    0.000
 RMSDP=3.81D-05 MaxDP=4.20D-03 DE=-4.42D-02 OVMax= 1.52D-02

 Cycle   6  Pass 1  IDiag  1:
 RMSU=  2.89D-05    CP:  9.64D-01  1.49D+00  6.83D-01  6.24D-01  7.79D-01
 E= -4069.81152658362     Delta-E=       -0.000895354184 Rises=F Damp=F
 DIIS: error= 2.48D-04 at cycle   6 NSaved=   6.
 NSaved= 6 IEnMin= 6 EnMin= -4069.81152658362     IErMin= 6 ErrMin= 2.48D-04
 ErrMax= 2.48D-04  0.00D+00 EMaxC= 1.00D-01 BMatC= 1.62D-04 BMatP= 1.07D-03
 IDIUse=3 WtCom= 9.98D-01 WtEn= 2.48D-03
 Coeff-Com:  0.257D-02-0.724D-02 0.940D-02 0.377D-01 0.307D+00 0.650D+00
 Coeff-En:   0.000D+00 0.000D+00 0.000D+00 0.000D+00 0.918D-01 0.908D+00
 Coeff:      0.256D-02-0.723D-02 0.938D-02 0.376D-01 0.307D+00 0.651D+00
 Gap=     0.121 Goal=   None    Shift=    0.000
 RMSDP=1.47D-05 MaxDP=1.33D-03 DE=-8.95D-04 OVMax= 7.01D-03

 Cycle   7  Pass 1  IDiag  1:
 RMSU=  1.01D-05    CP:  9.64D-01  1.50D+00  6.88D-01  6.25D-01  8.72D-01
                    CP:  7.60D-01
 E= -4069.81169530413     Delta-E=       -0.000168720515 Rises=F Damp=F
 DIIS: error= 8.74D-05 at cycle   7 NSaved=   7.
 NSaved= 7 IEnMin= 7 EnMin= -4069.81169530413     IErMin= 7 ErrMin= 8.74D-05
 ErrMax= 8.74D-05  0.00D+00 EMaxC= 1.00D-01 BMatC= 1.75D-05 BMatP= 1.62D-04
 IDIUse=1 WtCom= 1.00D+00 WtEn= 0.00D+00
 Coeff-Com:  0.435D-02-0.948D-02-0.915D-02-0.471D-02 0.959D-01 0.318D+00
 Coeff-Com:  0.605D+00
 Coeff:      0.435D-02-0.948D-02-0.915D-02-0.471D-02 0.959D-01 0.318D+00
 Coeff:      0.605D+00
 Gap=     0.121 Goal=   None    Shift=    0.000
 RMSDP=6.20D-06 MaxDP=1.23D-03 DE=-1.69D-04 OVMax= 3.60D-03

 Cycle   8  Pass 1  IDiag  1:
 RMSU=  4.51D-06    CP:  9.64D-01  1.50D+00  6.89D-01  6.30D-01  8.80D-01
                    CP:  8.86D-01  8.46D-01
 E= -4069.81171694751     Delta-E=       -0.000021643376 Rises=F Damp=F
 DIIS: error= 4.68D-05 at cycle   8 NSaved=   8.
 NSaved= 8 IEnMin= 8 EnMin= -4069.81171694751     IErMin= 8 ErrMin= 4.68D-05
 ErrMax= 4.68D-05  0.00D+00 EMaxC= 1.00D-01 BMatC= 4.38D-06 BMatP= 1.75D-05
 IDIUse=1 WtCom= 1.00D+00 WtEn= 0.00D+00
 Coeff-Com:  0.207D-02-0.409D-02-0.758D-02-0.121D-01-0.144D-01 0.331D-01
 Coeff-Com:  0.356D+00 0.647D+00
 Coeff:      0.207D-02-0.409D-02-0.758D-02-0.121D-01-0.144D-01 0.331D-01
 Coeff:      0.356D+00 0.647D+00
 Gap=     0.121 Goal=   None    Shift=    0.000
 RMSDP=3.18D-06 MaxDP=4.28D-04 DE=-2.16D-05 OVMax= 1.31D-03

 Cycle   9  Pass 1  IDiag  1:
 RMSU=  1.89D-06    CP:  9.64D-01  1.50D+00  6.89D-01  6.31D-01  8.96D-01
                    CP:  9.11D-01  1.05D+00  9.08D-01
 E= -4069.81172395962     Delta-E=       -0.000007012113 Rises=F Damp=F
 DIIS: error= 2.20D-05 at cycle   9 NSaved=   9.
 NSaved= 9 IEnMin= 9 EnMin= -4069.81172395962     IErMin= 9 ErrMin= 2.20D-05
 ErrMax= 2.20D-05  0.00D+00 EMaxC= 1.00D-01 BMatC= 6.61D-07 BMatP= 4.38D-06
 IDIUse=1 WtCom= 1.00D+00 WtEn= 0.00D+00
 Coeff-Com:  0.460D-03-0.767D-03-0.264D-02-0.596D-02-0.223D-01-0.356D-01
 Coeff-Com:  0.110D+00 0.334D+00 0.623D+00
 Coeff:      0.460D-03-0.767D-03-0.264D-02-0.596D-02-0.223D-01-0.356D-01
 Coeff:      0.110D+00 0.334D+00 0.623D+00
 Gap=     0.121 Goal=   None    Shift=    0.000
 RMSDP=1.37D-06 MaxDP=1.72D-04 DE=-7.01D-06 OVMax= 8.17D-04

 Cycle  10  Pass 1  IDiag  1:
 RMSU=  9.25D-07    CP:  9.64D-01  1.50D+00  6.89D-01  6.32D-01  8.99D-01
                    CP:  9.25D-01  1.09D+00  1.08D+00  1.02D+00
 E= -4069.81172544435     Delta-E=       -0.000001484728 Rises=F Damp=F
 DIIS: error= 1.11D-05 at cycle  10 NSaved=  10.
 NSaved=10 IEnMin=10 EnMin= -4069.81172544435     IErMin=10 ErrMin= 1.11D-05
 ErrMax= 1.11D-05  0.00D+00 EMaxC= 1.00D-01 BMatC= 1.57D-07 BMatP= 6.61D-07
 IDIUse=1 WtCom= 1.00D+00 WtEn= 0.00D+00
 Coeff-Com: -0.415D-03 0.870D-03 0.119D-02 0.109D-02-0.425D-02-0.302D-01
 Coeff-Com: -0.506D-01-0.656D-01 0.265D+00 0.882D+00
 Coeff:     -0.415D-03 0.870D-03 0.119D-02 0.109D-02-0.425D-02-0.302D-01
 Coeff:     -0.506D-01-0.656D-01 0.265D+00 0.882D+00
 Gap=     0.121 Goal=   None    Shift=    0.000
 RMSDP=1.19D-06 MaxDP=1.51D-04 DE=-1.48D-06 OVMax= 6.08D-04

 Cycle  11  Pass 1  IDiag  1:
 RMSU=  5.14D-07    CP:  9.64D-01  1.50D+00  6.89D-01  6.32D-01  9.01D-01
                    CP:  9.36D-01  1.14D+00  1.18D+00  1.35D+00  1.33D+00
 E= -4069.81172617233     Delta-E=       -0.000000727981 Rises=F Damp=F
 DIIS: error= 4.12D-06 at cycle  11 NSaved=  11.
 NSaved=11 IEnMin=11 EnMin= -4069.81172617233     IErMin=11 ErrMin= 4.12D-06
 ErrMax= 4.12D-06  0.00D+00 EMaxC= 1.00D-01 BMatC= 5.65D-08 BMatP= 1.57D-07
 IDIUse=1 WtCom= 1.00D+00 WtEn= 0.00D+00
 Coeff-Com: -0.328D-03 0.640D-03 0.132D-02 0.212D-02 0.410D-02-0.886D-02
 Coeff-Com: -0.491D-01-0.128D+00-0.113D-01 0.474D+00 0.715D+00
 Coeff:     -0.328D-03 0.640D-03 0.132D-02 0.212D-02 0.410D-02-0.886D-02
 Coeff:     -0.491D-01-0.128D+00-0.113D-01 0.474D+00 0.715D+00
 Gap=     0.121 Goal=   None    Shift=    0.000
 RMSDP=6.48D-07 MaxDP=5.30D-05 DE=-7.28D-07 OVMax= 3.35D-04

 Cycle  12  Pass 1  IDiag  1:
 RMSU=  2.62D-07    CP:  9.64D-01  1.50D+00  6.89D-01  6.32D-01  9.02D-01
                    CP:  9.38D-01  1.16D+00  1.25D+00  1.51D+00  1.70D+00
                    CP:  1.16D+00
 E= -4069.81172641253     Delta-E=       -0.000000240201 Rises=F Damp=F
 DIIS: error= 3.36D-06 at cycle  12 NSaved=  12.
 NSaved=12 IEnMin=12 EnMin= -4069.81172641253     IErMin=12 ErrMin= 3.36D-06
 ErrMax= 3.36D-06  0.00D+00 EMaxC= 1.00D-01 BMatC= 1.24D-08 BMatP= 5.65D-08
 IDIUse=1 WtCom= 1.00D+00 WtEn= 0.00D+00
 Coeff-Com: -0.112D-04 0.594D-05 0.216D-03 0.575D-03 0.328D-02 0.388D-02
 Coeff-Com: -0.273D-03-0.381D-01-0.690D-01-0.495D-01 0.251D+00 0.898D+00
 Coeff:     -0.112D-04 0.594D-05 0.216D-03 0.575D-03 0.328D-02 0.388D-02
 Coeff:     -0.273D-03-0.381D-01-0.690D-01-0.495D-01 0.251D+00 0.898D+00
 Gap=     0.121 Goal=   None    Shift=    0.000
 RMSDP=4.25D-07 MaxDP=2.79D-05 DE=-2.40D-07 OVMax= 2.89D-04

 Cycle  13  Pass 1  IDiag  1:
 RMSU=  1.70D-07    CP:  9.64D-01  1.50D+00  6.89D-01  6.32D-01  9.02D-01
                    CP:  9.39D-01  1.17D+00  1.28D+00  1.62D+00  1.92D+00
                    CP:  1.57D+00  1.22D+00
 E= -4069.81172649666     Delta-E=       -0.000000084125 Rises=F Damp=F
 DIIS: error= 2.31D-06 at cycle  13 NSaved=  13.
 NSaved=13 IEnMin=13 EnMin= -4069.81172649666     IErMin=13 ErrMin= 2.31D-06
 ErrMax= 2.31D-06  0.00D+00 EMaxC= 1.00D-01 BMatC= 9.00D-09 BMatP= 1.24D-08
 IDIUse=1 WtCom= 1.00D+00 WtEn= 0.00D+00
 Coeff-Com:  0.115D-03-0.236D-03-0.345D-03-0.408D-03 0.684D-03 0.539D-02
 Coeff-Com:  0.199D-01 0.196D-01-0.422D-01-0.229D+00-0.153D+00 0.648D+00
 Coeff-Com:  0.731D+00
 Coeff:      0.115D-03-0.236D-03-0.345D-03-0.408D-03 0.684D-03 0.539D-02
 Coeff:      0.199D-01 0.196D-01-0.422D-01-0.229D+00-0.153D+00 0.648D+00
 Coeff:      0.731D+00
 Gap=     0.121 Goal=   None    Shift=    0.000
 RMSDP=3.16D-07 MaxDP=1.97D-05 DE=-8.41D-08 OVMax= 1.64D-04

 Cycle  14  Pass 1  IDiag  1:
 RMSU=  8.10D-08    CP:  9.64D-01  1.50D+00  6.89D-01  6.32D-01  9.03D-01
                    CP:  9.39D-01  1.18D+00  1.30D+00  1.68D+00  2.10D+00
                    CP:  1.81D+00  1.74D+00  1.04D+00
 E= -4069.81172653257     Delta-E=       -0.000000035914 Rises=F Damp=F
 DIIS: error= 1.24D-06 at cycle  14 NSaved=  14.
 NSaved=14 IEnMin=14 EnMin= -4069.81172653257     IErMin=14 ErrMin= 1.24D-06
 ErrMax= 1.24D-06  0.00D+00 EMaxC= 1.00D-01 BMatC= 1.18D-09 BMatP= 9.00D-09
 IDIUse=1 WtCom= 1.00D+00 WtEn= 0.00D+00
 Coeff-Com:  0.704D-04-0.139D-03-0.258D-03-0.400D-03-0.483D-03 0.170D-02
 Coeff-Com:  0.121D-01 0.199D-01-0.143D-02-0.106D+00-0.159D+00 0.141D+00
 Coeff-Com:  0.363D+00 0.730D+00
 Coeff:      0.704D-04-0.139D-03-0.258D-03-0.400D-03-0.483D-03 0.170D-02
 Coeff:      0.121D-01 0.199D-01-0.143D-02-0.106D+00-0.159D+00 0.141D+00
 Coeff:      0.363D+00 0.730D+00
 Gap=     0.121 Goal=   None    Shift=    0.000
 RMSDP=1.16D-07 MaxDP=7.73D-06 DE=-3.59D-08 OVMax= 8.15D-05

 Cycle  15  Pass 1  IDiag  1:
 RMSU=  3.97D-08    CP:  9.64D-01  1.50D+00  6.89D-01  6.32D-01  9.03D-01
                    CP:  9.39D-01  1.18D+00  1.30D+00  1.70D+00  2.15D+00
                    CP:  1.92D+00  1.90D+00  1.27D+00  1.01D+00
 E= -4069.81172653718     Delta-E=       -0.000000004606 Rises=F Damp=F
 DIIS: error= 5.40D-07 at cycle  15 NSaved=  15.
 NSaved=15 IEnMin=15 EnMin= -4069.81172653718     IErMin=15 ErrMin= 5.40D-07
 ErrMax= 5.40D-07  0.00D+00 EMaxC= 1.00D-01 BMatC= 3.22D-10 BMatP= 1.18D-09
 IDIUse=1 WtCom= 1.00D+00 WtEn= 0.00D+00
 Coeff-Com:  0.123D-04-0.225D-04-0.580D-04-0.121D-03-0.369D-03-0.328D-03
 Coeff-Com:  0.235D-02 0.494D-02 0.858D-02-0.573D-02-0.499D-01-0.453D-01
 Coeff-Com:  0.175D-01 0.380D+00 0.689D+00
 Coeff:      0.123D-04-0.225D-04-0.580D-04-0.121D-03-0.369D-03-0.328D-03
 Coeff:      0.235D-02 0.494D-02 0.858D-02-0.573D-02-0.499D-01-0.453D-01
 Coeff:      0.175D-01 0.380D+00 0.689D+00
 Gap=     0.121 Goal=   None    Shift=    0.000
 RMSDP=3.90D-08 MaxDP=3.24D-06 DE=-4.61D-09 OVMax= 2.04D-05

 Cycle  16  Pass 1  IDiag  1:
 RMSU=  1.92D-08    CP:  9.64D-01  1.50D+00  6.89D-01  6.32D-01  9.03D-01
                    CP:  9.39D-01  1.18D+00  1.30D+00  1.71D+00  2.17D+00
                    CP:  1.95D+00  1.96D+00  1.34D+00  1.23D+00  1.13D+00
 E= -4069.81172653801     Delta-E=       -0.000000000829 Rises=F Damp=F
 DIIS: error= 1.74D-07 at cycle  16 NSaved=  16.
 NSaved=16 IEnMin=16 EnMin= -4069.81172653801     IErMin=16 ErrMin= 1.74D-07
 ErrMax= 1.74D-07  0.00D+00 EMaxC= 1.00D-01 BMatC= 7.86D-11 BMatP= 3.22D-10
 IDIUse=1 WtCom= 1.00D+00 WtEn= 0.00D+00
 Coeff-Com: -0.132D-04 0.268D-04 0.427D-04 0.461D-04-0.506D-04-0.641D-03
 Coeff-Com: -0.200D-02-0.367D-02 0.509D-02 0.249D-01 0.152D-01-0.564D-01
 Coeff-Com: -0.102D+00 0.168D-01 0.324D+00 0.779D+00
 Coeff:     -0.132D-04 0.268D-04 0.427D-04 0.461D-04-0.506D-04-0.641D-03
 Coeff:     -0.200D-02-0.367D-02 0.509D-02 0.249D-01 0.152D-01-0.564D-01
 Coeff:     -0.102D+00 0.168D-01 0.324D+00 0.779D+00
 Gap=     0.121 Goal=   None    Shift=    0.000
 RMSDP=2.66D-08 MaxDP=2.20D-06 DE=-8.29D-10 OVMax= 1.81D-05

 Cycle  17  Pass 1  IDiag  1:
 RMSU=  1.23D-08    CP:  9.64D-01  1.50D+00  6.89D-01  6.32D-01  9.03D-01
                    CP:  9.39D-01  1.18D+00  1.30D+00  1.71D+00  2.17D+00
                    CP:  1.96D+00  2.00D+00  1.39D+00  1.32D+00  1.43D+00
                    CP:  1.19D+00
 E= -4069.81172653842     Delta-E=       -0.000000000418 Rises=F Damp=F
 DIIS: error= 1.02D-07 at cycle  17 NSaved=  17.
 NSaved=17 IEnMin=17 EnMin= -4069.81172653842     IErMin=17 ErrMin= 1.02D-07
 ErrMax= 1.02D-07  0.00D+00 EMaxC= 1.00D-01 BMatC= 2.60D-11 BMatP= 7.86D-11
 IDIUse=1 WtCom= 1.00D+00 WtEn= 0.00D+00
 Coeff-Com: -0.932D-05 0.183D-04 0.356D-04 0.513D-04 0.781D-04-0.226D-03
 Coeff-Com: -0.144D-02-0.329D-02 0.962D-03 0.138D-01 0.198D-01-0.119D-01
 Coeff-Com: -0.587D-01-0.805D-01-0.565D-01 0.396D+00 0.782D+00
 Coeff:     -0.932D-05 0.183D-04 0.356D-04 0.513D-04 0.781D-04-0.226D-03
 Coeff:     -0.144D-02-0.329D-02 0.962D-03 0.138D-01 0.198D-01-0.119D-01
 Coeff:     -0.587D-01-0.805D-01-0.565D-01 0.396D+00 0.782D+00
 Gap=     0.121 Goal=   None    Shift=    0.000
 RMSDP=1.46D-08 MaxDP=9.32D-07 DE=-4.18D-10 OVMax= 8.13D-06

 Cycle  18  Pass 1  IDiag  1:
 RMSU=  5.64D-09    CP:  9.64D-01  1.50D+00  6.89D-01  6.32D-01  9.03D-01
                    CP:  9.39D-01  1.18D+00  1.30D+00  1.71D+00  2.17D+00
                    CP:  1.96D+00  2.01D+00  1.41D+00  1.40D+00  1.60D+00
                    CP:  1.59D+00  1.31D+00
 E= -4069.81172653840     Delta-E=        0.000000000025 Rises=F Damp=F
 DIIS: error= 8.21D-08 at cycle  18 NSaved=  18.
 NSaved=18 IEnMin=17 EnMin= -4069.81172653842     IErMin=18 ErrMin= 8.21D-08
 ErrMax= 8.21D-08  0.00D+00 EMaxC= 1.00D-01 BMatC= 7.42D-12 BMatP= 2.60D-11
 IDIUse=1 WtCom= 1.00D+00 WtEn= 0.00D+00
 Coeff-Com:  0.113D-06-0.592D-06 0.266D-05 0.847D-05 0.698D-04 0.134D-03
 Coeff-Com:  0.966D-04-0.461D-03-0.121D-02-0.303D-02 0.330D-02 0.175D-01
 Coeff-Com:  0.573D-02-0.371D-01-0.160D+00-0.671D-01 0.343D+00 0.899D+00
 Coeff:      0.113D-06-0.592D-06 0.266D-05 0.847D-05 0.698D-04 0.134D-03
 Coeff:      0.966D-04-0.461D-03-0.121D-02-0.303D-02 0.330D-02 0.175D-01
 Coeff:      0.573D-02-0.371D-01-0.160D+00-0.671D-01 0.343D+00 0.899D+00
 Gap=     0.121 Goal=   None    Shift=    0.000
 RMSDP=1.10D-08 MaxDP=8.17D-07 DE= 2.55D-11 OVMax= 6.83D-06

 Cycle  19  Pass 1  IDiag  1:
 RMSU=  3.27D-09    CP:  9.64D-01  1.50D+00  6.89D-01  6.32D-01  9.03D-01
                    CP:  9.39D-01  1.18D+00  1.30D+00  1.71D+00  2.17D+00
                    CP:  1.97D+00  2.01D+00  1.41D+00  1.43D+00  1.74D+00
                    CP:  1.85D+00  1.80D+00  1.22D+00
 E= -4069.81172653857     Delta-E=       -0.000000000175 Rises=F Damp=F
 DIIS: error= 3.13D-08 at cycle  19 NSaved=  19.
 NSaved=19 IEnMin=19 EnMin= -4069.81172653857     IErMin=19 ErrMin= 3.13D-08
 ErrMax= 3.13D-08  0.00D+00 EMaxC= 1.00D-01 BMatC= 3.09D-12 BMatP= 7.42D-12
 IDIUse=1 WtCom= 1.00D+00 WtEn= 0.00D+00
 Coeff-Com:  0.345D-05-0.700D-05-0.114D-04-0.137D-04 0.193D-04 0.163D-03
 Coeff-Com:  0.609D-03 0.892D-03-0.983D-03-0.711D-02-0.552D-02 0.161D-01
 Coeff-Com:  0.243D-01 0.915D-02-0.876D-01-0.195D+00-0.108D+00 0.564D+00
 Coeff-Com:  0.789D+00
 Coeff:      0.345D-05-0.700D-05-0.114D-04-0.137D-04 0.193D-04 0.163D-03
 Coeff:      0.609D-03 0.892D-03-0.983D-03-0.711D-02-0.552D-02 0.161D-01
 Coeff:      0.243D-01 0.915D-02-0.876D-01-0.195D+00-0.108D+00 0.564D+00
 Coeff:      0.789D+00
 Gap=     0.121 Goal=   None    Shift=    0.000
 RMSDP=7.48D-09 MaxDP=4.88D-07 DE=-1.75D-10 OVMax= 4.30D-06

 SCF Done:  E(RCAM-B3LYP) =  -4069.81172654     A.U. after   19 cycles
            NFock= 19  Conv=0.75D-08     -V/T= 2.0102
 KE= 4.028801642001D+03 PE=-3.933799570851D+04 EE= 1.631091520890D+04
 Leave Link  502 at Sat Sep  4 02:27:12 2021, MaxMem= 23488102400 cpu:           13476.1 elap:             586.9
 (Enter /sw/apps/gaussian-16.0/g16/l801.exe)
 DoSCS=F DFT=T ScalE2(SS,OS)=  1.000000  1.000000
 ExpMin= 3.36D-02 ExpMax= 4.95D+03 ExpMxC= 7.45D+02 IAcc=3 IRadAn=         5 AccDes= 0.00D+00
 HarFok:  IExCor=  205 AccDes= 0.00D+00 IRadAn=         5 IDoV=-2 UseB2=F ITyADJ=14
 ICtDFT= 12500011 ScaDFX=  1.000000  1.000000  1.000000  1.000000
 GSVD:  LWork=       -9588 too small for GESVD, short by       45590 words or       45590 for optimal perf.
 Largest valence mixing into a core orbital is  2.03D-04
 Largest core mixing into a valence orbital is  5.25D-05
 Range of M.O.s used for correlation:    95  1572
 NBasis=  1572 NAE=   312 NBE=   312 NFC=    94 NFV=     0
 NROrb=   1478 NOA=   218 NOB=   218 NVA=  1260 NVB=  1260
 Leave Link  801 at Sat Sep  4 02:27:12 2021, MaxMem= 23488102400 cpu:               8.1 elap:               0.4
 (Enter /sw/apps/gaussian-16.0/g16/l914.exe)
 RHF ground state
 Two-electron integrals replicated using symmetry.
 MDV= 23488102400 DFT=T DoStab=F Mixed=T DoRPA=T DoScal=F NonHer=T
 Making orbital integer symmetry assigments:
 Orbital symmetries:
       Occupied  (A) (A) (A) (A) (A) (A) (A) (A) (A) (A) (A) (A)
                 (A) (A) (A) (A) (A) (A) (A) (A) (A) (A) (A) (A)
                 (A) (A) (A) (A) (A) (A) (A) (A) (A) (A) (A) (A)
                 (A) (A) (A) (A) (A) (A) (A) (A) (A) (A) (A) (A)
                 (A) (A) (A) (A) (A) (A) (A) (A) (A) (A) (A) (A)
                 (A) (A) (A) (A) (A) (A) (A) (A) (A) (A) (A) (A)
                 (A) (A) (A) (A) (A) (A) (A) (A) (A) (A) (A) (A)
                 (A) (A) (A) (A) (A) (A) (A) (A) (A) (A) (A) (A)
                 (A) (A) (A) (A) (A) (A) (A) (A) (A) (A) (A) (A)
                 (A) (A) (A) (A) (A) (A) (A) (A) (A) (A) (A) (A)
                 (A) (A) (A) (A) (A) (A) (A) (A) (A) (A) (A) (A)
                 (A) (A) (A) (A) (A) (A) (A) (A) (A) (A) (A) (A)
                 (A) (A) (A) (A) (A) (A) (A) (A) (A) (A) (A) (A)
                 (A) (A) (A) (A) (A) (A) (A) (A) (A) (A) (A) (A)
                 (A) (A) (A) (A) (A) (A) (A) (A) (A) (A) (A) (A)
                 (A) (A) (A) (A) (A) (A) (A) (A) (A) (A) (A) (A)
                 (A) (A) (A) (A) (A) (A) (A) (A) (A) (A) (A) (A)
                 (A) (A) (A) (A) (A) (A) (A) (A) (A) (A) (A) (A)
                 (A) (A) (A) (A) (A) (A) (A) (A) (A) (A) (A) (A)
                 (A) (A) (A) (A) (A) (A) (A) (A) (A) (A) (A) (A)
                 (A) (A) (A) (A) (A) (A) (A) (A) (A) (A) (A) (A)
                 (A) (A) (A) (A) (A) (A) (A) (A) (A) (A) (A) (A)
                 (A) (A) (A) (A) (A) (A) (A) (A) (A) (A) (A) (A)
                 (A) (A) (A) (A) (A) (A) (A) (A) (A) (A) (A) (A)
                 (A) (A) (A) (A) (A) (A) (A) (A) (A) (A) (A) (A)
                 (A) (A) (A) (A) (A) (A) (A) (A) (A) (A) (A) (A)
       Virtual   (A) (A) (A) (A) (A) (A) (A) (A) (A) (A) (A) (A)
                 (A) (A) (A) (A) (A) (A) (A) (A) (A) (A) (A) (A)
                 (A) (A) (A) (A) (A) (A) (A) (A) (A) (A) (A) (A)
                 (A) (A) (A) (A) (A) (A) (A) (A) (A) (A) (A) (A)
                 (A) (A) (A) (A) (A) (A) (A) (A) (A) (A) (A) (A)
                 (A) (A) (A) (A) (A) (A) (A) (A) (A) (A) (A) (A)
                 (A) (A) (A) (A) (A) (A) (A) (A) (A) (A) (A) (A)
                 (A) (A) (A) (A) (A) (A) (A) (A) (A) (A) (A) (A)
                 (A) (A) (A) (A) (A) (A) (A) (A) (A) (A) (A) (A)
                 (A) (A) (A) (A) (A) (A) (A) (A) (A) (A) (A) (A)
                 (A) (A) (A) (A) (A) (A) (A) (A) (A) (A) (A) (A)
                 (A) (A) (A) (A) (A) (A) (A) (A) (A) (A) (A) (A)
                 (A) (A) (A) (A) (A) (A) (A) (A) (A) (A) (A) (A)
                 (A) (A) (A) (A) (A) (A) (A) (A) (A) (A) (A) (A)
                 (A) (A) (A) (A) (A) (A) (A) (A) (A) (A) (A) (A)
                 (A) (A) (A) (A) (A) (A) (A) (A) (A) (A) (A) (A)
                 (A) (A) (A) (A) (A) (A) (A) (A) (A) (A) (A) (A)
                 (A) (A) (A) (A) (A) (A) (A) (A) (A) (A) (A) (A)
                 (A) (A) (A) (A) (A) (A) (A) (A) (A) (A) (A) (A)
                 (A) (A) (A) (A) (A) (A) (A) (A) (A) (A) (A) (A)
                 (A) (A) (A) (A) (A) (A) (A) (A) (A) (A) (A) (A)
                 (A) (A) (A) (A) (A) (A) (A) (A) (A) (A) (A) (A)
                 (A) (A) (A) (A) (A) (A) (A) (A) (A) (A) (A) (A)
                 (A) (A) (A) (A) (A) (A) (A) (A) (A) (A) (A) (A)
                 (A) (A) (A) (A) (A) (A) (A) (A) (A) (A) (A) (A)
                 (A) (A) (A) (A) (A) (A) (A) (A) (A) (A) (A) (A)
                 (A) (A) (A) (A) (A) (A) (A) (A) (A) (A) (A) (A)
                 (A) (A) (A) (A) (A) (A) (A) (A) (A) (A) (A) (A)
                 (A) (A) (A) (A) (A) (A) (A) (A) (A) (A) (A) (A)
                 (A) (A) (A) (A) (A) (A) (A) (A) (A) (A) (A) (A)
                 (A) (A) (A) (A) (A) (A) (A) (A) (A) (A) (A) (A)
                 (A) (A) (A) (A) (A) (A) (A) (A) (A) (A) (A) (A)
                 (A) (A) (A) (A) (A) (A) (A) (A) (A) (A) (A) (A)
                 (A) (A) (A) (A) (A) (A) (A) (A) (A) (A) (A) (A)
                 (A) (A) (A) (A) (A) (A) (A) (A) (A) (A) (A) (A)
                 (A) (A) (A) (A) (A) (A) (A) (A) (A) (A) (A) (A)
                 (A) (A) (A) (A) (A) (A) (A) (A) (A) (A) (A) (A)
                 (A) (A) (A) (A) (A) (A) (A) (A) (A) (A) (A) (A)
                 (A) (A) (A) (A) (A) (A) (A) (A) (A) (A) (A) (A)
                 (A) (A) (A) (A) (A) (A) (A) (A) (A) (A) (A) (A)
                 (A) (A) (A) (A) (A) (A) (A) (A) (A) (A) (A) (A)
                 (A) (A) (A) (A) (A) (A) (A) (A) (A) (A) (A) (A)
                 (A) (A) (A) (A) (A) (A) (A) (A) (A) (A) (A) (A)
                 (A) (A) (A) (A) (A) (A) (A) (A) (A) (A) (A) (A)
                 (A) (A) (A) (A) (A) (A) (A) (A) (A) (A) (A) (A)
                 (A) (A) (A) (A) (A) (A) (A) (A) (A) (A) (A) (A)
                 (A) (A) (A) (A) (A) (A) (A) (A) (A) (A) (A) (A)
                 (A) (A) (A) (A) (A) (A) (A) (A) (A) (A) (A) (A)
                 (A) (A) (A) (A) (A) (A) (A) (A) (A) (A) (A) (A)
                 (A) (A) (A) (A) (A) (A) (A) (A) (A) (A) (A) (A)
                 (A) (A) (A) (A) (A) (A) (A) (A) (A) (A) (A) (A)
                 (A) (A) (A) (A) (A) (A) (A) (A) (A) (A) (A) (A)
                 (A) (A) (A) (A) (A) (A) (A) (A) (A) (A) (A) (A)
                 (A) (A) (A) (A) (A) (A) (A) (A) (A) (A) (A) (A)
                 (A) (A) (A) (A) (A) (A) (A) (A) (A) (A) (A) (A)
                 (A) (A) (A) (A) (A) (A) (A) (A) (A) (A) (A) (A)
                 (A) (A) (A) (A) (A) (A) (A) (A) (A) (A) (A) (A)
                 (A) (A) (A) (A) (A) (A) (A) (A) (A) (A) (A) (A)
                 (A) (A) (A) (A) (A) (A) (A) (A) (A) (A) (A) (A)
                 (A) (A) (A) (A) (A) (A) (A) (A) (A) (A) (A) (A)
                 (A) (A) (A) (A) (A) (A) (A) (A) (A) (A) (A) (A)
                 (A) (A) (A) (A) (A) (A) (A) (A) (A) (A) (A) (A)
                 (A) (A) (A) (A) (A) (A) (A) (A) (A) (A) (A) (A)
                 (A) (A) (A) (A) (A) (A) (A) (A) (A) (A) (A) (A)
                 (A) (A) (A) (A) (A) (A) (A) (A) (A) (A) (A) (A)
                 (A) (A) (A) (A) (A) (A) (A) (A) (A) (A) (A) (A)
                 (A) (A) (A) (A) (A) (A) (A) (A) (A) (A) (A) (A)
                 (A) (A) (A) (A) (A) (A) (A) (A) (A) (A) (A) (A)
                 (A) (A) (A) (A) (A) (A) (A) (A) (A) (A) (A) (A)
                 (A) (A) (A) (A) (A) (A) (A) (A) (A) (A) (A) (A)
                 (A) (A) (A) (A) (A) (A) (A) (A) (A) (A) (A) (A)
                 (A) (A) (A) (A) (A) (A) (A) (A) (A) (A) (A) (A)
                 (A) (A) (A) (A) (A) (A) (A) (A) (A) (A) (A) (A)
                 (A) (A) (A) (A) (A) (A) (A) (A) (A) (A) (A) (A)
                 (A) (A) (A) (A) (A) (A) (A) (A) (A) (A) (A) (A)
                 (A) (A) (A) (A) (A) (A) (A) (A) (A) (A) (A) (A)
                 (A) (A) (A) (A) (A) (A) (A) (A) (A) (A) (A) (A)
                 (A) (A) (A) (A) (A) (A) (A) (A) (A) (A) (A) (A)
                 (A) (A) (A) (A) (A) (A) (A) (A) (A) (A) (A) (A)
                 (A) (A) (A) (A) (A) (A) (A) (A) (A) (A) (A) (A)
                 (A) (A) (A) (A) (A) (A) (A) (A) (A) (A) (A) (A)
                 (A) (A) (A) (A) (A) (A) (A) (A) (A) (A) (A) (A)
                 (A) (A) (A) (A) (A) (A) (A) (A) (A) (A) (A) (A)
                 (A) (A) (A) (A) (A) (A) (A) (A) (A) (A) (A) (A)
                 (A) (A) (A) (A) (A) (A) (A) (A) (A) (A) (A) (A)
                 (A) (A) (A) (A) (A) (A) (A) (A) (A) (A) (A) (A)
                 (A) (A) (A) (A) (A) (A) (A) (A) (A) (A) (A) (A)
                 (A) (A) (A) (A) (A) (A) (A) (A) (A) (A) (A) (A)
                 (A) (A) (A) (A) (A) (A) (A) (A) (A) (A) (A) (A)
                 (A) (A) (A) (A) (A) (A) (A) (A) (A) (A) (A) (A)
                 (A) (A) (A) (A) (A) (A) (A) (A) (A) (A) (A) (A)
                 (A) (A) (A) (A) (A) (A) (A) (A) (A) (A) (A) (A)
                 (A) (A) (A) (A) (A) (A) (A) (A) (A) (A) (A) (A)
                 (A) (A) (A) (A) (A) (A) (A) (A) (A) (A) (A) (A)
                 (A) (A) (A) (A) (A) (A) (A) (A) (A) (A) (A) (A)
                 (A) (A) (A) (A) (A) (A) (A) (A) (A) (A) (A) (A)
                 (A) (A) (A) (A) (A) (A) (A) (A) (A) (A) (A) (A)
                 (A) (A) (A) (A) (A) (A) (A) (A) (A) (A) (A) (A)
                 (A) (A) (A) (A) (A) (A) (A) (A) (A) (A) (A) (A)
                 (A) (A) (A) (A) (A) (A) (A) (A) (A) (A) (A) (A)
                 (A) (A) (A) (A) (A) (A) (A) (A) (A) (A) (A) (A)
                 (A) (A) (A) (A) (A) (A) (A) (A) (A) (A) (A) (A)
                 (A) (A) (A) (A) (A) (A) (A) (A) (A) (A) (A) (A)
                 (A) (A) (A) (A) (A) (A) (A) (A) (A) (A) (A) (A)
                 (A) (A) (A) (A) (A) (A) (A) (A) (A) (A) (A) (A)
    20 initial guesses have been made.
 Convergence on wavefunction:    0.001000000000000
 Davidson Disk Diagonalization:  ConvIn= 1.00D-03 SkipCon=T Conv= 1.00D-03.
 Max sub-space:  2000 roots to seek:    20 dimension of matrix:       549360
 Iteration     1 Dimension    20 NMult     0 NNew     20
 CISAX will form    20 AO SS matrices at one time.
 NMat=    20 NSing=    20 JSym2X= 0.
 FoFJK:  IHMeth= 1 ICntrl=       0 DoSepK=T KAlg= 0 I1Cent=           0 FoldK=F
 IRaf=         1 NMat=      40 IRICut=       1 DoRegI=T DoRafI=F ISym2E= 0 IDoP0=3 IntGTp=3.
 FoFCou: FMM=T IPFlag=           0 FMFlag=      100000 FMFlg1=        2001
         NFxFlg=           0 DoJE=F BraDBF=F KetDBF=F FulRan=T
         wScrn=  0.000000 ICntrl=       500 IOpCl=  0 I1Cent=           0 NGrid=           0
         NMat0=   20 NMatS0=     20 NMatT0=    0 NMatD0=   20 NMtDS0=    0 NMtDT0=    0
 Symmetry not used in FoFCou.
 FMM levels:  10  Number of levels for PrismC:   9
 New state      2 was old state      7
 New state      3 was old state      6
 New state      5 was old state      2
 Excitation Energies [eV] at current iteration:
 Root      1 :     2.487780455998374
 Root      2 :     2.609788145638348
 Root      3 :     2.620878603307609
 Root      4 :     2.621315984052174
 Root      5 :     2.641475979495696
 Root      6 :     2.731155383171512
 Root      7 :     3.274102591592678
 Root      8 :     3.420251743170281
 Root      9 :     3.635792463344906
 Root     10 :     3.669828137370849
 Root     11 :     3.733138183254713
 Root     12 :     3.755561094403214
 Root     13 :     4.270643734684995
 Root     14 :     4.343873386475705
 Root     15 :     4.388038182954362
 Root     16 :     4.555911438244527
 Root     17 :     4.713801034679920
 Root     18 :     4.747316289692864
 Root     19 :     4.844838831026279
 Root     20 :     4.871181830306341
 Iteration     2 Dimension    30 NMult    20 NNew     10
 CISAX will form    10 AO SS matrices at one time.
 NMat=    10 NSing=    10 JSym2X= 0.
 New state      1 was old state      5
 Root      1 not converged, maximum delta is    0.155692733965915
 Root      2 not converged, maximum delta is    0.168283116885109
 Root      3 not converged, maximum delta is    0.061402177657577
 New state      4 was old state      1
 Root      4 not converged, maximum delta is    0.002405292661260
 New state      5 was old state      4
 Root      5 not converged, maximum delta is    0.009290121108583
 Excitation Energies [eV] at current iteration:
 Root      1 :     1.782202315916406   Change is   -0.859273663579290
 Root      2 :     2.228749563629492   Change is   -0.381038582008855
 Root      3 :     2.239277220297874   Change is   -0.381601383009736
 Root      4 :     2.487373160543648   Change is   -0.000407295454726
 Root      5 :     2.620767825466884   Change is   -0.000548158585289
 Iteration     3 Dimension    40 NMult    30 NNew     10
 CISAX will form    10 AO SS matrices at one time.
 NMat=    10 NSing=    10 JSym2X= 0.
 Root      1 not converged, maximum delta is    0.054855268043028
 Root      2 not converged, maximum delta is    0.377658329097912
 Root      3 not converged, maximum delta is    0.407521713284880
 No map to state      4
 New state      5 was old state      4
 Root      5 has converged.
 Excitation Energies [eV] at current iteration:
 Root      1 :     1.676774287156223   Change is   -0.105428028760184
 Root      2 :     2.123774328800509   Change is   -0.104975234828983
 Root      3 :     2.193654284293617   Change is   -0.045622936004257
 Root      4 :     2.305924804983959
 Root      5 :     2.487370888647958   Change is   -0.000002271895690
 Iteration     4 Dimension    48 NMult    40 NNew      8
 CISAX will form     8 AO SS matrices at one time.
 NMat=     8 NSing=     8 JSym2X= 0.
 Root      1 not converged, maximum delta is    0.011496262816624
 Root      2 not converged, maximum delta is    0.442704231061044
 Root      3 not converged, maximum delta is    0.227777705923183
 Root      4 not converged, maximum delta is    0.281259542097491
 Root      5 has converged.
 Excitation Energies [eV] at current iteration:
 Root      1 :     1.660150488370832   Change is   -0.016623798785391
 Root      2 :     1.738411421721034   Change is   -0.385362907079474
 Root      3 :     2.184619681216143   Change is   -0.009034603077474
 Root      4 :     2.197734958861202   Change is   -0.108189846122757
 Root      5 :     2.487370814564217   Change is   -0.000000074083741
 Iteration     5 Dimension    56 NMult    48 NNew      8
 CISAX will form     8 AO SS matrices at one time.
 NMat=     8 NSing=     8 JSym2X= 0.
 Root      1 not converged, maximum delta is    0.002769082787094
 Root      2 not converged, maximum delta is    0.024011885603300
 Root      3 not converged, maximum delta is    0.016701184565596
 Root      4 not converged, maximum delta is    0.016440352334429
 Root      5 has converged.
 Excitation Energies [eV] at current iteration:
 Root      1 :     1.658416781105364   Change is   -0.001733707265468
 Root      2 :     1.700500386126860   Change is   -0.037911035594175
 Root      3 :     2.183658304559230   Change is   -0.000961376656913
 Root      4 :     2.195721949829905   Change is   -0.002013009031297
 Root      5 :     2.487370808909600   Change is   -0.000000005654618
 Iteration     6 Dimension    64 NMult    56 NNew      8
 CISAX will form     8 AO SS matrices at one time.
 NMat=     8 NSing=     8 JSym2X= 0.
 Root      1 not converged, maximum delta is    0.001074699279528
 Root      2 not converged, maximum delta is    0.005959563738875
 Root      3 not converged, maximum delta is    0.001415595295767
 Root      4 not converged, maximum delta is    0.001403451129889
 Root      5 has converged.
 Excitation Energies [eV] at current iteration:
 Root      1 :     1.658169363770174   Change is   -0.000247417335189
 Root      2 :     1.696380311223441   Change is   -0.004120074903418
 Root      3 :     2.183518628509556   Change is   -0.000139676049674
 Root      4 :     2.195511308981549   Change is   -0.000210640848357
 Root      5 :     2.487370806231825   Change is   -0.000000002677774
 Iteration     7 Dimension    72 NMult    64 NNew      8
 CISAX will form     8 AO SS matrices at one time.
 NMat=     8 NSing=     8 JSym2X= 0.
 Root      1 has converged.
 Root      2 not converged, maximum delta is    0.001341300704924
 Root      3 has converged.
 Root      4 has converged.
 Root      5 has converged.
 Excitation Energies [eV] at current iteration:
 Root      1 :     1.658144807472245   Change is   -0.000024556297929
 Root      2 :     1.695886868716021   Change is   -0.000493442507420
 Root      3 :     2.183497794480700   Change is   -0.000020834028856
[...]
 Alpha virt. eigenvalues --    1.83615   1.83696   1.83970   1.84026   1.84313
 Alpha virt. eigenvalues --    1.84381   1.84638   1.84782   1.84904   1.84996
 Alpha virt. eigenvalues --    1.85227   1.85227   1.85470   1.85495   1.85610
 Alpha virt. eigenvalues --    1.85813   1.86010   1.86287   1.86512   1.86521
 Alpha virt. eigenvalues --    1.86719   1.86772   1.86951   1.86967   1.87135
 Alpha virt. eigenvalues --    1.87381   1.87583   1.87636   1.87811   1.87881
 Alpha virt. eigenvalues --    1.87984   1.88157   1.88292   1.88496   1.88698
 Alpha virt. eigenvalues --    1.88792   1.89033   1.89062   1.89211   1.89601
 Alpha virt. eigenvalues --    1.89719   1.89788   1.89991   1.90081   1.90305
 Alpha virt. eigenvalues --    1.90697   1.91014   1.91290   1.91387   1.91601
 Alpha virt. eigenvalues --    1.91696   1.92101   1.92279   1.92575   1.92761
 Alpha virt. eigenvalues --    1.92928   1.93261   1.93271   1.93637   1.94186
 Alpha virt. eigenvalues --    1.94423   1.94642   1.94964   1.95374   1.95677
 Alpha virt. eigenvalues --    1.95746   1.95913   1.95944   1.96060   1.96172
 Alpha virt. eigenvalues --    1.96271   1.96524   1.96595   1.96854   1.97058
 Alpha virt. eigenvalues --    1.97378   1.97643   1.97754   1.97898   1.98125
 Alpha virt. eigenvalues --    1.98275   1.98434   1.98638   1.99093   1.99202
 Alpha virt. eigenvalues --    1.99788   2.00035   2.00596   2.00833   2.00960
 Alpha virt. eigenvalues --    2.01205   2.01439   2.01594   2.01639   2.01684
 Alpha virt. eigenvalues --    2.01700   2.01919   2.02734   2.02823   2.03159
 Alpha virt. eigenvalues --    2.03301   2.03367   2.03444   2.03481   2.03617
 Alpha virt. eigenvalues --    2.03985   2.04136   2.04915   2.05094   2.05472
 Alpha virt. eigenvalues --    2.05750   2.06047   2.06399   2.06872   2.07117
 Alpha virt. eigenvalues --    2.07130   2.07444   2.08555   2.08694   2.08944
 Alpha virt. eigenvalues --    2.09097   2.09555   2.09711   2.10677   2.11138
 Alpha virt. eigenvalues --    2.11167   2.11491   2.11509   2.11624   2.11694
 Alpha virt. eigenvalues --    2.11976   2.12417   2.12568   2.12764   2.12779
 Alpha virt. eigenvalues --    2.12919   2.12977   2.13725   2.13732   2.14059
 Alpha virt. eigenvalues --    2.14428   2.15290   2.15521   2.15884   2.16195
 Alpha virt. eigenvalues --    2.16461   2.16711   2.16716   2.17258   2.17359
 Alpha virt. eigenvalues --    2.17654   2.17811   2.17983   2.18049   2.18129
 Alpha virt. eigenvalues --    2.18298   2.18767   2.18829   2.19322   2.19598
 Alpha virt. eigenvalues --    2.19908   2.20002   2.20159   2.20335   2.20540
 Alpha virt. eigenvalues --    2.21055   2.21317   2.21633   2.21706   2.21854
 Alpha virt. eigenvalues --    2.21966   2.22625   2.22812   2.23240   2.23456
 Alpha virt. eigenvalues --    2.24342   2.24526   2.24857   2.25135   2.26262
 Alpha virt. eigenvalues --    2.26539   2.26720   2.27064   2.27118   2.27297
 Alpha virt. eigenvalues --    2.28093   2.28423   2.29219   2.29554   2.29697
 Alpha virt. eigenvalues --    2.29981   2.30410   2.30711   2.30905   2.31019
 Alpha virt. eigenvalues --    2.31146   2.31313   2.32061   2.32375   2.33097
 Alpha virt. eigenvalues --    2.33335   2.33394   2.33593   2.34054   2.34271
 Alpha virt. eigenvalues --    2.35328   2.35383   2.35764   2.36011   2.36262
 Alpha virt. eigenvalues --    2.36439   2.36571   2.36592   2.37568   2.37781
 Alpha virt. eigenvalues --    2.38221   2.38506   2.38823   2.38872   2.39570
 Alpha virt. eigenvalues --    2.39768   2.40092   2.40395   2.40444   2.40916
 Alpha virt. eigenvalues --    2.41214   2.41298   2.41600   2.41793   2.42000
 Alpha virt. eigenvalues --    2.42208   2.42855   2.42957   2.43118   2.43502
 Alpha virt. eigenvalues --    2.44087   2.44138   2.44694   2.44853   2.44910
 Alpha virt. eigenvalues --    2.45091   2.45493   2.45665   2.46282   2.46387
 Alpha virt. eigenvalues --    2.46437   2.46587   2.46767   2.46879   2.47186
 Alpha virt. eigenvalues --    2.47477   2.47657   2.48009   2.49254   2.49532
 Alpha virt. eigenvalues --    2.49961   2.49989   2.50477   2.50556   2.51077
 Alpha virt. eigenvalues --    2.51355   2.51709   2.51845   2.52390   2.52474
 Alpha virt. eigenvalues --    2.52763   2.53258   2.53861   2.54084   2.54129
 Alpha virt. eigenvalues --    2.54421   2.54728   2.54906   2.55481   2.55776
 Alpha virt. eigenvalues --    2.57828   2.58191   2.58581   2.59034   2.60169
 Alpha virt. eigenvalues --    2.60375   2.60567   2.61023   2.61664   2.61939
 Alpha virt. eigenvalues --    2.62482   2.62530   2.62901   2.63222   2.63896
 Alpha virt. eigenvalues --    2.64133   2.64312   2.64579   2.65012   2.65212
 Alpha virt. eigenvalues --    2.65747   2.65946   2.66683   2.66856   2.66916
 Alpha virt. eigenvalues --    2.67163   2.67841   2.68089   2.68805   2.68913
 Alpha virt. eigenvalues --    2.68979   2.69103   2.69295   2.69679   2.69920
 Alpha virt. eigenvalues --    2.70230   2.70913   2.71151   2.71974   2.72005
 Alpha virt. eigenvalues --    2.72556   2.72612   2.72790   2.72802   2.73175
 Alpha virt. eigenvalues --    2.73397   2.73497   2.73518   2.74455   2.74587
 Alpha virt. eigenvalues --    2.74926   2.75136   2.76515   2.76613   2.77137
 Alpha virt. eigenvalues --    2.77190   2.77419   2.77704   2.78165   2.78409
 Alpha virt. eigenvalues --    2.78676   2.78790   2.79084   2.79238   2.80317
 Alpha virt. eigenvalues --    2.80362   2.80556   2.80752   2.81080   2.81221
 Alpha virt. eigenvalues --    2.81895   2.82052   2.82276   2.82424   2.83714
 Alpha virt. eigenvalues --    2.83744   2.83937   2.83961   2.84490   2.84609
 Alpha virt. eigenvalues --    2.84805   2.84999   2.85626   2.85787   2.86732
 Alpha virt. eigenvalues --    2.86930   2.87222   2.87564   2.88136   2.88333
 Alpha virt. eigenvalues --    2.88435   2.88673   2.88878   2.88950   2.90424
 Alpha virt. eigenvalues --    2.90733   2.91100   2.91181   2.93112   2.93403
 Alpha virt. eigenvalues --    2.93857   2.94141   2.94493   2.94680   2.95315
 Alpha virt. eigenvalues --    2.95544   2.95875   2.96144   2.96351   2.96448
 Alpha virt. eigenvalues --    2.96918   2.97128   2.97774   2.98131   2.98189
 Alpha virt. eigenvalues --    2.98295   2.98414   2.98554   2.98644   2.98805
 Alpha virt. eigenvalues --    2.98839   2.99004   2.99490   2.99880   3.00004
 Alpha virt. eigenvalues --    3.00068   3.00180   3.00416   3.00417   3.01071
 Alpha virt. eigenvalues --    3.01873   3.01998   3.02016   3.02198   3.02714
 Alpha virt. eigenvalues --    3.02889   3.02923   3.03292   3.03413   3.03777
 Alpha virt. eigenvalues --    3.04052   3.04138   3.04389   3.04455   3.04507
 Alpha virt. eigenvalues --    3.04751   3.05231   3.05472   3.06056   3.06310
 Alpha virt. eigenvalues --    3.06754   3.07046   3.08024   3.08096   3.09355
 Alpha virt. eigenvalues --    3.09489   3.09639   3.10392   3.10486   3.10819
 Alpha virt. eigenvalues --    3.11248   3.11645   3.11902   3.11985   3.12019
 Alpha virt. eigenvalues --    3.12379   3.13240   3.13563   3.13713   3.13783
 Alpha virt. eigenvalues --    3.14062   3.14512   3.15785   3.16063   3.17217
 Alpha virt. eigenvalues --    3.17580   3.17983   3.18040   3.19084   3.19116
 Alpha virt. eigenvalues --    3.22276   3.22638   3.23906   3.24498   3.24642
 Alpha virt. eigenvalues --    3.25239   3.26457   3.26727   3.27470   3.27573
 Alpha virt. eigenvalues --    3.29073   3.29256   3.31452   3.31483   3.33265
 Alpha virt. eigenvalues --    3.33371   3.40285   3.40607   3.42792   3.42915
 Alpha virt. eigenvalues --    3.48622   3.48755   3.49974   3.50360   3.50917
 Alpha virt. eigenvalues --    3.51432   3.56507   3.57090   3.59039   3.59434
 Alpha virt. eigenvalues --    3.62583   3.62798   3.66169   3.66227   3.67161
 Alpha virt. eigenvalues --    3.67573   3.73246   3.74051   3.76030   3.76710
          Condensed to atoms (all electrons):
 Mulliken charges:
               1
     1  Mg   0.838642
     2  C   -0.002783
     3  C   -0.093798
     4  C   -0.046156
     5  C   -0.064315
     6  N   -0.256737
     7  C   -0.052547
     8  C   -0.013977
     9  C   -0.087052
    10  C    0.046297
    11  C    0.104738
    12  C    0.053447
    13  C   -0.071703
    14  H    0.035589
    15  N   -0.433228
    16  C    0.168484
    17  C   -0.176695
    18  C   -0.003736
    19  C    0.148685
    20  C    0.110032
    21  C    0.012371
    22  O   -0.250005
    23  C    0.062302
    24  N   -0.340996
    25  C    0.041155
    26  C   -0.028191
    27  C   -0.023749
    28  C    0.074383
    29  C    0.076116
    30  C    0.035395
    31  C   -0.004399
    32  N   -0.310432
    33  C    0.080159
    34  C   -0.169998
    35  C    0.008549
    36  C    0.082846
    37  C    0.127356
    38  C    0.046230
    39  O   -0.188164
    40  C   -0.005404
    41  C    0.213015
    42  O   -0.257070
    43  O   -0.304778
    44  C    0.157585
    45  H   -0.017206
    46  H   -0.017001
    47  H   -0.042052
    48  H    0.001089
    49  H   -0.003829
    50  H    0.025550
    51  H    0.016494
    52  H    0.016928
    53  H    0.011189
    54  H    0.043914
    55  H    0.018143
    56  H    0.018099
    57  H    0.005970
    58  H    0.027146
    59  H    0.040574
    60  H    0.037433
    61  H    0.036298
    62  H    0.032573
    63  H    0.015823
    64  H    0.009645
    65  H    0.023105
    66  H    0.013043
    67  H    0.004817
    68  H    0.005993
    69  H    0.004568
    70  H    0.008156
    71  H    0.015487
    72  H    0.029903
    73  H    0.047576
    74  H    0.008426
    75  H    0.046154
    76  H    0.035292
    77  H    0.043233
    78  H    0.046235
    79  H    0.053777
    80  Mg   0.838054
    81  C   -0.017044
    82  C   -0.087798
    83  C   -0.044221
    84  C   -0.064974
    85  N   -0.254649
    86  C   -0.049986
    87  C   -0.015124
    88  C   -0.090594
    89  C    0.046067
    90  C    0.114278
    91  C    0.062584
    92  C   -0.077727
    93  H    0.034343
    94  N   -0.423778
    95  C    0.163448
    96  C   -0.174051
    97  C   -0.006899
    98  C    0.152285
    99  C    0.099154
   100  C    0.016172
   101  O   -0.252246
   102  C    0.061140
   103  N   -0.349984
   104  C    0.038279
   105  C   -0.020365
   106  C   -0.034238
   107  C    0.088866
   108  C    0.072764
   109  C    0.034791
   110  C   -0.007540
   111  N   -0.323895
   112  C    0.078224
   113  C   -0.163859
   114  C    0.001776
   115  C    0.096030
   116  C    0.131648
   117  C    0.041704
   118  O   -0.189109
   119  C    0.001100
   120  C    0.211078
   121  O   -0.251225
   122  O   -0.305496
   123  C    0.152213
   124  H   -0.019893
   125  H   -0.014427
   126  H   -0.041361
   127  H   -0.000472
   128  H   -0.004807
   129  H    0.023240
   130  H    0.014945
   131  H    0.015903
   132  H    0.013743
   133  H    0.037472
   134  H    0.020975
   135  H    0.019345
   136  H    0.008301
   137  H    0.026928
   138  H    0.039535
   139  H    0.038748
   140  H    0.036532
   141  H    0.033247
   142  H    0.013933
   143  H    0.011980
   144  H    0.025083
   145  H    0.016365
   146  H    0.005885
   147  H    0.006057
   148  H    0.002715
   149  H    0.011051
   150  H    0.017242
   151  H    0.030093
   152  H    0.045479
   153  H    0.008116
   154  H    0.045452
   155  H    0.034964
   156  H    0.043592
   157  H    0.049553
   158  H    0.053286
 Sum of Mulliken charges =  -0.00000
 Mulliken charges with hydrogens summed into heavy atoms:
               1
     1  Mg   0.838642
     2  C   -0.002783
     3  C   -0.111003
     4  C   -0.063157
     5  C   -0.106367
     6  N   -0.256737
     7  C   -0.052547
     8  C   -0.012888
     9  C   -0.090881
    10  C    0.046297
    11  C    0.163711
    12  C    0.108550
    13  C    0.000128
    15  N   -0.433228
    16  C    0.168484
    17  C   -0.176695
    18  C   -0.003736
    19  C    0.148685
    20  C    0.183720
    21  C    0.012371
    22  O   -0.250005
    23  C    0.168606
    24  N   -0.340996
    25  C    0.041155
    26  C   -0.012368
    27  C   -0.014104
    28  C    0.074383
    29  C    0.117080
    30  C    0.045956
    31  C    0.049146
    32  N   -0.310432
    33  C    0.080159
    34  C   -0.169998
    35  C    0.008549
    36  C    0.082846
    37  C    0.229512
    38  C    0.046230
    39  O   -0.188164
    40  C    0.029889
    41  C    0.213015
    42  O   -0.257070
    43  O   -0.304778
    44  C    0.300830
    80  Mg   0.838054
    81  C   -0.017044
    82  C   -0.107691
    83  C   -0.058648
    84  C   -0.106335
    85  N   -0.254649
    86  C   -0.049986
    87  C   -0.015596
    88  C   -0.095401
    89  C    0.046067
    90  C    0.168366
    91  C    0.113799
    92  C   -0.003064
    94  N   -0.423778
    95  C    0.163448
    96  C   -0.174051
    97  C   -0.006899
    98  C    0.152285
    99  C    0.173919
   100  C    0.016172
   101  O   -0.252246
   102  C    0.169667
   103  N   -0.349984
   104  C    0.038279
   105  C   -0.006431
   106  C   -0.022257
   107  C    0.088866
   108  C    0.120097
   109  C    0.043563
   110  C    0.050846
   111  N   -0.323895
   112  C    0.078224
   113  C   -0.163859
   114  C    0.001776
   115  C    0.096030
   116  C    0.230694
   117  C    0.041704
   118  O   -0.189109
   119  C    0.036064
   120  C    0.211078
   121  O   -0.251225
   122  O   -0.305496
   123  C    0.298644
 Electronic spatial extent (au):  <R**2>=         115964.7191
 Charge=             -0.0000 electrons
 Dipole moment (field-independent basis, Debye):
    X=             -3.6963    Y=             -2.2451    Z=              0.4218  Tot=              4.3452
 Quadrupole moment (field-independent basis, Debye-Ang):
   XX=           -524.9638   YY=           -543.7176   ZZ=           -451.2227
   XY=             20.0643   XZ=             55.7022   YZ=            -38.4432
 Traceless Quadrupole moment (field-independent basis, Debye-Ang):
   XX=            -18.3291   YY=            -37.0829   ZZ=             55.4120
   XY=             20.0643   XZ=             55.7022   YZ=            -38.4432
 Octapole moment (field-independent basis, Debye-Ang**2):
  XXX=           -337.1581  YYY=            -61.0236  ZZZ=            108.0133  XYY=            110.0541
  XXY=            -93.7779  XXZ=             56.7616  XZZ=           -116.1188  YZZ=             43.6927
  YYZ=           -161.3845  XYZ=            -63.5021
 Hexadecapole moment (field-independent basis, Debye-Ang**3):
 XXXX=         -94019.9566 YYYY=         -41820.2821 ZZZZ=         -24362.9532 XXXY=            244.4516
 XXXZ=           2695.0118 YYYX=          -2011.0804 YYYZ=          -1058.3282 ZZZX=            580.5412
 ZZZY=            136.6829 XXYY=         -22034.5994 XXZZ=         -18495.7610 YYZZ=         -10439.7049
 XXYZ=          -1377.0972 YYXZ=            938.2770 ZZXY=           1123.9208
 N-N= 1.492846713106D+04 E-N=-3.933799570688D+04  KE= 4.028801642001D+03
 Leave Link  601 at Sat Sep  4 02:52:23 2021, MaxMem= 23488102400 cpu:              16.0 elap:               0.8
 (Enter /sw/apps/gaussian-16.0/g16/l9999.exe)
 1\1\GINC-BP1-COMPUTE00098\SP\RCAM-B3LYP TD-FC\def2SVP\C68H72Mg2N8O8\OF
 15641\04-Sep-2021\0\\#p cam-b3lyp/Def2SVP td=(nstates=5)\\TDDFT excite
 d states in gaussian\\0,1\Mg,0,0.,0.,0.\C,0,-0.217,-2.218,2.801\C,0,-1
 .255,2.442,2.026\C,0,-0.245,1.85,-2.564\C,0,0.146,-2.824,-2.037\N,0,-0
 .617,-0.009,2.126\C,0,-0.594,-0.908,3.105\C,0,-0.936,-0.309,4.502\C,0,
 -1.773,0.964,4.032\C,0,-1.155,1.168,2.66\C,0,-3.263,0.685,3.863\C,0,0.
 345,0.11,5.299\C,0,0.124,0.397,6.787\H,0,1.168,0.033,7.733\N,0,-0.185,
 1.961,-0.152\C,0,-0.703,2.8,0.777\C,0,-0.62,4.156,0.193\C,0,-0.187,4.0
 15,-1.225\C,0,-0.214,2.583,-1.38\C,0,-0.887,5.406,0.974\C,0,0.181,5.01
 3,-2.277\O,0,0.303,4.69,-3.508\C,0,0.31,6.414,-1.837\N,0,-0.265,-0.413
 ,-2.029\C,0,-0.279,0.569,-2.937\C,0,-0.196,0.024,-4.332\C,0,0.124,-1.5
 33,-4.18\C,0,0.086,-1.632,-2.635\C,0,-1.451,0.205,-5.197\C,0,1.373,-2.
 07,-4.923\C,0,2.626,-1.49,-4.306\N,0,0.15,-2.144,0.303\C,0,0.173,-3.13
 6,-0.688\C,0,0.173,-4.438,0.004\C,0,0.133,-4.111,1.358\C,0,0.083,-2.69
 5,1.502\C,0,0.149,-5.715,-0.623\C,0,0.096,-4.629,2.716\O,0,0.208,-5.74
 7,3.221\C,0,-0.255,-3.428,3.701\C,0,0.717,-3.482,4.848\O,0,1.931,-3.25
 5,4.669\O,0,0.038,-3.556,6.003\C,0,0.943,-3.583,7.183\H,0,-1.859,3.22,
 2.497\H,0,-0.218,2.453,-3.474\H,0,0.276,-3.747,-2.605\H,0,-1.554,-0.94
 9,5.132\H,0,-1.585,1.831,4.665\H,0,-3.484,-0.377,3.969\H,0,-3.511,1.02
 7,2.858\H,0,-3.852,1.301,4.543\H,0,0.669,1.096,4.966\H,0,1.13,-0.639,5
 .189\H,0,-0.844,0.026,7.125\H,0,0.062,1.477,6.921\H,0,-1.344,5.186,1.9
 38\H,0,-1.651,5.963,0.432\H,0,0.007,6.02,1.084\H,0,-0.635,6.744,-1.405
 \H,0,0.665,6.97,-2.704\H,0,1.048,6.466,-1.036\H,0,0.608,0.501,-4.891\H
 ,0,-0.692,-2.156,-4.547\H,0,-1.267,0.74,-6.129\H,0,-2.204,0.714,-4.596
 \H,0,-1.967,-0.72,-5.453\H,0,1.356,-1.759,-5.967\H,0,1.452,-3.157,-4.9
 02\H,0,2.714,-0.522,-4.798\H,0,3.487,-2.121,-4.529\H,0,2.495,-1.303,-3
 .24\H,0,0.867,-6.333,-0.084\H,0,0.404,-5.642,-1.68\H,0,-0.891,-5.999,-
 0.463\H,0,-1.283,-3.581,4.028\H,0,0.698,-4.478,7.755\H,0,0.833,-2.619,
 7.68\H,0,2.,-3.754,6.976\Mg,0,10.51878,0.9451,0.79151\C,0,10.18594,3.9
 5782,-1.1299\C,0,10.01116,-0.78163,-2.10596\C,0,10.35772,-1.71128,2.51
 925\C,0,9.86214,2.85064,3.63465\N,0,10.15739,1.6139,-1.2856\C,0,10.113
 31,2.78286,-1.90683\C,0,10.06484,2.68685,-3.45538\C,0,9.44249,1.21219,
 -3.58551\C,0,9.92602,0.62507,-2.26106\C,0,7.9229,1.19832,-3.58768\C,0,
 11.49121,2.76765,-4.1042\C,0,11.49735,2.99086,-5.6181\H,0,12.55623,3.8
 1382,-6.19602\N,0,10.71471,-0.95375,0.24879\C,0,10.4895,-1.47788,-0.97
 426\C,0,10.75545,-2.91936,-0.84942\C,0,10.99631,-3.22932,0.58607\C,0,1
 0.6713,-1.95252,1.18958\C,0,10.84171,-3.83652,-2.03466\C,0,11.43298,-4
 .47316,1.29907\O,0,11.34712,-4.58433,2.57308\C,0,11.87656,-5.59164,0.4
 5425\N,0,9.95444,0.57407,2.75777\C,0,10.02687,-0.66462,3.27579\C,0,9.8
 3613,-0.6415,4.77361\C,0,9.86146,0.90341,5.18614\C,0,9.97826,1.53813,3
 .78297\C,0,8.54955,-1.28495,5.29039\C,0,10.88573,1.3243,6.27536\C,0,12
 .29334,1.18188,5.74272\N,0,10.28039,3.04623,1.23477\C,0,9.98437,3.6253
 2,2.48821\C,0,9.80602,5.07502,2.26682\C,0,9.98942,5.23669,0.88525\C,0,
 10.24279,3.97388,0.28476\C,0,9.4677,6.03332,3.26346\C,0,10.01577,6.187
 03,-0.20326\O,0,9.95408,7.41291,-0.28785\C,0,10.01894,5.3842,-1.57506\
 C,0,11.08704,5.97304,-2.45538\O,0,12.28651,5.88484,-2.139\O,0,10.53696
 ,6.34865,-3.62444\C,0,11.55907,6.92876,-4.53581\H,0,9.63746,-1.41584,-
 2.91033\H,0,10.39803,-2.58144,3.17855\H,0,9.75234,3.52679,4.48521\H,0,
 9.41459,3.40851,-3.93512\H,0,9.87697,0.67259,-4.42302\H,0,7.51079,2.17
 501,-3.38183\H,0,7.63404,0.49569,-2.81702\H,0,7.55106,0.78312,-4.52878
 \H,0,11.96204,1.77722,-4.05839\H,0,12.08542,3.52149,-3.62538\H,0,10.51
 64,3.30859,-5.99189\H,0,11.67342,2.03097,-6.10967\H,0,10.45665,-3.3571
 2,-2.94312\H,0,10.14849,-4.66421,-1.84962\H,0,11.84509,-4.24197,-2.181
 35\H,0,11.07244,-5.87562,-0.22045\H,0,12.23305,-6.35709,1.14626\H,0,12
 .70707,-5.24853,-0.17276\H,0,10.64899,-1.15245,5.2749\H,0,8.89618,1.23
 06,5.59968\H,0,8.72999,-2.09471,6.02237\H,0,7.98936,-1.65654,4.44265\H
 ,0,7.84226,-0.59757,5.75131\H,0,10.81265,0.66076,7.14054\H,0,10.74268,
 2.33813,6.63408\H,0,12.50952,0.12055,5.89739\H,0,12.981,1.81072,6.3046
 1\H,0,12.32681,1.37124,4.66352\H,0,10.09898,6.89536,3.09354\H,0,9.6044
 6,5.63064,4.26491\H,0,8.41279,6.19638,3.02712\H,0,9.02568,5.48288,-2.0
 1469\H,0,11.20527,7.9246,-4.82008\H,0,11.6889,6.18938,-5.34835\H,0,12.
 53068,7.16139,-4.11594\\Version=ES64L-G16RevA.03\State=1-A\HF=-4069.81
 17265\RMSD=7.475e-09\PG=C01 [X(C68H72Mg2N8O8)]\\@


 WISDOM IS KNOWING WHAT TO DO,
 SKILL IS KNOWING HOW TO DO IT,
 AND VIRTUE IS NOT DOING IT.
 Job cpu time:       0 days 13 hours 48 minutes 34.0 seconds.
 Elapsed time:       0 days  0 hours 35 minutes 10.9 seconds.
 File lengths (MBytes):  RWF=  13225 Int=      0 D2E=      0 Chk=    574 Scr=      1
 Normal termination of Gaussian 16 at Sat Sep  4 02:52:24 2021.
