 Entering Gaussian System, Link 0=g16
 Initial command:
 /sw/apps/gaussian-16.0/g16/l1.exe "/tmp/Gau-266546.inp" -scrdir="/tmp/"
 Entering Link 1 = /sw/apps/gaussian-16.0/g16/l1.exe PID=    266547.
  
 Copyright (c) 1988,1990,1992,1993,1995,1998,2003,2009,2016,
            Gaussian, Inc.  All Rights Reserved.
  
 This is part of the Gaussian(R) 16 program.  It is based on
 the Gaussian(R) 09 system (copyright 2009, Gaussian, Inc.),
 the Gaussian(R) 03 system (copyright 2003, Gaussian, Inc.),
 the Gaussian(R) 98 system (copyright 1998, Gaussian, Inc.),
 the Gaussian(R) 94 system (copyright 1995, Gaussian, Inc.),
 the Gaussian 92(TM) system (copyright 1992, Gaussian, Inc.),
 the Gaussian 90(TM) system (copyright 1990, Gaussian, Inc.),
 the Gaussian 88(TM) system (copyright 1988, Gaussian, Inc.),
 the Gaussian 86(TM) system (copyright 1986, Carnegie Mellon
 University), and the Gaussian 82(TM) system (copyright 1983,
 Carnegie Mellon University). Gaussian is a federally registered
 trademark of Gaussian, Inc.
  
 This software contains proprietary and confidential information,
 including trade secrets, belonging to Gaussian, Inc.
  
 This software is provided under written license and may be
 used, copied, transmitted, or stored only in accord with that
 written license.
  
 The following legend is applicable only to US Government
 contracts under FAR:
  
                    RESTRICTED RIGHTS LEGEND
  
 Use, reproduction and disclosure by the US Government is
 subject to restrictions as set forth in subparagraphs (a)
 and (c) of the Commercial Computer Software - Restricted
 Rights clause in FAR 52.227-19.
  
 Gaussian, Inc.
 340 Quinnipiac St., Bldg. 40, Wallingford CT 06492
  
  
 ---------------------------------------------------------------
 Warning -- This program may not be used in any manner that
 competes with the business of Gaussian, Inc. or will provide
 assistance to any competitor of Gaussian, Inc.  The licensee
 of this program is prohibited from giving any competitor of
 Gaussian, Inc. access to this program.  By using this program,
 the user acknowledges that Gaussian, Inc. is engaged in the
 business of creating and licensing software in the field of
 computational chemistry and represents and warrants to the
 licensee that it is not a competitor of Gaussian, Inc. and that
 it will not use this program in any manner prohibited above.
 ---------------------------------------------------------------
  

 Cite this work as:
 Gaussian 16, Revision A.03,
 M. J. Frisch, G. W. Trucks, H. B. Schlegel, G. E. Scuseria, 
 M. A. Robb, J. R. Cheeseman, G. Scalmani, V. Barone, 
 G. A. Petersson, H. Nakatsuji, X. Li, M. Caricato, A. V. Marenich, 
 J. Bloino, B. G. Janesko, R. Gomperts, B. Mennucci, H. P. Hratchian, 
 J. V. Ortiz, A. F. Izmaylov, J. L. Sonnenberg, D. Williams-Young, 
 F. Ding, F. Lipparini, F. Egidi, J. Goings, B. Peng, A. Petrone, 
 T. Henderson, D. Ranasinghe, V. G. Zakrzewski, J. Gao, N. Rega, 
 G. Zheng, W. Liang, M. Hada, M. Ehara, K. Toyota, R. Fukuda, 
 J. Hasegawa, M. Ishida, T. Nakajima, Y. Honda, O. Kitao, H. Nakai, 
 T. Vreven, K. Throssell, J. A. Montgomery, Jr., J. E. Peralta, 
 F. Ogliaro, M. J. Bearpark, J. J. Heyd, E. N. Brothers, K. N. Kudin, 
 V. N. Staroverov, T. A. Keith, R. Kobayashi, J. Normand, 
 K. Raghavachari, A. P. Rendell, J. C. Burant, S. S. Iyengar, 
 J. Tomasi, M. Cossi, J. M. Millam, M. Klene, C. Adamo, R. Cammi, 
 J. W. Ochterski, R. L. Martin, K. Morokuma, O. Farkas, 
 J. B. Foresman, and D. J. Fox, Gaussian, Inc., Wallingford CT, 2016.
 
 ******************************************
 Gaussian 16:  ES64L-G16RevA.03 25-Dec-2016
                 4-Sep-2021 
 ******************************************
 %nproc=24
 Will use up to   24 processors via shared memory.
 %mem=175gb
 -----------------------------------
 #p cam-b3lyp/Def2SVP td=(nstates=5)
 -----------------------------------
 1/38=1,172=1/1;
 2/12=2,17=6,18=5,40=1/2;
 3/5=43,7=101,11=9,25=1,30=1,74=-40/1,2,3,8;
 4//1;
 5/5=2,38=5/2;
 8/6=1,10=1,108=5/1;
 9/41=5,42=1,70=2/14;
 6/7=2,8=2,9=2,10=2/1;
 99/5=1,9=1/99;
 Leave Link    1 at Sat Sep  4 05:31:36 2021, MaxMem= 23488102400 cpu:               0.9 elap:               0.0
 (Enter /sw/apps/gaussian-16.0/g16/l101.exe)
 --------------------------------
 TDDFT excited states in gaussian
 --------------------------------
 Symbolic Z-matrix:
 Charge =  0 Multiplicity = 1
 Mg                    0.        0.        0. 
 C                    -0.217    -2.218     2.801 
 C                    -1.255     2.442     2.026 
 C                    -0.245     1.85     -2.564 
 C                     0.146    -2.824    -2.037 
 N                    -0.617    -0.009     2.126 
 C                    -0.594    -0.908     3.105 
 C                    -0.936    -0.309     4.502 
 C                    -1.773     0.964     4.032 
 C                    -1.155     1.168     2.66 
 C                    -3.263     0.685     3.863 
 C                     0.345     0.11      5.299 
 C                     0.124     0.397     6.787 
 H                     1.168     0.033     7.733 
 N                    -0.185     1.961    -0.152 
 C                    -0.703     2.8       0.777 
 C                    -0.62      4.156     0.193 
 C                    -0.187     4.015    -1.225 
 C                    -0.214     2.583    -1.38 
 C                    -0.887     5.406     0.974 
 C                     0.181     5.013    -2.277 
 O                     0.303     4.69     -3.508 
 C                     0.31      6.414    -1.837 
 N                    -0.265    -0.413    -2.029 
 C                    -0.279     0.569    -2.937 
 C                    -0.196     0.024    -4.332 
 C                     0.124    -1.533    -4.18 
 C                     0.086    -1.632    -2.635 
 C                    -1.451     0.205    -5.197 
 C                     1.373    -2.07     -4.923 
 C                     2.626    -1.49     -4.306 
 N                     0.15     -2.144     0.303 
 C                     0.173    -3.136    -0.688 
 C                     0.173    -4.438     0.004 
 C                     0.133    -4.111     1.358 
 C                     0.083    -2.695     1.502 
 C                     0.149    -5.715    -0.623 
 C                     0.096    -4.629     2.716 
 O                     0.208    -5.747     3.221 
 C                    -0.255    -3.428     3.701 
 C                     0.717    -3.482     4.848 
 O                     1.931    -3.255     4.669 
 O                     0.038    -3.556     6.003 
 C                     0.943    -3.583     7.183 
 H                    -1.859     3.22      2.497 
 H                    -0.218     2.453    -3.474 
 H                     0.276    -3.747    -2.605 
 H                    -1.554    -0.949     5.132 
 H                    -1.585     1.831     4.665 
 H                    -3.484    -0.377     3.969 
 H                    -3.511     1.027     2.858 
 H                    -3.852     1.301     4.543 
 H                     0.669     1.096     4.966 
 H                     1.13     -0.639     5.189 
 H                    -0.844     0.026     7.125 
 H                     0.062     1.477     6.921 
 H                    -1.344     5.186     1.938 
 H                    -1.651     5.963     0.432 
 H                     0.007     6.02      1.084 
 H                    -0.635     6.744    -1.405 
 H                     0.665     6.97     -2.704 
 H                     1.048     6.466    -1.036 
 H                     0.608     0.501    -4.891 
 H                    -0.692    -2.156    -4.547 
 H                    -1.267     0.74     -6.129 
 H                    -2.204     0.714    -4.596 
 H                    -1.967    -0.72     -5.453 
 H                     1.356    -1.759    -5.967 
 H                     1.452    -3.157    -4.902 
 H                     2.714    -0.522    -4.798 
 H                     3.487    -2.121    -4.529 
 H                     2.495    -1.303    -3.24 
 H                     0.867    -6.333    -0.084 
 H                     0.404    -5.642    -1.68 
 H                    -0.891    -5.999    -0.463 
 H                    -1.283    -3.581     4.028 
 H                     0.698    -4.478     7.755 
 H                     0.833    -2.619     7.68 
 H                     2.       -3.754     6.976 
 Mg                    10.5177   0.94462   0.80637 
 C                     10.62788  -2.64179   0.87378 
 C                     9.40091   0.82195   4.02698 
 C                     9.98069   4.06704   0.63431 
 C                     10.53118   0.74118  -2.67273 
 N                     10.108   -0.75054   2.16681 
 C                     10.24525  -2.0664    2.1034 
 C                     10.034   -2.80096   3.45445 
 C                     9.1149   -1.70421   4.18332 
 C                     9.59006  -0.45589   3.44265 
 C                     7.63092  -1.88546   3.91074 
 C                     11.38004  -3.02818   4.22813 
 C                     11.29029  -4.00688   5.40109 
 H                     12.43599  -4.86916   5.67734 
 N                     10.27116   2.28667   2.24745 
 C                     9.8308    2.06089   3.50299 
 C                     9.80796   3.37506   4.16374 
 C                     10.11345   4.4171    3.14613 
 C                     10.11312   3.61501   1.93918 
 C                     9.59462   3.53973   5.64049 
 C                     10.35211   5.89362   3.24173 
 O                     10.36463   6.64242   2.20154 
 C                     10.47774   6.45106   4.59634 
 N                     10.07552   2.21395  -0.77971 
 C                     9.94208   3.53823  -0.58888 
 C                     9.90061   4.27755  -1.90496 
 C                     10.27853   3.1938   -3.01863 
 C                     10.39078   1.93998  -2.1238 
 C                     8.56385   4.92776  -2.26088 
 C                     11.4641   3.53755  -3.96146 
 C                     12.75722   3.5569   -3.17862 
 N                     10.75479  -0.62531  -0.65895 
 C                     10.70119  -0.49577  -2.0641 
 C                     10.80208  -1.85628  -2.6309 
 C                     10.88488  -2.69157  -1.50665 
 C                     10.81851  -1.90873  -0.32248 
 C                     10.76056  -2.18604  -4.01497 
 C                     11.00264  -4.05845  -1.05226 
 O                     11.18438  -5.14402  -1.60202 
 C                     10.71421  -4.09817   0.5103 
 C                     11.79299  -4.91995   1.16102 
 O                     12.97351  -4.52881   1.15887 
 O                     11.22438  -5.91712   1.86294 
 C                     12.25367  -6.75357   2.5358 
 H                     8.83247   0.88908   4.95501 
 H                     9.9042    5.15039   0.51608 
 H                     10.64126   0.60181  -3.75029 
 H                     9.50256  -3.74226   3.38149 
 H                     9.35028  -1.63217   5.24199 
 H                     7.44748  -2.65337   3.17398 
 H                     7.27814  -0.92671   3.55383 
 H                     7.09616  -2.07424   4.846 
 H                     11.64139  -2.10974   4.76934 
 H                     12.15739  -3.33848   3.55726 
 H                     10.36414  -4.59397   5.37812 
 H                     11.22046  -3.43229   6.3279 
 H                     9.23227   2.61209   6.10048 
 H                     8.76765   4.2468    5.76722 
 H                     10.47619   3.93156   6.15232 
 H                     9.57328   6.23634   5.16052 
 H                     10.73376   7.50314   4.45681 
 H                     11.29855   5.93888   5.11069 
 H                     10.63546   5.07297  -1.92501 
 H                     9.44303   3.01225  -3.71059 
 H                     8.64301   6.01587  -2.44481 
 H                     7.86313   4.72726  -1.46131 
 H                     8.05758   4.49985  -3.12447 
 H                     11.3384   4.53999  -4.37796 
 H                     11.5647   2.85219  -4.79642 
 H                     12.7661   4.55988  -2.74153 
 H                     13.60793   3.4072   -3.84039 
 H                     12.72775   2.83739  -2.35213 
 H                     11.53557  -2.92197  -4.18307 
 H                     10.90522  -1.30581  -4.63791 
 H                     9.74365  -2.5802   -4.09114 
 H                     9.7253   -4.53653   0.64986 
 H                     12.08523  -7.78643   2.21565 
 H                     12.15377  -6.53848   3.61632 
 H                     13.28714  -6.6076    2.24412 
 
 ITRead=  0  0  0  0  0  0  0  0  0  0  0  0  0  0  0  0  0  0  0  0
 ITRead=  0  0  0  0  0  0  0  0  0  0  0  0  0  0  0  0  0  0  0  0
 ITRead=  0  0  0  0  0  0  0  0  0  0  0  0  0  0  0  0  0  0  0  0
 ITRead=  0  0  0  0  0  0  0  0  0  0  0  0  0  0  0  0  0  0  0  0
 ITRead=  0  0  0  0  0  0  0  0  0  0  0  0  0  0  0  0  0  0  0  0
 ITRead=  0  0  0  0  0  0  0  0  0  0  0  0  0  0  0  0  0  0  0  0
 ITRead=  0  0  0  0  0  0  0  0  0  0  0  0  0  0  0  0  0  0  0  0
 ITRead=  0  0  0  0  0  0  0  0  0  0  0  0  0  0  0  0  0  0
 MicOpt= -1 -1 -1 -1 -1 -1 -1 -1 -1 -1 -1 -1 -1 -1 -1 -1 -1 -1 -1 -1
 MicOpt= -1 -1 -1 -1 -1 -1 -1 -1 -1 -1 -1 -1 -1 -1 -1 -1 -1 -1 -1 -1
 MicOpt= -1 -1 -1 -1 -1 -1 -1 -1 -1 -1 -1 -1 -1 -1 -1 -1 -1 -1 -1 -1
 MicOpt= -1 -1 -1 -1 -1 -1 -1 -1 -1 -1 -1 -1 -1 -1 -1 -1 -1 -1 -1 -1
 MicOpt= -1 -1 -1 -1 -1 -1 -1 -1 -1 -1 -1 -1 -1 -1 -1 -1 -1 -1 -1 -1
 MicOpt= -1 -1 -1 -1 -1 -1 -1 -1 -1 -1 -1 -1 -1 -1 -1 -1 -1 -1 -1 -1
 MicOpt= -1 -1 -1 -1 -1 -1 -1 -1 -1 -1 -1 -1 -1 -1 -1 -1 -1 -1 -1 -1
 MicOpt= -1 -1 -1 -1 -1 -1 -1 -1 -1 -1 -1 -1 -1 -1 -1 -1 -1 -1
 NAtoms=    158 NQM=      158 NQMF=       0 NMMI=      0 NMMIF=      0
                NMic=       0 NMicF=      0.
                    Isotopes and Nuclear Properties:
 (Nuclear quadrupole moments (NQMom) in fm**2, nuclear magnetic moments (NMagM)
  in nuclear magnetons)

  Atom         1           2           3           4           5           6           7           8           9          10
 IAtWgt=          24          12          12          12          12          14          12          12          12          12
 AtmWgt=  23.9850450  12.0000000  12.0000000  12.0000000  12.0000000  14.0030740  12.0000000  12.0000000  12.0000000  12.0000000
 NucSpn=           0           0           0           0           0           2           0           0           0           0
 AtZEff=  -0.0000000  -0.0000000  -0.0000000  -0.0000000  -0.0000000  -0.0000000  -0.0000000  -0.0000000  -0.0000000  -0.0000000
 NQMom=    0.0000000   0.0000000   0.0000000   0.0000000   0.0000000   2.0440000   0.0000000   0.0000000   0.0000000   0.0000000
 NMagM=    0.0000000   0.0000000   0.0000000   0.0000000   0.0000000   0.4037610   0.0000000   0.0000000   0.0000000   0.0000000
 AtZNuc=  12.0000000   6.0000000   6.0000000   6.0000000   6.0000000   7.0000000   6.0000000   6.0000000   6.0000000   6.0000000

  Atom        11          12          13          14          15          16          17          18          19          20
 IAtWgt=          12          12          12           1          14          12          12          12          12          12
 AtmWgt=  12.0000000  12.0000000  12.0000000   1.0078250  14.0030740  12.0000000  12.0000000  12.0000000  12.0000000  12.0000000
 NucSpn=           0           0           0           1           2           0           0           0           0           0
 AtZEff=  -0.0000000  -0.0000000  -0.0000000  -0.0000000  -0.0000000  -0.0000000  -0.0000000  -0.0000000  -0.0000000  -0.0000000
 NQMom=    0.0000000   0.0000000   0.0000000   0.0000000   2.0440000   0.0000000   0.0000000   0.0000000   0.0000000   0.0000000
 NMagM=    0.0000000   0.0000000   0.0000000   2.7928460   0.4037610   0.0000000   0.0000000   0.0000000   0.0000000   0.0000000
 AtZNuc=   6.0000000   6.0000000   6.0000000   1.0000000   7.0000000   6.0000000   6.0000000   6.0000000   6.0000000   6.0000000

  Atom        21          22          23          24          25          26          27          28          29          30
 IAtWgt=          12          16          12          14          12          12          12          12          12          12
 AtmWgt=  12.0000000  15.9949146  12.0000000  14.0030740  12.0000000  12.0000000  12.0000000  12.0000000  12.0000000  12.0000000
 NucSpn=           0           0           0           2           0           0           0           0           0           0
 AtZEff=  -0.0000000  -0.0000000  -0.0000000  -0.0000000  -0.0000000  -0.0000000  -0.0000000  -0.0000000  -0.0000000  -0.0000000
 NQMom=    0.0000000   0.0000000   0.0000000   2.0440000   0.0000000   0.0000000   0.0000000   0.0000000   0.0000000   0.0000000
 NMagM=    0.0000000   0.0000000   0.0000000   0.4037610   0.0000000   0.0000000   0.0000000   0.0000000   0.0000000   0.0000000
 AtZNuc=   6.0000000   8.0000000   6.0000000   7.0000000   6.0000000   6.0000000   6.0000000   6.0000000   6.0000000   6.0000000

  Atom        31          32          33          34          35          36          37          38          39          40
 IAtWgt=          12          14          12          12          12          12          12          12          16          12
 AtmWgt=  12.0000000  14.0030740  12.0000000  12.0000000  12.0000000  12.0000000  12.0000000  12.0000000  15.9949146  12.0000000
 NucSpn=           0           2           0           0           0           0           0           0           0           0
 AtZEff=  -0.0000000  -0.0000000  -0.0000000  -0.0000000  -0.0000000  -0.0000000  -0.0000000  -0.0000000  -0.0000000  -0.0000000
 NQMom=    0.0000000   2.0440000   0.0000000   0.0000000   0.0000000   0.0000000   0.0000000   0.0000000   0.0000000   0.0000000
 NMagM=    0.0000000   0.4037610   0.0000000   0.0000000   0.0000000   0.0000000   0.0000000   0.0000000   0.0000000   0.0000000
 AtZNuc=   6.0000000   7.0000000   6.0000000   6.0000000   6.0000000   6.0000000   6.0000000   6.0000000   8.0000000   6.0000000

  Atom        41          42          43          44          45          46          47          48          49          50
 IAtWgt=          12          16          16          12           1           1           1           1           1           1
 AtmWgt=  12.0000000  15.9949146  15.9949146  12.0000000   1.0078250   1.0078250   1.0078250   1.0078250   1.0078250   1.0078250
 NucSpn=           0           0           0           0           1           1           1           1           1           1
 AtZEff=  -0.0000000  -0.0000000  -0.0000000  -0.0000000  -0.0000000  -0.0000000  -0.0000000  -0.0000000  -0.0000000  -0.0000000
 NQMom=    0.0000000   0.0000000   0.0000000   0.0000000   0.0000000   0.0000000   0.0000000   0.0000000   0.0000000   0.0000000
 NMagM=    0.0000000   0.0000000   0.0000000   0.0000000   2.7928460   2.7928460   2.7928460   2.7928460   2.7928460   2.7928460
 AtZNuc=   6.0000000   8.0000000   8.0000000   6.0000000   1.0000000   1.0000000   1.0000000   1.0000000   1.0000000   1.0000000

  Atom        51          52          53          54          55          56          57          58          59          60
 IAtWgt=           1           1           1           1           1           1           1           1           1           1
 AtmWgt=   1.0078250   1.0078250   1.0078250   1.0078250   1.0078250   1.0078250   1.0078250   1.0078250   1.0078250   1.0078250
 NucSpn=           1           1           1           1           1           1           1           1           1           1
 AtZEff=  -0.0000000  -0.0000000  -0.0000000  -0.0000000  -0.0000000  -0.0000000  -0.0000000  -0.0000000  -0.0000000  -0.0000000
 NQMom=    0.0000000   0.0000000   0.0000000   0.0000000   0.0000000   0.0000000   0.0000000   0.0000000   0.0000000   0.0000000
 NMagM=    2.7928460   2.7928460   2.7928460   2.7928460   2.7928460   2.7928460   2.7928460   2.7928460   2.7928460   2.7928460
 AtZNuc=   1.0000000   1.0000000   1.0000000   1.0000000   1.0000000   1.0000000   1.0000000   1.0000000   1.0000000   1.0000000

  Atom        61          62          63          64          65          66          67          68          69          70
 IAtWgt=           1           1           1           1           1           1           1           1           1           1
 AtmWgt=   1.0078250   1.0078250   1.0078250   1.0078250   1.0078250   1.0078250   1.0078250   1.0078250   1.0078250   1.0078250
 NucSpn=           1           1           1           1           1           1           1           1           1           1
 AtZEff=  -0.0000000  -0.0000000  -0.0000000  -0.0000000  -0.0000000  -0.0000000  -0.0000000  -0.0000000  -0.0000000  -0.0000000
 NQMom=    0.0000000   0.0000000   0.0000000   0.0000000   0.0000000   0.0000000   0.0000000   0.0000000   0.0000000   0.0000000
 NMagM=    2.7928460   2.7928460   2.7928460   2.7928460   2.7928460   2.7928460   2.7928460   2.7928460   2.7928460   2.7928460
 AtZNuc=   1.0000000   1.0000000   1.0000000   1.0000000   1.0000000   1.0000000   1.0000000   1.0000000   1.0000000   1.0000000

  Atom        71          72          73          74          75          76          77          78          79          80
 IAtWgt=           1           1           1           1           1           1           1           1           1          24
 AtmWgt=   1.0078250   1.0078250   1.0078250   1.0078250   1.0078250   1.0078250   1.0078250   1.0078250   1.0078250  23.9850450
 NucSpn=           1           1           1           1           1           1           1           1           1           0
 AtZEff=  -0.0000000  -0.0000000  -0.0000000  -0.0000000  -0.0000000  -0.0000000  -0.0000000  -0.0000000  -0.0000000  -0.0000000
 NQMom=    0.0000000   0.0000000   0.0000000   0.0000000   0.0000000   0.0000000   0.0000000   0.0000000   0.0000000   0.0000000
 NMagM=    2.7928460   2.7928460   2.7928460   2.7928460   2.7928460   2.7928460   2.7928460   2.7928460   2.7928460   0.0000000
 AtZNuc=   1.0000000   1.0000000   1.0000000   1.0000000   1.0000000   1.0000000   1.0000000   1.0000000   1.0000000  12.0000000

  Atom        81          82          83          84          85          86          87          88          89          90
 IAtWgt=          12          12          12          12          14          12          12          12          12          12
 AtmWgt=  12.0000000  12.0000000  12.0000000  12.0000000  14.0030740  12.0000000  12.0000000  12.0000000  12.0000000  12.0000000
 NucSpn=           0           0           0           0           2           0           0           0           0           0
 AtZEff=  -0.0000000  -0.0000000  -0.0000000  -0.0000000  -0.0000000  -0.0000000  -0.0000000  -0.0000000  -0.0000000  -0.0000000
 NQMom=    0.0000000   0.0000000   0.0000000   0.0000000   2.0440000   0.0000000   0.0000000   0.0000000   0.0000000   0.0000000
 NMagM=    0.0000000   0.0000000   0.0000000   0.0000000   0.4037610   0.0000000   0.0000000   0.0000000   0.0000000   0.0000000
 AtZNuc=   6.0000000   6.0000000   6.0000000   6.0000000   7.0000000   6.0000000   6.0000000   6.0000000   6.0000000   6.0000000

  Atom        91          92          93          94          95          96          97          98          99         100
 IAtWgt=          12          12           1          14          12          12          12          12          12          12
 AtmWgt=  12.0000000  12.0000000   1.0078250  14.0030740  12.0000000  12.0000000  12.0000000  12.0000000  12.0000000  12.0000000
 NucSpn=           0           0           1           2           0           0           0           0           0           0
 AtZEff=  -0.0000000  -0.0000000  -0.0000000  -0.0000000  -0.0000000  -0.0000000  -0.0000000  -0.0000000  -0.0000000  -0.0000000
 NQMom=    0.0000000   0.0000000   0.0000000   2.0440000   0.0000000   0.0000000   0.0000000   0.0000000   0.0000000   0.0000000
 NMagM=    0.0000000   0.0000000   2.7928460   0.4037610   0.0000000   0.0000000   0.0000000   0.0000000   0.0000000   0.0000000
 AtZNuc=   6.0000000   6.0000000   1.0000000   7.0000000   6.0000000   6.0000000   6.0000000   6.0000000   6.0000000   6.0000000

  Atom       101         102         103         104         105         106         107         108         109         110
 IAtWgt=          16          12          14          12          12          12          12          12          12          12
 AtmWgt=  15.9949146  12.0000000  14.0030740  12.0000000  12.0000000  12.0000000  12.0000000  12.0000000  12.0000000  12.0000000
 NucSpn=           0           0           2           0           0           0           0           0           0           0
 AtZEff=  -0.0000000  -0.0000000  -0.0000000  -0.0000000  -0.0000000  -0.0000000  -0.0000000  -0.0000000  -0.0000000  -0.0000000
 NQMom=    0.0000000   0.0000000   2.0440000   0.0000000   0.0000000   0.0000000   0.0000000   0.0000000   0.0000000   0.0000000
 NMagM=    0.0000000   0.0000000   0.4037610   0.0000000   0.0000000   0.0000000   0.0000000   0.0000000   0.0000000   0.0000000
 AtZNuc=   8.0000000   6.0000000   7.0000000   6.0000000   6.0000000   6.0000000   6.0000000   6.0000000   6.0000000   6.0000000

  Atom       111         112         113         114         115         116         117         118         119         120
 IAtWgt=          14          12          12          12          12          12          12          16          12          12
 AtmWgt=  14.0030740  12.0000000  12.0000000  12.0000000  12.0000000  12.0000000  12.0000000  15.9949146  12.0000000  12.0000000
 NucSpn=           2           0           0           0           0           0           0           0           0           0
 AtZEff=  -0.0000000  -0.0000000  -0.0000000  -0.0000000  -0.0000000  -0.0000000  -0.0000000  -0.0000000  -0.0000000  -0.0000000
 NQMom=    2.0440000   0.0000000   0.0000000   0.0000000   0.0000000   0.0000000   0.0000000   0.0000000   0.0000000   0.0000000
 NMagM=    0.4037610   0.0000000   0.0000000   0.0000000   0.0000000   0.0000000   0.0000000   0.0000000   0.0000000   0.0000000
 AtZNuc=   7.0000000   6.0000000   6.0000000   6.0000000   6.0000000   6.0000000   6.0000000   8.0000000   6.0000000   6.0000000

  Atom       121         122         123         124         125         126         127         128         129         130
 IAtWgt=          16          16          12           1           1           1           1           1           1           1
 AtmWgt=  15.9949146  15.9949146  12.0000000   1.0078250   1.0078250   1.0078250   1.0078250   1.0078250   1.0078250   1.0078250
 NucSpn=           0           0           0           1           1           1           1           1           1           1
 AtZEff=  -0.0000000  -0.0000000  -0.0000000  -0.0000000  -0.0000000  -0.0000000  -0.0000000  -0.0000000  -0.0000000  -0.0000000
 NQMom=    0.0000000   0.0000000   0.0000000   0.0000000   0.0000000   0.0000000   0.0000000   0.0000000   0.0000000   0.0000000
 NMagM=    0.0000000   0.0000000   0.0000000   2.7928460   2.7928460   2.7928460   2.7928460   2.7928460   2.7928460   2.7928460
 AtZNuc=   8.0000000   8.0000000   6.0000000   1.0000000   1.0000000   1.0000000   1.0000000   1.0000000   1.0000000   1.0000000

  Atom       131         132         133         134         135         136         137         138         139         140
 IAtWgt=           1           1           1           1           1           1           1           1           1           1
 AtmWgt=   1.0078250   1.0078250   1.0078250   1.0078250   1.0078250   1.0078250   1.0078250   1.0078250   1.0078250   1.0078250
 NucSpn=           1           1           1           1           1           1           1           1           1           1
 AtZEff=  -0.0000000  -0.0000000  -0.0000000  -0.0000000  -0.0000000  -0.0000000  -0.0000000  -0.0000000  -0.0000000  -0.0000000
 NQMom=    0.0000000   0.0000000   0.0000000   0.0000000   0.0000000   0.0000000   0.0000000   0.0000000   0.0000000   0.0000000
 NMagM=    2.7928460   2.7928460   2.7928460   2.7928460   2.7928460   2.7928460   2.7928460   2.7928460   2.7928460   2.7928460
 AtZNuc=   1.0000000   1.0000000   1.0000000   1.0000000   1.0000000   1.0000000   1.0000000   1.0000000   1.0000000   1.0000000

  Atom       141         142         143         144         145         146         147         148         149         150
 IAtWgt=           1           1           1           1           1           1           1           1           1           1
 AtmWgt=   1.0078250   1.0078250   1.0078250   1.0078250   1.0078250   1.0078250   1.0078250   1.0078250   1.0078250   1.0078250
 NucSpn=           1           1           1           1           1           1           1           1           1           1
 AtZEff=  -0.0000000  -0.0000000  -0.0000000  -0.0000000  -0.0000000  -0.0000000  -0.0000000  -0.0000000  -0.0000000  -0.0000000
 NQMom=    0.0000000   0.0000000   0.0000000   0.0000000   0.0000000   0.0000000   0.0000000   0.0000000   0.0000000   0.0000000
 NMagM=    2.7928460   2.7928460   2.7928460   2.7928460   2.7928460   2.7928460   2.7928460   2.7928460   2.7928460   2.7928460
 AtZNuc=   1.0000000   1.0000000   1.0000000   1.0000000   1.0000000   1.0000000   1.0000000   1.0000000   1.0000000   1.0000000

  Atom       151         152         153         154         155         156         157         158
 IAtWgt=           1           1           1           1           1           1           1           1
 AtmWgt=   1.0078250   1.0078250   1.0078250   1.0078250   1.0078250   1.0078250   1.0078250   1.0078250
 NucSpn=           1           1           1           1           1           1           1           1
 AtZEff=  -0.0000000  -0.0000000  -0.0000000  -0.0000000  -0.0000000  -0.0000000  -0.0000000  -0.0000000
 NQMom=    0.0000000   0.0000000   0.0000000   0.0000000   0.0000000   0.0000000   0.0000000   0.0000000
 NMagM=    2.7928460   2.7928460   2.7928460   2.7928460   2.7928460   2.7928460   2.7928460   2.7928460
 AtZNuc=   1.0000000   1.0000000   1.0000000   1.0000000   1.0000000   1.0000000   1.0000000   1.0000000
 Leave Link  101 at Sat Sep  4 05:31:36 2021, MaxMem= 23488102400 cpu:               3.2 elap:               0.2
 (Enter /sw/apps/gaussian-16.0/g16/l202.exe)
 Stoichiometry    C68H72Mg2N8O8
 Framework group  C1[X(C68H72Mg2N8O8)]
 Deg. of freedom   468
 Full point group                 C1      NOp   1
 Largest Abelian subgroup         C1      NOp   1
 Largest concise Abelian subgroup C1      NOp   1
                         Standard orientation:                         
 ---------------------------------------------------------------------
 Center     Atomic      Atomic             Coordinates (Angstroms)
 Number     Number       Type             X           Y           Z
 ---------------------------------------------------------------------
      1         12           0       -5.194398    0.567522   -0.586740
      2          6           0       -5.437751   -2.765103    0.696460
      3          6           0       -6.406391    1.651779    2.413014
      4          6           0       -5.417982    3.468226   -1.848703
      5          6           0       -5.097149   -0.826760   -3.779259
      6          7           0       -5.805715   -0.515757    1.244502
      7          6           0       -5.793832   -1.788238    1.628976
      8          6           0       -6.122845   -1.980285    3.139685
      9          6           0       -6.941529   -0.635619    3.391932
     10          6           0       -6.324190    0.231418    2.308852
     11          6           0       -8.436077   -0.772046    3.119504
     12          6           0       -4.833432   -2.040775    4.025962
     13          6           0       -5.045990   -2.549072    5.454880
     14          1           0       -4.005131   -3.356424    6.073057
     15          7           0       -5.349770    2.334555    0.282917
     16          6           0       -5.852354    2.589465    1.514873
     17          6           0       -5.750186    4.052762    1.701968
     18          6           0       -5.323230    4.648539    0.405491
     19          6           0       -5.372565    3.495570   -0.456835
     20          6           0       -5.995909    4.733755    3.013311
     21          6           0       -4.942842    6.038778    0.004650
     22          8           0       -4.829129    6.386370   -1.220431
     23          6           0       -4.791223    7.018712    1.095422
     24          7           0       -5.471173    1.248671   -2.540472
     25          6           0       -5.472594    2.556306   -2.821671
     26          6           0       -5.401717    2.796856   -4.300539
     27          6           0       -5.105178    1.375871   -4.965835
     28          6           0       -5.140512    0.504232   -3.686278
     29          6           0       -6.656134    3.407971   -4.940062
     30          6           0       -3.866557    1.277475   -5.891338
     31          6           0       -2.603163    1.447533   -5.077697
     32          7           0       -5.076415   -1.433476   -1.419284
     33          6           0       -5.071281   -1.782625   -2.777497
     34          6           0       -5.089340   -3.255441   -2.844992
     35          6           0       -5.120670   -3.663205   -1.512854
     36          6           0       -5.148600   -2.517493   -0.667362
     37          6           0       -5.134579   -4.034670   -4.034610
     38          6           0       -5.161923   -4.800161   -0.607600
     39          8           0       -5.065685   -6.020724   -0.743458
     40          6           0       -5.491835   -4.264243    0.855198
     41          6           0       -4.517678   -4.906365    1.804939
     42          8           0       -3.300834   -4.634184    1.754202
     43          8           0       -5.194607   -5.550296    2.768092
     44          6           0       -4.286940   -6.185201    3.760659
     45          1           0       -6.997136    2.088481    3.220636
     46          1           0       -5.384215    4.450267   -2.325035
     47          1           0       -4.982828   -1.333239   -4.739396
     48          1           0       -6.748864   -2.844584    3.362198
     49          1           0       -6.738570   -0.214185    4.376271
     50          1           0       -8.673019   -1.737275    2.672164
     51          1           0       -8.681528    0.037035    2.431293
     52          1           0       -9.013738   -0.581369    4.024339
     53          1           0       -4.495279   -1.026544    4.238208
     54          1           0       -4.060289   -2.638522    3.541943
     55          1           0       -6.018638   -3.029048    5.566629
     56          1           0       -5.091089   -1.687253    6.120788
     57          1           0       -6.453616    4.058853    3.735500
     58          1           0       -6.752756    5.498115    2.838252
     59          1           0       -5.092322    5.195529    3.411589
     60          1           0       -5.729890    7.093797    1.644800
     61          1           0       -4.430099    7.934540    0.628841
     62          1           0       -4.050351    6.646787    1.803751
     63          1           0       -4.592024    3.482539   -4.546837
     64          1           0       -5.931608    1.036328   -5.590654
     65          1           0       -6.466486    4.340852   -5.471543
     66          1           0       -7.399627    3.548746   -4.156040
     67          1           0       -7.186922    2.748484   -5.626180
     68          1           0       -3.881617    2.077019   -6.631236
     69          1           0       -3.804148    0.330488   -6.427594
     70          1           0       -2.501686    2.530041   -5.009059
     71          1           0       -1.752528    1.007981   -5.599641
     72          1           0       -2.728403    1.067057   -4.063774
     73          1           0       -4.424668   -4.849449   -3.892730
     74          1           0       -4.881350   -3.436511   -4.909644
     75          1           0       -6.178368   -4.348274   -4.031012
     76          1           0       -6.521169   -4.550320    1.069100
     77          1           0       -4.544064   -7.243786    3.799630
     78          1           0       -4.380827   -5.607516    4.680371
     79          1           0       -3.233244   -6.239386    3.484743
     80         12           0        5.338670    0.845597    0.481764
     81          6           0        5.394122   -2.276131   -1.287632
     82          6           0        4.228843   -0.887105    3.202173
     83          6           0        4.849054    3.626398    1.929145
     84          6           0        5.339630    2.442350   -2.615991
     85          7           0        4.906749   -1.301148    0.793450
     86          6           0        5.023670   -2.402765    0.067422
     87          6           0        4.804854   -3.720475    0.858182
     88          6           0        3.904623   -3.137111    2.053224
     89          6           0        4.396831   -1.691303    2.046690
     90          6           0        2.417311   -3.136740    1.741373
     91          6           0        6.149344   -4.325925    1.394659
     92          6           0        6.047795   -5.764446    1.906607
     93          1           0        7.180905   -6.660649    1.693648
     94          7           0        5.116598    1.269365    2.407821
     95          6           0        4.676229    0.440806    3.377790
     96          6           0        4.675294    1.235382    4.615854
     97          6           0        4.993946    2.646739    4.267667
     98          6           0        4.978076    2.571270    2.820556
     99          6           0        4.468492    0.627460    5.972719
    100          6           0        5.255437    3.865774    5.099404
    101          8           0        5.276605    5.039755    4.585425
    102          6           0        5.393246    3.654039    6.547737
    103          7           0        4.911685    2.750888   -0.232324
    104          6           0        4.799048    3.794808    0.607608
    105          6           0        4.765342    5.101784   -0.148075
    106          6           0        5.123617    4.731976   -1.662169
    107          6           0        5.219080    3.195990   -1.531715
    108          6           0        3.437734    5.858333   -0.109736
    109          6           0        6.311757    5.493988   -2.310498
    110          6           0        7.607133    5.096669   -1.640042
    111          7           0        5.547740    0.238196   -1.581100
    112          6           0        5.492331    1.065966   -2.723828
    113          6           0        5.570851    0.182744   -3.905429
    114          6           0        5.643894   -1.109600   -3.364118
    115          6           0        5.592716   -1.038306   -1.945739
    116          6           0        5.520547    0.604409   -5.264025
    117          6           0        5.741946   -2.518614   -3.670324
    118          8           0        5.905561   -3.174884   -4.698073
    119          6           0        5.457167   -3.345232   -2.342934
    120          6           0        6.524996   -4.396521   -2.212332
    121          8           0        7.711355   -4.072777   -2.026953
    122          8           0        5.943089   -5.605377   -2.110307
    123          6           0        6.961270   -6.679981   -1.967622
    124          1           0        3.664008   -1.295298    4.040749
    125          1           0        4.788836    4.619736    2.379844
    126          1           0        5.444650    2.869946   -3.615396
    127          1           0        4.258872   -4.487032    0.321439
    128          1           0        4.143939   -3.617098    2.998590
    129          1           0        2.220147   -3.420115    0.718154
    130          1           0        2.078284   -2.125796    1.926017
    131          1           0        1.882254   -3.769223    2.455515
    132          1           0        6.426184   -3.814342    2.325458
    133          1           0        6.920037   -4.260420    0.651445
    134          1           0        5.112708   -6.247011    1.597253
    135          1           0        5.989274   -5.741231    2.997498
    136          1           0        4.093230   -0.400779    5.899864
    137          1           0        3.652787    1.181101    6.450209
    138          1           0        5.357337    0.693545    6.603793
    139          1           0        4.487134    3.192594    6.933069
    140          1           0        5.664962    4.627395    6.960815
    141          1           0        6.207507    2.941659    6.721249
    142          1           0        5.512224    5.787784    0.232280
    143          1           0        4.283569    4.938037   -2.341644
    144          1           0        3.533043    6.887394    0.285271
    145          1           0        2.736191    5.286833    0.483346
    146          1           0        2.922641    5.935933   -1.065697
    147          1           0        6.200290    6.570199   -2.157186
    148          1           0        6.399597    5.328312   -3.379063
    149          1           0        7.632546    5.737008   -0.753241
    150          1           0        8.453660    5.294870   -2.294386
    151          1           0        7.568887    4.056934   -1.294881
    152          1           0        6.283744    0.047618   -5.791286
    153          1           0        5.676979    1.677413   -5.353339
    154          1           0        4.497521    0.316026   -5.519997
    155          1           0        4.462043   -3.781855   -2.436046
    156          1           0        6.776175   -7.403709   -2.767389
    157          1           0        6.867595   -7.044048   -0.927215
    158          1           0        7.996061   -6.418007   -2.154764
 ---------------------------------------------------------------------
 Rotational constants (GHZ):           0.0203544           0.0114009           0.0103314
 Leave Link  202 at Sat Sep  4 05:31:36 2021, MaxMem= 23488102400 cpu:               0.3 elap:               0.0
 (Enter /sw/apps/gaussian-16.0/g16/l301.exe)
 Standard basis: def2SVP (5D, 7F)
 Ernie: Thresh=  0.10000D-02 Tol=  0.10000D-05 Strict=F.
 There are  1658 symmetry adapted cartesian basis functions of A   symmetry.
 There are  1572 symmetry adapted basis functions of A   symmetry.
  1572 basis functions,  2678 primitive gaussians,  1658 cartesian basis functions
   312 alpha electrons      312 beta electrons
       nuclear repulsion energy     14948.1421246200 Hartrees.
 IExCor=20419 DFT=T Ex+Corr=CAM-B3LYP ExCW=0 ScaHFX=  1.000000
 ScaDFX=  1.000000  1.000000  1.000000  0.810000 ScalE2=  1.000000  1.000000
 IRadAn=      5 IRanWt=     -1 IRanGd=            0 ICorTp=0 IEmpDi=  4
 HFx  wShort=  0.000000 wLong=  0.330000 cFull=  0.190000 cShort=  0.000000 cLong=  0.460000
 DFx  wShort=  0.000000 wLong=  0.330000 cFull=  0.190000 cShort=  0.000000 cLong=  0.460000
 NAtoms=  158 NActive=  158 NUniq=  158 SFac= 1.00D+00 NAtFMM=   60 NAOKFM=T Big=T
 Integral buffers will be    131072 words long.
 Raffenetti 1 integral format.
 Two-electron integral symmetry is turned on.
 Leave Link  301 at Sat Sep  4 05:31:36 2021, MaxMem= 23488102400 cpu:               1.3 elap:               0.1
 (Enter /sw/apps/gaussian-16.0/g16/l302.exe)
 NPDir=0 NMtPBC=     1 NCelOv=     1 NCel=       1 NClECP=     1 NCelD=      1
         NCelK=      1 NCelE2=     1 NClLst=     1 CellRange=     0.0.
 One-electron integrals computed using PRISM.
 One-electron integral symmetry used in STVInt
   1 Symmetry operations used in ECPInt.
 ECPInt:  NShTT=  271216 NPrTT=  987664 LenC2=  137597 LenP2D=  286872.
 LDataN:  DoStor=T MaxTD1= 4 Len=   56
 NBasis=  1572 RedAO= T EigKep=  3.36D-04  NBF=  1572
 NBsUse=  1572 1.00D-06 EigRej= -1.00D+00 NBFU=  1572
 Precomputing XC quadrature grid using
 IXCGrd= 4 IRadAn=           5 IRanWt=          -1 IRanGd=           0 AccXCQ= 0.00D+00.
 Generated NRdTot=       0 NPtTot=           0 NUsed=           0 NTot=          32
 NSgBfM=  1206  1206  1206  1206  1206 MxSgAt=   158 MxSgA2=   157.
 Leave Link  302 at Sat Sep  4 05:31:41 2021, MaxMem= 23488102400 cpu:             122.6 elap:               5.1
 (Enter /sw/apps/gaussian-16.0/g16/l303.exe)
 DipDrv:  MaxL=1.
 Leave Link  303 at Sat Sep  4 05:31:42 2021, MaxMem= 23488102400 cpu:               9.0 elap:               0.4
 (Enter /sw/apps/gaussian-16.0/g16/l308.exe)
 Leave Link  308 at Sat Sep  4 05:31:42 2021, MaxMem= 23488102400 cpu:              15.1 elap:               0.7
 (Enter /sw/apps/gaussian-16.0/g16/l401.exe)
 ExpMin= 3.36D-02 ExpMax= 4.95D+03 ExpMxC= 7.45D+02 IAcc=3 IRadAn=         5 AccDes= 0.00D+00
 Harris functional with IExCor=20419 and IRadAn=       5 diagonalized for initial guess.
 HarFok:  IExCor=20419 AccDes= 0.00D+00 IRadAn=         5 IDoV= 1 UseB2=F ITyADJ=14
 ICtDFT=  3500011 ScaDFX=  1.000000  1.000000  1.000000  1.000000
 FoFCou: FMM=F IPFlag=           0 FMFlag=      100000 FMFlg1=        2001
         NFxFlg=           0 DoJE=T BraDBF=F KetDBF=T FulRan=T
         wScrn=  0.000000 ICntrl=       500 IOpCl=  0 I1Cent=   200000004 NGrid=           0
         NMat0=    1 NMatS0=      1 NMatT0=    0 NMatD0=    1 NMtDS0=    0 NMtDT0=    0
 Petite list used in FoFCou.
 Harris En= -3918.65801552250    
 JPrj=0 DoOrth=F DoCkMO=F.
 Leave Link  401 at Sat Sep  4 05:31:50 2021, MaxMem= 23488102400 cpu:             182.5 elap:               7.6
 (Enter /sw/apps/gaussian-16.0/g16/l502.exe)
 Integral symmetry usage will be decided dynamically.
 Closed shell SCF:
 Using DIIS extrapolation, IDIIS=  1040.
 NGot= 23488102400 LenX= 23482547354 LenY= 23479796732
 Requested convergence on RMS density matrix=1.00D-08 within 128 cycles.
 Requested convergence on MAX density matrix=1.00D-06.
 Requested convergence on             energy=1.00D-06.
 No special actions if energy rises.
 Fock matrices will be formed incrementally for  20 cycles.

 Cycle   1  Pass 1  IDiag  1:
 FoFJK:  IHMeth= 1 ICntrl=       0 DoSepK=T KAlg= 0 I1Cent=           0 FoldK=F
 IRaf=         1 NMat=       1 IRICut=       1 DoRegI=T DoRafI=F ISym2E= 0 IDoP0=0 IntGTp=1.
 FoFCou: FMM=T IPFlag=           0 FMFlag=      100000 FMFlg1=        2001
         NFxFlg=           0 DoJE=T BraDBF=F KetDBF=F FulRan=T
         wScrn=  0.000000 ICntrl=       500 IOpCl=  0 I1Cent=           0 NGrid=           0
         NMat0=    1 NMatS0=      1 NMatT0=    0 NMatD0=    1 NMtDS0=    0 NMtDT0=    0
 Symmetry not used in FoFCou.
 FMM levels:  10  Number of levels for PrismC:   9
 E= -4068.94993883807    
 DIIS: error= 2.04D-02 at cycle   1 NSaved=   1.
 NSaved= 1 IEnMin= 1 EnMin= -4068.94993883807     IErMin= 1 ErrMin= 2.04D-02
 ErrMax= 2.04D-02  0.00D+00 EMaxC= 1.00D-01 BMatC= 1.69D+00 BMatP= 1.69D+00
 IDIUse=3 WtCom= 7.96D-01 WtEn= 2.04D-01
 Coeff-Com:  0.100D+01
 Coeff-En:   0.100D+01
 Coeff:      0.100D+01
 Gap=     0.120 Goal=   None    Shift=    0.000
 GapD=    0.120 DampG=1.000 DampE=0.500 DampFc=0.5000 IDamp=-1.
 Damping current iteration by 5.00D-01
 RMSDP=1.57D-03 MaxDP=1.36D-01              OVMax= 2.03D-01

 Cycle   2  Pass 1  IDiag  1:
 RMSU=  7.69D-04    CP:  9.82D-01
 E= -4069.33873685211     Delta-E=       -0.388798014032 Rises=F Damp=T
 DIIS: error= 1.27D-02 at cycle   2 NSaved=   2.
 NSaved= 2 IEnMin= 2 EnMin= -4069.33873685211     IErMin= 2 ErrMin= 1.27D-02
 ErrMax= 1.27D-02  0.00D+00 EMaxC= 1.00D-01 BMatC= 3.06D-01 BMatP= 1.69D+00
 IDIUse=3 WtCom= 8.73D-01 WtEn= 1.27D-01
 Coeff-Com: -0.213D+00 0.121D+01
 Coeff-En:   0.000D+00 0.100D+01
 Coeff:     -0.186D+00 0.119D+01
 Gap=     0.134 Goal=   None    Shift=    0.000
 RMSDP=7.65D-04 MaxDP=9.45D-02 DE=-3.89D-01 OVMax= 1.89D-01

 Cycle   3  Pass 1  IDiag  1:
 RMSU=  7.33D-04    CP:  9.68D-01  1.24D+00
 E= -4069.62807631132     Delta-E=       -0.289339459210 Rises=F Damp=F
 DIIS: error= 1.55D-02 at cycle   3 NSaved=   3.
 NSaved= 3 IEnMin= 3 EnMin= -4069.62807631132     IErMin= 2 ErrMin= 1.27D-02
 ErrMax= 1.55D-02  0.00D+00 EMaxC= 1.00D-01 BMatC= 2.01D-01 BMatP= 3.06D-01
 IDIUse=3 WtCom= 8.45D-01 WtEn= 1.55D-01
 Coeff-Com: -0.267D+00 0.651D+00 0.616D+00
 Coeff-En:   0.000D+00 0.000D+00 0.100D+01
 Coeff:     -0.226D+00 0.550D+00 0.676D+00
 Gap=     0.121 Goal=   None    Shift=    0.000
 RMSDP=5.10D-04 MaxDP=4.74D-02 DE=-2.89D-01 OVMax= 1.42D-01

 Cycle   4  Pass 1  IDiag  1:
 RMSU=  2.66D-04    CP:  9.65D-01  1.55D+00  5.05D-01
 E= -4069.76555590185     Delta-E=       -0.137479590532 Rises=F Damp=F
 DIIS: error= 7.04D-03 at cycle   4 NSaved=   4.
 NSaved= 4 IEnMin= 4 EnMin= -4069.76555590185     IErMin= 4 ErrMin= 7.04D-03
 ErrMax= 7.04D-03  0.00D+00 EMaxC= 1.00D-01 BMatC= 4.97D-02 BMatP= 2.01D-01
 IDIUse=3 WtCom= 9.30D-01 WtEn= 7.04D-02
 Coeff-Com: -0.109D+00 0.227D+00 0.408D+00 0.475D+00
 Coeff-En:   0.000D+00 0.000D+00 0.220D+00 0.780D+00
 Coeff:     -0.101D+00 0.211D+00 0.395D+00 0.496D+00
 Gap=     0.120 Goal=   None    Shift=    0.000
 RMSDP=2.01D-04 MaxDP=1.96D-02 DE=-1.37D-01 OVMax= 6.22D-02

 Cycle   5  Pass 1  IDiag  1:
 RMSU=  7.67D-05    CP:  9.64D-01  1.49D+00  6.89D-01  5.48D-01
 E= -4069.81081667297     Delta-E=       -0.045260771123 Rises=F Damp=F
 DIIS: error= 7.30D-04 at cycle   5 NSaved=   5.
 NSaved= 5 IEnMin= 5 EnMin= -4069.81081667297     IErMin= 5 ErrMin= 7.30D-04
 ErrMax= 7.30D-04  0.00D+00 EMaxC= 1.00D-01 BMatC= 1.20D-03 BMatP= 4.97D-02
 IDIUse=3 WtCom= 9.93D-01 WtEn= 7.30D-03
 Coeff-Com: -0.369D-01 0.726D-01 0.168D+00 0.252D+00 0.544D+00
 Coeff-En:   0.000D+00 0.000D+00 0.000D+00 0.000D+00 0.100D+01
 Coeff:     -0.366D-01 0.720D-01 0.167D+00 0.250D+00 0.548D+00
 Gap=     0.120 Goal=   None    Shift=    0.000
 RMSDP=4.28D-05 MaxDP=4.43D-03 DE=-4.53D-02 OVMax= 1.77D-02

 Cycle   6  Pass 1  IDiag  1:
 RMSU=  3.15D-05    CP:  9.64D-01  1.49D+00  6.80D-01  6.22D-01  7.40D-01
 E= -4069.81187866258     Delta-E=       -0.001061989609 Rises=F Damp=F
 DIIS: error= 1.91D-04 at cycle   6 NSaved=   6.
 NSaved= 6 IEnMin= 6 EnMin= -4069.81187866258     IErMin= 6 ErrMin= 1.91D-04
 ErrMax= 1.91D-04  0.00D+00 EMaxC= 1.00D-01 BMatC= 1.92D-04 BMatP= 1.20D-03
 IDIUse=3 WtCom= 9.98D-01 WtEn= 1.91D-03
 Coeff-Com:  0.187D-02-0.592D-02 0.127D-01 0.421D-01 0.310D+00 0.639D+00
 Coeff-En:   0.000D+00 0.000D+00 0.000D+00 0.000D+00 0.123D+00 0.877D+00
 Coeff:      0.187D-02-0.591D-02 0.127D-01 0.420D-01 0.310D+00 0.639D+00
 Gap=     0.120 Goal=   None    Shift=    0.000
 RMSDP=1.70D-05 MaxDP=1.18D-03 DE=-1.06D-03 OVMax= 7.33D-03

 Cycle   7  Pass 1  IDiag  1:
 RMSU=  1.11D-05    CP:  9.64D-01  1.50D+00  6.86D-01  6.21D-01  8.50D-01
                    CP:  7.32D-01
 E= -4069.81209032290     Delta-E=       -0.000211660317 Rises=F Damp=F
 DIIS: error= 9.82D-05 at cycle   7 NSaved=   7.
 NSaved= 7 IEnMin= 7 EnMin= -4069.81209032290     IErMin= 7 ErrMin= 9.82D-05
 ErrMax= 9.82D-05  0.00D+00 EMaxC= 1.00D-01 BMatC= 2.43D-05 BMatP= 1.92D-04
 IDIUse=1 WtCom= 1.00D+00 WtEn= 0.00D+00
 Coeff-Com:  0.450D-02-0.989D-02-0.869D-02-0.300D-02 0.109D+00 0.337D+00
 Coeff-Com:  0.570D+00
 Coeff:      0.450D-02-0.989D-02-0.869D-02-0.300D-02 0.109D+00 0.337D+00
 Coeff:      0.570D+00
 Gap=     0.121 Goal=   None    Shift=    0.000
 RMSDP=6.74D-06 MaxDP=1.17D-03 DE=-2.12D-04 OVMax= 3.52D-03

 Cycle   8  Pass 1  IDiag  1:
 RMSU=  4.76D-06    CP:  9.64D-01  1.50D+00  6.87D-01  6.26D-01  8.51D-01
                    CP:  8.57D-01  8.07D-01
 E= -4069.81212030168     Delta-E=       -0.000029978779 Rises=F Damp=F
 DIIS: error= 5.47D-05 at cycle   8 NSaved=   8.
 NSaved= 8 IEnMin= 8 EnMin= -4069.81212030168     IErMin= 8 ErrMin= 5.47D-05
 ErrMax= 5.47D-05  0.00D+00 EMaxC= 1.00D-01 BMatC= 4.88D-06 BMatP= 2.43D-05
 IDIUse=1 WtCom= 1.00D+00 WtEn= 0.00D+00
 Coeff-Com:  0.221D-02-0.440D-02-0.786D-02-0.122D-01-0.999D-02 0.340D-01
 Coeff-Com:  0.325D+00 0.673D+00
 Coeff:      0.221D-02-0.440D-02-0.786D-02-0.122D-01-0.999D-02 0.340D-01
 Coeff:      0.325D+00 0.673D+00
 Gap=     0.121 Goal=   None    Shift=    0.000
 RMSDP=3.35D-06 MaxDP=3.95D-04 DE=-3.00D-05 OVMax= 1.16D-03

 Cycle   9  Pass 1  IDiag  1:
 RMSU=  1.94D-06    CP:  9.64D-01  1.50D+00  6.87D-01  6.27D-01  8.69D-01
                    CP:  8.84D-01  1.00D+00  9.60D-01
 E= -4069.81212812933     Delta-E=       -0.000007827657 Rises=F Damp=F
 DIIS: error= 2.09D-05 at cycle   9 NSaved=   9.
 NSaved= 9 IEnMin= 9 EnMin= -4069.81212812933     IErMin= 9 ErrMin= 2.09D-05
 ErrMax= 2.09D-05  0.00D+00 EMaxC= 1.00D-01 BMatC= 7.35D-07 BMatP= 4.88D-06
 IDIUse=1 WtCom= 1.00D+00 WtEn= 0.00D+00
 Coeff-Com:  0.498D-03-0.836D-03-0.277D-02-0.614D-02-0.210D-01-0.390D-01
 Coeff-Com:  0.970D-01 0.337D+00 0.635D+00
 Coeff:      0.498D-03-0.836D-03-0.277D-02-0.614D-02-0.210D-01-0.390D-01
 Coeff:      0.970D-01 0.337D+00 0.635D+00
 Gap=     0.121 Goal=   None    Shift=    0.000
 RMSDP=1.42D-06 MaxDP=1.48D-04 DE=-7.83D-06 OVMax= 7.58D-04

 Cycle  10  Pass 1  IDiag  1:
 RMSU=  9.48D-07    CP:  9.64D-01  1.50D+00  6.87D-01  6.28D-01  8.72D-01
                    CP:  8.96D-01  1.05D+00  1.12D+00  1.05D+00
 E= -4069.81212976636     Delta-E=       -0.000001637025 Rises=F Damp=F
 DIIS: error= 1.05D-05 at cycle  10 NSaved=  10.
 NSaved=10 IEnMin=10 EnMin= -4069.81212976636     IErMin=10 ErrMin= 1.05D-05
 ErrMax= 1.05D-05  0.00D+00 EMaxC= 1.00D-01 BMatC= 1.68D-07 BMatP= 7.35D-07
 IDIUse=1 WtCom= 1.00D+00 WtEn= 0.00D+00
 Coeff-Com: -0.420D-03 0.883D-03 0.119D-02 0.105D-02-0.381D-02-0.308D-01
 Coeff-Com: -0.434D-01-0.711D-01 0.237D+00 0.910D+00
 Coeff:     -0.420D-03 0.883D-03 0.119D-02 0.105D-02-0.381D-02-0.308D-01
 Coeff:     -0.434D-01-0.711D-01 0.237D+00 0.910D+00
 Gap=     0.121 Goal=   None    Shift=    0.000
 RMSDP=1.22D-06 MaxDP=1.19D-04 DE=-1.64D-06 OVMax= 6.25D-04

 Cycle  11  Pass 1  IDiag  1:
 RMSU=  5.27D-07    CP:  9.64D-01  1.50D+00  6.87D-01  6.28D-01  8.74D-01
                    CP:  9.06D-01  1.09D+00  1.23D+00  1.39D+00  1.36D+00
 E= -4069.81213055127     Delta-E=       -0.000000784912 Rises=F Damp=F
 DIIS: error= 4.30D-06 at cycle  11 NSaved=  11.
 NSaved=11 IEnMin=11 EnMin= -4069.81213055127     IErMin=11 ErrMin= 4.30D-06
 ErrMax= 4.30D-06  0.00D+00 EMaxC= 1.00D-01 BMatC= 6.62D-08 BMatP= 1.68D-07
 IDIUse=1 WtCom= 1.00D+00 WtEn= 0.00D+00
 Coeff-Com: -0.338D-03 0.658D-03 0.135D-02 0.212D-02 0.435D-02-0.877D-02
 Coeff-Com: -0.411D-01-0.131D+00-0.346D-01 0.486D+00 0.721D+00
 Coeff:     -0.338D-03 0.658D-03 0.135D-02 0.212D-02 0.435D-02-0.877D-02
 Coeff:     -0.411D-01-0.131D+00-0.346D-01 0.486D+00 0.721D+00
 Gap=     0.121 Goal=   None    Shift=    0.000
 RMSDP=6.88D-07 MaxDP=6.17D-05 DE=-7.85D-07 OVMax= 3.72D-04

 Cycle  12  Pass 1  IDiag  1:
 RMSU=  2.67D-07    CP:  9.64D-01  1.50D+00  6.87D-01  6.28D-01  8.75D-01
                    CP:  9.08D-01  1.11D+00  1.30D+00  1.55D+00  1.75D+00
                    CP:  1.18D+00
 E= -4069.81213081815     Delta-E=       -0.000000266878 Rises=F Damp=F
 DIIS: error= 2.62D-06 at cycle  12 NSaved=  12.
 NSaved=12 IEnMin=12 EnMin= -4069.81213081815     IErMin=12 ErrMin= 2.62D-06
 ErrMax= 2.62D-06  0.00D+00 EMaxC= 1.00D-01 BMatC= 1.58D-08 BMatP= 6.62D-08
 IDIUse=1 WtCom= 1.00D+00 WtEn= 0.00D+00
 Coeff-Com: -0.151D-04 0.131D-04 0.232D-03 0.582D-03 0.347D-02 0.339D-02
 Coeff-Com:  0.145D-02-0.373D-01-0.715D-01-0.471D-01 0.256D+00 0.891D+00
 Coeff:     -0.151D-04 0.131D-04 0.232D-03 0.582D-03 0.347D-02 0.339D-02
 Coeff:      0.145D-02-0.373D-01-0.715D-01-0.471D-01 0.256D+00 0.891D+00
 Gap=     0.121 Goal=   None    Shift=    0.000
 RMSDP=4.28D-07 MaxDP=2.98D-05 DE=-2.67D-07 OVMax= 2.48D-04

 Cycle  13  Pass 1  IDiag  1:
 RMSU=  1.68D-07    CP:  9.64D-01  1.50D+00  6.87D-01  6.28D-01  8.75D-01
                    CP:  9.08D-01  1.12D+00  1.32D+00  1.65D+00  1.97D+00
                    CP:  1.59D+00  1.24D+00
 E= -4069.81213090945     Delta-E=       -0.000000091306 Rises=F Damp=F
 DIIS: error= 1.38D-06 at cycle  13 NSaved=  13.
 NSaved=13 IEnMin=13 EnMin= -4069.81213090945     IErMin=13 ErrMin= 1.38D-06
 ErrMax= 1.38D-06  0.00D+00 EMaxC= 1.00D-01 BMatC= 8.87D-09 BMatP= 1.58D-08
 IDIUse=1 WtCom= 1.00D+00 WtEn= 0.00D+00
 Coeff-Com:  0.119D-03-0.243D-03-0.361D-03-0.441D-03 0.705D-03 0.483D-02
 Coeff-Com:  0.186D-01 0.227D-01-0.331D-01-0.237D+00-0.163D+00 0.591D+00
 Coeff-Com:  0.795D+00
 Coeff:      0.119D-03-0.243D-03-0.361D-03-0.441D-03 0.705D-03 0.483D-02
 Coeff:      0.186D-01 0.227D-01-0.331D-01-0.237D+00-0.163D+00 0.591D+00
 Coeff:      0.795D+00
 Gap=     0.121 Goal=   None    Shift=    0.000
 RMSDP=3.48D-07 MaxDP=2.30D-05 DE=-9.13D-08 OVMax= 2.02D-04

 Cycle  14  Pass 1  IDiag  1:
 RMSU=  7.74D-08    CP:  9.64D-01  1.50D+00  6.87D-01  6.28D-01  8.76D-01
                    CP:  9.09D-01  1.12D+00  1.35D+00  1.73D+00  2.16D+00
                    CP:  1.85D+00  1.76D+00  1.11D+00
 E= -4069.81213094812     Delta-E=       -0.000000038664 Rises=F Damp=F
 DIIS: error= 7.11D-07 at cycle  14 NSaved=  14.
 NSaved=14 IEnMin=14 EnMin= -4069.81213094812     IErMin=14 ErrMin= 7.11D-07
 ErrMax= 7.11D-07  0.00D+00 EMaxC= 1.00D-01 BMatC= 1.32D-09 BMatP= 8.87D-09
 IDIUse=1 WtCom= 1.00D+00 WtEn= 0.00D+00
 Coeff-Com:  0.686D-04-0.135D-03-0.252D-03-0.394D-03-0.448D-03 0.123D-02
 Coeff-Com:  0.104D-01 0.198D-01 0.452D-02-0.102D+00-0.148D+00 0.891D-01
 Coeff-Com:  0.405D+00 0.721D+00
 Coeff:      0.686D-04-0.135D-03-0.252D-03-0.394D-03-0.448D-03 0.123D-02
 Coeff:      0.104D-01 0.198D-01 0.452D-02-0.102D+00-0.148D+00 0.891D-01
 Coeff:      0.405D+00 0.721D+00
 Gap=     0.121 Goal=   None    Shift=    0.000
 RMSDP=1.08D-07 MaxDP=7.06D-06 DE=-3.87D-08 OVMax= 5.94D-05

 Cycle  15  Pass 1  IDiag  1:
 RMSU=  3.87D-08    CP:  9.64D-01  1.50D+00  6.87D-01  6.28D-01  8.76D-01
                    CP:  9.09D-01  1.13D+00  1.35D+00  1.75D+00  2.21D+00
                    CP:  1.96D+00  1.91D+00  1.35D+00  1.04D+00
 E= -4069.81213095253     Delta-E=       -0.000000004413 Rises=F Damp=F
 DIIS: error= 3.94D-07 at cycle  15 NSaved=  15.
 NSaved=15 IEnMin=15 EnMin= -4069.81213095253     IErMin=15 ErrMin= 3.94D-07
 ErrMax= 3.94D-07  0.00D+00 EMaxC= 1.00D-01 BMatC= 2.35D-10 BMatP= 1.32D-09
 IDIUse=1 WtCom= 1.00D+00 WtEn= 0.00D+00
 Coeff-Com:  0.710D-05-0.124D-04-0.385D-04-0.901D-04-0.298D-03-0.497D-03
 Coeff-Com:  0.129D-02 0.304D-02 0.864D-02-0.548D-03-0.327D-01-0.706D-01
 Coeff-Com:  0.332D-01 0.302D+00 0.756D+00
 Coeff:      0.710D-05-0.124D-04-0.385D-04-0.901D-04-0.298D-03-0.497D-03
 Coeff:      0.129D-02 0.304D-02 0.864D-02-0.548D-03-0.327D-01-0.706D-01
 Coeff:      0.332D-01 0.302D+00 0.756D+00
 Gap=     0.121 Goal=   None    Shift=    0.000
 RMSDP=3.98D-08 MaxDP=2.53D-06 DE=-4.41D-09 OVMax= 2.57D-05

 Cycle  16  Pass 1  IDiag  1:
 RMSU=  1.87D-08    CP:  9.64D-01  1.50D+00  6.87D-01  6.28D-01  8.76D-01
                    CP:  9.09D-01  1.13D+00  1.35D+00  1.75D+00  2.22D+00
                    CP:  1.98D+00  1.96D+00  1.42D+00  1.24D+00  1.14D+00
 E= -4069.81213095342     Delta-E=       -0.000000000891 Rises=F Damp=F
 DIIS: error= 1.89D-07 at cycle  16 NSaved=  16.
 NSaved=16 IEnMin=16 EnMin= -4069.81213095342     IErMin=16 ErrMin= 1.89D-07
 ErrMax= 1.89D-07  0.00D+00 EMaxC= 1.00D-01 BMatC= 8.53D-11 BMatP= 2.35D-10
 IDIUse=1 WtCom= 1.00D+00 WtEn= 0.00D+00
 Coeff-Com: -0.137D-04 0.278D-04 0.448D-04 0.500D-04-0.329D-04-0.619D-03
 Coeff-Com: -0.176D-02-0.410D-02 0.413D-02 0.247D-01 0.207D-01-0.626D-01
 Coeff-Com: -0.800D-01-0.356D-01 0.394D+00 0.741D+00
 Coeff:     -0.137D-04 0.278D-04 0.448D-04 0.500D-04-0.329D-04-0.619D-03
 Coeff:     -0.176D-02-0.410D-02 0.413D-02 0.247D-01 0.207D-01-0.626D-01
 Coeff:     -0.800D-01-0.356D-01 0.394D+00 0.741D+00
 Gap=     0.121 Goal=   None    Shift=    0.000
 RMSDP=2.30D-08 MaxDP=1.64D-06 DE=-8.91D-10 OVMax= 1.42D-05

 Cycle  17  Pass 1  IDiag  1:
 RMSU=  1.06D-08    CP:  9.64D-01  1.50D+00  6.87D-01  6.28D-01  8.76D-01
                    CP:  9.09D-01  1.13D+00  1.35D+00  1.75D+00  2.23D+00
                    CP:  2.00D+00  1.99D+00  1.47D+00  1.34D+00  1.43D+00
                    CP:  1.23D+00
 E= -4069.81213095386     Delta-E=       -0.000000000437 Rises=F Damp=F
 DIIS: error= 1.22D-07 at cycle  17 NSaved=  17.
 NSaved=17 IEnMin=17 EnMin= -4069.81213095386     IErMin=17 ErrMin= 1.22D-07
 ErrMax= 1.22D-07  0.00D+00 EMaxC= 1.00D-01 BMatC= 1.95D-11 BMatP= 8.53D-11
 IDIUse=1 WtCom= 1.00D+00 WtEn= 0.00D+00
 Coeff-Com: -0.776D-05 0.152D-04 0.301D-04 0.439D-04 0.802D-04-0.147D-03
 Coeff-Com: -0.944D-03-0.292D-02 0.653D-04 0.102D-01 0.182D-01-0.934D-02
 Coeff-Com: -0.380D-01-0.101D+00-0.211D-01 0.311D+00 0.833D+00
 Coeff:     -0.776D-05 0.152D-04 0.301D-04 0.439D-04 0.802D-04-0.147D-03
 Coeff:     -0.944D-03-0.292D-02 0.653D-04 0.102D-01 0.182D-01-0.934D-02
 Coeff:     -0.380D-01-0.101D+00-0.211D-01 0.311D+00 0.833D+00
 Gap=     0.121 Goal=   None    Shift=    0.000
 RMSDP=1.35D-08 MaxDP=9.71D-07 DE=-4.37D-10 OVMax= 7.99D-06

 Cycle  18  Pass 1  IDiag  1:
 RMSU=  5.13D-09    CP:  9.64D-01  1.50D+00  6.87D-01  6.28D-01  8.76D-01
                    CP:  9.09D-01  1.13D+00  1.35D+00  1.75D+00  2.23D+00
                    CP:  2.00D+00  2.00D+00  1.49D+00  1.40D+00  1.60D+00
                    CP:  1.63D+00  1.36D+00
 E= -4069.81213095368     Delta-E=        0.000000000182 Rises=F Damp=F
 DIIS: error= 5.82D-08 at cycle  18 NSaved=  18.
 NSaved=18 IEnMin=17 EnMin= -4069.81213095386     IErMin=18 ErrMin= 5.82D-08
 ErrMax= 5.82D-08  0.00D+00 EMaxC= 1.00D-01 BMatC= 7.56D-12 BMatP= 1.95D-11
 IDIUse=1 WtCom= 1.00D+00 WtEn= 0.00D+00
 Coeff-Com:  0.971D-06-0.227D-05-0.642D-06 0.346D-05 0.642D-04 0.144D-03
 Coeff-Com:  0.252D-03-0.118D-03-0.112D-02-0.436D-02 0.167D-02 0.169D-01
 Coeff-Com:  0.134D-01-0.388D-01-0.150D+00-0.139D+00 0.388D+00 0.913D+00
 Coeff:      0.971D-06-0.227D-05-0.642D-06 0.346D-05 0.642D-04 0.144D-03
 Coeff:      0.252D-03-0.118D-03-0.112D-02-0.436D-02 0.167D-02 0.169D-01
 Coeff:      0.134D-01-0.388D-01-0.150D+00-0.139D+00 0.388D+00 0.913D+00
 Gap=     0.121 Goal=   None    Shift=    0.000
 RMSDP=1.07D-08 MaxDP=7.32D-07 DE= 1.82D-10 OVMax= 6.99D-06

 Cycle  19  Pass 1  IDiag  1:
 RMSU=  3.13D-09    CP:  9.64D-01  1.50D+00  6.87D-01  6.28D-01  8.76D-01
                    CP:  9.09D-01  1.13D+00  1.35D+00  1.75D+00  2.23D+00
                    CP:  2.00D+00  2.00D+00  1.50D+00  1.44D+00  1.73D+00
                    CP:  1.92D+00  1.87D+00  1.24D+00
 E= -4069.81213095374     Delta-E=       -0.000000000065 Rises=F Damp=F
 DIIS: error= 4.37D-08 at cycle  19 NSaved=  19.
 NSaved=19 IEnMin=17 EnMin= -4069.81213095386     IErMin=19 ErrMin= 4.37D-08
 ErrMax= 4.37D-08  0.00D+00 EMaxC= 1.00D-01 BMatC= 2.43D-12 BMatP= 7.56D-12
 IDIUse=1 WtCom= 1.00D+00 WtEn= 0.00D+00
 Coeff-Com:  0.317D-05-0.642D-05-0.105D-04-0.126D-04 0.184D-04 0.137D-03
 Coeff-Com:  0.496D-03 0.854D-03-0.675D-03-0.658D-02-0.520D-02 0.138D-01
 Coeff-Com:  0.224D-01 0.913D-02-0.873D-01-0.202D+00-0.285D-01 0.562D+00
 Coeff-Com:  0.721D+00
 Coeff:      0.317D-05-0.642D-05-0.105D-04-0.126D-04 0.184D-04 0.137D-03
 Coeff:      0.496D-03 0.854D-03-0.675D-03-0.658D-02-0.520D-02 0.138D-01
 Coeff:      0.224D-01 0.913D-02-0.873D-01-0.202D+00-0.285D-01 0.562D+00
 Coeff:      0.721D+00
 Gap=     0.121 Goal=   None    Shift=    0.000
 RMSDP=5.87D-09 MaxDP=3.89D-07 DE=-6.55D-11 OVMax= 3.35D-06

 SCF Done:  E(RCAM-B3LYP) =  -4069.81213095     A.U. after   19 cycles
            NFock= 19  Conv=0.59D-08     -V/T= 2.0102
 KE= 4.028802143967D+03 PE=-3.937737389098D+04 EE= 1.633061749144D+04
 Leave Link  502 at Sat Sep  4 05:41:42 2021, MaxMem= 23488102400 cpu:           13632.8 elap:             592.5
 (Enter /sw/apps/gaussian-16.0/g16/l801.exe)
 DoSCS=F DFT=T ScalE2(SS,OS)=  1.000000  1.000000
 ExpMin= 3.36D-02 ExpMax= 4.95D+03 ExpMxC= 7.45D+02 IAcc=3 IRadAn=         5 AccDes= 0.00D+00
 HarFok:  IExCor=  205 AccDes= 0.00D+00 IRadAn=         5 IDoV=-2 UseB2=F ITyADJ=14
 ICtDFT= 12500011 ScaDFX=  1.000000  1.000000  1.000000  1.000000
 GSVD:  LWork=       -9588 too small for GESVD, short by       45590 words or       45590 for optimal perf.
 Largest valence mixing into a core orbital is  2.03D-04
 Largest core mixing into a valence orbital is  5.24D-05
 Range of M.O.s used for correlation:    95  1572
 NBasis=  1572 NAE=   312 NBE=   312 NFC=    94 NFV=     0
 NROrb=   1478 NOA=   218 NOB=   218 NVA=  1260 NVB=  1260
 Leave Link  801 at Sat Sep  4 05:41:43 2021, MaxMem= 23488102400 cpu:               9.4 elap:               0.4
 (Enter /sw/apps/gaussian-16.0/g16/l914.exe)
 RHF ground state
 Two-electron integrals replicated using symmetry.
 MDV= 23488102400 DFT=T DoStab=F Mixed=T DoRPA=T DoScal=F NonHer=T
 Making orbital integer symmetry assigments:
 Orbital symmetries:
       Occupied  (A) (A) (A) (A) (A) (A) (A) (A) (A) (A) (A) (A)
                 (A) (A) (A) (A) (A) (A) (A) (A) (A) (A) (A) (A)
                 (A) (A) (A) (A) (A) (A) (A) (A) (A) (A) (A) (A)
                 (A) (A) (A) (A) (A) (A) (A) (A) (A) (A) (A) (A)
                 (A) (A) (A) (A) (A) (A) (A) (A) (A) (A) (A) (A)
                 (A) (A) (A) (A) (A) (A) (A) (A) (A) (A) (A) (A)
                 (A) (A) (A) (A) (A) (A) (A) (A) (A) (A) (A) (A)
                 (A) (A) (A) (A) (A) (A) (A) (A) (A) (A) (A) (A)
                 (A) (A) (A) (A) (A) (A) (A) (A) (A) (A) (A) (A)
                 (A) (A) (A) (A) (A) (A) (A) (A) (A) (A) (A) (A)
                 (A) (A) (A) (A) (A) (A) (A) (A) (A) (A) (A) (A)
                 (A) (A) (A) (A) (A) (A) (A) (A) (A) (A) (A) (A)
                 (A) (A) (A) (A) (A) (A) (A) (A) (A) (A) (A) (A)
                 (A) (A) (A) (A) (A) (A) (A) (A) (A) (A) (A) (A)
                 (A) (A) (A) (A) (A) (A) (A) (A) (A) (A) (A) (A)
                 (A) (A) (A) (A) (A) (A) (A) (A) (A) (A) (A) (A)
                 (A) (A) (A) (A) (A) (A) (A) (A) (A) (A) (A) (A)
                 (A) (A) (A) (A) (A) (A) (A) (A) (A) (A) (A) (A)
                 (A) (A) (A) (A) (A) (A) (A) (A) (A) (A) (A) (A)
                 (A) (A) (A) (A) (A) (A) (A) (A) (A) (A) (A) (A)
                 (A) (A) (A) (A) (A) (A) (A) (A) (A) (A) (A) (A)
                 (A) (A) (A) (A) (A) (A) (A) (A) (A) (A) (A) (A)
                 (A) (A) (A) (A) (A) (A) (A) (A) (A) (A) (A) (A)
                 (A) (A) (A) (A) (A) (A) (A) (A) (A) (A) (A) (A)
                 (A) (A) (A) (A) (A) (A) (A) (A) (A) (A) (A) (A)
                 (A) (A) (A) (A) (A) (A) (A) (A) (A) (A) (A) (A)
       Virtual   (A) (A) (A) (A) (A) (A) (A) (A) (A) (A) (A) (A)
                 (A) (A) (A) (A) (A) (A) (A) (A) (A) (A) (A) (A)
                 (A) (A) (A) (A) (A) (A) (A) (A) (A) (A) (A) (A)
                 (A) (A) (A) (A) (A) (A) (A) (A) (A) (A) (A) (A)
                 (A) (A) (A) (A) (A) (A) (A) (A) (A) (A) (A) (A)
                 (A) (A) (A) (A) (A) (A) (A) (A) (A) (A) (A) (A)
                 (A) (A) (A) (A) (A) (A) (A) (A) (A) (A) (A) (A)
                 (A) (A) (A) (A) (A) (A) (A) (A) (A) (A) (A) (A)
                 (A) (A) (A) (A) (A) (A) (A) (A) (A) (A) (A) (A)
                 (A) (A) (A) (A) (A) (A) (A) (A) (A) (A) (A) (A)
                 (A) (A) (A) (A) (A) (A) (A) (A) (A) (A) (A) (A)
                 (A) (A) (A) (A) (A) (A) (A) (A) (A) (A) (A) (A)
                 (A) (A) (A) (A) (A) (A) (A) (A) (A) (A) (A) (A)
                 (A) (A) (A) (A) (A) (A) (A) (A) (A) (A) (A) (A)
                 (A) (A) (A) (A) (A) (A) (A) (A) (A) (A) (A) (A)
                 (A) (A) (A) (A) (A) (A) (A) (A) (A) (A) (A) (A)
                 (A) (A) (A) (A) (A) (A) (A) (A) (A) (A) (A) (A)
                 (A) (A) (A) (A) (A) (A) (A) (A) (A) (A) (A) (A)
                 (A) (A) (A) (A) (A) (A) (A) (A) (A) (A) (A) (A)
                 (A) (A) (A) (A) (A) (A) (A) (A) (A) (A) (A) (A)
                 (A) (A) (A) (A) (A) (A) (A) (A) (A) (A) (A) (A)
                 (A) (A) (A) (A) (A) (A) (A) (A) (A) (A) (A) (A)
                 (A) (A) (A) (A) (A) (A) (A) (A) (A) (A) (A) (A)
                 (A) (A) (A) (A) (A) (A) (A) (A) (A) (A) (A) (A)
                 (A) (A) (A) (A) (A) (A) (A) (A) (A) (A) (A) (A)
                 (A) (A) (A) (A) (A) (A) (A) (A) (A) (A) (A) (A)
                 (A) (A) (A) (A) (A) (A) (A) (A) (A) (A) (A) (A)
                 (A) (A) (A) (A) (A) (A) (A) (A) (A) (A) (A) (A)
                 (A) (A) (A) (A) (A) (A) (A) (A) (A) (A) (A) (A)
                 (A) (A) (A) (A) (A) (A) (A) (A) (A) (A) (A) (A)
                 (A) (A) (A) (A) (A) (A) (A) (A) (A) (A) (A) (A)
                 (A) (A) (A) (A) (A) (A) (A) (A) (A) (A) (A) (A)
                 (A) (A) (A) (A) (A) (A) (A) (A) (A) (A) (A) (A)
                 (A) (A) (A) (A) (A) (A) (A) (A) (A) (A) (A) (A)
                 (A) (A) (A) (A) (A) (A) (A) (A) (A) (A) (A) (A)
                 (A) (A) (A) (A) (A) (A) (A) (A) (A) (A) (A) (A)
                 (A) (A) (A) (A) (A) (A) (A) (A) (A) (A) (A) (A)
                 (A) (A) (A) (A) (A) (A) (A) (A) (A) (A) (A) (A)
                 (A) (A) (A) (A) (A) (A) (A) (A) (A) (A) (A) (A)
                 (A) (A) (A) (A) (A) (A) (A) (A) (A) (A) (A) (A)
                 (A) (A) (A) (A) (A) (A) (A) (A) (A) (A) (A) (A)
                 (A) (A) (A) (A) (A) (A) (A) (A) (A) (A) (A) (A)
                 (A) (A) (A) (A) (A) (A) (A) (A) (A) (A) (A) (A)
                 (A) (A) (A) (A) (A) (A) (A) (A) (A) (A) (A) (A)
                 (A) (A) (A) (A) (A) (A) (A) (A) (A) (A) (A) (A)
                 (A) (A) (A) (A) (A) (A) (A) (A) (A) (A) (A) (A)
                 (A) (A) (A) (A) (A) (A) (A) (A) (A) (A) (A) (A)
                 (A) (A) (A) (A) (A) (A) (A) (A) (A) (A) (A) (A)
                 (A) (A) (A) (A) (A) (A) (A) (A) (A) (A) (A) (A)
                 (A) (A) (A) (A) (A) (A) (A) (A) (A) (A) (A) (A)
                 (A) (A) (A) (A) (A) (A) (A) (A) (A) (A) (A) (A)
                 (A) (A) (A) (A) (A) (A) (A) (A) (A) (A) (A) (A)
                 (A) (A) (A) (A) (A) (A) (A) (A) (A) (A) (A) (A)
                 (A) (A) (A) (A) (A) (A) (A) (A) (A) (A) (A) (A)
                 (A) (A) (A) (A) (A) (A) (A) (A) (A) (A) (A) (A)
                 (A) (A) (A) (A) (A) (A) (A) (A) (A) (A) (A) (A)
                 (A) (A) (A) (A) (A) (A) (A) (A) (A) (A) (A) (A)
                 (A) (A) (A) (A) (A) (A) (A) (A) (A) (A) (A) (A)
                 (A) (A) (A) (A) (A) (A) (A) (A) (A) (A) (A) (A)
                 (A) (A) (A) (A) (A) (A) (A) (A) (A) (A) (A) (A)
                 (A) (A) (A) (A) (A) (A) (A) (A) (A) (A) (A) (A)
                 (A) (A) (A) (A) (A) (A) (A) (A) (A) (A) (A) (A)
                 (A) (A) (A) (A) (A) (A) (A) (A) (A) (A) (A) (A)
                 (A) (A) (A) (A) (A) (A) (A) (A) (A) (A) (A) (A)
                 (A) (A) (A) (A) (A) (A) (A) (A) (A) (A) (A) (A)
                 (A) (A) (A) (A) (A) (A) (A) (A) (A) (A) (A) (A)
                 (A) (A) (A) (A) (A) (A) (A) (A) (A) (A) (A) (A)
                 (A) (A) (A) (A) (A) (A) (A) (A) (A) (A) (A) (A)
                 (A) (A) (A) (A) (A) (A) (A) (A) (A) (A) (A) (A)
                 (A) (A) (A) (A) (A) (A) (A) (A) (A) (A) (A) (A)
                 (A) (A) (A) (A) (A) (A) (A) (A) (A) (A) (A) (A)
                 (A) (A) (A) (A) (A) (A) (A) (A) (A) (A) (A) (A)
                 (A) (A) (A) (A) (A) (A) (A) (A) (A) (A) (A) (A)
                 (A) (A) (A) (A) (A) (A) (A) (A) (A) (A) (A) (A)
                 (A) (A) (A) (A) (A) (A) (A) (A) (A) (A) (A) (A)
                 (A) (A) (A) (A) (A) (A) (A) (A) (A) (A) (A) (A)
                 (A) (A) (A) (A) (A) (A) (A) (A) (A) (A) (A) (A)
                 (A) (A) (A) (A) (A) (A) (A) (A) (A) (A) (A) (A)
                 (A) (A) (A) (A) (A) (A) (A) (A) (A) (A) (A) (A)
                 (A) (A) (A) (A) (A) (A) (A) (A) (A) (A) (A) (A)
                 (A) (A) (A) (A) (A) (A) (A) (A) (A) (A) (A) (A)
                 (A) (A) (A) (A) (A) (A) (A) (A) (A) (A) (A) (A)
                 (A) (A) (A) (A) (A) (A) (A) (A) (A) (A) (A) (A)
                 (A) (A) (A) (A) (A) (A) (A) (A) (A) (A) (A) (A)
                 (A) (A) (A) (A) (A) (A) (A) (A) (A) (A) (A) (A)
                 (A) (A) (A) (A) (A) (A) (A) (A) (A) (A) (A) (A)
                 (A) (A) (A) (A) (A) (A) (A) (A) (A) (A) (A) (A)
                 (A) (A) (A) (A) (A) (A) (A) (A) (A) (A) (A) (A)
                 (A) (A) (A) (A) (A) (A) (A) (A) (A) (A) (A) (A)
                 (A) (A) (A) (A) (A) (A) (A) (A) (A) (A) (A) (A)
                 (A) (A) (A) (A) (A) (A) (A) (A) (A) (A) (A) (A)
                 (A) (A) (A) (A) (A) (A) (A) (A) (A) (A) (A) (A)
                 (A) (A) (A) (A) (A) (A) (A) (A) (A) (A) (A) (A)
                 (A) (A) (A) (A) (A) (A) (A) (A) (A) (A) (A) (A)
                 (A) (A) (A) (A) (A) (A) (A) (A) (A) (A) (A) (A)
                 (A) (A) (A) (A) (A) (A) (A) (A) (A) (A) (A) (A)
                 (A) (A) (A) (A) (A) (A) (A) (A) (A) (A) (A) (A)
                 (A) (A) (A) (A) (A) (A) (A) (A) (A) (A) (A) (A)
                 (A) (A) (A) (A) (A) (A) (A) (A) (A) (A) (A) (A)
                 (A) (A) (A) (A) (A) (A) (A) (A) (A) (A) (A) (A)
                 (A) (A) (A) (A) (A) (A) (A) (A) (A) (A) (A) (A)
                 (A) (A) (A) (A) (A) (A) (A) (A) (A) (A) (A) (A)
                 (A) (A) (A) (A) (A) (A) (A) (A) (A) (A) (A) (A)
                 (A) (A) (A) (A) (A) (A) (A) (A) (A) (A) (A) (A)
                 (A) (A) (A) (A) (A) (A) (A) (A) (A) (A) (A) (A)
    20 initial guesses have been made.
 Convergence on wavefunction:    0.001000000000000
 Davidson Disk Diagonalization:  ConvIn= 1.00D-03 SkipCon=T Conv= 1.00D-03.
 Max sub-space:  2000 roots to seek:    20 dimension of matrix:       549360
 Iteration     1 Dimension    20 NMult     0 NNew     20
 CISAX will form    20 AO SS matrices at one time.
 NMat=    20 NSing=    20 JSym2X= 0.
 FoFJK:  IHMeth= 1 ICntrl=       0 DoSepK=T KAlg= 0 I1Cent=           0 FoldK=F
 IRaf=         1 NMat=      40 IRICut=       1 DoRegI=T DoRafI=F ISym2E= 0 IDoP0=3 IntGTp=3.
 FoFCou: FMM=T IPFlag=           0 FMFlag=      100000 FMFlg1=        2001
         NFxFlg=           0 DoJE=F BraDBF=F KetDBF=F FulRan=T
         wScrn=  0.000000 ICntrl=       500 IOpCl=  0 I1Cent=           0 NGrid=           0
         NMat0=   20 NMatS0=     20 NMatT0=    0 NMatD0=   20 NMtDS0=    0 NMtDT0=    0
 Symmetry not used in FoFCou.
 FMM levels:  10  Number of levels for PrismC:   9
 New state      2 was old state      7
 New state      3 was old state      6
 New state      5 was old state      2
 Excitation Energies [eV] at current iteration:
 Root      1 :     2.476807268107205
 Root      2 :     2.611123066538265
 Root      3 :     2.620405407389378
 Root      4 :     2.628417223246438
 Root      5 :     2.655664212525869
 Root      6 :     2.715381048838815
 Root      7 :     3.262255825389094
 Root      8 :     3.428157787352411
 Root      9 :     3.627532660202140
 Root     10 :     3.670676284421867
 Root     11 :     3.740681664757852
 Root     12 :     3.758074674022368
 Root     13 :     4.276059836283326
 Root     14 :     4.329431159890762
 Root     15 :     4.381166978752947
 Root     16 :     4.562877685635579
 Root     17 :     4.706440686367428
 Root     18 :     4.744133761582819
 Root     19 :     4.853704172887552
 Root     20 :     4.859178990997649
 Iteration     2 Dimension    30 NMult    20 NNew     10
 CISAX will form    10 AO SS matrices at one time.
 NMat=    10 NSing=    10 JSym2X= 0.
 New state      1 was old state      5
 Root      1 not converged, maximum delta is    0.198522284859076
 Root      2 not converged, maximum delta is    0.126083868443684
 Root      3 not converged, maximum delta is    0.125453645016598
 New state      4 was old state      1
 Root      4 not converged, maximum delta is    0.002244266913213
 New state      5 was old state      4
 Root      5 not converged, maximum delta is    0.004201251024178
 Excitation Energies [eV] at current iteration:
 Root      1 :     1.788183864644727   Change is   -0.867480347881142
 Root      2 :     2.214821043482689   Change is   -0.396302023055576
 Root      3 :     2.239137980489361   Change is   -0.381267426900017
 Root      4 :     2.476383512627751   Change is   -0.000423755479454
 Root      5 :     2.627875966167068   Change is   -0.000541257079370
 Iteration     3 Dimension    40 NMult    30 NNew     10
 CISAX will form    10 AO SS matrices at one time.
 NMat=    10 NSing=    10 JSym2X= 0.
 Root      1 not converged, maximum delta is    0.056069045382637
 Root      2 not converged, maximum delta is    0.265477837920891
 Root      3 not converged, maximum delta is    0.137182812904970
 No map to state      4
 New state      5 was old state      4
 Root      5 has converged.
 Excitation Energies [eV] at current iteration:
 Root      1 :     1.682058029460992   Change is   -0.106125835183735
 Root      2 :     2.014680194505490   Change is   -0.200140848977199
 Root      3 :     2.194889686222243   Change is   -0.044248294267118
 Root      4 :     2.291567730727028
 Root      5 :     2.476380984242852   Change is   -0.000002528384899
 Iteration     4 Dimension    48 NMult    40 NNew      8
 CISAX will form     8 AO SS matrices at one time.
 NMat=     8 NSing=     8 JSym2X= 0.
 Root      1 not converged, maximum delta is    0.012038368558101
 Root      2 not converged, maximum delta is    0.279288756456830
 Root      3 not converged, maximum delta is    0.281936647592083
 Root      4 not converged, maximum delta is    0.241713219830792
 Root      5 has converged.
 Excitation Energies [eV] at current iteration:
 Root      1 :     1.665351299210031   Change is   -0.016706730250961
 Root      2 :     1.724072534614972   Change is   -0.290607659890518
 Root      3 :     2.184423230053150   Change is   -0.010466456169093
 Root      4 :     2.197828218319358   Change is   -0.093739512407670
 Root      5 :     2.476380983440257   Change is   -0.000000000802595
 Iteration     5 Dimension    56 NMult    48 NNew      8
 CISAX will form     8 AO SS matrices at one time.
 NMat=     8 NSing=     8 JSym2X= 0.
 Root      1 not converged, maximum delta is    0.002509274370739
 Root      2 not converged, maximum delta is    0.018394565656640
 Root      3 not converged, maximum delta is    0.054823517483768
 Root      4 not converged, maximum delta is    0.053590541211227
 Root      5 has converged.
 Excitation Energies [eV] at current iteration:
 Root      1 :     1.663587937791234   Change is   -0.001763361418796
 Root      2 :     1.692246878424197   Change is   -0.031825656190774
 Root      3 :     2.182934565202769   Change is   -0.001488664850380
 Root      4 :     2.194818194026567   Change is   -0.003010024292792
 Root      5 :     2.476380983152575   Change is   -0.000000000287682
 Iteration     6 Dimension    64 NMult    56 NNew      8
 CISAX will form     8 AO SS matrices at one time.
 NMat=     8 NSing=     8 JSym2X= 0.
 Root      1 not converged, maximum delta is    0.002167058661474
 Root      2 not converged, maximum delta is    0.004349275951377
 Root      3 not converged, maximum delta is    0.005484216160169
 Root      4 not converged, maximum delta is    0.005537418436738
 Root      5 has converged.
 Excitation Energies [eV] at current iteration:
 Root      1 :     1.663335229328255   Change is   -0.000252708462979
 Root      2 :     1.688666377696820   Change is   -0.003580500727378
 Root      3 :     2.182726923108268   Change is   -0.000207642094501
 Root      4 :     2.194511595319486   Change is   -0.000306598707080
 Root      5 :     2.476380982842286   Change is   -0.000000000310289
 Iteration     7 Dimension    72 NMult    64 NNew      8
 CISAX will form     8 AO SS matrices at one time.
 NMat=     8 NSing=     8 JSym2X= 0.
 Root      1 has converged.
 Root      2 not converged, maximum delta is    0.001511291874508
 Root      3 has converged.
 Root      4 has converged.
 Root      5 has converged.
 Excitation Energies [eV] at current iteration:
 Root      1 :     1.663310354616846   Change is   -0.000024874711409
 Root      2 :     1.688251581857477   Change is   -0.000414795839343
 Root      3 :     2.182696566127038   Change is   -0.000030356981230
[...]
 Alpha virt. eigenvalues --    1.85215   1.85252   1.85426   1.85464   1.85644
 Alpha virt. eigenvalues --    1.85809   1.86049   1.86310   1.86502   1.86511
 Alpha virt. eigenvalues --    1.86723   1.86787   1.86936   1.86957   1.87174
 Alpha virt. eigenvalues --    1.87373   1.87596   1.87638   1.87808   1.87921
 Alpha virt. eigenvalues --    1.87980   1.88141   1.88322   1.88473   1.88744
 Alpha virt. eigenvalues --    1.88751   1.89076   1.89118   1.89290   1.89579
 Alpha virt. eigenvalues --    1.89700   1.89797   1.89980   1.90054   1.90350
 Alpha virt. eigenvalues --    1.90671   1.91068   1.91268   1.91379   1.91550
 Alpha virt. eigenvalues --    1.91842   1.92087   1.92379   1.92511   1.92841
 Alpha virt. eigenvalues --    1.92926   1.93294   1.93300   1.93619   1.94223
 Alpha virt. eigenvalues --    1.94428   1.94640   1.94934   1.95435   1.95640
 Alpha virt. eigenvalues --    1.95701   1.95899   1.95996   1.96103   1.96206
 Alpha virt. eigenvalues --    1.96344   1.96529   1.96630   1.96837   1.97099
 Alpha virt. eigenvalues --    1.97385   1.97680   1.97776   1.97962   1.98089
 Alpha virt. eigenvalues --    1.98357   1.98525   1.98540   1.99053   1.99231
 Alpha virt. eigenvalues --    1.99724   2.00125   2.00606   2.00869   2.00912
 Alpha virt. eigenvalues --    2.01248   2.01354   2.01612   2.01616   2.01630
 Alpha virt. eigenvalues --    2.01768   2.02008   2.02706   2.02859   2.03174
 Alpha virt. eigenvalues --    2.03273   2.03316   2.03384   2.03537   2.03673
 Alpha virt. eigenvalues --    2.03956   2.04173   2.04906   2.05094   2.05460
 Alpha virt. eigenvalues --    2.05741   2.06019   2.06408   2.06787   2.07121
 Alpha virt. eigenvalues --    2.07206   2.07485   2.08552   2.08623   2.08911
 Alpha virt. eigenvalues --    2.09160   2.09500   2.09756   2.10745   2.11117
 Alpha virt. eigenvalues --    2.11134   2.11425   2.11541   2.11662   2.11713
 Alpha virt. eigenvalues --    2.12029   2.12378   2.12650   2.12746   2.12773
 Alpha virt. eigenvalues --    2.12938   2.13045   2.13646   2.13883   2.14097
 Alpha virt. eigenvalues --    2.14368   2.15272   2.15529   2.15843   2.16269
 Alpha virt. eigenvalues --    2.16476   2.16694   2.16747   2.17305   2.17345
 Alpha virt. eigenvalues --    2.17644   2.17753   2.18020   2.18107   2.18158
 Alpha virt. eigenvalues --    2.18224   2.18761   2.18845   2.19437   2.19554
 Alpha virt. eigenvalues --    2.19955   2.19993   2.20138   2.20390   2.20610
 Alpha virt. eigenvalues --    2.21121   2.21266   2.21607   2.21660   2.21901
 Alpha virt. eigenvalues --    2.22008   2.22619   2.22866   2.23259   2.23462
 Alpha virt. eigenvalues --    2.24347   2.24525   2.24931   2.25094   2.26201
 Alpha virt. eigenvalues --    2.26603   2.26717   2.27013   2.27151   2.27360
 Alpha virt. eigenvalues --    2.28059   2.28536   2.29209   2.29603   2.29650
 Alpha virt. eigenvalues --    2.30053   2.30355   2.30818   2.30973   2.31017
 Alpha virt. eigenvalues --    2.31081   2.31337   2.32071   2.32350   2.33048
 Alpha virt. eigenvalues --    2.33385   2.33408   2.33619   2.34077   2.34292
 Alpha virt. eigenvalues --    2.35249   2.35462   2.35716   2.36100   2.36316
 Alpha virt. eigenvalues --    2.36462   2.36544   2.36560   2.37619   2.37786
 Alpha virt. eigenvalues --    2.38218   2.38473   2.38748   2.38989   2.39540
 Alpha virt. eigenvalues --    2.39811   2.40120   2.40379   2.40392   2.41022
 Alpha virt. eigenvalues --    2.41155   2.41399   2.41636   2.41805   2.41931
 Alpha virt. eigenvalues --    2.42281   2.42906   2.42912   2.43237   2.43351
 Alpha virt. eigenvalues --    2.44074   2.44108   2.44661   2.44826   2.44938
 Alpha virt. eigenvalues --    2.45154   2.45493   2.45697   2.46257   2.46408
 Alpha virt. eigenvalues --    2.46408   2.46607   2.46718   2.46940   2.47190
 Alpha virt. eigenvalues --    2.47487   2.47649   2.48002   2.49267   2.49475
 Alpha virt. eigenvalues --    2.49991   2.50029   2.50510   2.50557   2.51018
 Alpha virt. eigenvalues --    2.51436   2.51719   2.51792   2.52326   2.52571
 Alpha virt. eigenvalues --    2.52726   2.53355   2.53859   2.54089   2.54115
 Alpha virt. eigenvalues --    2.54351   2.54725   2.54922   2.55465   2.55782
 Alpha virt. eigenvalues --    2.57807   2.58200   2.58585   2.59052   2.60100
 Alpha virt. eigenvalues --    2.60473   2.60512   2.61115   2.61655   2.61946
 Alpha virt. eigenvalues --    2.62442   2.62569   2.62880   2.63262   2.63858
 Alpha virt. eigenvalues --    2.64204   2.64406   2.64520   2.65008   2.65236
 Alpha virt. eigenvalues --    2.65685   2.66043   2.66726   2.66845   2.66923
 Alpha virt. eigenvalues --    2.67236   2.67846   2.68132   2.68772   2.68926
 Alpha virt. eigenvalues --    2.68928   2.69195   2.69334   2.69746   2.69925
 Alpha virt. eigenvalues --    2.70261   2.70897   2.71238   2.71950   2.72017
 Alpha virt. eigenvalues --    2.72555   2.72622   2.72682   2.72911   2.73233
 Alpha virt. eigenvalues --    2.73362   2.73373   2.73612   2.74435   2.74623
 Alpha virt. eigenvalues --    2.74892   2.75183   2.76533   2.76636   2.77147
 Alpha virt. eigenvalues --    2.77184   2.77387   2.77717   2.78141   2.78370
 Alpha virt. eigenvalues --    2.78627   2.78799   2.79057   2.79297   2.80266
 Alpha virt. eigenvalues --    2.80331   2.80472   2.80824   2.81037   2.81253
 Alpha virt. eigenvalues --    2.81851   2.82120   2.82280   2.82454   2.83650
 Alpha virt. eigenvalues --    2.83718   2.83916   2.84031   2.84490   2.84610
 Alpha virt. eigenvalues --    2.84834   2.84973   2.85614   2.85772   2.86762
 Alpha virt. eigenvalues --    2.86904   2.87316   2.87465   2.88104   2.88306
 Alpha virt. eigenvalues --    2.88445   2.88730   2.88870   2.88961   2.90406
 Alpha virt. eigenvalues --    2.90811   2.91140   2.91190   2.93066   2.93468
 Alpha virt. eigenvalues --    2.93894   2.94131   2.94515   2.94641   2.95247
 Alpha virt. eigenvalues --    2.95673   2.96004   2.96042   2.96373   2.96479
 Alpha virt. eigenvalues --    2.97021   2.97032   2.97682   2.98094   2.98140
 Alpha virt. eigenvalues --    2.98308   2.98534   2.98540   2.98710   2.98828
 Alpha virt. eigenvalues --    2.98904   2.99021   2.99550   2.99858   2.99902
 Alpha virt. eigenvalues --    3.00141   3.00161   3.00364   3.00412   3.01176
 Alpha virt. eigenvalues --    3.01936   3.01957   3.02039   3.02288   3.02590
 Alpha virt. eigenvalues --    3.02868   3.02927   3.03275   3.03465   3.03925
 Alpha virt. eigenvalues --    3.04119   3.04243   3.04398   3.04491   3.04548
 Alpha virt. eigenvalues --    3.04813   3.05259   3.05431   3.06039   3.06280
 Alpha virt. eigenvalues --    3.06693   3.07110   3.07998   3.08104   3.09285
 Alpha virt. eigenvalues --    3.09419   3.09600   3.10353   3.10630   3.10917
 Alpha virt. eigenvalues --    3.11290   3.11554   3.11821   3.11962   3.12153
 Alpha virt. eigenvalues --    3.12493   3.13182   3.13598   3.13753   3.13804
 Alpha virt. eigenvalues --    3.13935   3.14626   3.15897   3.16039   3.17197
 Alpha virt. eigenvalues --    3.17618   3.17919   3.18038   3.19079   3.19101
 Alpha virt. eigenvalues --    3.22142   3.22729   3.23877   3.24541   3.24576
 Alpha virt. eigenvalues --    3.25300   3.26439   3.26758   3.27506   3.27547
 Alpha virt. eigenvalues --    3.28926   3.29356   3.31452   3.31482   3.33288
 Alpha virt. eigenvalues --    3.33356   3.40406   3.40435   3.42767   3.42879
 Alpha virt. eigenvalues --    3.48582   3.48799   3.49956   3.50389   3.50950
 Alpha virt. eigenvalues --    3.51410   3.56492   3.57092   3.59046   3.59428
 Alpha virt. eigenvalues --    3.62611   3.62763   3.66143   3.66146   3.67009
 Alpha virt. eigenvalues --    3.67682   3.73115   3.74145   3.75925   3.76797
          Condensed to atoms (all electrons):
 Mulliken charges:
               1
     1  Mg   0.838595
     2  C   -0.003609
     3  C   -0.094349
     4  C   -0.045695
     5  C   -0.063501
     6  N   -0.256750
     7  C   -0.052767
     8  C   -0.013971
     9  C   -0.086978
    10  C    0.046135
    11  C    0.104750
    12  C    0.053637
    13  C   -0.071212
    14  H    0.033854
    15  N   -0.433184
    16  C    0.168487
    17  C   -0.176970
    18  C   -0.003712
    19  C    0.148696
    20  C    0.110072
    21  C    0.012406
    22  O   -0.249607
    23  C    0.062332
    24  N   -0.341072
    25  C    0.041313
    26  C   -0.028219
    27  C   -0.024024
    28  C    0.074706
    29  C    0.076109
    30  C    0.035026
    31  C   -0.004563
    32  N   -0.310430
    33  C    0.080223
    34  C   -0.169360
    35  C    0.008214
    36  C    0.082786
    37  C    0.127292
    38  C    0.045822
    39  O   -0.188628
    40  C   -0.005327
    41  C    0.213160
    42  O   -0.258825
    43  O   -0.304243
    44  C    0.158151
    45  H   -0.017519
    46  H   -0.016650
    47  H   -0.040870
    48  H    0.000949
    49  H   -0.004254
    50  H    0.025561
    51  H    0.016805
    52  H    0.016764
    53  H    0.011041
    54  H    0.042792
    55  H    0.018566
    56  H    0.018145
    57  H    0.005695
    58  H    0.027069
    59  H    0.040046
    60  H    0.037401
    61  H    0.035900
    62  H    0.032089
    63  H    0.016523
    64  H    0.009734
    65  H    0.023340
    66  H    0.012548
    67  H    0.005020
    68  H    0.006485
    69  H    0.005417
    70  H    0.008219
    71  H    0.018916
    72  H    0.028836
    73  H    0.047809
    74  H    0.009810
    75  H    0.046102
    76  H    0.035402
    77  H    0.043407
    78  H    0.046268
    79  H    0.051868
    80  Mg   0.837810
    81  C   -0.016788
    82  C   -0.087570
    83  C   -0.046194
    84  C   -0.065231
    85  N   -0.254886
    86  C   -0.048664
    87  C   -0.015333
    88  C   -0.090781
    89  C    0.046237
    90  C    0.114928
    91  C    0.062435
    92  C   -0.077692
    93  H    0.033711
    94  N   -0.423435
    95  C    0.162902
    96  C   -0.174987
    97  C   -0.008518
    98  C    0.152260
    99  C    0.099664
   100  C    0.014994
   101  O   -0.253898
   102  C    0.061401
   103  N   -0.350120
   104  C    0.037663
   105  C   -0.019814
   106  C   -0.034770
   107  C    0.089074
   108  C    0.073667
   109  C    0.034831
   110  C   -0.007576
   111  N   -0.324127
   112  C    0.078698
   113  C   -0.163490
   114  C    0.002423
   115  C    0.096193
   116  C    0.131510
   117  C    0.042226
   118  O   -0.188075
   119  C    0.001035
   120  C    0.211084
   121  O   -0.251617
   122  O   -0.304861
   123  C    0.152287
   124  H   -0.019304
   125  H   -0.016402
   126  H   -0.040979
   127  H    0.001315
   128  H   -0.005358
   129  H    0.025815
   130  H    0.013869
   131  H    0.020098
   132  H    0.013154
   133  H    0.037036
   134  H    0.022379
   135  H    0.019066
   136  H    0.008923
   137  H    0.024876
   138  H    0.039241
   139  H    0.037507
   140  H    0.035677
   141  H    0.033966
   142  H    0.013897
   143  H    0.012540
   144  H    0.024409
   145  H    0.011231
   146  H    0.006603
   147  H    0.005978
   148  H    0.003417
   149  H    0.010669
   150  H    0.017558
   151  H    0.030301
   152  H    0.045728
   153  H    0.008149
   154  H    0.046479
   155  H    0.036964
   156  H    0.043896
   157  H    0.049775
   158  H    0.052922
 Sum of Mulliken charges =  -0.00000
 Mulliken charges with hydrogens summed into heavy atoms:
               1
     1  Mg   0.838595
     2  C   -0.003609
     3  C   -0.111868
     4  C   -0.062345
     5  C   -0.104371
     6  N   -0.256750
     7  C   -0.052767
     8  C   -0.013022
     9  C   -0.091232
    10  C    0.046135
    11  C    0.163881
    12  C    0.107469
    13  C   -0.000648
    15  N   -0.433184
    16  C    0.168487
    17  C   -0.176970
    18  C   -0.003712
    19  C    0.148696
    20  C    0.182883
    21  C    0.012406
    22  O   -0.249607
    23  C    0.167722
    24  N   -0.341072
    25  C    0.041313
    26  C   -0.011696
    27  C   -0.014291
    28  C    0.074706
    29  C    0.117016
    30  C    0.046928
    31  C    0.051409
    32  N   -0.310430
    33  C    0.080223
    34  C   -0.169360
    35  C    0.008214
    36  C    0.082786
    37  C    0.231013
    38  C    0.045822
    39  O   -0.188628
    40  C    0.030075
    41  C    0.213160
    42  O   -0.258825
    43  O   -0.304243
    44  C    0.299693
    80  Mg   0.837810
    81  C   -0.016788
    82  C   -0.106874
    83  C   -0.062596
    84  C   -0.106210
    85  N   -0.254886
    86  C   -0.048664
    87  C   -0.014017
    88  C   -0.096140
    89  C    0.046237
    90  C    0.174710
    91  C    0.112625
    92  C   -0.002536
    94  N   -0.423435
    95  C    0.162902
    96  C   -0.174987
    97  C   -0.008518
    98  C    0.152260
    99  C    0.172703
   100  C    0.014994
   101  O   -0.253898
   102  C    0.168551
   103  N   -0.350120
   104  C    0.037663
   105  C   -0.005916
   106  C   -0.022230
   107  C    0.089074
   108  C    0.115910
   109  C    0.044226
   110  C    0.050953
   111  N   -0.324127
   112  C    0.078698
   113  C   -0.163490
   114  C    0.002423
   115  C    0.096193
   116  C    0.231866
   117  C    0.042226
   118  O   -0.188075
   119  C    0.037998
   120  C    0.211084
   121  O   -0.251617
   122  O   -0.304861
   123  C    0.298880
 Electronic spatial extent (au):  <R**2>=         114878.3340
 Charge=             -0.0000 electrons
 Dipole moment (field-independent basis, Debye):
    X=             -4.9442    Y=              1.9100    Z=              6.3296  Tot=              8.2557
 Quadrupole moment (field-independent basis, Debye-Ang):
   XX=           -518.2942   YY=           -532.2557   ZZ=           -467.8357
   XY=            -10.9369   XZ=              0.9953   YZ=            -31.4710
 Traceless Quadrupole moment (field-independent basis, Debye-Ang):
   XX=            -12.1656   YY=            -26.1272   ZZ=             38.2929
   XY=            -10.9369   XZ=              0.9953   YZ=            -31.4710
 Octapole moment (field-independent basis, Debye-Ang**2):
  XXX=           -441.6558  YYY=           -185.1411  ZZZ=            133.9533  XYY=            206.3249
  XXY=             77.7252  XXZ=            265.7539  XZZ=           -210.3812  YZZ=             -1.1680
  YYZ=             95.5523  XYZ=           -216.9120
 Hexadecapole moment (field-independent basis, Debye-Ang**3):
 XXXX=         -91243.1664 YYYY=         -39266.7400 ZZZZ=         -26729.4362 XXXY=             57.4438
 XXXZ=           -172.3971 YYYX=          -1793.4728 YYYZ=           -454.4922 ZZZX=           1081.5910
 ZZZY=           -596.8569 XXYY=         -21578.3185 XXZZ=         -18729.3269 YYZZ=         -11119.7124
 XXYZ=           -751.8312 YYXZ=          -1531.9076 ZZXY=            410.9505
 N-N= 1.494814212462D+04 E-N=-3.937737388156D+04  KE= 4.028802143967D+03
 Leave Link  601 at Sat Sep  4 06:06:45 2021, MaxMem= 23488102400 cpu:              15.5 elap:               0.8
 (Enter /sw/apps/gaussian-16.0/g16/l9999.exe)
 1\1\GINC-BP1-COMPUTE00089\SP\RCAM-B3LYP TD-FC\def2SVP\C68H72Mg2N8O8\OF
 15641\04-Sep-2021\0\\#p cam-b3lyp/Def2SVP td=(nstates=5)\\TDDFT excite
 d states in gaussian\\0,1\Mg,0,0.,0.,0.\C,0,-0.217,-2.218,2.801\C,0,-1
 .255,2.442,2.026\C,0,-0.245,1.85,-2.564\C,0,0.146,-2.824,-2.037\N,0,-0
 .617,-0.009,2.126\C,0,-0.594,-0.908,3.105\C,0,-0.936,-0.309,4.502\C,0,
 -1.773,0.964,4.032\C,0,-1.155,1.168,2.66\C,0,-3.263,0.685,3.863\C,0,0.
 345,0.11,5.299\C,0,0.124,0.397,6.787\H,0,1.168,0.033,7.733\N,0,-0.185,
 1.961,-0.152\C,0,-0.703,2.8,0.777\C,0,-0.62,4.156,0.193\C,0,-0.187,4.0
 15,-1.225\C,0,-0.214,2.583,-1.38\C,0,-0.887,5.406,0.974\C,0,0.181,5.01
 3,-2.277\O,0,0.303,4.69,-3.508\C,0,0.31,6.414,-1.837\N,0,-0.265,-0.413
 ,-2.029\C,0,-0.279,0.569,-2.937\C,0,-0.196,0.024,-4.332\C,0,0.124,-1.5
 33,-4.18\C,0,0.086,-1.632,-2.635\C,0,-1.451,0.205,-5.197\C,0,1.373,-2.
 07,-4.923\C,0,2.626,-1.49,-4.306\N,0,0.15,-2.144,0.303\C,0,0.173,-3.13
 6,-0.688\C,0,0.173,-4.438,0.004\C,0,0.133,-4.111,1.358\C,0,0.083,-2.69
 5,1.502\C,0,0.149,-5.715,-0.623\C,0,0.096,-4.629,2.716\O,0,0.208,-5.74
 7,3.221\C,0,-0.255,-3.428,3.701\C,0,0.717,-3.482,4.848\O,0,1.931,-3.25
 5,4.669\O,0,0.038,-3.556,6.003\C,0,0.943,-3.583,7.183\H,0,-1.859,3.22,
 2.497\H,0,-0.218,2.453,-3.474\H,0,0.276,-3.747,-2.605\H,0,-1.554,-0.94
 9,5.132\H,0,-1.585,1.831,4.665\H,0,-3.484,-0.377,3.969\H,0,-3.511,1.02
 7,2.858\H,0,-3.852,1.301,4.543\H,0,0.669,1.096,4.966\H,0,1.13,-0.639,5
 .189\H,0,-0.844,0.026,7.125\H,0,0.062,1.477,6.921\H,0,-1.344,5.186,1.9
 38\H,0,-1.651,5.963,0.432\H,0,0.007,6.02,1.084\H,0,-0.635,6.744,-1.405
 \H,0,0.665,6.97,-2.704\H,0,1.048,6.466,-1.036\H,0,0.608,0.501,-4.891\H
 ,0,-0.692,-2.156,-4.547\H,0,-1.267,0.74,-6.129\H,0,-2.204,0.714,-4.596
 \H,0,-1.967,-0.72,-5.453\H,0,1.356,-1.759,-5.967\H,0,1.452,-3.157,-4.9
 02\H,0,2.714,-0.522,-4.798\H,0,3.487,-2.121,-4.529\H,0,2.495,-1.303,-3
 .24\H,0,0.867,-6.333,-0.084\H,0,0.404,-5.642,-1.68\H,0,-0.891,-5.999,-
 0.463\H,0,-1.283,-3.581,4.028\H,0,0.698,-4.478,7.755\H,0,0.833,-2.619,
 7.68\H,0,2.,-3.754,6.976\Mg,0,10.5177,0.94462,0.80637\C,0,10.62788,-2.
 64179,0.87378\C,0,9.40091,0.82195,4.02698\C,0,9.98069,4.06704,0.63431\
 C,0,10.53118,0.74118,-2.67273\N,0,10.108,-0.75054,2.16681\C,0,10.24525
 ,-2.0664,2.1034\C,0,10.034,-2.80096,3.45445\C,0,9.1149,-1.70421,4.1833
 2\C,0,9.59006,-0.45589,3.44265\C,0,7.63092,-1.88546,3.91074\C,0,11.380
 04,-3.02818,4.22813\C,0,11.29029,-4.00688,5.40109\H,0,12.43599,-4.8691
 6,5.67734\N,0,10.27116,2.28667,2.24745\C,0,9.8308,2.06089,3.50299\C,0,
 9.80796,3.37506,4.16374\C,0,10.11345,4.4171,3.14613\C,0,10.11312,3.615
 01,1.93918\C,0,9.59462,3.53973,5.64049\C,0,10.35211,5.89362,3.24173\O,
 0,10.36463,6.64242,2.20154\C,0,10.47774,6.45106,4.59634\N,0,10.07552,2
 .21395,-0.77971\C,0,9.94208,3.53823,-0.58888\C,0,9.90061,4.27755,-1.90
 496\C,0,10.27853,3.1938,-3.01863\C,0,10.39078,1.93998,-2.1238\C,0,8.56
 385,4.92776,-2.26088\C,0,11.4641,3.53755,-3.96146\C,0,12.75722,3.5569,
 -3.17862\N,0,10.75479,-0.62531,-0.65895\C,0,10.70119,-0.49577,-2.0641\
 C,0,10.80208,-1.85628,-2.6309\C,0,10.88488,-2.69157,-1.50665\C,0,10.81
 851,-1.90873,-0.32248\C,0,10.76056,-2.18604,-4.01497\C,0,11.00264,-4.0
 5845,-1.05226\O,0,11.18438,-5.14402,-1.60202\C,0,10.71421,-4.09817,0.5
 103\C,0,11.79299,-4.91995,1.16102\O,0,12.97351,-4.52881,1.15887\O,0,11
 .22438,-5.91712,1.86294\C,0,12.25367,-6.75357,2.5358\H,0,8.83247,0.889
 08,4.95501\H,0,9.9042,5.15039,0.51608\H,0,10.64126,0.60181,-3.75029\H,
 0,9.50256,-3.74226,3.38149\H,0,9.35028,-1.63217,5.24199\H,0,7.44748,-2
 .65337,3.17398\H,0,7.27814,-0.92671,3.55383\H,0,7.09616,-2.07424,4.846
 \H,0,11.64139,-2.10974,4.76934\H,0,12.15739,-3.33848,3.55726\H,0,10.36
 414,-4.59397,5.37812\H,0,11.22046,-3.43229,6.3279\H,0,9.23227,2.61209,
 6.10048\H,0,8.76765,4.2468,5.76722\H,0,10.47619,3.93156,6.15232\H,0,9.
 57328,6.23634,5.16052\H,0,10.73376,7.50314,4.45681\H,0,11.29855,5.9388
 8,5.11069\H,0,10.63546,5.07297,-1.92501\H,0,9.44303,3.01225,-3.71059\H
 ,0,8.64301,6.01587,-2.44481\H,0,7.86313,4.72726,-1.46131\H,0,8.05758,4
 .49985,-3.12447\H,0,11.3384,4.53999,-4.37796\H,0,11.5647,2.85219,-4.79
 642\H,0,12.7661,4.55988,-2.74153\H,0,13.60793,3.4072,-3.84039\H,0,12.7
 2775,2.83739,-2.35213\H,0,11.53557,-2.92197,-4.18307\H,0,10.90522,-1.3
 0581,-4.63791\H,0,9.74365,-2.5802,-4.09114\H,0,9.7253,-4.53653,0.64986
 \H,0,12.08523,-7.78643,2.21565\H,0,12.15377,-6.53848,3.61632\H,0,13.28
 714,-6.6076,2.24412\\Version=ES64L-G16RevA.03\State=1-A\HF=-4069.81213
 1\RMSD=5.874e-09\PG=C01 [X(C68H72Mg2N8O8)]\\@


 EVANS BOLDLY PUT 50 ATM. OF ETHYLENE IN A CELL WITH 25 ATM. OF OXYGEN.
 THE APPARATUS SUBSEQUENTLY BLEW UP, BUT LUCKILY NOT BEFORE HE
 OBTAINED THE SPECTRA SHOWN IN FIGURE 8.
 A.J.MERER AND R.S.MULLIKEN, CHEM.REV. 69, 645 (1969)
 Job cpu time:       0 days 13 hours 48 minutes 39.3 seconds.
 Elapsed time:       0 days  0 hours 35 minutes 10.0 seconds.
 File lengths (MBytes):  RWF=  13225 Int=      0 D2E=      0 Chk=    574 Scr=      1
 Normal termination of Gaussian 16 at Sat Sep  4 06:06:46 2021.
