 Entering Gaussian System, Link 0=g16
 Initial command:
 /sw/apps/gaussian-16.0/g16/l1.exe "/tmp/Gau-204873.inp" -scrdir="/tmp/"
 Entering Link 1 = /sw/apps/gaussian-16.0/g16/l1.exe PID=    204874.
  
 Copyright (c) 1988,1990,1992,1993,1995,1998,2003,2009,2016,
            Gaussian, Inc.  All Rights Reserved.
  
 This is part of the Gaussian(R) 16 program.  It is based on
 the Gaussian(R) 09 system (copyright 2009, Gaussian, Inc.),
 the Gaussian(R) 03 system (copyright 2003, Gaussian, Inc.),
 the Gaussian(R) 98 system (copyright 1998, Gaussian, Inc.),
 the Gaussian(R) 94 system (copyright 1995, Gaussian, Inc.),
 the Gaussian 92(TM) system (copyright 1992, Gaussian, Inc.),
 the Gaussian 90(TM) system (copyright 1990, Gaussian, Inc.),
 the Gaussian 88(TM) system (copyright 1988, Gaussian, Inc.),
 the Gaussian 86(TM) system (copyright 1986, Carnegie Mellon
 University), and the Gaussian 82(TM) system (copyright 1983,
 Carnegie Mellon University). Gaussian is a federally registered
 trademark of Gaussian, Inc.
  
 This software contains proprietary and confidential information,
 including trade secrets, belonging to Gaussian, Inc.
  
 This software is provided under written license and may be
 used, copied, transmitted, or stored only in accord with that
 written license.
  
 The following legend is applicable only to US Government
 contracts under FAR:
  
                    RESTRICTED RIGHTS LEGEND
  
 Use, reproduction and disclosure by the US Government is
 subject to restrictions as set forth in subparagraphs (a)
 and (c) of the Commercial Computer Software - Restricted
 Rights clause in FAR 52.227-19.
  
 Gaussian, Inc.
 340 Quinnipiac St., Bldg. 40, Wallingford CT 06492
  
  
 ---------------------------------------------------------------
 Warning -- This program may not be used in any manner that
 competes with the business of Gaussian, Inc. or will provide
 assistance to any competitor of Gaussian, Inc.  The licensee
 of this program is prohibited from giving any competitor of
 Gaussian, Inc. access to this program.  By using this program,
 the user acknowledges that Gaussian, Inc. is engaged in the
 business of creating and licensing software in the field of
 computational chemistry and represents and warrants to the
 licensee that it is not a competitor of Gaussian, Inc. and that
 it will not use this program in any manner prohibited above.
 ---------------------------------------------------------------
  

 Cite this work as:
 Gaussian 16, Revision A.03,
 M. J. Frisch, G. W. Trucks, H. B. Schlegel, G. E. Scuseria, 
 M. A. Robb, J. R. Cheeseman, G. Scalmani, V. Barone, 
 G. A. Petersson, H. Nakatsuji, X. Li, M. Caricato, A. V. Marenich, 
 J. Bloino, B. G. Janesko, R. Gomperts, B. Mennucci, H. P. Hratchian, 
 J. V. Ortiz, A. F. Izmaylov, J. L. Sonnenberg, D. Williams-Young, 
 F. Ding, F. Lipparini, F. Egidi, J. Goings, B. Peng, A. Petrone, 
 T. Henderson, D. Ranasinghe, V. G. Zakrzewski, J. Gao, N. Rega, 
 G. Zheng, W. Liang, M. Hada, M. Ehara, K. Toyota, R. Fukuda, 
 J. Hasegawa, M. Ishida, T. Nakajima, Y. Honda, O. Kitao, H. Nakai, 
 T. Vreven, K. Throssell, J. A. Montgomery, Jr., J. E. Peralta, 
 F. Ogliaro, M. J. Bearpark, J. J. Heyd, E. N. Brothers, K. N. Kudin, 
 V. N. Staroverov, T. A. Keith, R. Kobayashi, J. Normand, 
 K. Raghavachari, A. P. Rendell, J. C. Burant, S. S. Iyengar, 
 J. Tomasi, M. Cossi, J. M. Millam, M. Klene, C. Adamo, R. Cammi, 
 J. W. Ochterski, R. L. Martin, K. Morokuma, O. Farkas, 
 J. B. Foresman, and D. J. Fox, Gaussian, Inc., Wallingford CT, 2016.
 
 ******************************************
 Gaussian 16:  ES64L-G16RevA.03 25-Dec-2016
                11-Sep-2021 
 ******************************************
 %nproc=24
 Will use up to   24 processors via shared memory.
 %mem=175gb
 -----------------------------------
 #p cam-b3lyp/Def2SVP td=(nstates=5)
 -----------------------------------
 1/38=1,172=1/1;
 2/12=2,17=6,18=5,40=1/2;
 3/5=43,7=101,11=9,25=1,30=1,74=-40/1,2,3,8;
 4//1;
 5/5=2,38=5/2;
 8/6=1,10=1,108=5/1;
 9/41=5,42=1,70=2/14;
 6/7=2,8=2,9=2,10=2/1;
 99/5=1,9=1/99;
 Leave Link    1 at Sat Sep 11 09:45:40 2021, MaxMem= 23488102400 cpu:               0.9 elap:               0.0
 (Enter /sw/apps/gaussian-16.0/g16/l101.exe)
 --------------------------------
 TDDFT excited states in gaussian
 --------------------------------
 Symbolic Z-matrix:
 Charge =  0 Multiplicity = 1
 Mg                    0.        0.        0. 
 C                    -0.217    -2.218     2.801 
 C                    -1.255     2.442     2.026 
 C                    -0.245     1.85     -2.564 
 C                     0.146    -2.824    -2.037 
 N                    -0.617    -0.009     2.126 
 C                    -0.594    -0.908     3.105 
 C                    -0.936    -0.309     4.502 
 C                    -1.773     0.964     4.032 
 C                    -1.155     1.168     2.66 
 C                    -3.263     0.685     3.863 
 C                     0.345     0.11      5.299 
 C                     0.124     0.397     6.787 
 H                     1.168     0.033     7.733 
 N                    -0.185     1.961    -0.152 
 C                    -0.703     2.8       0.777 
 C                    -0.62      4.156     0.193 
 C                    -0.187     4.015    -1.225 
 C                    -0.214     2.583    -1.38 
 C                    -0.887     5.406     0.974 
 C                     0.181     5.013    -2.277 
 O                     0.303     4.69     -3.508 
 C                     0.31      6.414    -1.837 
 N                    -0.265    -0.413    -2.029 
 C                    -0.279     0.569    -2.937 
 C                    -0.196     0.024    -4.332 
 C                     0.124    -1.533    -4.18 
 C                     0.086    -1.632    -2.635 
 C                    -1.451     0.205    -5.197 
 C                     1.373    -2.07     -4.923 
 C                     2.626    -1.49     -4.306 
 N                     0.15     -2.144     0.303 
 C                     0.173    -3.136    -0.688 
 C                     0.173    -4.438     0.004 
 C                     0.133    -4.111     1.358 
 C                     0.083    -2.695     1.502 
 C                     0.149    -5.715    -0.623 
 C                     0.096    -4.629     2.716 
 O                     0.208    -5.747     3.221 
 C                    -0.255    -3.428     3.701 
 C                     0.717    -3.482     4.848 
 O                     1.931    -3.255     4.669 
 O                     0.038    -3.556     6.003 
 C                     0.943    -3.583     7.183 
 H                    -1.859     3.22      2.497 
 H                    -0.218     2.453    -3.474 
 H                     0.276    -3.747    -2.605 
 H                    -1.554    -0.949     5.132 
 H                    -1.585     1.831     4.665 
 H                    -3.484    -0.377     3.969 
 H                    -3.511     1.027     2.858 
 H                    -3.852     1.301     4.543 
 H                     0.669     1.096     4.966 
 H                     1.13     -0.639     5.189 
 H                    -0.844     0.026     7.125 
 H                     0.062     1.477     6.921 
 H                    -1.344     5.186     1.938 
 H                    -1.651     5.963     0.432 
 H                     0.007     6.02      1.084 
 H                    -0.635     6.744    -1.405 
 H                     0.665     6.97     -2.704 
 H                     1.048     6.466    -1.036 
 H                     0.608     0.501    -4.891 
 H                    -0.692    -2.156    -4.547 
 H                    -1.267     0.74     -6.129 
 H                    -2.204     0.714    -4.596 
 H                    -1.967    -0.72     -5.453 
 H                     1.356    -1.759    -5.967 
 H                     1.452    -3.157    -4.902 
 H                     2.714    -0.522    -4.798 
 H                     3.487    -2.121    -4.529 
 H                     2.495    -1.303    -3.24 
 H                     0.867    -6.333    -0.084 
 H                     0.404    -5.642    -1.68 
 H                    -0.891    -5.999    -0.463 
 H                    -1.283    -3.581     4.028 
 H                     0.698    -4.478     7.755 
 H                     0.833    -2.619     7.68 
 H                     2.       -3.754     6.976 
 Mg                    13.1402   1.17575   1.00576 
 C                     10.53761   2.068     3.30999 
 C                     15.37114   1.84931   3.49651 
 C                     15.46844   0.83321  -1.12247 
 C                     10.84331   1.67664  -1.567 
 N                     12.86754   1.86218   3.09064 
 C                     11.82927   2.10905   3.87512 
 C                     12.19068   2.3386    5.36718 
 C                     13.71409   2.80925   5.17593 
 C                     14.02386   2.10455   3.8568 
 C                     13.85906   4.3069    4.96292 
 C                     12.09859   1.0209    6.21405 
 C                     12.13604   1.22677   7.72996 
 H                     11.33502   0.34296   8.5724 
 N                     15.07958   0.84462   1.26603 
 C                     15.82123   1.16185   2.34797 
 C                     17.1922   0.72827   2.03715 
 C                     17.23195   0.2791    0.61892 
 C                     15.90404   0.66279   0.18358 
 C                     18.28643   0.6911    3.06415 
 C                     18.29431  -0.37449  -0.212 
 O                     18.19448  -0.45987  -1.48698 
 C                     19.49755  -0.82809   0.5007 
 N                     13.21918   1.44837  -1.0538 
 C                     14.34097   1.17879  -1.74432 
 C                     14.08036   1.18361  -3.23175 
 C                     12.49148   1.2744   -3.38924 
 C                     12.0966   1.40187  -1.90155 
 C                     14.73517   2.31902  -4.01818 
 C                     11.80504   0.17445  -4.24456 
 C                     11.91397  -1.1633   -3.54889 
 N                     11.0228   1.58295   0.86849 
 C                     10.26696   1.78203  -0.30759 
 C                     8.89677   2.14207   0.11119 
 C                     8.95687   2.15004   1.51291 
 C                     10.27671   1.83816   1.93746 
 C                     7.81591   2.4557   -0.7603 
 C                     8.2065    2.36179   2.7298 
 O                     7.02274   2.56561   2.99609 
 C                     9.22733   2.44209   3.94547 
 C                     8.7067    1.56139   5.04812 
 O                     8.63617   0.32949   4.89309 
 O                     8.58391   2.2896    6.17285 
 C                     8.08109   1.45718   7.29805 
 H                     16.16255   2.24918   4.13106 
 H                     16.20724   0.61762  -1.89783 
 H                     10.04456   1.7525   -2.30789 
 H                     11.61974   3.11749   5.85823 
 H                     14.34859   2.42628   5.97099 
 H                     12.9008   4.7934    4.85708 
 H                     14.44285   4.42029   4.05883 
 H                     14.45852   4.74556   5.76576 
 H                     13.02254   0.44376   6.07994 
 H                     11.22602   0.45684   5.94743 
 H                     11.97215   2.27506   8.00774 
 H                     13.14666   1.01036   8.08469 
 H                     18.00327   1.23543   3.9735 
 H                     19.12729   1.26247   2.6563 
 H                     18.62289  -0.32421   3.28459 
 H                     19.96022   0.01809   1.00308 
 H                     20.10074  -1.34829  -0.24591 
 H                     19.19562  -1.53241   1.28388 
 H                     14.42677   0.26442  -3.68804 
 H                     12.18325   2.21058  -3.8775 
 H                     15.39025   1.96272  -4.83548 
 H                     15.2922   2.93658  -3.32618 
 H                     14.04306   3.03377  -4.46012 
 H                     12.31581   0.06749  -5.20468 
 H                     10.76117   0.38061  -4.45631 
 H                     12.91098  -1.51041  -3.83624 
 H                     11.14195  -1.84334  -3.90324 
 H                     11.90847  -1.04195  -2.45944 
 H                     6.94409   1.94725  -0.37053 
 H                     8.02937   2.15304  -1.78333 
 H                     7.7869    3.54317  -0.65152 
 H                     9.29073   3.48702   4.25154 
 H                     7.18225   1.94904   7.68254 
 H                     8.93373   1.35002   7.99466 
 H                     7.69767   0.47185   7.06021 
 
 ITRead=  0  0  0  0  0  0  0  0  0  0  0  0  0  0  0  0  0  0  0  0
 ITRead=  0  0  0  0  0  0  0  0  0  0  0  0  0  0  0  0  0  0  0  0
 ITRead=  0  0  0  0  0  0  0  0  0  0  0  0  0  0  0  0  0  0  0  0
 ITRead=  0  0  0  0  0  0  0  0  0  0  0  0  0  0  0  0  0  0  0  0
 ITRead=  0  0  0  0  0  0  0  0  0  0  0  0  0  0  0  0  0  0  0  0
 ITRead=  0  0  0  0  0  0  0  0  0  0  0  0  0  0  0  0  0  0  0  0
 ITRead=  0  0  0  0  0  0  0  0  0  0  0  0  0  0  0  0  0  0  0  0
 ITRead=  0  0  0  0  0  0  0  0  0  0  0  0  0  0  0  0  0  0
 MicOpt= -1 -1 -1 -1 -1 -1 -1 -1 -1 -1 -1 -1 -1 -1 -1 -1 -1 -1 -1 -1
 MicOpt= -1 -1 -1 -1 -1 -1 -1 -1 -1 -1 -1 -1 -1 -1 -1 -1 -1 -1 -1 -1
 MicOpt= -1 -1 -1 -1 -1 -1 -1 -1 -1 -1 -1 -1 -1 -1 -1 -1 -1 -1 -1 -1
 MicOpt= -1 -1 -1 -1 -1 -1 -1 -1 -1 -1 -1 -1 -1 -1 -1 -1 -1 -1 -1 -1
 MicOpt= -1 -1 -1 -1 -1 -1 -1 -1 -1 -1 -1 -1 -1 -1 -1 -1 -1 -1 -1 -1
 MicOpt= -1 -1 -1 -1 -1 -1 -1 -1 -1 -1 -1 -1 -1 -1 -1 -1 -1 -1 -1 -1
 MicOpt= -1 -1 -1 -1 -1 -1 -1 -1 -1 -1 -1 -1 -1 -1 -1 -1 -1 -1 -1 -1
 MicOpt= -1 -1 -1 -1 -1 -1 -1 -1 -1 -1 -1 -1 -1 -1 -1 -1 -1 -1
 NAtoms=    158 NQM=      158 NQMF=       0 NMMI=      0 NMMIF=      0
                NMic=       0 NMicF=      0.
                    Isotopes and Nuclear Properties:
 (Nuclear quadrupole moments (NQMom) in fm**2, nuclear magnetic moments (NMagM)
  in nuclear magnetons)

  Atom         1           2           3           4           5           6           7           8           9          10
 IAtWgt=          24          12          12          12          12          14          12          12          12          12
 AtmWgt=  23.9850450  12.0000000  12.0000000  12.0000000  12.0000000  14.0030740  12.0000000  12.0000000  12.0000000  12.0000000
 NucSpn=           0           0           0           0           0           2           0           0           0           0
 AtZEff=  -0.0000000  -0.0000000  -0.0000000  -0.0000000  -0.0000000  -0.0000000  -0.0000000  -0.0000000  -0.0000000  -0.0000000
 NQMom=    0.0000000   0.0000000   0.0000000   0.0000000   0.0000000   2.0440000   0.0000000   0.0000000   0.0000000   0.0000000
 NMagM=    0.0000000   0.0000000   0.0000000   0.0000000   0.0000000   0.4037610   0.0000000   0.0000000   0.0000000   0.0000000
 AtZNuc=  12.0000000   6.0000000   6.0000000   6.0000000   6.0000000   7.0000000   6.0000000   6.0000000   6.0000000   6.0000000

  Atom        11          12          13          14          15          16          17          18          19          20
 IAtWgt=          12          12          12           1          14          12          12          12          12          12
 AtmWgt=  12.0000000  12.0000000  12.0000000   1.0078250  14.0030740  12.0000000  12.0000000  12.0000000  12.0000000  12.0000000
 NucSpn=           0           0           0           1           2           0           0           0           0           0
 AtZEff=  -0.0000000  -0.0000000  -0.0000000  -0.0000000  -0.0000000  -0.0000000  -0.0000000  -0.0000000  -0.0000000  -0.0000000
 NQMom=    0.0000000   0.0000000   0.0000000   0.0000000   2.0440000   0.0000000   0.0000000   0.0000000   0.0000000   0.0000000
 NMagM=    0.0000000   0.0000000   0.0000000   2.7928460   0.4037610   0.0000000   0.0000000   0.0000000   0.0000000   0.0000000
 AtZNuc=   6.0000000   6.0000000   6.0000000   1.0000000   7.0000000   6.0000000   6.0000000   6.0000000   6.0000000   6.0000000

  Atom        21          22          23          24          25          26          27          28          29          30
 IAtWgt=          12          16          12          14          12          12          12          12          12          12
 AtmWgt=  12.0000000  15.9949146  12.0000000  14.0030740  12.0000000  12.0000000  12.0000000  12.0000000  12.0000000  12.0000000
 NucSpn=           0           0           0           2           0           0           0           0           0           0
 AtZEff=  -0.0000000  -0.0000000  -0.0000000  -0.0000000  -0.0000000  -0.0000000  -0.0000000  -0.0000000  -0.0000000  -0.0000000
 NQMom=    0.0000000   0.0000000   0.0000000   2.0440000   0.0000000   0.0000000   0.0000000   0.0000000   0.0000000   0.0000000
 NMagM=    0.0000000   0.0000000   0.0000000   0.4037610   0.0000000   0.0000000   0.0000000   0.0000000   0.0000000   0.0000000
 AtZNuc=   6.0000000   8.0000000   6.0000000   7.0000000   6.0000000   6.0000000   6.0000000   6.0000000   6.0000000   6.0000000

  Atom        31          32          33          34          35          36          37          38          39          40
 IAtWgt=          12          14          12          12          12          12          12          12          16          12
 AtmWgt=  12.0000000  14.0030740  12.0000000  12.0000000  12.0000000  12.0000000  12.0000000  12.0000000  15.9949146  12.0000000
 NucSpn=           0           2           0           0           0           0           0           0           0           0
 AtZEff=  -0.0000000  -0.0000000  -0.0000000  -0.0000000  -0.0000000  -0.0000000  -0.0000000  -0.0000000  -0.0000000  -0.0000000
 NQMom=    0.0000000   2.0440000   0.0000000   0.0000000   0.0000000   0.0000000   0.0000000   0.0000000   0.0000000   0.0000000
 NMagM=    0.0000000   0.4037610   0.0000000   0.0000000   0.0000000   0.0000000   0.0000000   0.0000000   0.0000000   0.0000000
 AtZNuc=   6.0000000   7.0000000   6.0000000   6.0000000   6.0000000   6.0000000   6.0000000   6.0000000   8.0000000   6.0000000

  Atom        41          42          43          44          45          46          47          48          49          50
 IAtWgt=          12          16          16          12           1           1           1           1           1           1
 AtmWgt=  12.0000000  15.9949146  15.9949146  12.0000000   1.0078250   1.0078250   1.0078250   1.0078250   1.0078250   1.0078250
 NucSpn=           0           0           0           0           1           1           1           1           1           1
 AtZEff=  -0.0000000  -0.0000000  -0.0000000  -0.0000000  -0.0000000  -0.0000000  -0.0000000  -0.0000000  -0.0000000  -0.0000000
 NQMom=    0.0000000   0.0000000   0.0000000   0.0000000   0.0000000   0.0000000   0.0000000   0.0000000   0.0000000   0.0000000
 NMagM=    0.0000000   0.0000000   0.0000000   0.0000000   2.7928460   2.7928460   2.7928460   2.7928460   2.7928460   2.7928460
 AtZNuc=   6.0000000   8.0000000   8.0000000   6.0000000   1.0000000   1.0000000   1.0000000   1.0000000   1.0000000   1.0000000

  Atom        51          52          53          54          55          56          57          58          59          60
 IAtWgt=           1           1           1           1           1           1           1           1           1           1
 AtmWgt=   1.0078250   1.0078250   1.0078250   1.0078250   1.0078250   1.0078250   1.0078250   1.0078250   1.0078250   1.0078250
 NucSpn=           1           1           1           1           1           1           1           1           1           1
 AtZEff=  -0.0000000  -0.0000000  -0.0000000  -0.0000000  -0.0000000  -0.0000000  -0.0000000  -0.0000000  -0.0000000  -0.0000000
 NQMom=    0.0000000   0.0000000   0.0000000   0.0000000   0.0000000   0.0000000   0.0000000   0.0000000   0.0000000   0.0000000
 NMagM=    2.7928460   2.7928460   2.7928460   2.7928460   2.7928460   2.7928460   2.7928460   2.7928460   2.7928460   2.7928460
 AtZNuc=   1.0000000   1.0000000   1.0000000   1.0000000   1.0000000   1.0000000   1.0000000   1.0000000   1.0000000   1.0000000

  Atom        61          62          63          64          65          66          67          68          69          70
 IAtWgt=           1           1           1           1           1           1           1           1           1           1
 AtmWgt=   1.0078250   1.0078250   1.0078250   1.0078250   1.0078250   1.0078250   1.0078250   1.0078250   1.0078250   1.0078250
 NucSpn=           1           1           1           1           1           1           1           1           1           1
 AtZEff=  -0.0000000  -0.0000000  -0.0000000  -0.0000000  -0.0000000  -0.0000000  -0.0000000  -0.0000000  -0.0000000  -0.0000000
 NQMom=    0.0000000   0.0000000   0.0000000   0.0000000   0.0000000   0.0000000   0.0000000   0.0000000   0.0000000   0.0000000
 NMagM=    2.7928460   2.7928460   2.7928460   2.7928460   2.7928460   2.7928460   2.7928460   2.7928460   2.7928460   2.7928460
 AtZNuc=   1.0000000   1.0000000   1.0000000   1.0000000   1.0000000   1.0000000   1.0000000   1.0000000   1.0000000   1.0000000

  Atom        71          72          73          74          75          76          77          78          79          80
 IAtWgt=           1           1           1           1           1           1           1           1           1          24
 AtmWgt=   1.0078250   1.0078250   1.0078250   1.0078250   1.0078250   1.0078250   1.0078250   1.0078250   1.0078250  23.9850450
 NucSpn=           1           1           1           1           1           1           1           1           1           0
 AtZEff=  -0.0000000  -0.0000000  -0.0000000  -0.0000000  -0.0000000  -0.0000000  -0.0000000  -0.0000000  -0.0000000  -0.0000000
 NQMom=    0.0000000   0.0000000   0.0000000   0.0000000   0.0000000   0.0000000   0.0000000   0.0000000   0.0000000   0.0000000
 NMagM=    2.7928460   2.7928460   2.7928460   2.7928460   2.7928460   2.7928460   2.7928460   2.7928460   2.7928460   0.0000000
 AtZNuc=   1.0000000   1.0000000   1.0000000   1.0000000   1.0000000   1.0000000   1.0000000   1.0000000   1.0000000  12.0000000

  Atom        81          82          83          84          85          86          87          88          89          90
 IAtWgt=          12          12          12          12          14          12          12          12          12          12
 AtmWgt=  12.0000000  12.0000000  12.0000000  12.0000000  14.0030740  12.0000000  12.0000000  12.0000000  12.0000000  12.0000000
 NucSpn=           0           0           0           0           2           0           0           0           0           0
 AtZEff=  -0.0000000  -0.0000000  -0.0000000  -0.0000000  -0.0000000  -0.0000000  -0.0000000  -0.0000000  -0.0000000  -0.0000000
 NQMom=    0.0000000   0.0000000   0.0000000   0.0000000   2.0440000   0.0000000   0.0000000   0.0000000   0.0000000   0.0000000
 NMagM=    0.0000000   0.0000000   0.0000000   0.0000000   0.4037610   0.0000000   0.0000000   0.0000000   0.0000000   0.0000000
 AtZNuc=   6.0000000   6.0000000   6.0000000   6.0000000   7.0000000   6.0000000   6.0000000   6.0000000   6.0000000   6.0000000

  Atom        91          92          93          94          95          96          97          98          99         100
 IAtWgt=          12          12           1          14          12          12          12          12          12          12
 AtmWgt=  12.0000000  12.0000000   1.0078250  14.0030740  12.0000000  12.0000000  12.0000000  12.0000000  12.0000000  12.0000000
 NucSpn=           0           0           1           2           0           0           0           0           0           0
 AtZEff=  -0.0000000  -0.0000000  -0.0000000  -0.0000000  -0.0000000  -0.0000000  -0.0000000  -0.0000000  -0.0000000  -0.0000000
 NQMom=    0.0000000   0.0000000   0.0000000   2.0440000   0.0000000   0.0000000   0.0000000   0.0000000   0.0000000   0.0000000
 NMagM=    0.0000000   0.0000000   2.7928460   0.4037610   0.0000000   0.0000000   0.0000000   0.0000000   0.0000000   0.0000000
 AtZNuc=   6.0000000   6.0000000   1.0000000   7.0000000   6.0000000   6.0000000   6.0000000   6.0000000   6.0000000   6.0000000

  Atom       101         102         103         104         105         106         107         108         109         110
 IAtWgt=          16          12          14          12          12          12          12          12          12          12
 AtmWgt=  15.9949146  12.0000000  14.0030740  12.0000000  12.0000000  12.0000000  12.0000000  12.0000000  12.0000000  12.0000000
 NucSpn=           0           0           2           0           0           0           0           0           0           0
 AtZEff=  -0.0000000  -0.0000000  -0.0000000  -0.0000000  -0.0000000  -0.0000000  -0.0000000  -0.0000000  -0.0000000  -0.0000000
 NQMom=    0.0000000   0.0000000   2.0440000   0.0000000   0.0000000   0.0000000   0.0000000   0.0000000   0.0000000   0.0000000
 NMagM=    0.0000000   0.0000000   0.4037610   0.0000000   0.0000000   0.0000000   0.0000000   0.0000000   0.0000000   0.0000000
 AtZNuc=   8.0000000   6.0000000   7.0000000   6.0000000   6.0000000   6.0000000   6.0000000   6.0000000   6.0000000   6.0000000

  Atom       111         112         113         114         115         116         117         118         119         120
 IAtWgt=          14          12          12          12          12          12          12          16          12          12
 AtmWgt=  14.0030740  12.0000000  12.0000000  12.0000000  12.0000000  12.0000000  12.0000000  15.9949146  12.0000000  12.0000000
 NucSpn=           2           0           0           0           0           0           0           0           0           0
 AtZEff=  -0.0000000  -0.0000000  -0.0000000  -0.0000000  -0.0000000  -0.0000000  -0.0000000  -0.0000000  -0.0000000  -0.0000000
 NQMom=    2.0440000   0.0000000   0.0000000   0.0000000   0.0000000   0.0000000   0.0000000   0.0000000   0.0000000   0.0000000
 NMagM=    0.4037610   0.0000000   0.0000000   0.0000000   0.0000000   0.0000000   0.0000000   0.0000000   0.0000000   0.0000000
 AtZNuc=   7.0000000   6.0000000   6.0000000   6.0000000   6.0000000   6.0000000   6.0000000   8.0000000   6.0000000   6.0000000

  Atom       121         122         123         124         125         126         127         128         129         130
 IAtWgt=          16          16          12           1           1           1           1           1           1           1
 AtmWgt=  15.9949146  15.9949146  12.0000000   1.0078250   1.0078250   1.0078250   1.0078250   1.0078250   1.0078250   1.0078250
 NucSpn=           0           0           0           1           1           1           1           1           1           1
 AtZEff=  -0.0000000  -0.0000000  -0.0000000  -0.0000000  -0.0000000  -0.0000000  -0.0000000  -0.0000000  -0.0000000  -0.0000000
 NQMom=    0.0000000   0.0000000   0.0000000   0.0000000   0.0000000   0.0000000   0.0000000   0.0000000   0.0000000   0.0000000
 NMagM=    0.0000000   0.0000000   0.0000000   2.7928460   2.7928460   2.7928460   2.7928460   2.7928460   2.7928460   2.7928460
 AtZNuc=   8.0000000   8.0000000   6.0000000   1.0000000   1.0000000   1.0000000   1.0000000   1.0000000   1.0000000   1.0000000

  Atom       131         132         133         134         135         136         137         138         139         140
 IAtWgt=           1           1           1           1           1           1           1           1           1           1
 AtmWgt=   1.0078250   1.0078250   1.0078250   1.0078250   1.0078250   1.0078250   1.0078250   1.0078250   1.0078250   1.0078250
 NucSpn=           1           1           1           1           1           1           1           1           1           1
 AtZEff=  -0.0000000  -0.0000000  -0.0000000  -0.0000000  -0.0000000  -0.0000000  -0.0000000  -0.0000000  -0.0000000  -0.0000000
 NQMom=    0.0000000   0.0000000   0.0000000   0.0000000   0.0000000   0.0000000   0.0000000   0.0000000   0.0000000   0.0000000
 NMagM=    2.7928460   2.7928460   2.7928460   2.7928460   2.7928460   2.7928460   2.7928460   2.7928460   2.7928460   2.7928460
 AtZNuc=   1.0000000   1.0000000   1.0000000   1.0000000   1.0000000   1.0000000   1.0000000   1.0000000   1.0000000   1.0000000

  Atom       141         142         143         144         145         146         147         148         149         150
 IAtWgt=           1           1           1           1           1           1           1           1           1           1
 AtmWgt=   1.0078250   1.0078250   1.0078250   1.0078250   1.0078250   1.0078250   1.0078250   1.0078250   1.0078250   1.0078250
 NucSpn=           1           1           1           1           1           1           1           1           1           1
 AtZEff=  -0.0000000  -0.0000000  -0.0000000  -0.0000000  -0.0000000  -0.0000000  -0.0000000  -0.0000000  -0.0000000  -0.0000000
 NQMom=    0.0000000   0.0000000   0.0000000   0.0000000   0.0000000   0.0000000   0.0000000   0.0000000   0.0000000   0.0000000
 NMagM=    2.7928460   2.7928460   2.7928460   2.7928460   2.7928460   2.7928460   2.7928460   2.7928460   2.7928460   2.7928460
 AtZNuc=   1.0000000   1.0000000   1.0000000   1.0000000   1.0000000   1.0000000   1.0000000   1.0000000   1.0000000   1.0000000

  Atom       151         152         153         154         155         156         157         158
 IAtWgt=           1           1           1           1           1           1           1           1
 AtmWgt=   1.0078250   1.0078250   1.0078250   1.0078250   1.0078250   1.0078250   1.0078250   1.0078250
 NucSpn=           1           1           1           1           1           1           1           1
 AtZEff=  -0.0000000  -0.0000000  -0.0000000  -0.0000000  -0.0000000  -0.0000000  -0.0000000  -0.0000000
 NQMom=    0.0000000   0.0000000   0.0000000   0.0000000   0.0000000   0.0000000   0.0000000   0.0000000
 NMagM=    2.7928460   2.7928460   2.7928460   2.7928460   2.7928460   2.7928460   2.7928460   2.7928460
 AtZNuc=   1.0000000   1.0000000   1.0000000   1.0000000   1.0000000   1.0000000   1.0000000   1.0000000
 Leave Link  101 at Sat Sep 11 09:45:40 2021, MaxMem= 23488102400 cpu:               3.5 elap:               0.2
 (Enter /sw/apps/gaussian-16.0/g16/l202.exe)
 Stoichiometry    C68H72Mg2N8O8
 Framework group  C1[X(C68H72Mg2N8O8)]
 Deg. of freedom   468
 Full point group                 C1      NOp   1
 Largest Abelian subgroup         C1      NOp   1
 Largest concise Abelian subgroup C1      NOp   1
                         Standard orientation:                         
 ---------------------------------------------------------------------
 Center     Atomic      Atomic             Coordinates (Angstroms)
 Number     Number       Type             X           Y           Z
 ---------------------------------------------------------------------
      1         12           0        6.335314   -0.924433    0.087930
      2          6           0        6.688460    2.061370   -1.854358
      3          6           0        7.253104    0.915986    2.810719
      4          6           0        6.472029   -3.630688    1.735387
      5          6           0        6.560469   -2.714443   -2.893820
      6          7           0        6.875363    1.209664    0.321641
      7          6           0        6.913682    2.261341   -0.490565
      8          6           0        7.141404    3.610074    0.255381
      9          6           0        7.854637    3.054186    1.568501
     10          6           0        7.266664    1.654278    1.590156
     11          6           0        9.370791    2.948197    1.439880
     12          6           0        5.796233    4.334891    0.597266
     13          6           0        5.933607    5.797939    1.028513
     14          1           0        4.901749    6.744508    0.632754
     15          7           0        6.316624   -1.239482    2.038121
     16          6           0        6.710113   -0.372944    3.002260
     17          6           0        6.504263   -1.073192    4.288324
     18          6           0        6.138301   -2.484520    3.984484
     19          6           0        6.322297   -2.515210    2.555994
     20          6           0        6.609916   -0.395821    5.620148
     21          6           0        5.703473   -3.627474    4.846291
     22          8           0        5.659345   -4.828916    4.411361
     23          6           0        5.411472   -3.312896    6.256546
     24          7           0        6.713104   -2.902966   -0.460085
     25          6           0        6.654571   -3.891289    0.439234
     26          6           0        6.678440   -5.235999   -0.224938
     27          6           0        6.520156   -4.959125   -1.789559
     28          6           0        6.514595   -3.410867   -1.755858
     29          6           0        7.936553   -6.080743    0.019127
     30          6           0        5.361744   -5.685173   -2.518501
     31          6           0        4.033605   -5.152738   -2.028953
     32          7           0        6.402919   -0.442375   -2.027276
     33          6           0        6.519715   -1.344775   -3.094377
     34          6           0        6.633598   -0.543738   -4.327032
     35          6           0        6.591530    0.777754   -3.886877
     36          6           0        6.486133    0.800845   -2.466789
     37          6           0        6.814626   -1.057916   -5.641294
     38          6           0        6.635895    2.175726   -4.283818
     39          8           0        6.625491    2.771829   -5.361800
     40          6           0        6.823111    3.062646   -2.974563
     41          6           0        5.822949    4.184635   -3.038797
     42          8           0        4.598704    3.955599   -2.960483
     43          8           0        6.465322    5.358823   -2.942975
     44          6           0        5.527730    6.513085   -2.970462
     45          1           0        7.754474    1.333822    3.685923
     46          1           0        6.412988   -4.589508    2.254634
     47          1           0        6.548886   -3.204229   -3.869232
     48          1           0        7.801430    4.308418   -0.259503
     49          1           0        7.553876    3.605331    2.459290
     50          1           0        9.699272    3.150673    0.420554
     51          1           0        9.616004    1.924258    1.722567
     52          1           0        9.867144    3.587719    2.170238
     53          1           0        5.381357    3.910205    1.511367
     54          1           0        5.099345    4.269450   -0.239029
     55          1           0        6.923110    6.191368    0.793980
     56          1           0        5.876092    5.840238    2.116219
     57          1           0        7.053801    0.594959    5.531458
     58          1           0        7.328995   -0.963804    6.210089
     59          1           0        5.652593   -0.362020    6.140457
     60          1           0        6.300552   -2.886645    6.721730
     61          1           0        5.029962   -4.233298    6.697181
     62          1           0        4.644667   -2.538592    6.294133
     63          1           0        5.848377   -5.854418    0.114147
     64          1           0        7.409872   -5.250127   -2.348484
     65          1           0        7.729466   -7.059677    0.452150
     66          1           0        8.609974   -5.506491    0.654760
     67          1           0        8.556282   -6.242980   -0.862367
     68          1           0        5.382043   -6.751241   -2.294820
     69          1           0        5.397707   -5.572932   -3.602180
     70          1           0        3.860702   -5.728161   -1.120204
     71          1           0        3.252621   -5.342816   -2.765937
     72          1           0        4.106838   -4.103719   -1.741407
     73          1           0        6.147830   -0.486498   -6.286919
     74          1           0        6.590299   -2.123495   -5.683986
     75          1           0        7.872660   -0.847389   -5.796531
     76          1           0        7.849519    3.427941   -2.987530
     77          1           0        5.846130    7.165958   -3.783243
     78          1           0        5.517566    6.928120   -1.962471
     79          1           0        4.502661    6.294387   -3.271700
     80         12           0       -6.882504   -0.362070   -0.090528
     81          6           0       -4.470983    1.923263    1.266261
     82          6           0       -9.257661    2.003350    0.540366
     83          6           0       -9.085777   -2.512261   -0.858426
     84          6           0       -4.563421   -2.908342    0.442431
     85          7           0       -6.756916    1.662478    0.791338
     86          6           0       -5.778615    2.449331    1.213415
     87          6           0       -6.214069    3.906359    1.524866
     88          6           0       -7.771188    3.636228    1.809955
     89          6           0       -7.958391    2.374960    0.969230
     90          6           0       -8.066556    3.291715    3.260270
     91          6           0       -6.012401    4.865363    0.299450
     92          6           0       -6.124238    6.356521    0.624578
     93          1           0       -5.263895    7.292102   -0.094419
     94          7           0       -8.783750   -0.124348   -0.607571
     95          6           0       -9.592078    0.906890   -0.284417
     96          6           0      -10.897712    0.599258   -0.888438
     97          6           0      -10.840210   -0.775705   -1.454901
     98          6           0       -9.546089   -1.208051   -0.966627
     99          6           0      -12.016945    1.597137   -0.959182
    100          6           0      -11.797728   -1.574499   -2.286348
    101          8           0      -11.645062   -2.834440   -2.465435
    102          6           0      -12.970209   -0.856695   -2.807430
    103          7           0       -6.918144   -2.438783    0.000805
    104          6           0       -7.980309   -3.132254   -0.445072
    105          6           0       -7.670026   -4.607396   -0.534904
    106          6           0       -6.095201   -4.731135   -0.285508
    107          6           0       -5.768114   -3.250217    0.006549
    108          6           0       -8.413688   -5.505037    0.453839
    109          6           0       -5.266679   -5.470863   -1.371333
    110          6           0       -5.257384   -4.665904   -2.650925
    111          7           0       -4.816695   -0.479237    0.531359
    112          6           0       -4.045706   -1.648215    0.713451
    113          6           0       -2.736814   -1.226762    1.253454
    114          6           0       -2.846208    0.167080    1.370639
    115          6           0       -4.139544    0.582720    0.953488
    116          6           0       -1.665583   -2.093846    1.609471
    117          6           0       -2.165351    1.380204    1.762401
    118          8           0       -1.019856    1.658398    2.114809
    119          6           0       -3.230663    2.557794    1.831584
    120          6           0       -2.658353    3.745050    1.106732
    121          8           0       -2.452305    3.698265   -0.118805
    122          8           0       -2.652683    4.805868    1.934391
    123          6           0       -2.103974    6.010977    1.257297
    124          1           0      -10.108613    2.580621    0.903022
    125          1           0       -9.770109   -3.285006   -1.216256
    126          1           0       -3.751890   -3.632195    0.543069
    127          1           0       -5.746345    4.343236    2.399020
    128          1           0       -8.388834    4.444640    1.427382
    129          1           0       -7.162151    3.169192    3.837493
    130          1           0       -8.627228    2.366495    3.234535
    131          1           0       -8.736729    4.038209    3.696093
    132          1           0       -6.864746    4.757570   -0.383666
    133          1           0       -5.076211    4.670731   -0.186652
    134          1           0       -6.082146    6.547368    1.703809
    135          1           0       -7.117970    6.702385    0.329801
    136          1           0      -11.824916    2.463365   -0.314072
    137          1           0      -12.898904    1.120204   -0.518123
    138          1           0      -12.251380    1.895227   -1.983309
    139          1           0      -13.537169   -0.440929   -1.977873
    140          1           0      -13.488496   -1.571152   -3.449927
    141          1           0      -12.622799   -0.008403   -3.407685
    142          1           0       -7.900964   -4.991822   -1.520802
    143          1           0       -5.871105   -5.289897    0.635037
    144          1           0       -8.998449   -6.305312   -0.037763
    145          1           0       -9.056794   -4.883208    1.062337
    146          1           0       -7.786254   -5.988763    1.200520
    147          1           0       -5.729482   -6.431081   -1.612063
    148          1           0       -4.243798   -5.672586   -1.071288
    149          1           0       -6.201375   -4.947958   -3.126753
    150          1           0       -4.405769   -4.940541   -3.270085
    151          1           0       -5.302727   -3.591123   -2.440100
    152          1           0       -0.758896   -1.639527    1.232610
    153          1           0       -1.810000   -3.092257    1.201946
    154          1           0       -1.755795   -2.078156    2.698912
    155          1           0       -3.415072    2.771253    2.885152
    156          1           0       -1.276266    6.374820    1.873892
    157          1           0       -2.964200    6.692029    1.116144
    158          1           0       -1.610237    5.868596    0.303146
 ---------------------------------------------------------------------
 Rotational constants (GHZ):           0.0256914           0.0081751           0.0074132
 Leave Link  202 at Sat Sep 11 09:45:40 2021, MaxMem= 23488102400 cpu:               0.2 elap:               0.0
 (Enter /sw/apps/gaussian-16.0/g16/l301.exe)
 Standard basis: def2SVP (5D, 7F)
 Ernie: Thresh=  0.10000D-02 Tol=  0.10000D-05 Strict=F.
 There are  1658 symmetry adapted cartesian basis functions of A   symmetry.
 There are  1572 symmetry adapted basis functions of A   symmetry.
  1572 basis functions,  2678 primitive gaussians,  1658 cartesian basis functions
   312 alpha electrons      312 beta electrons
       nuclear repulsion energy     14513.7673142290 Hartrees.
 IExCor=20419 DFT=T Ex+Corr=CAM-B3LYP ExCW=0 ScaHFX=  1.000000
 ScaDFX=  1.000000  1.000000  1.000000  0.810000 ScalE2=  1.000000  1.000000
 IRadAn=      5 IRanWt=     -1 IRanGd=            0 ICorTp=0 IEmpDi=  4
 HFx  wShort=  0.000000 wLong=  0.330000 cFull=  0.190000 cShort=  0.000000 cLong=  0.460000
 DFx  wShort=  0.000000 wLong=  0.330000 cFull=  0.190000 cShort=  0.000000 cLong=  0.460000
 NAtoms=  158 NActive=  158 NUniq=  158 SFac= 1.00D+00 NAtFMM=   60 NAOKFM=T Big=T
 Integral buffers will be    131072 words long.
 Raffenetti 1 integral format.
 Two-electron integral symmetry is turned on.
 Leave Link  301 at Sat Sep 11 09:45:40 2021, MaxMem= 23488102400 cpu:               1.4 elap:               0.1
 (Enter /sw/apps/gaussian-16.0/g16/l302.exe)
 NPDir=0 NMtPBC=     1 NCelOv=     1 NCel=       1 NClECP=     1 NCelD=      1
         NCelK=      1 NCelE2=     1 NClLst=     1 CellRange=     0.0.
 One-electron integrals computed using PRISM.
 One-electron integral symmetry used in STVInt
   1 Symmetry operations used in ECPInt.
 ECPInt:  NShTT=  271216 NPrTT=  987664 LenC2=  125619 LenP2D=  271394.
 LDataN:  DoStor=T MaxTD1= 4 Len=   56
 NBasis=  1572 RedAO= T EigKep=  3.36D-04  NBF=  1572
 NBsUse=  1572 1.00D-06 EigRej= -1.00D+00 NBFU=  1572
 Precomputing XC quadrature grid using
 IXCGrd= 4 IRadAn=           5 IRanWt=          -1 IRanGd=           0 AccXCQ= 0.00D+00.
 Generated NRdTot=       0 NPtTot=           0 NUsed=           0 NTot=          32
 NSgBfM=  1462  1462  1462  1462  1462 MxSgAt=   158 MxSgA2=   158.
 Leave Link  302 at Sat Sep 11 09:45:46 2021, MaxMem= 23488102400 cpu:             127.3 elap:               5.3
 (Enter /sw/apps/gaussian-16.0/g16/l303.exe)
 DipDrv:  MaxL=1.
 Leave Link  303 at Sat Sep 11 09:45:46 2021, MaxMem= 23488102400 cpu:               8.9 elap:               0.4
 (Enter /sw/apps/gaussian-16.0/g16/l308.exe)
 Leave Link  308 at Sat Sep 11 09:45:47 2021, MaxMem= 23488102400 cpu:              12.3 elap:               0.6
 (Enter /sw/apps/gaussian-16.0/g16/l401.exe)
 ExpMin= 3.36D-02 ExpMax= 4.95D+03 ExpMxC= 7.45D+02 IAcc=3 IRadAn=         5 AccDes= 0.00D+00
 Harris functional with IExCor=20419 and IRadAn=       5 diagonalized for initial guess.
 HarFok:  IExCor=20419 AccDes= 0.00D+00 IRadAn=         5 IDoV= 1 UseB2=F ITyADJ=14
 ICtDFT=  3500011 ScaDFX=  1.000000  1.000000  1.000000  1.000000
 FoFCou: FMM=F IPFlag=           0 FMFlag=      100000 FMFlg1=        2001
         NFxFlg=           0 DoJE=T BraDBF=F KetDBF=T FulRan=T
         wScrn=  0.000000 ICntrl=       500 IOpCl=  0 I1Cent=   200000004 NGrid=           0
         NMat0=    1 NMatS0=      1 NMatT0=    0 NMatD0=    1 NMtDS0=    0 NMtDT0=    0
 Petite list used in FoFCou.
 Harris En= -3918.65802615845    
 JPrj=0 DoOrth=F DoCkMO=F.
 Leave Link  401 at Sat Sep 11 09:45:54 2021, MaxMem= 23488102400 cpu:             168.8 elap:               7.1
 (Enter /sw/apps/gaussian-16.0/g16/l502.exe)
 Integral symmetry usage will be decided dynamically.
 Closed shell SCF:
 Using DIIS extrapolation, IDIIS=  1040.
 NGot= 23488102400 LenX= 23482547354 LenY= 23479796732
 Requested convergence on RMS density matrix=1.00D-08 within 128 cycles.
 Requested convergence on MAX density matrix=1.00D-06.
 Requested convergence on             energy=1.00D-06.
 No special actions if energy rises.
 Fock matrices will be formed incrementally for  20 cycles.

 Cycle   1  Pass 1  IDiag  1:
 FoFJK:  IHMeth= 1 ICntrl=       0 DoSepK=T KAlg= 0 I1Cent=           0 FoldK=F
 IRaf=         1 NMat=       1 IRICut=       1 DoRegI=T DoRafI=F ISym2E= 0 IDoP0=0 IntGTp=1.
 FoFCou: FMM=T IPFlag=           0 FMFlag=      100000 FMFlg1=        2001
         NFxFlg=           0 DoJE=T BraDBF=F KetDBF=F FulRan=T
         wScrn=  0.000000 ICntrl=       500 IOpCl=  0 I1Cent=           0 NGrid=           0
         NMat0=    1 NMatS0=      1 NMatT0=    0 NMatD0=    1 NMtDS0=    0 NMtDT0=    0
 Symmetry not used in FoFCou.
 FMM levels:  10  Number of levels for PrismC:   9
 E= -4068.94871168045    
 DIIS: error= 2.04D-02 at cycle   1 NSaved=   1.
 NSaved= 1 IEnMin= 1 EnMin= -4068.94871168045     IErMin= 1 ErrMin= 2.04D-02
 ErrMax= 2.04D-02  0.00D+00 EMaxC= 1.00D-01 BMatC= 1.69D+00 BMatP= 1.69D+00
 IDIUse=3 WtCom= 7.96D-01 WtEn= 2.04D-01
 Coeff-Com:  0.100D+01
 Coeff-En:   0.100D+01
 Coeff:      0.100D+01
 Gap=     0.120 Goal=   None    Shift=    0.000
 GapD=    0.120 DampG=1.000 DampE=0.500 DampFc=0.5000 IDamp=-1.
 Damping current iteration by 5.00D-01
 RMSDP=1.57D-03 MaxDP=1.36D-01              OVMax= 2.00D-01

 Cycle   2  Pass 1  IDiag  1:
 RMSU=  7.69D-04    CP:  9.82D-01
 E= -4069.33750227230     Delta-E=       -0.388790591849 Rises=F Damp=T
 DIIS: error= 1.27D-02 at cycle   2 NSaved=   2.
 NSaved= 2 IEnMin= 2 EnMin= -4069.33750227230     IErMin= 2 ErrMin= 1.27D-02
 ErrMax= 1.27D-02  0.00D+00 EMaxC= 1.00D-01 BMatC= 3.07D-01 BMatP= 1.69D+00
 IDIUse=3 WtCom= 8.73D-01 WtEn= 1.27D-01
 Coeff-Com: -0.213D+00 0.121D+01
 Coeff-En:   0.000D+00 0.100D+01
 Coeff:     -0.186D+00 0.119D+01
 Gap=     0.136 Goal=   None    Shift=    0.000
 RMSDP=7.65D-04 MaxDP=9.30D-02 DE=-3.89D-01 OVMax= 1.89D-01

 Cycle   3  Pass 1  IDiag  1:
 RMSU=  7.32D-04    CP:  9.68D-01  1.24D+00
 E= -4069.62648770360     Delta-E=       -0.288985431307 Rises=F Damp=F
 DIIS: error= 1.60D-02 at cycle   3 NSaved=   3.
 NSaved= 3 IEnMin= 3 EnMin= -4069.62648770360     IErMin= 2 ErrMin= 1.27D-02
 ErrMax= 1.60D-02  0.00D+00 EMaxC= 1.00D-01 BMatC= 2.03D-01 BMatP= 3.07D-01
 IDIUse=3 WtCom= 8.40D-01 WtEn= 1.60D-01
 Coeff-Com: -0.267D+00 0.653D+00 0.614D+00
 Coeff-En:   0.000D+00 0.000D+00 0.100D+01
 Coeff:     -0.225D+00 0.548D+00 0.676D+00
 Gap=     0.121 Goal=   None    Shift=    0.000
 RMSDP=5.11D-04 MaxDP=4.85D-02 DE=-2.89D-01 OVMax= 1.42D-01

 Cycle   4  Pass 1  IDiag  1:
 RMSU=  2.67D-04    CP:  9.65D-01  1.55D+00  5.02D-01
 E= -4069.76324768790     Delta-E=       -0.136759984292 Rises=F Damp=F
 DIIS: error= 7.59D-03 at cycle   4 NSaved=   4.
 NSaved= 4 IEnMin= 4 EnMin= -4069.76324768790     IErMin= 4 ErrMin= 7.59D-03
 ErrMax= 7.59D-03  0.00D+00 EMaxC= 1.00D-01 BMatC= 5.22D-02 BMatP= 2.03D-01
 IDIUse=3 WtCom= 9.24D-01 WtEn= 7.59D-02
 Coeff-Com: -0.109D+00 0.227D+00 0.411D+00 0.472D+00
 Coeff-En:   0.000D+00 0.000D+00 0.226D+00 0.774D+00
 Coeff:     -0.101D+00 0.209D+00 0.396D+00 0.495D+00
 Gap=     0.120 Goal=   None    Shift=    0.000
 RMSDP=2.03D-04 MaxDP=2.17D-02 DE=-1.37D-01 OVMax= 6.21D-02

 Cycle   5  Pass 1  IDiag  1:
 RMSU=  7.73D-05    CP:  9.64D-01  1.49D+00  6.88D-01  5.44D-01
 E= -4069.80998938893     Delta-E=       -0.046741701030 Rises=F Damp=F
 DIIS: error= 8.37D-04 at cycle   5 NSaved=   5.
 NSaved= 5 IEnMin= 5 EnMin= -4069.80998938893     IErMin= 5 ErrMin= 8.37D-04
 ErrMax= 8.37D-04  0.00D+00 EMaxC= 1.00D-01 BMatC= 1.25D-03 BMatP= 5.22D-02
 IDIUse=3 WtCom= 9.92D-01 WtEn= 8.37D-03
 Coeff-Com: -0.364D-01 0.714D-01 0.168D+00 0.252D+00 0.544D+00
 Coeff-En:   0.000D+00 0.000D+00 0.000D+00 0.000D+00 0.100D+01
 Coeff:     -0.361D-01 0.708D-01 0.167D+00 0.250D+00 0.548D+00
 Gap=     0.120 Goal=   None    Shift=    0.000
 RMSDP=4.17D-05 MaxDP=4.14D-03 DE=-4.67D-02 OVMax= 1.65D-02

 Cycle   6  Pass 1  IDiag  1:
 RMSU=  3.05D-05    CP:  9.64D-01  1.49D+00  6.80D-01  6.17D-01  7.50D-01
 E= -4069.81107109321     Delta-E=       -0.001081704286 Rises=F Damp=F
 DIIS: error= 2.17D-04 at cycle   6 NSaved=   6.
 NSaved= 6 IEnMin= 6 EnMin= -4069.81107109321     IErMin= 6 ErrMin= 2.17D-04
 ErrMax= 2.17D-04  0.00D+00 EMaxC= 1.00D-01 BMatC= 1.77D-04 BMatP= 1.25D-03
 IDIUse=3 WtCom= 9.98D-01 WtEn= 2.17D-03
 Coeff-Com:  0.225D-02-0.668D-02 0.114D-01 0.406D-01 0.300D+00 0.652D+00
 Coeff-En:   0.000D+00 0.000D+00 0.000D+00 0.000D+00 0.944D-01 0.906D+00
 Coeff:      0.225D-02-0.666D-02 0.114D-01 0.406D-01 0.300D+00 0.653D+00
 Gap=     0.120 Goal=   None    Shift=    0.000
 RMSDP=1.59D-05 MaxDP=1.18D-03 DE=-1.08D-03 OVMax= 7.27D-03

 Cycle   7  Pass 1  IDiag  1:
 RMSU=  1.08D-05    CP:  9.64D-01  1.50D+00  6.86D-01  6.17D-01  8.50D-01
                    CP:  7.55D-01
 E= -4069.81125996612     Delta-E=       -0.000188872906 Rises=F Damp=F
 DIIS: error= 8.27D-05 at cycle   7 NSaved=   7.
 NSaved= 7 IEnMin= 7 EnMin= -4069.81125996612     IErMin= 7 ErrMin= 8.27D-05
 ErrMax= 8.27D-05  0.00D+00 EMaxC= 1.00D-01 BMatC= 2.16D-05 BMatP= 1.77D-04
 IDIUse=1 WtCom= 1.00D+00 WtEn= 0.00D+00
 Coeff-Com:  0.447D-02-0.978D-02-0.887D-02-0.340D-02 0.101D+00 0.333D+00
 Coeff-Com:  0.584D+00
 Coeff:      0.447D-02-0.978D-02-0.887D-02-0.340D-02 0.101D+00 0.333D+00
 Coeff:      0.584D+00
 Gap=     0.120 Goal=   None    Shift=    0.000
 RMSDP=6.52D-06 MaxDP=1.08D-03 DE=-1.89D-04 OVMax= 3.40D-03

 Cycle   8  Pass 1  IDiag  1:
 RMSU=  4.68D-06    CP:  9.64D-01  1.50D+00  6.86D-01  6.22D-01  8.53D-01
                    CP:  8.79D-01  8.17D-01
 E= -4069.81128654689     Delta-E=       -0.000026580772 Rises=F Damp=F
 DIIS: error= 5.32D-05 at cycle   8 NSaved=   8.
 NSaved= 8 IEnMin= 8 EnMin= -4069.81128654689     IErMin= 8 ErrMin= 5.32D-05
 ErrMax= 5.32D-05  0.00D+00 EMaxC= 1.00D-01 BMatC= 4.85D-06 BMatP= 2.16D-05
 IDIUse=1 WtCom= 1.00D+00 WtEn= 0.00D+00
 Coeff-Com:  0.216D-02-0.428D-02-0.776D-02-0.120D-01-0.108D-01 0.349D-01
 Coeff-Com:  0.340D+00 0.658D+00
 Coeff:      0.216D-02-0.428D-02-0.776D-02-0.120D-01-0.108D-01 0.349D-01
 Coeff:      0.340D+00 0.658D+00
 Gap=     0.121 Goal=   None    Shift=    0.000
 RMSDP=3.27D-06 MaxDP=3.47D-04 DE=-2.66D-05 OVMax= 1.11D-03

 Cycle   9  Pass 1  IDiag  1:
 RMSU=  1.91D-06    CP:  9.64D-01  1.50D+00  6.87D-01  6.23D-01  8.70D-01
                    CP:  9.05D-01  1.01D+00  9.46D-01
 E= -4069.81129423750     Delta-E=       -0.000007690607 Rises=F Damp=F
 DIIS: error= 1.93D-05 at cycle   9 NSaved=   9.
 NSaved= 9 IEnMin= 9 EnMin= -4069.81129423750     IErMin= 9 ErrMin= 1.93D-05
 ErrMax= 1.93D-05  0.00D+00 EMaxC= 1.00D-01 BMatC= 6.84D-07 BMatP= 4.85D-06
 IDIUse=1 WtCom= 1.00D+00 WtEn= 0.00D+00
 Coeff-Com:  0.457D-03-0.757D-03-0.266D-02-0.595D-02-0.206D-01-0.387D-01
 Coeff-Com:  0.101D+00 0.324D+00 0.643D+00
 Coeff:      0.457D-03-0.757D-03-0.266D-02-0.595D-02-0.206D-01-0.387D-01
 Coeff:      0.101D+00 0.324D+00 0.643D+00
 Gap=     0.121 Goal=   None    Shift=    0.000
 RMSDP=1.42D-06 MaxDP=1.55D-04 DE=-7.69D-06 OVMax= 7.36D-04

 Cycle  10  Pass 1  IDiag  1:
 RMSU=  9.35D-07    CP:  9.64D-01  1.50D+00  6.87D-01  6.24D-01  8.73D-01
                    CP:  9.19D-01  1.06D+00  1.11D+00  1.06D+00
 E= -4069.81129582364     Delta-E=       -0.000001586144 Rises=F Damp=F
 DIIS: error= 1.04D-05 at cycle  10 NSaved=  10.
 NSaved=10 IEnMin=10 EnMin= -4069.81129582364     IErMin=10 ErrMin= 1.04D-05
 ErrMax= 1.04D-05  0.00D+00 EMaxC= 1.00D-01 BMatC= 1.71D-07 BMatP= 6.84D-07
 IDIUse=1 WtCom= 1.00D+00 WtEn= 0.00D+00
 Coeff-Com: -0.417D-03 0.875D-03 0.119D-02 0.104D-02-0.374D-02-0.308D-01
 Coeff-Com: -0.444D-01-0.743D-01 0.256D+00 0.895D+00
 Coeff:     -0.417D-03 0.875D-03 0.119D-02 0.104D-02-0.374D-02-0.308D-01
 Coeff:     -0.444D-01-0.743D-01 0.256D+00 0.895D+00
 Gap=     0.121 Goal=   None    Shift=    0.000
 RMSDP=1.21D-06 MaxDP=1.22D-04 DE=-1.59D-06 OVMax= 6.04D-04

 Cycle  11  Pass 1  IDiag  1:
 RMSU=  5.21D-07    CP:  9.64D-01  1.50D+00  6.87D-01  6.24D-01  8.75D-01
                    CP:  9.29D-01  1.10D+00  1.22D+00  1.39D+00  1.37D+00
 E= -4069.81129660239     Delta-E=       -0.000000778746 Rises=F Damp=F
 DIIS: error= 4.00D-06 at cycle  11 NSaved=  11.
 NSaved=11 IEnMin=11 EnMin= -4069.81129660239     IErMin=11 ErrMin= 4.00D-06
 ErrMax= 4.00D-06  0.00D+00 EMaxC= 1.00D-01 BMatC= 6.23D-08 BMatP= 1.71D-07
 IDIUse=1 WtCom= 1.00D+00 WtEn= 0.00D+00
 Coeff-Com: -0.325D-03 0.632D-03 0.132D-02 0.210D-02 0.430D-02-0.826D-02
 Coeff-Com: -0.425D-01-0.133D+00-0.250D-01 0.467D+00 0.733D+00
 Coeff:     -0.325D-03 0.632D-03 0.132D-02 0.210D-02 0.430D-02-0.826D-02
 Coeff:     -0.425D-01-0.133D+00-0.250D-01 0.467D+00 0.733D+00
 Gap=     0.121 Goal=   None    Shift=    0.000
 RMSDP=6.93D-07 MaxDP=6.25D-05 DE=-7.79D-07 OVMax= 3.80D-04

 Cycle  12  Pass 1  IDiag  1:
 RMSU=  2.67D-07    CP:  9.64D-01  1.50D+00  6.87D-01  6.24D-01  8.76D-01
                    CP:  9.31D-01  1.13D+00  1.29D+00  1.56D+00  1.77D+00
                    CP:  1.19D+00
 E= -4069.81129686921     Delta-E=       -0.000000266824 Rises=F Damp=F
 DIIS: error= 2.37D-06 at cycle  12 NSaved=  12.
 NSaved=12 IEnMin=12 EnMin= -4069.81129686921     IErMin=12 ErrMin= 2.37D-06
 ErrMax= 2.37D-06  0.00D+00 EMaxC= 1.00D-01 BMatC= 1.51D-08 BMatP= 6.23D-08
 IDIUse=1 WtCom= 1.00D+00 WtEn= 0.00D+00
 Coeff-Com: -0.457D-05-0.765D-05 0.199D-03 0.540D-03 0.326D-02 0.401D-02
 Coeff-Com:  0.217D-02-0.364D-01-0.686D-01-0.686D-01 0.256D+00 0.908D+00
 Coeff:     -0.457D-05-0.765D-05 0.199D-03 0.540D-03 0.326D-02 0.401D-02
 Coeff:      0.217D-02-0.364D-01-0.686D-01-0.686D-01 0.256D+00 0.908D+00
 Gap=     0.121 Goal=   None    Shift=    0.000
 RMSDP=4.38D-07 MaxDP=2.98D-05 DE=-2.67D-07 OVMax= 2.49D-04

 Cycle  13  Pass 1  IDiag  1:
 RMSU=  1.68D-07    CP:  9.64D-01  1.50D+00  6.87D-01  6.24D-01  8.77D-01
                    CP:  9.31D-01  1.13D+00  1.31D+00  1.67D+00  2.00D+00
                    CP:  1.60D+00  1.27D+00
 E= -4069.81129696231     Delta-E=       -0.000000093103 Rises=F Damp=F
 DIIS: error= 1.27D-06 at cycle  13 NSaved=  13.
 NSaved=13 IEnMin=13 EnMin= -4069.81129696231     IErMin=13 ErrMin= 1.27D-06
 ErrMax= 1.27D-06  0.00D+00 EMaxC= 1.00D-01 BMatC= 8.33D-09 BMatP= 1.51D-08
 IDIUse=1 WtCom= 1.00D+00 WtEn= 0.00D+00
 Coeff-Com:  0.119D-03-0.244D-03-0.367D-03-0.448D-03 0.563D-03 0.514D-02
 Coeff-Com:  0.194D-01 0.230D-01-0.335D-01-0.243D+00-0.160D+00 0.595D+00
 Coeff-Com:  0.794D+00
 Coeff:      0.119D-03-0.244D-03-0.367D-03-0.448D-03 0.563D-03 0.514D-02
 Coeff:      0.194D-01 0.230D-01-0.335D-01-0.243D+00-0.160D+00 0.595D+00
 Coeff:      0.794D+00
 Gap=     0.121 Goal=   None    Shift=    0.000
 RMSDP=3.49D-07 MaxDP=2.24D-05 DE=-9.31D-08 OVMax= 2.06D-04

 Cycle  14  Pass 1  IDiag  1:
 RMSU=  7.77D-08    CP:  9.64D-01  1.50D+00  6.87D-01  6.24D-01  8.77D-01
                    CP:  9.32D-01  1.14D+00  1.34D+00  1.74D+00  2.19D+00
                    CP:  1.86D+00  1.79D+00  1.10D+00
 E= -4069.81129700002     Delta-E=       -0.000000037704 Rises=F Damp=F
 DIIS: error= 6.52D-07 at cycle  14 NSaved=  14.
 NSaved=14 IEnMin=14 EnMin= -4069.81129700002     IErMin=14 ErrMin= 6.52D-07
 ErrMax= 6.52D-07  0.00D+00 EMaxC= 1.00D-01 BMatC= 1.29D-09 BMatP= 8.33D-09
 IDIUse=1 WtCom= 1.00D+00 WtEn= 0.00D+00
 Coeff-Com:  0.670D-04-0.132D-03-0.249D-03-0.388D-03-0.481D-03 0.134D-02
 Coeff-Com:  0.107D-01 0.196D-01 0.389D-02-0.102D+00-0.145D+00 0.948D-01
 Coeff-Com:  0.411D+00 0.708D+00
 Coeff:      0.670D-04-0.132D-03-0.249D-03-0.388D-03-0.481D-03 0.134D-02
 Coeff:      0.107D-01 0.196D-01 0.389D-02-0.102D+00-0.145D+00 0.948D-01
 Coeff:      0.411D+00 0.708D+00
 Gap=     0.121 Goal=   None    Shift=    0.000
 RMSDP=1.04D-07 MaxDP=6.51D-06 DE=-3.77D-08 OVMax= 5.83D-05

 Cycle  15  Pass 1  IDiag  1:
 RMSU=  3.89D-08    CP:  9.64D-01  1.50D+00  6.87D-01  6.24D-01  8.77D-01
                    CP:  9.32D-01  1.14D+00  1.34D+00  1.76D+00  2.24D+00
                    CP:  1.97D+00  1.93D+00  1.34D+00  1.03D+00
 E= -4069.81129700427     Delta-E=       -0.000000004256 Rises=F Damp=F
 DIIS: error= 3.56D-07 at cycle  15 NSaved=  15.
 NSaved=15 IEnMin=15 EnMin= -4069.81129700427     IErMin=15 ErrMin= 3.56D-07
 ErrMax= 3.56D-07  0.00D+00 EMaxC= 1.00D-01 BMatC= 2.31D-10 BMatP= 1.29D-09
 IDIUse=1 WtCom= 1.00D+00 WtEn= 0.00D+00
 Coeff-Com:  0.589D-05-0.995D-05-0.352D-04-0.855D-04-0.303D-03-0.504D-03
 Coeff-Com:  0.118D-02 0.278D-02 0.887D-02 0.128D-02-0.319D-01-0.733D-01
 Coeff-Com:  0.308D-01 0.298D+00 0.764D+00
 Coeff:      0.589D-05-0.995D-05-0.352D-04-0.855D-04-0.303D-03-0.504D-03
 Coeff:      0.118D-02 0.278D-02 0.887D-02 0.128D-02-0.319D-01-0.733D-01
 Coeff:      0.308D-01 0.298D+00 0.764D+00
 Gap=     0.121 Goal=   None    Shift=    0.000
 RMSDP=4.18D-08 MaxDP=2.55D-06 DE=-4.26D-09 OVMax= 2.79D-05

 Cycle  16  Pass 1  IDiag  1:
 RMSU=  1.93D-08    CP:  9.64D-01  1.50D+00  6.87D-01  6.24D-01  8.77D-01
                    CP:  9.32D-01  1.14D+00  1.34D+00  1.76D+00  2.25D+00
                    CP:  1.99D+00  1.99D+00  1.42D+00  1.25D+00  1.14D+00
 E= -4069.81129700521     Delta-E=       -0.000000000935 Rises=F Damp=F
 DIIS: error= 1.80D-07 at cycle  16 NSaved=  16.
 NSaved=16 IEnMin=16 EnMin= -4069.81129700521     IErMin=16 ErrMin= 1.80D-07
 ErrMax= 1.80D-07  0.00D+00 EMaxC= 1.00D-01 BMatC= 8.63D-11 BMatP= 2.31D-10
 IDIUse=1 WtCom= 1.00D+00 WtEn= 0.00D+00
 Coeff-Com: -0.143D-04 0.290D-04 0.472D-04 0.533D-04-0.291D-04-0.644D-03
 Coeff-Com: -0.198D-02-0.430D-02 0.445D-02 0.263D-01 0.211D-01-0.653D-01
 Coeff-Com: -0.839D-01-0.393D-01 0.404D+00 0.739D+00
 Coeff:     -0.143D-04 0.290D-04 0.472D-04 0.533D-04-0.291D-04-0.644D-03
 Coeff:     -0.198D-02-0.430D-02 0.445D-02 0.263D-01 0.211D-01-0.653D-01
 Coeff:     -0.839D-01-0.393D-01 0.404D+00 0.739D+00
 Gap=     0.121 Goal=   None    Shift=    0.000
 RMSDP=2.35D-08 MaxDP=1.48D-06 DE=-9.35D-10 OVMax= 1.41D-05

 Cycle  17  Pass 1  IDiag  1:
 RMSU=  1.07D-08    CP:  9.64D-01  1.50D+00  6.87D-01  6.24D-01  8.77D-01
                    CP:  9.32D-01  1.14D+00  1.34D+00  1.77D+00  2.26D+00
                    CP:  2.01D+00  2.02D+00  1.46D+00  1.34D+00  1.44D+00
                    CP:  1.24D+00
 E= -4069.81129700527     Delta-E=       -0.000000000062 Rises=F Damp=F
 DIIS: error= 9.39D-08 at cycle  17 NSaved=  17.
 NSaved=17 IEnMin=17 EnMin= -4069.81129700527     IErMin=17 ErrMin= 9.39D-08
 ErrMax= 9.39D-08  0.00D+00 EMaxC= 1.00D-01 BMatC= 1.80D-11 BMatP= 8.63D-11
 IDIUse=1 WtCom= 1.00D+00 WtEn= 0.00D+00
 Coeff-Com: -0.732D-05 0.142D-04 0.291D-04 0.432D-04 0.830D-04-0.124D-03
 Coeff-Com: -0.970D-03-0.286D-02 0.303D-04 0.961D-02 0.178D-01-0.741D-02
 Coeff-Com: -0.372D-01-0.104D+00-0.285D-01 0.284D+00 0.870D+00
 Coeff:     -0.732D-05 0.142D-04 0.291D-04 0.432D-04 0.830D-04-0.124D-03
 Coeff:     -0.970D-03-0.286D-02 0.303D-04 0.961D-02 0.178D-01-0.741D-02
 Coeff:     -0.372D-01-0.104D+00-0.285D-01 0.284D+00 0.870D+00
 Gap=     0.121 Goal=   None    Shift=    0.000
 RMSDP=1.43D-08 MaxDP=1.00D-06 DE=-6.18D-11 OVMax= 9.01D-06

 Cycle  18  Pass 1  IDiag  1:
 RMSU=  5.04D-09    CP:  9.64D-01  1.50D+00  6.87D-01  6.24D-01  8.77D-01
                    CP:  9.32D-01  1.14D+00  1.34D+00  1.77D+00  2.26D+00
                    CP:  2.01D+00  2.03D+00  1.48D+00  1.41D+00  1.62D+00
                    CP:  1.64D+00  1.39D+00
 E= -4069.81129700550     Delta-E=       -0.000000000226 Rises=F Damp=F
 DIIS: error= 5.09D-08 at cycle  18 NSaved=  18.
 NSaved=18 IEnMin=18 EnMin= -4069.81129700550     IErMin=18 ErrMin= 5.09D-08
 ErrMax= 5.09D-08  0.00D+00 EMaxC= 1.00D-01 BMatC= 6.94D-12 BMatP= 1.80D-11
 IDIUse=1 WtCom= 1.00D+00 WtEn= 0.00D+00
 Coeff-Com:  0.187D-05-0.406D-05-0.386D-05-0.569D-06 0.591D-04 0.182D-03
 Coeff-Com:  0.375D-03 0.174D-03-0.128D-02-0.600D-02 0.795D-04 0.199D-01
 Coeff-Com:  0.180D-01-0.332D-01-0.156D+00-0.188D+00 0.353D+00 0.993D+00
 Coeff:      0.187D-05-0.406D-05-0.386D-05-0.569D-06 0.591D-04 0.182D-03
 Coeff:      0.375D-03 0.174D-03-0.128D-02-0.600D-02 0.795D-04 0.199D-01
 Coeff:      0.180D-01-0.332D-01-0.156D+00-0.188D+00 0.353D+00 0.993D+00
 Gap=     0.121 Goal=   None    Shift=    0.000
 RMSDP=1.17D-08 MaxDP=7.49D-07 DE=-2.26D-10 OVMax= 7.21D-06

 Cycle  19  Pass 1  IDiag  1:
 RMSU=  2.85D-09    CP:  9.64D-01  1.50D+00  6.87D-01  6.24D-01  8.77D-01
                    CP:  9.32D-01  1.14D+00  1.34D+00  1.77D+00  2.26D+00
                    CP:  2.01D+00  2.03D+00  1.50D+00  1.46D+00  1.77D+00
                    CP:  1.96D+00  1.93D+00  1.36D+00
 E= -4069.81129700543     Delta-E=        0.000000000065 Rises=F Damp=F
 DIIS: error= 4.01D-08 at cycle  19 NSaved=  19.
 NSaved=19 IEnMin=18 EnMin= -4069.81129700550     IErMin=19 ErrMin= 4.01D-08
 ErrMax= 4.01D-08  0.00D+00 EMaxC= 1.00D-01 BMatC= 1.61D-12 BMatP= 6.94D-12
 IDIUse=1 WtCom= 1.00D+00 WtEn= 0.00D+00
 Coeff-Com:  0.293D-05-0.592D-05-0.100D-04-0.123D-04 0.114D-04 0.125D-03
 Coeff-Com:  0.476D-03 0.822D-03-0.607D-03-0.616D-02-0.500D-02 0.123D-01
 Coeff-Com:  0.206D-01 0.112D-01-0.705D-01-0.183D+00-0.355D-01 0.509D+00
 Coeff-Com:  0.745D+00
 Coeff:      0.293D-05-0.592D-05-0.100D-04-0.123D-04 0.114D-04 0.125D-03
 Coeff:      0.476D-03 0.822D-03-0.607D-03-0.616D-02-0.500D-02 0.123D-01
 Coeff:      0.206D-01 0.112D-01-0.705D-01-0.183D+00-0.355D-01 0.509D+00
 Coeff:      0.745D+00
 Gap=     0.121 Goal=   None    Shift=    0.000
 RMSDP=4.90D-09 MaxDP=3.08D-07 DE= 6.55D-11 OVMax= 2.80D-06

 SCF Done:  E(RCAM-B3LYP) =  -4069.81129701     A.U. after   19 cycles
            NFock= 19  Conv=0.49D-08     -V/T= 2.0102
 KE= 4.028801395817D+03 PE=-3.850974615101D+04 EE= 1.589736614396D+04
 Leave Link  502 at Sat Sep 11 09:55:32 2021, MaxMem= 23488102400 cpu:           13267.2 elap:             577.9
 (Enter /sw/apps/gaussian-16.0/g16/l801.exe)
 DoSCS=F DFT=T ScalE2(SS,OS)=  1.000000  1.000000
 ExpMin= 3.36D-02 ExpMax= 4.95D+03 ExpMxC= 7.45D+02 IAcc=3 IRadAn=         5 AccDes= 0.00D+00
 HarFok:  IExCor=  205 AccDes= 0.00D+00 IRadAn=         5 IDoV=-2 UseB2=F ITyADJ=14
 ICtDFT= 12500011 ScaDFX=  1.000000  1.000000  1.000000  1.000000
 GSVD:  LWork=       -9588 too small for GESVD, short by       45590 words or       45590 for optimal perf.
 Largest valence mixing into a core orbital is  2.03D-04
 Largest core mixing into a valence orbital is  5.24D-05
 Range of M.O.s used for correlation:    95  1572
 NBasis=  1572 NAE=   312 NBE=   312 NFC=    94 NFV=     0
 NROrb=   1478 NOA=   218 NOB=   218 NVA=  1260 NVB=  1260
 Leave Link  801 at Sat Sep 11 09:55:32 2021, MaxMem= 23488102400 cpu:               9.5 elap:               0.4
 (Enter /sw/apps/gaussian-16.0/g16/l914.exe)
 RHF ground state
 Two-electron integrals replicated using symmetry.
 MDV= 23488102400 DFT=T DoStab=F Mixed=T DoRPA=T DoScal=F NonHer=T
 Making orbital integer symmetry assigments:
 Orbital symmetries:
       Occupied  (A) (A) (A) (A) (A) (A) (A) (A) (A) (A) (A) (A)
                 (A) (A) (A) (A) (A) (A) (A) (A) (A) (A) (A) (A)
                 (A) (A) (A) (A) (A) (A) (A) (A) (A) (A) (A) (A)
                 (A) (A) (A) (A) (A) (A) (A) (A) (A) (A) (A) (A)
                 (A) (A) (A) (A) (A) (A) (A) (A) (A) (A) (A) (A)
                 (A) (A) (A) (A) (A) (A) (A) (A) (A) (A) (A) (A)
                 (A) (A) (A) (A) (A) (A) (A) (A) (A) (A) (A) (A)
                 (A) (A) (A) (A) (A) (A) (A) (A) (A) (A) (A) (A)
                 (A) (A) (A) (A) (A) (A) (A) (A) (A) (A) (A) (A)
                 (A) (A) (A) (A) (A) (A) (A) (A) (A) (A) (A) (A)
                 (A) (A) (A) (A) (A) (A) (A) (A) (A) (A) (A) (A)
                 (A) (A) (A) (A) (A) (A) (A) (A) (A) (A) (A) (A)
                 (A) (A) (A) (A) (A) (A) (A) (A) (A) (A) (A) (A)
                 (A) (A) (A) (A) (A) (A) (A) (A) (A) (A) (A) (A)
                 (A) (A) (A) (A) (A) (A) (A) (A) (A) (A) (A) (A)
                 (A) (A) (A) (A) (A) (A) (A) (A) (A) (A) (A) (A)
                 (A) (A) (A) (A) (A) (A) (A) (A) (A) (A) (A) (A)
                 (A) (A) (A) (A) (A) (A) (A) (A) (A) (A) (A) (A)
                 (A) (A) (A) (A) (A) (A) (A) (A) (A) (A) (A) (A)
                 (A) (A) (A) (A) (A) (A) (A) (A) (A) (A) (A) (A)
                 (A) (A) (A) (A) (A) (A) (A) (A) (A) (A) (A) (A)
                 (A) (A) (A) (A) (A) (A) (A) (A) (A) (A) (A) (A)
                 (A) (A) (A) (A) (A) (A) (A) (A) (A) (A) (A) (A)
                 (A) (A) (A) (A) (A) (A) (A) (A) (A) (A) (A) (A)
                 (A) (A) (A) (A) (A) (A) (A) (A) (A) (A) (A) (A)
                 (A) (A) (A) (A) (A) (A) (A) (A) (A) (A) (A) (A)
       Virtual   (A) (A) (A) (A) (A) (A) (A) (A) (A) (A) (A) (A)
                 (A) (A) (A) (A) (A) (A) (A) (A) (A) (A) (A) (A)
                 (A) (A) (A) (A) (A) (A) (A) (A) (A) (A) (A) (A)
                 (A) (A) (A) (A) (A) (A) (A) (A) (A) (A) (A) (A)
                 (A) (A) (A) (A) (A) (A) (A) (A) (A) (A) (A) (A)
                 (A) (A) (A) (A) (A) (A) (A) (A) (A) (A) (A) (A)
                 (A) (A) (A) (A) (A) (A) (A) (A) (A) (A) (A) (A)
                 (A) (A) (A) (A) (A) (A) (A) (A) (A) (A) (A) (A)
                 (A) (A) (A) (A) (A) (A) (A) (A) (A) (A) (A) (A)
                 (A) (A) (A) (A) (A) (A) (A) (A) (A) (A) (A) (A)
                 (A) (A) (A) (A) (A) (A) (A) (A) (A) (A) (A) (A)
                 (A) (A) (A) (A) (A) (A) (A) (A) (A) (A) (A) (A)
                 (A) (A) (A) (A) (A) (A) (A) (A) (A) (A) (A) (A)
                 (A) (A) (A) (A) (A) (A) (A) (A) (A) (A) (A) (A)
                 (A) (A) (A) (A) (A) (A) (A) (A) (A) (A) (A) (A)
                 (A) (A) (A) (A) (A) (A) (A) (A) (A) (A) (A) (A)
                 (A) (A) (A) (A) (A) (A) (A) (A) (A) (A) (A) (A)
                 (A) (A) (A) (A) (A) (A) (A) (A) (A) (A) (A) (A)
                 (A) (A) (A) (A) (A) (A) (A) (A) (A) (A) (A) (A)
                 (A) (A) (A) (A) (A) (A) (A) (A) (A) (A) (A) (A)
                 (A) (A) (A) (A) (A) (A) (A) (A) (A) (A) (A) (A)
                 (A) (A) (A) (A) (A) (A) (A) (A) (A) (A) (A) (A)
                 (A) (A) (A) (A) (A) (A) (A) (A) (A) (A) (A) (A)
                 (A) (A) (A) (A) (A) (A) (A) (A) (A) (A) (A) (A)
                 (A) (A) (A) (A) (A) (A) (A) (A) (A) (A) (A) (A)
                 (A) (A) (A) (A) (A) (A) (A) (A) (A) (A) (A) (A)
                 (A) (A) (A) (A) (A) (A) (A) (A) (A) (A) (A) (A)
                 (A) (A) (A) (A) (A) (A) (A) (A) (A) (A) (A) (A)
                 (A) (A) (A) (A) (A) (A) (A) (A) (A) (A) (A) (A)
                 (A) (A) (A) (A) (A) (A) (A) (A) (A) (A) (A) (A)
                 (A) (A) (A) (A) (A) (A) (A) (A) (A) (A) (A) (A)
                 (A) (A) (A) (A) (A) (A) (A) (A) (A) (A) (A) (A)
                 (A) (A) (A) (A) (A) (A) (A) (A) (A) (A) (A) (A)
                 (A) (A) (A) (A) (A) (A) (A) (A) (A) (A) (A) (A)
                 (A) (A) (A) (A) (A) (A) (A) (A) (A) (A) (A) (A)
                 (A) (A) (A) (A) (A) (A) (A) (A) (A) (A) (A) (A)
                 (A) (A) (A) (A) (A) (A) (A) (A) (A) (A) (A) (A)
                 (A) (A) (A) (A) (A) (A) (A) (A) (A) (A) (A) (A)
                 (A) (A) (A) (A) (A) (A) (A) (A) (A) (A) (A) (A)
                 (A) (A) (A) (A) (A) (A) (A) (A) (A) (A) (A) (A)
                 (A) (A) (A) (A) (A) (A) (A) (A) (A) (A) (A) (A)
                 (A) (A) (A) (A) (A) (A) (A) (A) (A) (A) (A) (A)
                 (A) (A) (A) (A) (A) (A) (A) (A) (A) (A) (A) (A)
                 (A) (A) (A) (A) (A) (A) (A) (A) (A) (A) (A) (A)
                 (A) (A) (A) (A) (A) (A) (A) (A) (A) (A) (A) (A)
                 (A) (A) (A) (A) (A) (A) (A) (A) (A) (A) (A) (A)
                 (A) (A) (A) (A) (A) (A) (A) (A) (A) (A) (A) (A)
                 (A) (A) (A) (A) (A) (A) (A) (A) (A) (A) (A) (A)
                 (A) (A) (A) (A) (A) (A) (A) (A) (A) (A) (A) (A)
                 (A) (A) (A) (A) (A) (A) (A) (A) (A) (A) (A) (A)
                 (A) (A) (A) (A) (A) (A) (A) (A) (A) (A) (A) (A)
                 (A) (A) (A) (A) (A) (A) (A) (A) (A) (A) (A) (A)
                 (A) (A) (A) (A) (A) (A) (A) (A) (A) (A) (A) (A)
                 (A) (A) (A) (A) (A) (A) (A) (A) (A) (A) (A) (A)
                 (A) (A) (A) (A) (A) (A) (A) (A) (A) (A) (A) (A)
                 (A) (A) (A) (A) (A) (A) (A) (A) (A) (A) (A) (A)
                 (A) (A) (A) (A) (A) (A) (A) (A) (A) (A) (A) (A)
                 (A) (A) (A) (A) (A) (A) (A) (A) (A) (A) (A) (A)
                 (A) (A) (A) (A) (A) (A) (A) (A) (A) (A) (A) (A)
                 (A) (A) (A) (A) (A) (A) (A) (A) (A) (A) (A) (A)
                 (A) (A) (A) (A) (A) (A) (A) (A) (A) (A) (A) (A)
                 (A) (A) (A) (A) (A) (A) (A) (A) (A) (A) (A) (A)
                 (A) (A) (A) (A) (A) (A) (A) (A) (A) (A) (A) (A)
                 (A) (A) (A) (A) (A) (A) (A) (A) (A) (A) (A) (A)
                 (A) (A) (A) (A) (A) (A) (A) (A) (A) (A) (A) (A)
                 (A) (A) (A) (A) (A) (A) (A) (A) (A) (A) (A) (A)
                 (A) (A) (A) (A) (A) (A) (A) (A) (A) (A) (A) (A)
                 (A) (A) (A) (A) (A) (A) (A) (A) (A) (A) (A) (A)
                 (A) (A) (A) (A) (A) (A) (A) (A) (A) (A) (A) (A)
                 (A) (A) (A) (A) (A) (A) (A) (A) (A) (A) (A) (A)
                 (A) (A) (A) (A) (A) (A) (A) (A) (A) (A) (A) (A)
                 (A) (A) (A) (A) (A) (A) (A) (A) (A) (A) (A) (A)
                 (A) (A) (A) (A) (A) (A) (A) (A) (A) (A) (A) (A)
                 (A) (A) (A) (A) (A) (A) (A) (A) (A) (A) (A) (A)
                 (A) (A) (A) (A) (A) (A) (A) (A) (A) (A) (A) (A)
                 (A) (A) (A) (A) (A) (A) (A) (A) (A) (A) (A) (A)
                 (A) (A) (A) (A) (A) (A) (A) (A) (A) (A) (A) (A)
                 (A) (A) (A) (A) (A) (A) (A) (A) (A) (A) (A) (A)
                 (A) (A) (A) (A) (A) (A) (A) (A) (A) (A) (A) (A)
                 (A) (A) (A) (A) (A) (A) (A) (A) (A) (A) (A) (A)
                 (A) (A) (A) (A) (A) (A) (A) (A) (A) (A) (A) (A)
                 (A) (A) (A) (A) (A) (A) (A) (A) (A) (A) (A) (A)
                 (A) (A) (A) (A) (A) (A) (A) (A) (A) (A) (A) (A)
                 (A) (A) (A) (A) (A) (A) (A) (A) (A) (A) (A) (A)
                 (A) (A) (A) (A) (A) (A) (A) (A) (A) (A) (A) (A)
                 (A) (A) (A) (A) (A) (A) (A) (A) (A) (A) (A) (A)
                 (A) (A) (A) (A) (A) (A) (A) (A) (A) (A) (A) (A)
                 (A) (A) (A) (A) (A) (A) (A) (A) (A) (A) (A) (A)
                 (A) (A) (A) (A) (A) (A) (A) (A) (A) (A) (A) (A)
                 (A) (A) (A) (A) (A) (A) (A) (A) (A) (A) (A) (A)
                 (A) (A) (A) (A) (A) (A) (A) (A) (A) (A) (A) (A)
                 (A) (A) (A) (A) (A) (A) (A) (A) (A) (A) (A) (A)
                 (A) (A) (A) (A) (A) (A) (A) (A) (A) (A) (A) (A)
                 (A) (A) (A) (A) (A) (A) (A) (A) (A) (A) (A) (A)
                 (A) (A) (A) (A) (A) (A) (A) (A) (A) (A) (A) (A)
                 (A) (A) (A) (A) (A) (A) (A) (A) (A) (A) (A) (A)
                 (A) (A) (A) (A) (A) (A) (A) (A) (A) (A) (A) (A)
                 (A) (A) (A) (A) (A) (A) (A) (A) (A) (A) (A) (A)
                 (A) (A) (A) (A) (A) (A) (A) (A) (A) (A) (A) (A)
                 (A) (A) (A) (A) (A) (A) (A) (A) (A) (A) (A) (A)
                 (A) (A) (A) (A) (A) (A) (A) (A) (A) (A) (A) (A)
                 (A) (A) (A) (A) (A) (A) (A) (A) (A) (A) (A) (A)
                 (A) (A) (A) (A) (A) (A) (A) (A) (A) (A) (A) (A)
                 (A) (A) (A) (A) (A) (A) (A) (A) (A) (A) (A) (A)
                 (A) (A) (A) (A) (A) (A) (A) (A) (A) (A) (A) (A)
    20 initial guesses have been made.
 Convergence on wavefunction:    0.001000000000000
 Davidson Disk Diagonalization:  ConvIn= 1.00D-03 SkipCon=T Conv= 1.00D-03.
 Max sub-space:  2000 roots to seek:    20 dimension of matrix:       549360
 Iteration     1 Dimension    20 NMult     0 NNew     20
 CISAX will form    20 AO SS matrices at one time.
 NMat=    20 NSing=    20 JSym2X= 0.
 FoFJK:  IHMeth= 1 ICntrl=       0 DoSepK=T KAlg= 0 I1Cent=           0 FoldK=F
 IRaf=         1 NMat=      40 IRICut=       1 DoRegI=T DoRafI=F ISym2E= 0 IDoP0=3 IntGTp=3.
 FoFCou: FMM=T IPFlag=           0 FMFlag=      100000 FMFlg1=        2001
         NFxFlg=           0 DoJE=F BraDBF=F KetDBF=F FulRan=T
         wScrn=  0.000000 ICntrl=       500 IOpCl=  0 I1Cent=           0 NGrid=           0
         NMat0=   20 NMatS0=     20 NMatT0=    0 NMatD0=   20 NMtDS0=    0 NMtDT0=    0
 Symmetry not used in FoFCou.
 FMM levels:  10  Number of levels for PrismC:   9
 New state      2 was old state      7
 New state      3 was old state      6
 New state      4 was old state      2
 New state      5 was old state      3
 Excitation Energies [eV] at current iteration:
 Root      1 :     2.590263595850396
 Root      2 :     2.614320798328384
 Root      3 :     2.620257613329132
 Root      4 :     2.673715123608625
 Root      5 :     2.697533035447524
 Root      6 :     2.751398129210019
 Root      7 :     3.389843926683527
 Root      8 :     3.542224174351268
 Root      9 :     3.626349900194815
 Root     10 :     3.668075555407883
 Root     11 :     3.736868691490925
 Root     12 :     3.757121070468346
 Root     13 :     4.281879624627053
 Root     14 :     4.325316026556635
 Root     15 :     4.560870051857189
 Root     16 :     4.654543934216862
 Root     17 :     4.817222724990480
 Root     18 :     4.822176453284551
 Root     19 :     4.852575489385393
 Root     20 :     5.056575707087539
 Iteration     2 Dimension    30 NMult    20 NNew     10
 CISAX will form    10 AO SS matrices at one time.
 NMat=    10 NSing=    10 JSym2X= 0.
 New state      1 was old state      4
 Root      1 not converged, maximum delta is    0.168545319965540
 New state      2 was old state      5
 Root      2 not converged, maximum delta is    0.171028610471938
 New state      3 was old state      2
 Root      3 not converged, maximum delta is    0.250048523151592
 New state      4 was old state      3
 Root      4 not converged, maximum delta is    0.257772282734145
 New state      5 was old state      1
 Root      5 not converged, maximum delta is    0.013997670015257
 Excitation Energies [eV] at current iteration:
 Root      1 :     1.798109753592856   Change is   -0.875605370015769
 Root      2 :     1.809849229696595   Change is   -0.887683805750928
 Root      3 :     2.232926043941315   Change is   -0.381394754387070
 Root      4 :     2.240779655889245   Change is   -0.379477957439888
 Root      5 :     2.588673547857430   Change is   -0.001590047992966
 Iteration     3 Dimension    40 NMult    30 NNew     10
 CISAX will form    10 AO SS matrices at one time.
 NMat=    10 NSing=    10 JSym2X= 0.
 Root      1 not converged, maximum delta is    0.057558739363878
 Root      2 not converged, maximum delta is    0.058538707228440
 Root      3 not converged, maximum delta is    0.051469035277033
 Root      4 not converged, maximum delta is    0.051080065756362
 Root      5 has converged.
 Excitation Energies [eV] at current iteration:
 Root      1 :     1.690855983310453   Change is   -0.107253770282403
 Root      2 :     1.701752247676392   Change is   -0.108096982020203
 Root      3 :     2.192125801222516   Change is   -0.040800242718799
 Root      4 :     2.200225887292538   Change is   -0.040553768596707
 Root      5 :     2.588665395150450   Change is   -0.000008152706980
 Iteration     4 Dimension    48 NMult    40 NNew      8
 CISAX will form     8 AO SS matrices at one time.
 NMat=     8 NSing=     8 JSym2X= 0.
 Root      1 not converged, maximum delta is    0.011564267280476
 Root      2 not converged, maximum delta is    0.011417147629028
 Root      3 not converged, maximum delta is    0.013355828253921
 Root      4 not converged, maximum delta is    0.013179838277089
 Root      5 has converged.
 Excitation Energies [eV] at current iteration:
 Root      1 :     1.673950681705118   Change is   -0.016905301605335
 Root      2 :     1.685058249820970   Change is   -0.016693997855423
 Root      3 :     2.184941912323687   Change is   -0.007183888898829
 Root      4 :     2.193238220624652   Change is   -0.006987666667886
 Root      5 :     2.588665391435866   Change is   -0.000000003714583
 Iteration     5 Dimension    56 NMult    48 NNew      8
 CISAX will form     8 AO SS matrices at one time.
 NMat=     8 NSing=     8 JSym2X= 0.
 Root      1 not converged, maximum delta is    0.001924914199733
 Root      2 not converged, maximum delta is    0.001822460143757
 Root      3 not converged, maximum delta is    0.002255773925858
 Root      4 not converged, maximum delta is    0.002219319774018
 Root      5 has converged.
 Excitation Energies [eV] at current iteration:
 Root      1 :     1.672140893568318   Change is   -0.001809788136800
 Root      2 :     1.683314487845748   Change is   -0.001743761975222
 Root      3 :     2.184105098929679   Change is   -0.000836813394008
 Root      4 :     2.192432302316951   Change is   -0.000805918307701
 Root      5 :     2.588665388224881   Change is   -0.000000003210985
 Iteration     6 Dimension    64 NMult    56 NNew      8
 CISAX will form     8 AO SS matrices at one time.
 NMat=     8 NSing=     8 JSym2X= 0.
 Root      1 not converged, maximum delta is    0.001193632201182
 Root      2 not converged, maximum delta is    0.001177317857786
 Root      3 has converged.
 Root      4 has converged.
 Root      5 has converged.
 Excitation Energies [eV] at current iteration:
 Root      1 :     1.671885181668908   Change is   -0.000255711899410
 Root      2 :     1.683061612677802   Change is   -0.000252875167946
 Root      3 :     2.183978350606800   Change is   -0.000126748322879
 Root      4 :     2.192310405305900   Change is   -0.000121897011051
 Root      5 :     2.588665386896879   Change is   -0.000000001328002
 Iteration     7 Dimension    68 NMult    64 NNew      4
 CISAX will form     4 AO SS matrices at one time.
 NMat=     4 NSing=     4 JSym2X= 0.
 Root      1 has converged.
 Root      2 has converged.
 Root      3 has converged.
 Root      4 has converged.
 Root      5 has converged.
 Excitation Energies [eV] at current iteration:
 Root      1 :     1.671860566491777   Change is   -0.000024615177131
 Root      2 :     1.683037635239197   Change is   -0.000023977438605
[...]
 Alpha virt. eigenvalues --    1.83788   1.83929   1.84122   1.84235   1.84394
 Alpha virt. eigenvalues --    1.84570   1.84811   1.84823   1.85171   1.85195
 Alpha virt. eigenvalues --    1.85383   1.85451   1.85527   1.85658   1.85840
 Alpha virt. eigenvalues --    1.85942   1.86244   1.86421   1.86690   1.86714
 Alpha virt. eigenvalues --    1.86864   1.86916   1.87089   1.87140   1.87388
 Alpha virt. eigenvalues --    1.87523   1.87815   1.87822   1.88051   1.88063
 Alpha virt. eigenvalues --    1.88216   1.88240   1.88416   1.88606   1.88914
 Alpha virt. eigenvalues --    1.88967   1.89110   1.89204   1.89467   1.89695
 Alpha virt. eigenvalues --    1.89918   1.89997   1.90127   1.90227   1.90496
 Alpha virt. eigenvalues --    1.90936   1.91134   1.91462   1.91623   1.91711
 Alpha virt. eigenvalues --    1.91806   1.92220   1.92532   1.92698   1.93033
 Alpha virt. eigenvalues --    1.93189   1.93355   1.93541   1.93690   1.94350
 Alpha virt. eigenvalues --    1.94635   1.94851   1.95051   1.95629   1.95801
 Alpha virt. eigenvalues --    1.95852   1.96083   1.96125   1.96214   1.96392
 Alpha virt. eigenvalues --    1.96498   1.96522   1.96962   1.96969   1.97283
 Alpha virt. eigenvalues --    1.97580   1.97818   1.97843   1.98197   1.98202
 Alpha virt. eigenvalues --    1.98388   1.98570   1.99063   1.99107   1.99519
 Alpha virt. eigenvalues --    1.99966   2.00227   2.00765   2.01032   2.01137
 Alpha virt. eigenvalues --    2.01399   2.01545   2.01648   2.01867   2.01897
 Alpha virt. eigenvalues --    2.02034   2.02119   2.02747   2.03166   2.03174
 Alpha virt. eigenvalues --    2.03421   2.03564   2.03585   2.03801   2.03901
 Alpha virt. eigenvalues --    2.04067   2.04420   2.05014   2.05342   2.05666
 Alpha virt. eigenvalues --    2.05888   2.06325   2.06457   2.07078   2.07314
 Alpha virt. eigenvalues --    2.07388   2.07561   2.08586   2.08939   2.09044
 Alpha virt. eigenvalues --    2.09379   2.09652   2.10002   2.11071   2.11109
 Alpha virt. eigenvalues --    2.11444   2.11568   2.11572   2.11898   2.11954
 Alpha virt. eigenvalues --    2.12127   2.12498   2.12836   2.12858   2.12903
 Alpha virt. eigenvalues --    2.13191   2.13217   2.13659   2.14197   2.14285
 Alpha virt. eigenvalues --    2.14472   2.15444   2.15716   2.16116   2.16312
 Alpha virt. eigenvalues --    2.16625   2.16882   2.17137   2.17218   2.17682
 Alpha virt. eigenvalues --    2.17783   2.17963   2.18041   2.18076   2.18415
 Alpha virt. eigenvalues --    2.18712   2.18731   2.19275   2.19277   2.19853
 Alpha virt. eigenvalues --    2.20030   2.20283   2.20448   2.20473   2.20594
 Alpha virt. eigenvalues --    2.21206   2.21475   2.21803   2.21914   2.22043
 Alpha virt. eigenvalues --    2.22141   2.22733   2.23063   2.23379   2.23678
 Alpha virt. eigenvalues --    2.24455   2.24762   2.25038   2.25284   2.26476
 Alpha virt. eigenvalues --    2.26712   2.27043   2.27151   2.27239   2.27504
 Alpha virt. eigenvalues --    2.28340   2.28532   2.29467   2.29649   2.29915
 Alpha virt. eigenvalues --    2.30145   2.30652   2.30857   2.30860   2.31235
 Alpha virt. eigenvalues --    2.31460   2.31578   2.32272   2.32486   2.33265
 Alpha virt. eigenvalues --    2.33520   2.33537   2.33845   2.34171   2.34498
 Alpha virt. eigenvalues --    2.35336   2.35769   2.35935   2.36199   2.36364
 Alpha virt. eigenvalues --    2.36482   2.36686   2.37022   2.37713   2.38003
 Alpha virt. eigenvalues --    2.38411   2.38621   2.38806   2.39268   2.39699
 Alpha virt. eigenvalues --    2.39997   2.40299   2.40531   2.40855   2.40898
 Alpha virt. eigenvalues --    2.41239   2.41668   2.41728   2.42037   2.42163
 Alpha virt. eigenvalues --    2.42437   2.42851   2.43115   2.43275   2.43917
 Alpha virt. eigenvalues --    2.44002   2.44546   2.44833   2.45016   2.45118
 Alpha virt. eigenvalues --    2.45287   2.45600   2.45918   2.46313   2.46526
 Alpha virt. eigenvalues --    2.46674   2.46834   2.46867   2.47194   2.47412
 Alpha virt. eigenvalues --    2.47614   2.47914   2.48091   2.49417   2.49659
 Alpha virt. eigenvalues --    2.49923   2.50401   2.50481   2.50897   2.51296
 Alpha virt. eigenvalues --    2.51530   2.51637   2.52286   2.52425   2.52852
 Alpha virt. eigenvalues --    2.53183   2.53200   2.53991   2.54288   2.54303
 Alpha virt. eigenvalues --    2.54501   2.54834   2.55155   2.55690   2.55892
 Alpha virt. eigenvalues --    2.58098   2.58246   2.58920   2.59004   2.60324
 Alpha virt. eigenvalues --    2.60621   2.60938   2.61016   2.61839   2.62086
 Alpha virt. eigenvalues --    2.62450   2.62927   2.63148   2.63343   2.64232
 Alpha virt. eigenvalues --    2.64330   2.64443   2.64562   2.65117   2.65457
 Alpha virt. eigenvalues --    2.65875   2.66191   2.66841   2.67067   2.67130
 Alpha virt. eigenvalues --    2.67283   2.67998   2.68278   2.68837   2.69054
 Alpha virt. eigenvalues --    2.69236   2.69423   2.69610   2.69748   2.70155
 Alpha virt. eigenvalues --    2.70373   2.71083   2.71353   2.71917   2.72438
 Alpha virt. eigenvalues --    2.72516   2.72754   2.73046   2.73224   2.73302
 Alpha virt. eigenvalues --    2.73531   2.73609   2.73967   2.74529   2.74893
 Alpha virt. eigenvalues --    2.75073   2.75367   2.76536   2.76949   2.77086
 Alpha virt. eigenvalues --    2.77616   2.77635   2.77841   2.78305   2.78553
 Alpha virt. eigenvalues --    2.78709   2.79126   2.79178   2.79523   2.80279
 Alpha virt. eigenvalues --    2.80727   2.80727   2.81016   2.81166   2.81504
 Alpha virt. eigenvalues --    2.82002   2.82329   2.82348   2.82714   2.83857
 Alpha virt. eigenvalues --    2.83922   2.84139   2.84154   2.84541   2.84896
 Alpha virt. eigenvalues --    2.84919   2.85235   2.85701   2.86031   2.86673
 Alpha virt. eigenvalues --    2.87195   2.87353   2.87999   2.88246   2.88533
 Alpha virt. eigenvalues --    2.88630   2.88864   2.88886   2.89315   2.90664
 Alpha virt. eigenvalues --    2.90873   2.91074   2.91528   2.93327   2.93555
 Alpha virt. eigenvalues --    2.93777   2.94579   2.94581   2.94904   2.95471
 Alpha virt. eigenvalues --    2.95766   2.95864   2.96384   2.96587   2.96793
 Alpha virt. eigenvalues --    2.96892   2.97577   2.98035   2.98228   2.98365
 Alpha virt. eigenvalues --    2.98576   2.98597   2.98718   2.98797   2.98934
 Alpha virt. eigenvalues --    2.98968   2.99246   2.99808   2.99924   3.00038
 Alpha virt. eigenvalues --    3.00343   3.00425   3.00605   3.00860   3.00992
 Alpha virt. eigenvalues --    3.01905   3.02115   3.02314   3.02404   3.02833
 Alpha virt. eigenvalues --    3.03125   3.03311   3.03362   3.03688   3.03703
 Alpha virt. eigenvalues --    3.04055   3.04438   3.04494   3.04743   3.04815
 Alpha virt. eigenvalues --    3.04902   3.05352   3.05621   3.06162   3.06487
 Alpha virt. eigenvalues --    3.06934   3.07220   3.07921   3.08498   3.09357
 Alpha virt. eigenvalues --    3.09797   3.10090   3.10432   3.10740   3.10836
 Alpha virt. eigenvalues --    3.11476   3.11641   3.11906   3.12304   3.12362
 Alpha virt. eigenvalues --    3.12464   3.13656   3.13693   3.13714   3.13989
 Alpha virt. eigenvalues --    3.14494   3.14502   3.15996   3.16225   3.17528
 Alpha virt. eigenvalues --    3.17650   3.17881   3.18431   3.19038   3.19500
 Alpha virt. eigenvalues --    3.22635   3.22739   3.24350   3.24449   3.25079
 Alpha virt. eigenvalues --    3.25211   3.26666   3.26904   3.27403   3.28024
 Alpha virt. eigenvalues --    3.29273   3.29546   3.31388   3.31924   3.33191
 Alpha virt. eigenvalues --    3.33818   3.40303   3.41064   3.42821   3.43195
 Alpha virt. eigenvalues --    3.48706   3.49060   3.50287   3.50428   3.50841
 Alpha virt. eigenvalues --    3.51877   3.56944   3.57012   3.59347   3.59482
 Alpha virt. eigenvalues --    3.62525   3.63240   3.66116   3.66543   3.67590
 Alpha virt. eigenvalues --    3.67626   3.73706   3.74060   3.76483   3.76716
          Condensed to atoms (all electrons):
 Mulliken charges:
               1
     1  Mg   0.842195
     2  C   -0.001481
     3  C   -0.092867
     4  C   -0.046532
     5  C   -0.064597
     6  N   -0.256655
     7  C   -0.051549
     8  C   -0.014645
     9  C   -0.087395
    10  C    0.047411
    11  C    0.105024
    12  C    0.053226
    13  C   -0.070874
    14  H    0.034520
    15  N   -0.432927
    16  C    0.169793
    17  C   -0.176348
    18  C   -0.003908
    19  C    0.149126
    20  C    0.110340
    21  C    0.012332
    22  O   -0.250897
    23  C    0.062151
    24  N   -0.341158
    25  C    0.041214
    26  C   -0.027923
    27  C   -0.023816
    28  C    0.074856
    29  C    0.076469
    30  C    0.035404
    31  C   -0.004505
    32  N   -0.310486
    33  C    0.080755
    34  C   -0.169888
    35  C    0.008150
    36  C    0.083907
    37  C    0.127283
    38  C    0.046600
    39  O   -0.189105
    40  C   -0.005732
    41  C    0.212139
    42  O   -0.254191
    43  O   -0.305438
    44  C    0.157920
    45  H   -0.018276
    46  H   -0.017870
    47  H   -0.042408
    48  H    0.000027
    49  H   -0.003925
    50  H    0.025010
    51  H    0.016001
    52  H    0.015866
    53  H    0.014331
    54  H    0.046389
    55  H    0.016503
    56  H    0.017745
    57  H    0.005756
    58  H    0.025657
    59  H    0.040793
    60  H    0.036853
    61  H    0.034444
    62  H    0.032964
    63  H    0.015666
    64  H    0.008866
    65  H    0.022349
    66  H    0.012506
    67  H    0.004194
    68  H    0.005292
    69  H    0.004470
    70  H    0.007663
    71  H    0.017004
    72  H    0.030662
    73  H    0.047554
    74  H    0.008479
    75  H    0.045252
    76  H    0.034265
    77  H    0.041737
    78  H    0.045817
    79  H    0.054446
    80  Mg   0.838283
    81  C   -0.016464
    82  C   -0.087854
    83  C   -0.045537
    84  C   -0.064943
    85  N   -0.254511
    86  C   -0.049885
    87  C   -0.015058
    88  C   -0.090505
    89  C    0.045759
    90  C    0.114496
    91  C    0.062504
    92  C   -0.077800
    93  H    0.035121
    94  N   -0.423416
    95  C    0.162946
    96  C   -0.174783
    97  C   -0.007870
    98  C    0.152091
    99  C    0.099466
   100  C    0.015552
   101  O   -0.253326
   102  C    0.061192
   103  N   -0.350089
   104  C    0.037463
   105  C   -0.019752
   106  C   -0.034858
   107  C    0.089005
   108  C    0.073736
   109  C    0.034711
   110  C   -0.007636
   111  N   -0.324264
   112  C    0.078724
   113  C   -0.162528
   114  C    0.002250
   115  C    0.096745
   116  C    0.131394
   117  C    0.043389
   118  O   -0.188226
   119  C    0.000488
   120  C    0.211262
   121  O   -0.248728
   122  O   -0.306492
   123  C    0.151845
   124  H   -0.019960
   125  H   -0.015725
   126  H   -0.040261
   127  H   -0.001104
   128  H   -0.004420
   129  H    0.022065
   130  H    0.014350
   131  H    0.015945
   132  H    0.014076
   133  H    0.038465
   134  H    0.020207
   135  H    0.019434
   136  H    0.008591
   137  H    0.025869
   138  H    0.039771
   139  H    0.038085
   140  H    0.036258
   141  H    0.033998
   142  H    0.014381
   143  H    0.012337
   144  H    0.024981
   145  H    0.011468
   146  H    0.005537
   147  H    0.006002
   148  H    0.003752
   149  H    0.010793
   150  H    0.017990
   151  H    0.030530
   152  H    0.046474
   153  H    0.009082
   154  H    0.046212
   155  H    0.033983
   156  H    0.042351
   157  H    0.049002
   158  H    0.055602
 Sum of Mulliken charges =  -0.00000
 Mulliken charges with hydrogens summed into heavy atoms:
               1
     1  Mg   0.842195
     2  C   -0.001481
     3  C   -0.111142
     4  C   -0.064402
     5  C   -0.107005
     6  N   -0.256655
     7  C   -0.051549
     8  C   -0.014619
     9  C   -0.091320
    10  C    0.047411
    11  C    0.161901
    12  C    0.113946
    13  C   -0.002106
    15  N   -0.432927
    16  C    0.169793
    17  C   -0.176348
    18  C   -0.003908
    19  C    0.149126
    20  C    0.182547
    21  C    0.012332
    22  O   -0.250897
    23  C    0.166411
    24  N   -0.341158
    25  C    0.041214
    26  C   -0.012257
    27  C   -0.014950
    28  C    0.074856
    29  C    0.115517
    30  C    0.045166
    31  C    0.050823
    32  N   -0.310486
    33  C    0.080755
    34  C   -0.169888
    35  C    0.008150
    36  C    0.083907
    37  C    0.228569
    38  C    0.046600
    39  O   -0.189105
    40  C    0.028533
    41  C    0.212139
    42  O   -0.254191
    43  O   -0.305438
    44  C    0.299920
    80  Mg   0.838283
    81  C   -0.016464
    82  C   -0.107815
    83  C   -0.061262
    84  C   -0.105204
    85  N   -0.254511
    86  C   -0.049885
    87  C   -0.016162
    88  C   -0.094925
    89  C    0.045759
    90  C    0.166856
    91  C    0.115045
    92  C   -0.003038
    94  N   -0.423416
    95  C    0.162946
    96  C   -0.174783
    97  C   -0.007870
    98  C    0.152091
    99  C    0.173697
   100  C    0.015552
   101  O   -0.253326
   102  C    0.169534
   103  N   -0.350089
   104  C    0.037463
   105  C   -0.005372
   106  C   -0.022522
   107  C    0.089005
   108  C    0.115723
   109  C    0.044465
   110  C    0.051678
   111  N   -0.324264
   112  C    0.078724
   113  C   -0.162528
   114  C    0.002250
   115  C    0.096745
   116  C    0.233163
   117  C    0.043389
   118  O   -0.188226
   119  C    0.034471
   120  C    0.211262
   121  O   -0.248728
   122  O   -0.306492
   123  C    0.298800
 Electronic spatial extent (au):  <R**2>=         145159.4672
 Charge=             -0.0000 electrons
 Dipole moment (field-independent basis, Debye):
    X=             -2.0538    Y=              2.4757    Z=              5.2501  Tot=              6.1572
 Quadrupole moment (field-independent basis, Debye-Ang):
   XX=           -456.2717   YY=           -470.4596   ZZ=           -519.2705
   XY=            -29.8332   XZ=             11.6303   YZ=             33.9955
 Traceless Quadrupole moment (field-independent basis, Debye-Ang):
   XX=             25.7289   YY=             11.5410   ZZ=            -37.2699
   XY=            -29.8332   XZ=             11.6303   YZ=             33.9955
 Octapole moment (field-independent basis, Debye-Ang**2):
  XXX=           -164.3528  YYY=            282.8977  ZZZ=            203.4790  XYY=             -1.9470
  XXY=            565.5849  XXZ=            283.1108  XZZ=             -5.2371  YZZ=            -26.4262
  YYZ=            -82.5158  XYZ=            247.0210
 Hexadecapole moment (field-independent basis, Debye-Ang**3):
 XXXX=        -139706.7246 YYYY=         -33443.3905 ZZZZ=         -18069.5794 XXXY=          -5111.2598
 XXXZ=            358.8774 YYYX=            760.5750 YYYZ=            330.7977 ZZZX=           1312.4885
 ZZZY=            386.1684 XXYY=         -29785.6231 XXZZ=         -27465.8739 YYZZ=          -9338.2324
 XXYZ=            793.4631 YYXZ=          -1035.8354 ZZXY=           -565.6157
 N-N= 1.451376731423D+04 E-N=-3.850974614035D+04  KE= 4.028801395817D+03
 Leave Link  601 at Sat Sep 11 10:17:42 2021, MaxMem= 23488102400 cpu:              15.5 elap:               0.8
 (Enter /sw/apps/gaussian-16.0/g16/l9999.exe)
 1\1\GINC-BP1-COMPUTE00090\SP\RCAM-B3LYP TD-FC\def2SVP\C68H72Mg2N8O8\OF
 15641\11-Sep-2021\0\\#p cam-b3lyp/Def2SVP td=(nstates=5)\\TDDFT excite
 d states in gaussian\\0,1\Mg,0,0.,0.,0.\C,0,-0.217,-2.218,2.801\C,0,-1
 .255,2.442,2.026\C,0,-0.245,1.85,-2.564\C,0,0.146,-2.824,-2.037\N,0,-0
 .617,-0.009,2.126\C,0,-0.594,-0.908,3.105\C,0,-0.936,-0.309,4.502\C,0,
 -1.773,0.964,4.032\C,0,-1.155,1.168,2.66\C,0,-3.263,0.685,3.863\C,0,0.
 345,0.11,5.299\C,0,0.124,0.397,6.787\H,0,1.168,0.033,7.733\N,0,-0.185,
 1.961,-0.152\C,0,-0.703,2.8,0.777\C,0,-0.62,4.156,0.193\C,0,-0.187,4.0
 15,-1.225\C,0,-0.214,2.583,-1.38\C,0,-0.887,5.406,0.974\C,0,0.181,5.01
 3,-2.277\O,0,0.303,4.69,-3.508\C,0,0.31,6.414,-1.837\N,0,-0.265,-0.413
 ,-2.029\C,0,-0.279,0.569,-2.937\C,0,-0.196,0.024,-4.332\C,0,0.124,-1.5
 33,-4.18\C,0,0.086,-1.632,-2.635\C,0,-1.451,0.205,-5.197\C,0,1.373,-2.
 07,-4.923\C,0,2.626,-1.49,-4.306\N,0,0.15,-2.144,0.303\C,0,0.173,-3.13
 6,-0.688\C,0,0.173,-4.438,0.004\C,0,0.133,-4.111,1.358\C,0,0.083,-2.69
 5,1.502\C,0,0.149,-5.715,-0.623\C,0,0.096,-4.629,2.716\O,0,0.208,-5.74
 7,3.221\C,0,-0.255,-3.428,3.701\C,0,0.717,-3.482,4.848\O,0,1.931,-3.25
 5,4.669\O,0,0.038,-3.556,6.003\C,0,0.943,-3.583,7.183\H,0,-1.859,3.22,
 2.497\H,0,-0.218,2.453,-3.474\H,0,0.276,-3.747,-2.605\H,0,-1.554,-0.94
 9,5.132\H,0,-1.585,1.831,4.665\H,0,-3.484,-0.377,3.969\H,0,-3.511,1.02
 7,2.858\H,0,-3.852,1.301,4.543\H,0,0.669,1.096,4.966\H,0,1.13,-0.639,5
 .189\H,0,-0.844,0.026,7.125\H,0,0.062,1.477,6.921\H,0,-1.344,5.186,1.9
 38\H,0,-1.651,5.963,0.432\H,0,0.007,6.02,1.084\H,0,-0.635,6.744,-1.405
 \H,0,0.665,6.97,-2.704\H,0,1.048,6.466,-1.036\H,0,0.608,0.501,-4.891\H
 ,0,-0.692,-2.156,-4.547\H,0,-1.267,0.74,-6.129\H,0,-2.204,0.714,-4.596
 \H,0,-1.967,-0.72,-5.453\H,0,1.356,-1.759,-5.967\H,0,1.452,-3.157,-4.9
 02\H,0,2.714,-0.522,-4.798\H,0,3.487,-2.121,-4.529\H,0,2.495,-1.303,-3
 .24\H,0,0.867,-6.333,-0.084\H,0,0.404,-5.642,-1.68\H,0,-0.891,-5.999,-
 0.463\H,0,-1.283,-3.581,4.028\H,0,0.698,-4.478,7.755\H,0,0.833,-2.619,
 7.68\H,0,2.,-3.754,6.976\Mg,0,13.1402,1.17575,1.00576\C,0,10.53761,2.0
 68,3.30999\C,0,15.37114,1.84931,3.49651\C,0,15.46844,0.83321,-1.12247\
 C,0,10.84331,1.67664,-1.567\N,0,12.86754,1.86218,3.09064\C,0,11.82927,
 2.10905,3.87512\C,0,12.19068,2.3386,5.36718\C,0,13.71409,2.80925,5.175
 93\C,0,14.02386,2.10455,3.8568\C,0,13.85906,4.3069,4.96292\C,0,12.0985
 9,1.0209,6.21405\C,0,12.13604,1.22677,7.72996\H,0,11.33502,0.34296,8.5
 724\N,0,15.07958,0.84462,1.26603\C,0,15.82123,1.16185,2.34797\C,0,17.1
 922,0.72827,2.03715\C,0,17.23195,0.2791,0.61892\C,0,15.90404,0.66279,0
 .18358\C,0,18.28643,0.6911,3.06415\C,0,18.29431,-0.37449,-0.212\O,0,18
 .19448,-0.45987,-1.48698\C,0,19.49755,-0.82809,0.5007\N,0,13.21918,1.4
 4837,-1.0538\C,0,14.34097,1.17879,-1.74432\C,0,14.08036,1.18361,-3.231
 75\C,0,12.49148,1.2744,-3.38924\C,0,12.0966,1.40187,-1.90155\C,0,14.73
 517,2.31902,-4.01818\C,0,11.80504,0.17445,-4.24456\C,0,11.91397,-1.163
 3,-3.54889\N,0,11.0228,1.58295,0.86849\C,0,10.26696,1.78203,-0.30759\C
 ,0,8.89677,2.14207,0.11119\C,0,8.95687,2.15004,1.51291\C,0,10.27671,1.
 83816,1.93746\C,0,7.81591,2.4557,-0.7603\C,0,8.2065,2.36179,2.7298\O,0
 ,7.02274,2.56561,2.99609\C,0,9.22733,2.44209,3.94547\C,0,8.7067,1.5613
 9,5.04812\O,0,8.63617,0.32949,4.89309\O,0,8.58391,2.2896,6.17285\C,0,8
 .08109,1.45718,7.29805\H,0,16.16255,2.24918,4.13106\H,0,16.20724,0.617
 62,-1.89783\H,0,10.04456,1.7525,-2.30789\H,0,11.61974,3.11749,5.85823\
 H,0,14.34859,2.42628,5.97099\H,0,12.9008,4.7934,4.85708\H,0,14.44285,4
 .42029,4.05883\H,0,14.45852,4.74556,5.76576\H,0,13.02254,0.44376,6.079
 94\H,0,11.22602,0.45684,5.94743\H,0,11.97215,2.27506,8.00774\H,0,13.14
 666,1.01036,8.08469\H,0,18.00327,1.23543,3.9735\H,0,19.12729,1.26247,2
 .6563\H,0,18.62289,-0.32421,3.28459\H,0,19.96022,0.01809,1.00308\H,0,2
 0.10074,-1.34829,-0.24591\H,0,19.19562,-1.53241,1.28388\H,0,14.42677,0
 .26442,-3.68804\H,0,12.18325,2.21058,-3.8775\H,0,15.39025,1.96272,-4.8
 3548\H,0,15.2922,2.93658,-3.32618\H,0,14.04306,3.03377,-4.46012\H,0,12
 .31581,0.06749,-5.20468\H,0,10.76117,0.38061,-4.45631\H,0,12.91098,-1.
 51041,-3.83624\H,0,11.14195,-1.84334,-3.90324\H,0,11.90847,-1.04195,-2
 .45944\H,0,6.94409,1.94725,-0.37053\H,0,8.02937,2.15304,-1.78333\H,0,7
 .7869,3.54317,-0.65152\H,0,9.29073,3.48702,4.25154\H,0,7.18225,1.94904
 ,7.68254\H,0,8.93373,1.35002,7.99466\H,0,7.69767,0.47185,7.06021\\Vers
 ion=ES64L-G16RevA.03\State=1-A\HF=-4069.811297\RMSD=4.897e-09\PG=C01 [
 X(C68H72Mg2N8O8)]\\@


 LOGIC IS A SYSTEMATIC METHOD OF COMING TO THE
 WRONG CONCLUSION WITH CONFIDENCE.
 Job cpu time:       0 days 12 hours 34 minutes  8.6 seconds.
 Elapsed time:       0 days  0 hours 32 minutes  2.1 seconds.
 File lengths (MBytes):  RWF=  13225 Int=      0 D2E=      0 Chk=    574 Scr=      1
 Normal termination of Gaussian 16 at Sat Sep 11 10:17:43 2021.
