 Entering Gaussian System, Link 0=g16
 Initial command:
 /sw/apps/gaussian-16.0/g16/l1.exe "/tmp/Gau-144478.inp" -scrdir="/tmp/"
 Entering Link 1 = /sw/apps/gaussian-16.0/g16/l1.exe PID=    144479.
  
 Copyright (c) 1988,1990,1992,1993,1995,1998,2003,2009,2016,
            Gaussian, Inc.  All Rights Reserved.
  
 This is part of the Gaussian(R) 16 program.  It is based on
 the Gaussian(R) 09 system (copyright 2009, Gaussian, Inc.),
 the Gaussian(R) 03 system (copyright 2003, Gaussian, Inc.),
 the Gaussian(R) 98 system (copyright 1998, Gaussian, Inc.),
 the Gaussian(R) 94 system (copyright 1995, Gaussian, Inc.),
 the Gaussian 92(TM) system (copyright 1992, Gaussian, Inc.),
 the Gaussian 90(TM) system (copyright 1990, Gaussian, Inc.),
 the Gaussian 88(TM) system (copyright 1988, Gaussian, Inc.),
 the Gaussian 86(TM) system (copyright 1986, Carnegie Mellon
 University), and the Gaussian 82(TM) system (copyright 1983,
 Carnegie Mellon University). Gaussian is a federally registered
 trademark of Gaussian, Inc.
  
 This software contains proprietary and confidential information,
 including trade secrets, belonging to Gaussian, Inc.
  
 This software is provided under written license and may be
 used, copied, transmitted, or stored only in accord with that
 written license.
  
 The following legend is applicable only to US Government
 contracts under FAR:
  
                    RESTRICTED RIGHTS LEGEND
  
 Use, reproduction and disclosure by the US Government is
 subject to restrictions as set forth in subparagraphs (a)
 and (c) of the Commercial Computer Software - Restricted
 Rights clause in FAR 52.227-19.
  
 Gaussian, Inc.
 340 Quinnipiac St., Bldg. 40, Wallingford CT 06492
  
  
 ---------------------------------------------------------------
 Warning -- This program may not be used in any manner that
 competes with the business of Gaussian, Inc. or will provide
 assistance to any competitor of Gaussian, Inc.  The licensee
 of this program is prohibited from giving any competitor of
 Gaussian, Inc. access to this program.  By using this program,
 the user acknowledges that Gaussian, Inc. is engaged in the
 business of creating and licensing software in the field of
 computational chemistry and represents and warrants to the
 licensee that it is not a competitor of Gaussian, Inc. and that
 it will not use this program in any manner prohibited above.
 ---------------------------------------------------------------
  

 Cite this work as:
 Gaussian 16, Revision A.03,
 M. J. Frisch, G. W. Trucks, H. B. Schlegel, G. E. Scuseria, 
 M. A. Robb, J. R. Cheeseman, G. Scalmani, V. Barone, 
 G. A. Petersson, H. Nakatsuji, X. Li, M. Caricato, A. V. Marenich, 
 J. Bloino, B. G. Janesko, R. Gomperts, B. Mennucci, H. P. Hratchian, 
 J. V. Ortiz, A. F. Izmaylov, J. L. Sonnenberg, D. Williams-Young, 
 F. Ding, F. Lipparini, F. Egidi, J. Goings, B. Peng, A. Petrone, 
 T. Henderson, D. Ranasinghe, V. G. Zakrzewski, J. Gao, N. Rega, 
 G. Zheng, W. Liang, M. Hada, M. Ehara, K. Toyota, R. Fukuda, 
 J. Hasegawa, M. Ishida, T. Nakajima, Y. Honda, O. Kitao, H. Nakai, 
 T. Vreven, K. Throssell, J. A. Montgomery, Jr., J. E. Peralta, 
 F. Ogliaro, M. J. Bearpark, J. J. Heyd, E. N. Brothers, K. N. Kudin, 
 V. N. Staroverov, T. A. Keith, R. Kobayashi, J. Normand, 
 K. Raghavachari, A. P. Rendell, J. C. Burant, S. S. Iyengar, 
 J. Tomasi, M. Cossi, J. M. Millam, M. Klene, C. Adamo, R. Cammi, 
 J. W. Ochterski, R. L. Martin, K. Morokuma, O. Farkas, 
 J. B. Foresman, and D. J. Fox, Gaussian, Inc., Wallingford CT, 2016.
 
 ******************************************
 Gaussian 16:  ES64L-G16RevA.03 25-Dec-2016
                12-Sep-2021 
 ******************************************
 %nproc=24
 Will use up to   24 processors via shared memory.
 %mem=175gb
 -----------------------------------
 #p cam-b3lyp/Def2SVP td=(nstates=5)
 -----------------------------------
 1/38=1,172=1/1;
 2/12=2,17=6,18=5,40=1/2;
 3/5=43,7=101,11=9,25=1,30=1,74=-40/1,2,3,8;
 4//1;
 5/5=2,38=5/2;
 8/6=1,10=1,108=5/1;
 9/41=5,42=1,70=2/14;
 6/7=2,8=2,9=2,10=2/1;
 99/5=1,9=1/99;
 Leave Link    1 at Sun Sep 12 05:43:47 2021, MaxMem= 23488102400 cpu:               0.9 elap:               0.0
 (Enter /sw/apps/gaussian-16.0/g16/l101.exe)
 --------------------------------
 TDDFT excited states in gaussian
 --------------------------------
 Symbolic Z-matrix:
 Charge =  0 Multiplicity = 1
 Mg                    0.        0.        0. 
 C                    -0.217    -2.218     2.801 
 C                    -1.255     2.442     2.026 
 C                    -0.245     1.85     -2.564 
 C                     0.146    -2.824    -2.037 
 N                    -0.617    -0.009     2.126 
 C                    -0.594    -0.908     3.105 
 C                    -0.936    -0.309     4.502 
 C                    -1.773     0.964     4.032 
 C                    -1.155     1.168     2.66 
 C                    -3.263     0.685     3.863 
 C                     0.345     0.11      5.299 
 C                     0.124     0.397     6.787 
 H                     1.168     0.033     7.733 
 N                    -0.185     1.961    -0.152 
 C                    -0.703     2.8       0.777 
 C                    -0.62      4.156     0.193 
 C                    -0.187     4.015    -1.225 
 C                    -0.214     2.583    -1.38 
 C                    -0.887     5.406     0.974 
 C                     0.181     5.013    -2.277 
 O                     0.303     4.69     -3.508 
 C                     0.31      6.414    -1.837 
 N                    -0.265    -0.413    -2.029 
 C                    -0.279     0.569    -2.937 
 C                    -0.196     0.024    -4.332 
 C                     0.124    -1.533    -4.18 
 C                     0.086    -1.632    -2.635 
 C                    -1.451     0.205    -5.197 
 C                     1.373    -2.07     -4.923 
 C                     2.626    -1.49     -4.306 
 N                     0.15     -2.144     0.303 
 C                     0.173    -3.136    -0.688 
 C                     0.173    -4.438     0.004 
 C                     0.133    -4.111     1.358 
 C                     0.083    -2.695     1.502 
 C                     0.149    -5.715    -0.623 
 C                     0.096    -4.629     2.716 
 O                     0.208    -5.747     3.221 
 C                    -0.255    -3.428     3.701 
 C                     0.717    -3.482     4.848 
 O                     1.931    -3.255     4.669 
 O                     0.038    -3.556     6.003 
 C                     0.943    -3.583     7.183 
 H                    -1.859     3.22      2.497 
 H                    -0.218     2.453    -3.474 
 H                     0.276    -3.747    -2.605 
 H                    -1.554    -0.949     5.132 
 H                    -1.585     1.831     4.665 
 H                    -3.484    -0.377     3.969 
 H                    -3.511     1.027     2.858 
 H                    -3.852     1.301     4.543 
 H                     0.669     1.096     4.966 
 H                     1.13     -0.639     5.189 
 H                    -0.844     0.026     7.125 
 H                     0.062     1.477     6.921 
 H                    -1.344     5.186     1.938 
 H                    -1.651     5.963     0.432 
 H                     0.007     6.02      1.084 
 H                    -0.635     6.744    -1.405 
 H                     0.665     6.97     -2.704 
 H                     1.048     6.466    -1.036 
 H                     0.608     0.501    -4.891 
 H                    -0.692    -2.156    -4.547 
 H                    -1.267     0.74     -6.129 
 H                    -2.204     0.714    -4.596 
 H                    -1.967    -0.72     -5.453 
 H                     1.356    -1.759    -5.967 
 H                     1.452    -3.157    -4.902 
 H                     2.714    -0.522    -4.798 
 H                     3.487    -2.121    -4.529 
 H                     2.495    -1.303    -3.24 
 H                     0.867    -6.333    -0.084 
 H                     0.404    -5.642    -1.68 
 H                    -0.891    -5.999    -0.463 
 H                    -1.283    -3.581     4.028 
 H                     0.698    -4.478     7.755 
 H                     0.833    -2.619     7.68 
 H                     2.       -3.754     6.976 
 Mg                    15.77259   1.42471   1.20432 
 C                     15.52522  -0.61559   4.14626 
 C                     14.51689   3.99467   3.06257 
 C                     15.55411   3.11966  -1.46904 
 C                     15.90983  -1.5187   -0.65666 
 N                     15.14158   1.55006   3.32053 
 C                     15.15074   0.72757   4.35869 
 C                     14.81228   1.40092   5.71575 
 C                     13.97661   2.65471   5.16027 
 C                     14.60294   2.77022   3.77209 
 C                     12.49454   2.36353   4.99285 
 C                     16.09615   1.86392   6.48992 
 C                     15.86175   2.24733   7.95273 
 H                     16.9043   1.94085   8.92825 
 N                     15.60037   3.38352   0.93607 
 C                     15.08832   4.28171   1.80344 
 C                     15.16804   5.58538   1.12649 
 C                     15.61676   5.35983  -0.27439 
 C                     15.58716   3.91206  -0.33081 
 C                     14.91109   6.88546   1.83162 
 C                     15.99589   6.29309  -1.38412 
 O                     16.1253   5.88521  -2.59231 
 C                     16.1198   7.71496  -1.03141 
 N                     15.52391   0.88834  -0.78887 
 C                     15.5141   1.81908  -1.75921 
 C                     15.60032   1.183    -3.12608 
 C                     15.91512  -0.3625   -2.86166 
 C                     15.8659  -0.37027  -1.31799 
 C                     14.35017   1.3057   -3.99698 
 C                     17.16682  -0.95601  -3.56427 
 C                     18.42204  -0.34044  -2.98904 
 N                     15.91392  -0.68651   1.64117 
 C                     15.93155  -1.75036   0.71274 
 C                     15.92096  -3.00667   1.4899 
 C                     15.8743  -2.58331   2.82672 
 C                     15.83663  -1.16366   2.87843 
 C                     15.90438  -4.32167   0.94526 
 C                     15.83762  -3.01474   4.20557 
 O                     15.93386  -4.09877   4.77945 
 C                     15.48228  -1.76243   5.11762 
 C                     16.44681  -1.73967   6.27161 
 O                     17.65925  -1.54174   6.07817 
 O                     15.75396  -1.73786   7.42502 
 C                     16.66691  -1.70449   8.59857 
 H                     13.91995   4.80096   3.48971 
 H                     15.58992   3.65757  -2.41922 
 H                     16.0501  -2.47744  -1.16045 
 H                     14.19398   0.80537   6.37665 
 H                     14.17396   3.55049   5.74336 
 H                     12.2668   1.32184   5.16364 
 H                     12.25322   2.64166   3.97528 
 H                     11.90552   3.02558   5.634 
 H                     16.42429   2.8328    6.09201 
 H                     16.86614   1.11948   6.43041 
 H                     14.88391   1.90855   8.31605 
 H                     15.81072   3.33664   8.02206 
 H                     14.4402   6.72644   2.80957 
 H                     14.15346   7.42083   1.24918 
 H                     15.80511   7.50826   1.9058 
 H                     15.176    8.06956  -0.62403 
 H                     16.48401   8.20931  -1.9341 
 H                     16.86404   7.81388  -0.23333 
 H                     16.41031   1.61302  -3.70235 
 H                     15.09511  -1.00998  -3.20547 
 H                     14.54392   1.78929  -4.97303 
 H                     13.6006   1.85476  -3.44271 
 H                     13.84028   0.36721  -4.20781 
 H                     17.15805  -0.70625  -4.62809 
 H                     17.23371  -2.03612  -3.4876 
 H                     18.51182   0.59933  -3.54208 
 H                     19.28045  -0.98557  -3.16508 
 H                     18.28749  -0.08854  -1.9307 
 H                     16.60922  -4.90622   1.52145 
 H                     16.16089  -4.31734  -0.11207 
 H                     14.85754  -4.58889   1.11259 
 H                     14.45    -1.88098   5.44915 
 H                     16.4107  -2.56291   9.22718 
 H                     16.54412  -0.69941   9.0441 
 H                     17.72092  -1.88109   8.4188 
 
 ITRead=  0  0  0  0  0  0  0  0  0  0  0  0  0  0  0  0  0  0  0  0
 ITRead=  0  0  0  0  0  0  0  0  0  0  0  0  0  0  0  0  0  0  0  0
 ITRead=  0  0  0  0  0  0  0  0  0  0  0  0  0  0  0  0  0  0  0  0
 ITRead=  0  0  0  0  0  0  0  0  0  0  0  0  0  0  0  0  0  0  0  0
 ITRead=  0  0  0  0  0  0  0  0  0  0  0  0  0  0  0  0  0  0  0  0
 ITRead=  0  0  0  0  0  0  0  0  0  0  0  0  0  0  0  0  0  0  0  0
 ITRead=  0  0  0  0  0  0  0  0  0  0  0  0  0  0  0  0  0  0  0  0
 ITRead=  0  0  0  0  0  0  0  0  0  0  0  0  0  0  0  0  0  0
 MicOpt= -1 -1 -1 -1 -1 -1 -1 -1 -1 -1 -1 -1 -1 -1 -1 -1 -1 -1 -1 -1
 MicOpt= -1 -1 -1 -1 -1 -1 -1 -1 -1 -1 -1 -1 -1 -1 -1 -1 -1 -1 -1 -1
 MicOpt= -1 -1 -1 -1 -1 -1 -1 -1 -1 -1 -1 -1 -1 -1 -1 -1 -1 -1 -1 -1
 MicOpt= -1 -1 -1 -1 -1 -1 -1 -1 -1 -1 -1 -1 -1 -1 -1 -1 -1 -1 -1 -1
 MicOpt= -1 -1 -1 -1 -1 -1 -1 -1 -1 -1 -1 -1 -1 -1 -1 -1 -1 -1 -1 -1
 MicOpt= -1 -1 -1 -1 -1 -1 -1 -1 -1 -1 -1 -1 -1 -1 -1 -1 -1 -1 -1 -1
 MicOpt= -1 -1 -1 -1 -1 -1 -1 -1 -1 -1 -1 -1 -1 -1 -1 -1 -1 -1 -1 -1
 MicOpt= -1 -1 -1 -1 -1 -1 -1 -1 -1 -1 -1 -1 -1 -1 -1 -1 -1 -1
 NAtoms=    158 NQM=      158 NQMF=       0 NMMI=      0 NMMIF=      0
                NMic=       0 NMicF=      0.
                    Isotopes and Nuclear Properties:
 (Nuclear quadrupole moments (NQMom) in fm**2, nuclear magnetic moments (NMagM)
  in nuclear magnetons)

  Atom         1           2           3           4           5           6           7           8           9          10
 IAtWgt=          24          12          12          12          12          14          12          12          12          12
 AtmWgt=  23.9850450  12.0000000  12.0000000  12.0000000  12.0000000  14.0030740  12.0000000  12.0000000  12.0000000  12.0000000
 NucSpn=           0           0           0           0           0           2           0           0           0           0
 AtZEff=  -0.0000000  -0.0000000  -0.0000000  -0.0000000  -0.0000000  -0.0000000  -0.0000000  -0.0000000  -0.0000000  -0.0000000
 NQMom=    0.0000000   0.0000000   0.0000000   0.0000000   0.0000000   2.0440000   0.0000000   0.0000000   0.0000000   0.0000000
 NMagM=    0.0000000   0.0000000   0.0000000   0.0000000   0.0000000   0.4037610   0.0000000   0.0000000   0.0000000   0.0000000
 AtZNuc=  12.0000000   6.0000000   6.0000000   6.0000000   6.0000000   7.0000000   6.0000000   6.0000000   6.0000000   6.0000000

  Atom        11          12          13          14          15          16          17          18          19          20
 IAtWgt=          12          12          12           1          14          12          12          12          12          12
 AtmWgt=  12.0000000  12.0000000  12.0000000   1.0078250  14.0030740  12.0000000  12.0000000  12.0000000  12.0000000  12.0000000
 NucSpn=           0           0           0           1           2           0           0           0           0           0
 AtZEff=  -0.0000000  -0.0000000  -0.0000000  -0.0000000  -0.0000000  -0.0000000  -0.0000000  -0.0000000  -0.0000000  -0.0000000
 NQMom=    0.0000000   0.0000000   0.0000000   0.0000000   2.0440000   0.0000000   0.0000000   0.0000000   0.0000000   0.0000000
 NMagM=    0.0000000   0.0000000   0.0000000   2.7928460   0.4037610   0.0000000   0.0000000   0.0000000   0.0000000   0.0000000
 AtZNuc=   6.0000000   6.0000000   6.0000000   1.0000000   7.0000000   6.0000000   6.0000000   6.0000000   6.0000000   6.0000000

  Atom        21          22          23          24          25          26          27          28          29          30
 IAtWgt=          12          16          12          14          12          12          12          12          12          12
 AtmWgt=  12.0000000  15.9949146  12.0000000  14.0030740  12.0000000  12.0000000  12.0000000  12.0000000  12.0000000  12.0000000
 NucSpn=           0           0           0           2           0           0           0           0           0           0
 AtZEff=  -0.0000000  -0.0000000  -0.0000000  -0.0000000  -0.0000000  -0.0000000  -0.0000000  -0.0000000  -0.0000000  -0.0000000
 NQMom=    0.0000000   0.0000000   0.0000000   2.0440000   0.0000000   0.0000000   0.0000000   0.0000000   0.0000000   0.0000000
 NMagM=    0.0000000   0.0000000   0.0000000   0.4037610   0.0000000   0.0000000   0.0000000   0.0000000   0.0000000   0.0000000
 AtZNuc=   6.0000000   8.0000000   6.0000000   7.0000000   6.0000000   6.0000000   6.0000000   6.0000000   6.0000000   6.0000000

  Atom        31          32          33          34          35          36          37          38          39          40
 IAtWgt=          12          14          12          12          12          12          12          12          16          12
 AtmWgt=  12.0000000  14.0030740  12.0000000  12.0000000  12.0000000  12.0000000  12.0000000  12.0000000  15.9949146  12.0000000
 NucSpn=           0           2           0           0           0           0           0           0           0           0
 AtZEff=  -0.0000000  -0.0000000  -0.0000000  -0.0000000  -0.0000000  -0.0000000  -0.0000000  -0.0000000  -0.0000000  -0.0000000
 NQMom=    0.0000000   2.0440000   0.0000000   0.0000000   0.0000000   0.0000000   0.0000000   0.0000000   0.0000000   0.0000000
 NMagM=    0.0000000   0.4037610   0.0000000   0.0000000   0.0000000   0.0000000   0.0000000   0.0000000   0.0000000   0.0000000
 AtZNuc=   6.0000000   7.0000000   6.0000000   6.0000000   6.0000000   6.0000000   6.0000000   6.0000000   8.0000000   6.0000000

  Atom        41          42          43          44          45          46          47          48          49          50
 IAtWgt=          12          16          16          12           1           1           1           1           1           1
 AtmWgt=  12.0000000  15.9949146  15.9949146  12.0000000   1.0078250   1.0078250   1.0078250   1.0078250   1.0078250   1.0078250
 NucSpn=           0           0           0           0           1           1           1           1           1           1
 AtZEff=  -0.0000000  -0.0000000  -0.0000000  -0.0000000  -0.0000000  -0.0000000  -0.0000000  -0.0000000  -0.0000000  -0.0000000
 NQMom=    0.0000000   0.0000000   0.0000000   0.0000000   0.0000000   0.0000000   0.0000000   0.0000000   0.0000000   0.0000000
 NMagM=    0.0000000   0.0000000   0.0000000   0.0000000   2.7928460   2.7928460   2.7928460   2.7928460   2.7928460   2.7928460
 AtZNuc=   6.0000000   8.0000000   8.0000000   6.0000000   1.0000000   1.0000000   1.0000000   1.0000000   1.0000000   1.0000000

  Atom        51          52          53          54          55          56          57          58          59          60
 IAtWgt=           1           1           1           1           1           1           1           1           1           1
 AtmWgt=   1.0078250   1.0078250   1.0078250   1.0078250   1.0078250   1.0078250   1.0078250   1.0078250   1.0078250   1.0078250
 NucSpn=           1           1           1           1           1           1           1           1           1           1
 AtZEff=  -0.0000000  -0.0000000  -0.0000000  -0.0000000  -0.0000000  -0.0000000  -0.0000000  -0.0000000  -0.0000000  -0.0000000
 NQMom=    0.0000000   0.0000000   0.0000000   0.0000000   0.0000000   0.0000000   0.0000000   0.0000000   0.0000000   0.0000000
 NMagM=    2.7928460   2.7928460   2.7928460   2.7928460   2.7928460   2.7928460   2.7928460   2.7928460   2.7928460   2.7928460
 AtZNuc=   1.0000000   1.0000000   1.0000000   1.0000000   1.0000000   1.0000000   1.0000000   1.0000000   1.0000000   1.0000000

  Atom        61          62          63          64          65          66          67          68          69          70
 IAtWgt=           1           1           1           1           1           1           1           1           1           1
 AtmWgt=   1.0078250   1.0078250   1.0078250   1.0078250   1.0078250   1.0078250   1.0078250   1.0078250   1.0078250   1.0078250
 NucSpn=           1           1           1           1           1           1           1           1           1           1
 AtZEff=  -0.0000000  -0.0000000  -0.0000000  -0.0000000  -0.0000000  -0.0000000  -0.0000000  -0.0000000  -0.0000000  -0.0000000
 NQMom=    0.0000000   0.0000000   0.0000000   0.0000000   0.0000000   0.0000000   0.0000000   0.0000000   0.0000000   0.0000000
 NMagM=    2.7928460   2.7928460   2.7928460   2.7928460   2.7928460   2.7928460   2.7928460   2.7928460   2.7928460   2.7928460
 AtZNuc=   1.0000000   1.0000000   1.0000000   1.0000000   1.0000000   1.0000000   1.0000000   1.0000000   1.0000000   1.0000000

  Atom        71          72          73          74          75          76          77          78          79          80
 IAtWgt=           1           1           1           1           1           1           1           1           1          24
 AtmWgt=   1.0078250   1.0078250   1.0078250   1.0078250   1.0078250   1.0078250   1.0078250   1.0078250   1.0078250  23.9850450
 NucSpn=           1           1           1           1           1           1           1           1           1           0
 AtZEff=  -0.0000000  -0.0000000  -0.0000000  -0.0000000  -0.0000000  -0.0000000  -0.0000000  -0.0000000  -0.0000000  -0.0000000
 NQMom=    0.0000000   0.0000000   0.0000000   0.0000000   0.0000000   0.0000000   0.0000000   0.0000000   0.0000000   0.0000000
 NMagM=    2.7928460   2.7928460   2.7928460   2.7928460   2.7928460   2.7928460   2.7928460   2.7928460   2.7928460   0.0000000
 AtZNuc=   1.0000000   1.0000000   1.0000000   1.0000000   1.0000000   1.0000000   1.0000000   1.0000000   1.0000000  12.0000000

  Atom        81          82          83          84          85          86          87          88          89          90
 IAtWgt=          12          12          12          12          14          12          12          12          12          12
 AtmWgt=  12.0000000  12.0000000  12.0000000  12.0000000  14.0030740  12.0000000  12.0000000  12.0000000  12.0000000  12.0000000
 NucSpn=           0           0           0           0           2           0           0           0           0           0
 AtZEff=  -0.0000000  -0.0000000  -0.0000000  -0.0000000  -0.0000000  -0.0000000  -0.0000000  -0.0000000  -0.0000000  -0.0000000
 NQMom=    0.0000000   0.0000000   0.0000000   0.0000000   2.0440000   0.0000000   0.0000000   0.0000000   0.0000000   0.0000000
 NMagM=    0.0000000   0.0000000   0.0000000   0.0000000   0.4037610   0.0000000   0.0000000   0.0000000   0.0000000   0.0000000
 AtZNuc=   6.0000000   6.0000000   6.0000000   6.0000000   7.0000000   6.0000000   6.0000000   6.0000000   6.0000000   6.0000000

  Atom        91          92          93          94          95          96          97          98          99         100
 IAtWgt=          12          12           1          14          12          12          12          12          12          12
 AtmWgt=  12.0000000  12.0000000   1.0078250  14.0030740  12.0000000  12.0000000  12.0000000  12.0000000  12.0000000  12.0000000
 NucSpn=           0           0           1           2           0           0           0           0           0           0
 AtZEff=  -0.0000000  -0.0000000  -0.0000000  -0.0000000  -0.0000000  -0.0000000  -0.0000000  -0.0000000  -0.0000000  -0.0000000
 NQMom=    0.0000000   0.0000000   0.0000000   2.0440000   0.0000000   0.0000000   0.0000000   0.0000000   0.0000000   0.0000000
 NMagM=    0.0000000   0.0000000   2.7928460   0.4037610   0.0000000   0.0000000   0.0000000   0.0000000   0.0000000   0.0000000
 AtZNuc=   6.0000000   6.0000000   1.0000000   7.0000000   6.0000000   6.0000000   6.0000000   6.0000000   6.0000000   6.0000000

  Atom       101         102         103         104         105         106         107         108         109         110
 IAtWgt=          16          12          14          12          12          12          12          12          12          12
 AtmWgt=  15.9949146  12.0000000  14.0030740  12.0000000  12.0000000  12.0000000  12.0000000  12.0000000  12.0000000  12.0000000
 NucSpn=           0           0           2           0           0           0           0           0           0           0
 AtZEff=  -0.0000000  -0.0000000  -0.0000000  -0.0000000  -0.0000000  -0.0000000  -0.0000000  -0.0000000  -0.0000000  -0.0000000
 NQMom=    0.0000000   0.0000000   2.0440000   0.0000000   0.0000000   0.0000000   0.0000000   0.0000000   0.0000000   0.0000000
 NMagM=    0.0000000   0.0000000   0.4037610   0.0000000   0.0000000   0.0000000   0.0000000   0.0000000   0.0000000   0.0000000
 AtZNuc=   8.0000000   6.0000000   7.0000000   6.0000000   6.0000000   6.0000000   6.0000000   6.0000000   6.0000000   6.0000000

  Atom       111         112         113         114         115         116         117         118         119         120
 IAtWgt=          14          12          12          12          12          12          12          16          12          12
 AtmWgt=  14.0030740  12.0000000  12.0000000  12.0000000  12.0000000  12.0000000  12.0000000  15.9949146  12.0000000  12.0000000
 NucSpn=           2           0           0           0           0           0           0           0           0           0
 AtZEff=  -0.0000000  -0.0000000  -0.0000000  -0.0000000  -0.0000000  -0.0000000  -0.0000000  -0.0000000  -0.0000000  -0.0000000
 NQMom=    2.0440000   0.0000000   0.0000000   0.0000000   0.0000000   0.0000000   0.0000000   0.0000000   0.0000000   0.0000000
 NMagM=    0.4037610   0.0000000   0.0000000   0.0000000   0.0000000   0.0000000   0.0000000   0.0000000   0.0000000   0.0000000
 AtZNuc=   7.0000000   6.0000000   6.0000000   6.0000000   6.0000000   6.0000000   6.0000000   8.0000000   6.0000000   6.0000000

  Atom       121         122         123         124         125         126         127         128         129         130
 IAtWgt=          16          16          12           1           1           1           1           1           1           1
 AtmWgt=  15.9949146  15.9949146  12.0000000   1.0078250   1.0078250   1.0078250   1.0078250   1.0078250   1.0078250   1.0078250
 NucSpn=           0           0           0           1           1           1           1           1           1           1
 AtZEff=  -0.0000000  -0.0000000  -0.0000000  -0.0000000  -0.0000000  -0.0000000  -0.0000000  -0.0000000  -0.0000000  -0.0000000
 NQMom=    0.0000000   0.0000000   0.0000000   0.0000000   0.0000000   0.0000000   0.0000000   0.0000000   0.0000000   0.0000000
 NMagM=    0.0000000   0.0000000   0.0000000   2.7928460   2.7928460   2.7928460   2.7928460   2.7928460   2.7928460   2.7928460
 AtZNuc=   8.0000000   8.0000000   6.0000000   1.0000000   1.0000000   1.0000000   1.0000000   1.0000000   1.0000000   1.0000000

  Atom       131         132         133         134         135         136         137         138         139         140
 IAtWgt=           1           1           1           1           1           1           1           1           1           1
 AtmWgt=   1.0078250   1.0078250   1.0078250   1.0078250   1.0078250   1.0078250   1.0078250   1.0078250   1.0078250   1.0078250
 NucSpn=           1           1           1           1           1           1           1           1           1           1
 AtZEff=  -0.0000000  -0.0000000  -0.0000000  -0.0000000  -0.0000000  -0.0000000  -0.0000000  -0.0000000  -0.0000000  -0.0000000
 NQMom=    0.0000000   0.0000000   0.0000000   0.0000000   0.0000000   0.0000000   0.0000000   0.0000000   0.0000000   0.0000000
 NMagM=    2.7928460   2.7928460   2.7928460   2.7928460   2.7928460   2.7928460   2.7928460   2.7928460   2.7928460   2.7928460
 AtZNuc=   1.0000000   1.0000000   1.0000000   1.0000000   1.0000000   1.0000000   1.0000000   1.0000000   1.0000000   1.0000000

  Atom       141         142         143         144         145         146         147         148         149         150
 IAtWgt=           1           1           1           1           1           1           1           1           1           1
 AtmWgt=   1.0078250   1.0078250   1.0078250   1.0078250   1.0078250   1.0078250   1.0078250   1.0078250   1.0078250   1.0078250
 NucSpn=           1           1           1           1           1           1           1           1           1           1
 AtZEff=  -0.0000000  -0.0000000  -0.0000000  -0.0000000  -0.0000000  -0.0000000  -0.0000000  -0.0000000  -0.0000000  -0.0000000
 NQMom=    0.0000000   0.0000000   0.0000000   0.0000000   0.0000000   0.0000000   0.0000000   0.0000000   0.0000000   0.0000000
 NMagM=    2.7928460   2.7928460   2.7928460   2.7928460   2.7928460   2.7928460   2.7928460   2.7928460   2.7928460   2.7928460
 AtZNuc=   1.0000000   1.0000000   1.0000000   1.0000000   1.0000000   1.0000000   1.0000000   1.0000000   1.0000000   1.0000000

  Atom       151         152         153         154         155         156         157         158
 IAtWgt=           1           1           1           1           1           1           1           1
 AtmWgt=   1.0078250   1.0078250   1.0078250   1.0078250   1.0078250   1.0078250   1.0078250   1.0078250
 NucSpn=           1           1           1           1           1           1           1           1
 AtZEff=  -0.0000000  -0.0000000  -0.0000000  -0.0000000  -0.0000000  -0.0000000  -0.0000000  -0.0000000
 NQMom=    0.0000000   0.0000000   0.0000000   0.0000000   0.0000000   0.0000000   0.0000000   0.0000000
 NMagM=    2.7928460   2.7928460   2.7928460   2.7928460   2.7928460   2.7928460   2.7928460   2.7928460
 AtZNuc=   1.0000000   1.0000000   1.0000000   1.0000000   1.0000000   1.0000000   1.0000000   1.0000000
 Leave Link  101 at Sun Sep 12 05:43:47 2021, MaxMem= 23488102400 cpu:               3.4 elap:               0.2
 (Enter /sw/apps/gaussian-16.0/g16/l202.exe)
 Stoichiometry    C68H72Mg2N8O8
 Framework group  C1[X(C68H72Mg2N8O8)]
 Deg. of freedom   468
 Full point group                 C1      NOp   1
 Largest Abelian subgroup         C1      NOp   1
 Largest concise Abelian subgroup C1      NOp   1
                         Standard orientation:                         
 ---------------------------------------------------------------------
 Center     Atomic      Atomic             Coordinates (Angstroms)
 Number     Number       Type             X           Y           Z
 ---------------------------------------------------------------------
      1         12           0       -7.860175   -0.734058    0.084918
      2          6           0       -8.041766    2.825645    0.413176
      3          6           0       -8.735850   -0.327812   -3.187883
      4          6           0       -8.149967   -3.885619   -0.115845
      5          6           0       -8.119439   -0.919460    3.555374
      6          7           0       -8.303935    1.070354   -1.118336
      7          6           0       -8.279827    2.379501   -0.888718
      8          6           0       -8.456675    3.236234   -2.177945
      9          6           0       -9.216548    2.169302   -3.086927
     10          6           0       -8.694902    0.892897   -2.450846
     11          6           0      -10.733674    2.209551   -2.934574
     12          6           0       -7.084988    3.652285   -2.808108
     13          6           0       -7.161093    4.751942   -3.871272
     14          1           0       -6.079865    5.722243   -3.953804
     15          7           0       -7.888275   -1.920013   -1.494821
     16          6           0       -8.256753   -1.582878   -2.754126
     17          6           0       -8.104950   -2.809808   -3.565470
     18          6           0       -7.800222   -3.934147   -2.637518
     19          6           0       -7.961924   -3.288262   -1.359996
     20          6           0       -8.200810   -2.824899   -5.060239
     21          6           0       -7.433376   -5.366439   -2.865770
     22          8           0       -7.438148   -6.228551   -1.921676
     23          6           0       -7.150269   -5.758161   -4.258410
     24          7           0       -8.320711   -2.209950    1.487518
     25          6           0       -8.323111   -3.504571    1.151463
     26          6           0       -8.398704   -4.383453    2.364637
     27          6           0       -8.201969   -3.419131    3.622067
     28          6           0       -8.124802   -2.066341    2.872218
     29          6           0       -9.698669   -5.182157    2.532487
     30          6           0       -7.066824   -3.778810    4.613277
     31          6           0       -5.723544   -3.600638    3.941748
     32          7           0       -7.870433    0.678638    1.732713
     33          6           0       -8.011594    0.382619    3.096208
     34          6           0       -8.067723    1.669327    3.814053
     35          6           0       -7.971350    2.630924    2.810116
     36          6           0       -7.888366    1.986071    1.543005
     37          6           0       -8.250876    1.834545    5.215335
     38          6           0       -7.943970    4.053476    2.511028
     39          8           0       -7.888060    5.081036    3.188145
     40          6           0       -8.111154    4.238117    0.938201
     41          6           0       -7.058860    5.210941    0.480380
     42          8           0       -5.848076    4.912178    0.526294
     43          8           0       -7.647293    6.235853   -0.155107
     44          6           0       -6.656594    7.223187   -0.660913
     45          1           0       -9.231529   -0.340732   -4.160548
     46          1           0       -8.144232   -4.977511   -0.129161
     47          1           0       -8.114654   -0.899609    4.646720
     48          1           0       -9.074874    4.125222   -2.051632
     49          1           0       -8.905119    2.227755   -4.129672
     50          1           0      -11.035547    2.878438   -2.128730
     51          1           0      -11.030964    1.184935   -2.710360
     52          1           0      -11.211626    2.459696   -3.882080
     53          1           0       -6.705452    2.831642   -3.416843
     54          1           0       -6.378244    3.949088   -2.032384
     55          1           0       -8.127190    5.257170   -3.853676
     56          1           0       -7.119570    4.280916   -4.853418
     57          1           0       -8.596511   -1.886068   -5.445675
     58          1           0       -8.955189   -3.566075   -5.323448
     59          1           0       -7.251640   -3.083702   -5.529739
     60          1           0       -8.026046   -5.554084   -4.874783
     61          1           0       -6.819375   -6.795322   -4.217705
     62          1           0       -6.348928   -5.128622   -4.646330
     63          1           0       -7.604059   -5.128383    2.357990
     64          1           0       -9.094967   -3.373060    4.245851
     65          1           0       -9.544587   -6.258991    2.605910
     66          1           0      -10.354956   -4.937020    1.697930
     67          1           0      -10.310701   -4.885515    3.383861
     68          1           0       -7.140468   -4.824243    4.910922
     69          1           0       -7.079685   -3.174090    5.520140
     70          1           0       -5.592623   -4.540216    3.406131
     71          1           0       -4.940251   -3.464297    4.688122
     72          1           0       -5.752521   -2.803341    3.198806
     73          1           0       -7.547639    2.607200    5.525869
     74          1           0       -8.075789    0.901400    5.750301
     75          1           0       -9.295250    2.144573    5.247310
     76          1           0       -9.119067    4.617286    0.772479
     77          1           0       -6.930803    8.193741   -0.247309
     78          1           0       -6.643679    7.121046   -1.746180
     79          1           0       -5.638016    7.119736   -0.285231
     80         12           0        8.022090   -0.823507    0.063980
     81          6           0        7.836795    2.759030    0.164579
     82          6           0        7.143272   -0.627523   -3.225981
     83          6           0        7.736638   -3.983550    0.054561
     84          6           0        7.757966   -0.796130    3.538923
     85          7           0        7.575128    0.900207   -1.247991
     86          6           0        7.596761    2.217921   -1.115665
     87          6           0        7.426600    3.000747   -2.445250
     88          6           0        6.659579    1.872357   -3.292189
     89          6           0        7.180635    0.630107   -2.572473
     90          6           0        5.149413    1.920365   -3.129584
     91          6           0        8.803079    3.373722   -3.099639
     92          6           0        8.719903    4.400274   -4.231466
     93          1           0        9.806968    5.364260   -4.378093
     94          7           0        7.997212   -2.106236   -1.450135
     95          6           0        7.634785   -1.853076   -2.725214
     96          6           0        7.771431   -3.129708   -3.443344
     97          6           0        8.085905   -4.194196   -2.452053
     98          6           0        7.928144   -3.456871   -1.214490
     99          6           0        7.683778   -3.235891   -4.938163
    100          6           0        8.453656   -5.640171   -2.593935
    101          8           0        8.450803   -6.437298   -1.590234
    102          6           0        8.726523   -6.116446   -3.957818
    103          7           0        7.570067   -2.202828    1.552432
    104          6           0        7.562465   -3.522164    1.293147
    105          6           0        7.484524   -4.328144    2.567779
    106          6           0        7.686056   -3.275466    3.754726
    107          6           0        7.759778   -1.972970    2.928004
    108          6           0        6.183917   -5.100331    2.788105
    109          6           0        8.822273   -3.570653    4.771851
    110          6           0       10.167465   -3.446895    4.093224
    111          7           0        8.016715    0.684101    1.611607
    112          6           0        7.869070    0.479691    3.001027
    113          6           0        7.813133    1.813440    3.633790
    114          6           0        7.909764    2.708550    2.557713
    115          6           0        7.997935    1.983904    1.338446
    116          6           0        7.640675    2.068297    5.023552
    117          6           0        7.946533    4.101730    2.175088
    118          8           0        7.995198    5.169106    2.785056
    119          6           0        7.773603    4.197367    0.597961
    120          6           0        8.825603    5.134648    0.071341
    121          8           0       10.031198    4.839527    0.149126
    122          8           0        8.229774    6.117454   -0.628287
    123          6           0        9.233018    7.066505   -1.180204
    124          1           0        6.653522   -0.692771   -4.197977
    125          1           0        7.742345   -5.074139    0.118233
    126          1           0        7.775021   -0.703177    4.626917
    127          1           0        6.814374    3.891635   -2.372709
    128          1           0        6.978770    1.873083   -4.331169
    129          1           0        4.847757    2.632840   -2.376234
    130          1           0        4.852288    0.919637   -2.844449
    131          1           0        4.672278    2.112920   -4.094775
    132          1           0        9.180079    2.507716   -3.658782
    133          1           0        9.499338    3.710799   -2.356524
    134          1           0        7.748811    4.909536   -4.255522
    135          1           0        8.767952    3.869629   -5.185465
    136          1           0        7.280613   -2.318073   -5.383673
    137          1           0        6.930646   -3.999470   -5.160870
    138          1           0        8.630860   -3.529563   -5.395816
    139          1           0        7.852076   -5.946408   -4.581426
    140          1           0        9.058439   -7.150403   -3.845364
    141          1           0        9.537842   -5.514903   -4.382692
    142          1           0        8.279720   -5.062268    2.610368
    143          1           0        6.788833   -3.196565    4.386087
    144          1           0        6.339766   -6.186545    2.929257
    145          1           0        5.530731   -4.916234    1.945493
    146          1           0        5.580405   -4.758552    3.627248
    147          1           0        8.749980   -4.599746    5.132282
    148          1           0        8.802420   -2.922628    5.641713
    149          1           0       10.292865   -4.422517    3.614143
    150          1           0       10.950727   -3.263383    4.825941
    151          1           0       10.139903   -2.691111    3.299705
    152          1           0        8.336673    2.854364    5.284659
    153          1           0        7.811360    1.172035    5.616295
    154          1           0        6.591529    2.375540    5.036777
    155          1           0        6.764748    4.561774    0.400508
    156          1           0        8.955327    8.065055   -0.828830
    157          1           0        9.232636    6.899129   -2.273706
    158          1           0       10.250322    6.989033   -0.814782
 ---------------------------------------------------------------------
 Rotational constants (GHZ):           0.0202601           0.0060108           0.0055413
 Leave Link  202 at Sun Sep 12 05:43:47 2021, MaxMem= 23488102400 cpu:               0.2 elap:               0.0
 (Enter /sw/apps/gaussian-16.0/g16/l301.exe)
 Standard basis: def2SVP (5D, 7F)
 Ernie: Thresh=  0.10000D-02 Tol=  0.10000D-05 Strict=F.
 There are  1658 symmetry adapted cartesian basis functions of A   symmetry.
 There are  1572 symmetry adapted basis functions of A   symmetry.
  1572 basis functions,  2678 primitive gaussians,  1658 cartesian basis functions
   312 alpha electrons      312 beta electrons
       nuclear repulsion energy     13740.5833523363 Hartrees.
 IExCor=20419 DFT=T Ex+Corr=CAM-B3LYP ExCW=0 ScaHFX=  1.000000
 ScaDFX=  1.000000  1.000000  1.000000  0.810000 ScalE2=  1.000000  1.000000
 IRadAn=      5 IRanWt=     -1 IRanGd=            0 ICorTp=0 IEmpDi=  4
 HFx  wShort=  0.000000 wLong=  0.330000 cFull=  0.190000 cShort=  0.000000 cLong=  0.460000
 DFx  wShort=  0.000000 wLong=  0.330000 cFull=  0.190000 cShort=  0.000000 cLong=  0.460000
 NAtoms=  158 NActive=  158 NUniq=  158 SFac= 1.00D+00 NAtFMM=   60 NAOKFM=T Big=T
 Integral buffers will be    131072 words long.
 Raffenetti 1 integral format.
 Two-electron integral symmetry is turned on.
 Leave Link  301 at Sun Sep 12 05:43:47 2021, MaxMem= 23488102400 cpu:               1.5 elap:               0.1
 (Enter /sw/apps/gaussian-16.0/g16/l302.exe)
 NPDir=0 NMtPBC=     1 NCelOv=     1 NCel=       1 NClECP=     1 NCelD=      1
         NCelK=      1 NCelE2=     1 NClLst=     1 CellRange=     0.0.
 One-electron integrals computed using PRISM.
 One-electron integral symmetry used in STVInt
   1 Symmetry operations used in ECPInt.
 ECPInt:  NShTT=  271216 NPrTT=  987664 LenC2=  107378 LenP2D=  244321.
 LDataN:  DoStor=T MaxTD1= 4 Len=   56
 NBasis=  1572 RedAO= T EigKep=  3.36D-04  NBF=  1572
 NBsUse=  1572 1.00D-06 EigRej= -1.00D+00 NBFU=  1572
 Precomputing XC quadrature grid using
 IXCGrd= 4 IRadAn=           5 IRanWt=          -1 IRanGd=           0 AccXCQ= 0.00D+00.
 Generated NRdTot=       0 NPtTot=           0 NUsed=           0 NTot=          32
 NSgBfM=   854   827   836   844   854 MxSgAt=   158 MxSgA2=   149.
 Leave Link  302 at Sun Sep 12 05:43:52 2021, MaxMem= 23488102400 cpu:             109.7 elap:               4.6
 (Enter /sw/apps/gaussian-16.0/g16/l303.exe)
 DipDrv:  MaxL=1.
 Leave Link  303 at Sun Sep 12 05:43:52 2021, MaxMem= 23488102400 cpu:               8.0 elap:               0.4
 (Enter /sw/apps/gaussian-16.0/g16/l308.exe)
 Leave Link  308 at Sun Sep 12 05:43:53 2021, MaxMem= 23488102400 cpu:              13.1 elap:               0.6
 (Enter /sw/apps/gaussian-16.0/g16/l401.exe)
 ExpMin= 3.36D-02 ExpMax= 4.95D+03 ExpMxC= 7.45D+02 IAcc=3 IRadAn=         5 AccDes= 0.00D+00
 Harris functional with IExCor=20419 and IRadAn=       5 diagonalized for initial guess.
 HarFok:  IExCor=20419 AccDes= 0.00D+00 IRadAn=         5 IDoV= 1 UseB2=F ITyADJ=14
 ICtDFT=  3500011 ScaDFX=  1.000000  1.000000  1.000000  1.000000
 FoFCou: FMM=F IPFlag=           0 FMFlag=      100000 FMFlg1=        2001
         NFxFlg=           0 DoJE=T BraDBF=F KetDBF=T FulRan=T
         wScrn=  0.000000 ICntrl=       500 IOpCl=  0 I1Cent=   200000004 NGrid=           0
         NMat0=    1 NMatS0=      1 NMatT0=    0 NMatD0=    1 NMtDS0=    0 NMtDT0=    0
 Petite list used in FoFCou.
 Harris En= -3918.65801436973    
 JPrj=0 DoOrth=F DoCkMO=F.
 Leave Link  401 at Sun Sep 12 05:44:00 2021, MaxMem= 23488102400 cpu:             156.3 elap:               6.5
 (Enter /sw/apps/gaussian-16.0/g16/l502.exe)
 Integral symmetry usage will be decided dynamically.
 Closed shell SCF:
 Using DIIS extrapolation, IDIIS=  1040.
 NGot= 23488102400 LenX= 23482547354 LenY= 23479796732
 Requested convergence on RMS density matrix=1.00D-08 within 128 cycles.
 Requested convergence on MAX density matrix=1.00D-06.
 Requested convergence on             energy=1.00D-06.
 No special actions if energy rises.
 Fock matrices will be formed incrementally for  20 cycles.

 Cycle   1  Pass 1  IDiag  1:
 FoFJK:  IHMeth= 1 ICntrl=       0 DoSepK=T KAlg= 0 I1Cent=           0 FoldK=F
 IRaf=         1 NMat=       1 IRICut=       1 DoRegI=T DoRafI=F ISym2E= 0 IDoP0=0 IntGTp=1.
 FoFCou: FMM=T IPFlag=           0 FMFlag=      100000 FMFlg1=        2001
         NFxFlg=           0 DoJE=T BraDBF=F KetDBF=F FulRan=T
         wScrn=  0.000000 ICntrl=       500 IOpCl=  0 I1Cent=           0 NGrid=           0
         NMat0=    1 NMatS0=      1 NMatT0=    0 NMatD0=    1 NMtDS0=    0 NMtDT0=    0
 Symmetry not used in FoFCou.
 FMM levels:  10  Number of levels for PrismC:   9
 E= -4068.94895571106    
 DIIS: error= 2.04D-02 at cycle   1 NSaved=   1.
 NSaved= 1 IEnMin= 1 EnMin= -4068.94895571106     IErMin= 1 ErrMin= 2.04D-02
 ErrMax= 2.04D-02  0.00D+00 EMaxC= 1.00D-01 BMatC= 1.69D+00 BMatP= 1.69D+00
 IDIUse=3 WtCom= 7.96D-01 WtEn= 2.04D-01
 Coeff-Com:  0.100D+01
 Coeff-En:   0.100D+01
 Coeff:      0.100D+01
 Gap=     0.120 Goal=   None    Shift=    0.000
 GapD=    0.120 DampG=1.000 DampE=0.500 DampFc=0.5000 IDamp=-1.
 Damping current iteration by 5.00D-01
 RMSDP=1.57D-03 MaxDP=1.35D-01              OVMax= 2.04D-01

 Cycle   2  Pass 1  IDiag  1:
 RMSU=  7.70D-04    CP:  9.82D-01
 E= -4069.33780410275     Delta-E=       -0.388848391689 Rises=F Damp=T
 DIIS: error= 1.27D-02 at cycle   2 NSaved=   2.
 NSaved= 2 IEnMin= 2 EnMin= -4069.33780410275     IErMin= 2 ErrMin= 1.27D-02
 ErrMax= 1.27D-02  0.00D+00 EMaxC= 1.00D-01 BMatC= 3.07D-01 BMatP= 1.69D+00
 IDIUse=3 WtCom= 8.73D-01 WtEn= 1.27D-01
 Coeff-Com: -0.213D+00 0.121D+01
 Coeff-En:   0.000D+00 0.100D+01
 Coeff:     -0.186D+00 0.119D+01
 Gap=     0.136 Goal=   None    Shift=    0.000
 RMSDP=7.65D-04 MaxDP=9.44D-02 DE=-3.89D-01 OVMax= 1.90D-01

 Cycle   3  Pass 1  IDiag  1:
 RMSU=  7.33D-04    CP:  9.68D-01  1.24D+00
 E= -4069.62694760980     Delta-E=       -0.289143507041 Rises=F Damp=F
 DIIS: error= 1.57D-02 at cycle   3 NSaved=   3.
 NSaved= 3 IEnMin= 3 EnMin= -4069.62694760980     IErMin= 2 ErrMin= 1.27D-02
 ErrMax= 1.57D-02  0.00D+00 EMaxC= 1.00D-01 BMatC= 2.02D-01 BMatP= 3.07D-01
 IDIUse=3 WtCom= 8.43D-01 WtEn= 1.57D-01
 Coeff-Com: -0.267D+00 0.652D+00 0.615D+00
 Coeff-En:   0.000D+00 0.000D+00 0.100D+01
 Coeff:     -0.225D+00 0.549D+00 0.676D+00
 Gap=     0.123 Goal=   None    Shift=    0.000
 RMSDP=5.10D-04 MaxDP=4.86D-02 DE=-2.89D-01 OVMax= 1.45D-01

 Cycle   4  Pass 1  IDiag  1:
 RMSU=  2.66D-04    CP:  9.65D-01  1.55D+00  5.04D-01
 E= -4069.76448697083     Delta-E=       -0.137539361032 Rises=F Damp=F
 DIIS: error= 7.26D-03 at cycle   4 NSaved=   4.
 NSaved= 4 IEnMin= 4 EnMin= -4069.76448697083     IErMin= 4 ErrMin= 7.26D-03
 ErrMax= 7.26D-03  0.00D+00 EMaxC= 1.00D-01 BMatC= 5.06D-02 BMatP= 2.02D-01
 IDIUse=3 WtCom= 9.27D-01 WtEn= 7.26D-02
 Coeff-Com: -0.109D+00 0.226D+00 0.409D+00 0.474D+00
 Coeff-En:   0.000D+00 0.000D+00 0.222D+00 0.778D+00
 Coeff:     -0.101D+00 0.210D+00 0.395D+00 0.496D+00
 Gap=     0.122 Goal=   None    Shift=    0.000
 RMSDP=2.02D-04 MaxDP=1.98D-02 DE=-1.38D-01 OVMax= 6.38D-02

 Cycle   5  Pass 1  IDiag  1:
 RMSU=  7.67D-05    CP:  9.64D-01  1.49D+00  6.89D-01  5.48D-01
 E= -4069.81037812071     Delta-E=       -0.045891149886 Rises=F Damp=F
 DIIS: error= 7.68D-04 at cycle   5 NSaved=   5.
 NSaved= 5 IEnMin= 5 EnMin= -4069.81037812071     IErMin= 5 ErrMin= 7.68D-04
 ErrMax= 7.68D-04  0.00D+00 EMaxC= 1.00D-01 BMatC= 1.20D-03 BMatP= 5.06D-02
 IDIUse=3 WtCom= 9.92D-01 WtEn= 7.68D-03
 Coeff-Com: -0.363D-01 0.714D-01 0.167D+00 0.251D+00 0.547D+00
 Coeff-En:   0.000D+00 0.000D+00 0.000D+00 0.000D+00 0.100D+01
 Coeff:     -0.360D-01 0.708D-01 0.166D+00 0.249D+00 0.551D+00
 Gap=     0.122 Goal=   None    Shift=    0.000
 RMSDP=4.19D-05 MaxDP=4.16D-03 DE=-4.59D-02 OVMax= 1.73D-02

 Cycle   6  Pass 1  IDiag  1:
 RMSU=  3.09D-05    CP:  9.64D-01  1.49D+00  6.80D-01  6.21D-01  7.49D-01
 E= -4069.81143235655     Delta-E=       -0.001054235832 Rises=F Damp=F
 DIIS: error= 2.05D-04 at cycle   6 NSaved=   6.
 NSaved= 6 IEnMin= 6 EnMin= -4069.81143235655     IErMin= 6 ErrMin= 2.05D-04
 ErrMax= 2.05D-04  0.00D+00 EMaxC= 1.00D-01 BMatC= 1.84D-04 BMatP= 1.20D-03
 IDIUse=3 WtCom= 9.98D-01 WtEn= 2.05D-03
 Coeff-Com:  0.217D-02-0.652D-02 0.116D-01 0.407D-01 0.307D+00 0.645D+00
 Coeff-En:   0.000D+00 0.000D+00 0.000D+00 0.000D+00 0.110D+00 0.890D+00
 Coeff:      0.216D-02-0.650D-02 0.115D-01 0.406D-01 0.306D+00 0.646D+00
 Gap=     0.122 Goal=   None    Shift=    0.000
 RMSDP=1.64D-05 MaxDP=1.18D-03 DE=-1.05D-03 OVMax= 7.51D-03

 Cycle   7  Pass 1  IDiag  1:
 RMSU=  1.09D-05    CP:  9.64D-01  1.50D+00  6.86D-01  6.20D-01  8.54D-01
                    CP:  7.43D-01
 E= -4069.81163234355     Delta-E=       -0.000199987000 Rises=F Damp=F
 DIIS: error= 8.54D-05 at cycle   7 NSaved=   7.
 NSaved= 7 IEnMin= 7 EnMin= -4069.81163234355     IErMin= 7 ErrMin= 8.54D-05
 ErrMax= 8.54D-05  0.00D+00 EMaxC= 1.00D-01 BMatC= 2.23D-05 BMatP= 1.84D-04
 IDIUse=1 WtCom= 1.00D+00 WtEn= 0.00D+00
 Coeff-Com:  0.450D-02-0.986D-02-0.891D-02-0.350D-02 0.105D+00 0.333D+00
 Coeff-Com:  0.580D+00
 Coeff:      0.450D-02-0.986D-02-0.891D-02-0.350D-02 0.105D+00 0.333D+00
 Coeff:      0.580D+00
 Gap=     0.122 Goal=   None    Shift=    0.000
 RMSDP=6.61D-06 MaxDP=1.08D-03 DE=-2.00D-04 OVMax= 3.41D-03

 Cycle   8  Pass 1  IDiag  1:
 RMSU=  4.73D-06    CP:  9.64D-01  1.50D+00  6.87D-01  6.25D-01  8.57D-01
                    CP:  8.68D-01  8.17D-01
 E= -4069.81166004323     Delta-E=       -0.000027699680 Rises=F Damp=F
 DIIS: error= 5.07D-05 at cycle   8 NSaved=   8.
 NSaved= 8 IEnMin= 8 EnMin= -4069.81166004323     IErMin= 8 ErrMin= 5.07D-05
 ErrMax= 5.07D-05  0.00D+00 EMaxC= 1.00D-01 BMatC= 4.92D-06 BMatP= 2.23D-05
 IDIUse=1 WtCom= 1.00D+00 WtEn= 0.00D+00
 Coeff-Com:  0.218D-02-0.432D-02-0.780D-02-0.121D-01-0.107D-01 0.334D-01
 Coeff-Com:  0.336D+00 0.663D+00
 Coeff:      0.218D-02-0.432D-02-0.780D-02-0.121D-01-0.107D-01 0.334D-01
 Coeff:      0.336D+00 0.663D+00
 Gap=     0.122 Goal=   None    Shift=    0.000
 RMSDP=3.32D-06 MaxDP=3.63D-04 DE=-2.77D-05 OVMax= 1.07D-03

 Cycle   9  Pass 1  IDiag  1:
 RMSU=  1.93D-06    CP:  9.64D-01  1.50D+00  6.87D-01  6.26D-01  8.74D-01
                    CP:  8.95D-01  1.01D+00  9.51D-01
 E= -4069.81166792032     Delta-E=       -0.000007877090 Rises=F Damp=F
 DIIS: error= 2.00D-05 at cycle   9 NSaved=   9.
 NSaved= 9 IEnMin= 9 EnMin= -4069.81166792032     IErMin= 9 ErrMin= 2.00D-05
 ErrMax= 2.00D-05  0.00D+00 EMaxC= 1.00D-01 BMatC= 7.14D-07 BMatP= 4.92D-06
 IDIUse=1 WtCom= 1.00D+00 WtEn= 0.00D+00
 Coeff-Com:  0.471D-03-0.784D-03-0.269D-02-0.603D-02-0.209D-01-0.394D-01
 Coeff-Com:  0.101D+00 0.329D+00 0.639D+00
 Coeff:      0.471D-03-0.784D-03-0.269D-02-0.603D-02-0.209D-01-0.394D-01
 Coeff:      0.101D+00 0.329D+00 0.639D+00
 Gap=     0.122 Goal=   None    Shift=    0.000
 RMSDP=1.43D-06 MaxDP=1.45D-04 DE=-7.88D-06 OVMax= 7.49D-04

 Cycle  10  Pass 1  IDiag  1:
 RMSU=  9.49D-07    CP:  9.64D-01  1.50D+00  6.87D-01  6.27D-01  8.78D-01
                    CP:  9.08D-01  1.06D+00  1.12D+00  1.06D+00
 E= -4069.81166955836     Delta-E=       -0.000001638040 Rises=F Damp=F
 DIIS: error= 1.04D-05 at cycle  10 NSaved=  10.
 NSaved=10 IEnMin=10 EnMin= -4069.81166955836     IErMin=10 ErrMin= 1.04D-05
 ErrMax= 1.04D-05  0.00D+00 EMaxC= 1.00D-01 BMatC= 1.75D-07 BMatP= 7.14D-07
 IDIUse=1 WtCom= 1.00D+00 WtEn= 0.00D+00
 Coeff-Com: -0.428D-03 0.898D-03 0.123D-02 0.110D-02-0.372D-02-0.312D-01
 Coeff-Com: -0.451D-01-0.759D-01 0.249D+00 0.905D+00
 Coeff:     -0.428D-03 0.898D-03 0.123D-02 0.110D-02-0.372D-02-0.312D-01
 Coeff:     -0.451D-01-0.759D-01 0.249D+00 0.905D+00
 Gap=     0.122 Goal=   None    Shift=    0.000
 RMSDP=1.24D-06 MaxDP=1.23D-04 DE=-1.64D-06 OVMax= 6.25D-04

 Cycle  11  Pass 1  IDiag  1:
 RMSU=  5.27D-07    CP:  9.64D-01  1.50D+00  6.87D-01  6.27D-01  8.80D-01
                    CP:  9.18D-01  1.11D+00  1.23D+00  1.40D+00  1.37D+00
 E= -4069.81167036719     Delta-E=       -0.000000808839 Rises=F Damp=F
 DIIS: error= 4.09D-06 at cycle  11 NSaved=  11.
 NSaved=11 IEnMin=11 EnMin= -4069.81167036719     IErMin=11 ErrMin= 4.09D-06
 ErrMax= 4.09D-06  0.00D+00 EMaxC= 1.00D-01 BMatC= 6.54D-08 BMatP= 1.75D-07
 IDIUse=1 WtCom= 1.00D+00 WtEn= 0.00D+00
 Coeff-Com: -0.333D-03 0.649D-03 0.134D-02 0.213D-02 0.441D-02-0.861D-02
 Coeff-Com: -0.425D-01-0.133D+00-0.280D-01 0.476D+00 0.728D+00
 Coeff:     -0.333D-03 0.649D-03 0.134D-02 0.213D-02 0.441D-02-0.861D-02
 Coeff:     -0.425D-01-0.133D+00-0.280D-01 0.476D+00 0.728D+00
 Gap=     0.122 Goal=   None    Shift=    0.000
 RMSDP=6.99D-07 MaxDP=6.17D-05 DE=-8.09D-07 OVMax= 3.85D-04

 Cycle  12  Pass 1  IDiag  1:
 RMSU=  2.68D-07    CP:  9.64D-01  1.50D+00  6.87D-01  6.27D-01  8.81D-01
                    CP:  9.20D-01  1.13D+00  1.29D+00  1.56D+00  1.76D+00
                    CP:  1.19D+00
 E= -4069.81167064023     Delta-E=       -0.000000273030 Rises=F Damp=F
 DIIS: error= 2.49D-06 at cycle  12 NSaved=  12.
 NSaved=12 IEnMin=12 EnMin= -4069.81167064023     IErMin=12 ErrMin= 2.49D-06
 ErrMax= 2.49D-06  0.00D+00 EMaxC= 1.00D-01 BMatC= 1.59D-08 BMatP= 6.54D-08
 IDIUse=1 WtCom= 1.00D+00 WtEn= 0.00D+00
 Coeff-Com: -0.700D-05-0.310D-05 0.208D-03 0.553D-03 0.343D-02 0.384D-02
 Coeff-Com:  0.209D-02-0.369D-01-0.704D-01-0.622D-01 0.258D+00 0.901D+00
 Coeff:     -0.700D-05-0.310D-05 0.208D-03 0.553D-03 0.343D-02 0.384D-02
 Coeff:      0.209D-02-0.369D-01-0.704D-01-0.622D-01 0.258D+00 0.901D+00
 Gap=     0.122 Goal=   None    Shift=    0.000
 RMSDP=4.41D-07 MaxDP=3.16D-05 DE=-2.73D-07 OVMax= 2.53D-04

 Cycle  13  Pass 1  IDiag  1:
 RMSU=  1.68D-07    CP:  9.64D-01  1.50D+00  6.87D-01  6.27D-01  8.81D-01
                    CP:  9.21D-01  1.13D+00  1.32D+00  1.67D+00  1.99D+00
                    CP:  1.60D+00  1.25D+00
 E= -4069.81167073504     Delta-E=       -0.000000094817 Rises=F Damp=F
 DIIS: error= 1.28D-06 at cycle  13 NSaved=  13.
 NSaved=13 IEnMin=13 EnMin= -4069.81167073504     IErMin=13 ErrMin= 1.28D-06
 ErrMax= 1.28D-06  0.00D+00 EMaxC= 1.00D-01 BMatC= 8.62D-09 BMatP= 1.59D-08
 IDIUse=1 WtCom= 1.00D+00 WtEn= 0.00D+00
 Coeff-Com:  0.120D-03-0.246D-03-0.368D-03-0.451D-03 0.646D-03 0.505D-02
 Coeff-Com:  0.193D-01 0.228D-01-0.339D-01-0.240D+00-0.156D+00 0.591D+00
 Coeff-Com:  0.793D+00
 Coeff:      0.120D-03-0.246D-03-0.368D-03-0.451D-03 0.646D-03 0.505D-02
 Coeff:      0.193D-01 0.228D-01-0.339D-01-0.240D+00-0.156D+00 0.591D+00
 Coeff:      0.793D+00
 Gap=     0.122 Goal=   None    Shift=    0.000
 RMSDP=3.50D-07 MaxDP=2.38D-05 DE=-9.48D-08 OVMax= 2.08D-04

 Cycle  14  Pass 1  IDiag  1:
 RMSU=  7.77D-08    CP:  9.64D-01  1.50D+00  6.87D-01  6.27D-01  8.81D-01
                    CP:  9.21D-01  1.14D+00  1.35D+00  1.75D+00  2.18D+00
                    CP:  1.86D+00  1.77D+00  1.10D+00
 E= -4069.81167077328     Delta-E=       -0.000000038235 Rises=F Damp=F
 DIIS: error= 7.01D-07 at cycle  14 NSaved=  14.
 NSaved=14 IEnMin=14 EnMin= -4069.81167077328     IErMin=14 ErrMin= 7.01D-07
 ErrMax= 7.01D-07  0.00D+00 EMaxC= 1.00D-01 BMatC= 1.33D-09 BMatP= 8.62D-09
 IDIUse=1 WtCom= 1.00D+00 WtEn= 0.00D+00
 Coeff-Com:  0.678D-04-0.134D-03-0.251D-03-0.392D-03-0.467D-03 0.129D-02
 Coeff-Com:  0.106D-01 0.196D-01 0.398D-02-0.102D+00-0.144D+00 0.890D-01
 Coeff-Com:  0.408D+00 0.714D+00
 Coeff:      0.678D-04-0.134D-03-0.251D-03-0.392D-03-0.467D-03 0.129D-02
 Coeff:      0.106D-01 0.196D-01 0.398D-02-0.102D+00-0.144D+00 0.890D-01
 Coeff:      0.408D+00 0.714D+00
 Gap=     0.122 Goal=   None    Shift=    0.000
 RMSDP=1.06D-07 MaxDP=7.05D-06 DE=-3.82D-08 OVMax= 5.76D-05

 Cycle  15  Pass 1  IDiag  1:
 RMSU=  3.88D-08    CP:  9.64D-01  1.50D+00  6.87D-01  6.27D-01  8.81D-01
                    CP:  9.21D-01  1.14D+00  1.35D+00  1.77D+00  2.23D+00
                    CP:  1.97D+00  1.91D+00  1.34D+00  1.03D+00
 E= -4069.81167077754     Delta-E=       -0.000000004264 Rises=F Damp=F
 DIIS: error= 3.23D-07 at cycle  15 NSaved=  15.
 NSaved=15 IEnMin=15 EnMin= -4069.81167077754     IErMin=15 ErrMin= 3.23D-07
 ErrMax= 3.23D-07  0.00D+00 EMaxC= 1.00D-01 BMatC= 2.26D-10 BMatP= 1.33D-09
 IDIUse=1 WtCom= 1.00D+00 WtEn= 0.00D+00
 Coeff-Com:  0.586D-05-0.990D-05-0.345D-04-0.845D-04-0.299D-03-0.512D-03
 Coeff-Com:  0.117D-02 0.270D-02 0.877D-02 0.938D-03-0.307D-01-0.725D-01
 Coeff-Com:  0.330D-01 0.293D+00 0.764D+00
 Coeff:      0.586D-05-0.990D-05-0.345D-04-0.845D-04-0.299D-03-0.512D-03
 Coeff:      0.117D-02 0.270D-02 0.877D-02 0.938D-03-0.307D-01-0.725D-01
 Coeff:      0.330D-01 0.293D+00 0.764D+00
 Gap=     0.122 Goal=   None    Shift=    0.000
 RMSDP=3.98D-08 MaxDP=2.73D-06 DE=-4.26D-09 OVMax= 2.81D-05

 Cycle  16  Pass 1  IDiag  1:
 RMSU=  1.89D-08    CP:  9.64D-01  1.50D+00  6.87D-01  6.27D-01  8.81D-01
                    CP:  9.21D-01  1.14D+00  1.35D+00  1.77D+00  2.24D+00
                    CP:  2.00D+00  1.97D+00  1.41D+00  1.24D+00  1.14D+00
 E= -4069.81167077815     Delta-E=       -0.000000000611 Rises=F Damp=F
 DIIS: error= 1.84D-07 at cycle  16 NSaved=  16.
 NSaved=16 IEnMin=16 EnMin= -4069.81167077815     IErMin=16 ErrMin= 1.84D-07
 ErrMax= 1.84D-07  0.00D+00 EMaxC= 1.00D-01 BMatC= 8.69D-11 BMatP= 2.26D-10
 IDIUse=1 WtCom= 1.00D+00 WtEn= 0.00D+00
 Coeff-Com: -0.141D-04 0.286D-04 0.464D-04 0.523D-04-0.323D-04-0.634D-03
 Coeff-Com: -0.191D-02-0.422D-02 0.441D-02 0.253D-01 0.207D-01-0.643D-01
 Coeff-Com: -0.805D-01-0.407D-01 0.403D+00 0.739D+00
 Coeff:     -0.141D-04 0.286D-04 0.464D-04 0.523D-04-0.323D-04-0.634D-03
 Coeff:     -0.191D-02-0.422D-02 0.441D-02 0.253D-01 0.207D-01-0.643D-01
 Coeff:     -0.805D-01-0.407D-01 0.403D+00 0.739D+00
 Gap=     0.122 Goal=   None    Shift=    0.000
 RMSDP=2.34D-08 MaxDP=1.65D-06 DE=-6.11D-10 OVMax= 1.23D-05

 Cycle  17  Pass 1  IDiag  1:
 RMSU=  1.05D-08    CP:  9.64D-01  1.50D+00  6.87D-01  6.27D-01  8.81D-01
                    CP:  9.21D-01  1.14D+00  1.35D+00  1.78D+00  2.25D+00
                    CP:  2.01D+00  1.99D+00  1.46D+00  1.34D+00  1.44D+00
                    CP:  1.24D+00
 E= -4069.81167077878     Delta-E=       -0.000000000626 Rises=F Damp=F
 DIIS: error= 9.22D-08 at cycle  17 NSaved=  17.
 NSaved=17 IEnMin=17 EnMin= -4069.81167077878     IErMin=17 ErrMin= 9.22D-08
 ErrMax= 9.22D-08  0.00D+00 EMaxC= 1.00D-01 BMatC= 1.81D-11 BMatP= 8.69D-11
 IDIUse=1 WtCom= 1.00D+00 WtEn= 0.00D+00
 Coeff-Com: -0.735D-05 0.143D-04 0.289D-04 0.428D-04 0.820D-04-0.130D-03
 Coeff-Com: -0.941D-03-0.283D-02 0.103D-03 0.947D-02 0.176D-01-0.779D-02
 Coeff-Com: -0.358D-01-0.102D+00-0.237D-01 0.288D+00 0.857D+00
 Coeff:     -0.735D-05 0.143D-04 0.289D-04 0.428D-04 0.820D-04-0.130D-03
 Coeff:     -0.941D-03-0.283D-02 0.103D-03 0.947D-02 0.176D-01-0.779D-02
 Coeff:     -0.358D-01-0.102D+00-0.237D-01 0.288D+00 0.857D+00
 Gap=     0.122 Goal=   None    Shift=    0.000
 RMSDP=1.37D-08 MaxDP=1.08D-06 DE=-6.26D-10 OVMax= 9.54D-06

 Cycle  18  Pass 1  IDiag  1:
 RMSU=  5.11D-09    CP:  9.64D-01  1.50D+00  6.87D-01  6.27D-01  8.81D-01
                    CP:  9.21D-01  1.14D+00  1.35D+00  1.78D+00  2.25D+00
                    CP:  2.01D+00  2.00D+00  1.48D+00  1.40D+00  1.61D+00
                    CP:  1.64D+00  1.37D+00
 E= -4069.81167077872     Delta-E=        0.000000000058 Rises=F Damp=F
 DIIS: error= 6.38D-08 at cycle  18 NSaved=  18.
 NSaved=18 IEnMin=17 EnMin= -4069.81167077878     IErMin=18 ErrMin= 6.38D-08
 ErrMax= 6.38D-08  0.00D+00 EMaxC= 1.00D-01 BMatC= 7.73D-12 BMatP= 1.81D-11
 IDIUse=1 WtCom= 1.00D+00 WtEn= 0.00D+00
 Coeff-Com:  0.151D-05-0.334D-05-0.255D-05 0.114D-05 0.625D-04 0.168D-03
 Coeff-Com:  0.321D-03 0.534D-04-0.124D-02-0.532D-02 0.847D-03 0.184D-01
 Coeff-Com:  0.156D-01-0.367D-01-0.157D+00-0.174D+00 0.391D+00 0.947D+00
 Coeff:      0.151D-05-0.334D-05-0.255D-05 0.114D-05 0.625D-04 0.168D-03
 Coeff:      0.321D-03 0.534D-04-0.124D-02-0.532D-02 0.847D-03 0.184D-01
 Coeff:      0.156D-01-0.367D-01-0.157D+00-0.174D+00 0.391D+00 0.947D+00
 Gap=     0.122 Goal=   None    Shift=    0.000
 RMSDP=1.15D-08 MaxDP=7.83D-07 DE= 5.82D-11 OVMax= 6.01D-06

 Cycle  19  Pass 1  IDiag  1:
 RMSU=  3.04D-09    CP:  9.64D-01  1.50D+00  6.87D-01  6.27D-01  8.81D-01
                    CP:  9.21D-01  1.14D+00  1.35D+00  1.78D+00  2.25D+00
                    CP:  2.02D+00  2.01D+00  1.49D+00  1.45D+00  1.75D+00
                    CP:  1.95D+00  1.91D+00  1.28D+00
 E= -4069.81167077876     Delta-E=       -0.000000000040 Rises=F Damp=F
 DIIS: error= 3.19D-08 at cycle  19 NSaved=  19.
 NSaved=19 IEnMin=17 EnMin= -4069.81167077878     IErMin=19 ErrMin= 3.19D-08
 ErrMax= 3.19D-08  0.00D+00 EMaxC= 1.00D-01 BMatC= 1.87D-12 BMatP= 7.73D-12
 IDIUse=1 WtCom= 1.00D+00 WtEn= 0.00D+00
 Coeff-Com:  0.301D-05-0.608D-05-0.100D-04-0.122D-04 0.159D-04 0.130D-03
 Coeff-Com:  0.486D-03 0.811D-03-0.655D-03-0.623D-02-0.480D-02 0.130D-01
 Coeff-Com:  0.211D-01 0.969D-02-0.786D-01-0.192D+00-0.853D-02 0.526D+00
 Coeff-Com:  0.720D+00
 Coeff:      0.301D-05-0.608D-05-0.100D-04-0.122D-04 0.159D-04 0.130D-03
 Coeff:      0.486D-03 0.811D-03-0.655D-03-0.623D-02-0.480D-02 0.130D-01
 Coeff:      0.211D-01 0.969D-02-0.786D-01-0.192D+00-0.853D-02 0.526D+00
 Coeff:      0.720D+00
 Gap=     0.122 Goal=   None    Shift=    0.000
 RMSDP=4.95D-09 MaxDP=3.59D-07 DE=-4.00D-11 OVMax= 3.61D-06

 SCF Done:  E(RCAM-B3LYP) =  -4069.81167078     A.U. after   19 cycles
            NFock= 19  Conv=0.50D-08     -V/T= 2.0102
 KE= 4.028802049951D+03 PE=-3.696209579115D+04 EE= 1.512289871809D+04
 Leave Link  502 at Sun Sep 12 05:52:27 2021, MaxMem= 23488102400 cpu:           11606.9 elap:             507.2
 (Enter /sw/apps/gaussian-16.0/g16/l801.exe)
 DoSCS=F DFT=T ScalE2(SS,OS)=  1.000000  1.000000
 ExpMin= 3.36D-02 ExpMax= 4.95D+03 ExpMxC= 7.45D+02 IAcc=3 IRadAn=         5 AccDes= 0.00D+00
 HarFok:  IExCor=  205 AccDes= 0.00D+00 IRadAn=         5 IDoV=-2 UseB2=F ITyADJ=14
 ICtDFT= 12500011 ScaDFX=  1.000000  1.000000  1.000000  1.000000
 GSVD:  LWork=       -9588 too small for GESVD, short by       45590 words or       45590 for optimal perf.
 Largest valence mixing into a core orbital is  2.03D-04
 Largest core mixing into a valence orbital is  5.24D-05
 Range of M.O.s used for correlation:    95  1572
 NBasis=  1572 NAE=   312 NBE=   312 NFC=    94 NFV=     0
 NROrb=   1478 NOA=   218 NOB=   218 NVA=  1260 NVB=  1260
 Leave Link  801 at Sun Sep 12 05:52:27 2021, MaxMem= 23488102400 cpu:               8.0 elap:               0.4
 (Enter /sw/apps/gaussian-16.0/g16/l914.exe)
 RHF ground state
 Two-electron integrals replicated using symmetry.
 MDV= 23488102400 DFT=T DoStab=F Mixed=T DoRPA=T DoScal=F NonHer=T
 Making orbital integer symmetry assigments:
 Orbital symmetries:
       Occupied  (A) (A) (A) (A) (A) (A) (A) (A) (A) (A) (A) (A)
                 (A) (A) (A) (A) (A) (A) (A) (A) (A) (A) (A) (A)
                 (A) (A) (A) (A) (A) (A) (A) (A) (A) (A) (A) (A)
                 (A) (A) (A) (A) (A) (A) (A) (A) (A) (A) (A) (A)
                 (A) (A) (A) (A) (A) (A) (A) (A) (A) (A) (A) (A)
                 (A) (A) (A) (A) (A) (A) (A) (A) (A) (A) (A) (A)
                 (A) (A) (A) (A) (A) (A) (A) (A) (A) (A) (A) (A)
                 (A) (A) (A) (A) (A) (A) (A) (A) (A) (A) (A) (A)
                 (A) (A) (A) (A) (A) (A) (A) (A) (A) (A) (A) (A)
                 (A) (A) (A) (A) (A) (A) (A) (A) (A) (A) (A) (A)
                 (A) (A) (A) (A) (A) (A) (A) (A) (A) (A) (A) (A)
                 (A) (A) (A) (A) (A) (A) (A) (A) (A) (A) (A) (A)
                 (A) (A) (A) (A) (A) (A) (A) (A) (A) (A) (A) (A)
                 (A) (A) (A) (A) (A) (A) (A) (A) (A) (A) (A) (A)
                 (A) (A) (A) (A) (A) (A) (A) (A) (A) (A) (A) (A)
                 (A) (A) (A) (A) (A) (A) (A) (A) (A) (A) (A) (A)
                 (A) (A) (A) (A) (A) (A) (A) (A) (A) (A) (A) (A)
                 (A) (A) (A) (A) (A) (A) (A) (A) (A) (A) (A) (A)
                 (A) (A) (A) (A) (A) (A) (A) (A) (A) (A) (A) (A)
                 (A) (A) (A) (A) (A) (A) (A) (A) (A) (A) (A) (A)
                 (A) (A) (A) (A) (A) (A) (A) (A) (A) (A) (A) (A)
                 (A) (A) (A) (A) (A) (A) (A) (A) (A) (A) (A) (A)
                 (A) (A) (A) (A) (A) (A) (A) (A) (A) (A) (A) (A)
                 (A) (A) (A) (A) (A) (A) (A) (A) (A) (A) (A) (A)
                 (A) (A) (A) (A) (A) (A) (A) (A) (A) (A) (A) (A)
                 (A) (A) (A) (A) (A) (A) (A) (A) (A) (A) (A) (A)
       Virtual   (A) (A) (A) (A) (A) (A) (A) (A) (A) (A) (A) (A)
                 (A) (A) (A) (A) (A) (A) (A) (A) (A) (A) (A) (A)
                 (A) (A) (A) (A) (A) (A) (A) (A) (A) (A) (A) (A)
                 (A) (A) (A) (A) (A) (A) (A) (A) (A) (A) (A) (A)
                 (A) (A) (A) (A) (A) (A) (A) (A) (A) (A) (A) (A)
                 (A) (A) (A) (A) (A) (A) (A) (A) (A) (A) (A) (A)
                 (A) (A) (A) (A) (A) (A) (A) (A) (A) (A) (A) (A)
                 (A) (A) (A) (A) (A) (A) (A) (A) (A) (A) (A) (A)
                 (A) (A) (A) (A) (A) (A) (A) (A) (A) (A) (A) (A)
                 (A) (A) (A) (A) (A) (A) (A) (A) (A) (A) (A) (A)
                 (A) (A) (A) (A) (A) (A) (A) (A) (A) (A) (A) (A)
                 (A) (A) (A) (A) (A) (A) (A) (A) (A) (A) (A) (A)
                 (A) (A) (A) (A) (A) (A) (A) (A) (A) (A) (A) (A)
                 (A) (A) (A) (A) (A) (A) (A) (A) (A) (A) (A) (A)
                 (A) (A) (A) (A) (A) (A) (A) (A) (A) (A) (A) (A)
                 (A) (A) (A) (A) (A) (A) (A) (A) (A) (A) (A) (A)
                 (A) (A) (A) (A) (A) (A) (A) (A) (A) (A) (A) (A)
                 (A) (A) (A) (A) (A) (A) (A) (A) (A) (A) (A) (A)
                 (A) (A) (A) (A) (A) (A) (A) (A) (A) (A) (A) (A)
                 (A) (A) (A) (A) (A) (A) (A) (A) (A) (A) (A) (A)
                 (A) (A) (A) (A) (A) (A) (A) (A) (A) (A) (A) (A)
                 (A) (A) (A) (A) (A) (A) (A) (A) (A) (A) (A) (A)
                 (A) (A) (A) (A) (A) (A) (A) (A) (A) (A) (A) (A)
                 (A) (A) (A) (A) (A) (A) (A) (A) (A) (A) (A) (A)
                 (A) (A) (A) (A) (A) (A) (A) (A) (A) (A) (A) (A)
                 (A) (A) (A) (A) (A) (A) (A) (A) (A) (A) (A) (A)
                 (A) (A) (A) (A) (A) (A) (A) (A) (A) (A) (A) (A)
                 (A) (A) (A) (A) (A) (A) (A) (A) (A) (A) (A) (A)
                 (A) (A) (A) (A) (A) (A) (A) (A) (A) (A) (A) (A)
                 (A) (A) (A) (A) (A) (A) (A) (A) (A) (A) (A) (A)
                 (A) (A) (A) (A) (A) (A) (A) (A) (A) (A) (A) (A)
                 (A) (A) (A) (A) (A) (A) (A) (A) (A) (A) (A) (A)
                 (A) (A) (A) (A) (A) (A) (A) (A) (A) (A) (A) (A)
                 (A) (A) (A) (A) (A) (A) (A) (A) (A) (A) (A) (A)
                 (A) (A) (A) (A) (A) (A) (A) (A) (A) (A) (A) (A)
                 (A) (A) (A) (A) (A) (A) (A) (A) (A) (A) (A) (A)
                 (A) (A) (A) (A) (A) (A) (A) (A) (A) (A) (A) (A)
                 (A) (A) (A) (A) (A) (A) (A) (A) (A) (A) (A) (A)
                 (A) (A) (A) (A) (A) (A) (A) (A) (A) (A) (A) (A)
                 (A) (A) (A) (A) (A) (A) (A) (A) (A) (A) (A) (A)
                 (A) (A) (A) (A) (A) (A) (A) (A) (A) (A) (A) (A)
                 (A) (A) (A) (A) (A) (A) (A) (A) (A) (A) (A) (A)
                 (A) (A) (A) (A) (A) (A) (A) (A) (A) (A) (A) (A)
                 (A) (A) (A) (A) (A) (A) (A) (A) (A) (A) (A) (A)
                 (A) (A) (A) (A) (A) (A) (A) (A) (A) (A) (A) (A)
                 (A) (A) (A) (A) (A) (A) (A) (A) (A) (A) (A) (A)
                 (A) (A) (A) (A) (A) (A) (A) (A) (A) (A) (A) (A)
                 (A) (A) (A) (A) (A) (A) (A) (A) (A) (A) (A) (A)
                 (A) (A) (A) (A) (A) (A) (A) (A) (A) (A) (A) (A)
                 (A) (A) (A) (A) (A) (A) (A) (A) (A) (A) (A) (A)
                 (A) (A) (A) (A) (A) (A) (A) (A) (A) (A) (A) (A)
                 (A) (A) (A) (A) (A) (A) (A) (A) (A) (A) (A) (A)
                 (A) (A) (A) (A) (A) (A) (A) (A) (A) (A) (A) (A)
                 (A) (A) (A) (A) (A) (A) (A) (A) (A) (A) (A) (A)
                 (A) (A) (A) (A) (A) (A) (A) (A) (A) (A) (A) (A)
                 (A) (A) (A) (A) (A) (A) (A) (A) (A) (A) (A) (A)
                 (A) (A) (A) (A) (A) (A) (A) (A) (A) (A) (A) (A)
                 (A) (A) (A) (A) (A) (A) (A) (A) (A) (A) (A) (A)
                 (A) (A) (A) (A) (A) (A) (A) (A) (A) (A) (A) (A)
                 (A) (A) (A) (A) (A) (A) (A) (A) (A) (A) (A) (A)
                 (A) (A) (A) (A) (A) (A) (A) (A) (A) (A) (A) (A)
                 (A) (A) (A) (A) (A) (A) (A) (A) (A) (A) (A) (A)
                 (A) (A) (A) (A) (A) (A) (A) (A) (A) (A) (A) (A)
                 (A) (A) (A) (A) (A) (A) (A) (A) (A) (A) (A) (A)
                 (A) (A) (A) (A) (A) (A) (A) (A) (A) (A) (A) (A)
                 (A) (A) (A) (A) (A) (A) (A) (A) (A) (A) (A) (A)
                 (A) (A) (A) (A) (A) (A) (A) (A) (A) (A) (A) (A)
                 (A) (A) (A) (A) (A) (A) (A) (A) (A) (A) (A) (A)
                 (A) (A) (A) (A) (A) (A) (A) (A) (A) (A) (A) (A)
                 (A) (A) (A) (A) (A) (A) (A) (A) (A) (A) (A) (A)
                 (A) (A) (A) (A) (A) (A) (A) (A) (A) (A) (A) (A)
                 (A) (A) (A) (A) (A) (A) (A) (A) (A) (A) (A) (A)
                 (A) (A) (A) (A) (A) (A) (A) (A) (A) (A) (A) (A)
                 (A) (A) (A) (A) (A) (A) (A) (A) (A) (A) (A) (A)
                 (A) (A) (A) (A) (A) (A) (A) (A) (A) (A) (A) (A)
                 (A) (A) (A) (A) (A) (A) (A) (A) (A) (A) (A) (A)
                 (A) (A) (A) (A) (A) (A) (A) (A) (A) (A) (A) (A)
                 (A) (A) (A) (A) (A) (A) (A) (A) (A) (A) (A) (A)
                 (A) (A) (A) (A) (A) (A) (A) (A) (A) (A) (A) (A)
                 (A) (A) (A) (A) (A) (A) (A) (A) (A) (A) (A) (A)
                 (A) (A) (A) (A) (A) (A) (A) (A) (A) (A) (A) (A)
                 (A) (A) (A) (A) (A) (A) (A) (A) (A) (A) (A) (A)
                 (A) (A) (A) (A) (A) (A) (A) (A) (A) (A) (A) (A)
                 (A) (A) (A) (A) (A) (A) (A) (A) (A) (A) (A) (A)
                 (A) (A) (A) (A) (A) (A) (A) (A) (A) (A) (A) (A)
                 (A) (A) (A) (A) (A) (A) (A) (A) (A) (A) (A) (A)
                 (A) (A) (A) (A) (A) (A) (A) (A) (A) (A) (A) (A)
                 (A) (A) (A) (A) (A) (A) (A) (A) (A) (A) (A) (A)
                 (A) (A) (A) (A) (A) (A) (A) (A) (A) (A) (A) (A)
                 (A) (A) (A) (A) (A) (A) (A) (A) (A) (A) (A) (A)
                 (A) (A) (A) (A) (A) (A) (A) (A) (A) (A) (A) (A)
                 (A) (A) (A) (A) (A) (A) (A) (A) (A) (A) (A) (A)
                 (A) (A) (A) (A) (A) (A) (A) (A) (A) (A) (A) (A)
                 (A) (A) (A) (A) (A) (A) (A) (A) (A) (A) (A) (A)
                 (A) (A) (A) (A) (A) (A) (A) (A) (A) (A) (A) (A)
                 (A) (A) (A) (A) (A) (A) (A) (A) (A) (A) (A) (A)
                 (A) (A) (A) (A) (A) (A) (A) (A) (A) (A) (A) (A)
                 (A) (A) (A) (A) (A) (A) (A) (A) (A) (A) (A) (A)
                 (A) (A) (A) (A) (A) (A) (A) (A) (A) (A) (A) (A)
                 (A) (A) (A) (A) (A) (A) (A) (A) (A) (A) (A) (A)
                 (A) (A) (A) (A) (A) (A) (A) (A) (A) (A) (A) (A)
                 (A) (A) (A) (A) (A) (A) (A) (A) (A) (A) (A) (A)
                 (A) (A) (A) (A) (A) (A) (A) (A) (A) (A) (A) (A)
                 (A) (A) (A) (A) (A) (A) (A) (A) (A) (A) (A) (A)
                 (A) (A) (A) (A) (A) (A) (A) (A) (A) (A) (A) (A)
    20 initial guesses have been made.
 Convergence on wavefunction:    0.001000000000000
 Davidson Disk Diagonalization:  ConvIn= 1.00D-03 SkipCon=T Conv= 1.00D-03.
 Max sub-space:  2000 roots to seek:    20 dimension of matrix:       549360
 Iteration     1 Dimension    20 NMult     0 NNew     20
 CISAX will form    20 AO SS matrices at one time.
 NMat=    20 NSing=    20 JSym2X= 0.
 FoFJK:  IHMeth= 1 ICntrl=       0 DoSepK=T KAlg= 0 I1Cent=           0 FoldK=F
 IRaf=         1 NMat=      40 IRICut=       1 DoRegI=T DoRafI=F ISym2E= 0 IDoP0=3 IntGTp=3.
 FoFCou: FMM=T IPFlag=           0 FMFlag=      100000 FMFlg1=        2001
         NFxFlg=           0 DoJE=F BraDBF=F KetDBF=F FulRan=T
         wScrn=  0.000000 ICntrl=       500 IOpCl=  0 I1Cent=           0 NGrid=           0
         NMat0=   20 NMatS0=     20 NMatT0=    0 NMatD0=   20 NMtDS0=    0 NMtDT0=    0
 Symmetry not used in FoFCou.
 FMM levels:  10  Number of levels for PrismC:   9
 New state      1 was old state      7
 New state      2 was old state      6
 New state      3 was old state      2
 New state      4 was old state      3
 New state      5 was old state      1
 Excitation Energies [eV] at current iteration:
 Root      1 :     2.613441040908203
 Root      2 :     2.619692758862855
 Root      3 :     2.668138370033652
 Root      4 :     2.702700153126673
 Root      5 :     2.765099844056724
 Root      6 :     2.824841104228041
 Root      7 :     3.556131211314535
 Root      8 :     3.626399032670595
 Root      9 :     3.626470334169252
 Root     10 :     3.668049874728224
 Root     11 :     3.737623795270417
 Root     12 :     3.759956596566350
 Root     13 :     4.291878512581826
 Root     14 :     4.317149643578179
 Root     15 :     4.673553161654628
 Root     16 :     4.758314401651102
 Root     17 :     4.975935723428889
 Root     18 :     5.011504321634033
 Root     19 :     5.050632954938433
 Root     20 :     5.084617388881291
 Iteration     2 Dimension    30 NMult    20 NNew     10
 CISAX will form    10 AO SS matrices at one time.
 NMat=    10 NSing=    10 JSym2X= 0.
 New state      1 was old state      3
 Root      1 not converged, maximum delta is    0.153832145901956
 New state      2 was old state      4
 Root      2 not converged, maximum delta is    0.157841207718439
 New state      3 was old state      2
 Root      3 not converged, maximum delta is    0.403843329266280
 New state      4 was old state      1
 Root      4 not converged, maximum delta is    0.396147850699824
 Root      5 has converged.
 Excitation Energies [eV] at current iteration:
 Root      1 :     1.795454497398662   Change is   -0.872683872634990
 Root      2 :     1.812871017837459   Change is   -0.889829135289214
 Root      3 :     2.234841125414953   Change is   -0.384851633447902
 Root      4 :     2.239758029446511   Change is   -0.373683011461692
 Root      5 :     2.765018580512469   Change is   -0.000081263544255
 Iteration     3 Dimension    38 NMult    30 NNew      8
 CISAX will form     8 AO SS matrices at one time.
 NMat=     8 NSing=     8 JSym2X= 0.
 Root      1 not converged, maximum delta is    0.055725569007472
 Root      2 not converged, maximum delta is    0.056657319535494
 Root      3 not converged, maximum delta is    0.095458897621235
 Root      4 not converged, maximum delta is    0.095025873851084
 Root      5 has converged.
 Excitation Energies [eV] at current iteration:
 Root      1 :     1.688573905237207   Change is   -0.106880592161455
 Root      2 :     1.704181435269251   Change is   -0.108689582568208
 Root      3 :     2.193655989029990   Change is   -0.041185136384964
 Root      4 :     2.200540471046182   Change is   -0.039217558400329
 Root      5 :     2.765018580512588   Change is    0.000000000000119
 Iteration     4 Dimension    46 NMult    38 NNew      8
 CISAX will form     8 AO SS matrices at one time.
 NMat=     8 NSing=     8 JSym2X= 0.
 Root      1 not converged, maximum delta is    0.010764196794499
 Root      2 not converged, maximum delta is    0.010738256348686
 Root      3 not converged, maximum delta is    0.012522830769986
 Root      4 not converged, maximum delta is    0.012404892689915
 Root      5 has converged.
 Excitation Energies [eV] at current iteration:
 Root      1 :     1.671841735541501   Change is   -0.016732169695706
 Root      2 :     1.687324262232622   Change is   -0.016857173036629
 Root      3 :     2.186375764569484   Change is   -0.007280224460506
 Root      4 :     2.193725764374729   Change is   -0.006814706671453
 Root      5 :     2.765018580512498   Change is   -0.000000000000089
 Iteration     5 Dimension    54 NMult    46 NNew      8
 CISAX will form     8 AO SS matrices at one time.
 NMat=     8 NSing=     8 JSym2X= 0.
 Root      1 not converged, maximum delta is    0.001761232847686
 Root      2 not converged, maximum delta is    0.001785575253361
 Root      3 not converged, maximum delta is    0.002446239572387
 Root      4 not converged, maximum delta is    0.002324088389963
 Root      5 has converged.
 Excitation Energies [eV] at current iteration:
 Root      1 :     1.670081746796128   Change is   -0.001759988745372
 Root      2 :     1.685534263716576   Change is   -0.001789998516047
 Root      3 :     2.185532029113180   Change is   -0.000843735456304
 Root      4 :     2.192946747339537   Change is   -0.000779017035192
 Root      5 :     2.765018580512558   Change is    0.000000000000059
 Iteration     6 Dimension    62 NMult    54 NNew      8
 CISAX will form     8 AO SS matrices at one time.
 NMat=     8 NSing=     8 JSym2X= 0.
 Root      1 not converged, maximum delta is    0.001095213197271
 Root      2 not converged, maximum delta is    0.001111210079601
 Root      3 not converged, maximum delta is    0.001043397909689
 Root      4 has converged.
 Root      5 has converged.
 Excitation Energies [eV] at current iteration:
 Root      1 :     1.669831101946120   Change is   -0.000250644850008
 Root      2 :     1.685277115921171   Change is   -0.000257147795405
 Root      3 :     2.185404004055236   Change is   -0.000128025057944
 Root      4 :     2.192828161185790   Change is   -0.000118586153747
 Root      5 :     2.765018580512588   Change is    0.000000000000030
 Iteration     7 Dimension    68 NMult    62 NNew      6
 CISAX will form     6 AO SS matrices at one time.
 NMat=     6 NSing=     6 JSym2X= 0.
 Root      1 has converged.
 Root      2 has converged.
 Root      3 has converged.
 Root      4 has converged.
 Root      5 has converged.
 Excitation Energies [eV] at current iteration:
 Root      1 :     1.669806707679985   Change is   -0.000024394266136
 Root      2 :     1.685252602618919   Change is   -0.000024513302251
[...]
 Alpha virt. eigenvalues --    1.83542   1.83758   1.83913   1.84022   1.84223
 Alpha virt. eigenvalues --    1.84452   1.84546   1.84808   1.84809   1.85104
 Alpha virt. eigenvalues --    1.85142   1.85274   1.85356   1.85476   1.85507
 Alpha virt. eigenvalues --    1.85867   1.85923   1.86359   1.86401   1.86554
 Alpha virt. eigenvalues --    1.86671   1.86785   1.86843   1.87044   1.87064
 Alpha virt. eigenvalues --    1.87444   1.87504   1.87683   1.87792   1.87867
 Alpha virt. eigenvalues --    1.88035   1.88039   1.88197   1.88532   1.88592
 Alpha virt. eigenvalues --    1.88819   1.88962   1.89095   1.89128   1.89623
 Alpha virt. eigenvalues --    1.89677   1.89743   1.89894   1.90118   1.90210
 Alpha virt. eigenvalues --    1.90754   1.90918   1.91349   1.91443   1.91447
 Alpha virt. eigenvalues --    1.91615   1.92155   1.92206   1.92617   1.92677
 Alpha virt. eigenvalues --    1.92983   1.93172   1.93339   1.93523   1.94283
 Alpha virt. eigenvalues --    1.94326   1.94688   1.94834   1.95479   1.95612
 Alpha virt. eigenvalues --    1.95726   1.95834   1.95994   1.96067   1.96153
 Alpha virt. eigenvalues --    1.96196   1.96503   1.96596   1.96895   1.96953
 Alpha virt. eigenvalues --    1.97451   1.97561   1.97824   1.97837   1.98168
 Alpha virt. eigenvalues --    1.98190   1.98371   1.98679   1.99093   1.99136
 Alpha virt. eigenvalues --    1.99817   1.99949   2.00660   2.00747   2.00996
 Alpha virt. eigenvalues --    2.01117   2.01475   2.01526   2.01624   2.01675
 Alpha virt. eigenvalues --    2.01719   2.01843   2.02729   2.02783   2.03160
 Alpha virt. eigenvalues --    2.03236   2.03398   2.03404   2.03483   2.03542
 Alpha virt. eigenvalues --    2.04035   2.04045   2.04956   2.04994   2.05512
 Alpha virt. eigenvalues --    2.05645   2.06078   2.06302   2.06904   2.07056
 Alpha virt. eigenvalues --    2.07188   2.07372   2.08563   2.08583   2.08978
 Alpha virt. eigenvalues --    2.09023   2.09585   2.09630   2.10781   2.11052
 Alpha virt. eigenvalues --    2.11183   2.11427   2.11531   2.11548   2.11723
 Alpha virt. eigenvalues --    2.11882   2.12461   2.12482   2.12802   2.12818
 Alpha virt. eigenvalues --    2.12834   2.12891   2.13647   2.13757   2.14141
 Alpha virt. eigenvalues --    2.14274   2.15334   2.15422   2.15926   2.16104
 Alpha virt. eigenvalues --    2.16522   2.16610   2.16758   2.17199   2.17416
 Alpha virt. eigenvalues --    2.17667   2.17704   2.17955   2.18022   2.18073
 Alpha virt. eigenvalues --    2.18324   2.18691   2.18865   2.19255   2.19637
 Alpha virt. eigenvalues --    2.19836   2.20031   2.20214   2.20263   2.20452
 Alpha virt. eigenvalues --    2.21152   2.21187   2.21668   2.21747   2.21784
 Alpha virt. eigenvalues --    2.21894   2.22677   2.22718   2.23316   2.23362
 Alpha virt. eigenvalues --    2.24393   2.24434   2.24960   2.25016   2.26297
 Alpha virt. eigenvalues --    2.26459   2.26778   2.27025   2.27101   2.27222
 Alpha virt. eigenvalues --    2.28133   2.28332   2.29265   2.29453   2.29731
 Alpha virt. eigenvalues --    2.29898   2.30448   2.30638   2.30839   2.31080
 Alpha virt. eigenvalues --    2.31183   2.31218   2.32118   2.32254   2.33130
 Alpha virt. eigenvalues --    2.33249   2.33459   2.33499   2.34138   2.34155
 Alpha virt. eigenvalues --    2.35317   2.35371   2.35790   2.35924   2.36347
 Alpha virt. eigenvalues --    2.36353   2.36461   2.36619   2.37660   2.37693
 Alpha virt. eigenvalues --    2.38253   2.38390   2.38791   2.38846   2.39606
 Alpha virt. eigenvalues --    2.39682   2.40180   2.40279   2.40478   2.40839
 Alpha virt. eigenvalues --    2.41221   2.41258   2.41683   2.41704   2.42038
 Alpha virt. eigenvalues --    2.42145   2.42830   2.42941   2.43079   2.43537
 Alpha virt. eigenvalues --    2.43983   2.44165   2.44725   2.44816   2.44899
 Alpha virt. eigenvalues --    2.45004   2.45546   2.45584   2.46293   2.46296
 Alpha virt. eigenvalues --    2.46475   2.46508   2.46795   2.46813   2.47255
 Alpha virt. eigenvalues --    2.47392   2.47710   2.47896   2.49306   2.49398
 Alpha virt. eigenvalues --    2.49899   2.50064   2.50457   2.50544   2.51113
 Alpha virt. eigenvalues --    2.51279   2.51614   2.51877   2.52398   2.52429
 Alpha virt. eigenvalues --    2.52802   2.53171   2.53914   2.53973   2.54143
 Alpha virt. eigenvalues --    2.54283   2.54787   2.54818   2.55514   2.55675
 Alpha virt. eigenvalues --    2.57857   2.58082   2.58640   2.58909   2.60201
 Alpha virt. eigenvalues --    2.60308   2.60601   2.60925   2.61704   2.61823
 Alpha virt. eigenvalues --    2.62431   2.62523   2.62951   2.63132   2.63926
 Alpha virt. eigenvalues --    2.64221   2.64243   2.64427   2.65074   2.65101
 Alpha virt. eigenvalues --    2.65774   2.65859   2.66773   2.66819   2.66901
 Alpha virt. eigenvalues --    2.67058   2.67903   2.67982   2.68816   2.68849
 Alpha virt. eigenvalues --    2.69017   2.69033   2.69385   2.69592   2.69992
 Alpha virt. eigenvalues --    2.70137   2.70975   2.71067   2.71891   2.72050
 Alpha virt. eigenvalues --    2.72493   2.72650   2.72735   2.72828   2.73272
 Alpha virt. eigenvalues --    2.73282   2.73468   2.73533   2.74507   2.74508
 Alpha virt. eigenvalues --    2.74970   2.75054   2.76518   2.76587   2.77068
 Alpha virt. eigenvalues --    2.77229   2.77447   2.77596   2.78181   2.78284
 Alpha virt. eigenvalues --    2.78685   2.78725   2.79127   2.79149   2.80249
 Alpha virt. eigenvalues --    2.80337   2.80583   2.80683   2.81115   2.81149
 Alpha virt. eigenvalues --    2.81927   2.81987   2.82331   2.82337   2.83746
 Alpha virt. eigenvalues --    2.83761   2.83834   2.83905   2.84522   2.84542
 Alpha virt. eigenvalues --    2.84879   2.84880   2.85659   2.85679   2.86650
 Alpha virt. eigenvalues --    2.86993   2.87166   2.87606   2.88145   2.88223
 Alpha virt. eigenvalues --    2.88506   2.88614   2.88865   2.88930   2.90487
 Alpha virt. eigenvalues --    2.90648   2.91061   2.91185   2.93145   2.93313
 Alpha virt. eigenvalues --    2.93760   2.94192   2.94550   2.94558   2.95352
 Alpha virt. eigenvalues --    2.95458   2.95832   2.96201   2.96360   2.96435
 Alpha virt. eigenvalues --    2.96863   2.97173   2.97806   2.98012   2.98196
 Alpha virt. eigenvalues --    2.98346   2.98365   2.98564   2.98601   2.98782
 Alpha virt. eigenvalues --    2.98877   2.98915   2.99577   2.99779   3.00008
 Alpha virt. eigenvalues --    3.00024   3.00213   3.00317   3.00454   3.00982
 Alpha virt. eigenvalues --    3.01890   3.01985   3.02023   3.02102   3.02730
 Alpha virt. eigenvalues --    3.02806   3.02970   3.03298   3.03317   3.03701
 Alpha virt. eigenvalues --    3.04042   3.04166   3.04415   3.04452   3.04542
 Alpha virt. eigenvalues --    3.04728   3.05292   3.05335   3.06105   3.06152
 Alpha virt. eigenvalues --    3.06790   3.06924   3.07901   3.08135   3.09341
 Alpha virt. eigenvalues --    3.09388   3.09679   3.10411   3.10431   3.10726
 Alpha virt. eigenvalues --    3.11329   3.11466   3.11882   3.11932   3.12175
 Alpha virt. eigenvalues --    3.12290   3.13272   3.13634   3.13635   3.13673
 Alpha virt. eigenvalues --    3.14093   3.14466   3.15918   3.15969   3.17263
 Alpha virt. eigenvalues --    3.17512   3.17858   3.18071   3.19017   3.19122
 Alpha virt. eigenvalues --    3.22308   3.22588   3.23944   3.24432   3.24678
 Alpha virt. eigenvalues --    3.25188   3.26502   3.26647   3.27385   3.27618
 Alpha virt. eigenvalues --    3.29104   3.29213   3.31368   3.31522   3.33174
 Alpha virt. eigenvalues --    3.33414   3.40250   3.40636   3.42799   3.42811
 Alpha virt. eigenvalues --    3.48661   3.48692   3.50018   3.50270   3.50825
 Alpha virt. eigenvalues --    3.51471   3.56548   3.56993   3.59097   3.59329
 Alpha virt. eigenvalues --    3.62507   3.62837   3.66092   3.66180   3.67190
 Alpha virt. eigenvalues --    3.67533   3.73277   3.74015   3.76063   3.76676
          Condensed to atoms (all electrons):
 Mulliken charges:
               1
     1  Mg   0.838642
     2  C   -0.002999
     3  C   -0.094303
     4  C   -0.045854
     5  C   -0.063910
     6  N   -0.256777
     7  C   -0.052499
     8  C   -0.013978
     9  C   -0.086973
    10  C    0.046250
    11  C    0.104809
    12  C    0.053542
    13  C   -0.071683
    14  H    0.035884
    15  N   -0.433135
    16  C    0.168327
    17  C   -0.177304
    18  C   -0.004057
    19  C    0.148666
    20  C    0.110213
    21  C    0.012228
    22  O   -0.249528
    23  C    0.062534
    24  N   -0.341149
    25  C    0.041218
    26  C   -0.028193
    27  C   -0.023993
    28  C    0.074861
    29  C    0.076140
    30  C    0.035109
    31  C   -0.004504
    32  N   -0.310512
    33  C    0.080456
    34  C   -0.169569
    35  C    0.008463
    36  C    0.082995
    37  C    0.127275
    38  C    0.046244
    39  O   -0.188096
    40  C   -0.005380
    41  C    0.212954
    42  O   -0.257124
    43  O   -0.304798
    44  C    0.157616
    45  H   -0.017672
    46  H   -0.016789
    47  H   -0.041357
    48  H    0.001050
    49  H   -0.004224
    50  H    0.025562
    51  H    0.016501
    52  H    0.016634
    53  H    0.010891
    54  H    0.044118
    55  H    0.018059
    56  H    0.017714
    57  H    0.005774
    58  H    0.026868
    59  H    0.039161
    60  H    0.037361
    61  H    0.035687
    62  H    0.031170
    63  H    0.016572
    64  H    0.009557
    65  H    0.023272
    66  H    0.012552
    67  H    0.004824
    68  H    0.006438
    69  H    0.004815
    70  H    0.008793
    71  H    0.018124
    72  H    0.028912
    73  H    0.047816
    74  H    0.009170
    75  H    0.046110
    76  H    0.035223
    77  H    0.043185
    78  H    0.046193
    79  H    0.053827
    80  Mg   0.837980
    81  C   -0.016786
    82  C   -0.087830
    83  C   -0.045508
    84  C   -0.064725
    85  N   -0.254549
    86  C   -0.049627
    87  C   -0.015128
    88  C   -0.090564
    89  C    0.045821
    90  C    0.114380
    91  C    0.062574
    92  C   -0.077755
    93  H    0.034684
    94  N   -0.423467
    95  C    0.162889
    96  C   -0.174783
    97  C   -0.007906
    98  C    0.152067
    99  C    0.099464
   100  C    0.015479
   101  O   -0.253271
   102  C    0.061249
   103  N   -0.350045
   104  C    0.037560
   105  C   -0.019830
   106  C   -0.034878
   107  C    0.089032
   108  C    0.073632
   109  C    0.034727
   110  C   -0.007641
   111  N   -0.324182
   112  C    0.078568
   113  C   -0.162921
   114  C    0.002472
   115  C    0.096213
   116  C    0.131424
   117  C    0.042660
   118  O   -0.187549
   119  C    0.000825
   120  C    0.211194
   121  O   -0.251184
   122  O   -0.305477
   123  C    0.152090
   124  H   -0.019967
   125  H   -0.015672
   126  H   -0.040371
   127  H   -0.000426
   128  H   -0.004686
   129  H    0.023170
   130  H    0.014574
   131  H    0.015851
   132  H    0.013782
   133  H    0.037662
   134  H    0.020822
   135  H    0.019348
   136  H    0.008524
   137  H    0.025861
   138  H    0.039545
   139  H    0.038096
   140  H    0.036233
   141  H    0.033782
   142  H    0.014241
   143  H    0.012600
   144  H    0.024968
   145  H    0.011829
   146  H    0.005772
   147  H    0.006162
   148  H    0.003682
   149  H    0.010844
   150  H    0.017828
   151  H    0.030120
   152  H    0.045953
   153  H    0.008394
   154  H    0.047697
   155  H    0.035657
   156  H    0.043983
   157  H    0.049309
   158  H    0.053455
 Sum of Mulliken charges =  -0.00000
 Mulliken charges with hydrogens summed into heavy atoms:
               1
     1  Mg   0.838642
     2  C   -0.002999
     3  C   -0.111975
     4  C   -0.062643
     5  C   -0.105267
     6  N   -0.256777
     7  C   -0.052499
     8  C   -0.012928
     9  C   -0.091197
    10  C    0.046250
    11  C    0.163507
    12  C    0.108552
    13  C   -0.000026
    15  N   -0.433135
    16  C    0.168327
    17  C   -0.177304
    18  C   -0.004057
    19  C    0.148666
    20  C    0.182016
    21  C    0.012228
    22  O   -0.249528
    23  C    0.166752
    24  N   -0.341149
    25  C    0.041218
    26  C   -0.011621
    27  C   -0.014436
    28  C    0.074861
    29  C    0.116788
    30  C    0.046362
    31  C    0.051324
    32  N   -0.310512
    33  C    0.080456
    34  C   -0.169569
    35  C    0.008463
    36  C    0.082995
    37  C    0.230371
    38  C    0.046244
    39  O   -0.188096
    40  C    0.029843
    41  C    0.212954
    42  O   -0.257124
    43  O   -0.304798
    44  C    0.300822
    80  Mg   0.837980
    81  C   -0.016786
    82  C   -0.107797
    83  C   -0.061181
    84  C   -0.105096
    85  N   -0.254549
    86  C   -0.049627
    87  C   -0.015553
    88  C   -0.095249
    89  C    0.045821
    90  C    0.167976
    91  C    0.114018
    92  C   -0.002900
    94  N   -0.423467
    95  C    0.162889
    96  C   -0.174783
    97  C   -0.007906
    98  C    0.152067
    99  C    0.173394
   100  C    0.015479
   101  O   -0.253271
   102  C    0.169360
   103  N   -0.350045
   104  C    0.037560
   105  C   -0.005589
   106  C   -0.022278
   107  C    0.089032
   108  C    0.116201
   109  C    0.044571
   110  C    0.051151
   111  N   -0.324182
   112  C    0.078568
   113  C   -0.162921
   114  C    0.002472
   115  C    0.096213
   116  C    0.233467
   117  C    0.042660
   118  O   -0.187549
   119  C    0.036482
   120  C    0.211194
   121  O   -0.251184
   122  O   -0.305477
   123  C    0.298838
 Electronic spatial extent (au):  <R**2>=         192685.0384
 Charge=             -0.0000 electrons
 Dipole moment (field-independent basis, Debye):
    X=             -4.0635    Y=             -2.3361    Z=             -7.6322  Tot=              8.9566
 Quadrupole moment (field-independent basis, Debye-Ang):
   XX=           -517.5229   YY=           -551.6337   ZZ=           -447.4005
   XY=             -6.7061   XZ=              0.9450   YZ=            -48.4888
 Traceless Quadrupole moment (field-independent basis, Debye-Ang):
   XX=            -12.0039   YY=            -46.1146   ZZ=             58.1185
   XY=             -6.7061   XZ=              0.9450   YZ=            -48.4888
 Octapole moment (field-independent basis, Debye-Ang**2):
  XXX=           -774.2787  YYY=            418.3377  ZZZ=            -81.9060  XYY=            -11.0145
  XXY=           -140.0962  XXZ=           -493.5321  XZZ=             13.9023  YZZ=           -223.4343
  YYZ=           -211.7785  XYZ=             16.7113
 Hexadecapole moment (field-independent basis, Debye-Ang**3):
 XXXX=        -199407.8222 YYYY=         -42839.2426 ZZZZ=         -23817.5355 XXXY=          -1254.7279
 XXXZ=            -59.3877 YYYX=            746.4236 YYYZ=          -1629.7291 ZZZX=            287.4456
 ZZZY=            241.1131 XXYY=         -42351.9961 XXZZ=         -32890.2292 YYZZ=         -10893.2244
 XXYZ=          -3045.5194 YYXZ=           -382.2787 ZZXY=             27.7362
 N-N= 1.374058335234D+04 E-N=-3.696209578343D+04  KE= 4.028802049951D+03
 Leave Link  601 at Sun Sep 12 06:11:53 2021, MaxMem= 23488102400 cpu:              17.0 elap:               0.8
 (Enter /sw/apps/gaussian-16.0/g16/l9999.exe)
 1\1\GINC-BP1-COMPUTE00114\SP\RCAM-B3LYP TD-FC\def2SVP\C68H72Mg2N8O8\OF
 15641\12-Sep-2021\0\\#p cam-b3lyp/Def2SVP td=(nstates=5)\\TDDFT excite
 d states in gaussian\\0,1\Mg,0,0.,0.,0.\C,0,-0.217,-2.218,2.801\C,0,-1
 .255,2.442,2.026\C,0,-0.245,1.85,-2.564\C,0,0.146,-2.824,-2.037\N,0,-0
 .617,-0.009,2.126\C,0,-0.594,-0.908,3.105\C,0,-0.936,-0.309,4.502\C,0,
 -1.773,0.964,4.032\C,0,-1.155,1.168,2.66\C,0,-3.263,0.685,3.863\C,0,0.
 345,0.11,5.299\C,0,0.124,0.397,6.787\H,0,1.168,0.033,7.733\N,0,-0.185,
 1.961,-0.152\C,0,-0.703,2.8,0.777\C,0,-0.62,4.156,0.193\C,0,-0.187,4.0
 15,-1.225\C,0,-0.214,2.583,-1.38\C,0,-0.887,5.406,0.974\C,0,0.181,5.01
 3,-2.277\O,0,0.303,4.69,-3.508\C,0,0.31,6.414,-1.837\N,0,-0.265,-0.413
 ,-2.029\C,0,-0.279,0.569,-2.937\C,0,-0.196,0.024,-4.332\C,0,0.124,-1.5
 33,-4.18\C,0,0.086,-1.632,-2.635\C,0,-1.451,0.205,-5.197\C,0,1.373,-2.
 07,-4.923\C,0,2.626,-1.49,-4.306\N,0,0.15,-2.144,0.303\C,0,0.173,-3.13
 6,-0.688\C,0,0.173,-4.438,0.004\C,0,0.133,-4.111,1.358\C,0,0.083,-2.69
 5,1.502\C,0,0.149,-5.715,-0.623\C,0,0.096,-4.629,2.716\O,0,0.208,-5.74
 7,3.221\C,0,-0.255,-3.428,3.701\C,0,0.717,-3.482,4.848\O,0,1.931,-3.25
 5,4.669\O,0,0.038,-3.556,6.003\C,0,0.943,-3.583,7.183\H,0,-1.859,3.22,
 2.497\H,0,-0.218,2.453,-3.474\H,0,0.276,-3.747,-2.605\H,0,-1.554,-0.94
 9,5.132\H,0,-1.585,1.831,4.665\H,0,-3.484,-0.377,3.969\H,0,-3.511,1.02
 7,2.858\H,0,-3.852,1.301,4.543\H,0,0.669,1.096,4.966\H,0,1.13,-0.639,5
 .189\H,0,-0.844,0.026,7.125\H,0,0.062,1.477,6.921\H,0,-1.344,5.186,1.9
 38\H,0,-1.651,5.963,0.432\H,0,0.007,6.02,1.084\H,0,-0.635,6.744,-1.405
 \H,0,0.665,6.97,-2.704\H,0,1.048,6.466,-1.036\H,0,0.608,0.501,-4.891\H
 ,0,-0.692,-2.156,-4.547\H,0,-1.267,0.74,-6.129\H,0,-2.204,0.714,-4.596
 \H,0,-1.967,-0.72,-5.453\H,0,1.356,-1.759,-5.967\H,0,1.452,-3.157,-4.9
 02\H,0,2.714,-0.522,-4.798\H,0,3.487,-2.121,-4.529\H,0,2.495,-1.303,-3
 .24\H,0,0.867,-6.333,-0.084\H,0,0.404,-5.642,-1.68\H,0,-0.891,-5.999,-
 0.463\H,0,-1.283,-3.581,4.028\H,0,0.698,-4.478,7.755\H,0,0.833,-2.619,
 7.68\H,0,2.,-3.754,6.976\Mg,0,15.77259,1.42471,1.20432\C,0,15.52522,-0
 .61559,4.14626\C,0,14.51689,3.99467,3.06257\C,0,15.55411,3.11966,-1.46
 904\C,0,15.90983,-1.5187,-0.65666\N,0,15.14158,1.55006,3.32053\C,0,15.
 15074,0.72757,4.35869\C,0,14.81228,1.40092,5.71575\C,0,13.97661,2.6547
 1,5.16027\C,0,14.60294,2.77022,3.77209\C,0,12.49454,2.36353,4.99285\C,
 0,16.09615,1.86392,6.48992\C,0,15.86175,2.24733,7.95273\H,0,16.9043,1.
 94085,8.92825\N,0,15.60037,3.38352,0.93607\C,0,15.08832,4.28171,1.8034
 4\C,0,15.16804,5.58538,1.12649\C,0,15.61676,5.35983,-0.27439\C,0,15.58
 716,3.91206,-0.33081\C,0,14.91109,6.88546,1.83162\C,0,15.99589,6.29309
 ,-1.38412\O,0,16.1253,5.88521,-2.59231\C,0,16.1198,7.71496,-1.03141\N,
 0,15.52391,0.88834,-0.78887\C,0,15.5141,1.81908,-1.75921\C,0,15.60032,
 1.183,-3.12608\C,0,15.91512,-0.3625,-2.86166\C,0,15.8659,-0.37027,-1.3
 1799\C,0,14.35017,1.3057,-3.99698\C,0,17.16682,-0.95601,-3.56427\C,0,1
 8.42204,-0.34044,-2.98904\N,0,15.91392,-0.68651,1.64117\C,0,15.93155,-
 1.75036,0.71274\C,0,15.92096,-3.00667,1.4899\C,0,15.8743,-2.58331,2.82
 672\C,0,15.83663,-1.16366,2.87843\C,0,15.90438,-4.32167,0.94526\C,0,15
 .83762,-3.01474,4.20557\O,0,15.93386,-4.09877,4.77945\C,0,15.48228,-1.
 76243,5.11762\C,0,16.44681,-1.73967,6.27161\O,0,17.65925,-1.54174,6.07
 817\O,0,15.75396,-1.73786,7.42502\C,0,16.66691,-1.70449,8.59857\H,0,13
 .91995,4.80096,3.48971\H,0,15.58992,3.65757,-2.41922\H,0,16.0501,-2.47
 744,-1.16045\H,0,14.19398,0.80537,6.37665\H,0,14.17396,3.55049,5.74336
 \H,0,12.2668,1.32184,5.16364\H,0,12.25322,2.64166,3.97528\H,0,11.90552
 ,3.02558,5.634\H,0,16.42429,2.8328,6.09201\H,0,16.86614,1.11948,6.4304
 1\H,0,14.88391,1.90855,8.31605\H,0,15.81072,3.33664,8.02206\H,0,14.440
 2,6.72644,2.80957\H,0,14.15346,7.42083,1.24918\H,0,15.80511,7.50826,1.
 9058\H,0,15.176,8.06956,-0.62403\H,0,16.48401,8.20931,-1.9341\H,0,16.8
 6404,7.81388,-0.23333\H,0,16.41031,1.61302,-3.70235\H,0,15.09511,-1.00
 998,-3.20547\H,0,14.54392,1.78929,-4.97303\H,0,13.6006,1.85476,-3.4427
 1\H,0,13.84028,0.36721,-4.20781\H,0,17.15805,-0.70625,-4.62809\H,0,17.
 23371,-2.03612,-3.4876\H,0,18.51182,0.59933,-3.54208\H,0,19.28045,-0.9
 8557,-3.16508\H,0,18.28749,-0.08854,-1.9307\H,0,16.60922,-4.90622,1.52
 145\H,0,16.16089,-4.31734,-0.11207\H,0,14.85754,-4.58889,1.11259\H,0,1
 4.45,-1.88098,5.44915\H,0,16.4107,-2.56291,9.22718\H,0,16.54412,-0.699
 41,9.0441\H,0,17.72092,-1.88109,8.4188\\Version=ES64L-G16RevA.03\State
 =1-A\HF=-4069.8116708\RMSD=4.953e-09\PG=C01 [X(C68H72Mg2N8O8)]\\@


 AN AIRPLANE IS A COLLECTION OF SPARE PARTS
 FLYING IN CLOSE FORMATION.
 Job cpu time:       0 days 11 hours  0 minutes 29.9 seconds.
 Elapsed time:       0 days  0 hours 28 minutes  5.8 seconds.
 File lengths (MBytes):  RWF=  13225 Int=      0 D2E=      0 Chk=    574 Scr=      1
 Normal termination of Gaussian 16 at Sun Sep 12 06:11:54 2021.
