 Entering Gaussian System, Link 0=g16
 Initial command:
 /sw/apps/gaussian-16.0/g16/l1.exe "/tmp/Gau-220653.inp" -scrdir="/tmp/"
 Entering Link 1 = /sw/apps/gaussian-16.0/g16/l1.exe PID=    220654.
  
 Copyright (c) 1988,1990,1992,1993,1995,1998,2003,2009,2016,
            Gaussian, Inc.  All Rights Reserved.
  
 This is part of the Gaussian(R) 16 program.  It is based on
 the Gaussian(R) 09 system (copyright 2009, Gaussian, Inc.),
 the Gaussian(R) 03 system (copyright 2003, Gaussian, Inc.),
 the Gaussian(R) 98 system (copyright 1998, Gaussian, Inc.),
 the Gaussian(R) 94 system (copyright 1995, Gaussian, Inc.),
 the Gaussian 92(TM) system (copyright 1992, Gaussian, Inc.),
 the Gaussian 90(TM) system (copyright 1990, Gaussian, Inc.),
 the Gaussian 88(TM) system (copyright 1988, Gaussian, Inc.),
 the Gaussian 86(TM) system (copyright 1986, Carnegie Mellon
 University), and the Gaussian 82(TM) system (copyright 1983,
 Carnegie Mellon University). Gaussian is a federally registered
 trademark of Gaussian, Inc.
  
 This software contains proprietary and confidential information,
 including trade secrets, belonging to Gaussian, Inc.
  
 This software is provided under written license and may be
 used, copied, transmitted, or stored only in accord with that
 written license.
  
 The following legend is applicable only to US Government
 contracts under FAR:
  
                    RESTRICTED RIGHTS LEGEND
  
 Use, reproduction and disclosure by the US Government is
 subject to restrictions as set forth in subparagraphs (a)
 and (c) of the Commercial Computer Software - Restricted
 Rights clause in FAR 52.227-19.
  
 Gaussian, Inc.
 340 Quinnipiac St., Bldg. 40, Wallingford CT 06492
  
  
 ---------------------------------------------------------------
 Warning -- This program may not be used in any manner that
 competes with the business of Gaussian, Inc. or will provide
 assistance to any competitor of Gaussian, Inc.  The licensee
 of this program is prohibited from giving any competitor of
 Gaussian, Inc. access to this program.  By using this program,
 the user acknowledges that Gaussian, Inc. is engaged in the
 business of creating and licensing software in the field of
 computational chemistry and represents and warrants to the
 licensee that it is not a competitor of Gaussian, Inc. and that
 it will not use this program in any manner prohibited above.
 ---------------------------------------------------------------
  

 Cite this work as:
 Gaussian 16, Revision A.03,
 M. J. Frisch, G. W. Trucks, H. B. Schlegel, G. E. Scuseria, 
 M. A. Robb, J. R. Cheeseman, G. Scalmani, V. Barone, 
 G. A. Petersson, H. Nakatsuji, X. Li, M. Caricato, A. V. Marenich, 
 J. Bloino, B. G. Janesko, R. Gomperts, B. Mennucci, H. P. Hratchian, 
 J. V. Ortiz, A. F. Izmaylov, J. L. Sonnenberg, D. Williams-Young, 
 F. Ding, F. Lipparini, F. Egidi, J. Goings, B. Peng, A. Petrone, 
 T. Henderson, D. Ranasinghe, V. G. Zakrzewski, J. Gao, N. Rega, 
 G. Zheng, W. Liang, M. Hada, M. Ehara, K. Toyota, R. Fukuda, 
 J. Hasegawa, M. Ishida, T. Nakajima, Y. Honda, O. Kitao, H. Nakai, 
 T. Vreven, K. Throssell, J. A. Montgomery, Jr., J. E. Peralta, 
 F. Ogliaro, M. J. Bearpark, J. J. Heyd, E. N. Brothers, K. N. Kudin, 
 V. N. Staroverov, T. A. Keith, R. Kobayashi, J. Normand, 
 K. Raghavachari, A. P. Rendell, J. C. Burant, S. S. Iyengar, 
 J. Tomasi, M. Cossi, J. M. Millam, M. Klene, C. Adamo, R. Cammi, 
 J. W. Ochterski, R. L. Martin, K. Morokuma, O. Farkas, 
 J. B. Foresman, and D. J. Fox, Gaussian, Inc., Wallingford CT, 2016.
 
 ******************************************
 Gaussian 16:  ES64L-G16RevA.03 25-Dec-2016
                 9-Sep-2021 
 ******************************************
 %nproc=24
 Will use up to   24 processors via shared memory.
 %mem=175gb
 -----------------------------------
 #p cam-b3lyp/Def2SVP td=(nstates=5)
 -----------------------------------
 1/38=1,172=1/1;
 2/12=2,17=6,18=5,40=1/2;
 3/5=43,7=101,11=9,25=1,30=1,74=-40/1,2,3,8;
 4//1;
 5/5=2,38=5/2;
 8/6=1,10=1,108=5/1;
 9/41=5,42=1,70=2/14;
 6/7=2,8=2,9=2,10=2/1;
 99/5=1,9=1/99;
 Leave Link    1 at Thu Sep  9 05:07:23 2021, MaxMem= 23488102400 cpu:               0.6 elap:               0.0
 (Enter /sw/apps/gaussian-16.0/g16/l101.exe)
 --------------------------------
 TDDFT excited states in gaussian
 --------------------------------
 Symbolic Z-matrix:
 Charge =  0 Multiplicity = 1
 Mg                    0.        0.        0. 
 C                    -0.217    -2.218     2.801 
 C                    -1.255     2.442     2.026 
 C                    -0.245     1.85     -2.564 
 C                     0.146    -2.824    -2.037 
 N                    -0.617    -0.009     2.126 
 C                    -0.594    -0.908     3.105 
 C                    -0.936    -0.309     4.502 
 C                    -1.773     0.964     4.032 
 C                    -1.155     1.168     2.66 
 C                    -3.263     0.685     3.863 
 C                     0.345     0.11      5.299 
 C                     0.124     0.397     6.787 
 H                     1.168     0.033     7.733 
 N                    -0.185     1.961    -0.152 
 C                    -0.703     2.8       0.777 
 C                    -0.62      4.156     0.193 
 C                    -0.187     4.015    -1.225 
 C                    -0.214     2.583    -1.38 
 C                    -0.887     5.406     0.974 
 C                     0.181     5.013    -2.277 
 O                     0.303     4.69     -3.508 
 C                     0.31      6.414    -1.837 
 N                    -0.265    -0.413    -2.029 
 C                    -0.279     0.569    -2.937 
 C                    -0.196     0.024    -4.332 
 C                     0.124    -1.533    -4.18 
 C                     0.086    -1.632    -2.635 
 C                    -1.451     0.205    -5.197 
 C                     1.373    -2.07     -4.923 
 C                     2.626    -1.49     -4.306 
 N                     0.15     -2.144     0.303 
 C                     0.173    -3.136    -0.688 
 C                     0.173    -4.438     0.004 
 C                     0.133    -4.111     1.358 
 C                     0.083    -2.695     1.502 
 C                     0.149    -5.715    -0.623 
 C                     0.096    -4.629     2.716 
 O                     0.208    -5.747     3.221 
 C                    -0.255    -3.428     3.701 
 C                     0.717    -3.482     4.848 
 O                     1.931    -3.255     4.669 
 O                     0.038    -3.556     6.003 
 C                     0.943    -3.583     7.183 
 H                    -1.859     3.22      2.497 
 H                    -0.218     2.453    -3.474 
 H                     0.276    -3.747    -2.605 
 H                    -1.554    -0.949     5.132 
 H                    -1.585     1.831     4.665 
 H                    -3.484    -0.377     3.969 
 H                    -3.511     1.027     2.858 
 H                    -3.852     1.301     4.543 
 H                     0.669     1.096     4.966 
 H                     1.13     -0.639     5.189 
 H                    -0.844     0.026     7.125 
 H                     0.062     1.477     6.921 
 H                    -1.344     5.186     1.938 
 H                    -1.651     5.963     0.432 
 H                     0.007     6.02      1.084 
 H                    -0.635     6.744    -1.405 
 H                     0.665     6.97     -2.704 
 H                     1.048     6.466    -1.036 
 H                     0.608     0.501    -4.891 
 H                    -0.692    -2.156    -4.547 
 H                    -1.267     0.74     -6.129 
 H                    -2.204     0.714    -4.596 
 H                    -1.967    -0.72     -5.453 
 H                     1.356    -1.759    -5.967 
 H                     1.452    -3.157    -4.902 
 H                     2.714    -0.522    -4.798 
 H                     3.487    -2.121    -4.529 
 H                     2.495    -1.303    -3.24 
 H                     0.867    -6.333    -0.084 
 H                     0.404    -5.642    -1.68 
 H                    -0.891    -5.999    -0.463 
 H                    -1.283    -3.581     4.028 
 H                     0.698    -4.478     7.755 
 H                     0.833    -2.619     7.68 
 H                     2.       -3.754     6.976 
 Mg                    7.89064   0.71074   0.60625 
 C                     6.46671  -1.20833   3.28368 
 C                     7.85006   3.39619   2.70894 
 C                     8.72046   2.52782  -1.85891 
 C                     6.7736   -1.76533  -1.5771 
 N                     7.22164   0.93897   2.7021 
 C                     6.75535   0.12603   3.63808 
 C                     6.66464   0.75877   5.05264 
 C                     6.56973   2.30236   4.61997 
 C                     7.28839   2.22373   3.2746 
 C                     5.14554   2.77195   4.37398 
 C                     7.94607   0.48161   5.9147 
 C                     7.80092   0.80205   7.40399 
 H                     8.49036  -0.04932   8.36955 
 N                     8.68735   2.52782   0.56084 
 C                     8.59097   3.48252   1.5098 
 C                     9.33284   4.64201   0.99078 
 C                     9.73554   4.35152  -0.41213 
 C                     9.03004   3.10569  -0.6363 
 C                     9.6636    5.83978   1.83303 
 C                     10.60077   5.08156  -1.39428 
 O                     10.62123   4.76793  -2.63688 
 C                     11.35234   6.23396  -0.876 
 N                     7.58339   0.53387  -1.44233 
 C                     8.09467   1.43582  -2.29848 
 C                     7.98248   0.95724  -3.72634 
 C                     7.50652  -0.56665  -3.63254 
 C                     7.33232  -0.68363  -2.10239 
 C                     7.0154    1.73836  -4.61572 
 C                     8.38227  -1.62351  -4.35971 
 C                     9.72708  -1.73643  -3.67843 
 N                     6.9809   -1.23931   0.80049 
 C                     6.5702   -2.09678  -0.24362 
 C                     5.9031   -3.25667   0.38251 
 C                     5.95195  -2.98028   1.75718 
 C                     6.58552  -1.7264    1.97134 
 C                     5.31205  -4.35044  -0.31064 
 C                     5.60214  -3.45912   3.07514 
 O                     5.12696  -4.50203   3.52268 
 C                     5.80694  -2.27392   4.11425 
 C                     6.56879  -2.81575   5.2926 
 O                     7.7421   -3.20647   5.16115 
 O                     5.86658  -2.58243   6.41636 
 C                     6.58658  -3.092     7.61376 
 H                     7.67209   4.34939   3.20756 
 H                     9.08447   3.06298  -2.73902 
 H                     6.48514  -2.62647  -2.18366 
 H                     5.78617   0.47717   5.62075 
 H                     7.11811   2.94      5.30849 
 H                     4.43936   1.95606   4.41613 
 H                     5.14918   3.21864   3.38834 
 H                     4.8887    3.57679   5.06867 
 H                     8.72468   1.2055    5.64177 
 H                     8.27479  -0.53224   5.79358 
 H                     6.75287   0.94268   7.69513 
 H                     8.26521   1.77219   7.59707 
 H                     9.09462   5.84154   2.77092 
 H                     9.29989   6.72068   1.29303 
 H                     10.73624   5.94951   2.00645 
 H                     10.65819   6.96028  -0.45996 
 H                     11.97999   6.56972  -1.70376 
 H                     11.98626   5.89495  -0.04905 
 H                     8.94395   0.99512  -4.22358 
 H                     6.50941  -0.71001  -4.0742 
 H                     7.49446   2.15268  -5.52286 
 H                     6.57147   2.52887  -4.02533 
 H                     6.1419    1.18077  -4.94931 
 H                     8.58037  -1.30893  -5.3873 
 H                     7.9242   -2.60586  -4.40627 
 H                     10.29559  -0.91042  -4.11615 
 H                     10.18991  -2.69575  -3.90101 
 H                     9.64076  -1.54364  -2.60278 
 H                     5.60672  -5.24849   0.21583 
 H                     5.62639  -4.37783  -1.3519 
 H                     4.25345  -4.09727  -0.20796 
 H                     4.81781  -1.91206   4.39757 
 H                     5.90425  -3.77381   8.13072 
 H                     6.91706  -2.1937    8.16838 
 H                     7.44276  -3.73529   7.44769 
 
 ITRead=  0  0  0  0  0  0  0  0  0  0  0  0  0  0  0  0  0  0  0  0
 ITRead=  0  0  0  0  0  0  0  0  0  0  0  0  0  0  0  0  0  0  0  0
 ITRead=  0  0  0  0  0  0  0  0  0  0  0  0  0  0  0  0  0  0  0  0
 ITRead=  0  0  0  0  0  0  0  0  0  0  0  0  0  0  0  0  0  0  0  0
 ITRead=  0  0  0  0  0  0  0  0  0  0  0  0  0  0  0  0  0  0  0  0
 ITRead=  0  0  0  0  0  0  0  0  0  0  0  0  0  0  0  0  0  0  0  0
 ITRead=  0  0  0  0  0  0  0  0  0  0  0  0  0  0  0  0  0  0  0  0
 ITRead=  0  0  0  0  0  0  0  0  0  0  0  0  0  0  0  0  0  0
 MicOpt= -1 -1 -1 -1 -1 -1 -1 -1 -1 -1 -1 -1 -1 -1 -1 -1 -1 -1 -1 -1
 MicOpt= -1 -1 -1 -1 -1 -1 -1 -1 -1 -1 -1 -1 -1 -1 -1 -1 -1 -1 -1 -1
 MicOpt= -1 -1 -1 -1 -1 -1 -1 -1 -1 -1 -1 -1 -1 -1 -1 -1 -1 -1 -1 -1
 MicOpt= -1 -1 -1 -1 -1 -1 -1 -1 -1 -1 -1 -1 -1 -1 -1 -1 -1 -1 -1 -1
 MicOpt= -1 -1 -1 -1 -1 -1 -1 -1 -1 -1 -1 -1 -1 -1 -1 -1 -1 -1 -1 -1
 MicOpt= -1 -1 -1 -1 -1 -1 -1 -1 -1 -1 -1 -1 -1 -1 -1 -1 -1 -1 -1 -1
 MicOpt= -1 -1 -1 -1 -1 -1 -1 -1 -1 -1 -1 -1 -1 -1 -1 -1 -1 -1 -1 -1
 MicOpt= -1 -1 -1 -1 -1 -1 -1 -1 -1 -1 -1 -1 -1 -1 -1 -1 -1 -1
 NAtoms=    158 NQM=      158 NQMF=       0 NMMI=      0 NMMIF=      0
                NMic=       0 NMicF=      0.
                    Isotopes and Nuclear Properties:
 (Nuclear quadrupole moments (NQMom) in fm**2, nuclear magnetic moments (NMagM)
  in nuclear magnetons)

  Atom         1           2           3           4           5           6           7           8           9          10
 IAtWgt=          24          12          12          12          12          14          12          12          12          12
 AtmWgt=  23.9850450  12.0000000  12.0000000  12.0000000  12.0000000  14.0030740  12.0000000  12.0000000  12.0000000  12.0000000
 NucSpn=           0           0           0           0           0           2           0           0           0           0
 AtZEff=  -0.0000000  -0.0000000  -0.0000000  -0.0000000  -0.0000000  -0.0000000  -0.0000000  -0.0000000  -0.0000000  -0.0000000
 NQMom=    0.0000000   0.0000000   0.0000000   0.0000000   0.0000000   2.0440000   0.0000000   0.0000000   0.0000000   0.0000000
 NMagM=    0.0000000   0.0000000   0.0000000   0.0000000   0.0000000   0.4037610   0.0000000   0.0000000   0.0000000   0.0000000
 AtZNuc=  12.0000000   6.0000000   6.0000000   6.0000000   6.0000000   7.0000000   6.0000000   6.0000000   6.0000000   6.0000000

  Atom        11          12          13          14          15          16          17          18          19          20
 IAtWgt=          12          12          12           1          14          12          12          12          12          12
 AtmWgt=  12.0000000  12.0000000  12.0000000   1.0078250  14.0030740  12.0000000  12.0000000  12.0000000  12.0000000  12.0000000
 NucSpn=           0           0           0           1           2           0           0           0           0           0
 AtZEff=  -0.0000000  -0.0000000  -0.0000000  -0.0000000  -0.0000000  -0.0000000  -0.0000000  -0.0000000  -0.0000000  -0.0000000
 NQMom=    0.0000000   0.0000000   0.0000000   0.0000000   2.0440000   0.0000000   0.0000000   0.0000000   0.0000000   0.0000000
 NMagM=    0.0000000   0.0000000   0.0000000   2.7928460   0.4037610   0.0000000   0.0000000   0.0000000   0.0000000   0.0000000
 AtZNuc=   6.0000000   6.0000000   6.0000000   1.0000000   7.0000000   6.0000000   6.0000000   6.0000000   6.0000000   6.0000000

  Atom        21          22          23          24          25          26          27          28          29          30
 IAtWgt=          12          16          12          14          12          12          12          12          12          12
 AtmWgt=  12.0000000  15.9949146  12.0000000  14.0030740  12.0000000  12.0000000  12.0000000  12.0000000  12.0000000  12.0000000
 NucSpn=           0           0           0           2           0           0           0           0           0           0
 AtZEff=  -0.0000000  -0.0000000  -0.0000000  -0.0000000  -0.0000000  -0.0000000  -0.0000000  -0.0000000  -0.0000000  -0.0000000
 NQMom=    0.0000000   0.0000000   0.0000000   2.0440000   0.0000000   0.0000000   0.0000000   0.0000000   0.0000000   0.0000000
 NMagM=    0.0000000   0.0000000   0.0000000   0.4037610   0.0000000   0.0000000   0.0000000   0.0000000   0.0000000   0.0000000
 AtZNuc=   6.0000000   8.0000000   6.0000000   7.0000000   6.0000000   6.0000000   6.0000000   6.0000000   6.0000000   6.0000000

  Atom        31          32          33          34          35          36          37          38          39          40
 IAtWgt=          12          14          12          12          12          12          12          12          16          12
 AtmWgt=  12.0000000  14.0030740  12.0000000  12.0000000  12.0000000  12.0000000  12.0000000  12.0000000  15.9949146  12.0000000
 NucSpn=           0           2           0           0           0           0           0           0           0           0
 AtZEff=  -0.0000000  -0.0000000  -0.0000000  -0.0000000  -0.0000000  -0.0000000  -0.0000000  -0.0000000  -0.0000000  -0.0000000
 NQMom=    0.0000000   2.0440000   0.0000000   0.0000000   0.0000000   0.0000000   0.0000000   0.0000000   0.0000000   0.0000000
 NMagM=    0.0000000   0.4037610   0.0000000   0.0000000   0.0000000   0.0000000   0.0000000   0.0000000   0.0000000   0.0000000
 AtZNuc=   6.0000000   7.0000000   6.0000000   6.0000000   6.0000000   6.0000000   6.0000000   6.0000000   8.0000000   6.0000000

  Atom        41          42          43          44          45          46          47          48          49          50
 IAtWgt=          12          16          16          12           1           1           1           1           1           1
 AtmWgt=  12.0000000  15.9949146  15.9949146  12.0000000   1.0078250   1.0078250   1.0078250   1.0078250   1.0078250   1.0078250
 NucSpn=           0           0           0           0           1           1           1           1           1           1
 AtZEff=  -0.0000000  -0.0000000  -0.0000000  -0.0000000  -0.0000000  -0.0000000  -0.0000000  -0.0000000  -0.0000000  -0.0000000
 NQMom=    0.0000000   0.0000000   0.0000000   0.0000000   0.0000000   0.0000000   0.0000000   0.0000000   0.0000000   0.0000000
 NMagM=    0.0000000   0.0000000   0.0000000   0.0000000   2.7928460   2.7928460   2.7928460   2.7928460   2.7928460   2.7928460
 AtZNuc=   6.0000000   8.0000000   8.0000000   6.0000000   1.0000000   1.0000000   1.0000000   1.0000000   1.0000000   1.0000000

  Atom        51          52          53          54          55          56          57          58          59          60
 IAtWgt=           1           1           1           1           1           1           1           1           1           1
 AtmWgt=   1.0078250   1.0078250   1.0078250   1.0078250   1.0078250   1.0078250   1.0078250   1.0078250   1.0078250   1.0078250
 NucSpn=           1           1           1           1           1           1           1           1           1           1
 AtZEff=  -0.0000000  -0.0000000  -0.0000000  -0.0000000  -0.0000000  -0.0000000  -0.0000000  -0.0000000  -0.0000000  -0.0000000
 NQMom=    0.0000000   0.0000000   0.0000000   0.0000000   0.0000000   0.0000000   0.0000000   0.0000000   0.0000000   0.0000000
 NMagM=    2.7928460   2.7928460   2.7928460   2.7928460   2.7928460   2.7928460   2.7928460   2.7928460   2.7928460   2.7928460
 AtZNuc=   1.0000000   1.0000000   1.0000000   1.0000000   1.0000000   1.0000000   1.0000000   1.0000000   1.0000000   1.0000000

  Atom        61          62          63          64          65          66          67          68          69          70
 IAtWgt=           1           1           1           1           1           1           1           1           1           1
 AtmWgt=   1.0078250   1.0078250   1.0078250   1.0078250   1.0078250   1.0078250   1.0078250   1.0078250   1.0078250   1.0078250
 NucSpn=           1           1           1           1           1           1           1           1           1           1
 AtZEff=  -0.0000000  -0.0000000  -0.0000000  -0.0000000  -0.0000000  -0.0000000  -0.0000000  -0.0000000  -0.0000000  -0.0000000
 NQMom=    0.0000000   0.0000000   0.0000000   0.0000000   0.0000000   0.0000000   0.0000000   0.0000000   0.0000000   0.0000000
 NMagM=    2.7928460   2.7928460   2.7928460   2.7928460   2.7928460   2.7928460   2.7928460   2.7928460   2.7928460   2.7928460
 AtZNuc=   1.0000000   1.0000000   1.0000000   1.0000000   1.0000000   1.0000000   1.0000000   1.0000000   1.0000000   1.0000000

  Atom        71          72          73          74          75          76          77          78          79          80
 IAtWgt=           1           1           1           1           1           1           1           1           1          24
 AtmWgt=   1.0078250   1.0078250   1.0078250   1.0078250   1.0078250   1.0078250   1.0078250   1.0078250   1.0078250  23.9850450
 NucSpn=           1           1           1           1           1           1           1           1           1           0
 AtZEff=  -0.0000000  -0.0000000  -0.0000000  -0.0000000  -0.0000000  -0.0000000  -0.0000000  -0.0000000  -0.0000000  -0.0000000
 NQMom=    0.0000000   0.0000000   0.0000000   0.0000000   0.0000000   0.0000000   0.0000000   0.0000000   0.0000000   0.0000000
 NMagM=    2.7928460   2.7928460   2.7928460   2.7928460   2.7928460   2.7928460   2.7928460   2.7928460   2.7928460   0.0000000
 AtZNuc=   1.0000000   1.0000000   1.0000000   1.0000000   1.0000000   1.0000000   1.0000000   1.0000000   1.0000000  12.0000000

  Atom        81          82          83          84          85          86          87          88          89          90
 IAtWgt=          12          12          12          12          14          12          12          12          12          12
 AtmWgt=  12.0000000  12.0000000  12.0000000  12.0000000  14.0030740  12.0000000  12.0000000  12.0000000  12.0000000  12.0000000
 NucSpn=           0           0           0           0           2           0           0           0           0           0
 AtZEff=  -0.0000000  -0.0000000  -0.0000000  -0.0000000  -0.0000000  -0.0000000  -0.0000000  -0.0000000  -0.0000000  -0.0000000
 NQMom=    0.0000000   0.0000000   0.0000000   0.0000000   2.0440000   0.0000000   0.0000000   0.0000000   0.0000000   0.0000000
 NMagM=    0.0000000   0.0000000   0.0000000   0.0000000   0.4037610   0.0000000   0.0000000   0.0000000   0.0000000   0.0000000
 AtZNuc=   6.0000000   6.0000000   6.0000000   6.0000000   7.0000000   6.0000000   6.0000000   6.0000000   6.0000000   6.0000000

  Atom        91          92          93          94          95          96          97          98          99         100
 IAtWgt=          12          12           1          14          12          12          12          12          12          12
 AtmWgt=  12.0000000  12.0000000   1.0078250  14.0030740  12.0000000  12.0000000  12.0000000  12.0000000  12.0000000  12.0000000
 NucSpn=           0           0           1           2           0           0           0           0           0           0
 AtZEff=  -0.0000000  -0.0000000  -0.0000000  -0.0000000  -0.0000000  -0.0000000  -0.0000000  -0.0000000  -0.0000000  -0.0000000
 NQMom=    0.0000000   0.0000000   0.0000000   2.0440000   0.0000000   0.0000000   0.0000000   0.0000000   0.0000000   0.0000000
 NMagM=    0.0000000   0.0000000   2.7928460   0.4037610   0.0000000   0.0000000   0.0000000   0.0000000   0.0000000   0.0000000
 AtZNuc=   6.0000000   6.0000000   1.0000000   7.0000000   6.0000000   6.0000000   6.0000000   6.0000000   6.0000000   6.0000000

  Atom       101         102         103         104         105         106         107         108         109         110
 IAtWgt=          16          12          14          12          12          12          12          12          12          12
 AtmWgt=  15.9949146  12.0000000  14.0030740  12.0000000  12.0000000  12.0000000  12.0000000  12.0000000  12.0000000  12.0000000
 NucSpn=           0           0           2           0           0           0           0           0           0           0
 AtZEff=  -0.0000000  -0.0000000  -0.0000000  -0.0000000  -0.0000000  -0.0000000  -0.0000000  -0.0000000  -0.0000000  -0.0000000
 NQMom=    0.0000000   0.0000000   2.0440000   0.0000000   0.0000000   0.0000000   0.0000000   0.0000000   0.0000000   0.0000000
 NMagM=    0.0000000   0.0000000   0.4037610   0.0000000   0.0000000   0.0000000   0.0000000   0.0000000   0.0000000   0.0000000
 AtZNuc=   8.0000000   6.0000000   7.0000000   6.0000000   6.0000000   6.0000000   6.0000000   6.0000000   6.0000000   6.0000000

  Atom       111         112         113         114         115         116         117         118         119         120
 IAtWgt=          14          12          12          12          12          12          12          16          12          12
 AtmWgt=  14.0030740  12.0000000  12.0000000  12.0000000  12.0000000  12.0000000  12.0000000  15.9949146  12.0000000  12.0000000
 NucSpn=           2           0           0           0           0           0           0           0           0           0
 AtZEff=  -0.0000000  -0.0000000  -0.0000000  -0.0000000  -0.0000000  -0.0000000  -0.0000000  -0.0000000  -0.0000000  -0.0000000
 NQMom=    2.0440000   0.0000000   0.0000000   0.0000000   0.0000000   0.0000000   0.0000000   0.0000000   0.0000000   0.0000000
 NMagM=    0.4037610   0.0000000   0.0000000   0.0000000   0.0000000   0.0000000   0.0000000   0.0000000   0.0000000   0.0000000
 AtZNuc=   7.0000000   6.0000000   6.0000000   6.0000000   6.0000000   6.0000000   6.0000000   8.0000000   6.0000000   6.0000000

  Atom       121         122         123         124         125         126         127         128         129         130
 IAtWgt=          16          16          12           1           1           1           1           1           1           1
 AtmWgt=  15.9949146  15.9949146  12.0000000   1.0078250   1.0078250   1.0078250   1.0078250   1.0078250   1.0078250   1.0078250
 NucSpn=           0           0           0           1           1           1           1           1           1           1
 AtZEff=  -0.0000000  -0.0000000  -0.0000000  -0.0000000  -0.0000000  -0.0000000  -0.0000000  -0.0000000  -0.0000000  -0.0000000
 NQMom=    0.0000000   0.0000000   0.0000000   0.0000000   0.0000000   0.0000000   0.0000000   0.0000000   0.0000000   0.0000000
 NMagM=    0.0000000   0.0000000   0.0000000   2.7928460   2.7928460   2.7928460   2.7928460   2.7928460   2.7928460   2.7928460
 AtZNuc=   8.0000000   8.0000000   6.0000000   1.0000000   1.0000000   1.0000000   1.0000000   1.0000000   1.0000000   1.0000000

  Atom       131         132         133         134         135         136         137         138         139         140
 IAtWgt=           1           1           1           1           1           1           1           1           1           1
 AtmWgt=   1.0078250   1.0078250   1.0078250   1.0078250   1.0078250   1.0078250   1.0078250   1.0078250   1.0078250   1.0078250
 NucSpn=           1           1           1           1           1           1           1           1           1           1
 AtZEff=  -0.0000000  -0.0000000  -0.0000000  -0.0000000  -0.0000000  -0.0000000  -0.0000000  -0.0000000  -0.0000000  -0.0000000
 NQMom=    0.0000000   0.0000000   0.0000000   0.0000000   0.0000000   0.0000000   0.0000000   0.0000000   0.0000000   0.0000000
 NMagM=    2.7928460   2.7928460   2.7928460   2.7928460   2.7928460   2.7928460   2.7928460   2.7928460   2.7928460   2.7928460
 AtZNuc=   1.0000000   1.0000000   1.0000000   1.0000000   1.0000000   1.0000000   1.0000000   1.0000000   1.0000000   1.0000000

  Atom       141         142         143         144         145         146         147         148         149         150
 IAtWgt=           1           1           1           1           1           1           1           1           1           1
 AtmWgt=   1.0078250   1.0078250   1.0078250   1.0078250   1.0078250   1.0078250   1.0078250   1.0078250   1.0078250   1.0078250
 NucSpn=           1           1           1           1           1           1           1           1           1           1
 AtZEff=  -0.0000000  -0.0000000  -0.0000000  -0.0000000  -0.0000000  -0.0000000  -0.0000000  -0.0000000  -0.0000000  -0.0000000
 NQMom=    0.0000000   0.0000000   0.0000000   0.0000000   0.0000000   0.0000000   0.0000000   0.0000000   0.0000000   0.0000000
 NMagM=    2.7928460   2.7928460   2.7928460   2.7928460   2.7928460   2.7928460   2.7928460   2.7928460   2.7928460   2.7928460
 AtZNuc=   1.0000000   1.0000000   1.0000000   1.0000000   1.0000000   1.0000000   1.0000000   1.0000000   1.0000000   1.0000000

  Atom       151         152         153         154         155         156         157         158
 IAtWgt=           1           1           1           1           1           1           1           1
 AtmWgt=   1.0078250   1.0078250   1.0078250   1.0078250   1.0078250   1.0078250   1.0078250   1.0078250
 NucSpn=           1           1           1           1           1           1           1           1
 AtZEff=  -0.0000000  -0.0000000  -0.0000000  -0.0000000  -0.0000000  -0.0000000  -0.0000000  -0.0000000
 NQMom=    0.0000000   0.0000000   0.0000000   0.0000000   0.0000000   0.0000000   0.0000000   0.0000000
 NMagM=    2.7928460   2.7928460   2.7928460   2.7928460   2.7928460   2.7928460   2.7928460   2.7928460
 AtZNuc=   1.0000000   1.0000000   1.0000000   1.0000000   1.0000000   1.0000000   1.0000000   1.0000000
 Leave Link  101 at Thu Sep  9 05:07:23 2021, MaxMem= 23488102400 cpu:               3.1 elap:               0.2
 (Enter /sw/apps/gaussian-16.0/g16/l202.exe)
 Stoichiometry    C68H72Mg2N8O8
 Framework group  C1[X(C68H72Mg2N8O8)]
 Deg. of freedom   468
 Full point group                 C1      NOp   1
 Largest Abelian subgroup         C1      NOp   1
 Largest concise Abelian subgroup C1      NOp   1
                         Standard orientation:                         
 ---------------------------------------------------------------------
 Center     Atomic      Atomic             Coordinates (Angstroms)
 Number     Number       Type             X           Y           Z
 ---------------------------------------------------------------------
      1         12           0        3.239482   -2.044402    0.473950
      2          6           0        4.756593    1.138365   -0.142966
      3          6           0        3.903838   -1.552615    3.784515
      4          6           0        2.320911   -5.035310    0.990979
      5          6           0        3.723927   -2.764197   -2.901382
      6          7           0        4.209874   -0.377140    1.559870
      7          6           0        4.693642    0.811619    1.213470
      8          6           0        5.058236    1.709597    2.433339
      9          6           0        5.282985    0.570597    3.526117
     10          6           0        4.385097   -0.506201    2.942827
     11          6           0        6.714019    0.044785    3.572668
     12          6           0        3.887626    2.667918    2.837100
     13          6           0        4.269575    3.796854    3.798855
     14          1           0        3.622387    5.091708    3.651042
     15          7           0        2.683101   -2.943458    2.142778
     16          6           0        3.034913   -2.598353    3.404688
     17          6           0        2.366466   -3.571773    4.294810
     18          6           0        1.751825   -4.623946    3.438515
     19          6           0        2.256139   -4.252431    2.141202
     20          6           0        2.314441   -3.423802    5.784490
     21          6           0        0.861153   -5.786795    3.742850
     22          8           0        0.631265   -6.709444    2.888190
     23          6           0        0.328438   -5.864776    5.115138
     24          7           0        3.244768   -3.757797   -0.718478
     25          6           0        2.736702   -4.911384   -0.271164
     26          6           0        2.590369   -5.910210   -1.380612
     27          6           0        2.879595   -5.113375   -2.733814
     28          6           0        3.242012   -3.736695   -2.124161
     29          6           0        3.511066   -7.135919   -1.303388
     30          6           0        1.786540   -5.169716   -3.830389
     31          6           0        0.550268   -4.436046   -3.360861
     32          7           0        3.921522   -0.958392   -1.277178
     33          6           0        4.065448   -1.461578   -2.578240
     34          6           0        4.659171   -0.386377   -3.394024
     35          6           0        4.835863    0.668885   -2.501250
     36          6           0        4.405634    0.268782   -1.203902
     37          6           0        5.016309   -0.483152   -4.767895
     38          6           0        5.310882    2.033063   -2.336227
     39          8           0        5.701296    2.914137   -3.103546
     40          6           0        5.391775    2.350399   -0.777836
     41          6           0        4.738363    3.686498   -0.551556
     42          8           0        3.512574    3.837644   -0.730336
     43          8           0        5.604809    4.506813    0.062363
     44          6           0        5.009376    5.840579    0.342865
     45          1           0        4.269356   -1.614285    4.811420
     46          1           0        1.909636   -6.040936    1.100558
     47          1           0        3.825456   -2.887404   -3.981181
     48          1           0        5.970630    2.293592    2.311226
     49          1           0        4.922583    0.872994    4.509168
     50          1           0        7.313815    0.449315    2.757486
     51          1           0        6.629243   -1.038290    3.481819
     52          1           0        7.162943    0.229353    4.548977
     53          1           0        3.177592    2.125014    3.460934
     54          1           0        3.414456    3.093430    1.951450
     55          1           0        5.351464    3.915822    3.864215
     56          1           0        3.967854    3.505199    4.804887
     57          1           0        2.993416   -2.646909    6.133739
     58          1           0        2.713211   -4.344460    6.210026
     59          1           0        1.298725   -3.261690    6.145561
     60          1           0        1.157928   -5.908659    5.821233
     61          1           0       -0.358227   -6.710513    5.123535
     62          1           0       -0.213949   -4.945035    5.336140
     63          1           0        1.579091   -6.313581   -1.412781
     64          1           0        3.778466   -5.472303   -3.235687
     65          1           0        2.976085   -8.085915   -1.300388
     66          1           0        4.133182   -7.034639   -0.414565
     67          1           0        4.263676   -7.192512   -2.089385
     68          1           0        1.493955   -6.201626   -4.021439
     69          1           0        2.104528   -4.734323   -4.777789
     70          1           0        0.032556   -5.187487   -2.765761
     71          1           0       -0.055796   -4.127624   -4.213371
     72          1           0        0.805497   -3.611804   -2.694552
     73          1           0        4.680757    0.442089   -5.236192
     74          1           0        4.556875   -1.353383   -5.236107
     75          1           0        6.099489   -0.574547   -4.689008
     76          1           0        6.449024    2.361928   -0.514752
     77          1           0        5.659995    6.585387   -0.115598
     78          1           0        4.861529    5.893248    1.421648
     79          1           0        4.063447    6.060198   -0.153446
     80         12           0       -4.121026    0.763531   -0.562058
     81          6           0       -1.628788    3.342922   -0.682614
     82          6           0       -4.640292    1.624622    2.697310
     83          6           0       -5.993021   -1.783911   -0.290823
     84          6           0       -2.631821   -0.615259   -3.395241
     85          7           0       -3.193057    2.302221    0.727726
     86          6           0       -2.300149    3.265223    0.555396
     87          6           0       -2.174238    4.247093    1.751074
     88          6           0       -2.717861    3.281519    2.913409
     89          6           0       -3.602399    2.362189    2.073706
     90          6           0       -1.627692    2.439688    3.555433
     91          6           0       -3.085509    5.513358    1.583184
     92          6           0       -2.784629    6.655725    2.555914
     93          1           0       -2.930356    8.029489    2.082625
     94          7           0       -5.504686    0.324831    0.791314
     95          6           0       -5.576144    0.781078    2.059383
     96          6           0       -6.765544    0.146882    2.648698
     97          6           0       -7.296465   -0.847942    1.677535
     98          6           0       -6.250347   -0.821895    0.675022
     99          6           0       -7.334570    0.559207    3.975212
    100          6           0       -8.533818   -1.693448    1.660894
    101          8           0       -8.676288   -2.662229    0.833850
    102          6           0       -9.533229   -1.413443    2.702178
    103          7           0       -4.164696   -1.065652   -1.549249
    104          6           0       -5.115309   -1.976362   -1.275650
    105          6           0       -5.112802   -3.090558   -2.294950
    106          6           0       -4.117781   -2.612143   -3.451941
    107          6           0       -3.627115   -1.285714   -2.831279
    108          6           0       -4.673552   -4.461414   -1.780945
    109          6           0       -4.681426   -2.587135   -4.899127
    110          6           0       -5.743302   -1.518038   -5.021015
    111          7           0       -2.558475    1.344210   -1.936575
    112          6           0       -2.075430    0.606813   -3.039756
    113          6           0       -0.934054    1.358970   -3.600048
    114          6           0       -0.816792    2.479093   -2.763347
    115          6           0       -1.801825    2.418288   -1.740848
    116          6           0       -0.135512    0.956208   -4.707406
    117          6           0       -0.076940    3.693675   -2.506282
    118          8           0        0.813383    4.308874   -3.091607
    119          6           0       -0.488939    4.242517   -1.072608
    120          6           0       -0.770679    5.714375   -1.202071
    121          8           0       -1.730682    6.116667   -1.882626
    122          8           0        0.001876    6.389152   -0.331320
    123          6           0       -0.249417    7.852637   -0.414330
    124          1           0       -4.721777    1.660782    3.784020
    125          1           0       -6.683008   -2.630730   -0.308410
    126          1           0       -2.176541   -0.928859   -4.337080
    127          1           0       -1.162517    4.564137    1.973919
    128          1           0       -3.316111    3.830869    3.635681
    129          1           0       -0.683344    2.543872    3.042116
    130          1           0       -1.976349    1.416630    3.502300
    131          1           0       -1.547143    2.675713    4.620390
    132          1           0       -4.107143    5.263441    1.897107
    133          1           0       -3.049001    5.878082    0.575086
    134          1           0       -1.820173    6.523616    3.061205
    135          1           0       -3.517860    6.624345    3.365485
    136          1           0       -6.636852    1.197386    4.531356
    137          1           0       -7.416941   -0.347899    4.583688
    138          1           0       -8.322579    1.015898    3.886085
    139          1           0       -9.077228   -1.533571    3.682029
    140          1           0      -10.383761   -2.057935    2.471762
    141          1           0       -9.836468   -0.363506    2.622760
    142          1           0       -6.100464   -3.231073   -2.716717
    143          1           0       -3.237731   -3.267413   -3.529248
    144          1           0       -5.431019   -5.251436   -1.942719
    145          1           0       -4.436400   -4.371637   -0.729165
    146          1           0       -3.738971   -4.833104   -2.197595
    147          1           0       -5.169069   -3.536912   -5.132094
    148          1           0       -3.921815   -2.421028   -5.655703
    149          1           0       -6.640108   -2.016527   -4.641091
    150          1           0       -5.868136   -1.218775   -6.059720
    151          1           0       -5.529201   -0.673086   -4.356290
    152          1           0        0.013588    1.835479   -5.319897
    153          1           0       -0.610605    0.154982   -5.269641
    154          1           0        0.762931    0.615099   -4.186142
    155          1           0        0.341479    4.042765   -0.394304
    156          1           0        0.715323    8.332037   -0.607043
    157          1           0       -0.766198    8.120845    0.526289
    158          1           0       -0.835924    8.213803   -1.250999
 ---------------------------------------------------------------------
 Rotational constants (GHZ):           0.0220503           0.0175225           0.0143663
 Leave Link  202 at Thu Sep  9 05:07:23 2021, MaxMem= 23488102400 cpu:               0.2 elap:               0.0
 (Enter /sw/apps/gaussian-16.0/g16/l301.exe)
 Standard basis: def2SVP (5D, 7F)
 Ernie: Thresh=  0.10000D-02 Tol=  0.10000D-05 Strict=F.
 There are  1658 symmetry adapted cartesian basis functions of A   symmetry.
 There are  1572 symmetry adapted basis functions of A   symmetry.
  1572 basis functions,  2678 primitive gaussians,  1658 cartesian basis functions
   312 alpha electrons      312 beta electrons
       nuclear repulsion energy     16162.0554805613 Hartrees.
 IExCor=20419 DFT=T Ex+Corr=CAM-B3LYP ExCW=0 ScaHFX=  1.000000
 ScaDFX=  1.000000  1.000000  1.000000  0.810000 ScalE2=  1.000000  1.000000
 IRadAn=      5 IRanWt=     -1 IRanGd=            0 ICorTp=0 IEmpDi=  4
 HFx  wShort=  0.000000 wLong=  0.330000 cFull=  0.190000 cShort=  0.000000 cLong=  0.460000
 DFx  wShort=  0.000000 wLong=  0.330000 cFull=  0.190000 cShort=  0.000000 cLong=  0.460000
 NAtoms=  158 NActive=  158 NUniq=  158 SFac= 1.00D+00 NAtFMM=   60 NAOKFM=T Big=T
 Integral buffers will be    131072 words long.
 Raffenetti 1 integral format.
 Two-electron integral symmetry is turned on.
 Leave Link  301 at Thu Sep  9 05:07:23 2021, MaxMem= 23488102400 cpu:               1.3 elap:               0.1
 (Enter /sw/apps/gaussian-16.0/g16/l302.exe)
 NPDir=0 NMtPBC=     1 NCelOv=     1 NCel=       1 NClECP=     1 NCelD=      1
         NCelK=      1 NCelE2=     1 NClLst=     1 CellRange=     0.0.
 One-electron integrals computed using PRISM.
 One-electron integral symmetry used in STVInt
   1 Symmetry operations used in ECPInt.
 ECPInt:  NShTT=  271216 NPrTT=  987664 LenC2=  166613 LenP2D=  350135.
 LDataN:  DoStor=T MaxTD1= 4 Len=   56
 NBasis=  1572 RedAO= T EigKep=  3.34D-04  NBF=  1572
 NBsUse=  1572 1.00D-06 EigRej= -1.00D+00 NBFU=  1572
 Precomputing XC quadrature grid using
 IXCGrd= 4 IRadAn=           5 IRanWt=          -1 IRanGd=           0 AccXCQ= 0.00D+00.
 Generated NRdTot=       0 NPtTot=           0 NUsed=           0 NTot=          32
 NSgBfM=  1277  1237  1250  1264  1277 MxSgAt=   158 MxSgA2=   158.
 Leave Link  302 at Thu Sep  9 05:07:29 2021, MaxMem= 23488102400 cpu:             132.5 elap:               5.5
 (Enter /sw/apps/gaussian-16.0/g16/l303.exe)
 DipDrv:  MaxL=1.
 Leave Link  303 at Thu Sep  9 05:07:29 2021, MaxMem= 23488102400 cpu:              10.1 elap:               0.5
 (Enter /sw/apps/gaussian-16.0/g16/l308.exe)
 Leave Link  308 at Thu Sep  9 05:07:30 2021, MaxMem= 23488102400 cpu:              16.6 elap:               0.8
 (Enter /sw/apps/gaussian-16.0/g16/l401.exe)
 ExpMin= 3.36D-02 ExpMax= 4.95D+03 ExpMxC= 7.45D+02 IAcc=3 IRadAn=         5 AccDes= 0.00D+00
 Harris functional with IExCor=20419 and IRadAn=       5 diagonalized for initial guess.
 HarFok:  IExCor=20419 AccDes= 0.00D+00 IRadAn=         5 IDoV= 1 UseB2=F ITyADJ=14
 ICtDFT=  3500011 ScaDFX=  1.000000  1.000000  1.000000  1.000000
 FoFCou: FMM=F IPFlag=           0 FMFlag=      100000 FMFlg1=        2001
         NFxFlg=           0 DoJE=T BraDBF=F KetDBF=T FulRan=T
         wScrn=  0.000000 ICntrl=       500 IOpCl=  0 I1Cent=   200000004 NGrid=           0
         NMat0=    1 NMatS0=      1 NMatT0=    0 NMatD0=    1 NMtDS0=    0 NMtDT0=    0
 Petite list used in FoFCou.
 Harris En= -3918.66110895360    
 JPrj=0 DoOrth=F DoCkMO=F.
 Leave Link  401 at Thu Sep  9 05:07:39 2021, MaxMem= 23488102400 cpu:             206.3 elap:               8.6
 (Enter /sw/apps/gaussian-16.0/g16/l502.exe)
 Integral symmetry usage will be decided dynamically.
 Closed shell SCF:
 Using DIIS extrapolation, IDIIS=  1040.
 NGot= 23488102400 LenX= 23482547354 LenY= 23479796732
 Requested convergence on RMS density matrix=1.00D-08 within 128 cycles.
 Requested convergence on MAX density matrix=1.00D-06.
 Requested convergence on             energy=1.00D-06.
 No special actions if energy rises.
 Fock matrices will be formed incrementally for  20 cycles.

 Cycle   1  Pass 1  IDiag  1:
 FoFJK:  IHMeth= 1 ICntrl=       0 DoSepK=T KAlg= 0 I1Cent=           0 FoldK=F
 IRaf=         1 NMat=       1 IRICut=       1 DoRegI=T DoRafI=F ISym2E= 0 IDoP0=0 IntGTp=1.
 FoFCou: FMM=T IPFlag=           0 FMFlag=      100000 FMFlg1=        2001
         NFxFlg=           0 DoJE=T BraDBF=F KetDBF=F FulRan=T
         wScrn=  0.000000 ICntrl=       500 IOpCl=  0 I1Cent=           0 NGrid=           0
         NMat0=    1 NMatS0=      1 NMatT0=    0 NMatD0=    1 NMtDS0=    0 NMtDT0=    0
 Symmetry not used in FoFCou.
 FMM levels:  10  Number of levels for PrismC:   9
 E= -4068.94330564719    
 DIIS: error= 1.93D-02 at cycle   1 NSaved=   1.
 NSaved= 1 IEnMin= 1 EnMin= -4068.94330564719     IErMin= 1 ErrMin= 1.93D-02
 ErrMax= 1.93D-02  0.00D+00 EMaxC= 1.00D-01 BMatC= 1.69D+00 BMatP= 1.69D+00
 IDIUse=3 WtCom= 8.07D-01 WtEn= 1.93D-01
 Coeff-Com:  0.100D+01
 Coeff-En:   0.100D+01
 Coeff:      0.100D+01
 Gap=     0.121 Goal=   None    Shift=    0.000
 GapD=    0.121 DampG=1.000 DampE=0.500 DampFc=0.5000 IDamp=-1.
 Damping current iteration by 5.00D-01
 RMSDP=1.59D-03 MaxDP=1.37D-01              OVMax= 2.19D-01

 Cycle   2  Pass 1  IDiag  1:
 RMSU=  7.79D-04    CP:  9.82D-01
 E= -4069.33251822128     Delta-E=       -0.389212574089 Rises=F Damp=T
 DIIS: error= 1.20D-02 at cycle   2 NSaved=   2.
 NSaved= 2 IEnMin= 2 EnMin= -4069.33251822128     IErMin= 2 ErrMin= 1.20D-02
 ErrMax= 1.20D-02  0.00D+00 EMaxC= 1.00D-01 BMatC= 3.08D-01 BMatP= 1.69D+00
 IDIUse=3 WtCom= 8.80D-01 WtEn= 1.20D-01
 Coeff-Com: -0.210D+00 0.121D+01
 Coeff-En:   0.000D+00 0.100D+01
 Coeff:     -0.185D+00 0.118D+01
 Gap=     0.132 Goal=   None    Shift=    0.000
 RMSDP=7.83D-04 MaxDP=1.09D-01 DE=-3.89D-01 OVMax= 2.08D-01

 Cycle   3  Pass 1  IDiag  1:
 RMSU=  7.53D-04    CP:  9.68D-01  1.22D+00
 E= -4069.61292864543     Delta-E=       -0.280410424151 Rises=F Damp=F
 DIIS: error= 1.54D-02 at cycle   3 NSaved=   3.
 NSaved= 3 IEnMin= 3 EnMin= -4069.61292864543     IErMin= 2 ErrMin= 1.20D-02
 ErrMax= 1.54D-02  0.00D+00 EMaxC= 1.00D-01 BMatC= 2.11D-01 BMatP= 3.08D-01
 IDIUse=3 WtCom= 8.46D-01 WtEn= 1.54D-01
 Coeff-Com: -0.269D+00 0.659D+00 0.610D+00
 Coeff-En:   0.000D+00 0.000D+00 0.100D+01
 Coeff:     -0.227D+00 0.557D+00 0.670D+00
 Gap=     0.121 Goal=   None    Shift=    0.000
 RMSDP=5.44D-04 MaxDP=4.63D-02 DE=-2.80D-01 OVMax= 1.84D-01

 Cycle   4  Pass 1  IDiag  1:
 RMSU=  2.81D-04    CP:  9.64D-01  1.55D+00  4.82D-01
 E= -4069.75627211314     Delta-E=       -0.143343467706 Rises=F Damp=F
 DIIS: error= 6.92D-03 at cycle   4 NSaved=   4.
 NSaved= 4 IEnMin= 4 EnMin= -4069.75627211314     IErMin= 4 ErrMin= 6.92D-03
 ErrMax= 6.92D-03  0.00D+00 EMaxC= 1.00D-01 BMatC= 5.47D-02 BMatP= 2.11D-01
 IDIUse=3 WtCom= 9.31D-01 WtEn= 6.92D-02
 Coeff-Com: -0.113D+00 0.235D+00 0.411D+00 0.466D+00
 Coeff-En:   0.000D+00 0.000D+00 0.238D+00 0.762D+00
 Coeff:     -0.105D+00 0.219D+00 0.399D+00 0.487D+00
 Gap=     0.118 Goal=   None    Shift=    0.000
 RMSDP=2.27D-04 MaxDP=1.91D-02 DE=-1.43D-01 OVMax= 9.28D-02

 Cycle   5  Pass 1  IDiag  1:
 RMSU=  8.85D-05    CP:  9.64D-01  1.48D+00  6.82D-01  5.19D-01
 E= -4069.80870071331     Delta-E=       -0.052428600171 Rises=F Damp=F
 DIIS: error= 7.11D-04 at cycle   5 NSaved=   5.
 NSaved= 5 IEnMin= 5 EnMin= -4069.80870071331     IErMin= 5 ErrMin= 7.11D-04
 ErrMax= 7.11D-04  0.00D+00 EMaxC= 1.00D-01 BMatC= 1.77D-03 BMatP= 5.47D-02
 IDIUse=3 WtCom= 9.93D-01 WtEn= 7.11D-03
 Coeff-Com: -0.424D-01 0.840D-01 0.187D+00 0.268D+00 0.504D+00
 Coeff-En:   0.000D+00 0.000D+00 0.000D+00 0.000D+00 0.100D+01
 Coeff:     -0.421D-01 0.834D-01 0.186D+00 0.266D+00 0.507D+00
 Gap=     0.118 Goal=   None    Shift=    0.000
 RMSDP=5.46D-05 MaxDP=5.25D-03 DE=-5.24D-02 OVMax= 2.88D-02

 Cycle   6  Pass 1  IDiag  1:
 RMSU=  3.70D-05    CP:  9.64D-01  1.49D+00  6.70D-01  6.10D-01  6.72D-01
 E= -4069.81049387913     Delta-E=       -0.001793165815 Rises=F Damp=F
 DIIS: error= 2.57D-04 at cycle   6 NSaved=   6.
 NSaved= 6 IEnMin= 6 EnMin= -4069.81049387913     IErMin= 6 ErrMin= 2.57D-04
 ErrMax= 2.57D-04  0.00D+00 EMaxC= 1.00D-01 BMatC= 2.56D-04 BMatP= 1.77D-03
 IDIUse=3 WtCom= 9.97D-01 WtEn= 2.57D-03
 Coeff-Com:  0.140D-02-0.517D-02 0.161D-01 0.460D-01 0.295D+00 0.646D+00
 Coeff-En:   0.000D+00 0.000D+00 0.000D+00 0.000D+00 0.122D+00 0.878D+00
 Coeff:      0.140D-02-0.516D-02 0.161D-01 0.458D-01 0.295D+00 0.647D+00
 Gap=     0.119 Goal=   None    Shift=    0.000
 RMSDP=2.01D-05 MaxDP=1.60D-03 DE=-1.79D-03 OVMax= 1.01D-02

 Cycle   7  Pass 1  IDiag  1:
 RMSU=  1.24D-05    CP:  9.63D-01  1.49D+00  6.77D-01  6.05D-01  7.97D-01
                    CP:  7.37D-01
 E= -4069.81079745244     Delta-E=       -0.000303573310 Rises=F Damp=F
 DIIS: error= 1.27D-04 at cycle   7 NSaved=   7.
 NSaved= 7 IEnMin= 7 EnMin= -4069.81079745244     IErMin= 7 ErrMin= 1.27D-04
 ErrMax= 1.27D-04  0.00D+00 EMaxC= 1.00D-01 BMatC= 3.39D-05 BMatP= 2.56D-04
 IDIUse=3 WtCom= 9.99D-01 WtEn= 1.27D-03
 Coeff-Com:  0.493D-02-0.109D-01-0.915D-02-0.321D-02 0.108D+00 0.348D+00
 Coeff-Com:  0.562D+00
 Coeff-En:   0.000D+00 0.000D+00 0.000D+00 0.000D+00 0.000D+00 0.000D+00
 Coeff-En:   0.100D+01
 Coeff:      0.492D-02-0.109D-01-0.913D-02-0.321D-02 0.108D+00 0.348D+00
 Coeff:      0.563D+00
 Gap=     0.119 Goal=   None    Shift=    0.000
 RMSDP=7.19D-06 MaxDP=1.23D-03 DE=-3.04D-04 OVMax= 3.61D-03

 Cycle   8  Pass 1  IDiag  1:
 RMSU=  5.27D-06    CP:  9.63D-01  1.49D+00  6.78D-01  6.11D-01  7.97D-01
                    CP:  8.45D-01  8.27D-01
 E= -4069.81083752425     Delta-E=       -0.000040071816 Rises=F Damp=F
 DIIS: error= 5.93D-05 at cycle   8 NSaved=   8.
 NSaved= 8 IEnMin= 8 EnMin= -4069.81083752425     IErMin= 8 ErrMin= 5.93D-05
 ErrMax= 5.93D-05  0.00D+00 EMaxC= 1.00D-01 BMatC= 5.22D-06 BMatP= 3.39D-05
 IDIUse=1 WtCom= 1.00D+00 WtEn= 0.00D+00
 Coeff-Com:  0.234D-02-0.466D-02-0.798D-02-0.120D-01-0.445D-02 0.326D-01
 Coeff-Com:  0.289D+00 0.705D+00
 Coeff:      0.234D-02-0.466D-02-0.798D-02-0.120D-01-0.445D-02 0.326D-01
 Coeff:      0.289D+00 0.705D+00
 Gap=     0.119 Goal=   None    Shift=    0.000
 RMSDP=3.66D-06 MaxDP=4.43D-04 DE=-4.01D-05 OVMax= 1.35D-03

 Cycle   9  Pass 1  IDiag  1:
 RMSU=  2.21D-06    CP:  9.63D-01  1.49D+00  6.78D-01  6.12D-01  8.12D-01
                    CP:  8.76D-01  1.00D+00  9.96D-01
 E= -4069.81084621481     Delta-E=       -0.000008690560 Rises=F Damp=F
 DIIS: error= 2.28D-05 at cycle   9 NSaved=   9.
 NSaved= 9 IEnMin= 9 EnMin= -4069.81084621481     IErMin= 9 ErrMin= 2.28D-05
 ErrMax= 2.28D-05  0.00D+00 EMaxC= 1.00D-01 BMatC= 1.02D-06 BMatP= 5.22D-06
 IDIUse=1 WtCom= 1.00D+00 WtEn= 0.00D+00
 Coeff-Com:  0.525D-03-0.878D-03-0.287D-02-0.623D-02-0.174D-01-0.428D-01
 Coeff-Com:  0.779D-01 0.366D+00 0.625D+00
 Coeff:      0.525D-03-0.878D-03-0.287D-02-0.623D-02-0.174D-01-0.428D-01
 Coeff:      0.779D-01 0.366D+00 0.625D+00
 Gap=     0.119 Goal=   None    Shift=    0.000
 RMSDP=1.67D-06 MaxDP=1.73D-04 DE=-8.69D-06 OVMax= 9.63D-04

 Cycle  10  Pass 1  IDiag  1:
 RMSU=  1.10D-06    CP:  9.63D-01  1.49D+00  6.78D-01  6.13D-01  8.16D-01
                    CP:  8.86D-01  1.05D+00  1.17D+00  1.04D+00
 E= -4069.81084844564     Delta-E=       -0.000002230823 Rises=F Damp=F
 DIIS: error= 1.03D-05 at cycle  10 NSaved=  10.
 NSaved=10 IEnMin=10 EnMin= -4069.81084844564     IErMin=10 ErrMin= 1.03D-05
 ErrMax= 1.03D-05  0.00D+00 EMaxC= 1.00D-01 BMatC= 2.35D-07 BMatP= 1.02D-06
 IDIUse=1 WtCom= 1.00D+00 WtEn= 0.00D+00
 Coeff-Com: -0.439D-03 0.936D-03 0.115D-02 0.754D-03-0.396D-02-0.342D-01
 Coeff-Com: -0.425D-01-0.502D-01 0.243D+00 0.885D+00
 Coeff:     -0.439D-03 0.936D-03 0.115D-02 0.754D-03-0.396D-02-0.342D-01
 Coeff:     -0.425D-01-0.502D-01 0.243D+00 0.885D+00
 Gap=     0.119 Goal=   None    Shift=    0.000
 RMSDP=1.39D-06 MaxDP=1.26D-04 DE=-2.23D-06 OVMax= 7.65D-04

 Cycle  11  Pass 1  IDiag  1:
 RMSU=  6.58D-07    CP:  9.63D-01  1.49D+00  6.78D-01  6.13D-01  8.18D-01
                    CP:  8.95D-01  1.10D+00  1.29D+00  1.38D+00  1.30D+00
 E= -4069.81084949408     Delta-E=       -0.000001048444 Rises=F Damp=F
 DIIS: error= 5.34D-06 at cycle  11 NSaved=  11.
 NSaved=11 IEnMin=11 EnMin= -4069.81084949408     IErMin=11 ErrMin= 5.34D-06
 ErrMax= 5.34D-06  0.00D+00 EMaxC= 1.00D-01 BMatC= 1.11D-07 BMatP= 2.35D-07
 IDIUse=1 WtCom= 1.00D+00 WtEn= 0.00D+00
 Coeff-Com: -0.395D-03 0.776D-03 0.149D-02 0.216D-02 0.388D-02-0.110D-01
 Coeff-Com: -0.421D-01-0.134D+00-0.348D-01 0.535D+00 0.680D+00
 Coeff:     -0.395D-03 0.776D-03 0.149D-02 0.216D-02 0.388D-02-0.110D-01
 Coeff:     -0.421D-01-0.134D+00-0.348D-01 0.535D+00 0.680D+00
 Gap=     0.119 Goal=   None    Shift=    0.000
 RMSDP=8.40D-07 MaxDP=8.79D-05 DE=-1.05D-06 OVMax= 5.41D-04

 Cycle  12  Pass 1  IDiag  1:
 RMSU=  3.26D-07    CP:  9.63D-01  1.49D+00  6.78D-01  6.13D-01  8.20D-01
                    CP:  8.97D-01  1.12D+00  1.36D+00  1.54D+00  1.73D+00
                    CP:  1.13D+00
 E= -4069.81084989821     Delta-E=       -0.000000404129 Rises=F Damp=F
 DIIS: error= 3.95D-06 at cycle  12 NSaved=  12.
 NSaved=12 IEnMin=12 EnMin= -4069.81084989821     IErMin=12 ErrMin= 3.95D-06
 ErrMax= 3.95D-06  0.00D+00 EMaxC= 1.00D-01 BMatC= 2.85D-08 BMatP= 1.11D-07
 IDIUse=1 WtCom= 1.00D+00 WtEn= 0.00D+00
 Coeff-Com: -0.573D-04 0.917D-04 0.416D-03 0.838D-03 0.417D-02 0.335D-02
 Coeff-Com: -0.290D-02-0.524D-01-0.890D-01 0.808D-02 0.294D+00 0.834D+00
 Coeff:     -0.573D-04 0.917D-04 0.416D-03 0.838D-03 0.417D-02 0.335D-02
 Coeff:     -0.290D-02-0.524D-01-0.890D-01 0.808D-02 0.294D+00 0.834D+00
 Gap=     0.119 Goal=   None    Shift=    0.000
 RMSDP=5.27D-07 MaxDP=2.65D-05 DE=-4.04D-07 OVMax= 3.16D-04

 Cycle  13  Pass 1  IDiag  1:
 RMSU=  1.90D-07    CP:  9.63D-01  1.49D+00  6.78D-01  6.13D-01  8.20D-01
                    CP:  8.97D-01  1.13D+00  1.39D+00  1.66D+00  1.95D+00
                    CP:  1.54D+00  1.22D+00
 E= -4069.81085004482     Delta-E=       -0.000000146614 Rises=F Damp=F
 DIIS: error= 2.11D-06 at cycle  13 NSaved=  13.
 NSaved=13 IEnMin=13 EnMin= -4069.81085004482     IErMin=13 ErrMin= 2.11D-06
 ErrMax= 2.11D-06  0.00D+00 EMaxC= 1.00D-01 BMatC= 1.21D-08 BMatP= 2.85D-08
 IDIUse=1 WtCom= 1.00D+00 WtEn= 0.00D+00
 Coeff-Com:  0.125D-03-0.257D-03-0.353D-03-0.407D-03 0.115D-02 0.532D-02
 Coeff-Com:  0.175D-01 0.222D-01-0.372D-01-0.229D+00-0.163D+00 0.495D+00
 Coeff-Com:  0.889D+00
 Coeff:      0.125D-03-0.257D-03-0.353D-03-0.407D-03 0.115D-02 0.532D-02
 Coeff:      0.175D-01 0.222D-01-0.372D-01-0.229D+00-0.163D+00 0.495D+00
 Coeff:      0.889D+00
 Gap=     0.119 Goal=   None    Shift=    0.000
 RMSDP=4.56D-07 MaxDP=2.36D-05 DE=-1.47D-07 OVMax= 3.23D-04

 Cycle  14  Pass 1  IDiag  1:
 RMSU=  9.39D-08    CP:  9.63D-01  1.49D+00  6.78D-01  6.13D-01  8.20D-01
                    CP:  8.98D-01  1.13D+00  1.42D+00  1.75D+00  2.17D+00
                    CP:  1.81D+00  1.76D+00  1.24D+00
 E= -4069.81085010832     Delta-E=       -0.000000063494 Rises=F Damp=F
 DIIS: error= 9.75D-07 at cycle  14 NSaved=  14.
 NSaved=14 IEnMin=14 EnMin= -4069.81085010832     IErMin=14 ErrMin= 9.75D-07
 ErrMax= 9.75D-07  0.00D+00 EMaxC= 1.00D-01 BMatC= 2.05D-09 BMatP= 1.21D-08
 IDIUse=1 WtCom= 1.00D+00 WtEn= 0.00D+00
 Coeff-Com:  0.789D-04-0.156D-03-0.283D-03-0.429D-03-0.345D-03 0.139D-02
 Coeff-Com:  0.101D-01 0.226D-01 0.614D-02-0.108D+00-0.152D+00 0.273D-01
 Coeff-Com:  0.441D+00 0.752D+00
 Coeff:      0.789D-04-0.156D-03-0.283D-03-0.429D-03-0.345D-03 0.139D-02
 Coeff:      0.101D-01 0.226D-01 0.614D-02-0.108D+00-0.152D+00 0.273D-01
 Coeff:      0.441D+00 0.752D+00
 Gap=     0.119 Goal=   None    Shift=    0.000
 RMSDP=1.55D-07 MaxDP=8.37D-06 DE=-6.35D-08 OVMax= 9.56D-05

 Cycle  15  Pass 1  IDiag  1:
 RMSU=  4.57D-08    CP:  9.63D-01  1.49D+00  6.78D-01  6.13D-01  8.20D-01
                    CP:  8.98D-01  1.14D+00  1.43D+00  1.77D+00  2.23D+00
                    CP:  1.94D+00  1.94D+00  1.50D+00  1.07D+00
 E= -4069.81085011586     Delta-E=       -0.000000007545 Rises=F Damp=F
 DIIS: error= 4.58D-07 at cycle  15 NSaved=  15.
 NSaved=15 IEnMin=15 EnMin= -4069.81085011586     IErMin=15 ErrMin= 4.58D-07
 ErrMax= 4.58D-07  0.00D+00 EMaxC= 1.00D-01 BMatC= 3.14D-10 BMatP= 2.05D-09
 IDIUse=1 WtCom= 1.00D+00 WtEn= 0.00D+00
 Coeff-Com:  0.127D-04-0.232D-04-0.600D-04-0.122D-03-0.317D-03-0.456D-03
 Coeff-Com:  0.156D-02 0.496D-02 0.979D-02-0.799D-02-0.344D-01-0.739D-01
 Coeff-Com:  0.619D-01 0.325D+00 0.714D+00
 Coeff:      0.127D-04-0.232D-04-0.600D-04-0.122D-03-0.317D-03-0.456D-03
 Coeff:      0.156D-02 0.496D-02 0.979D-02-0.799D-02-0.344D-01-0.739D-01
 Coeff:      0.619D-01 0.325D+00 0.714D+00
 Gap=     0.119 Goal=   None    Shift=    0.000
 RMSDP=3.84D-08 MaxDP=2.32D-06 DE=-7.55D-09 OVMax= 3.13D-05

 Cycle  16  Pass 1  IDiag  1:
 RMSU=  2.18D-08    CP:  9.63D-01  1.49D+00  6.78D-01  6.13D-01  8.20D-01
                    CP:  8.98D-01  1.14D+00  1.43D+00  1.78D+00  2.24D+00
                    CP:  1.95D+00  1.97D+00  1.57D+00  1.24D+00  1.10D+00
 E= -4069.81085011695     Delta-E=       -0.000000001091 Rises=F Damp=F
 DIIS: error= 2.26D-07 at cycle  16 NSaved=  16.
 NSaved=16 IEnMin=16 EnMin= -4069.81085011695     IErMin=16 ErrMin= 2.26D-07
 ErrMax= 2.26D-07  0.00D+00 EMaxC= 1.00D-01 BMatC= 1.15D-10 BMatP= 3.14D-10
 IDIUse=1 WtCom= 1.00D+00 WtEn= 0.00D+00
 Coeff-Com: -0.133D-04 0.272D-04 0.404D-04 0.404D-04-0.789D-04-0.626D-03
 Coeff-Com: -0.163D-02-0.367D-02 0.435D-02 0.218D-01 0.220D-01-0.534D-01
 Coeff-Com: -0.747D-01-0.370D-01 0.367D+00 0.755D+00
 Coeff:     -0.133D-04 0.272D-04 0.404D-04 0.404D-04-0.789D-04-0.626D-03
 Coeff:     -0.163D-02-0.367D-02 0.435D-02 0.218D-01 0.220D-01-0.534D-01
 Coeff:     -0.747D-01-0.370D-01 0.367D+00 0.755D+00
 Gap=     0.119 Goal=   None    Shift=    0.000
 RMSDP=2.77D-08 MaxDP=1.47D-06 DE=-1.09D-09 OVMax= 1.70D-05

 Cycle  17  Pass 1  IDiag  1:
 RMSU=  1.23D-08    CP:  9.63D-01  1.49D+00  6.78D-01  6.13D-01  8.20D-01
                    CP:  8.98D-01  1.14D+00  1.43D+00  1.78D+00  2.24D+00
                    CP:  1.97D+00  2.00D+00  1.63D+00  1.33D+00  1.38D+00
                    CP:  1.21D+00
 E= -4069.81085011701     Delta-E=       -0.000000000062 Rises=F Damp=F
 DIIS: error= 8.00D-08 at cycle  17 NSaved=  17.
 NSaved=17 IEnMin=17 EnMin= -4069.81085011701     IErMin=17 ErrMin= 8.00D-08
 ErrMax= 8.00D-08  0.00D+00 EMaxC= 1.00D-01 BMatC= 2.37D-11 BMatP= 1.15D-10
 IDIUse=1 WtCom= 1.00D+00 WtEn= 0.00D+00
 Coeff-Com: -0.870D-05 0.171D-04 0.321D-04 0.449D-04 0.568D-04-0.160D-03
 Coeff-Com: -0.948D-03-0.300D-02 0.443D-04 0.102D-01 0.193D-01-0.735D-02
 Coeff-Com: -0.387D-01-0.965D-01-0.113D-01 0.308D+00 0.820D+00
 Coeff:     -0.870D-05 0.171D-04 0.321D-04 0.449D-04 0.568D-04-0.160D-03
 Coeff:     -0.948D-03-0.300D-02 0.443D-04 0.102D-01 0.193D-01-0.735D-02
 Coeff:     -0.387D-01-0.965D-01-0.113D-01 0.308D+00 0.820D+00
 Gap=     0.119 Goal=   None    Shift=    0.000
 RMSDP=1.43D-08 MaxDP=8.67D-07 DE=-6.18D-11 OVMax= 9.99D-06

 Cycle  18  Pass 1  IDiag  1:
 RMSU=  5.96D-09    CP:  9.63D-01  1.49D+00  6.78D-01  6.13D-01  8.20D-01
                    CP:  8.98D-01  1.14D+00  1.43D+00  1.78D+00  2.24D+00
                    CP:  1.97D+00  2.00D+00  1.64D+00  1.39D+00  1.52D+00
                    CP:  1.57D+00  1.34D+00
 E= -4069.81085011709     Delta-E=       -0.000000000080 Rises=F Damp=F
 DIIS: error= 6.93D-08 at cycle  18 NSaved=  18.
 NSaved=18 IEnMin=18 EnMin= -4069.81085011709     IErMin=18 ErrMin= 6.93D-08
 ErrMax= 6.93D-08  0.00D+00 EMaxC= 1.00D-01 BMatC= 9.34D-12 BMatP= 2.37D-11
 IDIUse=1 WtCom= 1.00D+00 WtEn= 0.00D+00
 Coeff-Com:  0.521D-06-0.141D-05 0.113D-05 0.632D-05 0.655D-04 0.154D-03
 Coeff-Com:  0.195D-03-0.194D-03-0.121D-02-0.371D-02 0.200D-02 0.128D-01
 Coeff-Com:  0.120D-01-0.348D-01-0.137D+00-0.140D+00 0.385D+00 0.905D+00
 Coeff:      0.521D-06-0.141D-05 0.113D-05 0.632D-05 0.655D-04 0.154D-03
 Coeff:      0.195D-03-0.194D-03-0.121D-02-0.371D-02 0.200D-02 0.128D-01
 Coeff:      0.120D-01-0.348D-01-0.137D+00-0.140D+00 0.385D+00 0.905D+00
 Gap=     0.119 Goal=   None    Shift=    0.000
 RMSDP=1.15D-08 MaxDP=5.65D-07 DE=-8.00D-11 OVMax= 6.98D-06

 Cycle  19  Pass 1  IDiag  1:
 RMSU=  3.36D-09    CP:  9.63D-01  1.49D+00  6.78D-01  6.13D-01  8.20D-01
                    CP:  8.98D-01  1.14D+00  1.43D+00  1.78D+00  2.25D+00
                    CP:  1.97D+00  2.01D+00  1.65D+00  1.42D+00  1.64D+00
                    CP:  1.83D+00  1.84D+00  1.24D+00
 E= -4069.81085011717     Delta-E=       -0.000000000076 Rises=F Damp=F
 DIIS: error= 2.70D-08 at cycle  19 NSaved=  19.
 NSaved=19 IEnMin=19 EnMin= -4069.81085011717     IErMin=19 ErrMin= 2.70D-08
 ErrMax= 2.70D-08  0.00D+00 EMaxC= 1.00D-01 BMatC= 2.42D-12 BMatP= 9.34D-12
 IDIUse=1 WtCom= 1.00D+00 WtEn= 0.00D+00
 Coeff-Com:  0.310D-05-0.630D-05-0.985D-05-0.112D-04 0.237D-04 0.141D-03
 Coeff-Com:  0.438D-03 0.842D-03-0.639D-03-0.591D-02-0.503D-02 0.930D-02
 Coeff-Com:  0.216D-01 0.119D-01-0.757D-01-0.191D+00-0.357D-01 0.500D+00
 Coeff-Com:  0.770D+00
 Coeff:      0.310D-05-0.630D-05-0.985D-05-0.112D-04 0.237D-04 0.141D-03
 Coeff:      0.438D-03 0.842D-03-0.639D-03-0.591D-02-0.503D-02 0.930D-02
 Coeff:      0.216D-01 0.119D-01-0.757D-01-0.191D+00-0.357D-01 0.500D+00
 Coeff:      0.770D+00
 Gap=     0.119 Goal=   None    Shift=    0.000
 RMSDP=6.25D-09 MaxDP=4.91D-07 DE=-7.64D-11 OVMax= 4.28D-06

 SCF Done:  E(RCAM-B3LYP) =  -4069.81085012     A.U. after   19 cycles
            NFock= 19  Conv=0.62D-08     -V/T= 2.0102
 KE= 4.028783586088D+03 PE=-4.180622145419D+04 EE= 1.754557153742D+04
 Leave Link  502 at Thu Sep  9 05:21:11 2021, MaxMem= 23488102400 cpu:           18815.6 elap:             811.6
 (Enter /sw/apps/gaussian-16.0/g16/l801.exe)
 DoSCS=F DFT=T ScalE2(SS,OS)=  1.000000  1.000000
 ExpMin= 3.36D-02 ExpMax= 4.95D+03 ExpMxC= 7.45D+02 IAcc=3 IRadAn=         5 AccDes= 0.00D+00
 HarFok:  IExCor=  205 AccDes= 0.00D+00 IRadAn=         5 IDoV=-2 UseB2=F ITyADJ=14
 ICtDFT= 12500011 ScaDFX=  1.000000  1.000000  1.000000  1.000000
 GSVD:  LWork=       -9588 too small for GESVD, short by       45590 words or       45590 for optimal perf.
 Largest valence mixing into a core orbital is  2.03D-04
 Largest core mixing into a valence orbital is  5.23D-05
 Range of M.O.s used for correlation:    95  1572
 NBasis=  1572 NAE=   312 NBE=   312 NFC=    94 NFV=     0
 NROrb=   1478 NOA=   218 NOB=   218 NVA=  1260 NVB=  1260
 Leave Link  801 at Thu Sep  9 05:21:11 2021, MaxMem= 23488102400 cpu:               8.3 elap:               0.4
 (Enter /sw/apps/gaussian-16.0/g16/l914.exe)
 RHF ground state
 Two-electron integrals replicated using symmetry.
 MDV= 23488102400 DFT=T DoStab=F Mixed=T DoRPA=T DoScal=F NonHer=T
 Making orbital integer symmetry assigments:
 Orbital symmetries:
       Occupied  (A) (A) (A) (A) (A) (A) (A) (A) (A) (A) (A) (A)
                 (A) (A) (A) (A) (A) (A) (A) (A) (A) (A) (A) (A)
                 (A) (A) (A) (A) (A) (A) (A) (A) (A) (A) (A) (A)
                 (A) (A) (A) (A) (A) (A) (A) (A) (A) (A) (A) (A)
                 (A) (A) (A) (A) (A) (A) (A) (A) (A) (A) (A) (A)
                 (A) (A) (A) (A) (A) (A) (A) (A) (A) (A) (A) (A)
                 (A) (A) (A) (A) (A) (A) (A) (A) (A) (A) (A) (A)
                 (A) (A) (A) (A) (A) (A) (A) (A) (A) (A) (A) (A)
                 (A) (A) (A) (A) (A) (A) (A) (A) (A) (A) (A) (A)
                 (A) (A) (A) (A) (A) (A) (A) (A) (A) (A) (A) (A)
                 (A) (A) (A) (A) (A) (A) (A) (A) (A) (A) (A) (A)
                 (A) (A) (A) (A) (A) (A) (A) (A) (A) (A) (A) (A)
                 (A) (A) (A) (A) (A) (A) (A) (A) (A) (A) (A) (A)
                 (A) (A) (A) (A) (A) (A) (A) (A) (A) (A) (A) (A)
                 (A) (A) (A) (A) (A) (A) (A) (A) (A) (A) (A) (A)
                 (A) (A) (A) (A) (A) (A) (A) (A) (A) (A) (A) (A)
                 (A) (A) (A) (A) (A) (A) (A) (A) (A) (A) (A) (A)
                 (A) (A) (A) (A) (A) (A) (A) (A) (A) (A) (A) (A)
                 (A) (A) (A) (A) (A) (A) (A) (A) (A) (A) (A) (A)
                 (A) (A) (A) (A) (A) (A) (A) (A) (A) (A) (A) (A)
                 (A) (A) (A) (A) (A) (A) (A) (A) (A) (A) (A) (A)
                 (A) (A) (A) (A) (A) (A) (A) (A) (A) (A) (A) (A)
                 (A) (A) (A) (A) (A) (A) (A) (A) (A) (A) (A) (A)
                 (A) (A) (A) (A) (A) (A) (A) (A) (A) (A) (A) (A)
                 (A) (A) (A) (A) (A) (A) (A) (A) (A) (A) (A) (A)
                 (A) (A) (A) (A) (A) (A) (A) (A) (A) (A) (A) (A)
       Virtual   (A) (A) (A) (A) (A) (A) (A) (A) (A) (A) (A) (A)
                 (A) (A) (A) (A) (A) (A) (A) (A) (A) (A) (A) (A)
                 (A) (A) (A) (A) (A) (A) (A) (A) (A) (A) (A) (A)
                 (A) (A) (A) (A) (A) (A) (A) (A) (A) (A) (A) (A)
                 (A) (A) (A) (A) (A) (A) (A) (A) (A) (A) (A) (A)
                 (A) (A) (A) (A) (A) (A) (A) (A) (A) (A) (A) (A)
                 (A) (A) (A) (A) (A) (A) (A) (A) (A) (A) (A) (A)
                 (A) (A) (A) (A) (A) (A) (A) (A) (A) (A) (A) (A)
                 (A) (A) (A) (A) (A) (A) (A) (A) (A) (A) (A) (A)
                 (A) (A) (A) (A) (A) (A) (A) (A) (A) (A) (A) (A)
                 (A) (A) (A) (A) (A) (A) (A) (A) (A) (A) (A) (A)
                 (A) (A) (A) (A) (A) (A) (A) (A) (A) (A) (A) (A)
                 (A) (A) (A) (A) (A) (A) (A) (A) (A) (A) (A) (A)
                 (A) (A) (A) (A) (A) (A) (A) (A) (A) (A) (A) (A)
                 (A) (A) (A) (A) (A) (A) (A) (A) (A) (A) (A) (A)
                 (A) (A) (A) (A) (A) (A) (A) (A) (A) (A) (A) (A)
                 (A) (A) (A) (A) (A) (A) (A) (A) (A) (A) (A) (A)
                 (A) (A) (A) (A) (A) (A) (A) (A) (A) (A) (A) (A)
                 (A) (A) (A) (A) (A) (A) (A) (A) (A) (A) (A) (A)
                 (A) (A) (A) (A) (A) (A) (A) (A) (A) (A) (A) (A)
                 (A) (A) (A) (A) (A) (A) (A) (A) (A) (A) (A) (A)
                 (A) (A) (A) (A) (A) (A) (A) (A) (A) (A) (A) (A)
                 (A) (A) (A) (A) (A) (A) (A) (A) (A) (A) (A) (A)
                 (A) (A) (A) (A) (A) (A) (A) (A) (A) (A) (A) (A)
                 (A) (A) (A) (A) (A) (A) (A) (A) (A) (A) (A) (A)
                 (A) (A) (A) (A) (A) (A) (A) (A) (A) (A) (A) (A)
                 (A) (A) (A) (A) (A) (A) (A) (A) (A) (A) (A) (A)
                 (A) (A) (A) (A) (A) (A) (A) (A) (A) (A) (A) (A)
                 (A) (A) (A) (A) (A) (A) (A) (A) (A) (A) (A) (A)
                 (A) (A) (A) (A) (A) (A) (A) (A) (A) (A) (A) (A)
                 (A) (A) (A) (A) (A) (A) (A) (A) (A) (A) (A) (A)
                 (A) (A) (A) (A) (A) (A) (A) (A) (A) (A) (A) (A)
                 (A) (A) (A) (A) (A) (A) (A) (A) (A) (A) (A) (A)
                 (A) (A) (A) (A) (A) (A) (A) (A) (A) (A) (A) (A)
                 (A) (A) (A) (A) (A) (A) (A) (A) (A) (A) (A) (A)
                 (A) (A) (A) (A) (A) (A) (A) (A) (A) (A) (A) (A)
                 (A) (A) (A) (A) (A) (A) (A) (A) (A) (A) (A) (A)
                 (A) (A) (A) (A) (A) (A) (A) (A) (A) (A) (A) (A)
                 (A) (A) (A) (A) (A) (A) (A) (A) (A) (A) (A) (A)
                 (A) (A) (A) (A) (A) (A) (A) (A) (A) (A) (A) (A)
                 (A) (A) (A) (A) (A) (A) (A) (A) (A) (A) (A) (A)
                 (A) (A) (A) (A) (A) (A) (A) (A) (A) (A) (A) (A)
                 (A) (A) (A) (A) (A) (A) (A) (A) (A) (A) (A) (A)
                 (A) (A) (A) (A) (A) (A) (A) (A) (A) (A) (A) (A)
                 (A) (A) (A) (A) (A) (A) (A) (A) (A) (A) (A) (A)
                 (A) (A) (A) (A) (A) (A) (A) (A) (A) (A) (A) (A)
                 (A) (A) (A) (A) (A) (A) (A) (A) (A) (A) (A) (A)
                 (A) (A) (A) (A) (A) (A) (A) (A) (A) (A) (A) (A)
                 (A) (A) (A) (A) (A) (A) (A) (A) (A) (A) (A) (A)
                 (A) (A) (A) (A) (A) (A) (A) (A) (A) (A) (A) (A)
                 (A) (A) (A) (A) (A) (A) (A) (A) (A) (A) (A) (A)
                 (A) (A) (A) (A) (A) (A) (A) (A) (A) (A) (A) (A)
                 (A) (A) (A) (A) (A) (A) (A) (A) (A) (A) (A) (A)
                 (A) (A) (A) (A) (A) (A) (A) (A) (A) (A) (A) (A)
                 (A) (A) (A) (A) (A) (A) (A) (A) (A) (A) (A) (A)
                 (A) (A) (A) (A) (A) (A) (A) (A) (A) (A) (A) (A)
                 (A) (A) (A) (A) (A) (A) (A) (A) (A) (A) (A) (A)
                 (A) (A) (A) (A) (A) (A) (A) (A) (A) (A) (A) (A)
                 (A) (A) (A) (A) (A) (A) (A) (A) (A) (A) (A) (A)
                 (A) (A) (A) (A) (A) (A) (A) (A) (A) (A) (A) (A)
                 (A) (A) (A) (A) (A) (A) (A) (A) (A) (A) (A) (A)
                 (A) (A) (A) (A) (A) (A) (A) (A) (A) (A) (A) (A)
                 (A) (A) (A) (A) (A) (A) (A) (A) (A) (A) (A) (A)
                 (A) (A) (A) (A) (A) (A) (A) (A) (A) (A) (A) (A)
                 (A) (A) (A) (A) (A) (A) (A) (A) (A) (A) (A) (A)
                 (A) (A) (A) (A) (A) (A) (A) (A) (A) (A) (A) (A)
                 (A) (A) (A) (A) (A) (A) (A) (A) (A) (A) (A) (A)
                 (A) (A) (A) (A) (A) (A) (A) (A) (A) (A) (A) (A)
                 (A) (A) (A) (A) (A) (A) (A) (A) (A) (A) (A) (A)
                 (A) (A) (A) (A) (A) (A) (A) (A) (A) (A) (A) (A)
                 (A) (A) (A) (A) (A) (A) (A) (A) (A) (A) (A) (A)
                 (A) (A) (A) (A) (A) (A) (A) (A) (A) (A) (A) (A)
                 (A) (A) (A) (A) (A) (A) (A) (A) (A) (A) (A) (A)
                 (A) (A) (A) (A) (A) (A) (A) (A) (A) (A) (A) (A)
                 (A) (A) (A) (A) (A) (A) (A) (A) (A) (A) (A) (A)
                 (A) (A) (A) (A) (A) (A) (A) (A) (A) (A) (A) (A)
                 (A) (A) (A) (A) (A) (A) (A) (A) (A) (A) (A) (A)
                 (A) (A) (A) (A) (A) (A) (A) (A) (A) (A) (A) (A)
                 (A) (A) (A) (A) (A) (A) (A) (A) (A) (A) (A) (A)
                 (A) (A) (A) (A) (A) (A) (A) (A) (A) (A) (A) (A)
                 (A) (A) (A) (A) (A) (A) (A) (A) (A) (A) (A) (A)
                 (A) (A) (A) (A) (A) (A) (A) (A) (A) (A) (A) (A)
                 (A) (A) (A) (A) (A) (A) (A) (A) (A) (A) (A) (A)
                 (A) (A) (A) (A) (A) (A) (A) (A) (A) (A) (A) (A)
                 (A) (A) (A) (A) (A) (A) (A) (A) (A) (A) (A) (A)
                 (A) (A) (A) (A) (A) (A) (A) (A) (A) (A) (A) (A)
                 (A) (A) (A) (A) (A) (A) (A) (A) (A) (A) (A) (A)
                 (A) (A) (A) (A) (A) (A) (A) (A) (A) (A) (A) (A)
                 (A) (A) (A) (A) (A) (A) (A) (A) (A) (A) (A) (A)
                 (A) (A) (A) (A) (A) (A) (A) (A) (A) (A) (A) (A)
                 (A) (A) (A) (A) (A) (A) (A) (A) (A) (A) (A) (A)
                 (A) (A) (A) (A) (A) (A) (A) (A) (A) (A) (A) (A)
                 (A) (A) (A) (A) (A) (A) (A) (A) (A) (A) (A) (A)
                 (A) (A) (A) (A) (A) (A) (A) (A) (A) (A) (A) (A)
                 (A) (A) (A) (A) (A) (A) (A) (A) (A) (A) (A) (A)
                 (A) (A) (A) (A) (A) (A) (A) (A) (A) (A) (A) (A)
                 (A) (A) (A) (A) (A) (A) (A) (A) (A) (A) (A) (A)
                 (A) (A) (A) (A) (A) (A) (A) (A) (A) (A) (A) (A)
                 (A) (A) (A) (A) (A) (A) (A) (A) (A) (A) (A) (A)
                 (A) (A) (A) (A) (A) (A) (A) (A) (A) (A) (A) (A)
                 (A) (A) (A) (A) (A) (A) (A) (A) (A) (A) (A) (A)
                 (A) (A) (A) (A) (A) (A) (A) (A) (A) (A) (A) (A)
                 (A) (A) (A) (A) (A) (A) (A) (A) (A) (A) (A) (A)
                 (A) (A) (A) (A) (A) (A) (A) (A) (A) (A) (A) (A)
                 (A) (A) (A) (A) (A) (A) (A) (A) (A) (A) (A) (A)
    20 initial guesses have been made.
 Convergence on wavefunction:    0.001000000000000
 Davidson Disk Diagonalization:  ConvIn= 1.00D-03 SkipCon=T Conv= 1.00D-03.
 Max sub-space:  2000 roots to seek:    20 dimension of matrix:       549360
 Iteration     1 Dimension    20 NMult     0 NNew     20
 CISAX will form    20 AO SS matrices at one time.
 NMat=    20 NSing=    20 JSym2X= 0.
 FoFJK:  IHMeth= 1 ICntrl=       0 DoSepK=T KAlg= 0 I1Cent=           0 FoldK=F
 IRaf=         1 NMat=      40 IRICut=       1 DoRegI=T DoRafI=F ISym2E= 0 IDoP0=3 IntGTp=3.
 FoFCou: FMM=T IPFlag=           0 FMFlag=      100000 FMFlg1=        2001
         NFxFlg=           0 DoJE=F BraDBF=F KetDBF=F FulRan=T
         wScrn=  0.000000 ICntrl=       500 IOpCl=  0 I1Cent=           0 NGrid=           0
         NMat0=   20 NMatS0=     20 NMatT0=    0 NMatD0=   20 NMtDS0=    0 NMtDT0=    0
 Symmetry not used in FoFCou.
 FMM levels:  10  Number of levels for PrismC:   9
 New state      2 was old state      4
 New state      4 was old state      7
 New state      5 was old state      6
 Excitation Energies [eV] at current iteration:
 Root      1 :     2.211618731832445
 Root      2 :     2.444626501396116
 Root      3 :     2.579620514863074
 Root      4 :     2.613720909742897
 Root      5 :     2.630440731499024
 Root      6 :     2.789115145554301
 Root      7 :     2.978497288789465
 Root      8 :     3.233109346174263
 Root      9 :     3.590175891594438
 Root     10 :     3.657512654612279
 Root     11 :     3.743352933226990
 Root     12 :     3.758352311833562
 Root     13 :     4.107527934893547
 Root     14 :     4.207741727714454
 Root     15 :     4.220818037314248
 Root     16 :     4.335869078355843
 Root     17 :     4.383280526350384
 Root     18 :     4.392879881277715
 Root     19 :     4.616019941933911
 Root     20 :     4.623911563190405
 Iteration     2 Dimension    30 NMult    20 NNew     10
 CISAX will form    10 AO SS matrices at one time.
 NMat=    10 NSing=    10 JSym2X= 0.
 New state      1 was old state      3
 Root      1 not converged, maximum delta is    0.205907683562950
 New state      2 was old state      1
 Root      2 not converged, maximum delta is    0.022681749210639
 New state      3 was old state      4
 Root      3 not converged, maximum delta is    0.138277911681377
 New state      4 was old state      5
 Root      4 not converged, maximum delta is    0.110777723101709
 New state      5 was old state      2
 Root      5 not converged, maximum delta is    0.026069355478218
 Excitation Energies [eV] at current iteration:
 Root      1 :     1.754276244434079   Change is   -0.825344270428994
 Root      2 :     2.208482714396645   Change is   -0.003136017435800
 Root      3 :     2.223796455550758   Change is   -0.389924454192139
 Root      4 :     2.247529689973052   Change is   -0.382911041525971
 Root      5 :     2.438840385914099   Change is   -0.005786115482016
 Iteration     3 Dimension    40 NMult    30 NNew     10
 CISAX will form    10 AO SS matrices at one time.
 NMat=    10 NSing=    10 JSym2X= 0.
 Root      1 not converged, maximum delta is    0.051697984759077
 New state      2 was old state      3
 Root      2 not converged, maximum delta is    0.160871981904372
 New state      3 was old state      4
 Root      3 not converged, maximum delta is    0.171551225431112
 New state      4 was old state      2
 Root      4 not converged, maximum delta is    0.054035580474575
 Root      5 not converged, maximum delta is    0.001195268001962
 Excitation Energies [eV] at current iteration:
 Root      1 :     1.651754355913413   Change is   -0.102521888520666
 Root      2 :     2.182545044814795   Change is   -0.041251410735962
 Root      3 :     2.198475257959581   Change is   -0.049054432013472
 Root      4 :     2.208527941832438   Change is    0.000045227435794
 Root      5 :     2.438759024301976   Change is   -0.000081361612123
 Iteration     4 Dimension    50 NMult    40 NNew     10
 CISAX will form    10 AO SS matrices at one time.
 NMat=    10 NSing=    10 JSym2X= 0.
 Root      1 not converged, maximum delta is    0.009737244574135
 New state      2 was old state      3
 Root      2 not converged, maximum delta is    0.455384354877609
 New state      3 was old state      2
 Root      3 not converged, maximum delta is    0.282103751592554
 Root      4 not converged, maximum delta is    0.036355129061911
 No map to state      5
 Excitation Energies [eV] at current iteration:
 Root      1 :     1.635522026741820   Change is   -0.016232329171593
 Root      2 :     2.056247165865907   Change is   -0.142228092093674
 Root      3 :     2.181247989083777   Change is   -0.001297055731018
 Root      4 :     2.208462802499853   Change is   -0.000065139332585
 Root      5 :     2.252841798232157
 Iteration     5 Dimension    60 NMult    50 NNew     10
 CISAX will form    10 AO SS matrices at one time.
 NMat=    10 NSing=    10 JSym2X= 0.
 Root      1 not converged, maximum delta is    0.001416161330112
 Root      2 not converged, maximum delta is    0.254378980831105
 Root      3 not converged, maximum delta is    0.134923068541162
 New state      4 was old state      5
 Root      4 not converged, maximum delta is    0.165586789835038
 New state      5 was old state      4
 Root      5 not converged, maximum delta is    0.058567777446124
 Excitation Energies [eV] at current iteration:
 Root      1 :     1.633841600342566   Change is   -0.001680426399253
 Root      2 :     1.765355740654136   Change is   -0.290891425211771
 Root      3 :     2.178029530073619   Change is   -0.003218459010159
 Root      4 :     2.201722033901254   Change is   -0.051119764330903
 Root      5 :     2.208562831107809   Change is    0.000100028607956
 Iteration     6 Dimension    70 NMult    60 NNew     10
 CISAX will form    10 AO SS matrices at one time.
 NMat=    10 NSing=    10 JSym2X= 0.
 Root      1 not converged, maximum delta is    0.001186686230809
 Root      2 not converged, maximum delta is    0.018715320358220
 Root      3 not converged, maximum delta is    0.014524804223278
 Root      4 not converged, maximum delta is    0.016396000986835
 Root      5 not converged, maximum delta is    0.010443715520269
 Excitation Energies [eV] at current iteration:
 Root      1 :     1.633607305277645   Change is   -0.000234295064921
 Root      2 :     1.722335303048149   Change is   -0.043020437605987
 Root      3 :     2.177634338080842   Change is   -0.000395191992777
 Root      4 :     2.200060346098235   Change is   -0.001661687803019
 Root      5 :     2.208544585621558   Change is   -0.000018245486251
 Iteration     7 Dimension    80 NMult    70 NNew     10
[...]
 Alpha virt. eigenvalues --    1.83870   1.84000   1.84056   1.84210   1.84478
 Alpha virt. eigenvalues --    1.84638   1.84845   1.84855   1.85069   1.85177
 Alpha virt. eigenvalues --    1.85408   1.85503   1.85577   1.85669   1.85792
 Alpha virt. eigenvalues --    1.85966   1.86258   1.86366   1.86609   1.86694
 Alpha virt. eigenvalues --    1.86855   1.86999   1.87157   1.87207   1.87356
 Alpha virt. eigenvalues --    1.87490   1.87779   1.87897   1.87949   1.88039
 Alpha virt. eigenvalues --    1.88252   1.88353   1.88546   1.88612   1.88836
 Alpha virt. eigenvalues --    1.88900   1.89183   1.89249   1.89523   1.89650
 Alpha virt. eigenvalues --    1.89818   1.90013   1.90136   1.90311   1.90585
 Alpha virt. eigenvalues --    1.90852   1.91290   1.91391   1.91537   1.91859
 Alpha virt. eigenvalues --    1.92010   1.92191   1.92558   1.92653   1.92998
 Alpha virt. eigenvalues --    1.93045   1.93377   1.93604   1.93855   1.94337
 Alpha virt. eigenvalues --    1.94659   1.94708   1.95184   1.95586   1.95767
 Alpha virt. eigenvalues --    1.95881   1.96022   1.96175   1.96265   1.96354
 Alpha virt. eigenvalues --    1.96581   1.96698   1.96889   1.96947   1.97249
 Alpha virt. eigenvalues --    1.97502   1.97822   1.97908   1.98188   1.98309
 Alpha virt. eigenvalues --    1.98588   1.98737   1.98809   1.99204   1.99430
 Alpha virt. eigenvalues --    1.99846   2.00327   2.00694   2.01073   2.01178
 Alpha virt. eigenvalues --    2.01519   2.01555   2.01730   2.01785   2.01915
 Alpha virt. eigenvalues --    2.02098   2.02219   2.02810   2.03081   2.03231
 Alpha virt. eigenvalues --    2.03481   2.03556   2.03649   2.03823   2.04035
 Alpha virt. eigenvalues --    2.04160   2.04552   2.04970   2.05393   2.05584
 Alpha virt. eigenvalues --    2.06027   2.06136   2.06825   2.07116   2.07337
 Alpha virt. eigenvalues --    2.07609   2.07841   2.08630   2.08868   2.09009
 Alpha virt. eigenvalues --    2.09388   2.09662   2.10068   2.10755   2.11250
 Alpha virt. eigenvalues --    2.11391   2.11504   2.11745   2.11773   2.11978
 Alpha virt. eigenvalues --    2.12206   2.12597   2.12792   2.12837   2.12907
 Alpha virt. eigenvalues --    2.13141   2.13331   2.13874   2.14010   2.14174
 Alpha virt. eigenvalues --    2.14805   2.15384   2.15758   2.15995   2.16508
 Alpha virt. eigenvalues --    2.16613   2.16863   2.17016   2.17470   2.17694
 Alpha virt. eigenvalues --    2.17792   2.18001   2.18084   2.18334   2.18453
 Alpha virt. eigenvalues --    2.18544   2.19077   2.19163   2.19686   2.19722
 Alpha virt. eigenvalues --    2.20070   2.20221   2.20324   2.20768   2.20825
 Alpha virt. eigenvalues --    2.21152   2.21720   2.21830   2.21882   2.22283
 Alpha virt. eigenvalues --    2.22323   2.22729   2.23048   2.23385   2.23855
 Alpha virt. eigenvalues --    2.24443   2.24955   2.25091   2.25336   2.26373
 Alpha virt. eigenvalues --    2.26839   2.26895   2.27189   2.27386   2.27712
 Alpha virt. eigenvalues --    2.28166   2.28667   2.29321   2.29763   2.29837
 Alpha virt. eigenvalues --    2.30276   2.30536   2.31040   2.31142   2.31251
 Alpha virt. eigenvalues --    2.31407   2.31551   2.32147   2.32590   2.33189
 Alpha virt. eigenvalues --    2.33530   2.33642   2.33891   2.34158   2.34493
 Alpha virt. eigenvalues --    2.35492   2.35792   2.35852   2.36337   2.36410
 Alpha virt. eigenvalues --    2.36671   2.36759   2.36800   2.37846   2.38046
 Alpha virt. eigenvalues --    2.38273   2.38699   2.38875   2.39075   2.39639
 Alpha virt. eigenvalues --    2.40074   2.40233   2.40521   2.40598   2.41173
 Alpha virt. eigenvalues --    2.41273   2.41541   2.41707   2.42070   2.42169
 Alpha virt. eigenvalues --    2.42643   2.42933   2.43234   2.43410   2.43720
 Alpha virt. eigenvalues --    2.44267   2.44322   2.44778   2.44920   2.45255
 Alpha virt. eigenvalues --    2.45379   2.45658   2.46026   2.46350   2.46553
 Alpha virt. eigenvalues --    2.46636   2.46861   2.47058   2.47300   2.47343
 Alpha virt. eigenvalues --    2.47745   2.47843   2.48268   2.49346   2.49718
 Alpha virt. eigenvalues --    2.50050   2.50214   2.50551   2.50749   2.51247
 Alpha virt. eigenvalues --    2.51695   2.51937   2.51977   2.52497   2.52700
 Alpha virt. eigenvalues --    2.52832   2.53513   2.53935   2.54174   2.54326
 Alpha virt. eigenvalues --    2.54588   2.54906   2.55316   2.55566   2.56168
 Alpha virt. eigenvalues --    2.57883   2.58439   2.58641   2.59267   2.60303
 Alpha virt. eigenvalues --    2.60592   2.60758   2.61229   2.61715   2.62144
 Alpha virt. eigenvalues --    2.62516   2.62771   2.62992   2.63588   2.63932
 Alpha virt. eigenvalues --    2.64198   2.64508   2.64713   2.65086   2.65435
 Alpha virt. eigenvalues --    2.65807   2.66168   2.66748   2.66894   2.67191
 Alpha virt. eigenvalues --    2.67343   2.67913   2.68327   2.68862   2.69077
 Alpha virt. eigenvalues --    2.69203   2.69351   2.69441   2.69899   2.70010
 Alpha virt. eigenvalues --    2.70456   2.71024   2.71371   2.72087   2.72225
 Alpha virt. eigenvalues --    2.72709   2.72767   2.73039   2.73259   2.73358
 Alpha virt. eigenvalues --    2.73574   2.73785   2.73923   2.74614   2.74970
 Alpha virt. eigenvalues --    2.75045   2.75519   2.76605   2.76840   2.77335
 Alpha virt. eigenvalues --    2.77471   2.77602   2.77934   2.78218   2.78589
 Alpha virt. eigenvalues --    2.78790   2.79060   2.79166   2.79494   2.80389
 Alpha virt. eigenvalues --    2.80560   2.80728   2.81116   2.81268   2.81614
 Alpha virt. eigenvalues --    2.82000   2.82370   2.82546   2.82802   2.83774
 Alpha virt. eigenvalues --    2.83928   2.84160   2.84559   2.84583   2.84889
 Alpha virt. eigenvalues --    2.84906   2.85317   2.85681   2.86014   2.87047
 Alpha virt. eigenvalues --    2.87067   2.87577   2.87769   2.88192   2.88535
 Alpha virt. eigenvalues --    2.88568   2.88971   2.89042   2.89302   2.90469
 Alpha virt. eigenvalues --    2.90962   2.91127   2.91549   2.93180   2.93699
 Alpha virt. eigenvalues --    2.94105   2.94230   2.94550   2.94856   2.95327
 Alpha virt. eigenvalues --    2.95698   2.96204   2.96303   2.96520   2.96793
 Alpha virt. eigenvalues --    2.97174   2.97468   2.97953   2.98236   2.98327
 Alpha virt. eigenvalues --    2.98429   2.98685   2.98728   2.98883   2.98921
 Alpha virt. eigenvalues --    2.99183   2.99538   2.99639   3.00051   3.00136
 Alpha virt. eigenvalues --    3.00299   3.00477   3.00581   3.00692   3.01379
 Alpha virt. eigenvalues --    3.01966   3.02042   3.02180   3.02385   3.02917
 Alpha virt. eigenvalues --    3.03011   3.03253   3.03345   3.03569   3.03982
 Alpha virt. eigenvalues --    3.04150   3.04456   3.04537   3.04764   3.05063
 Alpha virt. eigenvalues --    3.05199   3.05314   3.05669   3.06180   3.06533
 Alpha virt. eigenvalues --    3.06896   3.07324   3.08120   3.08233   3.09484
 Alpha virt. eigenvalues --    3.09685   3.09883   3.10456   3.10636   3.11038
 Alpha virt. eigenvalues --    3.11317   3.11775   3.11900   3.11986   3.12569
 Alpha virt. eigenvalues --    3.13055   3.13385   3.13644   3.13972   3.14011
 Alpha virt. eigenvalues --    3.14312   3.15015   3.15901   3.16364   3.17359
 Alpha virt. eigenvalues --    3.18017   3.18104   3.18221   3.19159   3.19420
 Alpha virt. eigenvalues --    3.22599   3.23168   3.24027   3.24889   3.24948
 Alpha virt. eigenvalues --    3.25881   3.26563   3.27065   3.27678   3.27824
 Alpha virt. eigenvalues --    3.29386   3.29826   3.31602   3.31828   3.33450
 Alpha virt. eigenvalues --    3.33532   3.40705   3.41237   3.42847   3.43126
 Alpha virt. eigenvalues --    3.48802   3.49276   3.50050   3.50640   3.51193
 Alpha virt. eigenvalues --    3.51506   3.56595   3.57392   3.59116   3.59675
 Alpha virt. eigenvalues --    3.62966   3.63012   3.66226   3.66402   3.67731
 Alpha virt. eigenvalues --    3.68045   3.73809   3.74713   3.76466   3.78134
          Condensed to atoms (all electrons):
 Mulliken charges:
               1
     1  Mg   0.838472
     2  C   -0.003734
     3  C   -0.094807
     4  C   -0.045671
     5  C   -0.065608
     6  N   -0.256316
     7  C   -0.053657
     8  C   -0.013201
     9  C   -0.086841
    10  C    0.045535
    11  C    0.104826
    12  C    0.051875
    13  C   -0.071126
    14  H    0.035003
    15  N   -0.433196
    16  C    0.168081
    17  C   -0.177617
    18  C   -0.004049
    19  C    0.148936
    20  C    0.110309
    21  C    0.012620
    22  O   -0.249566
    23  C    0.062502
    24  N   -0.340972
    25  C    0.041104
    26  C   -0.028423
    27  C   -0.023839
    28  C    0.075232
    29  C    0.076100
    30  C    0.036087
    31  C   -0.009559
    32  N   -0.310558
    33  C    0.078777
    34  C   -0.171473
    35  C    0.010560
    36  C    0.083630
    37  C    0.126338
    38  C    0.052118
    39  O   -0.183333
    40  C   -0.008021
    41  C    0.216031
    42  O   -0.248065
    43  O   -0.306092
    44  C    0.154998
    45  H   -0.017941
    46  H   -0.017005
    47  H   -0.041864
    48  H    0.001824
    49  H   -0.004937
    50  H    0.025888
    51  H    0.016642
    52  H    0.016438
    53  H    0.009784
    54  H    0.044044
    55  H    0.019100
    56  H    0.016811
    57  H    0.005285
    58  H    0.026887
    59  H    0.038507
    60  H    0.037081
    61  H    0.036007
    62  H    0.031071
    63  H    0.016112
    64  H    0.009944
    65  H    0.023231
    66  H    0.012902
    67  H    0.004816
    68  H    0.006410
    69  H    0.004282
    70  H    0.009643
    71  H    0.016518
    72  H    0.031960
    73  H    0.050986
    74  H    0.007800
    75  H    0.046115
    76  H    0.034767
    77  H    0.042560
    78  H    0.043524
    79  H    0.060115
    80  Mg   0.834848
    81  C   -0.016581
    82  C   -0.088258
    83  C   -0.046152
    84  C   -0.067389
    85  N   -0.253747
    86  C   -0.050656
    87  C   -0.014075
    88  C   -0.090767
    89  C    0.044524
    90  C    0.113481
    91  C    0.062852
    92  C   -0.076726
    93  H    0.033926
    94  N   -0.423206
    95  C    0.161679
    96  C   -0.176098
    97  C   -0.008792
    98  C    0.151350
    99  C    0.099983
   100  C    0.014732
   101  O   -0.254275
   102  C    0.061567
   103  N   -0.350641
   104  C    0.037578
   105  C   -0.020211
   106  C   -0.035575
   107  C    0.090311
   108  C    0.073456
   109  C    0.034623
   110  C   -0.007135
   111  N   -0.324731
   112  C    0.078422
   113  C   -0.164278
   114  C    0.005136
   115  C    0.093418
   116  C    0.130456
   117  C    0.053342
   118  O   -0.175505
   119  C    0.000031
   120  C    0.209322
   121  O   -0.253450
   122  O   -0.303489
   123  C    0.152657
   124  H   -0.022115
   125  H   -0.016556
   126  H   -0.041795
   127  H   -0.000318
   128  H   -0.005778
   129  H    0.024000
   130  H    0.013521
   131  H    0.012695
   132  H    0.013530
   133  H    0.038234
   134  H    0.019022
   135  H    0.018620
   136  H    0.007192
   137  H    0.024264
   138  H    0.038546
   139  H    0.037390
   140  H    0.035310
   141  H    0.033352
   142  H    0.013482
   143  H    0.013158
   144  H    0.024085
   145  H    0.013110
   146  H    0.005220
   147  H    0.005302
   148  H    0.002005
   149  H    0.010785
   150  H    0.017099
   151  H    0.030882
   152  H    0.046360
   153  H    0.004278
   154  H    0.051693
   155  H    0.048005
   156  H    0.040360
   157  H    0.047227
   158  H    0.053165
 Sum of Mulliken charges =  -0.00000
 Mulliken charges with hydrogens summed into heavy atoms:
               1
     1  Mg   0.838472
     2  C   -0.003734
     3  C   -0.112748
     4  C   -0.062677
     5  C   -0.107472
     6  N   -0.256316
     7  C   -0.053657
     8  C   -0.011378
     9  C   -0.091777
    10  C    0.045535
    11  C    0.163794
    12  C    0.105703
    13  C   -0.000212
    15  N   -0.433196
    16  C    0.168081
    17  C   -0.177617
    18  C   -0.004049
    19  C    0.148936
    20  C    0.180988
    21  C    0.012620
    22  O   -0.249566
    23  C    0.166661
    24  N   -0.340972
    25  C    0.041104
    26  C   -0.012311
    27  C   -0.013895
    28  C    0.075232
    29  C    0.117050
    30  C    0.046779
    31  C    0.048562
    32  N   -0.310558
    33  C    0.078777
    34  C   -0.171473
    35  C    0.010560
    36  C    0.083630
    37  C    0.231239
    38  C    0.052118
    39  O   -0.183333
    40  C    0.026745
    41  C    0.216031
    42  O   -0.248065
    43  O   -0.306092
    44  C    0.301197
    80  Mg   0.834848
    81  C   -0.016581
    82  C   -0.110373
    83  C   -0.062708
    84  C   -0.109184
    85  N   -0.253747
    86  C   -0.050656
    87  C   -0.014393
    88  C   -0.096545
    89  C    0.044524
    90  C    0.163698
    91  C    0.114617
    92  C   -0.005158
    94  N   -0.423206
    95  C    0.161679
    96  C   -0.176098
    97  C   -0.008792
    98  C    0.151350
    99  C    0.169985
   100  C    0.014732
   101  O   -0.254275
   102  C    0.167618
   103  N   -0.350641
   104  C    0.037578
   105  C   -0.006729
   106  C   -0.022417
   107  C    0.090311
   108  C    0.115870
   109  C    0.041929
   110  C    0.051630
   111  N   -0.324731
   112  C    0.078422
   113  C   -0.164278
   114  C    0.005136
   115  C    0.093418
   116  C    0.232787
   117  C    0.053342
   118  O   -0.175505
   119  C    0.048036
   120  C    0.209322
   121  O   -0.253450
   122  O   -0.303489
   123  C    0.293409
 Electronic spatial extent (au):  <R**2>=          85511.3000
 Charge=             -0.0000 electrons
 Dipole moment (field-independent basis, Debye):
    X=              1.3802    Y=             -1.2311    Z=              7.8638  Tot=              8.0784
 Quadrupole moment (field-independent basis, Debye-Ang):
   XX=           -519.5363   YY=           -520.1919   ZZ=           -466.5433
   XY=            -22.6080   XZ=              9.4137   YZ=             53.9591
 Traceless Quadrupole moment (field-independent basis, Debye-Ang):
   XX=            -17.4458   YY=            -18.1014   ZZ=             35.5472
   XY=            -22.6080   XZ=              9.4137   YZ=             53.9591
 Octapole moment (field-independent basis, Debye-Ang**2):
  XXX=            129.3434  YYY=            391.1310  ZZZ=            133.3047  XYY=            121.4694
  XXY=            107.5538  XXZ=            239.2134  XZZ=            -55.0673  YZZ=           -185.1453
  YYZ=             39.1457  XYZ=             27.9642
 Hexadecapole moment (field-independent basis, Debye-Ang**3):
 XXXX=         -55518.0820 YYYY=         -37808.3066 ZZZZ=         -22060.7204 XXXY=          -1340.9520
 XXXZ=           -447.2251 YYYX=            624.2372 YYYZ=           1139.3192 ZZZX=            176.3386
 ZZZY=           -151.3450 XXYY=         -16073.0553 XXZZ=         -12086.6200 YYZZ=         -10404.0723
 XXYZ=            672.5468 YYXZ=             43.0651 ZZXY=           -204.8588
 N-N= 1.616205548056D+04 E-N=-4.180622143610D+04  KE= 4.028783586088D+03
 Leave Link  601 at Thu Sep  9 05:58:44 2021, MaxMem= 23488102400 cpu:              17.6 elap:               0.9
 (Enter /sw/apps/gaussian-16.0/g16/l9999.exe)
 1\1\GINC-BP1-COMPUTE00106\SP\RCAM-B3LYP TD-FC\def2SVP\C68H72Mg2N8O8\OF
 15641\09-Sep-2021\0\\#p cam-b3lyp/Def2SVP td=(nstates=5)\\TDDFT excite
 d states in gaussian\\0,1\Mg,0,0.,0.,0.\C,0,-0.217,-2.218,2.801\C,0,-1
 .255,2.442,2.026\C,0,-0.245,1.85,-2.564\C,0,0.146,-2.824,-2.037\N,0,-0
 .617,-0.009,2.126\C,0,-0.594,-0.908,3.105\C,0,-0.936,-0.309,4.502\C,0,
 -1.773,0.964,4.032\C,0,-1.155,1.168,2.66\C,0,-3.263,0.685,3.863\C,0,0.
 345,0.11,5.299\C,0,0.124,0.397,6.787\H,0,1.168,0.033,7.733\N,0,-0.185,
 1.961,-0.152\C,0,-0.703,2.8,0.777\C,0,-0.62,4.156,0.193\C,0,-0.187,4.0
 15,-1.225\C,0,-0.214,2.583,-1.38\C,0,-0.887,5.406,0.974\C,0,0.181,5.01
 3,-2.277\O,0,0.303,4.69,-3.508\C,0,0.31,6.414,-1.837\N,0,-0.265,-0.413
 ,-2.029\C,0,-0.279,0.569,-2.937\C,0,-0.196,0.024,-4.332\C,0,0.124,-1.5
 33,-4.18\C,0,0.086,-1.632,-2.635\C,0,-1.451,0.205,-5.197\C,0,1.373,-2.
 07,-4.923\C,0,2.626,-1.49,-4.306\N,0,0.15,-2.144,0.303\C,0,0.173,-3.13
 6,-0.688\C,0,0.173,-4.438,0.004\C,0,0.133,-4.111,1.358\C,0,0.083,-2.69
 5,1.502\C,0,0.149,-5.715,-0.623\C,0,0.096,-4.629,2.716\O,0,0.208,-5.74
 7,3.221\C,0,-0.255,-3.428,3.701\C,0,0.717,-3.482,4.848\O,0,1.931,-3.25
 5,4.669\O,0,0.038,-3.556,6.003\C,0,0.943,-3.583,7.183\H,0,-1.859,3.22,
 2.497\H,0,-0.218,2.453,-3.474\H,0,0.276,-3.747,-2.605\H,0,-1.554,-0.94
 9,5.132\H,0,-1.585,1.831,4.665\H,0,-3.484,-0.377,3.969\H,0,-3.511,1.02
 7,2.858\H,0,-3.852,1.301,4.543\H,0,0.669,1.096,4.966\H,0,1.13,-0.639,5
 .189\H,0,-0.844,0.026,7.125\H,0,0.062,1.477,6.921\H,0,-1.344,5.186,1.9
 38\H,0,-1.651,5.963,0.432\H,0,0.007,6.02,1.084\H,0,-0.635,6.744,-1.405
 \H,0,0.665,6.97,-2.704\H,0,1.048,6.466,-1.036\H,0,0.608,0.501,-4.891\H
 ,0,-0.692,-2.156,-4.547\H,0,-1.267,0.74,-6.129\H,0,-2.204,0.714,-4.596
 \H,0,-1.967,-0.72,-5.453\H,0,1.356,-1.759,-5.967\H,0,1.452,-3.157,-4.9
 02\H,0,2.714,-0.522,-4.798\H,0,3.487,-2.121,-4.529\H,0,2.495,-1.303,-3
 .24\H,0,0.867,-6.333,-0.084\H,0,0.404,-5.642,-1.68\H,0,-0.891,-5.999,-
 0.463\H,0,-1.283,-3.581,4.028\H,0,0.698,-4.478,7.755\H,0,0.833,-2.619,
 7.68\H,0,2.,-3.754,6.976\Mg,0,7.89064,0.71074,0.60625\C,0,6.46671,-1.2
 0833,3.28368\C,0,7.85006,3.39619,2.70894\C,0,8.72046,2.52782,-1.85891\
 C,0,6.7736,-1.76533,-1.5771\N,0,7.22164,0.93897,2.7021\C,0,6.75535,0.1
 2603,3.63808\C,0,6.66464,0.75877,5.05264\C,0,6.56973,2.30236,4.61997\C
 ,0,7.28839,2.22373,3.2746\C,0,5.14554,2.77195,4.37398\C,0,7.94607,0.48
 161,5.9147\C,0,7.80092,0.80205,7.40399\H,0,8.49036,-0.04932,8.36955\N,
 0,8.68735,2.52782,0.56084\C,0,8.59097,3.48252,1.5098\C,0,9.33284,4.642
 01,0.99078\C,0,9.73554,4.35152,-0.41213\C,0,9.03004,3.10569,-0.6363\C,
 0,9.6636,5.83978,1.83303\C,0,10.60077,5.08156,-1.39428\O,0,10.62123,4.
 76793,-2.63688\C,0,11.35234,6.23396,-0.876\N,0,7.58339,0.53387,-1.4423
 3\C,0,8.09467,1.43582,-2.29848\C,0,7.98248,0.95724,-3.72634\C,0,7.5065
 2,-0.56665,-3.63254\C,0,7.33232,-0.68363,-2.10239\C,0,7.0154,1.73836,-
 4.61572\C,0,8.38227,-1.62351,-4.35971\C,0,9.72708,-1.73643,-3.67843\N,
 0,6.9809,-1.23931,0.80049\C,0,6.5702,-2.09678,-0.24362\C,0,5.9031,-3.2
 5667,0.38251\C,0,5.95195,-2.98028,1.75718\C,0,6.58552,-1.7264,1.97134\
 C,0,5.31205,-4.35044,-0.31064\C,0,5.60214,-3.45912,3.07514\O,0,5.12696
 ,-4.50203,3.52268\C,0,5.80694,-2.27392,4.11425\C,0,6.56879,-2.81575,5.
 2926\O,0,7.7421,-3.20647,5.16115\O,0,5.86658,-2.58243,6.41636\C,0,6.58
 658,-3.092,7.61376\H,0,7.67209,4.34939,3.20756\H,0,9.08447,3.06298,-2.
 73902\H,0,6.48514,-2.62647,-2.18366\H,0,5.78617,0.47717,5.62075\H,0,7.
 11811,2.94,5.30849\H,0,4.43936,1.95606,4.41613\H,0,5.14918,3.21864,3.3
 8834\H,0,4.8887,3.57679,5.06867\H,0,8.72468,1.2055,5.64177\H,0,8.27479
 ,-0.53224,5.79358\H,0,6.75287,0.94268,7.69513\H,0,8.26521,1.77219,7.59
 707\H,0,9.09462,5.84154,2.77092\H,0,9.29989,6.72068,1.29303\H,0,10.736
 24,5.94951,2.00645\H,0,10.65819,6.96028,-0.45996\H,0,11.97999,6.56972,
 -1.70376\H,0,11.98626,5.89495,-0.04905\H,0,8.94395,0.99512,-4.22358\H,
 0,6.50941,-0.71001,-4.0742\H,0,7.49446,2.15268,-5.52286\H,0,6.57147,2.
 52887,-4.02533\H,0,6.1419,1.18077,-4.94931\H,0,8.58037,-1.30893,-5.387
 3\H,0,7.9242,-2.60586,-4.40627\H,0,10.29559,-0.91042,-4.11615\H,0,10.1
 8991,-2.69575,-3.90101\H,0,9.64076,-1.54364,-2.60278\H,0,5.60672,-5.24
 849,0.21583\H,0,5.62639,-4.37783,-1.3519\H,0,4.25345,-4.09727,-0.20796
 \H,0,4.81781,-1.91206,4.39757\H,0,5.90425,-3.77381,8.13072\H,0,6.91706
 ,-2.1937,8.16838\H,0,7.44276,-3.73529,7.44769\\Version=ES64L-G16RevA.0
 3\State=1-A\HF=-4069.8108501\RMSD=6.248e-09\PG=C01 [X(C68H72Mg2N8O8)]\
 \@


 DEMOCRATS BUY MOST OF THE BOOKS THAT HAVE BEEN
 BANNED; REPUBLICANS FORM CENSORSHIP COMMITTEES AND
 READ THEM AS A GROUP.
 Job cpu time:       0 days 20 hours 13 minutes 37.0 seconds.
 Elapsed time:       0 days  0 hours 51 minutes 19.5 seconds.
 File lengths (MBytes):  RWF=  13225 Int=      0 D2E=      0 Chk=    574 Scr=      1
 Normal termination of Gaussian 16 at Thu Sep  9 05:58:44 2021.
