 Entering Gaussian System, Link 0=g16
 Initial command:
 /sw/apps/gaussian-16.0/g16/l1.exe "/tmp/Gau-54698.inp" -scrdir="/tmp/"
 Entering Link 1 = /sw/apps/gaussian-16.0/g16/l1.exe PID=     54699.
  
 Copyright (c) 1988,1990,1992,1993,1995,1998,2003,2009,2016,
            Gaussian, Inc.  All Rights Reserved.
  
 This is part of the Gaussian(R) 16 program.  It is based on
 the Gaussian(R) 09 system (copyright 2009, Gaussian, Inc.),
 the Gaussian(R) 03 system (copyright 2003, Gaussian, Inc.),
 the Gaussian(R) 98 system (copyright 1998, Gaussian, Inc.),
 the Gaussian(R) 94 system (copyright 1995, Gaussian, Inc.),
 the Gaussian 92(TM) system (copyright 1992, Gaussian, Inc.),
 the Gaussian 90(TM) system (copyright 1990, Gaussian, Inc.),
 the Gaussian 88(TM) system (copyright 1988, Gaussian, Inc.),
 the Gaussian 86(TM) system (copyright 1986, Carnegie Mellon
 University), and the Gaussian 82(TM) system (copyright 1983,
 Carnegie Mellon University). Gaussian is a federally registered
 trademark of Gaussian, Inc.
  
 This software contains proprietary and confidential information,
 including trade secrets, belonging to Gaussian, Inc.
  
 This software is provided under written license and may be
 used, copied, transmitted, or stored only in accord with that
 written license.
  
 The following legend is applicable only to US Government
 contracts under FAR:
  
                    RESTRICTED RIGHTS LEGEND
  
 Use, reproduction and disclosure by the US Government is
 subject to restrictions as set forth in subparagraphs (a)
 and (c) of the Commercial Computer Software - Restricted
 Rights clause in FAR 52.227-19.
  
 Gaussian, Inc.
 340 Quinnipiac St., Bldg. 40, Wallingford CT 06492
  
  
 ---------------------------------------------------------------
 Warning -- This program may not be used in any manner that
 competes with the business of Gaussian, Inc. or will provide
 assistance to any competitor of Gaussian, Inc.  The licensee
 of this program is prohibited from giving any competitor of
 Gaussian, Inc. access to this program.  By using this program,
 the user acknowledges that Gaussian, Inc. is engaged in the
 business of creating and licensing software in the field of
 computational chemistry and represents and warrants to the
 licensee that it is not a competitor of Gaussian, Inc. and that
 it will not use this program in any manner prohibited above.
 ---------------------------------------------------------------
  

 Cite this work as:
 Gaussian 16, Revision A.03,
 M. J. Frisch, G. W. Trucks, H. B. Schlegel, G. E. Scuseria, 
 M. A. Robb, J. R. Cheeseman, G. Scalmani, V. Barone, 
 G. A. Petersson, H. Nakatsuji, X. Li, M. Caricato, A. V. Marenich, 
 J. Bloino, B. G. Janesko, R. Gomperts, B. Mennucci, H. P. Hratchian, 
 J. V. Ortiz, A. F. Izmaylov, J. L. Sonnenberg, D. Williams-Young, 
 F. Ding, F. Lipparini, F. Egidi, J. Goings, B. Peng, A. Petrone, 
 T. Henderson, D. Ranasinghe, V. G. Zakrzewski, J. Gao, N. Rega, 
 G. Zheng, W. Liang, M. Hada, M. Ehara, K. Toyota, R. Fukuda, 
 J. Hasegawa, M. Ishida, T. Nakajima, Y. Honda, O. Kitao, H. Nakai, 
 T. Vreven, K. Throssell, J. A. Montgomery, Jr., J. E. Peralta, 
 F. Ogliaro, M. J. Bearpark, J. J. Heyd, E. N. Brothers, K. N. Kudin, 
 V. N. Staroverov, T. A. Keith, R. Kobayashi, J. Normand, 
 K. Raghavachari, A. P. Rendell, J. C. Burant, S. S. Iyengar, 
 J. Tomasi, M. Cossi, J. M. Millam, M. Klene, C. Adamo, R. Cammi, 
 J. W. Ochterski, R. L. Martin, K. Morokuma, O. Farkas, 
 J. B. Foresman, and D. J. Fox, Gaussian, Inc., Wallingford CT, 2016.
 
 ******************************************
 Gaussian 16:  ES64L-G16RevA.03 25-Dec-2016
                 9-Sep-2021 
 ******************************************
 %nproc=24
 Will use up to   24 processors via shared memory.
 %mem=175gb
 -----------------------------------
 #p cam-b3lyp/Def2SVP td=(nstates=5)
 -----------------------------------
 1/38=1,172=1/1;
 2/12=2,17=6,18=5,40=1/2;
 3/5=43,7=101,11=9,25=1,30=1,74=-40/1,2,3,8;
 4//1;
 5/5=2,38=5/2;
 8/6=1,10=1,108=5/1;
 9/41=5,42=1,70=2/14;
 6/7=2,8=2,9=2,10=2/1;
 99/5=1,9=1/99;
 Leave Link    1 at Thu Sep  9 22:26:34 2021, MaxMem= 23488102400 cpu:               0.9 elap:               0.0
 (Enter /sw/apps/gaussian-16.0/g16/l101.exe)
 --------------------------------
 TDDFT excited states in gaussian
 --------------------------------
 Symbolic Z-matrix:
 Charge =  0 Multiplicity = 1
 Mg                    0.        0.        0. 
 C                    -0.217    -2.218     2.801 
 C                    -1.255     2.442     2.026 
 C                    -0.245     1.85     -2.564 
 C                     0.146    -2.824    -2.037 
 N                    -0.617    -0.009     2.126 
 C                    -0.594    -0.908     3.105 
 C                    -0.936    -0.309     4.502 
 C                    -1.773     0.964     4.032 
 C                    -1.155     1.168     2.66 
 C                    -3.263     0.685     3.863 
 C                     0.345     0.11      5.299 
 C                     0.124     0.397     6.787 
 H                     1.168     0.033     7.733 
 N                    -0.185     1.961    -0.152 
 C                    -0.703     2.8       0.777 
 C                    -0.62      4.156     0.193 
 C                    -0.187     4.015    -1.225 
 C                    -0.214     2.583    -1.38 
 C                    -0.887     5.406     0.974 
 C                     0.181     5.013    -2.277 
 O                     0.303     4.69     -3.508 
 C                     0.31      6.414    -1.837 
 N                    -0.265    -0.413    -2.029 
 C                    -0.279     0.569    -2.937 
 C                    -0.196     0.024    -4.332 
 C                     0.124    -1.533    -4.18 
 C                     0.086    -1.632    -2.635 
 C                    -1.451     0.205    -5.197 
 C                     1.373    -2.07     -4.923 
 C                     2.626    -1.49     -4.306 
 N                     0.15     -2.144     0.303 
 C                     0.173    -3.136    -0.688 
 C                     0.173    -4.438     0.004 
 C                     0.133    -4.111     1.358 
 C                     0.083    -2.695     1.502 
 C                     0.149    -5.715    -0.623 
 C                     0.096    -4.629     2.716 
 O                     0.208    -5.747     3.221 
 C                    -0.255    -3.428     3.701 
 C                     0.717    -3.482     4.848 
 O                     1.931    -3.255     4.669 
 O                     0.038    -3.556     6.003 
 C                     0.943    -3.583     7.183 
 H                    -1.859     3.22      2.497 
 H                    -0.218     2.453    -3.474 
 H                     0.276    -3.747    -2.605 
 H                    -1.554    -0.949     5.132 
 H                    -1.585     1.831     4.665 
 H                    -3.484    -0.377     3.969 
 H                    -3.511     1.027     2.858 
 H                    -3.852     1.301     4.543 
 H                     0.669     1.096     4.966 
 H                     1.13     -0.639     5.189 
 H                    -0.844     0.026     7.125 
 H                     0.062     1.477     6.921 
 H                    -1.344     5.186     1.938 
 H                    -1.651     5.963     0.432 
 H                     0.007     6.02      1.084 
 H                    -0.635     6.744    -1.405 
 H                     0.665     6.97     -2.704 
 H                     1.048     6.466    -1.036 
 H                     0.608     0.501    -4.891 
 H                    -0.692    -2.156    -4.547 
 H                    -1.267     0.74     -6.129 
 H                    -2.204     0.714    -4.596 
 H                    -1.967    -0.72     -5.453 
 H                     1.356    -1.759    -5.967 
 H                     1.452    -3.157    -4.902 
 H                     2.714    -0.522    -4.798 
 H                     3.487    -2.121    -4.529 
 H                     2.495    -1.303    -3.24 
 H                     0.867    -6.333    -0.084 
 H                     0.404    -5.642    -1.68 
 H                    -0.891    -5.999    -0.463 
 H                    -1.283    -3.581     4.028 
 H                     0.698    -4.478     7.755 
 H                     0.833    -2.619     7.68 
 H                     2.       -3.754     6.976 
 Mg                    8.92684   0.80808   0.68529 
 C                     6.57255  -1.90049   0.68159 
 C                     6.42009   2.79142  -0.50515 
 C                     11.07974   3.09788   0.25024 
 C                     11.46351  -1.58024   0.7687 
 N                     6.81243   0.38484   0.19296 
 C                     6.01266  -0.66646   0.29029 
 C                     4.51377  -0.36094   0.02656 
 C                     4.69175   0.95704  -0.87351 
 C                     6.04216   1.43455  -0.34335 
 C                     4.83937   0.65791  -2.35609 
 C                     3.72525  -0.05223   1.34753 
 C                     2.20196  -0.04943   1.20146 
 H                     1.39523  -0.54495   2.31327 
 N                     8.69113   2.76444   0.44936 
 C                     7.60001   3.4012   -0.02529 
 C                     7.93648   4.83331  -0.02145 
 C                     9.37329   4.97661   0.33878 
 C                     9.78466   3.58706   0.3398 
 C                     6.91762   5.9092   -0.26186 
 C                     10.23749   6.16804   0.62141 
 O                     11.51447   6.07486   0.68018 
 C                     9.55148   7.46344   0.73469 
 N                     10.97278   0.76844   0.31798 
 C                     11.68012   1.9079    0.22192 
 C                     13.16457   1.63098   0.23251 
 C                     13.30993   0.08148   0.60063 
 C                     11.81611  -0.30718   0.65391 
 C                     13.90354   1.91464  -1.0751 
 C                     14.20938  -0.27158   1.81678 
 C                     13.57381   0.23265   3.09239 
 N                     9.03544  -1.33852   0.90518 
 C                     10.19781  -2.14016   0.88649 
 C                     9.75672  -3.54831   0.95713 
 C                     8.35633  -3.46848   0.98905 
 C                     7.95255  -2.10765   0.92128 
 C                     10.60813  -4.68882   0.93567 
 C                     7.12756  -4.22651   1.05395 
 O                     6.84662  -5.41365   1.21362 
 C                     5.91466  -3.25158   0.73021 
 C                     4.84924  -3.47512   1.7682 
 O                     5.05799  -3.18825   2.96015 
 O                     3.69295  -3.78393   1.15338 
 C                     2.60297  -4.00402   2.14096 
 H                     5.77253   3.44398  -1.09143 
 H                     11.86754   3.85371   0.21033 
 H                     12.19633  -2.37957   0.89797 
 H                     3.98606  -1.12441  -0.53237 
 H                     3.91752   1.68918  -0.65926 
 H                     4.91889  -0.40193  -2.5473 
 H                     5.74052   1.16779  -2.67076 
 H                     4.02103   1.1185   -2.91689 
 H                     3.88927   0.99683   1.62558 
 H                     4.01206  -0.72839   2.12931 
 H                     1.8775   -0.50523   0.25811 
 H                     1.86218   0.9866    1.12936 
 H                     5.98378   5.49644  -0.66309 
 H                     7.30414   6.54104  -1.06886 
 H                     6.74376   6.52933   0.62011 
 H                     9.01468   7.66973  -0.18821 
 H                     10.32328   8.1783    1.02654 
 H                     8.79855   7.39243   1.52758 
 H                     13.6626   2.22088   0.99217 
 H                     13.75497  -0.4934   -0.22477 
 H                     14.73901   2.63041  -0.95789 
 H                     13.18783   2.28083  -1.79913 
 H                     14.31012   1.03741  -1.57546 
 H                     15.17582   0.23131   1.7317 
 H                     14.40662  -1.33394   1.91415 
 H                     13.88116   1.28226   3.12309 
 H                     13.95387  -0.31522   3.9523 
 H                     12.48007   0.21135   3.02228 
 H                     10.23675  -5.36884   1.69075 
 H                     11.64456  -4.4148    1.12146 
 H                     10.45145  -5.02987  -0.09117 
 H                     5.56323  -3.48841  -0.27476 
 H                     2.1927   -4.99995   1.94732 
 H                     1.91604  -3.14482   2.02417 
 H                     2.88201  -4.0895    3.18465 
 
 ITRead=  0  0  0  0  0  0  0  0  0  0  0  0  0  0  0  0  0  0  0  0
 ITRead=  0  0  0  0  0  0  0  0  0  0  0  0  0  0  0  0  0  0  0  0
 ITRead=  0  0  0  0  0  0  0  0  0  0  0  0  0  0  0  0  0  0  0  0
 ITRead=  0  0  0  0  0  0  0  0  0  0  0  0  0  0  0  0  0  0  0  0
 ITRead=  0  0  0  0  0  0  0  0  0  0  0  0  0  0  0  0  0  0  0  0
 ITRead=  0  0  0  0  0  0  0  0  0  0  0  0  0  0  0  0  0  0  0  0
 ITRead=  0  0  0  0  0  0  0  0  0  0  0  0  0  0  0  0  0  0  0  0
 ITRead=  0  0  0  0  0  0  0  0  0  0  0  0  0  0  0  0  0  0
 MicOpt= -1 -1 -1 -1 -1 -1 -1 -1 -1 -1 -1 -1 -1 -1 -1 -1 -1 -1 -1 -1
 MicOpt= -1 -1 -1 -1 -1 -1 -1 -1 -1 -1 -1 -1 -1 -1 -1 -1 -1 -1 -1 -1
 MicOpt= -1 -1 -1 -1 -1 -1 -1 -1 -1 -1 -1 -1 -1 -1 -1 -1 -1 -1 -1 -1
 MicOpt= -1 -1 -1 -1 -1 -1 -1 -1 -1 -1 -1 -1 -1 -1 -1 -1 -1 -1 -1 -1
 MicOpt= -1 -1 -1 -1 -1 -1 -1 -1 -1 -1 -1 -1 -1 -1 -1 -1 -1 -1 -1 -1
 MicOpt= -1 -1 -1 -1 -1 -1 -1 -1 -1 -1 -1 -1 -1 -1 -1 -1 -1 -1 -1 -1
 MicOpt= -1 -1 -1 -1 -1 -1 -1 -1 -1 -1 -1 -1 -1 -1 -1 -1 -1 -1 -1 -1
 MicOpt= -1 -1 -1 -1 -1 -1 -1 -1 -1 -1 -1 -1 -1 -1 -1 -1 -1 -1
 NAtoms=    158 NQM=      158 NQMF=       0 NMMI=      0 NMMIF=      0
                NMic=       0 NMicF=      0.
                    Isotopes and Nuclear Properties:
 (Nuclear quadrupole moments (NQMom) in fm**2, nuclear magnetic moments (NMagM)
  in nuclear magnetons)

  Atom         1           2           3           4           5           6           7           8           9          10
 IAtWgt=          24          12          12          12          12          14          12          12          12          12
 AtmWgt=  23.9850450  12.0000000  12.0000000  12.0000000  12.0000000  14.0030740  12.0000000  12.0000000  12.0000000  12.0000000
 NucSpn=           0           0           0           0           0           2           0           0           0           0
 AtZEff=  -0.0000000  -0.0000000  -0.0000000  -0.0000000  -0.0000000  -0.0000000  -0.0000000  -0.0000000  -0.0000000  -0.0000000
 NQMom=    0.0000000   0.0000000   0.0000000   0.0000000   0.0000000   2.0440000   0.0000000   0.0000000   0.0000000   0.0000000
 NMagM=    0.0000000   0.0000000   0.0000000   0.0000000   0.0000000   0.4037610   0.0000000   0.0000000   0.0000000   0.0000000
 AtZNuc=  12.0000000   6.0000000   6.0000000   6.0000000   6.0000000   7.0000000   6.0000000   6.0000000   6.0000000   6.0000000

  Atom        11          12          13          14          15          16          17          18          19          20
 IAtWgt=          12          12          12           1          14          12          12          12          12          12
 AtmWgt=  12.0000000  12.0000000  12.0000000   1.0078250  14.0030740  12.0000000  12.0000000  12.0000000  12.0000000  12.0000000
 NucSpn=           0           0           0           1           2           0           0           0           0           0
 AtZEff=  -0.0000000  -0.0000000  -0.0000000  -0.0000000  -0.0000000  -0.0000000  -0.0000000  -0.0000000  -0.0000000  -0.0000000
 NQMom=    0.0000000   0.0000000   0.0000000   0.0000000   2.0440000   0.0000000   0.0000000   0.0000000   0.0000000   0.0000000
 NMagM=    0.0000000   0.0000000   0.0000000   2.7928460   0.4037610   0.0000000   0.0000000   0.0000000   0.0000000   0.0000000
 AtZNuc=   6.0000000   6.0000000   6.0000000   1.0000000   7.0000000   6.0000000   6.0000000   6.0000000   6.0000000   6.0000000

  Atom        21          22          23          24          25          26          27          28          29          30
 IAtWgt=          12          16          12          14          12          12          12          12          12          12
 AtmWgt=  12.0000000  15.9949146  12.0000000  14.0030740  12.0000000  12.0000000  12.0000000  12.0000000  12.0000000  12.0000000
 NucSpn=           0           0           0           2           0           0           0           0           0           0
 AtZEff=  -0.0000000  -0.0000000  -0.0000000  -0.0000000  -0.0000000  -0.0000000  -0.0000000  -0.0000000  -0.0000000  -0.0000000
 NQMom=    0.0000000   0.0000000   0.0000000   2.0440000   0.0000000   0.0000000   0.0000000   0.0000000   0.0000000   0.0000000
 NMagM=    0.0000000   0.0000000   0.0000000   0.4037610   0.0000000   0.0000000   0.0000000   0.0000000   0.0000000   0.0000000
 AtZNuc=   6.0000000   8.0000000   6.0000000   7.0000000   6.0000000   6.0000000   6.0000000   6.0000000   6.0000000   6.0000000

  Atom        31          32          33          34          35          36          37          38          39          40
 IAtWgt=          12          14          12          12          12          12          12          12          16          12
 AtmWgt=  12.0000000  14.0030740  12.0000000  12.0000000  12.0000000  12.0000000  12.0000000  12.0000000  15.9949146  12.0000000
 NucSpn=           0           2           0           0           0           0           0           0           0           0
 AtZEff=  -0.0000000  -0.0000000  -0.0000000  -0.0000000  -0.0000000  -0.0000000  -0.0000000  -0.0000000  -0.0000000  -0.0000000
 NQMom=    0.0000000   2.0440000   0.0000000   0.0000000   0.0000000   0.0000000   0.0000000   0.0000000   0.0000000   0.0000000
 NMagM=    0.0000000   0.4037610   0.0000000   0.0000000   0.0000000   0.0000000   0.0000000   0.0000000   0.0000000   0.0000000
 AtZNuc=   6.0000000   7.0000000   6.0000000   6.0000000   6.0000000   6.0000000   6.0000000   6.0000000   8.0000000   6.0000000

  Atom        41          42          43          44          45          46          47          48          49          50
 IAtWgt=          12          16          16          12           1           1           1           1           1           1
 AtmWgt=  12.0000000  15.9949146  15.9949146  12.0000000   1.0078250   1.0078250   1.0078250   1.0078250   1.0078250   1.0078250
 NucSpn=           0           0           0           0           1           1           1           1           1           1
 AtZEff=  -0.0000000  -0.0000000  -0.0000000  -0.0000000  -0.0000000  -0.0000000  -0.0000000  -0.0000000  -0.0000000  -0.0000000
 NQMom=    0.0000000   0.0000000   0.0000000   0.0000000   0.0000000   0.0000000   0.0000000   0.0000000   0.0000000   0.0000000
 NMagM=    0.0000000   0.0000000   0.0000000   0.0000000   2.7928460   2.7928460   2.7928460   2.7928460   2.7928460   2.7928460
 AtZNuc=   6.0000000   8.0000000   8.0000000   6.0000000   1.0000000   1.0000000   1.0000000   1.0000000   1.0000000   1.0000000

  Atom        51          52          53          54          55          56          57          58          59          60
 IAtWgt=           1           1           1           1           1           1           1           1           1           1
 AtmWgt=   1.0078250   1.0078250   1.0078250   1.0078250   1.0078250   1.0078250   1.0078250   1.0078250   1.0078250   1.0078250
 NucSpn=           1           1           1           1           1           1           1           1           1           1
 AtZEff=  -0.0000000  -0.0000000  -0.0000000  -0.0000000  -0.0000000  -0.0000000  -0.0000000  -0.0000000  -0.0000000  -0.0000000
 NQMom=    0.0000000   0.0000000   0.0000000   0.0000000   0.0000000   0.0000000   0.0000000   0.0000000   0.0000000   0.0000000
 NMagM=    2.7928460   2.7928460   2.7928460   2.7928460   2.7928460   2.7928460   2.7928460   2.7928460   2.7928460   2.7928460
 AtZNuc=   1.0000000   1.0000000   1.0000000   1.0000000   1.0000000   1.0000000   1.0000000   1.0000000   1.0000000   1.0000000

  Atom        61          62          63          64          65          66          67          68          69          70
 IAtWgt=           1           1           1           1           1           1           1           1           1           1
 AtmWgt=   1.0078250   1.0078250   1.0078250   1.0078250   1.0078250   1.0078250   1.0078250   1.0078250   1.0078250   1.0078250
 NucSpn=           1           1           1           1           1           1           1           1           1           1
 AtZEff=  -0.0000000  -0.0000000  -0.0000000  -0.0000000  -0.0000000  -0.0000000  -0.0000000  -0.0000000  -0.0000000  -0.0000000
 NQMom=    0.0000000   0.0000000   0.0000000   0.0000000   0.0000000   0.0000000   0.0000000   0.0000000   0.0000000   0.0000000
 NMagM=    2.7928460   2.7928460   2.7928460   2.7928460   2.7928460   2.7928460   2.7928460   2.7928460   2.7928460   2.7928460
 AtZNuc=   1.0000000   1.0000000   1.0000000   1.0000000   1.0000000   1.0000000   1.0000000   1.0000000   1.0000000   1.0000000

  Atom        71          72          73          74          75          76          77          78          79          80
 IAtWgt=           1           1           1           1           1           1           1           1           1          24
 AtmWgt=   1.0078250   1.0078250   1.0078250   1.0078250   1.0078250   1.0078250   1.0078250   1.0078250   1.0078250  23.9850450
 NucSpn=           1           1           1           1           1           1           1           1           1           0
 AtZEff=  -0.0000000  -0.0000000  -0.0000000  -0.0000000  -0.0000000  -0.0000000  -0.0000000  -0.0000000  -0.0000000  -0.0000000
 NQMom=    0.0000000   0.0000000   0.0000000   0.0000000   0.0000000   0.0000000   0.0000000   0.0000000   0.0000000   0.0000000
 NMagM=    2.7928460   2.7928460   2.7928460   2.7928460   2.7928460   2.7928460   2.7928460   2.7928460   2.7928460   0.0000000
 AtZNuc=   1.0000000   1.0000000   1.0000000   1.0000000   1.0000000   1.0000000   1.0000000   1.0000000   1.0000000  12.0000000

  Atom        81          82          83          84          85          86          87          88          89          90
 IAtWgt=          12          12          12          12          14          12          12          12          12          12
 AtmWgt=  12.0000000  12.0000000  12.0000000  12.0000000  14.0030740  12.0000000  12.0000000  12.0000000  12.0000000  12.0000000
 NucSpn=           0           0           0           0           2           0           0           0           0           0
 AtZEff=  -0.0000000  -0.0000000  -0.0000000  -0.0000000  -0.0000000  -0.0000000  -0.0000000  -0.0000000  -0.0000000  -0.0000000
 NQMom=    0.0000000   0.0000000   0.0000000   0.0000000   2.0440000   0.0000000   0.0000000   0.0000000   0.0000000   0.0000000
 NMagM=    0.0000000   0.0000000   0.0000000   0.0000000   0.4037610   0.0000000   0.0000000   0.0000000   0.0000000   0.0000000
 AtZNuc=   6.0000000   6.0000000   6.0000000   6.0000000   7.0000000   6.0000000   6.0000000   6.0000000   6.0000000   6.0000000

  Atom        91          92          93          94          95          96          97          98          99         100
 IAtWgt=          12          12           1          14          12          12          12          12          12          12
 AtmWgt=  12.0000000  12.0000000   1.0078250  14.0030740  12.0000000  12.0000000  12.0000000  12.0000000  12.0000000  12.0000000
 NucSpn=           0           0           1           2           0           0           0           0           0           0
 AtZEff=  -0.0000000  -0.0000000  -0.0000000  -0.0000000  -0.0000000  -0.0000000  -0.0000000  -0.0000000  -0.0000000  -0.0000000
 NQMom=    0.0000000   0.0000000   0.0000000   2.0440000   0.0000000   0.0000000   0.0000000   0.0000000   0.0000000   0.0000000
 NMagM=    0.0000000   0.0000000   2.7928460   0.4037610   0.0000000   0.0000000   0.0000000   0.0000000   0.0000000   0.0000000
 AtZNuc=   6.0000000   6.0000000   1.0000000   7.0000000   6.0000000   6.0000000   6.0000000   6.0000000   6.0000000   6.0000000

  Atom       101         102         103         104         105         106         107         108         109         110
 IAtWgt=          16          12          14          12          12          12          12          12          12          12
 AtmWgt=  15.9949146  12.0000000  14.0030740  12.0000000  12.0000000  12.0000000  12.0000000  12.0000000  12.0000000  12.0000000
 NucSpn=           0           0           2           0           0           0           0           0           0           0
 AtZEff=  -0.0000000  -0.0000000  -0.0000000  -0.0000000  -0.0000000  -0.0000000  -0.0000000  -0.0000000  -0.0000000  -0.0000000
 NQMom=    0.0000000   0.0000000   2.0440000   0.0000000   0.0000000   0.0000000   0.0000000   0.0000000   0.0000000   0.0000000
 NMagM=    0.0000000   0.0000000   0.4037610   0.0000000   0.0000000   0.0000000   0.0000000   0.0000000   0.0000000   0.0000000
 AtZNuc=   8.0000000   6.0000000   7.0000000   6.0000000   6.0000000   6.0000000   6.0000000   6.0000000   6.0000000   6.0000000

  Atom       111         112         113         114         115         116         117         118         119         120
 IAtWgt=          14          12          12          12          12          12          12          16          12          12
 AtmWgt=  14.0030740  12.0000000  12.0000000  12.0000000  12.0000000  12.0000000  12.0000000  15.9949146  12.0000000  12.0000000
 NucSpn=           2           0           0           0           0           0           0           0           0           0
 AtZEff=  -0.0000000  -0.0000000  -0.0000000  -0.0000000  -0.0000000  -0.0000000  -0.0000000  -0.0000000  -0.0000000  -0.0000000
 NQMom=    2.0440000   0.0000000   0.0000000   0.0000000   0.0000000   0.0000000   0.0000000   0.0000000   0.0000000   0.0000000
 NMagM=    0.4037610   0.0000000   0.0000000   0.0000000   0.0000000   0.0000000   0.0000000   0.0000000   0.0000000   0.0000000
 AtZNuc=   7.0000000   6.0000000   6.0000000   6.0000000   6.0000000   6.0000000   6.0000000   8.0000000   6.0000000   6.0000000

  Atom       121         122         123         124         125         126         127         128         129         130
 IAtWgt=          16          16          12           1           1           1           1           1           1           1
 AtmWgt=  15.9949146  15.9949146  12.0000000   1.0078250   1.0078250   1.0078250   1.0078250   1.0078250   1.0078250   1.0078250
 NucSpn=           0           0           0           1           1           1           1           1           1           1
 AtZEff=  -0.0000000  -0.0000000  -0.0000000  -0.0000000  -0.0000000  -0.0000000  -0.0000000  -0.0000000  -0.0000000  -0.0000000
 NQMom=    0.0000000   0.0000000   0.0000000   0.0000000   0.0000000   0.0000000   0.0000000   0.0000000   0.0000000   0.0000000
 NMagM=    0.0000000   0.0000000   0.0000000   2.7928460   2.7928460   2.7928460   2.7928460   2.7928460   2.7928460   2.7928460
 AtZNuc=   8.0000000   8.0000000   6.0000000   1.0000000   1.0000000   1.0000000   1.0000000   1.0000000   1.0000000   1.0000000

  Atom       131         132         133         134         135         136         137         138         139         140
 IAtWgt=           1           1           1           1           1           1           1           1           1           1
 AtmWgt=   1.0078250   1.0078250   1.0078250   1.0078250   1.0078250   1.0078250   1.0078250   1.0078250   1.0078250   1.0078250
 NucSpn=           1           1           1           1           1           1           1           1           1           1
 AtZEff=  -0.0000000  -0.0000000  -0.0000000  -0.0000000  -0.0000000  -0.0000000  -0.0000000  -0.0000000  -0.0000000  -0.0000000
 NQMom=    0.0000000   0.0000000   0.0000000   0.0000000   0.0000000   0.0000000   0.0000000   0.0000000   0.0000000   0.0000000
 NMagM=    2.7928460   2.7928460   2.7928460   2.7928460   2.7928460   2.7928460   2.7928460   2.7928460   2.7928460   2.7928460
 AtZNuc=   1.0000000   1.0000000   1.0000000   1.0000000   1.0000000   1.0000000   1.0000000   1.0000000   1.0000000   1.0000000

  Atom       141         142         143         144         145         146         147         148         149         150
 IAtWgt=           1           1           1           1           1           1           1           1           1           1
 AtmWgt=   1.0078250   1.0078250   1.0078250   1.0078250   1.0078250   1.0078250   1.0078250   1.0078250   1.0078250   1.0078250
 NucSpn=           1           1           1           1           1           1           1           1           1           1
 AtZEff=  -0.0000000  -0.0000000  -0.0000000  -0.0000000  -0.0000000  -0.0000000  -0.0000000  -0.0000000  -0.0000000  -0.0000000
 NQMom=    0.0000000   0.0000000   0.0000000   0.0000000   0.0000000   0.0000000   0.0000000   0.0000000   0.0000000   0.0000000
 NMagM=    2.7928460   2.7928460   2.7928460   2.7928460   2.7928460   2.7928460   2.7928460   2.7928460   2.7928460   2.7928460
 AtZNuc=   1.0000000   1.0000000   1.0000000   1.0000000   1.0000000   1.0000000   1.0000000   1.0000000   1.0000000   1.0000000

  Atom       151         152         153         154         155         156         157         158
 IAtWgt=           1           1           1           1           1           1           1           1
 AtmWgt=   1.0078250   1.0078250   1.0078250   1.0078250   1.0078250   1.0078250   1.0078250   1.0078250
 NucSpn=           1           1           1           1           1           1           1           1
 AtZEff=  -0.0000000  -0.0000000  -0.0000000  -0.0000000  -0.0000000  -0.0000000  -0.0000000  -0.0000000
 NQMom=    0.0000000   0.0000000   0.0000000   0.0000000   0.0000000   0.0000000   0.0000000   0.0000000
 NMagM=    2.7928460   2.7928460   2.7928460   2.7928460   2.7928460   2.7928460   2.7928460   2.7928460
 AtZNuc=   1.0000000   1.0000000   1.0000000   1.0000000   1.0000000   1.0000000   1.0000000   1.0000000
 Leave Link  101 at Thu Sep  9 22:26:35 2021, MaxMem= 23488102400 cpu:               3.8 elap:               0.2
 (Enter /sw/apps/gaussian-16.0/g16/l202.exe)
 Stoichiometry    C68H72Mg2N8O8
 Framework group  C1[X(C68H72Mg2N8O8)]
 Deg. of freedom   468
 Full point group                 C1      NOp   1
 Largest Abelian subgroup         C1      NOp   1
 Largest concise Abelian subgroup C1      NOp   1
                         Standard orientation:                         
 ---------------------------------------------------------------------
 Center     Atomic      Atomic             Coordinates (Angstroms)
 Number     Number       Type             X           Y           Z
 ---------------------------------------------------------------------
      1         12           0        4.008042    1.055527    0.408900
      2          6           0        4.732178   -2.049556   -1.217845
      3          6           0        4.879494    2.611778   -2.500003
      4          6           0        3.813757    3.817339    1.955274
      5          6           0        4.295071   -0.636208    3.442266
      6          7           0        4.699476    0.271816   -1.542602
      7          6           0        4.877808   -0.941548   -2.055552
      8          6           0        5.160468   -0.929184   -3.587650
      9          6           0        5.734465    0.551844   -3.725784
     10          6           0        5.036397    1.194457   -2.540173
     11          6           0        7.242551    0.642795   -3.516245
     12          6           0        3.857120   -1.119744   -4.434234
     13          6           0        4.080838   -1.445086   -5.913915
     14          1           0        3.157786   -2.352448   -6.578759
     15          7           0        3.829409    2.898983   -0.278567
     16          6           0        4.223278    3.352149   -1.492978
     17          6           0        3.873673    4.788614   -1.525006
     18          6           0        3.417970    5.176524   -0.161204
     19          6           0        3.697270    3.970602    0.575764
     20          6           0        3.940771    5.624301   -2.766326
     21          6           0        2.834625    6.437951    0.392549
     22          8           0        2.724794    6.641865    1.649900
     23          6           0        2.471876    7.478936   -0.586126
     24          7           0        4.263476    1.582092    2.412676
     25          6           0        4.064084    2.838134    2.826904
     26          6           0        4.026271    2.919782    4.324183
     27          6           0        3.999206    1.411798    4.848591
     28          6           0        4.115094    0.685836    3.485573
     29          6           0        5.192941    3.668435    4.983281
     30          6           0        2.839663    1.018070    5.797726
     31          6           0        1.527664    1.051069    5.046283
     32          7           0        4.260077   -1.007612    1.034186
     33          6           0        4.377889   -1.481839    2.348683
     34          6           0        4.640405   -2.930250    2.263486
     35          6           0        4.673756   -3.196723    0.896107
     36          6           0        4.472587   -1.986564    0.172685
     37          6           0        4.870211   -3.801717    3.364471
     38          6           0        4.857059   -4.218039   -0.122308
     39          8           0        4.968907   -5.444754   -0.109939
     40          6           0        5.023573   -3.495952   -1.531808
     41          6           0        4.123132   -4.198070   -2.511372
     42          8           0        2.882022   -4.140319   -2.394422
     43          8           0        4.849130   -4.623341   -3.556654
     44          6           0        4.010948   -5.303087   -4.580153
     45          1           0        5.350927    3.217232   -3.276609
     46          1           0        3.642502    4.729243    2.531068
     47          1           0        4.311861   -1.244785    4.348249
     48          1           0        5.908221   -1.650543   -3.917697
     49          1           0        5.417837    1.026023   -4.654559
     50          1           0        7.655867   -0.307456   -3.178438
     51          1           0        7.385000    1.411504   -2.756451
     52          1           0        7.736730    1.014046   -4.414430
     53          1           0        3.347409   -0.161062   -4.530068
     54          1           0        3.216739   -1.882664   -3.990170
     55          1           0        5.112464   -1.741840   -6.105210
     56          1           0        3.951806   -0.527861   -6.488588
     57          1           0        4.467493    5.108613   -3.568307
     58          1           0        4.569627    6.484461   -2.537470
     59          1           0        2.955529    5.963925   -3.086147
     60          1           0        3.357875    7.763183   -1.154244
     61          1           0        1.988465    8.271834   -0.016497
     62          1           0        1.768654    7.057833   -1.305223
     63          1           0        3.127979    3.432762    4.665283
     64          1           0        4.899333    1.157311    5.408665
     65          1           0        4.878824    4.500615    5.613767
     66          1           0        5.864531    4.006946    4.194821
     67          1           0        5.857192    3.044497    5.580683
     68          1           0        2.759171    1.733746    6.615207
     69          1           0        2.959339    0.026869    6.235275
     70          1           0        1.246892    2.102657    5.092772
     71          1           0        0.786829    0.426682    5.546798
     72          1           0        1.664446    0.796491    3.995109
     73          1           0        4.297470   -4.706654    3.161923
     74          1           0        4.564924   -3.341696    4.304037
     75          1           0        5.949881   -3.933716    3.295588
     76          1           0        6.074325   -3.583116   -1.806477
     77          1           0        4.435955   -6.294696   -4.736080
     78          1           0        3.964305   -4.631977   -5.437965
     79          1           0        2.994973   -5.559809   -4.278115
     80         12           0       -4.883919   -0.121917   -0.189215
     81          6           0       -2.080796   -2.107929    0.848717
     82          6           0       -2.825670    2.593787   -0.037087
     83          6           0       -7.430653    1.710517   -0.662252
     84          6           0       -6.941824   -2.741831    0.833920
     85          7           0       -2.748818    0.088172    0.348794
     86          6           0       -1.768994   -0.744465    0.666594
     87          6           0       -0.361549   -0.091758    0.717963
     88          6           0       -0.810029    1.425577    0.992611
     89          6           0       -2.202640    1.385941    0.366707
     90          6           0       -0.959228    1.751098    2.469463
     91          6           0        0.409415   -0.225635   -0.642081
     92          6           0        1.900178    0.112753   -0.572255
     93          1           0        2.826201   -0.646886   -1.407662
     94          7           0       -5.015173    1.761579   -0.800594
     95          6           0       -4.076616    2.723722   -0.679394
     96          6           0       -4.666000    3.936954   -1.266642
     97          6           0       -6.089778    3.654948   -1.595355
     98          6           0       -6.242831    2.342613   -1.000016
     99          6           0       -3.868639    5.179449   -1.538369
    100          6           0       -7.143335    4.442232   -2.313984
    101          8           0       -8.379128    4.104227   -2.276811
    102          6           0       -6.698875    5.672589   -2.984940
    103          7           0       -6.901806   -0.373250    0.243593
    104          6           0       -7.806681    0.554064   -0.115874
    105          6           0       -9.215042    0.035058    0.050081
    106          6           0       -9.063353   -1.524898    0.368070
    107          6           0       -7.522965   -1.623676    0.421378
    108          6           0      -10.043864    0.699923    1.148895
    109          6           0       -9.835723   -2.509144   -0.552467
    110          6           0       -9.252193   -2.477554   -1.946696
    111          7           0       -4.593991   -2.145221    0.510939
    112          6           0       -5.592130   -3.061239    0.909324
    113          6           0       -4.901339   -4.265323    1.414721
    114          6           0       -3.538292   -3.954773    1.295782
    115          6           0       -3.390126   -2.641538    0.773336
    116          6           0       -5.532738   -5.425886    1.944392
    117          6           0       -2.191157   -4.435234    1.503339
    118          8           0       -1.694207   -5.508520    1.842191
    119          6           0       -1.188125   -3.212871    1.341534
    120          6           0       -0.059938   -3.652767    0.449235
    121          8           0       -0.270152   -3.932267   -0.744208
    122          8           0        1.108085   -3.462585    1.089490
    123          6           0        2.257806   -3.873942    0.240528
    124          1           0       -2.330256    3.536519    0.196823
    125          1           0       -8.343050    2.258185   -0.909422
    126          1           0       -7.512435   -3.639994    1.079622
    127          1           0        0.273121   -0.443314    1.522557
    128          1           0       -0.173092    2.128038    0.461363
    129          1           0       -0.853303    0.872537    3.088378
    130          1           0       -1.949346    2.173883    2.578939
    131          1           0       -0.260281    2.543039    2.753405
    132          1           0        0.069510    0.563132   -1.325493
    133          1           0        0.280467   -1.205845   -1.058245
    134          1           0        2.264399    0.158948    0.461257
    135          1           0        2.043990    1.126947   -0.952697
    136          1           0       -2.892053    5.147773   -1.039681
    137          1           0       -4.394379    6.009173   -1.053577
    138          1           0       -3.775254    5.395177   -2.604858
    139          1           0       -6.244856    6.338294   -2.254763
    140          1           0       -7.575119    6.048228   -3.516887
    141          1           0       -5.914978    5.414413   -3.705683
    142          1           0       -9.781289    0.153620   -0.865565
    143          1           0       -9.429198   -1.772873    1.375293
    144          1           0      -10.989700    1.137748    0.777708
    145          1           0       -9.435120    1.457365    1.624570
    146          1           0      -10.304500    0.053969    1.985563
    147          1           0      -10.879728   -2.200164   -0.645889
    148          1           0       -9.833703   -3.531605   -0.189753
    149          1           0       -9.742763   -1.610962   -2.399958
    150          1           0       -9.492905   -3.392928   -2.483539
    151          1           0       -8.176229   -2.269857   -1.918406
    152          1           0       -5.015205   -6.279593    1.527450
    153          1           0       -6.593522   -5.446410    1.703335
    154          1           0       -5.357421   -5.272933    3.012630
    155          1           0       -0.839400   -2.941064    2.338563
    156          1           0        2.833421   -4.606160    0.815175
    157          1           0        2.772987   -2.935943   -0.039622
    158          1           0        2.040002   -4.435917   -0.660141
 ---------------------------------------------------------------------
 Rotational constants (GHZ):           0.0268507           0.0147340           0.0123986
 Leave Link  202 at Thu Sep  9 22:26:35 2021, MaxMem= 23488102400 cpu:               0.2 elap:               0.0
 (Enter /sw/apps/gaussian-16.0/g16/l301.exe)
 Standard basis: def2SVP (5D, 7F)
 Ernie: Thresh=  0.10000D-02 Tol=  0.10000D-05 Strict=F.
 There are  1658 symmetry adapted cartesian basis functions of A   symmetry.
 There are  1572 symmetry adapted basis functions of A   symmetry.
  1572 basis functions,  2678 primitive gaussians,  1658 cartesian basis functions
   312 alpha electrons      312 beta electrons
       nuclear repulsion energy     16336.0240433882 Hartrees.
 IExCor=20419 DFT=T Ex+Corr=CAM-B3LYP ExCW=0 ScaHFX=  1.000000
 ScaDFX=  1.000000  1.000000  1.000000  0.810000 ScalE2=  1.000000  1.000000
 IRadAn=      5 IRanWt=     -1 IRanGd=            0 ICorTp=0 IEmpDi=  4
 HFx  wShort=  0.000000 wLong=  0.330000 cFull=  0.190000 cShort=  0.000000 cLong=  0.460000
 DFx  wShort=  0.000000 wLong=  0.330000 cFull=  0.190000 cShort=  0.000000 cLong=  0.460000
 NAtoms=  158 NActive=  158 NUniq=  158 SFac= 1.00D+00 NAtFMM=   60 NAOKFM=T Big=T
 Integral buffers will be    131072 words long.
 Raffenetti 1 integral format.
 Two-electron integral symmetry is turned on.
 Leave Link  301 at Thu Sep  9 22:26:35 2021, MaxMem= 23488102400 cpu:               1.3 elap:               0.1
 (Enter /sw/apps/gaussian-16.0/g16/l302.exe)
 NPDir=0 NMtPBC=     1 NCelOv=     1 NCel=       1 NClECP=     1 NCelD=      1
         NCelK=      1 NCelE2=     1 NClLst=     1 CellRange=     0.0.
 One-electron integrals computed using PRISM.
 One-electron integral symmetry used in STVInt
   1 Symmetry operations used in ECPInt.
 ECPInt:  NShTT=  271216 NPrTT=  987664 LenC2=  162750 LenP2D=  347500.
 LDataN:  DoStor=T MaxTD1= 4 Len=   56
 NBasis=  1572 RedAO= T EigKep=  2.64D-04  NBF=  1572
 NBsUse=  1572 1.00D-06 EigRej= -1.00D+00 NBFU=  1572
 Precomputing XC quadrature grid using
 IXCGrd= 4 IRadAn=           5 IRanWt=          -1 IRanGd=           0 AccXCQ= 0.00D+00.
 Generated NRdTot=       0 NPtTot=           0 NUsed=           0 NTot=          32
 NSgBfM=  1478  1458  1470  1474  1478 MxSgAt=   158 MxSgA2=   158.
 Leave Link  302 at Thu Sep  9 22:26:40 2021, MaxMem= 23488102400 cpu:             138.1 elap:               5.8
 (Enter /sw/apps/gaussian-16.0/g16/l303.exe)
 DipDrv:  MaxL=1.
 Leave Link  303 at Thu Sep  9 22:26:41 2021, MaxMem= 23488102400 cpu:              10.7 elap:               0.5
 (Enter /sw/apps/gaussian-16.0/g16/l308.exe)
 Leave Link  308 at Thu Sep  9 22:26:42 2021, MaxMem= 23488102400 cpu:              17.1 elap:               0.8
 (Enter /sw/apps/gaussian-16.0/g16/l401.exe)
 ExpMin= 3.36D-02 ExpMax= 4.95D+03 ExpMxC= 7.45D+02 IAcc=3 IRadAn=         5 AccDes= 0.00D+00
 Harris functional with IExCor=20419 and IRadAn=       5 diagonalized for initial guess.
 HarFok:  IExCor=20419 AccDes= 0.00D+00 IRadAn=         5 IDoV= 1 UseB2=F ITyADJ=14
 ICtDFT=  3500011 ScaDFX=  1.000000  1.000000  1.000000  1.000000
 FoFCou: FMM=F IPFlag=           0 FMFlag=      100000 FMFlg1=        2001
         NFxFlg=           0 DoJE=T BraDBF=F KetDBF=T FulRan=T
         wScrn=  0.000000 ICntrl=       500 IOpCl=  0 I1Cent=   200000004 NGrid=           0
         NMat0=    1 NMatS0=      1 NMatT0=    0 NMatD0=    1 NMtDS0=    0 NMtDT0=    0
 Petite list used in FoFCou.
 Harris En= -3918.58448872050    
 JPrj=0 DoOrth=F DoCkMO=F.
 Leave Link  401 at Thu Sep  9 22:26:51 2021, MaxMem= 23488102400 cpu:             219.2 elap:               9.2
 (Enter /sw/apps/gaussian-16.0/g16/l502.exe)
 Integral symmetry usage will be decided dynamically.
 Closed shell SCF:
 Using DIIS extrapolation, IDIIS=  1040.
 NGot= 23488102400 LenX= 23482546722 LenY= 23479796100
 Requested convergence on RMS density matrix=1.00D-08 within 128 cycles.
 Requested convergence on MAX density matrix=1.00D-06.
 Requested convergence on             energy=1.00D-06.
 No special actions if energy rises.
 Fock matrices will be formed incrementally for  20 cycles.

 Cycle   1  Pass 1  IDiag  1:
 FoFJK:  IHMeth= 1 ICntrl=       0 DoSepK=T KAlg= 0 I1Cent=           0 FoldK=F
 IRaf=         1 NMat=       1 IRICut=       1 DoRegI=T DoRafI=F ISym2E= 0 IDoP0=0 IntGTp=1.
 FoFCou: FMM=T IPFlag=           0 FMFlag=      100000 FMFlg1=        2001
         NFxFlg=           0 DoJE=T BraDBF=F KetDBF=F FulRan=T
         wScrn=  0.000000 ICntrl=       500 IOpCl=  0 I1Cent=           0 NGrid=           0
         NMat0=    1 NMatS0=      1 NMatT0=    0 NMatD0=    1 NMtDS0=    0 NMtDT0=    0
 Symmetry not used in FoFCou.
 FMM levels:  10  Number of levels for PrismC:   9
 E= -4068.88267905867    
 DIIS: error= 2.19D-02 at cycle   1 NSaved=   1.
 NSaved= 1 IEnMin= 1 EnMin= -4068.88267905867     IErMin= 1 ErrMin= 2.19D-02
 ErrMax= 2.19D-02  0.00D+00 EMaxC= 1.00D-01 BMatC= 1.71D+00 BMatP= 1.71D+00
 IDIUse=3 WtCom= 7.81D-01 WtEn= 2.19D-01
 Coeff-Com:  0.100D+01
 Coeff-En:   0.100D+01
 Coeff:      0.100D+01
 Gap=     0.116 Goal=   None    Shift=    0.000
 GapD=    0.116 DampG=1.000 DampE=0.500 DampFc=0.5000 IDamp=-1.
 Damping current iteration by 5.00D-01
 RMSDP=1.65D-03 MaxDP=1.91D-01              OVMax= 2.08D-01

 Cycle   2  Pass 1  IDiag  1:
 RMSU=  8.07D-04    CP:  9.80D-01
 E= -4069.27607520834     Delta-E=       -0.393396149673 Rises=F Damp=T
 DIIS: error= 1.32D-02 at cycle   2 NSaved=   2.
 NSaved= 2 IEnMin= 2 EnMin= -4069.27607520834     IErMin= 2 ErrMin= 1.32D-02
 ErrMax= 1.32D-02  0.00D+00 EMaxC= 1.00D-01 BMatC= 3.10D-01 BMatP= 1.71D+00
 IDIUse=3 WtCom= 8.68D-01 WtEn= 1.32D-01
 Coeff-Com: -0.210D+00 0.121D+01
 Coeff-En:   0.000D+00 0.100D+01
 Coeff:     -0.182D+00 0.118D+01
 Gap=     0.132 Goal=   None    Shift=    0.000
 RMSDP=7.97D-04 MaxDP=9.66D-02 DE=-3.93D-01 OVMax= 1.99D-01

 Cycle   3  Pass 1  IDiag  1:
 RMSU=  7.65D-04    CP:  9.66D-01  1.23D+00
 E= -4069.56483625306     Delta-E=       -0.288761044714 Rises=F Damp=F
 DIIS: error= 1.59D-02 at cycle   3 NSaved=   3.
 NSaved= 3 IEnMin= 3 EnMin= -4069.56483625306     IErMin= 2 ErrMin= 1.32D-02
 ErrMax= 1.59D-02  0.00D+00 EMaxC= 1.00D-01 BMatC= 2.11D-01 BMatP= 3.10D-01
 IDIUse=3 WtCom= 8.41D-01 WtEn= 1.59D-01
 Coeff-Com: -0.266D+00 0.656D+00 0.611D+00
 Coeff-En:   0.000D+00 0.000D+00 0.100D+01
 Coeff:     -0.224D+00 0.551D+00 0.673D+00
 Gap=     0.115 Goal=   None    Shift=    0.000
 RMSDP=5.48D-04 MaxDP=6.95D-02 DE=-2.89D-01 OVMax= 1.57D-01

 Cycle   4  Pass 1  IDiag  1:
 RMSU=  2.81D-04    CP:  9.61D-01  1.55D+00  4.90D-01
 E= -4069.70727133480     Delta-E=       -0.142435081747 Rises=F Damp=F
 DIIS: error= 7.78D-03 at cycle   4 NSaved=   4.
 NSaved= 4 IEnMin= 4 EnMin= -4069.70727133480     IErMin= 4 ErrMin= 7.78D-03
 ErrMax= 7.78D-03  0.00D+00 EMaxC= 1.00D-01 BMatC= 5.38D-02 BMatP= 2.11D-01
 IDIUse=3 WtCom= 9.22D-01 WtEn= 7.78D-02
 Coeff-Com: -0.107D+00 0.224D+00 0.408D+00 0.475D+00
 Coeff-En:   0.000D+00 0.000D+00 0.229D+00 0.771D+00
 Coeff:     -0.991D-01 0.207D+00 0.394D+00 0.498D+00
 Gap=     0.116 Goal=   None    Shift=    0.000
 RMSDP=2.17D-04 MaxDP=2.19D-02 DE=-1.42D-01 OVMax= 7.24D-02

 Cycle   5  Pass 1  IDiag  1:
 RMSU=  8.43D-05    CP:  9.62D-01  1.48D+00  6.83D-01  5.56D-01
 E= -4069.75648863930     Delta-E=       -0.049217304495 Rises=F Damp=F
 DIIS: error= 7.80D-04 at cycle   5 NSaved=   5.
 NSaved= 5 IEnMin= 5 EnMin= -4069.75648863930     IErMin= 5 ErrMin= 7.80D-04
 ErrMax= 7.80D-04  0.00D+00 EMaxC= 1.00D-01 BMatC= 1.44D-03 BMatP= 5.38D-02
 IDIUse=3 WtCom= 9.92D-01 WtEn= 7.80D-03
 Coeff-Com: -0.373D-01 0.735D-01 0.174D+00 0.260D+00 0.530D+00
 Coeff-En:   0.000D+00 0.000D+00 0.000D+00 0.000D+00 0.100D+01
 Coeff:     -0.370D-01 0.729D-01 0.172D+00 0.258D+00 0.533D+00
 Gap=     0.115 Goal=   None    Shift=    0.000
 RMSDP=4.93D-05 MaxDP=5.10D-03 DE=-4.92D-02 OVMax= 2.30D-02

 Cycle   6  Pass 1  IDiag  1:
 RMSU=  3.52D-05    CP:  9.61D-01  1.49D+00  6.72D-01  6.32D-01  7.04D-01
 E= -4069.75778088514     Delta-E=       -0.001292245845 Rises=F Damp=F
 DIIS: error= 1.77D-04 at cycle   6 NSaved=   6.
 NSaved= 6 IEnMin= 6 EnMin= -4069.75778088514     IErMin= 6 ErrMin= 1.77D-04
 ErrMax= 1.77D-04  0.00D+00 EMaxC= 1.00D-01 BMatC= 2.54D-04 BMatP= 1.44D-03
 IDIUse=3 WtCom= 9.98D-01 WtEn= 1.77D-03
 Coeff-Com:  0.100D-02-0.439D-02 0.179D-01 0.516D-01 0.321D+00 0.613D+00
 Coeff-En:   0.000D+00 0.000D+00 0.000D+00 0.000D+00 0.149D+00 0.851D+00
 Coeff:      0.100D-02-0.438D-02 0.179D-01 0.515D-01 0.321D+00 0.613D+00
 Gap=     0.115 Goal=   None    Shift=    0.000
 RMSDP=2.01D-05 MaxDP=1.40D-03 DE=-1.29D-03 OVMax= 9.19D-03

 Cycle   7  Pass 1  IDiag  1:
 RMSU=  1.27D-05    CP:  9.61D-01  1.49D+00  6.78D-01  6.29D-01  8.21D-01
                    CP:  6.93D-01
 E= -4069.75806242822     Delta-E=       -0.000281543074 Rises=F Damp=F
 DIIS: error= 1.29D-04 at cycle   7 NSaved=   7.
 NSaved= 7 IEnMin= 7 EnMin= -4069.75806242822     IErMin= 7 ErrMin= 1.29D-04
 ErrMax= 1.29D-04  0.00D+00 EMaxC= 1.00D-01 BMatC= 3.36D-05 BMatP= 2.54D-04
 IDIUse=3 WtCom= 9.99D-01 WtEn= 1.29D-03
 EnCoef did     2 forward-backward iterations
 Coeff-Com:  0.442D-02-0.988D-02-0.753D-02-0.156D-03 0.121D+00 0.338D+00
 Coeff-Com:  0.555D+00
 Coeff-En:   0.000D+00 0.000D+00 0.000D+00 0.000D+00 0.000D+00 0.137D-02
 Coeff-En:   0.999D+00
 Coeff:      0.442D-02-0.986D-02-0.752D-02-0.155D-03 0.120D+00 0.338D+00
 Coeff:      0.555D+00
 Gap=     0.116 Goal=   None    Shift=    0.000
 RMSDP=7.76D-06 MaxDP=1.10D-03 DE=-2.82D-04 OVMax= 4.50D-03

 Cycle   8  Pass 1  IDiag  1:
 RMSU=  5.40D-06    CP:  9.61D-01  1.49D+00  6.79D-01  6.35D-01  8.19D-01
                    CP:  8.26D-01  8.16D-01
 E= -4069.75810350506     Delta-E=       -0.000041076841 Rises=F Damp=F
 DIIS: error= 4.27D-05 at cycle   8 NSaved=   8.
 NSaved= 8 IEnMin= 8 EnMin= -4069.75810350506     IErMin= 8 ErrMin= 4.27D-05
 ErrMax= 4.27D-05  0.00D+00 EMaxC= 1.00D-01 BMatC= 5.84D-06 BMatP= 3.36D-05
 IDIUse=1 WtCom= 1.00D+00 WtEn= 0.00D+00
 Coeff-Com:  0.229D-02-0.456D-02-0.814D-02-0.127D-01-0.609D-02 0.317D-01
 Coeff-Com:  0.304D+00 0.693D+00
 Coeff:      0.229D-02-0.456D-02-0.814D-02-0.127D-01-0.609D-02 0.317D-01
 Coeff:      0.304D+00 0.693D+00
 Gap=     0.116 Goal=   None    Shift=    0.000
 RMSDP=3.78D-06 MaxDP=4.49D-04 DE=-4.11D-05 OVMax= 1.49D-03

 Cycle   9  Pass 1  IDiag  1:
 RMSU=  2.23D-06    CP:  9.61D-01  1.49D+00  6.80D-01  6.36D-01  8.36D-01
                    CP:  8.55D-01  1.00D+00  1.01D+00
 E= -4069.75811350352     Delta-E=       -0.000009998461 Rises=F Damp=F
 DIIS: error= 1.80D-05 at cycle   9 NSaved=   9.
 NSaved= 9 IEnMin= 9 EnMin= -4069.75811350352     IErMin= 9 ErrMin= 1.80D-05
 ErrMax= 1.80D-05  0.00D+00 EMaxC= 1.00D-01 BMatC= 9.97D-07 BMatP= 5.84D-06
 IDIUse=1 WtCom= 1.00D+00 WtEn= 0.00D+00
 Coeff-Com:  0.513D-03-0.848D-03-0.297D-02-0.681D-02-0.203D-01-0.438D-01
 Coeff-Com:  0.859D-01 0.345D+00 0.644D+00
 Coeff:      0.513D-03-0.848D-03-0.297D-02-0.681D-02-0.203D-01-0.438D-01
 Coeff:      0.859D-01 0.345D+00 0.644D+00
 Gap=     0.116 Goal=   None    Shift=    0.000
 RMSDP=1.78D-06 MaxDP=1.56D-04 DE=-1.00D-05 OVMax= 1.04D-03

 Cycle  10  Pass 1  IDiag  1:
 RMSU=  1.14D-06    CP:  9.61D-01  1.49D+00  6.80D-01  6.37D-01  8.40D-01
                    CP:  8.69D-01  1.06D+00  1.19D+00  1.11D+00
 E= -4069.75811596131     Delta-E=       -0.000002457789 Rises=F Damp=F
 DIIS: error= 7.77D-06 at cycle  10 NSaved=  10.
 NSaved=10 IEnMin=10 EnMin= -4069.75811596131     IErMin=10 ErrMin= 7.77D-06
 ErrMax= 7.77D-06  0.00D+00 EMaxC= 1.00D-01 BMatC= 2.55D-07 BMatP= 9.97D-07
 IDIUse=1 WtCom= 1.00D+00 WtEn= 0.00D+00
 Coeff-Com: -0.481D-03 0.101D-02 0.140D-02 0.119D-02-0.361D-02-0.342D-01
 Coeff-Com: -0.477D-01-0.885D-01 0.231D+00 0.940D+00
 Coeff:     -0.481D-03 0.101D-02 0.140D-02 0.119D-02-0.361D-02-0.342D-01
 Coeff:     -0.477D-01-0.885D-01 0.231D+00 0.940D+00
 Gap=     0.116 Goal=   None    Shift=    0.000
 RMSDP=1.65D-06 MaxDP=1.67D-04 DE=-2.46D-06 OVMax= 8.72D-04

 Cycle  11  Pass 1  IDiag  1:
 RMSU=  6.78D-07    CP:  9.61D-01  1.49D+00  6.80D-01  6.38D-01  8.42D-01
                    CP:  8.80D-01  1.11D+00  1.32D+00  1.51D+00  1.40D+00
 E= -4069.75811728371     Delta-E=       -0.000001322402 Rises=F Damp=F
 DIIS: error= 5.57D-06 at cycle  11 NSaved=  11.
 NSaved=11 IEnMin=11 EnMin= -4069.75811728371     IErMin=11 ErrMin= 5.57D-06
 ErrMax= 5.57D-06  0.00D+00 EMaxC= 1.00D-01 BMatC= 1.10D-07 BMatP= 2.55D-07
 IDIUse=1 WtCom= 1.00D+00 WtEn= 0.00D+00
 Coeff-Com: -0.399D-03 0.776D-03 0.162D-02 0.253D-02 0.496D-02-0.101D-01
 Coeff-Com: -0.432D-01-0.150D+00-0.554D-01 0.520D+00 0.729D+00
 Coeff:     -0.399D-03 0.776D-03 0.162D-02 0.253D-02 0.496D-02-0.101D-01
 Coeff:     -0.432D-01-0.150D+00-0.554D-01 0.520D+00 0.729D+00
 Gap=     0.116 Goal=   None    Shift=    0.000
 RMSDP=9.66D-07 MaxDP=1.05D-04 DE=-1.32D-06 OVMax= 5.93D-04

 Cycle  12  Pass 1  IDiag  1:
 RMSU=  3.52D-07    CP:  9.61D-01  1.49D+00  6.80D-01  6.38D-01  8.44D-01
                    CP:  8.85D-01  1.14D+00  1.41D+00  1.70D+00  1.85D+00
                    CP:  1.19D+00
 E= -4069.75811775409     Delta-E=       -0.000000470383 Rises=F Damp=F
 DIIS: error= 3.15D-06 at cycle  12 NSaved=  12.
 NSaved=12 IEnMin=12 EnMin= -4069.75811775409     IErMin=12 ErrMin= 3.15D-06
 ErrMax= 3.15D-06  0.00D+00 EMaxC= 1.00D-01 BMatC= 3.07D-08 BMatP= 1.10D-07
 IDIUse=1 WtCom= 1.00D+00 WtEn= 0.00D+00
 Coeff-Com: -0.393D-04 0.554D-04 0.382D-03 0.867D-03 0.451D-02 0.370D-02
 Coeff-Com:  0.894D-04-0.491D-01-0.912D-01-0.252D-01 0.320D+00 0.836D+00
 Coeff:     -0.393D-04 0.554D-04 0.382D-03 0.867D-03 0.451D-02 0.370D-02
 Coeff:      0.894D-04-0.491D-01-0.912D-01-0.252D-01 0.320D+00 0.836D+00
 Gap=     0.116 Goal=   None    Shift=    0.000
 RMSDP=5.80D-07 MaxDP=5.02D-05 DE=-4.70D-07 OVMax= 3.29D-04

 Cycle  13  Pass 1  IDiag  1:
 RMSU=  2.19D-07    CP:  9.61D-01  1.49D+00  6.80D-01  6.38D-01  8.44D-01
                    CP:  8.85D-01  1.15D+00  1.44D+00  1.84D+00  2.08D+00
                    CP:  1.60D+00  1.16D+00
 E= -4069.75811791159     Delta-E=       -0.000000157495 Rises=F Damp=F
 DIIS: error= 2.17D-06 at cycle  13 NSaved=  13.
 NSaved=13 IEnMin=13 EnMin= -4069.75811791159     IErMin=13 ErrMin= 2.17D-06
 ErrMax= 2.17D-06  0.00D+00 EMaxC= 1.00D-01 BMatC= 1.44D-08 BMatP= 3.07D-08
 IDIUse=1 WtCom= 1.00D+00 WtEn= 0.00D+00
 Coeff-Com:  0.134D-03-0.275D-03-0.397D-03-0.471D-03 0.113D-02 0.535D-02
 Coeff-Com:  0.199D-01 0.255D-01-0.349D-01-0.242D+00-0.133D+00 0.547D+00
 Coeff-Com:  0.811D+00
 Coeff:      0.134D-03-0.275D-03-0.397D-03-0.471D-03 0.113D-02 0.535D-02
 Coeff:      0.199D-01 0.255D-01-0.349D-01-0.242D+00-0.133D+00 0.547D+00
 Coeff:      0.811D+00
 Gap=     0.116 Goal=   None    Shift=    0.000
 RMSDP=4.64D-07 MaxDP=3.26D-05 DE=-1.57D-07 OVMax= 2.93D-04

 Cycle  14  Pass 1  IDiag  1:
 RMSU=  1.01D-07    CP:  9.61D-01  1.49D+00  6.80D-01  6.38D-01  8.44D-01
                    CP:  8.86D-01  1.15D+00  1.47D+00  1.93D+00  2.30D+00
                    CP:  1.86D+00  1.67D+00  1.11D+00
 E= -4069.75811797609     Delta-E=       -0.000000064501 Rises=F Damp=F
 DIIS: error= 1.11D-06 at cycle  14 NSaved=  14.
 NSaved=14 IEnMin=14 EnMin= -4069.75811797609     IErMin=14 ErrMin= 1.11D-06
 ErrMax= 1.11D-06  0.00D+00 EMaxC= 1.00D-01 BMatC= 2.33D-09 BMatP= 1.44D-08
 IDIUse=1 WtCom= 1.00D+00 WtEn= 0.00D+00
 Coeff-Com:  0.814D-04-0.161D-03-0.302D-03-0.467D-03-0.387D-03 0.142D-02
 Coeff-Com:  0.113D-01 0.232D-01 0.612D-02-0.114D+00-0.146D+00 0.839D-01
 Coeff-Com:  0.419D+00 0.717D+00
 Coeff:      0.814D-04-0.161D-03-0.302D-03-0.467D-03-0.387D-03 0.142D-02
 Coeff:      0.113D-01 0.232D-01 0.612D-02-0.114D+00-0.146D+00 0.839D-01
 Coeff:      0.419D+00 0.717D+00
 Gap=     0.116 Goal=   None    Shift=    0.000
 RMSDP=1.51D-07 MaxDP=1.05D-05 DE=-6.45D-08 OVMax= 7.96D-05

 Cycle  15  Pass 1  IDiag  1:
 RMSU=  4.79D-08    CP:  9.61D-01  1.49D+00  6.80D-01  6.38D-01  8.44D-01
                    CP:  8.86D-01  1.16D+00  1.48D+00  1.95D+00  2.35D+00
                    CP:  1.98D+00  1.81D+00  1.34D+00  1.05D+00
 E= -4069.75811798389     Delta-E=       -0.000000007800 Rises=F Damp=F
 DIIS: error= 2.97D-07 at cycle  15 NSaved=  15.
 NSaved=15 IEnMin=15 EnMin= -4069.75811798389     IErMin=15 ErrMin= 2.97D-07
 ErrMax= 2.97D-07  0.00D+00 EMaxC= 1.00D-01 BMatC= 3.78D-10 BMatP= 2.33D-09
 IDIUse=1 WtCom= 1.00D+00 WtEn= 0.00D+00
 Coeff-Com:  0.113D-04-0.203D-04-0.576D-04-0.124D-03-0.344D-03-0.562D-03
 Coeff-Com:  0.170D-02 0.423D-02 0.103D-01-0.326D-02-0.373D-01-0.661D-01
 Coeff-Com:  0.389D-01 0.307D+00 0.745D+00
 Coeff:      0.113D-04-0.203D-04-0.576D-04-0.124D-03-0.344D-03-0.562D-03
 Coeff:      0.170D-02 0.423D-02 0.103D-01-0.326D-02-0.373D-01-0.661D-01
 Coeff:      0.389D-01 0.307D+00 0.745D+00
 Gap=     0.116 Goal=   None    Shift=    0.000
 RMSDP=4.57D-08 MaxDP=4.61D-06 DE=-7.80D-09 OVMax= 2.96D-05

 Cycle  16  Pass 1  IDiag  1:
 RMSU=  2.40D-08    CP:  9.61D-01  1.49D+00  6.80D-01  6.38D-01  8.44D-01
                    CP:  8.86D-01  1.16D+00  1.48D+00  1.96D+00  2.36D+00
                    CP:  2.00D+00  1.86D+00  1.41D+00  1.25D+00  1.13D+00
 E= -4069.75811798471     Delta-E=       -0.000000000822 Rises=F Damp=F
 DIIS: error= 1.58D-07 at cycle  16 NSaved=  16.
 NSaved=16 IEnMin=16 EnMin= -4069.75811798471     IErMin=16 ErrMin= 1.58D-07
 ErrMax= 1.58D-07  0.00D+00 EMaxC= 1.00D-01 BMatC= 1.27D-10 BMatP= 3.78D-10
 IDIUse=1 WtCom= 1.00D+00 WtEn= 0.00D+00
 Coeff-Com: -0.150D-04 0.305D-04 0.480D-04 0.521D-04-0.645D-04-0.701D-03
 Coeff-Com: -0.178D-02-0.446D-02 0.391D-02 0.252D-01 0.171D-01-0.557D-01
 Coeff-Com: -0.790D-01-0.257D-01 0.384D+00 0.737D+00
 Coeff:     -0.150D-04 0.305D-04 0.480D-04 0.521D-04-0.645D-04-0.701D-03
 Coeff:     -0.178D-02-0.446D-02 0.391D-02 0.252D-01 0.171D-01-0.557D-01
 Coeff:     -0.790D-01-0.257D-01 0.384D+00 0.737D+00
 Gap=     0.116 Goal=   None    Shift=    0.000
 RMSDP=2.84D-08 MaxDP=2.49D-06 DE=-8.22D-10 OVMax= 1.51D-05

 Cycle  17  Pass 1  IDiag  1:
 RMSU=  1.41D-08    CP:  9.61D-01  1.49D+00  6.80D-01  6.38D-01  8.44D-01
                    CP:  8.86D-01  1.16D+00  1.48D+00  1.96D+00  2.37D+00
                    CP:  2.01D+00  1.88D+00  1.45D+00  1.33D+00  1.40D+00
                    CP:  1.16D+00
 E= -4069.75811798506     Delta-E=       -0.000000000349 Rises=F Damp=F
 DIIS: error= 1.08D-07 at cycle  17 NSaved=  17.
 NSaved=17 IEnMin=17 EnMin= -4069.75811798506     IErMin=17 ErrMin= 1.08D-07
 ErrMax= 1.08D-07  0.00D+00 EMaxC= 1.00D-01 BMatC= 2.95D-11 BMatP= 1.27D-10
 IDIUse=1 WtCom= 1.00D+00 WtEn= 0.00D+00
 Coeff-Com: -0.912D-05 0.179D-04 0.349D-04 0.500D-04 0.699D-04-0.197D-03
 Coeff-Com: -0.101D-02-0.324D-02-0.822D-05 0.120D-01 0.170D-01-0.111D-01
 Coeff-Com: -0.405D-01-0.872D-01-0.142D-01 0.326D+00 0.802D+00
 Coeff:     -0.912D-05 0.179D-04 0.349D-04 0.500D-04 0.699D-04-0.197D-03
 Coeff:     -0.101D-02-0.324D-02-0.822D-05 0.120D-01 0.170D-01-0.111D-01
 Coeff:     -0.405D-01-0.872D-01-0.142D-01 0.326D+00 0.802D+00
 Gap=     0.116 Goal=   None    Shift=    0.000
 RMSDP=1.57D-08 MaxDP=1.11D-06 DE=-3.49D-10 OVMax= 1.01D-05

 Cycle  18  Pass 1  IDiag  1:
 RMSU=  6.42D-09    CP:  9.61D-01  1.49D+00  6.80D-01  6.38D-01  8.44D-01
                    CP:  8.86D-01  1.16D+00  1.48D+00  1.96D+00  2.37D+00
                    CP:  2.01D+00  1.89D+00  1.46D+00  1.39D+00  1.55D+00
                    CP:  1.52D+00  1.29D+00
 E= -4069.75811798540     Delta-E=       -0.000000000338 Rises=F Damp=F
 DIIS: error= 5.53D-08 at cycle  18 NSaved=  18.
 NSaved=18 IEnMin=18 EnMin= -4069.75811798540     IErMin=18 ErrMin= 5.53D-08
 ErrMax= 5.53D-08  0.00D+00 EMaxC= 1.00D-01 BMatC= 1.09D-11 BMatP= 2.95D-11
 IDIUse=1 WtCom= 1.00D+00 WtEn= 0.00D+00
 Coeff-Com:  0.200D-06-0.815D-06 0.264D-05 0.897D-05 0.769D-04 0.144D-03
 Coeff-Com:  0.172D-03-0.344D-03-0.125D-02-0.328D-02 0.314D-02 0.135D-01
 Coeff-Com:  0.970D-02-0.387D-01-0.148D+00-0.925D-01 0.403D+00 0.855D+00
 Coeff:      0.200D-06-0.815D-06 0.264D-05 0.897D-05 0.769D-04 0.144D-03
 Coeff:      0.172D-03-0.344D-03-0.125D-02-0.328D-02 0.314D-02 0.135D-01
 Coeff:      0.970D-02-0.387D-01-0.148D+00-0.925D-01 0.403D+00 0.855D+00
 Gap=     0.116 Goal=   None    Shift=    0.000
 RMSDP=1.20D-08 MaxDP=8.37D-07 DE=-3.38D-10 OVMax= 7.12D-06

 Cycle  19  Pass 1  IDiag  1:
 RMSU=  3.74D-09    CP:  9.61D-01  1.49D+00  6.80D-01  6.38D-01  8.44D-01
                    CP:  8.86D-01  1.16D+00  1.48D+00  1.96D+00  2.37D+00
                    CP:  2.02D+00  1.89D+00  1.47D+00  1.42D+00  1.67D+00
                    CP:  1.75D+00  1.76D+00  1.21D+00
 E= -4069.75811798564     Delta-E=       -0.000000000236 Rises=F Damp=F
 DIIS: error= 2.39D-08 at cycle  19 NSaved=  19.
 NSaved=19 IEnMin=19 EnMin= -4069.75811798564     IErMin=19 ErrMin= 2.39D-08
 ErrMax= 2.39D-08  0.00D+00 EMaxC= 1.00D-01 BMatC= 3.30D-12 BMatP= 1.09D-11
 IDIUse=1 WtCom= 1.00D+00 WtEn= 0.00D+00
 Coeff-Com:  0.336D-05-0.683D-05-0.110D-04-0.130D-04 0.268D-04 0.153D-03
 Coeff-Com:  0.496D-03 0.922D-03-0.621D-03-0.657D-02-0.423D-02 0.117D-01
 Coeff-Com:  0.218D-01 0.783D-02-0.875D-01-0.179D+00-0.480D-01 0.502D+00
 Coeff-Com:  0.781D+00
 Coeff:      0.336D-05-0.683D-05-0.110D-04-0.130D-04 0.268D-04 0.153D-03
 Coeff:      0.496D-03 0.922D-03-0.621D-03-0.657D-02-0.423D-02 0.117D-01
 Coeff:      0.218D-01 0.783D-02-0.875D-01-0.179D+00-0.480D-01 0.502D+00
 Coeff:      0.781D+00
 Gap=     0.116 Goal=   None    Shift=    0.000
 RMSDP=7.44D-09 MaxDP=5.24D-07 DE=-2.36D-10 OVMax= 4.97D-06

 SCF Done:  E(RCAM-B3LYP) =  -4069.75811799     A.U. after   19 cycles
            NFock= 19  Conv=0.74D-08     -V/T= 2.0101
 KE= 4.029208034490D+03 PE=-4.215329462596D+04 EE= 1.771830443010D+04
 Leave Link  502 at Thu Sep  9 22:42:46 2021, MaxMem= 23488102400 cpu:           22225.3 elap:             955.5
 (Enter /sw/apps/gaussian-16.0/g16/l801.exe)
 DoSCS=F DFT=T ScalE2(SS,OS)=  1.000000  1.000000
 ExpMin= 3.36D-02 ExpMax= 4.95D+03 ExpMxC= 7.45D+02 IAcc=3 IRadAn=         5 AccDes= 0.00D+00
 HarFok:  IExCor=  205 AccDes= 0.00D+00 IRadAn=         5 IDoV=-2 UseB2=F ITyADJ=14
 ICtDFT= 12500011 ScaDFX=  1.000000  1.000000  1.000000  1.000000
 GSVD:  LWork=       -9588 too small for GESVD, short by       45590 words or       45590 for optimal perf.
 Largest valence mixing into a core orbital is  2.08D-04
 Largest core mixing into a valence orbital is  5.30D-05
 Range of M.O.s used for correlation:    95  1572
 NBasis=  1572 NAE=   312 NBE=   312 NFC=    94 NFV=     0
 NROrb=   1478 NOA=   218 NOB=   218 NVA=  1260 NVB=  1260
 Leave Link  801 at Thu Sep  9 22:42:47 2021, MaxMem= 23488102400 cpu:               8.4 elap:               0.4
 (Enter /sw/apps/gaussian-16.0/g16/l914.exe)
 RHF ground state
 Two-electron integrals replicated using symmetry.
 MDV= 23488102400 DFT=T DoStab=F Mixed=T DoRPA=T DoScal=F NonHer=T
 Making orbital integer symmetry assigments:
 Orbital symmetries:
       Occupied  (A) (A) (A) (A) (A) (A) (A) (A) (A) (A) (A) (A)
                 (A) (A) (A) (A) (A) (A) (A) (A) (A) (A) (A) (A)
                 (A) (A) (A) (A) (A) (A) (A) (A) (A) (A) (A) (A)
                 (A) (A) (A) (A) (A) (A) (A) (A) (A) (A) (A) (A)
                 (A) (A) (A) (A) (A) (A) (A) (A) (A) (A) (A) (A)
                 (A) (A) (A) (A) (A) (A) (A) (A) (A) (A) (A) (A)
                 (A) (A) (A) (A) (A) (A) (A) (A) (A) (A) (A) (A)
                 (A) (A) (A) (A) (A) (A) (A) (A) (A) (A) (A) (A)
                 (A) (A) (A) (A) (A) (A) (A) (A) (A) (A) (A) (A)
                 (A) (A) (A) (A) (A) (A) (A) (A) (A) (A) (A) (A)
                 (A) (A) (A) (A) (A) (A) (A) (A) (A) (A) (A) (A)
                 (A) (A) (A) (A) (A) (A) (A) (A) (A) (A) (A) (A)
                 (A) (A) (A) (A) (A) (A) (A) (A) (A) (A) (A) (A)
                 (A) (A) (A) (A) (A) (A) (A) (A) (A) (A) (A) (A)
                 (A) (A) (A) (A) (A) (A) (A) (A) (A) (A) (A) (A)
                 (A) (A) (A) (A) (A) (A) (A) (A) (A) (A) (A) (A)
                 (A) (A) (A) (A) (A) (A) (A) (A) (A) (A) (A) (A)
                 (A) (A) (A) (A) (A) (A) (A) (A) (A) (A) (A) (A)
                 (A) (A) (A) (A) (A) (A) (A) (A) (A) (A) (A) (A)
                 (A) (A) (A) (A) (A) (A) (A) (A) (A) (A) (A) (A)
                 (A) (A) (A) (A) (A) (A) (A) (A) (A) (A) (A) (A)
                 (A) (A) (A) (A) (A) (A) (A) (A) (A) (A) (A) (A)
                 (A) (A) (A) (A) (A) (A) (A) (A) (A) (A) (A) (A)
                 (A) (A) (A) (A) (A) (A) (A) (A) (A) (A) (A) (A)
                 (A) (A) (A) (A) (A) (A) (A) (A) (A) (A) (A) (A)
                 (A) (A) (A) (A) (A) (A) (A) (A) (A) (A) (A) (A)
       Virtual   (A) (A) (A) (A) (A) (A) (A) (A) (A) (A) (A) (A)
                 (A) (A) (A) (A) (A) (A) (A) (A) (A) (A) (A) (A)
                 (A) (A) (A) (A) (A) (A) (A) (A) (A) (A) (A) (A)
                 (A) (A) (A) (A) (A) (A) (A) (A) (A) (A) (A) (A)
                 (A) (A) (A) (A) (A) (A) (A) (A) (A) (A) (A) (A)
                 (A) (A) (A) (A) (A) (A) (A) (A) (A) (A) (A) (A)
                 (A) (A) (A) (A) (A) (A) (A) (A) (A) (A) (A) (A)
                 (A) (A) (A) (A) (A) (A) (A) (A) (A) (A) (A) (A)
                 (A) (A) (A) (A) (A) (A) (A) (A) (A) (A) (A) (A)
                 (A) (A) (A) (A) (A) (A) (A) (A) (A) (A) (A) (A)
                 (A) (A) (A) (A) (A) (A) (A) (A) (A) (A) (A) (A)
                 (A) (A) (A) (A) (A) (A) (A) (A) (A) (A) (A) (A)
                 (A) (A) (A) (A) (A) (A) (A) (A) (A) (A) (A) (A)
                 (A) (A) (A) (A) (A) (A) (A) (A) (A) (A) (A) (A)
                 (A) (A) (A) (A) (A) (A) (A) (A) (A) (A) (A) (A)
                 (A) (A) (A) (A) (A) (A) (A) (A) (A) (A) (A) (A)
                 (A) (A) (A) (A) (A) (A) (A) (A) (A) (A) (A) (A)
                 (A) (A) (A) (A) (A) (A) (A) (A) (A) (A) (A) (A)
                 (A) (A) (A) (A) (A) (A) (A) (A) (A) (A) (A) (A)
                 (A) (A) (A) (A) (A) (A) (A) (A) (A) (A) (A) (A)
                 (A) (A) (A) (A) (A) (A) (A) (A) (A) (A) (A) (A)
                 (A) (A) (A) (A) (A) (A) (A) (A) (A) (A) (A) (A)
                 (A) (A) (A) (A) (A) (A) (A) (A) (A) (A) (A) (A)
                 (A) (A) (A) (A) (A) (A) (A) (A) (A) (A) (A) (A)
                 (A) (A) (A) (A) (A) (A) (A) (A) (A) (A) (A) (A)
                 (A) (A) (A) (A) (A) (A) (A) (A) (A) (A) (A) (A)
                 (A) (A) (A) (A) (A) (A) (A) (A) (A) (A) (A) (A)
                 (A) (A) (A) (A) (A) (A) (A) (A) (A) (A) (A) (A)
                 (A) (A) (A) (A) (A) (A) (A) (A) (A) (A) (A) (A)
                 (A) (A) (A) (A) (A) (A) (A) (A) (A) (A) (A) (A)
                 (A) (A) (A) (A) (A) (A) (A) (A) (A) (A) (A) (A)
                 (A) (A) (A) (A) (A) (A) (A) (A) (A) (A) (A) (A)
                 (A) (A) (A) (A) (A) (A) (A) (A) (A) (A) (A) (A)
                 (A) (A) (A) (A) (A) (A) (A) (A) (A) (A) (A) (A)
                 (A) (A) (A) (A) (A) (A) (A) (A) (A) (A) (A) (A)
                 (A) (A) (A) (A) (A) (A) (A) (A) (A) (A) (A) (A)
                 (A) (A) (A) (A) (A) (A) (A) (A) (A) (A) (A) (A)
                 (A) (A) (A) (A) (A) (A) (A) (A) (A) (A) (A) (A)
                 (A) (A) (A) (A) (A) (A) (A) (A) (A) (A) (A) (A)
                 (A) (A) (A) (A) (A) (A) (A) (A) (A) (A) (A) (A)
                 (A) (A) (A) (A) (A) (A) (A) (A) (A) (A) (A) (A)
                 (A) (A) (A) (A) (A) (A) (A) (A) (A) (A) (A) (A)
                 (A) (A) (A) (A) (A) (A) (A) (A) (A) (A) (A) (A)
                 (A) (A) (A) (A) (A) (A) (A) (A) (A) (A) (A) (A)
                 (A) (A) (A) (A) (A) (A) (A) (A) (A) (A) (A) (A)
                 (A) (A) (A) (A) (A) (A) (A) (A) (A) (A) (A) (A)
                 (A) (A) (A) (A) (A) (A) (A) (A) (A) (A) (A) (A)
                 (A) (A) (A) (A) (A) (A) (A) (A) (A) (A) (A) (A)
                 (A) (A) (A) (A) (A) (A) (A) (A) (A) (A) (A) (A)
                 (A) (A) (A) (A) (A) (A) (A) (A) (A) (A) (A) (A)
                 (A) (A) (A) (A) (A) (A) (A) (A) (A) (A) (A) (A)
                 (A) (A) (A) (A) (A) (A) (A) (A) (A) (A) (A) (A)
                 (A) (A) (A) (A) (A) (A) (A) (A) (A) (A) (A) (A)
                 (A) (A) (A) (A) (A) (A) (A) (A) (A) (A) (A) (A)
                 (A) (A) (A) (A) (A) (A) (A) (A) (A) (A) (A) (A)
                 (A) (A) (A) (A) (A) (A) (A) (A) (A) (A) (A) (A)
                 (A) (A) (A) (A) (A) (A) (A) (A) (A) (A) (A) (A)
                 (A) (A) (A) (A) (A) (A) (A) (A) (A) (A) (A) (A)
                 (A) (A) (A) (A) (A) (A) (A) (A) (A) (A) (A) (A)
                 (A) (A) (A) (A) (A) (A) (A) (A) (A) (A) (A) (A)
                 (A) (A) (A) (A) (A) (A) (A) (A) (A) (A) (A) (A)
                 (A) (A) (A) (A) (A) (A) (A) (A) (A) (A) (A) (A)
                 (A) (A) (A) (A) (A) (A) (A) (A) (A) (A) (A) (A)
                 (A) (A) (A) (A) (A) (A) (A) (A) (A) (A) (A) (A)
                 (A) (A) (A) (A) (A) (A) (A) (A) (A) (A) (A) (A)
                 (A) (A) (A) (A) (A) (A) (A) (A) (A) (A) (A) (A)
                 (A) (A) (A) (A) (A) (A) (A) (A) (A) (A) (A) (A)
                 (A) (A) (A) (A) (A) (A) (A) (A) (A) (A) (A) (A)
                 (A) (A) (A) (A) (A) (A) (A) (A) (A) (A) (A) (A)
                 (A) (A) (A) (A) (A) (A) (A) (A) (A) (A) (A) (A)
                 (A) (A) (A) (A) (A) (A) (A) (A) (A) (A) (A) (A)
                 (A) (A) (A) (A) (A) (A) (A) (A) (A) (A) (A) (A)
                 (A) (A) (A) (A) (A) (A) (A) (A) (A) (A) (A) (A)
                 (A) (A) (A) (A) (A) (A) (A) (A) (A) (A) (A) (A)
                 (A) (A) (A) (A) (A) (A) (A) (A) (A) (A) (A) (A)
                 (A) (A) (A) (A) (A) (A) (A) (A) (A) (A) (A) (A)
                 (A) (A) (A) (A) (A) (A) (A) (A) (A) (A) (A) (A)
                 (A) (A) (A) (A) (A) (A) (A) (A) (A) (A) (A) (A)
                 (A) (A) (A) (A) (A) (A) (A) (A) (A) (A) (A) (A)
                 (A) (A) (A) (A) (A) (A) (A) (A) (A) (A) (A) (A)
                 (A) (A) (A) (A) (A) (A) (A) (A) (A) (A) (A) (A)
                 (A) (A) (A) (A) (A) (A) (A) (A) (A) (A) (A) (A)
                 (A) (A) (A) (A) (A) (A) (A) (A) (A) (A) (A) (A)
                 (A) (A) (A) (A) (A) (A) (A) (A) (A) (A) (A) (A)
                 (A) (A) (A) (A) (A) (A) (A) (A) (A) (A) (A) (A)
                 (A) (A) (A) (A) (A) (A) (A) (A) (A) (A) (A) (A)
                 (A) (A) (A) (A) (A) (A) (A) (A) (A) (A) (A) (A)
                 (A) (A) (A) (A) (A) (A) (A) (A) (A) (A) (A) (A)
                 (A) (A) (A) (A) (A) (A) (A) (A) (A) (A) (A) (A)
                 (A) (A) (A) (A) (A) (A) (A) (A) (A) (A) (A) (A)
                 (A) (A) (A) (A) (A) (A) (A) (A) (A) (A) (A) (A)
                 (A) (A) (A) (A) (A) (A) (A) (A) (A) (A) (A) (A)
                 (A) (A) (A) (A) (A) (A) (A) (A) (A) (A) (A) (A)
                 (A) (A) (A) (A) (A) (A) (A) (A) (A) (A) (A) (A)
                 (A) (A) (A) (A) (A) (A) (A) (A) (A) (A) (A) (A)
                 (A) (A) (A) (A) (A) (A) (A) (A) (A) (A) (A) (A)
                 (A) (A) (A) (A) (A) (A) (A) (A) (A) (A) (A) (A)
                 (A) (A) (A) (A) (A) (A) (A) (A) (A) (A) (A) (A)
                 (A) (A) (A) (A) (A) (A) (A) (A) (A) (A) (A) (A)
                 (A) (A) (A) (A) (A) (A) (A) (A) (A) (A) (A) (A)
                 (A) (A) (A) (A) (A) (A) (A) (A) (A) (A) (A) (A)
                 (A) (A) (A) (A) (A) (A) (A) (A) (A) (A) (A) (A)
                 (A) (A) (A) (A) (A) (A) (A) (A) (A) (A) (A) (A)
                 (A) (A) (A) (A) (A) (A) (A) (A) (A) (A) (A) (A)
                 (A) (A) (A) (A) (A) (A) (A) (A) (A) (A) (A) (A)
    20 initial guesses have been made.
 Convergence on wavefunction:    0.001000000000000
 Davidson Disk Diagonalization:  ConvIn= 1.00D-03 SkipCon=T Conv= 1.00D-03.
 Max sub-space:  2000 roots to seek:    20 dimension of matrix:       549360
 Iteration     1 Dimension    20 NMult     0 NNew     20
 CISAX will form    20 AO SS matrices at one time.
 NMat=    20 NSing=    20 JSym2X= 0.
 FoFJK:  IHMeth= 1 ICntrl=       0 DoSepK=T KAlg= 0 I1Cent=           0 FoldK=F
 IRaf=         1 NMat=      40 IRICut=       1 DoRegI=T DoRafI=F ISym2E= 0 IDoP0=3 IntGTp=3.
 FoFCou: FMM=T IPFlag=           0 FMFlag=      100000 FMFlg1=        2001
         NFxFlg=           0 DoJE=F BraDBF=F KetDBF=F FulRan=T
         wScrn=  0.000000 ICntrl=       500 IOpCl=  0 I1Cent=           0 NGrid=           0
         NMat0=   20 NMatS0=     20 NMatT0=    0 NMatD0=   20 NMtDS0=    0 NMtDT0=    0
 Symmetry not used in FoFCou.
 FMM levels:  10  Number of levels for PrismC:   9
 New state      2 was old state      7
 New state      3 was old state      2
 New state      5 was old state      6
 Excitation Energies [eV] at current iteration:
 Root      1 :     2.184928949514004
 Root      2 :     2.550154049830747
 Root      3 :     2.570206159140194
 Root      4 :     2.582840978905683
 Root      5 :     2.626215175348107
 Root      6 :     2.745764479459718
 Root      7 :     2.948241839135102
 Root      8 :     3.426495602574466
 Root      9 :     3.555645966512036
 Root     10 :     3.611780121943609
 Root     11 :     3.730084780544752
 Root     12 :     3.750436077741547
 Root     13 :     4.060509674196386
 Root     14 :     4.275446855564169
 Root     15 :     4.301630972313415
 Root     16 :     4.378569520887390
 Root     17 :     4.433063934339661
 Root     18 :     4.499334720890600
 Root     19 :     4.514126357561762
 Root     20 :     4.542347729661556
 Iteration     2 Dimension    30 NMult    20 NNew     10
 CISAX will form    10 AO SS matrices at one time.
 NMat=    10 NSing=    10 JSym2X= 0.
 New state      1 was old state      3
 Root      1 not converged, maximum delta is    0.303548052584634
 New state      2 was old state      1
 Root      2 not converged, maximum delta is    0.131344966599544
 New state      3 was old state      2
 Root      3 not converged, maximum delta is    0.144823242741534
 New state      4 was old state      5
 Root      4 not converged, maximum delta is    0.176937545046239
 New state      5 was old state      4
 Root      5 not converged, maximum delta is    0.201421567159678
 Excitation Energies [eV] at current iteration:
 Root      1 :     1.727249358799941   Change is   -0.842956800340253
 Root      2 :     2.172386715117276   Change is   -0.012542234396729
 Root      3 :     2.194330335251182   Change is   -0.355823714579565
 Root      4 :     2.230726042018038   Change is   -0.395489133330069
 Root      5 :     2.578142046134678   Change is   -0.004698932771006
 Iteration     3 Dimension    40 NMult    30 NNew     10
 CISAX will form    10 AO SS matrices at one time.
 NMat=    10 NSing=    10 JSym2X= 0.
 Root      1 not converged, maximum delta is    0.063380062503932
 No map to state      2
 Root      3 not converged, maximum delta is    0.426405179240579
 New state      4 was old state      2
 Root      4 not converged, maximum delta is    0.386061071717010
 New state      5 was old state      4
 Root      5 not converged, maximum delta is    0.179397914508742
 Excitation Energies [eV] at current iteration:
 Root      1 :     1.626253195952817   Change is   -0.100996162847124
 Root      2 :     1.935048943900274
 Root      3 :     2.162463168884048   Change is   -0.031867166367134
 Root      4 :     2.173619606843751   Change is    0.001232891726475
 Root      5 :     2.190041349276719   Change is   -0.040684692741320
 Iteration     4 Dimension    50 NMult    40 NNew     10
 CISAX will form    10 AO SS matrices at one time.
 NMat=    10 NSing=    10 JSym2X= 0.
 Root      1 not converged, maximum delta is    0.031240858837503
 Root      2 not converged, maximum delta is    0.054305999188065
 Root      3 not converged, maximum delta is    0.076949253900354
 Root      4 not converged, maximum delta is    0.122192681271206
 Root      5 not converged, maximum delta is    0.129908249899386
 Excitation Energies [eV] at current iteration:
 Root      1 :     1.609059224458878   Change is   -0.017193971493939
 Root      2 :     1.726664455224395   Change is   -0.208384488675879
 Root      3 :     2.156725577575903   Change is   -0.005737591308145
 Root      4 :     2.171488429689433   Change is   -0.002131177154318
 Root      5 :     2.183805341479334   Change is   -0.006236007797385
 Iteration     5 Dimension    60 NMult    50 NNew     10
 CISAX will form    10 AO SS matrices at one time.
 NMat=    10 NSing=    10 JSym2X= 0.
 Root      1 not converged, maximum delta is    0.017415296023080
 Root      2 not converged, maximum delta is    0.016573226614276
 Root      3 not converged, maximum delta is    0.005327275229618
 Root      4 not converged, maximum delta is    0.015983602130155
 Root      5 not converged, maximum delta is    0.017708617167065
 Excitation Energies [eV] at current iteration:
 Root      1 :     1.606683997038418   Change is   -0.002375227420459
 Root      2 :     1.699981591300750   Change is   -0.026682863923644
 Root      3 :     2.156151834283451   Change is   -0.000573743292453
 Root      4 :     2.171187698265576   Change is   -0.000300731423857
 Root      5 :     2.183225443010802   Change is   -0.000579898468531
 Iteration     6 Dimension    70 NMult    60 NNew     10
 CISAX will form    10 AO SS matrices at one time.
 NMat=    10 NSing=    10 JSym2X= 0.
 Root      1 not converged, maximum delta is    0.003336152300159
 Root      2 not converged, maximum delta is    0.005174736851223
 Root      3 not converged, maximum delta is    0.001101128855053
 Root      4 not converged, maximum delta is    0.002147559441491
 Root      5 not converged, maximum delta is    0.002523197330202
 Excitation Energies [eV] at current iteration:
 Root      1 :     1.606370800060987   Change is   -0.000313196977431
 Root      2 :     1.695845921445580   Change is   -0.004135669855170
 Root      3 :     2.156056878859157   Change is   -0.000094955424293
 Root      4 :     2.171142017978361   Change is   -0.000045680287214
 Root      5 :     2.183145222282274   Change is   -0.000080220728528
 Iteration     7 Dimension    80 NMult    70 NNew     10
 CISAX will form    10 AO SS matrices at one time.
 NMat=    10 NSing=    10 JSym2X= 0.
 Root      1 has converged.
 Root      2 has converged.
[...]
 Alpha virt. eigenvalues --    1.85407   1.85435   1.85604   1.85746   1.85797
 Alpha virt. eigenvalues --    1.85853   1.86038   1.86320   1.86391   1.86700
 Alpha virt. eigenvalues --    1.86897   1.86939   1.87046   1.87124   1.87290
 Alpha virt. eigenvalues --    1.87396   1.87593   1.87707   1.87872   1.88064
 Alpha virt. eigenvalues --    1.88237   1.88319   1.88497   1.88602   1.88883
 Alpha virt. eigenvalues --    1.89098   1.89261   1.89417   1.89751   1.89866
 Alpha virt. eigenvalues --    1.89989   1.90096   1.90257   1.90625   1.90710
 Alpha virt. eigenvalues --    1.91115   1.91261   1.91354   1.91574   1.92116
 Alpha virt. eigenvalues --    1.92175   1.92402   1.93050   1.93101   1.93451
 Alpha virt. eigenvalues --    1.93615   1.93665   1.93781   1.94052   1.94292
 Alpha virt. eigenvalues --    1.94384   1.94835   1.94999   1.95368   1.95452
 Alpha virt. eigenvalues --    1.95521   1.95652   1.95916   1.96093   1.96302
 Alpha virt. eigenvalues --    1.96572   1.96662   1.96762   1.97095   1.97411
 Alpha virt. eigenvalues --    1.97584   1.97706   1.97836   1.98172   1.98380
 Alpha virt. eigenvalues --    1.98511   1.98552   1.99094   1.99193   1.99621
 Alpha virt. eigenvalues --    1.99925   2.00037   2.00059   2.00724   2.00963
 Alpha virt. eigenvalues --    2.01221   2.01503   2.01653   2.01804   2.02175
 Alpha virt. eigenvalues --    2.02372   2.02649   2.02793   2.03144   2.03209
 Alpha virt. eigenvalues --    2.03316   2.03374   2.03701   2.04139   2.04274
 Alpha virt. eigenvalues --    2.04388   2.04817   2.04969   2.05334   2.05668
 Alpha virt. eigenvalues --    2.05892   2.05998   2.06144   2.06480   2.07174
 Alpha virt. eigenvalues --    2.07550   2.07973   2.08258   2.08412   2.08489
 Alpha virt. eigenvalues --    2.08823   2.09028   2.09735   2.10123   2.10690
 Alpha virt. eigenvalues --    2.10891   2.11113   2.11441   2.11496   2.11657
 Alpha virt. eigenvalues --    2.12138   2.12380   2.12516   2.12790   2.12963
 Alpha virt. eigenvalues --    2.13184   2.13222   2.13368   2.14024   2.14461
 Alpha virt. eigenvalues --    2.14534   2.14720   2.15324   2.15574   2.15764
 Alpha virt. eigenvalues --    2.15900   2.16286   2.16514   2.16855   2.17041
 Alpha virt. eigenvalues --    2.17338   2.17680   2.17753   2.17927   2.18020
 Alpha virt. eigenvalues --    2.18220   2.18282   2.18638   2.18834   2.19118
 Alpha virt. eigenvalues --    2.19272   2.19984   2.20261   2.20323   2.20948
 Alpha virt. eigenvalues --    2.20976   2.21327   2.21436   2.21518   2.21921
 Alpha virt. eigenvalues --    2.22383   2.22597   2.22866   2.23263   2.23704
 Alpha virt. eigenvalues --    2.24012   2.24274   2.24605   2.24845   2.25114
 Alpha virt. eigenvalues --    2.25385   2.25652   2.26313   2.26890   2.27302
 Alpha virt. eigenvalues --    2.27705   2.28247   2.28473   2.28759   2.29030
 Alpha virt. eigenvalues --    2.29461   2.29815   2.29933   2.30631   2.30787
 Alpha virt. eigenvalues --    2.31372   2.31565   2.31849   2.32444   2.32577
 Alpha virt. eigenvalues --    2.33004   2.33097   2.33367   2.33858   2.34076
 Alpha virt. eigenvalues --    2.34417   2.34901   2.35589   2.35960   2.36364
 Alpha virt. eigenvalues --    2.36550   2.36594   2.36710   2.36919   2.37246
 Alpha virt. eigenvalues --    2.37921   2.38047   2.38270   2.38586   2.38771
 Alpha virt. eigenvalues --    2.39460   2.39475   2.39591   2.40146   2.40302
 Alpha virt. eigenvalues --    2.40718   2.40895   2.41441   2.41528   2.41872
 Alpha virt. eigenvalues --    2.42050   2.42287   2.42691   2.43035   2.43297
 Alpha virt. eigenvalues --    2.43348   2.43412   2.43962   2.44558   2.44643
 Alpha virt. eigenvalues --    2.44790   2.44923   2.45653   2.45795   2.46002
 Alpha virt. eigenvalues --    2.46121   2.46660   2.46711   2.46824   2.46975
 Alpha virt. eigenvalues --    2.47319   2.47466   2.47971   2.48183   2.48530
 Alpha virt. eigenvalues --    2.48920   2.49348   2.49723   2.50101   2.50294
 Alpha virt. eigenvalues --    2.50610   2.50923   2.51284   2.51396   2.52041
 Alpha virt. eigenvalues --    2.52072   2.52772   2.53318   2.53597   2.53873
 Alpha virt. eigenvalues --    2.54001   2.54115   2.54583   2.54738   2.55192
 Alpha virt. eigenvalues --    2.55602   2.55640   2.56176   2.56622   2.58002
 Alpha virt. eigenvalues --    2.58594   2.58770   2.59536   2.59678   2.60505
 Alpha virt. eigenvalues --    2.61092   2.61550   2.61743   2.61957   2.62444
 Alpha virt. eigenvalues --    2.62505   2.63155   2.63636   2.63875   2.64270
 Alpha virt. eigenvalues --    2.64709   2.64810   2.65004   2.65538   2.65919
 Alpha virt. eigenvalues --    2.66282   2.66640   2.67080   2.67149   2.67290
 Alpha virt. eigenvalues --    2.67624   2.68329   2.68718   2.68864   2.69192
 Alpha virt. eigenvalues --    2.69257   2.69689   2.70205   2.70303   2.70571
 Alpha virt. eigenvalues --    2.70945   2.71257   2.71819   2.72319   2.72468
 Alpha virt. eigenvalues --    2.72818   2.72994   2.73198   2.73557   2.73657
 Alpha virt. eigenvalues --    2.74137   2.74818   2.75108   2.75172   2.75415
 Alpha virt. eigenvalues --    2.76033   2.76650   2.77035   2.77411   2.77710
 Alpha virt. eigenvalues --    2.77879   2.78057   2.78413   2.78619   2.78671
 Alpha virt. eigenvalues --    2.79229   2.79408   2.80036   2.80286   2.80543
 Alpha virt. eigenvalues --    2.81142   2.81590   2.81684   2.82042   2.82382
 Alpha virt. eigenvalues --    2.82454   2.82797   2.83095   2.83296   2.83676
 Alpha virt. eigenvalues --    2.84064   2.84207   2.84637   2.84915   2.84998
 Alpha virt. eigenvalues --    2.85161   2.85296   2.85833   2.86376   2.86906
 Alpha virt. eigenvalues --    2.87335   2.88028   2.88204   2.88607   2.88738
 Alpha virt. eigenvalues --    2.89082   2.89266   2.89559   2.90643   2.91224
 Alpha virt. eigenvalues --    2.91629   2.92298   2.93376   2.93881   2.94278
 Alpha virt. eigenvalues --    2.94622   2.94816   2.94967   2.95591   2.95888
 Alpha virt. eigenvalues --    2.96066   2.96535   2.96785   2.97070   2.97750
 Alpha virt. eigenvalues --    2.98161   2.98297   2.98398   2.98466   2.98693
 Alpha virt. eigenvalues --    2.98822   2.99054   2.99239   2.99332   2.99658
 Alpha virt. eigenvalues --    2.99702   2.99920   3.00181   3.00437   3.00590
 Alpha virt. eigenvalues --    3.00753   3.01064   3.01284   3.02016   3.02071
 Alpha virt. eigenvalues --    3.02145   3.02466   3.02894   3.03130   3.03302
 Alpha virt. eigenvalues --    3.03867   3.03938   3.04362   3.04488   3.04753
 Alpha virt. eigenvalues --    3.04957   3.05043   3.05210   3.05329   3.05833
 Alpha virt. eigenvalues --    3.06052   3.06651   3.06976   3.07206   3.07842
 Alpha virt. eigenvalues --    3.08347   3.09131   3.09377   3.09585   3.09836
 Alpha virt. eigenvalues --    3.09957   3.10476   3.11060   3.11511   3.11707
 Alpha virt. eigenvalues --    3.11817   3.12102   3.12476   3.12932   3.13043
 Alpha virt. eigenvalues --    3.13923   3.13964   3.14038   3.14271   3.15504
 Alpha virt. eigenvalues --    3.16147   3.16217   3.17540   3.17666   3.17927
 Alpha virt. eigenvalues --    3.18116   3.18244   3.19127   3.19312   3.20337
 Alpha virt. eigenvalues --    3.22119   3.24270   3.24588   3.24943   3.25302
 Alpha virt. eigenvalues --    3.26342   3.26974   3.27247   3.27974   3.28581
 Alpha virt. eigenvalues --    3.28832   3.31004   3.31899   3.32062   3.33419
 Alpha virt. eigenvalues --    3.33568   3.40559   3.42776   3.43107   3.45615
 Alpha virt. eigenvalues --    3.48818   3.49208   3.50241   3.50655   3.51357
 Alpha virt. eigenvalues --    3.51884   3.56502   3.57336   3.59359   3.59641
 Alpha virt. eigenvalues --    3.62965   3.63048   3.65879   3.66343   3.67448
 Alpha virt. eigenvalues --    3.71059   3.74019   3.75838   3.76790   3.78790
          Condensed to atoms (all electrons):
 Mulliken charges:
               1
     1  Mg   0.470865
     2  C   -0.009416
     3  C   -0.090066
     4  C   -0.047262
     5  C   -0.064988
     6  N   -0.245658
     7  C   -0.085211
     8  C   -0.005486
     9  C   -0.081366
    10  C    0.054868
    11  C    0.105348
    12  C    0.045377
    13  C   -0.071306
    14  H    0.040387
    15  N   -0.425057
    16  C    0.169645
    17  C   -0.178098
    18  C   -0.008073
    19  C    0.153112
    20  C    0.111000
    21  C    0.008746
    22  O   -0.249856
    23  C    0.063501
    24  N   -0.322839
    25  C    0.043096
    26  C   -0.026754
    27  C   -0.023939
    28  C    0.077455
    29  C    0.076590
    30  C    0.045161
    31  C   -0.024024
    32  N   -0.280913
    33  C    0.086356
    34  C   -0.160294
    35  C   -0.043411
    36  C    0.068433
    37  C    0.134369
    38  C   -0.016065
    39  O   -0.176772
    40  C    0.022666
    41  C    0.232243
    42  O   -0.256642
    43  O   -0.302279
    44  C    0.152966
    45  H   -0.018419
    46  H   -0.018114
    47  H   -0.041913
    48  H   -0.001735
    49  H   -0.004596
    50  H    0.025408
    51  H    0.017898
    52  H    0.017051
    53  H    0.013003
    54  H    0.048007
    55  H    0.018501
    56  H    0.018948
    57  H    0.006358
    58  H    0.027257
    59  H    0.037965
    60  H    0.038869
    61  H    0.035643
    62  H    0.028926
    63  H    0.014911
    64  H    0.010679
    65  H    0.023508
    66  H    0.013134
    67  H    0.005566
    68  H    0.006884
    69  H    0.005822
    70  H    0.011737
    71  H    0.022423
    72  H    0.031952
    73  H    0.045415
    74  H    0.010768
    75  H    0.047056
    76  H    0.040367
    77  H    0.046127
    78  H    0.048711
    79  H    0.061722
    80  Mg   0.836435
    81  C   -0.014354
    82  C   -0.089397
    83  C   -0.046496
    84  C   -0.066385
    85  N   -0.254080
    86  C   -0.044963
    87  C   -0.033436
    88  C   -0.101373
    89  C    0.045422
    90  C    0.109206
    91  C    0.151253
    92  C   -0.228764
    93  H    0.162025
    94  N   -0.423394
    95  C    0.162019
    96  C   -0.175131
    97  C   -0.008951
    98  C    0.151925
    99  C    0.099440
   100  C    0.014814
   101  O   -0.254195
   102  C    0.061609
   103  N   -0.350430
   104  C    0.037245
   105  C   -0.019490
   106  C   -0.034810
   107  C    0.089545
   108  C    0.074003
   109  C    0.034982
   110  C   -0.007512
   111  N   -0.324148
   112  C    0.079072
   113  C   -0.164115
   114  C    0.003568
   115  C    0.094918
   116  C    0.131526
   117  C    0.040773
   118  O   -0.185325
   119  C    0.007666
   120  C    0.215266
   121  O   -0.249819
   122  O   -0.317754
   123  C    0.209617
   124  H   -0.017840
   125  H   -0.016768
   126  H   -0.041355
   127  H    0.005850
   128  H    0.005587
   129  H    0.027398
   130  H    0.011639
   131  H    0.023544
   132  H    0.005806
   133  H    0.042382
   134  H    0.153292
   135  H    0.137620
   136  H    0.008237
   137  H    0.025758
   138  H    0.036847
   139  H    0.037914
   140  H    0.035284
   141  H    0.032621
   142  H    0.013606
   143  H    0.011833
   144  H    0.024256
   145  H    0.011563
   146  H    0.004963
   147  H    0.005476
   148  H    0.003350
   149  H    0.010439
   150  H    0.017256
   151  H    0.030650
   152  H    0.046472
   153  H    0.007503
   154  H    0.046128
   155  H    0.030677
   156  H    0.047889
   157  H    0.027741
   158  H    0.066126
 Sum of Mulliken charges =  -0.00000
 Mulliken charges with hydrogens summed into heavy atoms:
               1
     1  Mg   0.470865
     2  C   -0.009416
     3  C   -0.108485
     4  C   -0.065376
     5  C   -0.106901
     6  N   -0.245658
     7  C   -0.085211
     8  C   -0.007221
     9  C   -0.085962
    10  C    0.054868
    11  C    0.165704
    12  C    0.106386
    13  C    0.006530
    15  N   -0.425057
    16  C    0.169645
    17  C   -0.178098
    18  C   -0.008073
    19  C    0.153112
    20  C    0.182580
    21  C    0.008746
    22  O   -0.249856
    23  C    0.166939
    24  N   -0.322839
    25  C    0.043096
    26  C   -0.011844
    27  C   -0.013260
    28  C    0.077455
    29  C    0.118798
    30  C    0.057868
    31  C    0.042088
    32  N   -0.280913
    33  C    0.086356
    34  C   -0.160294
    35  C   -0.043411
    36  C    0.068433
    37  C    0.237608
    38  C   -0.016065
    39  O   -0.176772
    40  C    0.063033
    41  C    0.232243
    42  O   -0.256642
    43  O   -0.302279
    44  C    0.309526
    80  Mg   0.836435
    81  C   -0.014354
    82  C   -0.107237
    83  C   -0.063264
    84  C   -0.107740
    85  N   -0.254080
    86  C   -0.044963
    87  C   -0.027586
    88  C   -0.095786
    89  C    0.045422
    90  C    0.171787
    91  C    0.199440
    92  C    0.224174
    94  N   -0.423394
    95  C    0.162019
    96  C   -0.175131
    97  C   -0.008951
    98  C    0.151925
    99  C    0.170282
   100  C    0.014814
   101  O   -0.254195
   102  C    0.167428
   103  N   -0.350430
   104  C    0.037245
   105  C   -0.005884
   106  C   -0.022977
   107  C    0.089545
   108  C    0.114785
   109  C    0.043808
   110  C    0.050833
   111  N   -0.324148
   112  C    0.079072
   113  C   -0.164115
   114  C    0.003568
   115  C    0.094918
   116  C    0.231629
   117  C    0.040773
   118  O   -0.185325
   119  C    0.038343
   120  C    0.215266
   121  O   -0.249819
   122  O   -0.317754
   123  C    0.351373
 Electronic spatial extent (au):  <R**2>=          91994.2719
 Charge=             -0.0000 electrons
 Dipole moment (field-independent basis, Debye):
    X=              3.8482    Y=              6.2232    Z=             -2.3932  Tot=              7.6983
 Quadrupole moment (field-independent basis, Debye-Ang):
   XX=           -493.0176   YY=           -545.9735   ZZ=           -471.6291
   XY=             28.3587   XZ=            -25.8118   YZ=             -9.1622
 Traceless Quadrupole moment (field-independent basis, Debye-Ang):
   XX=             10.5225   YY=            -42.4335   ZZ=             31.9110
   XY=             28.3587   XZ=            -25.8118   YZ=             -9.1622
 Octapole moment (field-independent basis, Debye-Ang**2):
  XXX=             88.0513  YYY=            201.4992  ZZZ=            -16.4919  XYY=            -58.1351
  XXY=           -266.8859  XXZ=             34.7892  XZZ=            212.5375  YZZ=            -48.5276
  YYZ=           -243.5080  XYZ=            -39.1535
 Hexadecapole moment (field-independent basis, Debye-Ang**3):
 XXXX=         -74376.6671 YYYY=         -34361.6486 ZZZZ=         -16634.2178 XXXY=           3164.2759
 XXXZ=          -1632.7187 YYYX=             -4.3942 YYYZ=           -330.0280 ZZZX=            -93.9995
 ZZZY=            416.2906 XXYY=         -18452.0382 XXZZ=         -14849.9783 YYZZ=          -8037.0449
 XXYZ=            121.5155 YYXZ=           -608.9239 ZZXY=           -213.7028
 N-N= 1.633602404339D+04 E-N=-4.215329463073D+04  KE= 4.029208034490D+03
 Leave Link  601 at Thu Sep  9 23:19:03 2021, MaxMem= 23488102400 cpu:              17.1 elap:               0.9
 (Enter /sw/apps/gaussian-16.0/g16/l9999.exe)
 1\1\GINC-BP1-COMPUTE00089\SP\RCAM-B3LYP TD-FC\def2SVP\C68H72Mg2N8O8\OF
 15641\09-Sep-2021\0\\#p cam-b3lyp/Def2SVP td=(nstates=5)\\TDDFT excite
 d states in gaussian\\0,1\Mg,0,0.,0.,0.\C,0,-0.217,-2.218,2.801\C,0,-1
 .255,2.442,2.026\C,0,-0.245,1.85,-2.564\C,0,0.146,-2.824,-2.037\N,0,-0
 .617,-0.009,2.126\C,0,-0.594,-0.908,3.105\C,0,-0.936,-0.309,4.502\C,0,
 -1.773,0.964,4.032\C,0,-1.155,1.168,2.66\C,0,-3.263,0.685,3.863\C,0,0.
 345,0.11,5.299\C,0,0.124,0.397,6.787\H,0,1.168,0.033,7.733\N,0,-0.185,
 1.961,-0.152\C,0,-0.703,2.8,0.777\C,0,-0.62,4.156,0.193\C,0,-0.187,4.0
 15,-1.225\C,0,-0.214,2.583,-1.38\C,0,-0.887,5.406,0.974\C,0,0.181,5.01
 3,-2.277\O,0,0.303,4.69,-3.508\C,0,0.31,6.414,-1.837\N,0,-0.265,-0.413
 ,-2.029\C,0,-0.279,0.569,-2.937\C,0,-0.196,0.024,-4.332\C,0,0.124,-1.5
 33,-4.18\C,0,0.086,-1.632,-2.635\C,0,-1.451,0.205,-5.197\C,0,1.373,-2.
 07,-4.923\C,0,2.626,-1.49,-4.306\N,0,0.15,-2.144,0.303\C,0,0.173,-3.13
 6,-0.688\C,0,0.173,-4.438,0.004\C,0,0.133,-4.111,1.358\C,0,0.083,-2.69
 5,1.502\C,0,0.149,-5.715,-0.623\C,0,0.096,-4.629,2.716\O,0,0.208,-5.74
 7,3.221\C,0,-0.255,-3.428,3.701\C,0,0.717,-3.482,4.848\O,0,1.931,-3.25
 5,4.669\O,0,0.038,-3.556,6.003\C,0,0.943,-3.583,7.183\H,0,-1.859,3.22,
 2.497\H,0,-0.218,2.453,-3.474\H,0,0.276,-3.747,-2.605\H,0,-1.554,-0.94
 9,5.132\H,0,-1.585,1.831,4.665\H,0,-3.484,-0.377,3.969\H,0,-3.511,1.02
 7,2.858\H,0,-3.852,1.301,4.543\H,0,0.669,1.096,4.966\H,0,1.13,-0.639,5
 .189\H,0,-0.844,0.026,7.125\H,0,0.062,1.477,6.921\H,0,-1.344,5.186,1.9
 38\H,0,-1.651,5.963,0.432\H,0,0.007,6.02,1.084\H,0,-0.635,6.744,-1.405
 \H,0,0.665,6.97,-2.704\H,0,1.048,6.466,-1.036\H,0,0.608,0.501,-4.891\H
 ,0,-0.692,-2.156,-4.547\H,0,-1.267,0.74,-6.129\H,0,-2.204,0.714,-4.596
 \H,0,-1.967,-0.72,-5.453\H,0,1.356,-1.759,-5.967\H,0,1.452,-3.157,-4.9
 02\H,0,2.714,-0.522,-4.798\H,0,3.487,-2.121,-4.529\H,0,2.495,-1.303,-3
 .24\H,0,0.867,-6.333,-0.084\H,0,0.404,-5.642,-1.68\H,0,-0.891,-5.999,-
 0.463\H,0,-1.283,-3.581,4.028\H,0,0.698,-4.478,7.755\H,0,0.833,-2.619,
 7.68\H,0,2.,-3.754,6.976\Mg,0,8.92684,0.80808,0.68529\C,0,6.57255,-1.9
 0049,0.68159\C,0,6.42009,2.79142,-0.50515\C,0,11.07974,3.09788,0.25024
 \C,0,11.46351,-1.58024,0.7687\N,0,6.81243,0.38484,0.19296\C,0,6.01266,
 -0.66646,0.29029\C,0,4.51377,-0.36094,0.02656\C,0,4.69175,0.95704,-0.8
 7351\C,0,6.04216,1.43455,-0.34335\C,0,4.83937,0.65791,-2.35609\C,0,3.7
 2525,-0.05223,1.34753\C,0,2.20196,-0.04943,1.20146\H,0,1.39523,-0.5449
 5,2.31327\N,0,8.69113,2.76444,0.44936\C,0,7.60001,3.4012,-0.02529\C,0,
 7.93648,4.83331,-0.02145\C,0,9.37329,4.97661,0.33878\C,0,9.78466,3.587
 06,0.3398\C,0,6.91762,5.9092,-0.26186\C,0,10.23749,6.16804,0.62141\O,0
 ,11.51447,6.07486,0.68018\C,0,9.55148,7.46344,0.73469\N,0,10.97278,0.7
 6844,0.31798\C,0,11.68012,1.9079,0.22192\C,0,13.16457,1.63098,0.23251\
 C,0,13.30993,0.08148,0.60063\C,0,11.81611,-0.30718,0.65391\C,0,13.9035
 4,1.91464,-1.0751\C,0,14.20938,-0.27158,1.81678\C,0,13.57381,0.23265,3
 .09239\N,0,9.03544,-1.33852,0.90518\C,0,10.19781,-2.14016,0.88649\C,0,
 9.75672,-3.54831,0.95713\C,0,8.35633,-3.46848,0.98905\C,0,7.95255,-2.1
 0765,0.92128\C,0,10.60813,-4.68882,0.93567\C,0,7.12756,-4.22651,1.0539
 5\O,0,6.84662,-5.41365,1.21362\C,0,5.91466,-3.25158,0.73021\C,0,4.8492
 4,-3.47512,1.7682\O,0,5.05799,-3.18825,2.96015\O,0,3.69295,-3.78393,1.
 15338\C,0,2.60297,-4.00402,2.14096\H,0,5.77253,3.44398,-1.09143\H,0,11
 .86754,3.85371,0.21033\H,0,12.19633,-2.37957,0.89797\H,0,3.98606,-1.12
 441,-0.53237\H,0,3.91752,1.68918,-0.65926\H,0,4.91889,-0.40193,-2.5473
 \H,0,5.74052,1.16779,-2.67076\H,0,4.02103,1.1185,-2.91689\H,0,3.88927,
 0.99683,1.62558\H,0,4.01206,-0.72839,2.12931\H,0,1.8775,-0.50523,0.258
 11\H,0,1.86218,0.9866,1.12936\H,0,5.98378,5.49644,-0.66309\H,0,7.30414
 ,6.54104,-1.06886\H,0,6.74376,6.52933,0.62011\H,0,9.01468,7.66973,-0.1
 8821\H,0,10.32328,8.1783,1.02654\H,0,8.79855,7.39243,1.52758\H,0,13.66
 26,2.22088,0.99217\H,0,13.75497,-0.4934,-0.22477\H,0,14.73901,2.63041,
 -0.95789\H,0,13.18783,2.28083,-1.79913\H,0,14.31012,1.03741,-1.57546\H
 ,0,15.17582,0.23131,1.7317\H,0,14.40662,-1.33394,1.91415\H,0,13.88116,
 1.28226,3.12309\H,0,13.95387,-0.31522,3.9523\H,0,12.48007,0.21135,3.02
 228\H,0,10.23675,-5.36884,1.69075\H,0,11.64456,-4.4148,1.12146\H,0,10.
 45145,-5.02987,-0.09117\H,0,5.56323,-3.48841,-0.27476\H,0,2.1927,-4.99
 995,1.94732\H,0,1.91604,-3.14482,2.02417\H,0,2.88201,-4.0895,3.18465\\
 Version=ES64L-G16RevA.03\State=1-A\HF=-4069.758118\RMSD=7.441e-09\PG=C
 01 [X(C68H72Mg2N8O8)]\\@


 IF YOU PERCEIVE THAT THERE ARE FOUR POSSIBLE WAYS IN
 WHICH A PROCEDURE CAN GO WRONG AND CIRCUMVENT THESE, 
 THEN A FIFTH WAY WILL DEVELOP.

                              -- MURPHY'S TWELFTH LAW
 Job cpu time:       0 days 20 hours 41 minutes 41.5 seconds.
 Elapsed time:       0 days  0 hours 52 minutes 28.6 seconds.
 File lengths (MBytes):  RWF=  13225 Int=      0 D2E=      0 Chk=    574 Scr=      1
 Normal termination of Gaussian 16 at Thu Sep  9 23:19:04 2021.
