 Entering Gaussian System, Link 0=g16
 Initial command:
 /sw/apps/gaussian-16.0/g16/l1.exe "/tmp/Gau-94667.inp" -scrdir="/tmp/"
 Entering Link 1 = /sw/apps/gaussian-16.0/g16/l1.exe PID=     94668.
  
 Copyright (c) 1988,1990,1992,1993,1995,1998,2003,2009,2016,
            Gaussian, Inc.  All Rights Reserved.
  
 This is part of the Gaussian(R) 16 program.  It is based on
 the Gaussian(R) 09 system (copyright 2009, Gaussian, Inc.),
 the Gaussian(R) 03 system (copyright 2003, Gaussian, Inc.),
 the Gaussian(R) 98 system (copyright 1998, Gaussian, Inc.),
 the Gaussian(R) 94 system (copyright 1995, Gaussian, Inc.),
 the Gaussian 92(TM) system (copyright 1992, Gaussian, Inc.),
 the Gaussian 90(TM) system (copyright 1990, Gaussian, Inc.),
 the Gaussian 88(TM) system (copyright 1988, Gaussian, Inc.),
 the Gaussian 86(TM) system (copyright 1986, Carnegie Mellon
 University), and the Gaussian 82(TM) system (copyright 1983,
 Carnegie Mellon University). Gaussian is a federally registered
 trademark of Gaussian, Inc.
  
 This software contains proprietary and confidential information,
 including trade secrets, belonging to Gaussian, Inc.
  
 This software is provided under written license and may be
 used, copied, transmitted, or stored only in accord with that
 written license.
  
 The following legend is applicable only to US Government
 contracts under FAR:
  
                    RESTRICTED RIGHTS LEGEND
  
 Use, reproduction and disclosure by the US Government is
 subject to restrictions as set forth in subparagraphs (a)
 and (c) of the Commercial Computer Software - Restricted
 Rights clause in FAR 52.227-19.
  
 Gaussian, Inc.
 340 Quinnipiac St., Bldg. 40, Wallingford CT 06492
  
  
 ---------------------------------------------------------------
 Warning -- This program may not be used in any manner that
 competes with the business of Gaussian, Inc. or will provide
 assistance to any competitor of Gaussian, Inc.  The licensee
 of this program is prohibited from giving any competitor of
 Gaussian, Inc. access to this program.  By using this program,
 the user acknowledges that Gaussian, Inc. is engaged in the
 business of creating and licensing software in the field of
 computational chemistry and represents and warrants to the
 licensee that it is not a competitor of Gaussian, Inc. and that
 it will not use this program in any manner prohibited above.
 ---------------------------------------------------------------
  

 Cite this work as:
 Gaussian 16, Revision A.03,
 M. J. Frisch, G. W. Trucks, H. B. Schlegel, G. E. Scuseria, 
 M. A. Robb, J. R. Cheeseman, G. Scalmani, V. Barone, 
 G. A. Petersson, H. Nakatsuji, X. Li, M. Caricato, A. V. Marenich, 
 J. Bloino, B. G. Janesko, R. Gomperts, B. Mennucci, H. P. Hratchian, 
 J. V. Ortiz, A. F. Izmaylov, J. L. Sonnenberg, D. Williams-Young, 
 F. Ding, F. Lipparini, F. Egidi, J. Goings, B. Peng, A. Petrone, 
 T. Henderson, D. Ranasinghe, V. G. Zakrzewski, J. Gao, N. Rega, 
 G. Zheng, W. Liang, M. Hada, M. Ehara, K. Toyota, R. Fukuda, 
 J. Hasegawa, M. Ishida, T. Nakajima, Y. Honda, O. Kitao, H. Nakai, 
 T. Vreven, K. Throssell, J. A. Montgomery, Jr., J. E. Peralta, 
 F. Ogliaro, M. J. Bearpark, J. J. Heyd, E. N. Brothers, K. N. Kudin, 
 V. N. Staroverov, T. A. Keith, R. Kobayashi, J. Normand, 
 K. Raghavachari, A. P. Rendell, J. C. Burant, S. S. Iyengar, 
 J. Tomasi, M. Cossi, J. M. Millam, M. Klene, C. Adamo, R. Cammi, 
 J. W. Ochterski, R. L. Martin, K. Morokuma, O. Farkas, 
 J. B. Foresman, and D. J. Fox, Gaussian, Inc., Wallingford CT, 2016.
 
 ******************************************
 Gaussian 16:  ES64L-G16RevA.03 25-Dec-2016
                 9-Sep-2021 
 ******************************************
 %nproc=24
 Will use up to   24 processors via shared memory.
 %mem=175gb
 -----------------------------------
 #p cam-b3lyp/Def2SVP td=(nstates=5)
 -----------------------------------
 1/38=1,172=1/1;
 2/12=2,17=6,18=5,40=1/2;
 3/5=43,7=101,11=9,25=1,30=1,74=-40/1,2,3,8;
 4//1;
 5/5=2,38=5/2;
 8/6=1,10=1,108=5/1;
 9/41=5,42=1,70=2/14;
 6/7=2,8=2,9=2,10=2/1;
 99/5=1,9=1/99;
 Leave Link    1 at Thu Sep  9 10:11:17 2021, MaxMem= 23488102400 cpu:               0.8 elap:               0.0
 (Enter /sw/apps/gaussian-16.0/g16/l101.exe)
 --------------------------------
 TDDFT excited states in gaussian
 --------------------------------
 Symbolic Z-matrix:
 Charge =  0 Multiplicity = 1
 Mg                    0.        0.        0. 
 C                    -0.217    -2.218     2.801 
 C                    -1.255     2.442     2.026 
 C                    -0.245     1.85     -2.564 
 C                     0.146    -2.824    -2.037 
 N                    -0.617    -0.009     2.126 
 C                    -0.594    -0.908     3.105 
 C                    -0.936    -0.309     4.502 
 C                    -1.773     0.964     4.032 
 C                    -1.155     1.168     2.66 
 C                    -3.263     0.685     3.863 
 C                     0.345     0.11      5.299 
 C                     0.124     0.397     6.787 
 H                     1.168     0.033     7.733 
 N                    -0.185     1.961    -0.152 
 C                    -0.703     2.8       0.777 
 C                    -0.62      4.156     0.193 
 C                    -0.187     4.015    -1.225 
 C                    -0.214     2.583    -1.38 
 C                    -0.887     5.406     0.974 
 C                     0.181     5.013    -2.277 
 O                     0.303     4.69     -3.508 
 C                     0.31      6.414    -1.837 
 N                    -0.265    -0.413    -2.029 
 C                    -0.279     0.569    -2.937 
 C                    -0.196     0.024    -4.332 
 C                     0.124    -1.533    -4.18 
 C                     0.086    -1.632    -2.635 
 C                    -1.451     0.205    -5.197 
 C                     1.373    -2.07     -4.923 
 C                     2.626    -1.49     -4.306 
 N                     0.15     -2.144     0.303 
 C                     0.173    -3.136    -0.688 
 C                     0.173    -4.438     0.004 
 C                     0.133    -4.111     1.358 
 C                     0.083    -2.695     1.502 
 C                     0.149    -5.715    -0.623 
 C                     0.096    -4.629     2.716 
 O                     0.208    -5.747     3.221 
 C                    -0.255    -3.428     3.701 
 C                     0.717    -3.482     4.848 
 O                     1.931    -3.255     4.669 
 O                     0.038    -3.556     6.003 
 C                     0.943    -3.583     7.183 
 H                    -1.859     3.22      2.497 
 H                    -0.218     2.453    -3.474 
 H                     0.276    -3.747    -2.605 
 H                    -1.554    -0.949     5.132 
 H                    -1.585     1.831     4.665 
 H                    -3.484    -0.377     3.969 
 H                    -3.511     1.027     2.858 
 H                    -3.852     1.301     4.543 
 H                     0.669     1.096     4.966 
 H                     1.13     -0.639     5.189 
 H                    -0.844     0.026     7.125 
 H                     0.062     1.477     6.921 
 H                    -1.344     5.186     1.938 
 H                    -1.651     5.963     0.432 
 H                     0.007     6.02      1.084 
 H                    -0.635     6.744    -1.405 
 H                     0.665     6.97     -2.704 
 H                     1.048     6.466    -1.036 
 H                     0.608     0.501    -4.891 
 H                    -0.692    -2.156    -4.547 
 H                    -1.267     0.74     -6.129 
 H                    -2.204     0.714    -4.596 
 H                    -1.967    -0.72     -5.453 
 H                     1.356    -1.759    -5.967 
 H                     1.452    -3.157    -4.902 
 H                     2.714    -0.522    -4.798 
 H                     3.487    -2.121    -4.529 
 H                     2.495    -1.303    -3.24 
 H                     0.867    -6.333    -0.084 
 H                     0.404    -5.642    -1.68 
 H                    -0.891    -5.999    -0.463 
 H                    -1.283    -3.581     4.028 
 H                     0.698    -4.478     7.755 
 H                     0.833    -2.619     7.68 
 H                     2.       -3.754     6.976 
 Mg                    7.88888   0.71544   0.60564 
 C                     7.98143  -1.48523   3.43893 
 C                     6.35887   3.00293   2.62085 
 C                     7.38592   2.49992  -1.96926 
 C                     8.35835  -2.08748  -1.41152 
 N                     7.3005    0.65075   2.73681 
 C                     7.44201  -0.21476   3.72939 
 C                     7.05369   0.33953   5.12636 
 C                     6.04929   1.50006   4.65389 
 C                     6.62026   1.76598   3.2625 
 C                     4.61353   1.02699   4.49858 
 C                     8.28607   0.92634   5.90026 
 C                     8.04103   1.20177   7.38547 
 H                     9.13869   0.98506   8.3239 
 N                     7.4583    2.6461    0.44522 
 C                     6.85651   3.42505   1.36845 
 C                     6.75003   4.76041   0.76046 
 C                     7.18869   4.66611  -0.65848 
 C                     7.34499   3.23153  -0.79129 
 C                     6.3451    5.97873   1.53838 
 C                     7.41597   5.69552  -1.72378 
 O                     7.56651   5.36935  -2.95414 
 C                     7.36397   7.10183  -1.29827 
 N                     7.66144   0.2523   -1.40834 
 C                     7.507     1.2215   -2.32743 
 C                     7.64021   0.67172  -3.72757 
 C                     8.15863  -0.8309   -3.5516 
 C                     8.14974  -0.92274  -2.00989 
 C                     6.36314   0.67413  -4.5675 
 C                     9.45841  -1.22004  -4.30777 
 C                     10.63767  -0.47587  -3.72385 
 N                     8.31278  -1.37864   0.92687 
 C                     8.44431  -2.383    -0.05702 
 C                     8.61573  -3.6675    0.65226 
 C                     8.54846  -3.3217    2.01034 
 C                     8.32899  -1.92349   2.1382 
 C                     8.75548  -4.94433   0.03882 
 C                     8.60259  -3.82311   3.36473 
 O                     8.85253  -4.91286   3.87825 
 C                     8.11152  -2.67533   4.34852 
 C                     9.09379  -2.58519   5.4841 
 O                     10.26523  -2.22143   5.27913 
 O                     8.43581  -2.73179   6.64855 
 C                     9.36607  -2.63885   7.80517 
 H                     5.67371   3.702     3.10121 
 H                     7.32798   3.08507  -2.88998 
 H                     8.60857  -2.99316  -1.96811 
 H                     6.53437  -0.36405   5.76593 
 H                     6.14387   2.38341   5.28007 
 H                     4.52667  -0.04276   4.61788 
 H                     4.31272   1.32218   3.50187 
 H                     3.96025   1.57348   5.1848 
 H                     8.47614   1.94852   5.54847 
 H                     9.14405   0.29257   5.78702 
 H                     7.12463   0.72056   7.74822 
 H                     7.85145   2.27026   7.51359 
 H                     5.9235    5.71065   2.515 
 H                     5.51021   6.43943   0.99933 
 H                     7.15274   6.70823   1.6291 
 H                     6.39283   7.30941  -0.85526 
 H                     7.63839   7.68426  -2.17994 
 H                     8.10906   7.25659  -0.50991 
 H                     8.37307   1.23213  -4.29498 
 H                     7.42075  -1.56159  -3.91419 
 H                     6.46813   1.22738  -5.51984 
 H                     5.56312   1.09219  -3.97107 
 H                     5.97363  -0.311    -4.81852 
 H                     9.39064  -0.9203   -5.35644 
 H                     9.66621  -2.2847   -4.28992 
 H                     10.5913   0.49423  -4.22767 
 H                     11.56753  -0.99391  -3.94977 
 H                     10.49842  -0.29728  -2.6513 
 H                     9.54423  -5.46029   0.57 
 H                     8.98255  -4.85336  -1.02133 
 H                     7.7565   -5.3538    0.21098 
 H                     7.11189  -2.94397   4.69225 
 H                     9.23885  -3.55391   8.39184 
 H                     9.12571  -1.68208   8.30574 
 H                     10.4292  -2.66729   7.59685 
 
 ITRead=  0  0  0  0  0  0  0  0  0  0  0  0  0  0  0  0  0  0  0  0
 ITRead=  0  0  0  0  0  0  0  0  0  0  0  0  0  0  0  0  0  0  0  0
 ITRead=  0  0  0  0  0  0  0  0  0  0  0  0  0  0  0  0  0  0  0  0
 ITRead=  0  0  0  0  0  0  0  0  0  0  0  0  0  0  0  0  0  0  0  0
 ITRead=  0  0  0  0  0  0  0  0  0  0  0  0  0  0  0  0  0  0  0  0
 ITRead=  0  0  0  0  0  0  0  0  0  0  0  0  0  0  0  0  0  0  0  0
 ITRead=  0  0  0  0  0  0  0  0  0  0  0  0  0  0  0  0  0  0  0  0
 ITRead=  0  0  0  0  0  0  0  0  0  0  0  0  0  0  0  0  0  0
 MicOpt= -1 -1 -1 -1 -1 -1 -1 -1 -1 -1 -1 -1 -1 -1 -1 -1 -1 -1 -1 -1
 MicOpt= -1 -1 -1 -1 -1 -1 -1 -1 -1 -1 -1 -1 -1 -1 -1 -1 -1 -1 -1 -1
 MicOpt= -1 -1 -1 -1 -1 -1 -1 -1 -1 -1 -1 -1 -1 -1 -1 -1 -1 -1 -1 -1
 MicOpt= -1 -1 -1 -1 -1 -1 -1 -1 -1 -1 -1 -1 -1 -1 -1 -1 -1 -1 -1 -1
 MicOpt= -1 -1 -1 -1 -1 -1 -1 -1 -1 -1 -1 -1 -1 -1 -1 -1 -1 -1 -1 -1
 MicOpt= -1 -1 -1 -1 -1 -1 -1 -1 -1 -1 -1 -1 -1 -1 -1 -1 -1 -1 -1 -1
 MicOpt= -1 -1 -1 -1 -1 -1 -1 -1 -1 -1 -1 -1 -1 -1 -1 -1 -1 -1 -1 -1
 MicOpt= -1 -1 -1 -1 -1 -1 -1 -1 -1 -1 -1 -1 -1 -1 -1 -1 -1 -1
 NAtoms=    158 NQM=      158 NQMF=       0 NMMI=      0 NMMIF=      0
                NMic=       0 NMicF=      0.
                    Isotopes and Nuclear Properties:
 (Nuclear quadrupole moments (NQMom) in fm**2, nuclear magnetic moments (NMagM)
  in nuclear magnetons)

  Atom         1           2           3           4           5           6           7           8           9          10
 IAtWgt=          24          12          12          12          12          14          12          12          12          12
 AtmWgt=  23.9850450  12.0000000  12.0000000  12.0000000  12.0000000  14.0030740  12.0000000  12.0000000  12.0000000  12.0000000
 NucSpn=           0           0           0           0           0           2           0           0           0           0
 AtZEff=  -0.0000000  -0.0000000  -0.0000000  -0.0000000  -0.0000000  -0.0000000  -0.0000000  -0.0000000  -0.0000000  -0.0000000
 NQMom=    0.0000000   0.0000000   0.0000000   0.0000000   0.0000000   2.0440000   0.0000000   0.0000000   0.0000000   0.0000000
 NMagM=    0.0000000   0.0000000   0.0000000   0.0000000   0.0000000   0.4037610   0.0000000   0.0000000   0.0000000   0.0000000
 AtZNuc=  12.0000000   6.0000000   6.0000000   6.0000000   6.0000000   7.0000000   6.0000000   6.0000000   6.0000000   6.0000000

  Atom        11          12          13          14          15          16          17          18          19          20
 IAtWgt=          12          12          12           1          14          12          12          12          12          12
 AtmWgt=  12.0000000  12.0000000  12.0000000   1.0078250  14.0030740  12.0000000  12.0000000  12.0000000  12.0000000  12.0000000
 NucSpn=           0           0           0           1           2           0           0           0           0           0
 AtZEff=  -0.0000000  -0.0000000  -0.0000000  -0.0000000  -0.0000000  -0.0000000  -0.0000000  -0.0000000  -0.0000000  -0.0000000
 NQMom=    0.0000000   0.0000000   0.0000000   0.0000000   2.0440000   0.0000000   0.0000000   0.0000000   0.0000000   0.0000000
 NMagM=    0.0000000   0.0000000   0.0000000   2.7928460   0.4037610   0.0000000   0.0000000   0.0000000   0.0000000   0.0000000
 AtZNuc=   6.0000000   6.0000000   6.0000000   1.0000000   7.0000000   6.0000000   6.0000000   6.0000000   6.0000000   6.0000000

  Atom        21          22          23          24          25          26          27          28          29          30
 IAtWgt=          12          16          12          14          12          12          12          12          12          12
 AtmWgt=  12.0000000  15.9949146  12.0000000  14.0030740  12.0000000  12.0000000  12.0000000  12.0000000  12.0000000  12.0000000
 NucSpn=           0           0           0           2           0           0           0           0           0           0
 AtZEff=  -0.0000000  -0.0000000  -0.0000000  -0.0000000  -0.0000000  -0.0000000  -0.0000000  -0.0000000  -0.0000000  -0.0000000
 NQMom=    0.0000000   0.0000000   0.0000000   2.0440000   0.0000000   0.0000000   0.0000000   0.0000000   0.0000000   0.0000000
 NMagM=    0.0000000   0.0000000   0.0000000   0.4037610   0.0000000   0.0000000   0.0000000   0.0000000   0.0000000   0.0000000
 AtZNuc=   6.0000000   8.0000000   6.0000000   7.0000000   6.0000000   6.0000000   6.0000000   6.0000000   6.0000000   6.0000000

  Atom        31          32          33          34          35          36          37          38          39          40
 IAtWgt=          12          14          12          12          12          12          12          12          16          12
 AtmWgt=  12.0000000  14.0030740  12.0000000  12.0000000  12.0000000  12.0000000  12.0000000  12.0000000  15.9949146  12.0000000
 NucSpn=           0           2           0           0           0           0           0           0           0           0
 AtZEff=  -0.0000000  -0.0000000  -0.0000000  -0.0000000  -0.0000000  -0.0000000  -0.0000000  -0.0000000  -0.0000000  -0.0000000
 NQMom=    0.0000000   2.0440000   0.0000000   0.0000000   0.0000000   0.0000000   0.0000000   0.0000000   0.0000000   0.0000000
 NMagM=    0.0000000   0.4037610   0.0000000   0.0000000   0.0000000   0.0000000   0.0000000   0.0000000   0.0000000   0.0000000
 AtZNuc=   6.0000000   7.0000000   6.0000000   6.0000000   6.0000000   6.0000000   6.0000000   6.0000000   8.0000000   6.0000000

  Atom        41          42          43          44          45          46          47          48          49          50
 IAtWgt=          12          16          16          12           1           1           1           1           1           1
 AtmWgt=  12.0000000  15.9949146  15.9949146  12.0000000   1.0078250   1.0078250   1.0078250   1.0078250   1.0078250   1.0078250
 NucSpn=           0           0           0           0           1           1           1           1           1           1
 AtZEff=  -0.0000000  -0.0000000  -0.0000000  -0.0000000  -0.0000000  -0.0000000  -0.0000000  -0.0000000  -0.0000000  -0.0000000
 NQMom=    0.0000000   0.0000000   0.0000000   0.0000000   0.0000000   0.0000000   0.0000000   0.0000000   0.0000000   0.0000000
 NMagM=    0.0000000   0.0000000   0.0000000   0.0000000   2.7928460   2.7928460   2.7928460   2.7928460   2.7928460   2.7928460
 AtZNuc=   6.0000000   8.0000000   8.0000000   6.0000000   1.0000000   1.0000000   1.0000000   1.0000000   1.0000000   1.0000000

  Atom        51          52          53          54          55          56          57          58          59          60
 IAtWgt=           1           1           1           1           1           1           1           1           1           1
 AtmWgt=   1.0078250   1.0078250   1.0078250   1.0078250   1.0078250   1.0078250   1.0078250   1.0078250   1.0078250   1.0078250
 NucSpn=           1           1           1           1           1           1           1           1           1           1
 AtZEff=  -0.0000000  -0.0000000  -0.0000000  -0.0000000  -0.0000000  -0.0000000  -0.0000000  -0.0000000  -0.0000000  -0.0000000
 NQMom=    0.0000000   0.0000000   0.0000000   0.0000000   0.0000000   0.0000000   0.0000000   0.0000000   0.0000000   0.0000000
 NMagM=    2.7928460   2.7928460   2.7928460   2.7928460   2.7928460   2.7928460   2.7928460   2.7928460   2.7928460   2.7928460
 AtZNuc=   1.0000000   1.0000000   1.0000000   1.0000000   1.0000000   1.0000000   1.0000000   1.0000000   1.0000000   1.0000000

  Atom        61          62          63          64          65          66          67          68          69          70
 IAtWgt=           1           1           1           1           1           1           1           1           1           1
 AtmWgt=   1.0078250   1.0078250   1.0078250   1.0078250   1.0078250   1.0078250   1.0078250   1.0078250   1.0078250   1.0078250
 NucSpn=           1           1           1           1           1           1           1           1           1           1
 AtZEff=  -0.0000000  -0.0000000  -0.0000000  -0.0000000  -0.0000000  -0.0000000  -0.0000000  -0.0000000  -0.0000000  -0.0000000
 NQMom=    0.0000000   0.0000000   0.0000000   0.0000000   0.0000000   0.0000000   0.0000000   0.0000000   0.0000000   0.0000000
 NMagM=    2.7928460   2.7928460   2.7928460   2.7928460   2.7928460   2.7928460   2.7928460   2.7928460   2.7928460   2.7928460
 AtZNuc=   1.0000000   1.0000000   1.0000000   1.0000000   1.0000000   1.0000000   1.0000000   1.0000000   1.0000000   1.0000000

  Atom        71          72          73          74          75          76          77          78          79          80
 IAtWgt=           1           1           1           1           1           1           1           1           1          24
 AtmWgt=   1.0078250   1.0078250   1.0078250   1.0078250   1.0078250   1.0078250   1.0078250   1.0078250   1.0078250  23.9850450
 NucSpn=           1           1           1           1           1           1           1           1           1           0
 AtZEff=  -0.0000000  -0.0000000  -0.0000000  -0.0000000  -0.0000000  -0.0000000  -0.0000000  -0.0000000  -0.0000000  -0.0000000
 NQMom=    0.0000000   0.0000000   0.0000000   0.0000000   0.0000000   0.0000000   0.0000000   0.0000000   0.0000000   0.0000000
 NMagM=    2.7928460   2.7928460   2.7928460   2.7928460   2.7928460   2.7928460   2.7928460   2.7928460   2.7928460   0.0000000
 AtZNuc=   1.0000000   1.0000000   1.0000000   1.0000000   1.0000000   1.0000000   1.0000000   1.0000000   1.0000000  12.0000000

  Atom        81          82          83          84          85          86          87          88          89          90
 IAtWgt=          12          12          12          12          14          12          12          12          12          12
 AtmWgt=  12.0000000  12.0000000  12.0000000  12.0000000  14.0030740  12.0000000  12.0000000  12.0000000  12.0000000  12.0000000
 NucSpn=           0           0           0           0           2           0           0           0           0           0
 AtZEff=  -0.0000000  -0.0000000  -0.0000000  -0.0000000  -0.0000000  -0.0000000  -0.0000000  -0.0000000  -0.0000000  -0.0000000
 NQMom=    0.0000000   0.0000000   0.0000000   0.0000000   2.0440000   0.0000000   0.0000000   0.0000000   0.0000000   0.0000000
 NMagM=    0.0000000   0.0000000   0.0000000   0.0000000   0.4037610   0.0000000   0.0000000   0.0000000   0.0000000   0.0000000
 AtZNuc=   6.0000000   6.0000000   6.0000000   6.0000000   7.0000000   6.0000000   6.0000000   6.0000000   6.0000000   6.0000000

  Atom        91          92          93          94          95          96          97          98          99         100
 IAtWgt=          12          12           1          14          12          12          12          12          12          12
 AtmWgt=  12.0000000  12.0000000   1.0078250  14.0030740  12.0000000  12.0000000  12.0000000  12.0000000  12.0000000  12.0000000
 NucSpn=           0           0           1           2           0           0           0           0           0           0
 AtZEff=  -0.0000000  -0.0000000  -0.0000000  -0.0000000  -0.0000000  -0.0000000  -0.0000000  -0.0000000  -0.0000000  -0.0000000
 NQMom=    0.0000000   0.0000000   0.0000000   2.0440000   0.0000000   0.0000000   0.0000000   0.0000000   0.0000000   0.0000000
 NMagM=    0.0000000   0.0000000   2.7928460   0.4037610   0.0000000   0.0000000   0.0000000   0.0000000   0.0000000   0.0000000
 AtZNuc=   6.0000000   6.0000000   1.0000000   7.0000000   6.0000000   6.0000000   6.0000000   6.0000000   6.0000000   6.0000000

  Atom       101         102         103         104         105         106         107         108         109         110
 IAtWgt=          16          12          14          12          12          12          12          12          12          12
 AtmWgt=  15.9949146  12.0000000  14.0030740  12.0000000  12.0000000  12.0000000  12.0000000  12.0000000  12.0000000  12.0000000
 NucSpn=           0           0           2           0           0           0           0           0           0           0
 AtZEff=  -0.0000000  -0.0000000  -0.0000000  -0.0000000  -0.0000000  -0.0000000  -0.0000000  -0.0000000  -0.0000000  -0.0000000
 NQMom=    0.0000000   0.0000000   2.0440000   0.0000000   0.0000000   0.0000000   0.0000000   0.0000000   0.0000000   0.0000000
 NMagM=    0.0000000   0.0000000   0.4037610   0.0000000   0.0000000   0.0000000   0.0000000   0.0000000   0.0000000   0.0000000
 AtZNuc=   8.0000000   6.0000000   7.0000000   6.0000000   6.0000000   6.0000000   6.0000000   6.0000000   6.0000000   6.0000000

  Atom       111         112         113         114         115         116         117         118         119         120
 IAtWgt=          14          12          12          12          12          12          12          16          12          12
 AtmWgt=  14.0030740  12.0000000  12.0000000  12.0000000  12.0000000  12.0000000  12.0000000  15.9949146  12.0000000  12.0000000
 NucSpn=           2           0           0           0           0           0           0           0           0           0
 AtZEff=  -0.0000000  -0.0000000  -0.0000000  -0.0000000  -0.0000000  -0.0000000  -0.0000000  -0.0000000  -0.0000000  -0.0000000
 NQMom=    2.0440000   0.0000000   0.0000000   0.0000000   0.0000000   0.0000000   0.0000000   0.0000000   0.0000000   0.0000000
 NMagM=    0.4037610   0.0000000   0.0000000   0.0000000   0.0000000   0.0000000   0.0000000   0.0000000   0.0000000   0.0000000
 AtZNuc=   7.0000000   6.0000000   6.0000000   6.0000000   6.0000000   6.0000000   6.0000000   8.0000000   6.0000000   6.0000000

  Atom       121         122         123         124         125         126         127         128         129         130
 IAtWgt=          16          16          12           1           1           1           1           1           1           1
 AtmWgt=  15.9949146  15.9949146  12.0000000   1.0078250   1.0078250   1.0078250   1.0078250   1.0078250   1.0078250   1.0078250
 NucSpn=           0           0           0           1           1           1           1           1           1           1
 AtZEff=  -0.0000000  -0.0000000  -0.0000000  -0.0000000  -0.0000000  -0.0000000  -0.0000000  -0.0000000  -0.0000000  -0.0000000
 NQMom=    0.0000000   0.0000000   0.0000000   0.0000000   0.0000000   0.0000000   0.0000000   0.0000000   0.0000000   0.0000000
 NMagM=    0.0000000   0.0000000   0.0000000   2.7928460   2.7928460   2.7928460   2.7928460   2.7928460   2.7928460   2.7928460
 AtZNuc=   8.0000000   8.0000000   6.0000000   1.0000000   1.0000000   1.0000000   1.0000000   1.0000000   1.0000000   1.0000000

  Atom       131         132         133         134         135         136         137         138         139         140
 IAtWgt=           1           1           1           1           1           1           1           1           1           1
 AtmWgt=   1.0078250   1.0078250   1.0078250   1.0078250   1.0078250   1.0078250   1.0078250   1.0078250   1.0078250   1.0078250
 NucSpn=           1           1           1           1           1           1           1           1           1           1
 AtZEff=  -0.0000000  -0.0000000  -0.0000000  -0.0000000  -0.0000000  -0.0000000  -0.0000000  -0.0000000  -0.0000000  -0.0000000
 NQMom=    0.0000000   0.0000000   0.0000000   0.0000000   0.0000000   0.0000000   0.0000000   0.0000000   0.0000000   0.0000000
 NMagM=    2.7928460   2.7928460   2.7928460   2.7928460   2.7928460   2.7928460   2.7928460   2.7928460   2.7928460   2.7928460
 AtZNuc=   1.0000000   1.0000000   1.0000000   1.0000000   1.0000000   1.0000000   1.0000000   1.0000000   1.0000000   1.0000000

  Atom       141         142         143         144         145         146         147         148         149         150
 IAtWgt=           1           1           1           1           1           1           1           1           1           1
 AtmWgt=   1.0078250   1.0078250   1.0078250   1.0078250   1.0078250   1.0078250   1.0078250   1.0078250   1.0078250   1.0078250
 NucSpn=           1           1           1           1           1           1           1           1           1           1
 AtZEff=  -0.0000000  -0.0000000  -0.0000000  -0.0000000  -0.0000000  -0.0000000  -0.0000000  -0.0000000  -0.0000000  -0.0000000
 NQMom=    0.0000000   0.0000000   0.0000000   0.0000000   0.0000000   0.0000000   0.0000000   0.0000000   0.0000000   0.0000000
 NMagM=    2.7928460   2.7928460   2.7928460   2.7928460   2.7928460   2.7928460   2.7928460   2.7928460   2.7928460   2.7928460
 AtZNuc=   1.0000000   1.0000000   1.0000000   1.0000000   1.0000000   1.0000000   1.0000000   1.0000000   1.0000000   1.0000000

  Atom       151         152         153         154         155         156         157         158
 IAtWgt=           1           1           1           1           1           1           1           1
 AtmWgt=   1.0078250   1.0078250   1.0078250   1.0078250   1.0078250   1.0078250   1.0078250   1.0078250
 NucSpn=           1           1           1           1           1           1           1           1
 AtZEff=  -0.0000000  -0.0000000  -0.0000000  -0.0000000  -0.0000000  -0.0000000  -0.0000000  -0.0000000
 NQMom=    0.0000000   0.0000000   0.0000000   0.0000000   0.0000000   0.0000000   0.0000000   0.0000000
 NMagM=    2.7928460   2.7928460   2.7928460   2.7928460   2.7928460   2.7928460   2.7928460   2.7928460
 AtZNuc=   1.0000000   1.0000000   1.0000000   1.0000000   1.0000000   1.0000000   1.0000000   1.0000000
 Leave Link  101 at Thu Sep  9 10:11:18 2021, MaxMem= 23488102400 cpu:               3.9 elap:               0.2
 (Enter /sw/apps/gaussian-16.0/g16/l202.exe)
 Stoichiometry    C68H72Mg2N8O8
 Framework group  C1[X(C68H72Mg2N8O8)]
 Deg. of freedom   468
 Full point group                 C1      NOp   1
 Largest Abelian subgroup         C1      NOp   1
 Largest concise Abelian subgroup C1      NOp   1
                         Standard orientation:                         
 ---------------------------------------------------------------------
 Center     Atomic      Atomic             Coordinates (Angstroms)
 Number     Number       Type             X           Y           Z
 ---------------------------------------------------------------------
      1         12           0       -3.976883    0.156285    0.327241
      2          6           0       -3.316166    3.661218    0.629087
      3          6           0       -4.957576    0.769071   -2.883024
      4          6           0       -4.993238   -2.844047    0.180107
      5          6           0       -4.034260    0.017409    3.809062
      6          7           0       -4.076962    2.020513   -0.862416
      7          6           0       -3.738279    3.288141   -0.648911
      8          6           0       -3.801916    4.169201   -1.932288
      9          6           0       -4.846001    3.309352   -2.776410
     10          6           0       -4.588155    1.944155   -2.163485
     11          6           0       -6.299623    3.695240   -2.522292
     12          6           0       -2.417702    4.263239   -2.658125
     13          6           0       -2.312492    5.356529   -3.725365
     14          1           0       -1.046122    6.053796   -3.891125
     15          7           0       -4.383377   -0.983592   -1.234262
     16          6           0       -4.749971   -0.564571   -2.469300
     17          6           0       -4.938713   -1.789479   -3.275934
     18          6           0       -4.836790   -2.958466   -2.358779
     19          6           0       -4.758825   -2.299272   -1.080201
     20          6           0       -5.137251   -1.774549   -4.760559
     21          6           0       -4.823920   -4.435516   -2.596037
     22          8           0       -4.961430   -5.278445   -1.644650
     23          6           0       -4.733682   -4.874525   -4.000376
     24          7           0       -4.666148   -1.182057    1.773404
     25          6           0       -4.987690   -2.439973    1.452089
     26          6           0       -5.179447   -3.284383    2.676891
     27          6           0       -4.681911   -2.397216    3.907804
     28          6           0       -4.348554   -1.094238    3.140086
     29          6           0       -6.613133   -3.764953    2.940727
     30          6           0       -3.594288   -3.012409    4.823791
     31          6           0       -2.294922   -3.143205    4.061138
     32          7           0       -3.551100    1.525310    1.956819
     33          6           0       -3.662881    1.262508    3.329814
     34          6           0       -3.373933    2.524168    4.036064
     35          6           0       -3.128789    3.443261    3.017724
     36          6           0       -3.282248    2.803048    1.754842
     37          6           0       -3.418357    2.719759    5.444682
     38          6           0       -2.797053    4.823238    2.702333
     39          8           0       -2.461394    5.807191    3.363138
     40          6           0       -3.024469    5.049324    1.142527
     41          6           0       -1.811228    5.757597    0.604287
     42          8           0       -0.700716    5.189222    0.571432
     43          8           0       -2.191444    6.893284   -0.000853
     44          6           0       -1.037968    7.630036   -0.582956
     45          1           0       -5.508242    0.875013   -3.819765
     46          1           0       -5.238462   -3.908143    0.178065
     47          1           0       -3.950600    0.030041    4.897315
     48          1           0       -4.190160    5.175492   -1.773952
     49          1           0       -4.601360    3.300264   -3.838385
     50          1           0       -6.384696    4.411347   -1.705056
     51          1           0       -6.807501    2.764819   -2.267594
     52          1           0       -6.771155    4.053060   -3.437934
     53          1           0       -2.278494    3.380613   -3.282346
     54          1           0       -1.610550    4.386295   -1.935153
     55          1           0       -3.133812    6.069509   -3.647889
     56          1           0       -2.446986    4.893555   -4.702998
     57          1           0       -5.332949   -0.768080   -5.128344
     58          1           0       -6.057385   -2.321876   -4.964264
     59          1           0       -4.306810   -2.241465   -5.290361
     60          1           0       -5.579475   -4.472124   -4.558280
     61          1           0       -4.646943   -5.960098   -3.971087
     62          1           0       -3.837925   -4.443284   -4.448260
     63          1           0       -4.578729   -4.191475    2.624480
     64          1           0       -5.495963   -2.151032    4.589997
     65          1           0       -6.704938   -4.848815    3.015032
     66          1           0       -7.251279   -3.371739    2.149877
     67          1           0       -7.081473   -3.340383    3.828316
     68          1           0       -3.884743   -4.014693    5.136852
     69          1           0       -3.406502   -2.425476    5.722955
     70          1           0       -2.419365   -4.085033    3.527935
     71          1           0       -1.452160   -3.193725    4.751363
     72          1           0       -2.191292   -2.356668    3.313403
     73          1           0       -2.537452    3.309199    5.698722
     74          1           0       -3.425385    1.768588    5.976498
     75          1           0       -4.359379    3.260585    5.543875
     76          1           0       -3.927753    5.650114    1.041284
     77          1           0       -1.053904    8.635461   -0.162125
     78          1           0       -1.122858    7.533216   -1.665465
     79          1           0       -0.046902    7.294111   -0.275905
     80         12           0        3.726543   -1.705595   -0.223873
     81          6           0        4.692573    1.738950    0.060630
     82          6           0        2.492402   -0.949327   -3.312492
     83          6           0        2.464494   -4.615046   -0.322729
     84          6           0        3.984674   -1.920343    3.244981
     85          7           0        3.660812    0.185885   -1.368533
     86          6           0        4.114038    1.416801   -1.184742
     87          6           0        4.009959    2.333600   -2.433022
     88          6           0        2.814359    1.574370   -3.189982
     89          6           0        3.016118    0.171704   -2.620325
     90          6           0        1.435413    2.063054   -2.778863
     91          6           0        5.325311    2.330141   -3.288513
     92          6           0        5.407746    3.433440   -4.345721
     93          1           0        6.709839    4.031396   -4.627637
     94          7           0        3.083465   -2.774762   -1.767218
     95          6           0        2.640343   -2.306979   -2.953005
     96          6           0        2.264711   -3.492869   -3.738333
     97          6           0        2.367317   -4.689352   -2.859353
     98          6           0        2.628047   -4.056487   -1.582016
     99          6           0        1.935115   -3.428960   -5.201450
    100          6           0        2.237866   -6.159157   -3.122262
    101          8           0        2.128427   -7.006943   -2.167213
    102          6           0        2.149093   -6.567711   -4.531756
    103          7           0        3.082030   -3.014013    1.257676
    104          6           0        2.623284   -4.238996    0.946395
    105          6           0        2.479372   -5.097411    2.180416
    106          6           0        3.169138   -4.269802    3.362312
    107          6           0        3.529189   -2.980580    2.591823
    108          6           0        1.047673   -5.455494    2.578427
    109          6           0        4.288336   -4.988393    4.164604
    110          6           0        5.492565   -5.216480    3.279611
    111          7           0        4.416677   -0.417065    1.367182
    112          6           0        4.412765   -0.694417    2.751790
    113          6           0        4.869872    0.529032    3.442173
    114          6           0        5.087744    1.447974    2.404598
    115          6           0        4.768306    0.846560    1.157294
    116          6           0        4.987017    0.694733    4.851056
    117          6           0        5.505178    2.793416    2.081719
    118          8           0        5.973510    3.734612    2.720893
    119          6           0        5.147179    3.082199    0.560262
    120          6           0        6.353576    3.700560   -0.091473
    121          8           0        7.403460    3.047723   -0.226209
    122          8           0        6.003011    4.877994   -0.640222
    123          6           0        7.163724    5.524640   -1.308343
    124          1           0        1.873130   -0.772891   -4.192413
    125          1           0        2.136341   -5.656960   -0.308065
    126          1           0        4.185608   -1.937816    4.318284
    127          1           0        3.725644    3.357549   -2.222163
    128          1           0        2.965428    1.574146   -4.266333
    129          1           0        1.483978    2.760715   -1.956031
    130          1           0        0.882962    1.177799   -2.492196
    131          1           0        0.909951    2.479544   -3.643010
    132          1           0        5.327020    1.446079   -3.939025
    133          1           0        6.191028    2.369953   -2.656400
    134          1           0        4.652915    4.213253   -4.187411
    135          1           0        5.149578    3.003685   -5.316641
    136          1           0        1.781318   -2.395074   -5.534355
    137          1           0        0.956517   -3.904066   -5.329831
    138          1           0        2.666196   -3.952553   -5.821171
    139          1           0        1.292568   -6.083567   -4.994822
    140          1           0        2.151862   -7.659377   -4.520326
    141          1           0        3.038697   -6.204123   -5.058093
    142          1           0        3.001134   -6.038830    2.059620
    143          1           0        2.442240   -3.981063    4.135678
    144          1           0        0.872897   -6.545951    2.644886
    145          1           0        0.371878   -5.004931    1.863704
    146          1           0        0.708758   -5.025729    3.519516
    147          1           0        3.948776   -5.975704    4.487189
    148          1           0        4.597809   -4.448104    5.053038
    149          1           0        5.235162   -6.135553    2.744702
    150          1           0        6.390203   -5.347732    3.880498
    151          1           0        5.590565   -4.418075    2.534900
    152          1           0        5.924553    1.204964    5.027650
    153          1           0        4.950473   -0.261776    5.368270
    154          1           0        4.100805    1.303196    5.050221
    155          1           0        4.286570    3.752103    0.547674
    156          1           0        7.267123    6.523462   -0.873181
    157          1           0        6.954256    5.466992   -2.393033
    158          1           0        8.146451    5.108793   -1.119213
 ---------------------------------------------------------------------
 Rotational constants (GHZ):           0.0206095           0.0174066           0.0140557
 Leave Link  202 at Thu Sep  9 10:11:18 2021, MaxMem= 23488102400 cpu:               0.2 elap:               0.0
 (Enter /sw/apps/gaussian-16.0/g16/l301.exe)
 Standard basis: def2SVP (5D, 7F)
 Ernie: Thresh=  0.10000D-02 Tol=  0.10000D-05 Strict=F.
 There are  1658 symmetry adapted cartesian basis functions of A   symmetry.
 There are  1572 symmetry adapted basis functions of A   symmetry.
  1572 basis functions,  2678 primitive gaussians,  1658 cartesian basis functions
   312 alpha electrons      312 beta electrons
       nuclear repulsion energy     15941.5787076800 Hartrees.
 IExCor=20419 DFT=T Ex+Corr=CAM-B3LYP ExCW=0 ScaHFX=  1.000000
 ScaDFX=  1.000000  1.000000  1.000000  0.810000 ScalE2=  1.000000  1.000000
 IRadAn=      5 IRanWt=     -1 IRanGd=            0 ICorTp=0 IEmpDi=  4
 HFx  wShort=  0.000000 wLong=  0.330000 cFull=  0.190000 cShort=  0.000000 cLong=  0.460000
 DFx  wShort=  0.000000 wLong=  0.330000 cFull=  0.190000 cShort=  0.000000 cLong=  0.460000
 NAtoms=  158 NActive=  158 NUniq=  158 SFac= 1.00D+00 NAtFMM=   60 NAOKFM=T Big=T
 Integral buffers will be    131072 words long.
 Raffenetti 1 integral format.
 Two-electron integral symmetry is turned on.
 Leave Link  301 at Thu Sep  9 10:11:18 2021, MaxMem= 23488102400 cpu:               1.4 elap:               0.1
 (Enter /sw/apps/gaussian-16.0/g16/l302.exe)
 NPDir=0 NMtPBC=     1 NCelOv=     1 NCel=       1 NClECP=     1 NCelD=      1
         NCelK=      1 NCelE2=     1 NClLst=     1 CellRange=     0.0.
 One-electron integrals computed using PRISM.
 One-electron integral symmetry used in STVInt
   1 Symmetry operations used in ECPInt.
 ECPInt:  NShTT=  271216 NPrTT=  987664 LenC2=  164074 LenP2D=  344185.
 LDataN:  DoStor=T MaxTD1= 4 Len=   56
 NBasis=  1572 RedAO= T EigKep=  3.35D-04  NBF=  1572
 NBsUse=  1572 1.00D-06 EigRej= -1.00D+00 NBFU=  1572
 Precomputing XC quadrature grid using
 IXCGrd= 4 IRadAn=           5 IRanWt=          -1 IRanGd=           0 AccXCQ= 0.00D+00.
 Generated NRdTot=       0 NPtTot=           0 NUsed=           0 NTot=          32
 NSgBfM=  1354  1348  1348  1352  1354 MxSgAt=   158 MxSgA2=   158.
 Leave Link  302 at Thu Sep  9 10:11:23 2021, MaxMem= 23488102400 cpu:             132.2 elap:               5.5
 (Enter /sw/apps/gaussian-16.0/g16/l303.exe)
 DipDrv:  MaxL=1.
 Leave Link  303 at Thu Sep  9 10:11:24 2021, MaxMem= 23488102400 cpu:               9.1 elap:               0.4
 (Enter /sw/apps/gaussian-16.0/g16/l308.exe)
 Leave Link  308 at Thu Sep  9 10:11:24 2021, MaxMem= 23488102400 cpu:              15.1 elap:               0.7
 (Enter /sw/apps/gaussian-16.0/g16/l401.exe)
 ExpMin= 3.36D-02 ExpMax= 4.95D+03 ExpMxC= 7.45D+02 IAcc=3 IRadAn=         5 AccDes= 0.00D+00
 Harris functional with IExCor=20419 and IRadAn=       5 diagonalized for initial guess.
 HarFok:  IExCor=20419 AccDes= 0.00D+00 IRadAn=         5 IDoV= 1 UseB2=F ITyADJ=14
 ICtDFT=  3500011 ScaDFX=  1.000000  1.000000  1.000000  1.000000
 FoFCou: FMM=F IPFlag=           0 FMFlag=      100000 FMFlg1=        2001
         NFxFlg=           0 DoJE=T BraDBF=F KetDBF=T FulRan=T
         wScrn=  0.000000 ICntrl=       500 IOpCl=  0 I1Cent=   200000004 NGrid=           0
         NMat0=    1 NMatS0=      1 NMatT0=    0 NMatD0=    1 NMtDS0=    0 NMtDT0=    0
 Petite list used in FoFCou.
 Harris En= -3918.65816254070    
 JPrj=0 DoOrth=F DoCkMO=F.
 Leave Link  401 at Thu Sep  9 10:11:33 2021, MaxMem= 23488102400 cpu:             207.2 elap:               8.7
 (Enter /sw/apps/gaussian-16.0/g16/l502.exe)
 Integral symmetry usage will be decided dynamically.
 Closed shell SCF:
 Using DIIS extrapolation, IDIIS=  1040.
 NGot= 23488102400 LenX= 23482547354 LenY= 23479796732
 Requested convergence on RMS density matrix=1.00D-08 within 128 cycles.
 Requested convergence on MAX density matrix=1.00D-06.
 Requested convergence on             energy=1.00D-06.
 No special actions if energy rises.
 Fock matrices will be formed incrementally for  20 cycles.

 Cycle   1  Pass 1  IDiag  1:
 FoFJK:  IHMeth= 1 ICntrl=       0 DoSepK=T KAlg= 0 I1Cent=           0 FoldK=F
 IRaf=         1 NMat=       1 IRICut=       1 DoRegI=T DoRafI=F ISym2E= 0 IDoP0=0 IntGTp=1.
 FoFCou: FMM=T IPFlag=           0 FMFlag=      100000 FMFlg1=        2001
         NFxFlg=           0 DoJE=T BraDBF=F KetDBF=F FulRan=T
         wScrn=  0.000000 ICntrl=       500 IOpCl=  0 I1Cent=           0 NGrid=           0
         NMat0=    1 NMatS0=      1 NMatT0=    0 NMatD0=    1 NMtDS0=    0 NMtDT0=    0
 Symmetry not used in FoFCou.
 FMM levels:  10  Number of levels for PrismC:   9
 E= -4068.94812721279    
 DIIS: error= 2.03D-02 at cycle   1 NSaved=   1.
 NSaved= 1 IEnMin= 1 EnMin= -4068.94812721279     IErMin= 1 ErrMin= 2.03D-02
 ErrMax= 2.03D-02  0.00D+00 EMaxC= 1.00D-01 BMatC= 1.69D+00 BMatP= 1.69D+00
 IDIUse=3 WtCom= 7.97D-01 WtEn= 2.03D-01
 Coeff-Com:  0.100D+01
 Coeff-En:   0.100D+01
 Coeff:      0.100D+01
 Gap=     0.120 Goal=   None    Shift=    0.000
 GapD=    0.120 DampG=1.000 DampE=0.500 DampFc=0.5000 IDamp=-1.
 Damping current iteration by 5.00D-01
 RMSDP=1.58D-03 MaxDP=1.38D-01              OVMax= 2.10D-01

 Cycle   2  Pass 1  IDiag  1:
 RMSU=  7.72D-04    CP:  9.82D-01
 E= -4069.33627128975     Delta-E=       -0.388144076962 Rises=F Damp=T
 DIIS: error= 1.26D-02 at cycle   2 NSaved=   2.
 NSaved= 2 IEnMin= 2 EnMin= -4069.33627128975     IErMin= 2 ErrMin= 1.26D-02
 ErrMax= 1.26D-02  0.00D+00 EMaxC= 1.00D-01 BMatC= 3.07D-01 BMatP= 1.69D+00
 IDIUse=3 WtCom= 8.74D-01 WtEn= 1.26D-01
 Coeff-Com: -0.212D+00 0.121D+01
 Coeff-En:   0.000D+00 0.100D+01
 Coeff:     -0.185D+00 0.119D+01
 Gap=     0.134 Goal=   None    Shift=    0.000
 RMSDP=7.73D-04 MaxDP=9.48D-02 DE=-3.88D-01 OVMax= 1.96D-01

 Cycle   3  Pass 1  IDiag  1:
 RMSU=  7.43D-04    CP:  9.68D-01  1.23D+00
 E= -4069.61996545968     Delta-E=       -0.283694169928 Rises=F Damp=F
 DIIS: error= 1.54D-02 at cycle   3 NSaved=   3.
 NSaved= 3 IEnMin= 3 EnMin= -4069.61996545968     IErMin= 2 ErrMin= 1.26D-02
 ErrMax= 1.54D-02  0.00D+00 EMaxC= 1.00D-01 BMatC= 2.06D-01 BMatP= 3.07D-01
 IDIUse=3 WtCom= 8.46D-01 WtEn= 1.54D-01
 Coeff-Com: -0.268D+00 0.655D+00 0.613D+00
 Coeff-En:   0.000D+00 0.000D+00 0.100D+01
 Coeff:     -0.227D+00 0.554D+00 0.673D+00
 Gap=     0.119 Goal=   None    Shift=    0.000
 RMSDP=5.29D-04 MaxDP=4.67D-02 DE=-2.84D-01 OVMax= 1.63D-01

 Cycle   4  Pass 1  IDiag  1:
 RMSU=  2.74D-04    CP:  9.65D-01  1.55D+00  4.91D-01
 E= -4069.76048301630     Delta-E=       -0.140517556614 Rises=F Damp=F
 DIIS: error= 6.83D-03 at cycle   4 NSaved=   4.
 NSaved= 4 IEnMin= 4 EnMin= -4069.76048301630     IErMin= 4 ErrMin= 6.83D-03
 ErrMax= 6.83D-03  0.00D+00 EMaxC= 1.00D-01 BMatC= 5.23D-02 BMatP= 2.06D-01
 IDIUse=3 WtCom= 9.32D-01 WtEn= 6.83D-02
 Coeff-Com: -0.111D+00 0.232D+00 0.410D+00 0.470D+00
 Coeff-En:   0.000D+00 0.000D+00 0.231D+00 0.769D+00
 Coeff:     -0.104D+00 0.216D+00 0.398D+00 0.490D+00
 Gap=     0.119 Goal=   None    Shift=    0.000
 RMSDP=2.16D-04 MaxDP=1.82D-02 DE=-1.41D-01 OVMax= 7.87D-02

 Cycle   5  Pass 1  IDiag  1:
 RMSU=  8.40D-05    CP:  9.64D-01  1.48D+00  6.85D-01  5.31D-01
 E= -4069.80975322890     Delta-E=       -0.049270212607 Rises=F Damp=F
 DIIS: error= 6.44D-04 at cycle   5 NSaved=   5.
 NSaved= 5 IEnMin= 5 EnMin= -4069.80975322890     IErMin= 5 ErrMin= 6.44D-04
 ErrMax= 6.44D-04  0.00D+00 EMaxC= 1.00D-01 BMatC= 1.55D-03 BMatP= 5.23D-02
 IDIUse=3 WtCom= 9.94D-01 WtEn= 6.44D-03
 Coeff-Com: -0.411D-01 0.813D-01 0.182D+00 0.264D+00 0.513D+00
 Coeff-En:   0.000D+00 0.000D+00 0.000D+00 0.000D+00 0.100D+01
 Coeff:     -0.408D-01 0.808D-01 0.181D+00 0.262D+00 0.516D+00
 Gap=     0.118 Goal=   None    Shift=    0.000
 RMSDP=5.08D-05 MaxDP=5.02D-03 DE=-4.93D-02 OVMax= 2.50D-02

 Cycle   6  Pass 1  IDiag  1:
 RMSU=  3.52D-05    CP:  9.64D-01  1.49D+00  6.74D-01  6.15D-01  6.82D-01
 E= -4069.81126331890     Delta-E=       -0.001510089995 Rises=F Damp=F
 DIIS: error= 2.29D-04 at cycle   6 NSaved=   6.
 NSaved= 6 IEnMin= 6 EnMin= -4069.81126331890     IErMin= 6 ErrMin= 2.29D-04
 ErrMax= 2.29D-04  0.00D+00 EMaxC= 1.00D-01 BMatC= 2.40D-04 BMatP= 1.55D-03
 IDIUse=3 WtCom= 9.98D-01 WtEn= 2.29D-03
 Coeff-Com:  0.113D-02-0.457D-02 0.165D-01 0.466D-01 0.303D+00 0.637D+00
 Coeff-En:   0.000D+00 0.000D+00 0.000D+00 0.000D+00 0.132D+00 0.868D+00
 Coeff:      0.113D-02-0.456D-02 0.165D-01 0.465D-01 0.303D+00 0.638D+00
 Gap=     0.119 Goal=   None    Shift=    0.000
 RMSDP=1.94D-05 MaxDP=1.46D-03 DE=-1.51D-03 OVMax= 8.88D-03

 Cycle   7  Pass 1  IDiag  1:
 RMSU=  1.22D-05    CP:  9.64D-01  1.49D+00  6.80D-01  6.11D-01  8.08D-01
                    CP:  7.30D-01
 E= -4069.81154309811     Delta-E=       -0.000279779208 Rises=F Damp=F
 DIIS: error= 1.35D-04 at cycle   7 NSaved=   7.
 NSaved= 7 IEnMin= 7 EnMin= -4069.81154309811     IErMin= 7 ErrMin= 1.35D-04
 ErrMax= 1.35D-04  0.00D+00 EMaxC= 1.00D-01 BMatC= 3.27D-05 BMatP= 2.40D-04
 IDIUse=3 WtCom= 9.99D-01 WtEn= 1.35D-03
 Coeff-Com:  0.474D-02-0.105D-01-0.868D-02-0.253D-02 0.112D+00 0.348D+00
 Coeff-Com:  0.557D+00
 Coeff-En:   0.000D+00 0.000D+00 0.000D+00 0.000D+00 0.000D+00 0.000D+00
 Coeff-En:   0.100D+01
 Coeff:      0.473D-02-0.105D-01-0.867D-02-0.253D-02 0.112D+00 0.348D+00
 Coeff:      0.557D+00
 Gap=     0.119 Goal=   None    Shift=    0.000
 RMSDP=7.10D-06 MaxDP=1.10D-03 DE=-2.80D-04 OVMax= 3.48D-03

 Cycle   8  Pass 1  IDiag  1:
 RMSU=  5.11D-06    CP:  9.64D-01  1.49D+00  6.81D-01  6.16D-01  8.06D-01
                    CP:  8.43D-01  8.04D-01
 E= -4069.81158201555     Delta-E=       -0.000038917449 Rises=F Damp=F
 DIIS: error= 5.66D-05 at cycle   8 NSaved=   8.
 NSaved= 8 IEnMin= 8 EnMin= -4069.81158201555     IErMin= 8 ErrMin= 5.66D-05
 ErrMax= 5.66D-05  0.00D+00 EMaxC= 1.00D-01 BMatC= 5.06D-06 BMatP= 3.27D-05
 IDIUse=1 WtCom= 1.00D+00 WtEn= 0.00D+00
 Coeff-Com:  0.233D-02-0.464D-02-0.800D-02-0.121D-01-0.519D-02 0.338D-01
 Coeff-Com:  0.292D+00 0.702D+00
 Coeff:      0.233D-02-0.464D-02-0.800D-02-0.121D-01-0.519D-02 0.338D-01
 Coeff:      0.292D+00 0.702D+00
 Gap=     0.119 Goal=   None    Shift=    0.000
 RMSDP=3.57D-06 MaxDP=4.51D-04 DE=-3.89D-05 OVMax= 1.27D-03

 Cycle   9  Pass 1  IDiag  1:
 RMSU=  2.11D-06    CP:  9.64D-01  1.49D+00  6.82D-01  6.18D-01  8.22D-01
                    CP:  8.73D-01  9.85D-01  9.91D-01
 E= -4069.81159028007     Delta-E=       -0.000008264520 Rises=F Damp=F
 DIIS: error= 1.85D-05 at cycle   9 NSaved=   9.
 NSaved= 9 IEnMin= 9 EnMin= -4069.81159028007     IErMin= 9 ErrMin= 1.85D-05
 ErrMax= 1.85D-05  0.00D+00 EMaxC= 1.00D-01 BMatC= 9.40D-07 BMatP= 5.06D-06
 IDIUse=1 WtCom= 1.00D+00 WtEn= 0.00D+00
 Coeff-Com:  0.550D-03-0.934D-03-0.296D-02-0.635D-02-0.186D-01-0.415D-01
 Coeff-Com:  0.817D-01 0.366D+00 0.622D+00
 Coeff:      0.550D-03-0.934D-03-0.296D-02-0.635D-02-0.186D-01-0.415D-01
 Coeff:      0.817D-01 0.366D+00 0.622D+00
 Gap=     0.119 Goal=   None    Shift=    0.000
 RMSDP=1.56D-06 MaxDP=1.52D-04 DE=-8.26D-06 OVMax= 7.76D-04

 Cycle  10  Pass 1  IDiag  1:
 RMSU=  1.04D-06    CP:  9.64D-01  1.49D+00  6.82D-01  6.18D-01  8.26D-01
                    CP:  8.83D-01  1.03D+00  1.16D+00  1.03D+00
 E= -4069.81159226963     Delta-E=       -0.000001989556 Rises=F Damp=F
 DIIS: error= 8.32D-06 at cycle  10 NSaved=  10.
 NSaved=10 IEnMin=10 EnMin= -4069.81159226963     IErMin=10 ErrMin= 8.32D-06
 ErrMax= 8.32D-06  0.00D+00 EMaxC= 1.00D-01 BMatC= 1.94D-07 BMatP= 9.40D-07
 IDIUse=1 WtCom= 1.00D+00 WtEn= 0.00D+00
 Coeff-Com: -0.411D-03 0.876D-03 0.110D-02 0.766D-03-0.398D-02-0.323D-01
 Coeff-Com: -0.405D-01-0.502D-01 0.222D+00 0.903D+00
 Coeff:     -0.411D-03 0.876D-03 0.110D-02 0.766D-03-0.398D-02-0.323D-01
 Coeff:     -0.405D-01-0.502D-01 0.222D+00 0.903D+00
 Gap=     0.119 Goal=   None    Shift=    0.000
 RMSDP=1.30D-06 MaxDP=1.28D-04 DE=-1.99D-06 OVMax= 6.98D-04

 Cycle  11  Pass 1  IDiag  1:
 RMSU=  6.08D-07    CP:  9.64D-01  1.49D+00  6.82D-01  6.19D-01  8.28D-01
                    CP:  8.92D-01  1.07D+00  1.27D+00  1.37D+00  1.32D+00
 E= -4069.81159316587     Delta-E=       -0.000000896238 Rises=F Damp=F
 DIIS: error= 4.66D-06 at cycle  11 NSaved=  11.
 NSaved=11 IEnMin=11 EnMin= -4069.81159316587     IErMin=11 ErrMin= 4.66D-06
 ErrMax= 4.66D-06  0.00D+00 EMaxC= 1.00D-01 BMatC= 9.53D-08 BMatP= 1.94D-07
 IDIUse=1 WtCom= 1.00D+00 WtEn= 0.00D+00
 Coeff-Com: -0.377D-03 0.739D-03 0.144D-02 0.214D-02 0.392D-02-0.103D-01
 Coeff-Com: -0.409D-01-0.130D+00-0.485D-01 0.539D+00 0.683D+00
 Coeff:     -0.377D-03 0.739D-03 0.144D-02 0.214D-02 0.392D-02-0.103D-01
 Coeff:     -0.409D-01-0.130D+00-0.485D-01 0.539D+00 0.683D+00
 Gap=     0.119 Goal=   None    Shift=    0.000
 RMSDP=7.68D-07 MaxDP=7.54D-05 DE=-8.96D-07 OVMax= 4.23D-04

 Cycle  12  Pass 1  IDiag  1:
 RMSU=  3.00D-07    CP:  9.64D-01  1.49D+00  6.82D-01  6.19D-01  8.29D-01
                    CP:  8.94D-01  1.09D+00  1.34D+00  1.52D+00  1.72D+00
                    CP:  1.13D+00
 E= -4069.81159350248     Delta-E=       -0.000000336608 Rises=F Damp=F
 DIIS: error= 2.66D-06 at cycle  12 NSaved=  12.
 NSaved=12 IEnMin=12 EnMin= -4069.81159350248     IErMin=12 ErrMin= 2.66D-06
 ErrMax= 2.66D-06  0.00D+00 EMaxC= 1.00D-01 BMatC= 2.23D-08 BMatP= 9.53D-08
 IDIUse=1 WtCom= 1.00D+00 WtEn= 0.00D+00
 Coeff-Com: -0.529D-04 0.858D-04 0.384D-03 0.786D-03 0.393D-02 0.278D-02
 Coeff-Com: -0.269D-02-0.470D-01-0.866D-01 0.173D-01 0.272D+00 0.839D+00
 Coeff:     -0.529D-04 0.858D-04 0.384D-03 0.786D-03 0.393D-02 0.278D-02
 Coeff:     -0.269D-02-0.470D-01-0.866D-01 0.173D-01 0.272D+00 0.839D+00
 Gap=     0.119 Goal=   None    Shift=    0.000
 RMSDP=4.61D-07 MaxDP=3.04D-05 DE=-3.37D-07 OVMax= 2.66D-04

 Cycle  13  Pass 1  IDiag  1:
 RMSU=  1.77D-07    CP:  9.64D-01  1.49D+00  6.82D-01  6.19D-01  8.29D-01
                    CP:  8.94D-01  1.10D+00  1.37D+00  1.63D+00  1.93D+00
                    CP:  1.52D+00  1.21D+00
 E= -4069.81159361637     Delta-E=       -0.000000113898 Rises=F Damp=F
 DIIS: error= 1.69D-06 at cycle  13 NSaved=  13.
 NSaved=13 IEnMin=13 EnMin= -4069.81159361637     IErMin=13 ErrMin= 1.69D-06
 ErrMax= 1.69D-06  0.00D+00 EMaxC= 1.00D-01 BMatC= 1.08D-08 BMatP= 2.23D-08
 IDIUse=1 WtCom= 1.00D+00 WtEn= 0.00D+00
 Coeff-Com:  0.119D-03-0.244D-03-0.342D-03-0.401D-03 0.104D-02 0.478D-02
 Coeff-Com:  0.168D-01 0.226D-01-0.347D-01-0.222D+00-0.176D+00 0.524D+00
 Coeff-Com:  0.864D+00
 Coeff:      0.119D-03-0.244D-03-0.342D-03-0.401D-03 0.104D-02 0.478D-02
 Coeff:      0.168D-01 0.226D-01-0.347D-01-0.222D+00-0.176D+00 0.524D+00
 Coeff:      0.864D+00
 Gap=     0.119 Goal=   None    Shift=    0.000
 RMSDP=4.04D-07 MaxDP=2.52D-05 DE=-1.14D-07 OVMax= 2.52D-04

 Cycle  14  Pass 1  IDiag  1:
 RMSU=  8.64D-08    CP:  9.64D-01  1.49D+00  6.82D-01  6.19D-01  8.30D-01
                    CP:  8.95D-01  1.11D+00  1.39D+00  1.71D+00  2.14D+00
                    CP:  1.78D+00  1.74D+00  1.21D+00
 E= -4069.81159366818     Delta-E=       -0.000000051801 Rises=F Damp=F
 DIIS: error= 8.55D-07 at cycle  14 NSaved=  14.
 NSaved=14 IEnMin=14 EnMin= -4069.81159366818     IErMin=14 ErrMin= 8.55D-07
 ErrMax= 8.55D-07  0.00D+00 EMaxC= 1.00D-01 BMatC= 1.69D-09 BMatP= 1.08D-08
 IDIUse=1 WtCom= 1.00D+00 WtEn= 0.00D+00
 Coeff-Com:  0.746D-04-0.147D-03-0.269D-03-0.410D-03-0.336D-03 0.122D-02
 Coeff-Com:  0.973D-02 0.217D-01 0.598D-02-0.104D+00-0.154D+00 0.498D-01
 Coeff-Com:  0.426D+00 0.746D+00
 Coeff:      0.746D-04-0.147D-03-0.269D-03-0.410D-03-0.336D-03 0.122D-02
 Coeff:      0.973D-02 0.217D-01 0.598D-02-0.104D+00-0.154D+00 0.498D-01
 Coeff:      0.426D+00 0.746D+00
 Gap=     0.119 Goal=   None    Shift=    0.000
 RMSDP=1.33D-07 MaxDP=7.92D-06 DE=-5.18D-08 OVMax= 7.56D-05

 Cycle  15  Pass 1  IDiag  1:
 RMSU=  4.22D-08    CP:  9.64D-01  1.49D+00  6.82D-01  6.19D-01  8.30D-01
                    CP:  8.95D-01  1.11D+00  1.40D+00  1.73D+00  2.19D+00
                    CP:  1.90D+00  1.91D+00  1.47D+00  1.06D+00
 E= -4069.81159367406     Delta-E=       -0.000000005886 Rises=F Damp=F
 DIIS: error= 4.14D-07 at cycle  15 NSaved=  15.
 NSaved=15 IEnMin=15 EnMin= -4069.81159367406     IErMin=15 ErrMin= 4.14D-07
 ErrMax= 4.14D-07  0.00D+00 EMaxC= 1.00D-01 BMatC= 2.77D-10 BMatP= 1.69D-09
 IDIUse=1 WtCom= 1.00D+00 WtEn= 0.00D+00
 Coeff-Com:  0.110D-04-0.200D-04-0.527D-04-0.111D-03-0.292D-03-0.486D-03
 Coeff-Com:  0.146D-02 0.436D-02 0.904D-02-0.535D-02-0.339D-01-0.707D-01
 Coeff-Com:  0.456D-01 0.317D+00 0.734D+00
 Coeff:      0.110D-04-0.200D-04-0.527D-04-0.111D-03-0.292D-03-0.486D-03
 Coeff:      0.146D-02 0.436D-02 0.904D-02-0.535D-02-0.339D-01-0.707D-01
 Coeff:      0.456D-01 0.317D+00 0.734D+00
 Gap=     0.119 Goal=   None    Shift=    0.000
 RMSDP=3.90D-08 MaxDP=2.74D-06 DE=-5.89D-09 OVMax= 2.92D-05

 Cycle  16  Pass 1  IDiag  1:
 RMSU=  2.01D-08    CP:  9.64D-01  1.49D+00  6.82D-01  6.19D-01  8.30D-01
                    CP:  8.95D-01  1.11D+00  1.40D+00  1.73D+00  2.21D+00
                    CP:  1.92D+00  1.95D+00  1.54D+00  1.24D+00  1.13D+00
 E= -4069.81159367495     Delta-E=       -0.000000000884 Rises=F Damp=F
 DIIS: error= 1.88D-07 at cycle  16 NSaved=  16.
 NSaved=16 IEnMin=16 EnMin= -4069.81159367495     IErMin=16 ErrMin= 1.88D-07
 ErrMax= 1.88D-07  0.00D+00 EMaxC= 1.00D-01 BMatC= 1.03D-10 BMatP= 2.77D-10
 IDIUse=1 WtCom= 1.00D+00 WtEn= 0.00D+00
 Coeff-Com: -0.133D-04 0.272D-04 0.418D-04 0.432D-04-0.542D-04-0.621D-03
 Coeff-Com: -0.157D-02-0.385D-02 0.377D-02 0.229D-01 0.223D-01-0.548D-01
 Coeff-Com: -0.801D-01-0.381D-01 0.379D+00 0.751D+00
 Coeff:     -0.133D-04 0.272D-04 0.418D-04 0.432D-04-0.542D-04-0.621D-03
 Coeff:     -0.157D-02-0.385D-02 0.377D-02 0.229D-01 0.223D-01-0.548D-01
 Coeff:     -0.801D-01-0.381D-01 0.379D+00 0.751D+00
 Gap=     0.119 Goal=   None    Shift=    0.000
 RMSDP=2.54D-08 MaxDP=1.78D-06 DE=-8.84D-10 OVMax= 1.50D-05

 Cycle  17  Pass 1  IDiag  1:
 RMSU=  1.13D-08    CP:  9.64D-01  1.49D+00  6.82D-01  6.19D-01  8.30D-01
                    CP:  8.95D-01  1.11D+00  1.40D+00  1.73D+00  2.21D+00
                    CP:  1.93D+00  1.97D+00  1.59D+00  1.34D+00  1.42D+00
                    CP:  1.23D+00
 E= -4069.81159367520     Delta-E=       -0.000000000258 Rises=F Damp=F
 DIIS: error= 9.07D-08 at cycle  17 NSaved=  17.
 NSaved=17 IEnMin=17 EnMin= -4069.81159367520     IErMin=17 ErrMin= 9.07D-08
 ErrMax= 9.07D-08  0.00D+00 EMaxC= 1.00D-01 BMatC= 2.10D-11 BMatP= 1.03D-10
 IDIUse=1 WtCom= 1.00D+00 WtEn= 0.00D+00
 Coeff-Com: -0.827D-05 0.162D-04 0.311D-04 0.438D-04 0.699D-04-0.153D-03
 Coeff-Com: -0.869D-03-0.296D-02-0.268D-03 0.101D-01 0.185D-01-0.633D-02
 Coeff-Com: -0.379D-01-0.981D-01-0.175D-01 0.292D+00 0.843D+00
 Coeff:     -0.827D-05 0.162D-04 0.311D-04 0.438D-04 0.699D-04-0.153D-03
 Coeff:     -0.869D-03-0.296D-02-0.268D-03 0.101D-01 0.185D-01-0.633D-02
 Coeff:     -0.379D-01-0.981D-01-0.175D-01 0.292D+00 0.843D+00
 Gap=     0.119 Goal=   None    Shift=    0.000
 RMSDP=1.40D-08 MaxDP=9.82D-07 DE=-2.58D-10 OVMax= 1.02D-05

 Cycle  18  Pass 1  IDiag  1:
 RMSU=  5.50D-09    CP:  9.64D-01  1.49D+00  6.82D-01  6.19D-01  8.30D-01
                    CP:  8.95D-01  1.11D+00  1.40D+00  1.74D+00  2.21D+00
                    CP:  1.93D+00  1.98D+00  1.61D+00  1.39D+00  1.57D+00
                    CP:  1.61D+00  1.38D+00
 E= -4069.81159367567     Delta-E=       -0.000000000466 Rises=F Damp=F
 DIIS: error= 6.44D-08 at cycle  18 NSaved=  18.
 NSaved=18 IEnMin=18 EnMin= -4069.81159367567     IErMin=18 ErrMin= 6.44D-08
 ErrMax= 6.44D-08  0.00D+00 EMaxC= 1.00D-01 BMatC= 8.97D-12 BMatP= 2.10D-11
 IDIUse=1 WtCom= 1.00D+00 WtEn= 0.00D+00
 Coeff-Com:  0.627D-06-0.160D-05 0.691D-06 0.529D-05 0.666D-04 0.140D-03
 Coeff-Com:  0.211D-03-0.158D-03-0.117D-02-0.364D-02 0.133D-02 0.145D-01
 Coeff-Com:  0.134D-01-0.357D-01-0.142D+00-0.156D+00 0.400D+00 0.909D+00
 Coeff:      0.627D-06-0.160D-05 0.691D-06 0.529D-05 0.666D-04 0.140D-03
 Coeff:      0.211D-03-0.158D-03-0.117D-02-0.364D-02 0.133D-02 0.145D-01
 Coeff:      0.134D-01-0.357D-01-0.142D+00-0.156D+00 0.400D+00 0.909D+00
 Gap=     0.119 Goal=   None    Shift=    0.000
 RMSDP=1.12D-08 MaxDP=7.00D-07 DE=-4.66D-10 OVMax= 6.64D-06

 Cycle  19  Pass 1  IDiag  1:
 RMSU=  3.10D-09    CP:  9.64D-01  1.49D+00  6.82D-01  6.19D-01  8.30D-01
                    CP:  8.95D-01  1.11D+00  1.40D+00  1.74D+00  2.21D+00
                    CP:  1.94D+00  1.99D+00  1.62D+00  1.43D+00  1.70D+00
                    CP:  1.88D+00  1.90D+00  1.26D+00
 E= -4069.81159367541     Delta-E=        0.000000000255 Rises=F Damp=F
 DIIS: error= 2.87D-08 at cycle  19 NSaved=  19.
 NSaved=19 IEnMin=18 EnMin= -4069.81159367567     IErMin=19 ErrMin= 2.87D-08
 ErrMax= 2.87D-08  0.00D+00 EMaxC= 1.00D-01 BMatC= 2.22D-12 BMatP= 8.97D-12
 IDIUse=1 WtCom= 1.00D+00 WtEn= 0.00D+00
 Coeff-Com:  0.303D-05-0.614D-05-0.979D-05-0.115D-04 0.217D-04 0.128D-03
 Coeff-Com:  0.430D-03 0.841D-03-0.557D-03-0.592D-02-0.548D-02 0.103D-01
 Coeff-Com:  0.222D-01 0.121D-01-0.749D-01-0.197D+00-0.280D-01 0.500D+00
 Coeff-Com:  0.766D+00
 Coeff:      0.303D-05-0.614D-05-0.979D-05-0.115D-04 0.217D-04 0.128D-03
 Coeff:      0.430D-03 0.841D-03-0.557D-03-0.592D-02-0.548D-02 0.103D-01
 Coeff:      0.222D-01 0.121D-01-0.749D-01-0.197D+00-0.280D-01 0.500D+00
 Coeff:      0.766D+00
 Gap=     0.119 Goal=   None    Shift=    0.000
 RMSDP=5.95D-09 MaxDP=5.17D-07 DE= 2.55D-10 OVMax= 4.26D-06

 SCF Done:  E(RCAM-B3LYP) =  -4069.81159368     A.U. after   19 cycles
            NFock= 19  Conv=0.60D-08     -V/T= 2.0102
 KE= 4.028795638491D+03 PE=-4.136427818156D+04 EE= 1.732409224172D+04
 Leave Link  502 at Thu Sep  9 10:24:05 2021, MaxMem= 23488102400 cpu:           17423.7 elap:             752.1
 (Enter /sw/apps/gaussian-16.0/g16/l801.exe)
 DoSCS=F DFT=T ScalE2(SS,OS)=  1.000000  1.000000
 ExpMin= 3.36D-02 ExpMax= 4.95D+03 ExpMxC= 7.45D+02 IAcc=3 IRadAn=         5 AccDes= 0.00D+00
 HarFok:  IExCor=  205 AccDes= 0.00D+00 IRadAn=         5 IDoV=-2 UseB2=F ITyADJ=14
 ICtDFT= 12500011 ScaDFX=  1.000000  1.000000  1.000000  1.000000
 GSVD:  LWork=       -9588 too small for GESVD, short by       45590 words or       45590 for optimal perf.
 Largest valence mixing into a core orbital is  2.03D-04
 Largest core mixing into a valence orbital is  5.24D-05
 Range of M.O.s used for correlation:    95  1572
 NBasis=  1572 NAE=   312 NBE=   312 NFC=    94 NFV=     0
 NROrb=   1478 NOA=   218 NOB=   218 NVA=  1260 NVB=  1260
 Leave Link  801 at Thu Sep  9 10:24:06 2021, MaxMem= 23488102400 cpu:               7.7 elap:               0.3
 (Enter /sw/apps/gaussian-16.0/g16/l914.exe)
 RHF ground state
 Two-electron integrals replicated using symmetry.
 MDV= 23488102400 DFT=T DoStab=F Mixed=T DoRPA=T DoScal=F NonHer=T
 Making orbital integer symmetry assigments:
 Orbital symmetries:
       Occupied  (A) (A) (A) (A) (A) (A) (A) (A) (A) (A) (A) (A)
                 (A) (A) (A) (A) (A) (A) (A) (A) (A) (A) (A) (A)
                 (A) (A) (A) (A) (A) (A) (A) (A) (A) (A) (A) (A)
                 (A) (A) (A) (A) (A) (A) (A) (A) (A) (A) (A) (A)
                 (A) (A) (A) (A) (A) (A) (A) (A) (A) (A) (A) (A)
                 (A) (A) (A) (A) (A) (A) (A) (A) (A) (A) (A) (A)
                 (A) (A) (A) (A) (A) (A) (A) (A) (A) (A) (A) (A)
                 (A) (A) (A) (A) (A) (A) (A) (A) (A) (A) (A) (A)
                 (A) (A) (A) (A) (A) (A) (A) (A) (A) (A) (A) (A)
                 (A) (A) (A) (A) (A) (A) (A) (A) (A) (A) (A) (A)
                 (A) (A) (A) (A) (A) (A) (A) (A) (A) (A) (A) (A)
                 (A) (A) (A) (A) (A) (A) (A) (A) (A) (A) (A) (A)
                 (A) (A) (A) (A) (A) (A) (A) (A) (A) (A) (A) (A)
                 (A) (A) (A) (A) (A) (A) (A) (A) (A) (A) (A) (A)
                 (A) (A) (A) (A) (A) (A) (A) (A) (A) (A) (A) (A)
                 (A) (A) (A) (A) (A) (A) (A) (A) (A) (A) (A) (A)
                 (A) (A) (A) (A) (A) (A) (A) (A) (A) (A) (A) (A)
                 (A) (A) (A) (A) (A) (A) (A) (A) (A) (A) (A) (A)
                 (A) (A) (A) (A) (A) (A) (A) (A) (A) (A) (A) (A)
                 (A) (A) (A) (A) (A) (A) (A) (A) (A) (A) (A) (A)
                 (A) (A) (A) (A) (A) (A) (A) (A) (A) (A) (A) (A)
                 (A) (A) (A) (A) (A) (A) (A) (A) (A) (A) (A) (A)
                 (A) (A) (A) (A) (A) (A) (A) (A) (A) (A) (A) (A)
                 (A) (A) (A) (A) (A) (A) (A) (A) (A) (A) (A) (A)
                 (A) (A) (A) (A) (A) (A) (A) (A) (A) (A) (A) (A)
                 (A) (A) (A) (A) (A) (A) (A) (A) (A) (A) (A) (A)
       Virtual   (A) (A) (A) (A) (A) (A) (A) (A) (A) (A) (A) (A)
                 (A) (A) (A) (A) (A) (A) (A) (A) (A) (A) (A) (A)
                 (A) (A) (A) (A) (A) (A) (A) (A) (A) (A) (A) (A)
                 (A) (A) (A) (A) (A) (A) (A) (A) (A) (A) (A) (A)
                 (A) (A) (A) (A) (A) (A) (A) (A) (A) (A) (A) (A)
                 (A) (A) (A) (A) (A) (A) (A) (A) (A) (A) (A) (A)
                 (A) (A) (A) (A) (A) (A) (A) (A) (A) (A) (A) (A)
                 (A) (A) (A) (A) (A) (A) (A) (A) (A) (A) (A) (A)
                 (A) (A) (A) (A) (A) (A) (A) (A) (A) (A) (A) (A)
                 (A) (A) (A) (A) (A) (A) (A) (A) (A) (A) (A) (A)
                 (A) (A) (A) (A) (A) (A) (A) (A) (A) (A) (A) (A)
                 (A) (A) (A) (A) (A) (A) (A) (A) (A) (A) (A) (A)
                 (A) (A) (A) (A) (A) (A) (A) (A) (A) (A) (A) (A)
                 (A) (A) (A) (A) (A) (A) (A) (A) (A) (A) (A) (A)
                 (A) (A) (A) (A) (A) (A) (A) (A) (A) (A) (A) (A)
                 (A) (A) (A) (A) (A) (A) (A) (A) (A) (A) (A) (A)
                 (A) (A) (A) (A) (A) (A) (A) (A) (A) (A) (A) (A)
                 (A) (A) (A) (A) (A) (A) (A) (A) (A) (A) (A) (A)
                 (A) (A) (A) (A) (A) (A) (A) (A) (A) (A) (A) (A)
                 (A) (A) (A) (A) (A) (A) (A) (A) (A) (A) (A) (A)
                 (A) (A) (A) (A) (A) (A) (A) (A) (A) (A) (A) (A)
                 (A) (A) (A) (A) (A) (A) (A) (A) (A) (A) (A) (A)
                 (A) (A) (A) (A) (A) (A) (A) (A) (A) (A) (A) (A)
                 (A) (A) (A) (A) (A) (A) (A) (A) (A) (A) (A) (A)
                 (A) (A) (A) (A) (A) (A) (A) (A) (A) (A) (A) (A)
                 (A) (A) (A) (A) (A) (A) (A) (A) (A) (A) (A) (A)
                 (A) (A) (A) (A) (A) (A) (A) (A) (A) (A) (A) (A)
                 (A) (A) (A) (A) (A) (A) (A) (A) (A) (A) (A) (A)
                 (A) (A) (A) (A) (A) (A) (A) (A) (A) (A) (A) (A)
                 (A) (A) (A) (A) (A) (A) (A) (A) (A) (A) (A) (A)
                 (A) (A) (A) (A) (A) (A) (A) (A) (A) (A) (A) (A)
                 (A) (A) (A) (A) (A) (A) (A) (A) (A) (A) (A) (A)
                 (A) (A) (A) (A) (A) (A) (A) (A) (A) (A) (A) (A)
                 (A) (A) (A) (A) (A) (A) (A) (A) (A) (A) (A) (A)
                 (A) (A) (A) (A) (A) (A) (A) (A) (A) (A) (A) (A)
                 (A) (A) (A) (A) (A) (A) (A) (A) (A) (A) (A) (A)
                 (A) (A) (A) (A) (A) (A) (A) (A) (A) (A) (A) (A)
                 (A) (A) (A) (A) (A) (A) (A) (A) (A) (A) (A) (A)
                 (A) (A) (A) (A) (A) (A) (A) (A) (A) (A) (A) (A)
                 (A) (A) (A) (A) (A) (A) (A) (A) (A) (A) (A) (A)
                 (A) (A) (A) (A) (A) (A) (A) (A) (A) (A) (A) (A)
                 (A) (A) (A) (A) (A) (A) (A) (A) (A) (A) (A) (A)
                 (A) (A) (A) (A) (A) (A) (A) (A) (A) (A) (A) (A)
                 (A) (A) (A) (A) (A) (A) (A) (A) (A) (A) (A) (A)
                 (A) (A) (A) (A) (A) (A) (A) (A) (A) (A) (A) (A)
                 (A) (A) (A) (A) (A) (A) (A) (A) (A) (A) (A) (A)
                 (A) (A) (A) (A) (A) (A) (A) (A) (A) (A) (A) (A)
                 (A) (A) (A) (A) (A) (A) (A) (A) (A) (A) (A) (A)
                 (A) (A) (A) (A) (A) (A) (A) (A) (A) (A) (A) (A)
                 (A) (A) (A) (A) (A) (A) (A) (A) (A) (A) (A) (A)
                 (A) (A) (A) (A) (A) (A) (A) (A) (A) (A) (A) (A)
                 (A) (A) (A) (A) (A) (A) (A) (A) (A) (A) (A) (A)
                 (A) (A) (A) (A) (A) (A) (A) (A) (A) (A) (A) (A)
                 (A) (A) (A) (A) (A) (A) (A) (A) (A) (A) (A) (A)
                 (A) (A) (A) (A) (A) (A) (A) (A) (A) (A) (A) (A)
                 (A) (A) (A) (A) (A) (A) (A) (A) (A) (A) (A) (A)
                 (A) (A) (A) (A) (A) (A) (A) (A) (A) (A) (A) (A)
                 (A) (A) (A) (A) (A) (A) (A) (A) (A) (A) (A) (A)
                 (A) (A) (A) (A) (A) (A) (A) (A) (A) (A) (A) (A)
                 (A) (A) (A) (A) (A) (A) (A) (A) (A) (A) (A) (A)
                 (A) (A) (A) (A) (A) (A) (A) (A) (A) (A) (A) (A)
                 (A) (A) (A) (A) (A) (A) (A) (A) (A) (A) (A) (A)
                 (A) (A) (A) (A) (A) (A) (A) (A) (A) (A) (A) (A)
                 (A) (A) (A) (A) (A) (A) (A) (A) (A) (A) (A) (A)
                 (A) (A) (A) (A) (A) (A) (A) (A) (A) (A) (A) (A)
                 (A) (A) (A) (A) (A) (A) (A) (A) (A) (A) (A) (A)
                 (A) (A) (A) (A) (A) (A) (A) (A) (A) (A) (A) (A)
                 (A) (A) (A) (A) (A) (A) (A) (A) (A) (A) (A) (A)
                 (A) (A) (A) (A) (A) (A) (A) (A) (A) (A) (A) (A)
                 (A) (A) (A) (A) (A) (A) (A) (A) (A) (A) (A) (A)
                 (A) (A) (A) (A) (A) (A) (A) (A) (A) (A) (A) (A)
                 (A) (A) (A) (A) (A) (A) (A) (A) (A) (A) (A) (A)
                 (A) (A) (A) (A) (A) (A) (A) (A) (A) (A) (A) (A)
                 (A) (A) (A) (A) (A) (A) (A) (A) (A) (A) (A) (A)
                 (A) (A) (A) (A) (A) (A) (A) (A) (A) (A) (A) (A)
                 (A) (A) (A) (A) (A) (A) (A) (A) (A) (A) (A) (A)
                 (A) (A) (A) (A) (A) (A) (A) (A) (A) (A) (A) (A)
                 (A) (A) (A) (A) (A) (A) (A) (A) (A) (A) (A) (A)
                 (A) (A) (A) (A) (A) (A) (A) (A) (A) (A) (A) (A)
                 (A) (A) (A) (A) (A) (A) (A) (A) (A) (A) (A) (A)
                 (A) (A) (A) (A) (A) (A) (A) (A) (A) (A) (A) (A)
                 (A) (A) (A) (A) (A) (A) (A) (A) (A) (A) (A) (A)
                 (A) (A) (A) (A) (A) (A) (A) (A) (A) (A) (A) (A)
                 (A) (A) (A) (A) (A) (A) (A) (A) (A) (A) (A) (A)
                 (A) (A) (A) (A) (A) (A) (A) (A) (A) (A) (A) (A)
                 (A) (A) (A) (A) (A) (A) (A) (A) (A) (A) (A) (A)
                 (A) (A) (A) (A) (A) (A) (A) (A) (A) (A) (A) (A)
                 (A) (A) (A) (A) (A) (A) (A) (A) (A) (A) (A) (A)
                 (A) (A) (A) (A) (A) (A) (A) (A) (A) (A) (A) (A)
                 (A) (A) (A) (A) (A) (A) (A) (A) (A) (A) (A) (A)
                 (A) (A) (A) (A) (A) (A) (A) (A) (A) (A) (A) (A)
                 (A) (A) (A) (A) (A) (A) (A) (A) (A) (A) (A) (A)
                 (A) (A) (A) (A) (A) (A) (A) (A) (A) (A) (A) (A)
                 (A) (A) (A) (A) (A) (A) (A) (A) (A) (A) (A) (A)
                 (A) (A) (A) (A) (A) (A) (A) (A) (A) (A) (A) (A)
                 (A) (A) (A) (A) (A) (A) (A) (A) (A) (A) (A) (A)
                 (A) (A) (A) (A) (A) (A) (A) (A) (A) (A) (A) (A)
                 (A) (A) (A) (A) (A) (A) (A) (A) (A) (A) (A) (A)
                 (A) (A) (A) (A) (A) (A) (A) (A) (A) (A) (A) (A)
                 (A) (A) (A) (A) (A) (A) (A) (A) (A) (A) (A) (A)
                 (A) (A) (A) (A) (A) (A) (A) (A) (A) (A) (A) (A)
                 (A) (A) (A) (A) (A) (A) (A) (A) (A) (A) (A) (A)
                 (A) (A) (A) (A) (A) (A) (A) (A) (A) (A) (A) (A)
                 (A) (A) (A) (A) (A) (A) (A) (A) (A) (A) (A) (A)
                 (A) (A) (A) (A) (A) (A) (A) (A) (A) (A) (A) (A)
    20 initial guesses have been made.
 Convergence on wavefunction:    0.001000000000000
 Davidson Disk Diagonalization:  ConvIn= 1.00D-03 SkipCon=T Conv= 1.00D-03.
 Max sub-space:  2000 roots to seek:    20 dimension of matrix:       549360
 Iteration     1 Dimension    20 NMult     0 NNew     20
 CISAX will form    20 AO SS matrices at one time.
 NMat=    20 NSing=    20 JSym2X= 0.
 FoFJK:  IHMeth= 1 ICntrl=       0 DoSepK=T KAlg= 0 I1Cent=           0 FoldK=F
 IRaf=         1 NMat=      40 IRICut=       1 DoRegI=T DoRafI=F ISym2E= 0 IDoP0=3 IntGTp=3.
 FoFCou: FMM=T IPFlag=           0 FMFlag=      100000 FMFlg1=        2001
         NFxFlg=           0 DoJE=F BraDBF=F KetDBF=F FulRan=T
         wScrn=  0.000000 ICntrl=       500 IOpCl=  0 I1Cent=           0 NGrid=           0
         NMat0=   20 NMatS0=     20 NMatT0=    0 NMatD0=   20 NMtDS0=    0 NMtDT0=    0
 Symmetry not used in FoFCou.
 FMM levels:  10  Number of levels for PrismC:   9
 New state      2 was old state      4
 New state      3 was old state      2
 New state      4 was old state      7
 New state      5 was old state      6
 Excitation Energies [eV] at current iteration:
 Root      1 :     2.230483094688608
 Root      2 :     2.458139039569282
 Root      3 :     2.580630408122547
 Root      4 :     2.615469833933938
 Root      5 :     2.625544915403242
 Root      6 :     2.778209940636371
 Root      7 :     3.013102300553625
 Root      8 :     3.252235820447569
 Root      9 :     3.615647169235665
 Root     10 :     3.665688805535298
 Root     11 :     3.744804510339084
 Root     12 :     3.759269207445518
 Root     13 :     4.128855336652184
 Root     14 :     4.226879051612189
 Root     15 :     4.381502212776185
 Root     16 :     4.382046543333643
 Root     17 :     4.452202647544121
 Root     18 :     4.509450463171048
 Root     19 :     4.618294248154815
 Root     20 :     4.769037447496065
 Iteration     2 Dimension    30 NMult    20 NNew     10
 CISAX will form    10 AO SS matrices at one time.
 NMat=    10 NSing=    10 JSym2X= 0.
 New state      1 was old state      3
 Root      1 not converged, maximum delta is    0.225029152956476
 New state      2 was old state      4
 Root      2 not converged, maximum delta is    0.179919469859009
 New state      3 was old state      1
 Root      3 not converged, maximum delta is    0.007128667971053
 New state      4 was old state      5
 Root      4 not converged, maximum delta is    0.158933332811892
 New state      5 was old state      2
 Root      5 not converged, maximum delta is    0.006208235270101
 Excitation Energies [eV] at current iteration:
 Root      1 :     1.758053646987912   Change is   -0.822576761134635
 Root      2 :     2.224799835196816   Change is   -0.390669998737123
 Root      3 :     2.229017690014142   Change is   -0.001465404674466
 Root      4 :     2.245514778577089   Change is   -0.380030136826153
 Root      5 :     2.456474032019692   Change is   -0.001665007549589
 Iteration     3 Dimension    40 NMult    30 NNew     10
 CISAX will form    10 AO SS matrices at one time.
 NMat=    10 NSing=    10 JSym2X= 0.
 Root      1 not converged, maximum delta is    0.052560665773250
 No map to state      2
 New state      3 was old state      2
 Root      3 not converged, maximum delta is    0.055164181730449
 Root      4 not converged, maximum delta is    0.058420973892898
 New state      5 was old state      3
 Root      5 not converged, maximum delta is    0.008321294054739
 Excitation Energies [eV] at current iteration:
 Root      1 :     1.655574862875783   Change is   -0.102478784112129
 Root      2 :     1.877136625669005
 Root      3 :     2.185050449185134   Change is   -0.039749386011682
 Root      4 :     2.206523451086964   Change is   -0.038991327490125
 Root      5 :     2.229009760669941   Change is   -0.000007929344201
 Iteration     4 Dimension    50 NMult    40 NNew     10
 CISAX will form    10 AO SS matrices at one time.
 NMat=    10 NSing=    10 JSym2X= 0.
 Root      1 not converged, maximum delta is    0.010829405680861
 Root      2 not converged, maximum delta is    0.033725923798748
 Root      3 not converged, maximum delta is    0.013140665597878
 Root      4 not converged, maximum delta is    0.012840602366620
 Root      5 has converged.
 Excitation Energies [eV] at current iteration:
 Root      1 :     1.639301981172550   Change is   -0.016272881703233
 Root      2 :     1.735687773838688   Change is   -0.141448851830316
 Root      3 :     2.178037566300185   Change is   -0.007012882884949
 Root      4 :     2.198789164839137   Change is   -0.007734286247827
 Root      5 :     2.229007790636983   Change is   -0.000001970032958
 Iteration     5 Dimension    58 NMult    50 NNew      8
 CISAX will form     8 AO SS matrices at one time.
 NMat=     8 NSing=     8 JSym2X= 0.
 Root      1 not converged, maximum delta is    0.001314230688594
 Root      2 not converged, maximum delta is    0.010901603952214
 Root      3 not converged, maximum delta is    0.002821555238274
 Root      4 not converged, maximum delta is    0.002789407751779
 Root      5 has converged.
 Excitation Energies [eV] at current iteration:
 Root      1 :     1.637640821685865   Change is   -0.001661159486685
 Root      2 :     1.713628848682239   Change is   -0.022058925156449
 Root      3 :     2.177227758195148   Change is   -0.000809808105038
 Root      4 :     2.197913517661013   Change is   -0.000875647178124
 Root      5 :     2.229007707182040   Change is   -0.000000083454943
 Iteration     6 Dimension    66 NMult    58 NNew      8
 CISAX will form     8 AO SS matrices at one time.
 NMat=     8 NSing=     8 JSym2X= 0.
 Root      1 has converged.
 Root      2 not converged, maximum delta is    0.003783922194019
 Root      3 has converged.
 Root      4 has converged.
 Root      5 has converged.
 Excitation Energies [eV] at current iteration:
 Root      1 :     1.637410793017696   Change is   -0.000230028668169
 Root      2 :     1.711492187018191   Change is   -0.002136661664048
 Root      3 :     2.177104395809530   Change is   -0.000123362385617
 Root      4 :     2.197794970348467   Change is   -0.000118547312545
 Root      5 :     2.229007692307325   Change is   -0.000000014874714
 Iteration     7 Dimension    68 NMult    66 NNew      2
 CISAX will form     2 AO SS matrices at one time.
 NMat=     2 NSing=     2 JSym2X= 0.
 Root      1 has converged.
 Root      2 has converged.
 Root      3 has converged.
 Root      4 has converged.
 Root      5 has converged.
 Excitation Energies [eV] at current iteration:
 Root      1 :     1.637410769036043   Change is   -0.000000023981653
[...]
 Alpha virt. eigenvalues --    1.82716   1.82907   1.83113   1.83239   1.83465
 Alpha virt. eigenvalues --    1.83661   1.83790   1.83886   1.84196   1.84449
 Alpha virt. eigenvalues --    1.84528   1.84607   1.84761   1.85057   1.85170
 Alpha virt. eigenvalues --    1.85246   1.85343   1.85391   1.85534   1.85724
 Alpha virt. eigenvalues --    1.85929   1.86196   1.86295   1.86484   1.86542
 Alpha virt. eigenvalues --    1.86699   1.86881   1.86951   1.87138   1.87235
 Alpha virt. eigenvalues --    1.87315   1.87580   1.87689   1.87808   1.87945
 Alpha virt. eigenvalues --    1.88011   1.88200   1.88392   1.88459   1.88646
 Alpha virt. eigenvalues --    1.88848   1.89112   1.89357   1.89509   1.89619
 Alpha virt. eigenvalues --    1.89887   1.90051   1.90092   1.90410   1.90572
 Alpha virt. eigenvalues --    1.90898   1.91162   1.91232   1.91610   1.91817
 Alpha virt. eigenvalues --    1.91922   1.92095   1.92490   1.92570   1.92895
 Alpha virt. eigenvalues --    1.92966   1.93246   1.93428   1.93757   1.94268
 Alpha virt. eigenvalues --    1.94536   1.94605   1.95032   1.95590   1.95790
 Alpha virt. eigenvalues --    1.95832   1.95875   1.95985   1.96123   1.96337
 Alpha virt. eigenvalues --    1.96394   1.96565   1.96702   1.96861   1.97207
 Alpha virt. eigenvalues --    1.97444   1.97727   1.97797   1.98033   1.98098
 Alpha virt. eigenvalues --    1.98523   1.98562   1.98681   1.99042   1.99475
 Alpha virt. eigenvalues --    1.99675   2.00306   2.00564   2.00883   2.01064
 Alpha virt. eigenvalues --    2.01320   2.01351   2.01669   2.01747   2.01826
 Alpha virt. eigenvalues --    2.02064   2.02222   2.02690   2.02945   2.03212
 Alpha virt. eigenvalues --    2.03296   2.03375   2.03656   2.03751   2.03796
 Alpha virt. eigenvalues --    2.04073   2.04413   2.04876   2.05175   2.05424
 Alpha virt. eigenvalues --    2.05933   2.05999   2.06585   2.06909   2.07099
 Alpha virt. eigenvalues --    2.07306   2.07634   2.08498   2.08865   2.08951
 Alpha virt. eigenvalues --    2.09224   2.09559   2.09827   2.10790   2.11076
 Alpha virt. eigenvalues --    2.11275   2.11401   2.11596   2.11637   2.11802
 Alpha virt. eigenvalues --    2.12067   2.12408   2.12674   2.12695   2.12886
 Alpha virt. eigenvalues --    2.13067   2.13333   2.13874   2.14111   2.14217
 Alpha virt. eigenvalues --    2.14790   2.15238   2.15598   2.15849   2.16444
 Alpha virt. eigenvalues --    2.16472   2.16662   2.16881   2.17386   2.17450
 Alpha virt. eigenvalues --    2.17626   2.17877   2.18015   2.18195   2.18340
 Alpha virt. eigenvalues --    2.18390   2.18849   2.18991   2.19419   2.19742
 Alpha virt. eigenvalues --    2.20039   2.20096   2.20172   2.20550   2.20740
 Alpha virt. eigenvalues --    2.21219   2.21518   2.21624   2.21646   2.22030
 Alpha virt. eigenvalues --    2.22116   2.22609   2.22966   2.23233   2.23754
 Alpha virt. eigenvalues --    2.24347   2.24609   2.24980   2.25287   2.26173
 Alpha virt. eigenvalues --    2.26672   2.26694   2.26979   2.27246   2.27458
 Alpha virt. eigenvalues --    2.28036   2.28674   2.29188   2.29636   2.29783
 Alpha virt. eigenvalues --    2.30191   2.30330   2.30854   2.31059   2.31081
 Alpha virt. eigenvalues --    2.31168   2.31427   2.32053   2.32464   2.33034
 Alpha virt. eigenvalues --    2.33402   2.33475   2.33752   2.34070   2.34434
 Alpha virt. eigenvalues --    2.35269   2.35566   2.35705   2.36213   2.36271
 Alpha virt. eigenvalues --    2.36516   2.36562   2.36628   2.37747   2.37903
 Alpha virt. eigenvalues --    2.38174   2.38578   2.38713   2.39000   2.39516
 Alpha virt. eigenvalues --    2.39895   2.40128   2.40334   2.40471   2.41047
 Alpha virt. eigenvalues --    2.41127   2.41435   2.41592   2.41901   2.41939
 Alpha virt. eigenvalues --    2.42368   2.42903   2.42984   2.43250   2.43419
 Alpha virt. eigenvalues --    2.44046   2.44198   2.44627   2.44784   2.45032
 Alpha virt. eigenvalues --    2.45282   2.45483   2.45787   2.46215   2.46368
 Alpha virt. eigenvalues --    2.46484   2.46687   2.46707   2.47024   2.47168
 Alpha virt. eigenvalues --    2.47590   2.47638   2.48098   2.49264   2.49556
 Alpha virt. eigenvalues --    2.49994   2.50054   2.50489   2.50624   2.51058
 Alpha virt. eigenvalues --    2.51520   2.51778   2.51807   2.52291   2.52595
 Alpha virt. eigenvalues --    2.52693   2.53439   2.53838   2.54061   2.54153
 Alpha virt. eigenvalues --    2.54440   2.54722   2.55118   2.55433   2.55894
 Alpha virt. eigenvalues --    2.57756   2.58328   2.58545   2.59257   2.60112
 Alpha virt. eigenvalues --    2.60443   2.60567   2.61174   2.61601   2.62054
 Alpha virt. eigenvalues --    2.62386   2.62680   2.62845   2.63394   2.63801
 Alpha virt. eigenvalues --    2.64148   2.64431   2.64718   2.64977   2.65383
 Alpha virt. eigenvalues --    2.65688   2.66072   2.66678   2.66776   2.66997
 Alpha virt. eigenvalues --    2.67341   2.67794   2.68224   2.68730   2.68889
 Alpha virt. eigenvalues --    2.69012   2.69249   2.69282   2.69821   2.69913
 Alpha virt. eigenvalues --    2.70389   2.70864   2.71294   2.71939   2.72085
 Alpha virt. eigenvalues --    2.72555   2.72686   2.72693   2.72962   2.73189
 Alpha virt. eigenvalues --    2.73392   2.73487   2.73692   2.74420   2.74728
 Alpha virt. eigenvalues --    2.74856   2.75275   2.76493   2.76712   2.77144
 Alpha virt. eigenvalues --    2.77290   2.77342   2.77792   2.78116   2.78464
 Alpha virt. eigenvalues --    2.78596   2.78879   2.79015   2.79349   2.80230
 Alpha virt. eigenvalues --    2.80387   2.80456   2.80893   2.81022   2.81353
 Alpha virt. eigenvalues --    2.81806   2.82207   2.82236   2.82547   2.83653
 Alpha virt. eigenvalues --    2.83659   2.83994   2.84145   2.84451   2.84704
 Alpha virt. eigenvalues --    2.84797   2.85097   2.85570   2.85843   2.86836
 Alpha virt. eigenvalues --    2.86894   2.87364   2.87490   2.88084   2.88390
 Alpha virt. eigenvalues --    2.88401   2.88811   2.88839   2.89067   2.90340
 Alpha virt. eigenvalues --    2.90883   2.91085   2.91347   2.93040   2.93533
 Alpha virt. eigenvalues --    2.93959   2.94131   2.94482   2.94733   2.95175
 Alpha virt. eigenvalues --    2.95658   2.96030   2.96072   2.96329   2.96567
 Alpha virt. eigenvalues --    2.97008   2.97137   2.97731   2.98069   2.98157
 Alpha virt. eigenvalues --    2.98280   2.98494   2.98622   2.98793   2.98819
 Alpha virt. eigenvalues --    2.99038   2.99107   2.99466   2.99904   2.99930
 Alpha virt. eigenvalues --    3.00101   3.00229   3.00384   3.00467   3.01246
 Alpha virt. eigenvalues --    3.01871   3.01938   3.02152   3.02347   3.02611
 Alpha virt. eigenvalues --    3.02876   3.03006   3.03216   3.03594   3.03941
 Alpha virt. eigenvalues --    3.04206   3.04301   3.04466   3.04547   3.04617
 Alpha virt. eigenvalues --    3.04965   3.05219   3.05542   3.06051   3.06487
 Alpha virt. eigenvalues --    3.06778   3.07225   3.08028   3.08148   3.09423
 Alpha virt. eigenvalues --    3.09626   3.09758   3.10312   3.10606   3.11060
 Alpha virt. eigenvalues --    3.11262   3.11737   3.11803   3.12100   3.12318
 Alpha virt. eigenvalues --    3.12542   3.13285   3.13555   3.13853   3.13875
 Alpha virt. eigenvalues --    3.14010   3.14698   3.15838   3.16124   3.17188
 Alpha virt. eigenvalues --    3.17730   3.18005   3.18038   3.19045   3.19197
 Alpha virt. eigenvalues --    3.22179   3.22812   3.23843   3.24583   3.24652
 Alpha virt. eigenvalues --    3.25424   3.26404   3.26851   3.27517   3.27598
 Alpha virt. eigenvalues --    3.28996   3.29441   3.31419   3.31579   3.33318
 Alpha virt. eigenvalues --    3.33374   3.40466   3.40500   3.42741   3.42974
 Alpha virt. eigenvalues --    3.48570   3.48920   3.49922   3.50471   3.51029
 Alpha virt. eigenvalues --    3.51370   3.56461   3.57191   3.59002   3.59521
 Alpha virt. eigenvalues --    3.62720   3.62775   3.66137   3.66261   3.67062
 Alpha virt. eigenvalues --    3.67757   3.73164   3.74254   3.75973   3.76919
          Condensed to atoms (all electrons):
 Mulliken charges:
               1
     1  Mg   0.838486
     2  C   -0.003485
     3  C   -0.095737
     4  C   -0.044782
     5  C   -0.063655
     6  N   -0.256697
     7  C   -0.053222
     8  C   -0.013443
     9  C   -0.086900
    10  C    0.046016
    11  C    0.104801
    12  C    0.050346
    13  C   -0.071747
    14  H    0.034390
    15  N   -0.433331
    16  C    0.168404
    17  C   -0.178279
    18  C   -0.003524
    19  C    0.149441
    20  C    0.110466
    21  C    0.013824
    22  O   -0.247808
    23  C    0.062623
    24  N   -0.340900
    25  C    0.040964
    26  C   -0.028712
    27  C   -0.024174
    28  C    0.074644
    29  C    0.075981
    30  C    0.036732
    31  C   -0.012111
    32  N   -0.310750
    33  C    0.080793
    34  C   -0.169264
    35  C    0.008836
    36  C    0.083340
    37  C    0.127149
    38  C    0.046717
    39  O   -0.187029
    40  C   -0.005949
    41  C    0.213644
    42  O   -0.258539
    43  O   -0.304587
    44  C    0.157004
    45  H   -0.017926
    46  H   -0.015997
    47  H   -0.041315
    48  H    0.001524
    49  H   -0.005106
    50  H    0.025879
    51  H    0.016968
    52  H    0.016690
    53  H    0.010406
    54  H    0.045096
    55  H    0.019550
    56  H    0.016916
    57  H    0.005264
    58  H    0.027456
    59  H    0.037184
    60  H    0.037022
    61  H    0.037189
    62  H    0.029064
    63  H    0.017506
    64  H    0.009876
    65  H    0.023790
    66  H    0.012659
    67  H    0.004895
    68  H    0.006528
    69  H    0.004275
    70  H    0.012710
    71  H    0.019125
    72  H    0.030881
    73  H    0.048505
    74  H    0.009016
    75  H    0.046333
    76  H    0.035468
    77  H    0.044391
    78  H    0.045326
    79  H    0.054277
    80  Mg   0.837291
    81  C   -0.015141
    82  C   -0.088367
    83  C   -0.045130
    84  C   -0.065286
    85  N   -0.254774
    86  C   -0.046967
    87  C   -0.015166
    88  C   -0.092178
    89  C    0.046180
    90  C    0.109460
    91  C    0.062764
    92  C   -0.076948
    93  H    0.033823
    94  N   -0.423436
    95  C    0.162846
    96  C   -0.176063
    97  C   -0.007782
    98  C    0.151456
    99  C    0.100561
   100  C    0.015397
   101  O   -0.252799
   102  C    0.061694
   103  N   -0.350124
   104  C    0.036726
   105  C   -0.019757
   106  C   -0.034765
   107  C    0.089459
   108  C    0.072748
   109  C    0.034785
   110  C   -0.007397
   111  N   -0.324757
   112  C    0.079605
   113  C   -0.162429
   114  C    0.004374
   115  C    0.096110
   116  C    0.130783
   117  C    0.044625
   118  O   -0.186920
   119  C   -0.000687
   120  C    0.210403
   121  O   -0.252121
   122  O   -0.304626
   123  C    0.152377
   124  H   -0.022004
   125  H   -0.015402
   126  H   -0.041194
   127  H    0.001660
   128  H   -0.006901
   129  H    0.037387
   130  H    0.013632
   131  H    0.011876
   132  H    0.013149
   133  H    0.037529
   134  H    0.020178
   135  H    0.018401
   136  H    0.007177
   137  H    0.022368
   138  H    0.039070
   139  H    0.036336
   140  H    0.036107
   141  H    0.033393
   142  H    0.013822
   143  H    0.010963
   144  H    0.024235
   145  H    0.014597
   146  H    0.004049
   147  H    0.005531
   148  H    0.003172
   149  H    0.010807
   150  H    0.017454
   151  H    0.030503
   152  H    0.045619
   153  H    0.007243
   154  H    0.049684
   155  H    0.043327
   156  H    0.043512
   157  H    0.048481
   158  H    0.052987
 Sum of Mulliken charges =  -0.00000
 Mulliken charges with hydrogens summed into heavy atoms:
               1
     1  Mg   0.838486
     2  C   -0.003485
     3  C   -0.113663
     4  C   -0.060779
     5  C   -0.104970
     6  N   -0.256697
     7  C   -0.053222
     8  C   -0.011918
     9  C   -0.092006
    10  C    0.046016
    11  C    0.164337
    12  C    0.105848
    13  C   -0.000891
    15  N   -0.433331
    16  C    0.168404
    17  C   -0.178279
    18  C   -0.003524
    19  C    0.149441
    20  C    0.180370
    21  C    0.013824
    22  O   -0.247808
    23  C    0.165897
    24  N   -0.340900
    25  C    0.040964
    26  C   -0.011206
    27  C   -0.014299
    28  C    0.074644
    29  C    0.117325
    30  C    0.047535
    31  C    0.050605
    32  N   -0.310750
    33  C    0.080793
    34  C   -0.169264
    35  C    0.008836
    36  C    0.083340
    37  C    0.231003
    38  C    0.046717
    39  O   -0.187029
    40  C    0.029519
    41  C    0.213644
    42  O   -0.258539
    43  O   -0.304587
    44  C    0.300999
    80  Mg   0.837291
    81  C   -0.015141
    82  C   -0.110371
    83  C   -0.060532
    84  C   -0.106479
    85  N   -0.254774
    86  C   -0.046967
    87  C   -0.013506
    88  C   -0.099079
    89  C    0.046180
    90  C    0.172356
    91  C    0.113442
    92  C   -0.004546
    94  N   -0.423436
    95  C    0.162846
    96  C   -0.176063
    97  C   -0.007782
    98  C    0.151456
    99  C    0.169177
   100  C    0.015397
   101  O   -0.252799
   102  C    0.167531
   103  N   -0.350124
   104  C    0.036726
   105  C   -0.005935
   106  C   -0.023802
   107  C    0.089459
   108  C    0.115630
   109  C    0.043488
   110  C    0.051367
   111  N   -0.324757
   112  C    0.079605
   113  C   -0.162429
   114  C    0.004374
   115  C    0.096110
   116  C    0.233329
   117  C    0.044625
   118  O   -0.186920
   119  C    0.042640
   120  C    0.210403
   121  O   -0.252121
   122  O   -0.304626
   123  C    0.297356
 Electronic spatial extent (au):  <R**2>=          87810.3717
 Charge=             -0.0000 electrons
 Dipole moment (field-independent basis, Debye):
    X=             -5.3907    Y=             -0.4895    Z=             -6.6621  Tot=              8.5839
 Quadrupole moment (field-independent basis, Debye-Ang):
   XX=           -527.6998   YY=           -541.8448   ZZ=           -452.0928
   XY=            -15.3718   XZ=             -4.4682   YZ=            -49.3041
 Traceless Quadrupole moment (field-independent basis, Debye-Ang):
   XX=            -20.4873   YY=            -34.6324   ZZ=             55.1197
   XY=            -15.3718   XZ=             -4.4682   YZ=            -49.3041
 Octapole moment (field-independent basis, Debye-Ang**2):
  XXX=           -278.8921  YYY=            387.3893  ZZZ=            -76.9972  XYY=            110.9650
  XXY=             32.6718  XXZ=           -132.2099  XZZ=            -69.8795  YZZ=           -207.7033
  YYZ=           -167.4248  XYZ=            -51.4196
 Hexadecapole moment (field-independent basis, Debye-Ang**3):
 XXXX=         -55039.9291 YYYY=         -42675.9030 ZZZZ=         -23597.3451 XXXY=           -383.6338
 XXXZ=           -424.5917 YYYX=            706.8184 YYYZ=          -1594.0770 ZZZX=            166.4679
 ZZZY=            217.3879 XXYY=         -15720.2155 XXZZ=         -12078.3430 YYZZ=         -10770.0299
 XXYZ=           -945.5958 YYXZ=           -120.9435 ZZXY=            -14.8340
 N-N= 1.594157870768D+04 E-N=-4.136427817595D+04  KE= 4.028795638491D+03
 Leave Link  601 at Thu Sep  9 10:50:07 2021, MaxMem= 23488102400 cpu:              18.5 elap:               0.9
 (Enter /sw/apps/gaussian-16.0/g16/l9999.exe)
 1\1\GINC-BP1-COMPUTE00115\SP\RCAM-B3LYP TD-FC\def2SVP\C68H72Mg2N8O8\OF
 15641\09-Sep-2021\0\\#p cam-b3lyp/Def2SVP td=(nstates=5)\\TDDFT excite
 d states in gaussian\\0,1\Mg,0,0.,0.,0.\C,0,-0.217,-2.218,2.801\C,0,-1
 .255,2.442,2.026\C,0,-0.245,1.85,-2.564\C,0,0.146,-2.824,-2.037\N,0,-0
 .617,-0.009,2.126\C,0,-0.594,-0.908,3.105\C,0,-0.936,-0.309,4.502\C,0,
 -1.773,0.964,4.032\C,0,-1.155,1.168,2.66\C,0,-3.263,0.685,3.863\C,0,0.
 345,0.11,5.299\C,0,0.124,0.397,6.787\H,0,1.168,0.033,7.733\N,0,-0.185,
 1.961,-0.152\C,0,-0.703,2.8,0.777\C,0,-0.62,4.156,0.193\C,0,-0.187,4.0
 15,-1.225\C,0,-0.214,2.583,-1.38\C,0,-0.887,5.406,0.974\C,0,0.181,5.01
 3,-2.277\O,0,0.303,4.69,-3.508\C,0,0.31,6.414,-1.837\N,0,-0.265,-0.413
 ,-2.029\C,0,-0.279,0.569,-2.937\C,0,-0.196,0.024,-4.332\C,0,0.124,-1.5
 33,-4.18\C,0,0.086,-1.632,-2.635\C,0,-1.451,0.205,-5.197\C,0,1.373,-2.
 07,-4.923\C,0,2.626,-1.49,-4.306\N,0,0.15,-2.144,0.303\C,0,0.173,-3.13
 6,-0.688\C,0,0.173,-4.438,0.004\C,0,0.133,-4.111,1.358\C,0,0.083,-2.69
 5,1.502\C,0,0.149,-5.715,-0.623\C,0,0.096,-4.629,2.716\O,0,0.208,-5.74
 7,3.221\C,0,-0.255,-3.428,3.701\C,0,0.717,-3.482,4.848\O,0,1.931,-3.25
 5,4.669\O,0,0.038,-3.556,6.003\C,0,0.943,-3.583,7.183\H,0,-1.859,3.22,
 2.497\H,0,-0.218,2.453,-3.474\H,0,0.276,-3.747,-2.605\H,0,-1.554,-0.94
 9,5.132\H,0,-1.585,1.831,4.665\H,0,-3.484,-0.377,3.969\H,0,-3.511,1.02
 7,2.858\H,0,-3.852,1.301,4.543\H,0,0.669,1.096,4.966\H,0,1.13,-0.639,5
 .189\H,0,-0.844,0.026,7.125\H,0,0.062,1.477,6.921\H,0,-1.344,5.186,1.9
 38\H,0,-1.651,5.963,0.432\H,0,0.007,6.02,1.084\H,0,-0.635,6.744,-1.405
 \H,0,0.665,6.97,-2.704\H,0,1.048,6.466,-1.036\H,0,0.608,0.501,-4.891\H
 ,0,-0.692,-2.156,-4.547\H,0,-1.267,0.74,-6.129\H,0,-2.204,0.714,-4.596
 \H,0,-1.967,-0.72,-5.453\H,0,1.356,-1.759,-5.967\H,0,1.452,-3.157,-4.9
 02\H,0,2.714,-0.522,-4.798\H,0,3.487,-2.121,-4.529\H,0,2.495,-1.303,-3
 .24\H,0,0.867,-6.333,-0.084\H,0,0.404,-5.642,-1.68\H,0,-0.891,-5.999,-
 0.463\H,0,-1.283,-3.581,4.028\H,0,0.698,-4.478,7.755\H,0,0.833,-2.619,
 7.68\H,0,2.,-3.754,6.976\Mg,0,7.88888,0.71544,0.60564\C,0,7.98143,-1.4
 8523,3.43893\C,0,6.35887,3.00293,2.62085\C,0,7.38592,2.49992,-1.96926\
 C,0,8.35835,-2.08748,-1.41152\N,0,7.3005,0.65075,2.73681\C,0,7.44201,-
 0.21476,3.72939\C,0,7.05369,0.33953,5.12636\C,0,6.04929,1.50006,4.6538
 9\C,0,6.62026,1.76598,3.2625\C,0,4.61353,1.02699,4.49858\C,0,8.28607,0
 .92634,5.90026\C,0,8.04103,1.20177,7.38547\H,0,9.13869,0.98506,8.3239\
 N,0,7.4583,2.6461,0.44522\C,0,6.85651,3.42505,1.36845\C,0,6.75003,4.76
 041,0.76046\C,0,7.18869,4.66611,-0.65848\C,0,7.34499,3.23153,-0.79129\
 C,0,6.3451,5.97873,1.53838\C,0,7.41597,5.69552,-1.72378\O,0,7.56651,5.
 36935,-2.95414\C,0,7.36397,7.10183,-1.29827\N,0,7.66144,0.2523,-1.4083
 4\C,0,7.507,1.2215,-2.32743\C,0,7.64021,0.67172,-3.72757\C,0,8.15863,-
 0.8309,-3.5516\C,0,8.14974,-0.92274,-2.00989\C,0,6.36314,0.67413,-4.56
 75\C,0,9.45841,-1.22004,-4.30777\C,0,10.63767,-0.47587,-3.72385\N,0,8.
 31278,-1.37864,0.92687\C,0,8.44431,-2.383,-0.05702\C,0,8.61573,-3.6675
 ,0.65226\C,0,8.54846,-3.3217,2.01034\C,0,8.32899,-1.92349,2.1382\C,0,8
 .75548,-4.94433,0.03882\C,0,8.60259,-3.82311,3.36473\O,0,8.85253,-4.91
 286,3.87825\C,0,8.11152,-2.67533,4.34852\C,0,9.09379,-2.58519,5.4841\O
 ,0,10.26523,-2.22143,5.27913\O,0,8.43581,-2.73179,6.64855\C,0,9.36607,
 -2.63885,7.80517\H,0,5.67371,3.702,3.10121\H,0,7.32798,3.08507,-2.8899
 8\H,0,8.60857,-2.99316,-1.96811\H,0,6.53437,-0.36405,5.76593\H,0,6.143
 87,2.38341,5.28007\H,0,4.52667,-0.04276,4.61788\H,0,4.31272,1.32218,3.
 50187\H,0,3.96025,1.57348,5.1848\H,0,8.47614,1.94852,5.54847\H,0,9.144
 05,0.29257,5.78702\H,0,7.12463,0.72056,7.74822\H,0,7.85145,2.27026,7.5
 1359\H,0,5.9235,5.71065,2.515\H,0,5.51021,6.43943,0.99933\H,0,7.15274,
 6.70823,1.6291\H,0,6.39283,7.30941,-0.85526\H,0,7.63839,7.68426,-2.179
 94\H,0,8.10906,7.25659,-0.50991\H,0,8.37307,1.23213,-4.29498\H,0,7.420
 75,-1.56159,-3.91419\H,0,6.46813,1.22738,-5.51984\H,0,5.56312,1.09219,
 -3.97107\H,0,5.97363,-0.311,-4.81852\H,0,9.39064,-0.9203,-5.35644\H,0,
 9.66621,-2.2847,-4.28992\H,0,10.5913,0.49423,-4.22767\H,0,11.56753,-0.
 99391,-3.94977\H,0,10.49842,-0.29728,-2.6513\H,0,9.54423,-5.46029,0.57
 \H,0,8.98255,-4.85336,-1.02133\H,0,7.7565,-5.3538,0.21098\H,0,7.11189,
 -2.94397,4.69225\H,0,9.23885,-3.55391,8.39184\H,0,9.12571,-1.68208,8.3
 0574\H,0,10.4292,-2.66729,7.59685\\Version=ES64L-G16RevA.03\State=1-A\
 HF=-4069.8115937\RMSD=5.951e-09\PG=C01 [X(C68H72Mg2N8O8)]\\@


 Any fool can criticize, condemn, and complain -- and most do.
 -- Dale Carnegie
 Job cpu time:       0 days 15 hours 15 minutes 56.8 seconds.
 Elapsed time:       0 days  0 hours 38 minutes 49.5 seconds.
 File lengths (MBytes):  RWF=  13225 Int=      0 D2E=      0 Chk=    574 Scr=      1
 Normal termination of Gaussian 16 at Thu Sep  9 10:50:08 2021.
