 Entering Gaussian System, Link 0=g16
 Initial command:
 /sw/apps/gaussian-16.0/g16/l1.exe "/tmp/Gau-8272.inp" -scrdir="/tmp/"
 Entering Link 1 = /sw/apps/gaussian-16.0/g16/l1.exe PID=      8273.
  
 Copyright (c) 1988,1990,1992,1993,1995,1998,2003,2009,2016,
            Gaussian, Inc.  All Rights Reserved.
  
 This is part of the Gaussian(R) 16 program.  It is based on
 the Gaussian(R) 09 system (copyright 2009, Gaussian, Inc.),
 the Gaussian(R) 03 system (copyright 2003, Gaussian, Inc.),
 the Gaussian(R) 98 system (copyright 1998, Gaussian, Inc.),
 the Gaussian(R) 94 system (copyright 1995, Gaussian, Inc.),
 the Gaussian 92(TM) system (copyright 1992, Gaussian, Inc.),
 the Gaussian 90(TM) system (copyright 1990, Gaussian, Inc.),
 the Gaussian 88(TM) system (copyright 1988, Gaussian, Inc.),
 the Gaussian 86(TM) system (copyright 1986, Carnegie Mellon
 University), and the Gaussian 82(TM) system (copyright 1983,
 Carnegie Mellon University). Gaussian is a federally registered
 trademark of Gaussian, Inc.
  
 This software contains proprietary and confidential information,
 including trade secrets, belonging to Gaussian, Inc.
  
 This software is provided under written license and may be
 used, copied, transmitted, or stored only in accord with that
 written license.
  
 The following legend is applicable only to US Government
 contracts under FAR:
  
                    RESTRICTED RIGHTS LEGEND
  
 Use, reproduction and disclosure by the US Government is
 subject to restrictions as set forth in subparagraphs (a)
 and (c) of the Commercial Computer Software - Restricted
 Rights clause in FAR 52.227-19.
  
 Gaussian, Inc.
 340 Quinnipiac St., Bldg. 40, Wallingford CT 06492
  
  
 ---------------------------------------------------------------
 Warning -- This program may not be used in any manner that
 competes with the business of Gaussian, Inc. or will provide
 assistance to any competitor of Gaussian, Inc.  The licensee
 of this program is prohibited from giving any competitor of
 Gaussian, Inc. access to this program.  By using this program,
 the user acknowledges that Gaussian, Inc. is engaged in the
 business of creating and licensing software in the field of
 computational chemistry and represents and warrants to the
 licensee that it is not a competitor of Gaussian, Inc. and that
 it will not use this program in any manner prohibited above.
 ---------------------------------------------------------------
  

 Cite this work as:
 Gaussian 16, Revision A.03,
 M. J. Frisch, G. W. Trucks, H. B. Schlegel, G. E. Scuseria, 
 M. A. Robb, J. R. Cheeseman, G. Scalmani, V. Barone, 
 G. A. Petersson, H. Nakatsuji, X. Li, M. Caricato, A. V. Marenich, 
 J. Bloino, B. G. Janesko, R. Gomperts, B. Mennucci, H. P. Hratchian, 
 J. V. Ortiz, A. F. Izmaylov, J. L. Sonnenberg, D. Williams-Young, 
 F. Ding, F. Lipparini, F. Egidi, J. Goings, B. Peng, A. Petrone, 
 T. Henderson, D. Ranasinghe, V. G. Zakrzewski, J. Gao, N. Rega, 
 G. Zheng, W. Liang, M. Hada, M. Ehara, K. Toyota, R. Fukuda, 
 J. Hasegawa, M. Ishida, T. Nakajima, Y. Honda, O. Kitao, H. Nakai, 
 T. Vreven, K. Throssell, J. A. Montgomery, Jr., J. E. Peralta, 
 F. Ogliaro, M. J. Bearpark, J. J. Heyd, E. N. Brothers, K. N. Kudin, 
 V. N. Staroverov, T. A. Keith, R. Kobayashi, J. Normand, 
 K. Raghavachari, A. P. Rendell, J. C. Burant, S. S. Iyengar, 
 J. Tomasi, M. Cossi, J. M. Millam, M. Klene, C. Adamo, R. Cammi, 
 J. W. Ochterski, R. L. Martin, K. Morokuma, O. Farkas, 
 J. B. Foresman, and D. J. Fox, Gaussian, Inc., Wallingford CT, 2016.
 
 ******************************************
 Gaussian 16:  ES64L-G16RevA.03 25-Dec-2016
                11-Sep-2021 
 ******************************************
 %nproc=24
 Will use up to   24 processors via shared memory.
 %mem=175gb
 -----------------------------------
 #p cam-b3lyp/Def2SVP td=(nstates=5)
 -----------------------------------
 1/38=1,172=1/1;
 2/12=2,17=6,18=5,40=1/2;
 3/5=43,7=101,11=9,25=1,30=1,74=-40/1,2,3,8;
 4//1;
 5/5=2,38=5/2;
 8/6=1,10=1,108=5/1;
 9/41=5,42=1,70=2/14;
 6/7=2,8=2,9=2,10=2/1;
 99/5=1,9=1/99;
 Leave Link    1 at Sat Sep 11 11:07:32 2021, MaxMem= 23488102400 cpu:               0.9 elap:               0.0
 (Enter /sw/apps/gaussian-16.0/g16/l101.exe)
 --------------------------------
 TDDFT excited states in gaussian
 --------------------------------
 Symbolic Z-matrix:
 Charge =  0 Multiplicity = 1
 Mg                    0.        0.        0. 
 C                    -0.217    -2.218     2.801 
 C                    -1.255     2.442     2.026 
 C                    -0.245     1.85     -2.564 
 C                     0.146    -2.824    -2.037 
 N                    -0.617    -0.009     2.126 
 C                    -0.594    -0.908     3.105 
 C                    -0.936    -0.309     4.502 
 C                    -1.773     0.964     4.032 
 C                    -1.155     1.168     2.66 
 C                    -3.263     0.685     3.863 
 C                     0.345     0.11      5.299 
 C                     0.124     0.397     6.787 
 H                     1.168     0.033     7.733 
 N                    -0.185     1.961    -0.152 
 C                    -0.703     2.8       0.777 
 C                    -0.62      4.156     0.193 
 C                    -0.187     4.015    -1.225 
 C                    -0.214     2.583    -1.38 
 C                    -0.887     5.406     0.974 
 C                     0.181     5.013    -2.277 
 O                     0.303     4.69     -3.508 
 C                     0.31      6.414    -1.837 
 N                    -0.265    -0.413    -2.029 
 C                    -0.279     0.569    -2.937 
 C                    -0.196     0.024    -4.332 
 C                     0.124    -1.533    -4.18 
 C                     0.086    -1.632    -2.635 
 C                    -1.451     0.205    -5.197 
 C                     1.373    -2.07     -4.923 
 C                     2.626    -1.49     -4.306 
 N                     0.15     -2.144     0.303 
 C                     0.173    -3.136    -0.688 
 C                     0.173    -4.438     0.004 
 C                     0.133    -4.111     1.358 
 C                     0.083    -2.695     1.502 
 C                     0.149    -5.715    -0.623 
 C                     0.096    -4.629     2.716 
 O                     0.208    -5.747     3.221 
 C                    -0.255    -3.428     3.701 
 C                     0.717    -3.482     4.848 
 O                     1.931    -3.255     4.669 
 O                     0.038    -3.556     6.003 
 C                     0.943    -3.583     7.183 
 H                    -1.859     3.22      2.497 
 H                    -0.218     2.453    -3.474 
 H                     0.276    -3.747    -2.605 
 H                    -1.554    -0.949     5.132 
 H                    -1.585     1.831     4.665 
 H                    -3.484    -0.377     3.969 
 H                    -3.511     1.027     2.858 
 H                    -3.852     1.301     4.543 
 H                     0.669     1.096     4.966 
 H                     1.13     -0.639     5.189 
 H                    -0.844     0.026     7.125 
 H                     0.062     1.477     6.921 
 H                    -1.344     5.186     1.938 
 H                    -1.651     5.963     0.432 
 H                     0.007     6.02      1.084 
 H                    -0.635     6.744    -1.405 
 H                     0.665     6.97     -2.704 
 H                     1.048     6.466    -1.036 
 H                     0.608     0.501    -4.891 
 H                    -0.692    -2.156    -4.547 
 H                    -1.267     0.74     -6.129 
 H                    -2.204     0.714    -4.596 
 H                    -1.967    -0.72     -5.453 
 H                     1.356    -1.759    -5.967 
 H                     1.452    -3.157    -4.902 
 H                     2.714    -0.522    -4.798 
 H                     3.487    -2.121    -4.529 
 H                     2.495    -1.303    -3.24 
 H                     0.867    -6.333    -0.084 
 H                     0.404    -5.642    -1.68 
 H                    -0.891    -5.999    -0.463 
 H                    -1.283    -3.581     4.028 
 H                     0.698    -4.478     7.755 
 H                     0.833    -2.619     7.68 
 H                     2.       -3.754     6.976 
 Mg                    13.14537   1.19054   0.99547 
 C                     12.52537   3.55296   3.62485 
 C                     12.21056   3.62203  -1.20648 
 C                     13.24766  -0.99225  -1.30505 
 C                     12.92077  -1.32782   3.39403 
 N                     12.47595   3.27765   1.29229 
 C                     12.33814   4.08598   2.33246 
 C                     12.05807   5.56744   1.9631 
 C                     11.4246   5.33627   0.50566 
 C                     12.10182   4.01385   0.15174 
 C                     9.92189   5.11148   0.53135 
 C                     13.37093   6.4236    1.88959 
 C                     13.14978   7.93696   1.83897 
 H                     14.10925   8.80369   2.5177 
 N                     13.25943   1.40498  -0.9742 
 C                     12.85384   2.46662  -1.70199 
 C                     13.13683   2.12466  -3.10454 
 C                     13.59053   0.70839  -3.1597 
 C                     13.35852   0.30364  -1.78768 
 C                     13.04522   3.12469  -4.22033 
 C                     14.13033  -0.14472  -4.26742 
 O                     14.23659  -1.41637  -4.1473 
 C                     14.44322   0.54075  -5.52985 
 N                     12.88262  -0.87181   0.99594 
 C                     13.03306  -1.58815  -0.13196 
 C                     13.06907  -3.06875   0.16291 
 C                     13.15456  -3.1877    1.75543 
 C                     13.05902  -1.6915    2.12644 
 C                     11.87513  -3.87727  -0.34421 
 C                     14.3302  -4.01982   2.33691 
 C                     15.64215  -3.31964   2.06504 
 N                     12.97422   1.10301   3.14746 
 C                     12.86898  -0.05525   3.94836 
 C                     12.65812   0.39502   5.33948 
 C                     12.6321   1.79478   5.24731 
 C                     12.79371   2.18853   3.89146 
 C                     12.47219  -0.45141   6.46869 
 C                     12.49404   3.02852   5.98726 
 O                     12.41924   3.32264   7.17958 
 C                     12.2922   4.21831   4.95283 
 C                     13.21565   5.33827   5.3471 
 O                     14.44909   5.19183   5.28542 
 O                     12.49614   6.46162   5.52244 
 C                     13.36947   7.60341   5.90378 
 H                     11.72103   4.23475  -1.964 
 H                     13.38719  -1.7843   -2.04442 
 H                     12.93914  -2.0493    4.21367 
 H                     11.34257   6.06803   2.60438 
 H                     11.72907   6.11762  -0.18582 
 H                     9.54441   5.02649   1.53953 
 H                     9.75251   4.19272  -0.01477 
 H                     9.4135    5.89693  -0.03517 
 H                     13.84422   6.27005   0.91124 
 H                     14.02955   6.18159   2.70094 
 H                     12.12357   8.21288   2.11047 
 H                     13.25101   8.26798   0.80253 
 H                     12.52783   4.03769  -3.90074 
 H                     12.38835   2.69317  -4.98334 
 H                     14.01562   3.34243  -4.67153 
 H                     13.54728   1.02693  -5.90849 
 H                     14.90016  -0.21755  -6.16865 
 H                     15.17     1.33499  -5.32589 
 H                     13.94838  -3.5283   -0.27152 
 H                     12.26191  -3.67343   2.17624 
 H                     12.16405  -4.70842  -1.01487 
 H                     11.19449  -3.20258  -0.84626 
 H                     11.24432  -4.30605   0.43261 
 H                     14.3883  -4.99157   1.84045 
 H                     14.24163  -4.20703   3.40185 
 H                     15.88005  -3.62944   1.04302 
 H                     16.40572  -3.65117   2.76582 
 H                     15.51322  -2.23107   2.05794 
 H                     13.07007  -0.03756   7.2698 
 H                     12.75796  -1.47768   6.24763 
 H                     11.39363  -0.34797   6.61449 
 H                     11.24415   4.51695   4.99744 
 H                     12.97613   8.00711   6.84186 
 H                     13.37666   8.27947   5.0282 
 H                     14.39286   7.38051   6.18209 
 
 ITRead=  0  0  0  0  0  0  0  0  0  0  0  0  0  0  0  0  0  0  0  0
 ITRead=  0  0  0  0  0  0  0  0  0  0  0  0  0  0  0  0  0  0  0  0
 ITRead=  0  0  0  0  0  0  0  0  0  0  0  0  0  0  0  0  0  0  0  0
 ITRead=  0  0  0  0  0  0  0  0  0  0  0  0  0  0  0  0  0  0  0  0
 ITRead=  0  0  0  0  0  0  0  0  0  0  0  0  0  0  0  0  0  0  0  0
 ITRead=  0  0  0  0  0  0  0  0  0  0  0  0  0  0  0  0  0  0  0  0
 ITRead=  0  0  0  0  0  0  0  0  0  0  0  0  0  0  0  0  0  0  0  0
 ITRead=  0  0  0  0  0  0  0  0  0  0  0  0  0  0  0  0  0  0
 MicOpt= -1 -1 -1 -1 -1 -1 -1 -1 -1 -1 -1 -1 -1 -1 -1 -1 -1 -1 -1 -1
 MicOpt= -1 -1 -1 -1 -1 -1 -1 -1 -1 -1 -1 -1 -1 -1 -1 -1 -1 -1 -1 -1
 MicOpt= -1 -1 -1 -1 -1 -1 -1 -1 -1 -1 -1 -1 -1 -1 -1 -1 -1 -1 -1 -1
 MicOpt= -1 -1 -1 -1 -1 -1 -1 -1 -1 -1 -1 -1 -1 -1 -1 -1 -1 -1 -1 -1
 MicOpt= -1 -1 -1 -1 -1 -1 -1 -1 -1 -1 -1 -1 -1 -1 -1 -1 -1 -1 -1 -1
 MicOpt= -1 -1 -1 -1 -1 -1 -1 -1 -1 -1 -1 -1 -1 -1 -1 -1 -1 -1 -1 -1
 MicOpt= -1 -1 -1 -1 -1 -1 -1 -1 -1 -1 -1 -1 -1 -1 -1 -1 -1 -1 -1 -1
 MicOpt= -1 -1 -1 -1 -1 -1 -1 -1 -1 -1 -1 -1 -1 -1 -1 -1 -1 -1
 NAtoms=    158 NQM=      158 NQMF=       0 NMMI=      0 NMMIF=      0
                NMic=       0 NMicF=      0.
                    Isotopes and Nuclear Properties:
 (Nuclear quadrupole moments (NQMom) in fm**2, nuclear magnetic moments (NMagM)
  in nuclear magnetons)

  Atom         1           2           3           4           5           6           7           8           9          10
 IAtWgt=          24          12          12          12          12          14          12          12          12          12
 AtmWgt=  23.9850450  12.0000000  12.0000000  12.0000000  12.0000000  14.0030740  12.0000000  12.0000000  12.0000000  12.0000000
 NucSpn=           0           0           0           0           0           2           0           0           0           0
 AtZEff=  -0.0000000  -0.0000000  -0.0000000  -0.0000000  -0.0000000  -0.0000000  -0.0000000  -0.0000000  -0.0000000  -0.0000000
 NQMom=    0.0000000   0.0000000   0.0000000   0.0000000   0.0000000   2.0440000   0.0000000   0.0000000   0.0000000   0.0000000
 NMagM=    0.0000000   0.0000000   0.0000000   0.0000000   0.0000000   0.4037610   0.0000000   0.0000000   0.0000000   0.0000000
 AtZNuc=  12.0000000   6.0000000   6.0000000   6.0000000   6.0000000   7.0000000   6.0000000   6.0000000   6.0000000   6.0000000

  Atom        11          12          13          14          15          16          17          18          19          20
 IAtWgt=          12          12          12           1          14          12          12          12          12          12
 AtmWgt=  12.0000000  12.0000000  12.0000000   1.0078250  14.0030740  12.0000000  12.0000000  12.0000000  12.0000000  12.0000000
 NucSpn=           0           0           0           1           2           0           0           0           0           0
 AtZEff=  -0.0000000  -0.0000000  -0.0000000  -0.0000000  -0.0000000  -0.0000000  -0.0000000  -0.0000000  -0.0000000  -0.0000000
 NQMom=    0.0000000   0.0000000   0.0000000   0.0000000   2.0440000   0.0000000   0.0000000   0.0000000   0.0000000   0.0000000
 NMagM=    0.0000000   0.0000000   0.0000000   2.7928460   0.4037610   0.0000000   0.0000000   0.0000000   0.0000000   0.0000000
 AtZNuc=   6.0000000   6.0000000   6.0000000   1.0000000   7.0000000   6.0000000   6.0000000   6.0000000   6.0000000   6.0000000

  Atom        21          22          23          24          25          26          27          28          29          30
 IAtWgt=          12          16          12          14          12          12          12          12          12          12
 AtmWgt=  12.0000000  15.9949146  12.0000000  14.0030740  12.0000000  12.0000000  12.0000000  12.0000000  12.0000000  12.0000000
 NucSpn=           0           0           0           2           0           0           0           0           0           0
 AtZEff=  -0.0000000  -0.0000000  -0.0000000  -0.0000000  -0.0000000  -0.0000000  -0.0000000  -0.0000000  -0.0000000  -0.0000000
 NQMom=    0.0000000   0.0000000   0.0000000   2.0440000   0.0000000   0.0000000   0.0000000   0.0000000   0.0000000   0.0000000
 NMagM=    0.0000000   0.0000000   0.0000000   0.4037610   0.0000000   0.0000000   0.0000000   0.0000000   0.0000000   0.0000000
 AtZNuc=   6.0000000   8.0000000   6.0000000   7.0000000   6.0000000   6.0000000   6.0000000   6.0000000   6.0000000   6.0000000

  Atom        31          32          33          34          35          36          37          38          39          40
 IAtWgt=          12          14          12          12          12          12          12          12          16          12
 AtmWgt=  12.0000000  14.0030740  12.0000000  12.0000000  12.0000000  12.0000000  12.0000000  12.0000000  15.9949146  12.0000000
 NucSpn=           0           2           0           0           0           0           0           0           0           0
 AtZEff=  -0.0000000  -0.0000000  -0.0000000  -0.0000000  -0.0000000  -0.0000000  -0.0000000  -0.0000000  -0.0000000  -0.0000000
 NQMom=    0.0000000   2.0440000   0.0000000   0.0000000   0.0000000   0.0000000   0.0000000   0.0000000   0.0000000   0.0000000
 NMagM=    0.0000000   0.4037610   0.0000000   0.0000000   0.0000000   0.0000000   0.0000000   0.0000000   0.0000000   0.0000000
 AtZNuc=   6.0000000   7.0000000   6.0000000   6.0000000   6.0000000   6.0000000   6.0000000   6.0000000   8.0000000   6.0000000

  Atom        41          42          43          44          45          46          47          48          49          50
 IAtWgt=          12          16          16          12           1           1           1           1           1           1
 AtmWgt=  12.0000000  15.9949146  15.9949146  12.0000000   1.0078250   1.0078250   1.0078250   1.0078250   1.0078250   1.0078250
 NucSpn=           0           0           0           0           1           1           1           1           1           1
 AtZEff=  -0.0000000  -0.0000000  -0.0000000  -0.0000000  -0.0000000  -0.0000000  -0.0000000  -0.0000000  -0.0000000  -0.0000000
 NQMom=    0.0000000   0.0000000   0.0000000   0.0000000   0.0000000   0.0000000   0.0000000   0.0000000   0.0000000   0.0000000
 NMagM=    0.0000000   0.0000000   0.0000000   0.0000000   2.7928460   2.7928460   2.7928460   2.7928460   2.7928460   2.7928460
 AtZNuc=   6.0000000   8.0000000   8.0000000   6.0000000   1.0000000   1.0000000   1.0000000   1.0000000   1.0000000   1.0000000

  Atom        51          52          53          54          55          56          57          58          59          60
 IAtWgt=           1           1           1           1           1           1           1           1           1           1
 AtmWgt=   1.0078250   1.0078250   1.0078250   1.0078250   1.0078250   1.0078250   1.0078250   1.0078250   1.0078250   1.0078250
 NucSpn=           1           1           1           1           1           1           1           1           1           1
 AtZEff=  -0.0000000  -0.0000000  -0.0000000  -0.0000000  -0.0000000  -0.0000000  -0.0000000  -0.0000000  -0.0000000  -0.0000000
 NQMom=    0.0000000   0.0000000   0.0000000   0.0000000   0.0000000   0.0000000   0.0000000   0.0000000   0.0000000   0.0000000
 NMagM=    2.7928460   2.7928460   2.7928460   2.7928460   2.7928460   2.7928460   2.7928460   2.7928460   2.7928460   2.7928460
 AtZNuc=   1.0000000   1.0000000   1.0000000   1.0000000   1.0000000   1.0000000   1.0000000   1.0000000   1.0000000   1.0000000

  Atom        61          62          63          64          65          66          67          68          69          70
 IAtWgt=           1           1           1           1           1           1           1           1           1           1
 AtmWgt=   1.0078250   1.0078250   1.0078250   1.0078250   1.0078250   1.0078250   1.0078250   1.0078250   1.0078250   1.0078250
 NucSpn=           1           1           1           1           1           1           1           1           1           1
 AtZEff=  -0.0000000  -0.0000000  -0.0000000  -0.0000000  -0.0000000  -0.0000000  -0.0000000  -0.0000000  -0.0000000  -0.0000000
 NQMom=    0.0000000   0.0000000   0.0000000   0.0000000   0.0000000   0.0000000   0.0000000   0.0000000   0.0000000   0.0000000
 NMagM=    2.7928460   2.7928460   2.7928460   2.7928460   2.7928460   2.7928460   2.7928460   2.7928460   2.7928460   2.7928460
 AtZNuc=   1.0000000   1.0000000   1.0000000   1.0000000   1.0000000   1.0000000   1.0000000   1.0000000   1.0000000   1.0000000

  Atom        71          72          73          74          75          76          77          78          79          80
 IAtWgt=           1           1           1           1           1           1           1           1           1          24
 AtmWgt=   1.0078250   1.0078250   1.0078250   1.0078250   1.0078250   1.0078250   1.0078250   1.0078250   1.0078250  23.9850450
 NucSpn=           1           1           1           1           1           1           1           1           1           0
 AtZEff=  -0.0000000  -0.0000000  -0.0000000  -0.0000000  -0.0000000  -0.0000000  -0.0000000  -0.0000000  -0.0000000  -0.0000000
 NQMom=    0.0000000   0.0000000   0.0000000   0.0000000   0.0000000   0.0000000   0.0000000   0.0000000   0.0000000   0.0000000
 NMagM=    2.7928460   2.7928460   2.7928460   2.7928460   2.7928460   2.7928460   2.7928460   2.7928460   2.7928460   0.0000000
 AtZNuc=   1.0000000   1.0000000   1.0000000   1.0000000   1.0000000   1.0000000   1.0000000   1.0000000   1.0000000  12.0000000

  Atom        81          82          83          84          85          86          87          88          89          90
 IAtWgt=          12          12          12          12          14          12          12          12          12          12
 AtmWgt=  12.0000000  12.0000000  12.0000000  12.0000000  14.0030740  12.0000000  12.0000000  12.0000000  12.0000000  12.0000000
 NucSpn=           0           0           0           0           2           0           0           0           0           0
 AtZEff=  -0.0000000  -0.0000000  -0.0000000  -0.0000000  -0.0000000  -0.0000000  -0.0000000  -0.0000000  -0.0000000  -0.0000000
 NQMom=    0.0000000   0.0000000   0.0000000   0.0000000   2.0440000   0.0000000   0.0000000   0.0000000   0.0000000   0.0000000
 NMagM=    0.0000000   0.0000000   0.0000000   0.0000000   0.4037610   0.0000000   0.0000000   0.0000000   0.0000000   0.0000000
 AtZNuc=   6.0000000   6.0000000   6.0000000   6.0000000   7.0000000   6.0000000   6.0000000   6.0000000   6.0000000   6.0000000

  Atom        91          92          93          94          95          96          97          98          99         100
 IAtWgt=          12          12           1          14          12          12          12          12          12          12
 AtmWgt=  12.0000000  12.0000000   1.0078250  14.0030740  12.0000000  12.0000000  12.0000000  12.0000000  12.0000000  12.0000000
 NucSpn=           0           0           1           2           0           0           0           0           0           0
 AtZEff=  -0.0000000  -0.0000000  -0.0000000  -0.0000000  -0.0000000  -0.0000000  -0.0000000  -0.0000000  -0.0000000  -0.0000000
 NQMom=    0.0000000   0.0000000   0.0000000   2.0440000   0.0000000   0.0000000   0.0000000   0.0000000   0.0000000   0.0000000
 NMagM=    0.0000000   0.0000000   2.7928460   0.4037610   0.0000000   0.0000000   0.0000000   0.0000000   0.0000000   0.0000000
 AtZNuc=   6.0000000   6.0000000   1.0000000   7.0000000   6.0000000   6.0000000   6.0000000   6.0000000   6.0000000   6.0000000

  Atom       101         102         103         104         105         106         107         108         109         110
 IAtWgt=          16          12          14          12          12          12          12          12          12          12
 AtmWgt=  15.9949146  12.0000000  14.0030740  12.0000000  12.0000000  12.0000000  12.0000000  12.0000000  12.0000000  12.0000000
 NucSpn=           0           0           2           0           0           0           0           0           0           0
 AtZEff=  -0.0000000  -0.0000000  -0.0000000  -0.0000000  -0.0000000  -0.0000000  -0.0000000  -0.0000000  -0.0000000  -0.0000000
 NQMom=    0.0000000   0.0000000   2.0440000   0.0000000   0.0000000   0.0000000   0.0000000   0.0000000   0.0000000   0.0000000
 NMagM=    0.0000000   0.0000000   0.4037610   0.0000000   0.0000000   0.0000000   0.0000000   0.0000000   0.0000000   0.0000000
 AtZNuc=   8.0000000   6.0000000   7.0000000   6.0000000   6.0000000   6.0000000   6.0000000   6.0000000   6.0000000   6.0000000

  Atom       111         112         113         114         115         116         117         118         119         120
 IAtWgt=          14          12          12          12          12          12          12          16          12          12
 AtmWgt=  14.0030740  12.0000000  12.0000000  12.0000000  12.0000000  12.0000000  12.0000000  15.9949146  12.0000000  12.0000000
 NucSpn=           2           0           0           0           0           0           0           0           0           0
 AtZEff=  -0.0000000  -0.0000000  -0.0000000  -0.0000000  -0.0000000  -0.0000000  -0.0000000  -0.0000000  -0.0000000  -0.0000000
 NQMom=    2.0440000   0.0000000   0.0000000   0.0000000   0.0000000   0.0000000   0.0000000   0.0000000   0.0000000   0.0000000
 NMagM=    0.4037610   0.0000000   0.0000000   0.0000000   0.0000000   0.0000000   0.0000000   0.0000000   0.0000000   0.0000000
 AtZNuc=   7.0000000   6.0000000   6.0000000   6.0000000   6.0000000   6.0000000   6.0000000   8.0000000   6.0000000   6.0000000

  Atom       121         122         123         124         125         126         127         128         129         130
 IAtWgt=          16          16          12           1           1           1           1           1           1           1
 AtmWgt=  15.9949146  15.9949146  12.0000000   1.0078250   1.0078250   1.0078250   1.0078250   1.0078250   1.0078250   1.0078250
 NucSpn=           0           0           0           1           1           1           1           1           1           1
 AtZEff=  -0.0000000  -0.0000000  -0.0000000  -0.0000000  -0.0000000  -0.0000000  -0.0000000  -0.0000000  -0.0000000  -0.0000000
 NQMom=    0.0000000   0.0000000   0.0000000   0.0000000   0.0000000   0.0000000   0.0000000   0.0000000   0.0000000   0.0000000
 NMagM=    0.0000000   0.0000000   0.0000000   2.7928460   2.7928460   2.7928460   2.7928460   2.7928460   2.7928460   2.7928460
 AtZNuc=   8.0000000   8.0000000   6.0000000   1.0000000   1.0000000   1.0000000   1.0000000   1.0000000   1.0000000   1.0000000

  Atom       131         132         133         134         135         136         137         138         139         140
 IAtWgt=           1           1           1           1           1           1           1           1           1           1
 AtmWgt=   1.0078250   1.0078250   1.0078250   1.0078250   1.0078250   1.0078250   1.0078250   1.0078250   1.0078250   1.0078250
 NucSpn=           1           1           1           1           1           1           1           1           1           1
 AtZEff=  -0.0000000  -0.0000000  -0.0000000  -0.0000000  -0.0000000  -0.0000000  -0.0000000  -0.0000000  -0.0000000  -0.0000000
 NQMom=    0.0000000   0.0000000   0.0000000   0.0000000   0.0000000   0.0000000   0.0000000   0.0000000   0.0000000   0.0000000
 NMagM=    2.7928460   2.7928460   2.7928460   2.7928460   2.7928460   2.7928460   2.7928460   2.7928460   2.7928460   2.7928460
 AtZNuc=   1.0000000   1.0000000   1.0000000   1.0000000   1.0000000   1.0000000   1.0000000   1.0000000   1.0000000   1.0000000

  Atom       141         142         143         144         145         146         147         148         149         150
 IAtWgt=           1           1           1           1           1           1           1           1           1           1
 AtmWgt=   1.0078250   1.0078250   1.0078250   1.0078250   1.0078250   1.0078250   1.0078250   1.0078250   1.0078250   1.0078250
 NucSpn=           1           1           1           1           1           1           1           1           1           1
 AtZEff=  -0.0000000  -0.0000000  -0.0000000  -0.0000000  -0.0000000  -0.0000000  -0.0000000  -0.0000000  -0.0000000  -0.0000000
 NQMom=    0.0000000   0.0000000   0.0000000   0.0000000   0.0000000   0.0000000   0.0000000   0.0000000   0.0000000   0.0000000
 NMagM=    2.7928460   2.7928460   2.7928460   2.7928460   2.7928460   2.7928460   2.7928460   2.7928460   2.7928460   2.7928460
 AtZNuc=   1.0000000   1.0000000   1.0000000   1.0000000   1.0000000   1.0000000   1.0000000   1.0000000   1.0000000   1.0000000

  Atom       151         152         153         154         155         156         157         158
 IAtWgt=           1           1           1           1           1           1           1           1
 AtmWgt=   1.0078250   1.0078250   1.0078250   1.0078250   1.0078250   1.0078250   1.0078250   1.0078250
 NucSpn=           1           1           1           1           1           1           1           1
 AtZEff=  -0.0000000  -0.0000000  -0.0000000  -0.0000000  -0.0000000  -0.0000000  -0.0000000  -0.0000000
 NQMom=    0.0000000   0.0000000   0.0000000   0.0000000   0.0000000   0.0000000   0.0000000   0.0000000
 NMagM=    2.7928460   2.7928460   2.7928460   2.7928460   2.7928460   2.7928460   2.7928460   2.7928460
 AtZNuc=   1.0000000   1.0000000   1.0000000   1.0000000   1.0000000   1.0000000   1.0000000   1.0000000
 Leave Link  101 at Sat Sep 11 11:07:33 2021, MaxMem= 23488102400 cpu:               5.8 elap:               0.2
 (Enter /sw/apps/gaussian-16.0/g16/l202.exe)
 Stoichiometry    C68H72Mg2N8O8
 Framework group  C1[X(C68H72Mg2N8O8)]
 Deg. of freedom   468
 Full point group                 C1      NOp   1
 Largest Abelian subgroup         C1      NOp   1
 Largest concise Abelian subgroup C1      NOp   1
                         Standard orientation:                         
 ---------------------------------------------------------------------
 Center     Atomic      Atomic             Coordinates (Angstroms)
 Number     Number       Type             X           Y           Z
 ---------------------------------------------------------------------
      1         12           0       -6.509682    0.620756    0.524063
      2          6           0       -6.942011   -2.006310   -1.868389
      3          6           0       -7.177008   -1.682330    2.951724
      4          6           0       -6.581762    3.004907    2.613860
      5          6           0       -7.000223    2.877812   -2.085675
      6          7           0       -6.982505   -1.539791    0.428572
      7          6           0       -7.058691   -2.440562   -0.546097
      8          6           0       -7.198943   -3.902666   -0.026525
      9          6           0       -7.822886   -3.600820    1.409296
     10          6           0       -7.266483   -2.204825    1.627327
     11          6           0       -9.346421   -3.527737    1.408415
     12          6           0       -5.815826   -4.627222    0.090683
     13          6           0       -5.887300   -6.145853    0.275083
     14          1           0       -4.867451   -6.975740   -0.348250
     15          7           0       -6.350314    0.603758    2.493115
     16          6           0       -6.650084   -0.425809    3.321013
     17          6           0       -6.363104    0.054909    4.689674
     18          6           0       -6.052942    1.509145    4.605481
     19          6           0       -6.345310    1.773219    3.219781
     20          6           0       -6.352313   -0.840092    5.890760
     21          6           0       -5.579774    2.505345    5.616337
     22          8           0       -5.595670    3.763622    5.390371
     23          6           0       -5.174759    1.968443    6.928108
     24          7           0       -6.972162    2.648853    0.349217
     25          6           0       -6.867804    3.473266    1.397280
     26          6           0       -6.972068    4.908864    0.975229
     27          6           0       -6.926651    4.904800   -0.620915
     28          6           0       -6.883857    3.374083   -0.851883
     29          6           0       -8.226680    5.656050    1.448168
     30          6           0       -5.843377    5.783127   -1.295806
     31          6           0       -4.470359    5.222662   -0.999497
     32          7           0       -6.726577    0.499273   -1.632147
     33          6           0       -6.944102    1.563662   -2.518958
     34          6           0       -7.133096    0.977882   -3.858813
     35          6           0       -7.028187   -0.396527   -3.654269
     36          6           0       -6.814979   -0.654448   -2.269960
     37          6           0       -7.424684    1.699148   -5.050109
     38          6           0       -7.071168   -1.708503   -4.279352
     39          8           0       -7.129134   -2.114068   -5.441096
     40          6           0       -7.138699   -2.808991   -3.130356
     41          6           0       -6.121389   -3.868558   -3.455485
     42          8           0       -4.900171   -3.613332   -3.426293
     43          8           0       -6.728177   -5.063848   -3.515755
     44          6           0       -5.769735   -6.163574   -3.805829
     45          1           0       -7.601118   -2.258676    3.776283
     46          1           0       -6.505041    3.864200    3.283313
     47          1           0       -7.073575    3.524782   -2.961746
     48          1           0       -7.880276   -4.527084   -0.604723
     49          1           0       -7.443205   -4.283094    2.169604
     50          1           0       -9.746587   -3.567230    0.395386
     51          1           0       -9.592389   -2.575133    1.878029
     52          1           0       -9.771539   -4.297935    2.052502
     53          1           0       -5.342489   -4.348105    1.032016
     54          1           0       -5.185963   -4.397746   -0.769515
     55          1           0       -6.882666   -6.528552    0.047714
     56          1           0       -5.746585   -6.368463    1.332837
     57          1           0       -6.779328   -1.816732    5.666312
     58          1           0       -7.037161   -0.404899    6.618289
     59          1           0       -5.357794   -0.927463    6.328516
     60          1           0       -6.016251    1.439228    7.375736
     61          1           0       -4.781674    2.814377    7.490896
     62          1           0       -4.390152    1.226115    6.778813
     63          1           0       -6.132762    5.490054    1.354978
     64          1           0       -7.862464    5.254404   -1.057611
     65          1           0       -8.009361    6.554832    2.025808
     66          1           0       -8.836954    4.959898    2.022824
     67          1           0       -8.914911    5.942490    0.653368
     68          1           0       -5.870551    6.795015   -0.892955
     69          1           0       -5.958841    5.853570   -2.377452
     70          1           0       -4.242021    5.642722   -0.020598
     71          1           0       -3.751931    5.561155   -1.746822
     72          1           0       -4.498062    4.138315   -0.890361
     73          1           0       -6.796097    1.268110   -5.829246
     74          1           0       -7.228173    2.763903   -4.926484
     75          1           0       -8.486455    1.480900   -5.163535
     76          1           0       -8.154693   -3.202530   -3.132555
     77          1           0       -6.134105   -6.681158   -4.693283
     78          1           0       -5.673910   -6.741626   -2.886547
     79          1           0       -4.775603   -5.861652   -4.137315
     80         12           0        6.672940    0.567981   -0.669581
     81          6           0        6.653055   -2.278795    1.515491
     82          6           0        6.050464    2.492733    2.076771
     83          6           0        6.237451    3.033296   -2.618940
     84          6           0        6.153967   -1.636196   -3.318721
     85          7           0        6.407644    0.057100    1.466039
     86          6           0        6.482715   -1.050767    2.188076
     87          6           0        6.449236   -0.821637    3.722992
     88          6           0        5.693670    0.595312    3.738176
     89          6           0        6.099738    1.103668    2.356379
     90          6           0        4.179673    0.469662    3.774961
     91          6           0        7.886693   -0.712778    4.342575
     92          6           0        7.936946   -0.798309    5.869626
     93          1           0        9.076939   -1.465573    6.492245
     94          7           0        6.698583    2.517672   -0.299931
     95          6           0        6.444108    3.126070    0.877505
     96          6           0        6.572029    4.568938    0.620726
     97          6           0        6.760768    4.770212   -0.841660
     98          6           0        6.547454    3.420157   -1.323259
     99          6           0        6.590256    5.592371    1.718767
    100          6           0        7.068106    5.980212   -1.670917
    101          8           0        6.952667    5.968741   -2.947380
    102          6           0        7.417963    7.205704   -0.937932
    103          7           0        6.046236    0.708437   -2.646912
    104          6           0        5.994460    1.897280   -3.272937
    105          6           0        5.783747    1.722994   -4.758078
    106          6           0        5.947231    0.156287   -5.034265
    107          6           0        6.144436   -0.337095   -3.584066
    108          6           0        4.434813    2.196777   -5.298702
    109          6           0        6.989553   -0.264351   -6.106319
    110          6           0        8.385670    0.053791   -5.621528
    111          7           0        6.625477   -1.577319   -0.921473
    112          6           0        6.365748   -2.290829   -2.112072
    113          6           0        6.327290   -3.725169   -1.760489
    114          6           0        6.546189   -3.745222   -0.374782
    115          6           0        6.689437   -2.415891    0.106720
    116          6           0        6.064875   -4.795710   -2.661160
    117          6           0        6.678073   -4.588051    0.791814
    118          8           0        6.732700   -5.801927    0.984818
    119          6           0        6.627151   -3.668974    2.087611
    120          6           0        7.759048   -4.076181    2.990667
    121          8           0        8.940008   -3.906786    2.639580
    122          8           0        7.264558   -4.394780    4.200761
    123          6           0        8.350329   -4.794773    5.135061
    124          1           0        5.631423    3.159258    2.831125
    125          1           0        6.186022    3.841074   -3.352649
    126          1           0        6.094888   -2.392852   -4.103999
    127          1           0        5.876828   -1.554225    4.279261
    128          1           0        6.088546    1.245199    4.514754
    129          1           0        3.857671   -0.555230    3.665172
    130          1           0        3.814519    1.071102    2.952775
    131          1           0        3.785089    0.931359    4.684618
    132          1           0        8.262002    0.308653    4.199150
    133          1           0        8.541447   -1.448587    3.917697
    134          1           0        6.995888   -1.170139    6.292833
    135          1           0        8.029915    0.213761    6.271002
    136          1           0        6.265737    5.162716    2.674531
    137          1           0        5.819851    6.333020    1.478375
    138          1           0        7.553409    6.099763    1.805700
    139          1           0        6.601248    7.473753   -0.271917
    140          1           0        7.690582    7.935754   -1.702513
    141          1           0        8.286473    6.997737   -0.303057
    142          1           0        6.537425    2.259624   -5.321196
    143          1           0        5.010575   -0.293825   -5.394701
    144          1           0        4.527421    2.951033   -6.102812
    145          1           0        3.855384    2.589580   -4.473778
    146          1           0        3.787964    1.408899   -5.680876
    147          1           0        6.841419    0.309705   -7.024285
    148          1           0        6.936533   -1.315015   -6.371428
    149          1           0        8.499160    1.112420   -5.873565
    150          1           0        9.120463   -0.556896   -6.142283
    151          1           0        8.453271   -0.034501   -4.530981
    152          1           0        6.776613   -5.577462   -2.431371
    153          1           0        6.147964   -4.473254   -3.696960
    154          1           0        5.033620   -5.033207   -2.386647
    155          1           0        5.654349   -3.818800    2.557496
    156          1           0        8.095697   -5.789509    5.513673
    157          1           0        8.422842   -3.976962    5.876462
    158          1           0        9.332904   -4.973743    4.714365
 ---------------------------------------------------------------------
 Rotational constants (GHZ):           0.0202885           0.0078152           0.0076631
 Leave Link  202 at Sat Sep 11 11:07:33 2021, MaxMem= 23488102400 cpu:               0.2 elap:               0.0
 (Enter /sw/apps/gaussian-16.0/g16/l301.exe)
 Standard basis: def2SVP (5D, 7F)
 Ernie: Thresh=  0.10000D-02 Tol=  0.10000D-05 Strict=F.
 There are  1658 symmetry adapted cartesian basis functions of A   symmetry.
 There are  1572 symmetry adapted basis functions of A   symmetry.
  1572 basis functions,  2678 primitive gaussians,  1658 cartesian basis functions
   312 alpha electrons      312 beta electrons
       nuclear repulsion energy     14241.1882564914 Hartrees.
 IExCor=20419 DFT=T Ex+Corr=CAM-B3LYP ExCW=0 ScaHFX=  1.000000
 ScaDFX=  1.000000  1.000000  1.000000  0.810000 ScalE2=  1.000000  1.000000
 IRadAn=      5 IRanWt=     -1 IRanGd=            0 ICorTp=0 IEmpDi=  4
 HFx  wShort=  0.000000 wLong=  0.330000 cFull=  0.190000 cShort=  0.000000 cLong=  0.460000
 DFx  wShort=  0.000000 wLong=  0.330000 cFull=  0.190000 cShort=  0.000000 cLong=  0.460000
 NAtoms=  158 NActive=  158 NUniq=  158 SFac= 1.00D+00 NAtFMM=   60 NAOKFM=T Big=T
 Integral buffers will be    131072 words long.
 Raffenetti 1 integral format.
 Two-electron integral symmetry is turned on.
 Leave Link  301 at Sat Sep 11 11:07:33 2021, MaxMem= 23488102400 cpu:               1.4 elap:               0.1
 (Enter /sw/apps/gaussian-16.0/g16/l302.exe)
 NPDir=0 NMtPBC=     1 NCelOv=     1 NCel=       1 NClECP=     1 NCelD=      1
         NCelK=      1 NCelE2=     1 NClLst=     1 CellRange=     0.0.
 One-electron integrals computed using PRISM.
 One-electron integral symmetry used in STVInt
   1 Symmetry operations used in ECPInt.
 ECPInt:  NShTT=  271216 NPrTT=  987664 LenC2=  116469 LenP2D=  254964.
 LDataN:  DoStor=T MaxTD1= 4 Len=   56
 NBasis=  1572 RedAO= T EigKep=  3.36D-04  NBF=  1572
 NBsUse=  1572 1.00D-06 EigRej= -1.00D+00 NBFU=  1572
 Precomputing XC quadrature grid using
 IXCGrd= 4 IRadAn=           5 IRanWt=          -1 IRanGd=           0 AccXCQ= 0.00D+00.
 Generated NRdTot=       0 NPtTot=           0 NUsed=           0 NTot=          32
 NSgBfM=   964   939   947   956   964 MxSgAt=   158 MxSgA2=   156.
 Leave Link  302 at Sat Sep 11 11:07:38 2021, MaxMem= 23488102400 cpu:             116.5 elap:               4.9
 (Enter /sw/apps/gaussian-16.0/g16/l303.exe)
 DipDrv:  MaxL=1.
 Leave Link  303 at Sat Sep 11 11:07:38 2021, MaxMem= 23488102400 cpu:               9.2 elap:               0.4
 (Enter /sw/apps/gaussian-16.0/g16/l308.exe)
 Leave Link  308 at Sat Sep 11 11:07:39 2021, MaxMem= 23488102400 cpu:              14.7 elap:               0.7
 (Enter /sw/apps/gaussian-16.0/g16/l401.exe)
 ExpMin= 3.36D-02 ExpMax= 4.95D+03 ExpMxC= 7.45D+02 IAcc=3 IRadAn=         5 AccDes= 0.00D+00
 Harris functional with IExCor=20419 and IRadAn=       5 diagonalized for initial guess.
 HarFok:  IExCor=20419 AccDes= 0.00D+00 IRadAn=         5 IDoV= 1 UseB2=F ITyADJ=14
 ICtDFT=  3500011 ScaDFX=  1.000000  1.000000  1.000000  1.000000
 FoFCou: FMM=F IPFlag=           0 FMFlag=      100000 FMFlg1=        2001
         NFxFlg=           0 DoJE=T BraDBF=F KetDBF=T FulRan=T
         wScrn=  0.000000 ICntrl=       500 IOpCl=  0 I1Cent=   200000004 NGrid=           0
         NMat0=    1 NMatS0=      1 NMatT0=    0 NMatD0=    1 NMtDS0=    0 NMtDT0=    0
 Petite list used in FoFCou.
 Harris En= -3918.65801491550    
 JPrj=0 DoOrth=F DoCkMO=F.
 Leave Link  401 at Sat Sep 11 11:07:46 2021, MaxMem= 23488102400 cpu:             165.5 elap:               6.9
 (Enter /sw/apps/gaussian-16.0/g16/l502.exe)
 Integral symmetry usage will be decided dynamically.
 Closed shell SCF:
 Using DIIS extrapolation, IDIIS=  1040.
 NGot= 23488102400 LenX= 23482547354 LenY= 23479796732
 Requested convergence on RMS density matrix=1.00D-08 within 128 cycles.
 Requested convergence on MAX density matrix=1.00D-06.
 Requested convergence on             energy=1.00D-06.
 No special actions if energy rises.
 Fock matrices will be formed incrementally for  20 cycles.

 Cycle   1  Pass 1  IDiag  1:
 FoFJK:  IHMeth= 1 ICntrl=       0 DoSepK=T KAlg= 0 I1Cent=           0 FoldK=F
 IRaf=         1 NMat=       1 IRICut=       1 DoRegI=T DoRafI=F ISym2E= 0 IDoP0=0 IntGTp=1.
 FoFCou: FMM=T IPFlag=           0 FMFlag=      100000 FMFlg1=        2001
         NFxFlg=           0 DoJE=T BraDBF=F KetDBF=F FulRan=T
         wScrn=  0.000000 ICntrl=       500 IOpCl=  0 I1Cent=           0 NGrid=           0
         NMat0=    1 NMatS0=      1 NMatT0=    0 NMatD0=    1 NMtDS0=    0 NMtDT0=    0
 Symmetry not used in FoFCou.
 FMM levels:  10  Number of levels for PrismC:   9
 E= -4068.94927530649    
 DIIS: error= 2.04D-02 at cycle   1 NSaved=   1.
 NSaved= 1 IEnMin= 1 EnMin= -4068.94927530649     IErMin= 1 ErrMin= 2.04D-02
 ErrMax= 2.04D-02  0.00D+00 EMaxC= 1.00D-01 BMatC= 1.69D+00 BMatP= 1.69D+00
 IDIUse=3 WtCom= 7.96D-01 WtEn= 2.04D-01
 Coeff-Com:  0.100D+01
 Coeff-En:   0.100D+01
 Coeff:      0.100D+01
 Gap=     0.120 Goal=   None    Shift=    0.000
 GapD=    0.120 DampG=1.000 DampE=0.500 DampFc=0.5000 IDamp=-1.
 Damping current iteration by 5.00D-01
 RMSDP=1.57D-03 MaxDP=1.35D-01              OVMax= 2.05D-01

 Cycle   2  Pass 1  IDiag  1:
 RMSU=  7.70D-04    CP:  9.82D-01
 E= -4069.33798852222     Delta-E=       -0.388713215725 Rises=F Damp=T
 DIIS: error= 1.27D-02 at cycle   2 NSaved=   2.
 NSaved= 2 IEnMin= 2 EnMin= -4069.33798852222     IErMin= 2 ErrMin= 1.27D-02
 ErrMax= 1.27D-02  0.00D+00 EMaxC= 1.00D-01 BMatC= 3.07D-01 BMatP= 1.69D+00
 IDIUse=3 WtCom= 8.73D-01 WtEn= 1.27D-01
 Coeff-Com: -0.213D+00 0.121D+01
 Coeff-En:   0.000D+00 0.100D+01
 Coeff:     -0.186D+00 0.119D+01
 Gap=     0.135 Goal=   None    Shift=    0.000
 RMSDP=7.66D-04 MaxDP=9.40D-02 DE=-3.89D-01 OVMax= 1.92D-01

 Cycle   3  Pass 1  IDiag  1:
 RMSU=  7.33D-04    CP:  9.68D-01  1.24D+00
 E= -4069.62696110521     Delta-E=       -0.288972582992 Rises=F Damp=F
 DIIS: error= 1.58D-02 at cycle   3 NSaved=   3.
 NSaved= 3 IEnMin= 3 EnMin= -4069.62696110521     IErMin= 2 ErrMin= 1.27D-02
 ErrMax= 1.58D-02  0.00D+00 EMaxC= 1.00D-01 BMatC= 2.03D-01 BMatP= 3.07D-01
 IDIUse=3 WtCom= 8.42D-01 WtEn= 1.58D-01
 Coeff-Com: -0.267D+00 0.652D+00 0.615D+00
 Coeff-En:   0.000D+00 0.000D+00 0.100D+01
 Coeff:     -0.225D+00 0.549D+00 0.676D+00
 Gap=     0.123 Goal=   None    Shift=    0.000
 RMSDP=5.10D-04 MaxDP=4.97D-02 DE=-2.89D-01 OVMax= 1.47D-01

 Cycle   4  Pass 1  IDiag  1:
 RMSU=  2.66D-04    CP:  9.65D-01  1.55D+00  5.04D-01
 E= -4069.76456615431     Delta-E=       -0.137605049105 Rises=F Damp=F
 DIIS: error= 7.30D-03 at cycle   4 NSaved=   4.
 NSaved= 4 IEnMin= 4 EnMin= -4069.76456615431     IErMin= 4 ErrMin= 7.30D-03
 ErrMax= 7.30D-03  0.00D+00 EMaxC= 1.00D-01 BMatC= 5.08D-02 BMatP= 2.03D-01
 IDIUse=3 WtCom= 9.27D-01 WtEn= 7.30D-02
 Coeff-Com: -0.109D+00 0.226D+00 0.409D+00 0.474D+00
 Coeff-En:   0.000D+00 0.000D+00 0.222D+00 0.778D+00
 Coeff:     -0.101D+00 0.210D+00 0.395D+00 0.496D+00
 Gap=     0.122 Goal=   None    Shift=    0.000
 RMSDP=2.02D-04 MaxDP=2.08D-02 DE=-1.38D-01 OVMax= 6.51D-02

 Cycle   5  Pass 1  IDiag  1:
 RMSU=  7.67D-05    CP:  9.64D-01  1.49D+00  6.89D-01  5.47D-01
 E= -4069.81058581002     Delta-E=       -0.046019655711 Rises=F Damp=F
 DIIS: error= 7.87D-04 at cycle   5 NSaved=   5.
 NSaved= 5 IEnMin= 5 EnMin= -4069.81058581002     IErMin= 5 ErrMin= 7.87D-04
 ErrMax= 7.87D-04  0.00D+00 EMaxC= 1.00D-01 BMatC= 1.20D-03 BMatP= 5.08D-02
 IDIUse=3 WtCom= 9.92D-01 WtEn= 7.87D-03
 Coeff-Com: -0.363D-01 0.713D-01 0.167D+00 0.251D+00 0.547D+00
 Coeff-En:   0.000D+00 0.000D+00 0.000D+00 0.000D+00 0.100D+01
 Coeff:     -0.360D-01 0.708D-01 0.166D+00 0.249D+00 0.551D+00
 Gap=     0.121 Goal=   None    Shift=    0.000
 RMSDP=4.17D-05 MaxDP=4.23D-03 DE=-4.60D-02 OVMax= 1.81D-02

 Cycle   6  Pass 1  IDiag  1:
 RMSU=  3.08D-05    CP:  9.64D-01  1.49D+00  6.80D-01  6.20D-01  7.50D-01
 E= -4069.81164055868     Delta-E=       -0.001054748653 Rises=F Damp=F
 DIIS: error= 2.06D-04 at cycle   6 NSaved=   6.
 NSaved= 6 IEnMin= 6 EnMin= -4069.81164055868     IErMin= 6 ErrMin= 2.06D-04
 ErrMax= 2.06D-04  0.00D+00 EMaxC= 1.00D-01 BMatC= 1.83D-04 BMatP= 1.20D-03
 IDIUse=3 WtCom= 9.98D-01 WtEn= 2.06D-03
 Coeff-Com:  0.221D-02-0.660D-02 0.114D-01 0.405D-01 0.306D+00 0.646D+00
 Coeff-En:   0.000D+00 0.000D+00 0.000D+00 0.000D+00 0.108D+00 0.892D+00
 Coeff:      0.221D-02-0.658D-02 0.114D-01 0.404D-01 0.306D+00 0.647D+00
 Gap=     0.122 Goal=   None    Shift=    0.000
 RMSDP=1.63D-05 MaxDP=1.23D-03 DE=-1.05D-03 OVMax= 7.83D-03

 Cycle   7  Pass 1  IDiag  1:
 RMSU=  1.09D-05    CP:  9.64D-01  1.50D+00  6.86D-01  6.20D-01  8.54D-01
                    CP:  7.46D-01
 E= -4069.81183888239     Delta-E=       -0.000198323709 Rises=F Damp=F
 DIIS: error= 9.29D-05 at cycle   7 NSaved=   7.
 NSaved= 7 IEnMin= 7 EnMin= -4069.81183888239     IErMin= 7 ErrMin= 9.29D-05
 ErrMax= 9.29D-05  0.00D+00 EMaxC= 1.00D-01 BMatC= 2.19D-05 BMatP= 1.83D-04
 IDIUse=1 WtCom= 1.00D+00 WtEn= 0.00D+00
 Coeff-Com:  0.449D-02-0.983D-02-0.894D-02-0.360D-02 0.104D+00 0.332D+00
 Coeff-Com:  0.582D+00
 Coeff:      0.449D-02-0.983D-02-0.894D-02-0.360D-02 0.104D+00 0.332D+00
 Coeff:      0.582D+00
 Gap=     0.122 Goal=   None    Shift=    0.000
 RMSDP=6.54D-06 MaxDP=1.15D-03 DE=-1.98D-04 OVMax= 3.64D-03

 Cycle   8  Pass 1  IDiag  1:
 RMSU=  4.70D-06    CP:  9.64D-01  1.50D+00  6.87D-01  6.24D-01  8.57D-01
                    CP:  8.70D-01  8.21D-01
 E= -4069.81186606190     Delta-E=       -0.000027179514 Rises=F Damp=F
 DIIS: error= 5.22D-05 at cycle   8 NSaved=   8.
 NSaved= 8 IEnMin= 8 EnMin= -4069.81186606190     IErMin= 8 ErrMin= 5.22D-05
 ErrMax= 5.22D-05  0.00D+00 EMaxC= 1.00D-01 BMatC= 4.83D-06 BMatP= 2.19D-05
 IDIUse=1 WtCom= 1.00D+00 WtEn= 0.00D+00
 Coeff-Com:  0.216D-02-0.428D-02-0.776D-02-0.121D-01-0.110D-01 0.329D-01
 Coeff-Com:  0.336D+00 0.664D+00
 Coeff:      0.216D-02-0.428D-02-0.776D-02-0.121D-01-0.110D-01 0.329D-01
 Coeff:      0.336D+00 0.664D+00
 Gap=     0.122 Goal=   None    Shift=    0.000
 RMSDP=3.31D-06 MaxDP=4.06D-04 DE=-2.72D-05 OVMax= 1.11D-03

 Cycle   9  Pass 1  IDiag  1:
 RMSU=  1.92D-06    CP:  9.64D-01  1.50D+00  6.87D-01  6.26D-01  8.74D-01
                    CP:  8.97D-01  1.02D+00  9.51D-01
 E= -4069.81187381847     Delta-E=       -0.000007756567 Rises=F Damp=F
 DIIS: error= 1.88D-05 at cycle   9 NSaved=   9.
 NSaved= 9 IEnMin= 9 EnMin= -4069.81187381847     IErMin= 9 ErrMin= 1.88D-05
 ErrMax= 1.88D-05  0.00D+00 EMaxC= 1.00D-01 BMatC= 7.04D-07 BMatP= 4.83D-06
 IDIUse=1 WtCom= 1.00D+00 WtEn= 0.00D+00
 Coeff-Com:  0.464D-03-0.768D-03-0.267D-02-0.599D-02-0.209D-01-0.392D-01
 Coeff-Com:  0.101D+00 0.329D+00 0.639D+00
 Coeff:      0.464D-03-0.768D-03-0.267D-02-0.599D-02-0.209D-01-0.392D-01
 Coeff:      0.101D+00 0.329D+00 0.639D+00
 Gap=     0.122 Goal=   None    Shift=    0.000
 RMSDP=1.42D-06 MaxDP=1.60D-04 DE=-7.76D-06 OVMax= 7.63D-04

 Cycle  10  Pass 1  IDiag  1:
 RMSU=  9.42D-07    CP:  9.64D-01  1.50D+00  6.87D-01  6.26D-01  8.77D-01
                    CP:  9.10D-01  1.06D+00  1.12D+00  1.06D+00
 E= -4069.81187543660     Delta-E=       -0.000001618133 Rises=F Damp=F
 DIIS: error= 1.03D-05 at cycle  10 NSaved=  10.
 NSaved=10 IEnMin=10 EnMin= -4069.81187543660     IErMin=10 ErrMin= 1.03D-05
 ErrMax= 1.03D-05  0.00D+00 EMaxC= 1.00D-01 BMatC= 1.71D-07 BMatP= 7.04D-07
 IDIUse=1 WtCom= 1.00D+00 WtEn= 0.00D+00
 Coeff-Com: -0.428D-03 0.898D-03 0.124D-02 0.112D-02-0.369D-02-0.309D-01
 Coeff-Com: -0.461D-01-0.759D-01 0.248D+00 0.905D+00
 Coeff:     -0.428D-03 0.898D-03 0.124D-02 0.112D-02-0.369D-02-0.309D-01
 Coeff:     -0.461D-01-0.759D-01 0.248D+00 0.905D+00
 Gap=     0.122 Goal=   None    Shift=    0.000
 RMSDP=1.24D-06 MaxDP=1.32D-04 DE=-1.62D-06 OVMax= 6.24D-04

 Cycle  11  Pass 1  IDiag  1:
 RMSU=  5.22D-07    CP:  9.64D-01  1.50D+00  6.87D-01  6.27D-01  8.80D-01
                    CP:  9.20D-01  1.11D+00  1.23D+00  1.40D+00  1.37D+00
 E= -4069.81187623698     Delta-E=       -0.000000800381 Rises=F Damp=F
 DIIS: error= 3.98D-06 at cycle  11 NSaved=  11.
 NSaved=11 IEnMin=11 EnMin= -4069.81187623698     IErMin=11 ErrMin= 3.98D-06
 ErrMax= 3.98D-06  0.00D+00 EMaxC= 1.00D-01 BMatC= 6.30D-08 BMatP= 1.71D-07
 IDIUse=1 WtCom= 1.00D+00 WtEn= 0.00D+00
 Coeff-Com: -0.329D-03 0.640D-03 0.133D-02 0.212D-02 0.440D-02-0.831D-02
 Coeff-Com: -0.428D-01-0.132D+00-0.289D-01 0.472D+00 0.731D+00
 Coeff:     -0.329D-03 0.640D-03 0.133D-02 0.212D-02 0.440D-02-0.831D-02
 Coeff:     -0.428D-01-0.132D+00-0.289D-01 0.472D+00 0.731D+00
 Gap=     0.122 Goal=   None    Shift=    0.000
 RMSDP=6.93D-07 MaxDP=6.00D-05 DE=-8.00D-07 OVMax= 3.70D-04

 Cycle  12  Pass 1  IDiag  1:
 RMSU=  2.64D-07    CP:  9.64D-01  1.50D+00  6.87D-01  6.27D-01  8.81D-01
                    CP:  9.22D-01  1.13D+00  1.29D+00  1.56D+00  1.76D+00
                    CP:  1.20D+00
 E= -4069.81187650509     Delta-E=       -0.000000268108 Rises=F Damp=F
 DIIS: error= 2.52D-06 at cycle  12 NSaved=  12.
 NSaved=12 IEnMin=12 EnMin= -4069.81187650509     IErMin=12 ErrMin= 2.52D-06
 ErrMax= 2.52D-06  0.00D+00 EMaxC= 1.00D-01 BMatC= 1.50D-08 BMatP= 6.30D-08
 IDIUse=1 WtCom= 1.00D+00 WtEn= 0.00D+00
 Coeff-Com: -0.844D-06-0.151D-04 0.184D-03 0.516D-03 0.333D-02 0.405D-02
 Coeff-Com:  0.269D-02-0.344D-01-0.707D-01-0.703D-01 0.249D+00 0.916D+00
 Coeff:     -0.844D-06-0.151D-04 0.184D-03 0.516D-03 0.333D-02 0.405D-02
 Coeff:      0.269D-02-0.344D-01-0.707D-01-0.703D-01 0.249D+00 0.916D+00
 Gap=     0.122 Goal=   None    Shift=    0.000
 RMSDP=4.42D-07 MaxDP=3.19D-05 DE=-2.68D-07 OVMax= 2.45D-04

 Cycle  13  Pass 1  IDiag  1:
 RMSU=  1.67D-07    CP:  9.64D-01  1.50D+00  6.87D-01  6.27D-01  8.81D-01
                    CP:  9.22D-01  1.14D+00  1.32D+00  1.68D+00  1.99D+00
                    CP:  1.61D+00  1.27D+00
 E= -4069.81187659895     Delta-E=       -0.000000093863 Rises=F Damp=F
 DIIS: error= 1.23D-06 at cycle  13 NSaved=  13.
 NSaved=13 IEnMin=13 EnMin= -4069.81187659895     IErMin=13 ErrMin= 1.23D-06
 ErrMax= 1.23D-06  0.00D+00 EMaxC= 1.00D-01 BMatC= 8.28D-09 BMatP= 1.50D-08
 IDIUse=1 WtCom= 1.00D+00 WtEn= 0.00D+00
 Coeff-Com:  0.120D-03-0.246D-03-0.371D-03-0.457D-03 0.595D-03 0.504D-02
 Coeff-Com:  0.193D-01 0.235D-01-0.343D-01-0.240D+00-0.159D+00 0.599D+00
 Coeff-Com:  0.788D+00
 Coeff:      0.120D-03-0.246D-03-0.371D-03-0.457D-03 0.595D-03 0.504D-02
 Coeff:      0.193D-01 0.235D-01-0.343D-01-0.240D+00-0.159D+00 0.599D+00
 Coeff:      0.788D+00
 Gap=     0.122 Goal=   None    Shift=    0.000
 RMSDP=3.44D-07 MaxDP=2.33D-05 DE=-9.39D-08 OVMax= 1.97D-04

 Cycle  14  Pass 1  IDiag  1:
 RMSU=  7.65D-08    CP:  9.64D-01  1.50D+00  6.87D-01  6.27D-01  8.81D-01
                    CP:  9.23D-01  1.15D+00  1.35D+00  1.75D+00  2.19D+00
                    CP:  1.87D+00  1.79D+00  1.09D+00
 E= -4069.81187663582     Delta-E=       -0.000000036864 Rises=F Damp=F
 DIIS: error= 6.38D-07 at cycle  14 NSaved=  14.
 NSaved=14 IEnMin=14 EnMin= -4069.81187663582     IErMin=14 ErrMin= 6.38D-07
 ErrMax= 6.38D-07  0.00D+00 EMaxC= 1.00D-01 BMatC= 1.26D-09 BMatP= 8.28D-09
 IDIUse=1 WtCom= 1.00D+00 WtEn= 0.00D+00
 Coeff-Com:  0.665D-04-0.131D-03-0.247D-03-0.387D-03-0.473D-03 0.126D-02
 Coeff-Com:  0.105D-01 0.195D-01 0.379D-02-0.993D-01-0.143D+00 0.932D-01
 Coeff-Com:  0.403D+00 0.712D+00
 Coeff:      0.665D-04-0.131D-03-0.247D-03-0.387D-03-0.473D-03 0.126D-02
 Coeff:      0.105D-01 0.195D-01 0.379D-02-0.993D-01-0.143D+00 0.932D-01
 Coeff:      0.403D+00 0.712D+00
 Gap=     0.122 Goal=   None    Shift=    0.000
 RMSDP=1.03D-07 MaxDP=6.83D-06 DE=-3.69D-08 OVMax= 5.64D-05

 Cycle  15  Pass 1  IDiag  1:
 RMSU=  3.86D-08    CP:  9.64D-01  1.50D+00  6.87D-01  6.27D-01  8.81D-01
                    CP:  9.23D-01  1.15D+00  1.35D+00  1.77D+00  2.23D+00
                    CP:  1.98D+00  1.93D+00  1.33D+00  1.03D+00
 E= -4069.81187663946     Delta-E=       -0.000000003645 Rises=F Damp=F
 DIIS: error= 3.68D-07 at cycle  15 NSaved=  15.
 NSaved=15 IEnMin=15 EnMin= -4069.81187663946     IErMin=15 ErrMin= 3.68D-07
 ErrMax= 3.68D-07  0.00D+00 EMaxC= 1.00D-01 BMatC= 2.24D-10 BMatP= 1.26D-09
 IDIUse=1 WtCom= 1.00D+00 WtEn= 0.00D+00
 Coeff-Com:  0.502D-05-0.824D-05-0.315D-04-0.800D-04-0.297D-03-0.527D-03
 Coeff-Com:  0.103D-02 0.254D-02 0.868D-02 0.234D-02-0.303D-01-0.730D-01
 Coeff-Com:  0.269D-01 0.296D+00 0.766D+00
 Coeff:      0.502D-05-0.824D-05-0.315D-04-0.800D-04-0.297D-03-0.527D-03
 Coeff:      0.103D-02 0.254D-02 0.868D-02 0.234D-02-0.303D-01-0.730D-01
 Coeff:      0.269D-01 0.296D+00 0.766D+00
 Gap=     0.122 Goal=   None    Shift=    0.000
 RMSDP=4.07D-08 MaxDP=2.70D-06 DE=-3.65D-09 OVMax= 2.64D-05

 Cycle  16  Pass 1  IDiag  1:
 RMSU=  1.87D-08    CP:  9.64D-01  1.50D+00  6.87D-01  6.27D-01  8.81D-01
                    CP:  9.23D-01  1.15D+00  1.35D+00  1.77D+00  2.24D+00
                    CP:  2.00D+00  1.99D+00  1.40D+00  1.25D+00  1.15D+00
 E= -4069.81187664062     Delta-E=       -0.000000001157 Rises=F Damp=F
 DIIS: error= 1.92D-07 at cycle  16 NSaved=  16.
 NSaved=16 IEnMin=16 EnMin= -4069.81187664062     IErMin=16 ErrMin= 1.92D-07
 ErrMax= 1.92D-07  0.00D+00 EMaxC= 1.00D-01 BMatC= 8.12D-11 BMatP= 2.24D-10
 IDIUse=1 WtCom= 1.00D+00 WtEn= 0.00D+00
 Coeff-Com: -0.143D-04 0.290D-04 0.473D-04 0.540D-04-0.287D-04-0.632D-03
 Coeff-Com: -0.196D-02-0.428D-02 0.438D-02 0.258D-01 0.208D-01-0.644D-01
 Coeff-Com: -0.839D-01-0.372D-01 0.398D+00 0.743D+00
 Coeff:     -0.143D-04 0.290D-04 0.473D-04 0.540D-04-0.287D-04-0.632D-03
 Coeff:     -0.196D-02-0.428D-02 0.438D-02 0.258D-01 0.208D-01-0.644D-01
 Coeff:     -0.839D-01-0.372D-01 0.398D+00 0.743D+00
 Gap=     0.122 Goal=   None    Shift=    0.000
 RMSDP=2.31D-08 MaxDP=1.60D-06 DE=-1.16D-09 OVMax= 1.34D-05

 Cycle  17  Pass 1  IDiag  1:
 RMSU=  1.05D-08    CP:  9.64D-01  1.50D+00  6.87D-01  6.27D-01  8.81D-01
                    CP:  9.23D-01  1.15D+00  1.35D+00  1.77D+00  2.25D+00
                    CP:  2.02D+00  2.01D+00  1.45D+00  1.35D+00  1.44D+00
                    CP:  1.25D+00
 E= -4069.81187664084     Delta-E=       -0.000000000226 Rises=F Damp=F
 DIIS: error= 9.62D-08 at cycle  17 NSaved=  17.
 NSaved=17 IEnMin=17 EnMin= -4069.81187664084     IErMin=17 ErrMin= 9.62D-08
 ErrMax= 9.62D-08  0.00D+00 EMaxC= 1.00D-01 BMatC= 1.76D-11 BMatP= 8.12D-11
 IDIUse=1 WtCom= 1.00D+00 WtEn= 0.00D+00
 Coeff-Com: -0.719D-05 0.140D-04 0.285D-04 0.424D-04 0.833D-04-0.118D-03
 Coeff-Com: -0.935D-03-0.278D-02 0.221D-04 0.924D-02 0.174D-01-0.688D-02
 Coeff-Com: -0.366D-01-0.101D+00-0.342D-01 0.294D+00 0.862D+00
 Coeff:     -0.719D-05 0.140D-04 0.285D-04 0.424D-04 0.833D-04-0.118D-03
 Coeff:     -0.935D-03-0.278D-02 0.221D-04 0.924D-02 0.174D-01-0.688D-02
 Coeff:     -0.366D-01-0.101D+00-0.342D-01 0.294D+00 0.862D+00
 Gap=     0.122 Goal=   None    Shift=    0.000
 RMSDP=1.39D-08 MaxDP=1.10D-06 DE=-2.26D-10 OVMax= 8.95D-06

 Cycle  18  Pass 1  IDiag  1:
 RMSU=  4.88D-09    CP:  9.64D-01  1.50D+00  6.87D-01  6.27D-01  8.81D-01
                    CP:  9.23D-01  1.15D+00  1.35D+00  1.77D+00  2.25D+00
                    CP:  2.02D+00  2.02D+00  1.47D+00  1.41D+00  1.62D+00
                    CP:  1.67D+00  1.39D+00
 E= -4069.81187664105     Delta-E=       -0.000000000204 Rises=F Damp=F
 DIIS: error= 4.98D-08 at cycle  18 NSaved=  18.
 NSaved=18 IEnMin=18 EnMin= -4069.81187664105     IErMin=18 ErrMin= 4.98D-08
 ErrMax= 4.98D-08  0.00D+00 EMaxC= 1.00D-01 BMatC= 6.82D-12 BMatP= 1.76D-11
 IDIUse=1 WtCom= 1.00D+00 WtEn= 0.00D+00
 Coeff-Com:  0.207D-05-0.445D-05-0.461D-05-0.174D-05 0.596D-04 0.184D-03
 Coeff-Com:  0.401D-03 0.250D-03-0.131D-02-0.619D-02-0.254D-03 0.202D-01
 Coeff-Com:  0.186D-01-0.324D-01-0.164D+00-0.190D+00 0.350D+00 0.100D+01
 Coeff:      0.207D-05-0.445D-05-0.461D-05-0.174D-05 0.596D-04 0.184D-03
 Coeff:      0.401D-03 0.250D-03-0.131D-02-0.619D-02-0.254D-03 0.202D-01
 Coeff:      0.186D-01-0.324D-01-0.164D+00-0.190D+00 0.350D+00 0.100D+01
 Gap=     0.122 Goal=   None    Shift=    0.000
 RMSDP=1.18D-08 MaxDP=8.32D-07 DE=-2.04D-10 OVMax= 6.89D-06

 Cycle  19  Pass 1  IDiag  1:
 RMSU=  2.81D-09    CP:  9.64D-01  1.50D+00  6.87D-01  6.27D-01  8.81D-01
                    CP:  9.23D-01  1.15D+00  1.35D+00  1.78D+00  2.25D+00
                    CP:  2.02D+00  2.02D+00  1.48D+00  1.46D+00  1.77D+00
                    CP:  2.00D+00  1.93D+00  1.38D+00
 E= -4069.81187664123     Delta-E=       -0.000000000178 Rises=F Damp=F
 DIIS: error= 3.43D-08 at cycle  19 NSaved=  19.
 NSaved=19 IEnMin=19 EnMin= -4069.81187664123     IErMin=19 ErrMin= 3.43D-08
 ErrMax= 3.43D-08  0.00D+00 EMaxC= 1.00D-01 BMatC= 1.39D-12 BMatP= 6.82D-12
 IDIUse=1 WtCom= 1.00D+00 WtEn= 0.00D+00
 Coeff-Com:  0.285D-05-0.575D-05-0.974D-05-0.122D-04 0.112D-04 0.116D-03
 Coeff-Com:  0.459D-03 0.796D-03-0.577D-03-0.585D-02-0.481D-02 0.118D-01
 Coeff-Com:  0.198D-01 0.114D-01-0.677D-01-0.174D+00-0.343D-01 0.484D+00
 Coeff-Com:  0.759D+00
 Coeff:      0.285D-05-0.575D-05-0.974D-05-0.122D-04 0.112D-04 0.116D-03
 Coeff:      0.459D-03 0.796D-03-0.577D-03-0.585D-02-0.481D-02 0.118D-01
 Coeff:      0.198D-01 0.114D-01-0.677D-01-0.174D+00-0.343D-01 0.484D+00
 Coeff:      0.759D+00
 Gap=     0.122 Goal=   None    Shift=    0.000
 RMSDP=4.50D-09 MaxDP=3.34D-07 DE=-1.78D-10 OVMax= 2.94D-06

 SCF Done:  E(RCAM-B3LYP) =  -4069.81187664     A.U. after   19 cycles
            NFock= 19  Conv=0.45D-08     -V/T= 2.0102
 KE= 4.028801850018D+03 PE=-3.796332639520D+04 EE= 1.562352441205D+04
 Leave Link  502 at Sat Sep 11 11:16:37 2021, MaxMem= 23488102400 cpu:           12185.3 elap:             531.3
 (Enter /sw/apps/gaussian-16.0/g16/l801.exe)
 DoSCS=F DFT=T ScalE2(SS,OS)=  1.000000  1.000000
 ExpMin= 3.36D-02 ExpMax= 4.95D+03 ExpMxC= 7.45D+02 IAcc=3 IRadAn=         5 AccDes= 0.00D+00
 HarFok:  IExCor=  205 AccDes= 0.00D+00 IRadAn=         5 IDoV=-2 UseB2=F ITyADJ=14
 ICtDFT= 12500011 ScaDFX=  1.000000  1.000000  1.000000  1.000000
 GSVD:  LWork=       -9588 too small for GESVD, short by       45590 words or       45590 for optimal perf.
 Largest valence mixing into a core orbital is  2.03D-04
 Largest core mixing into a valence orbital is  5.24D-05
 Range of M.O.s used for correlation:    95  1572
 NBasis=  1572 NAE=   312 NBE=   312 NFC=    94 NFV=     0
 NROrb=   1478 NOA=   218 NOB=   218 NVA=  1260 NVB=  1260
 Leave Link  801 at Sat Sep 11 11:16:38 2021, MaxMem= 23488102400 cpu:               8.8 elap:               0.4
 (Enter /sw/apps/gaussian-16.0/g16/l914.exe)
 RHF ground state
 Two-electron integrals replicated using symmetry.
 MDV= 23488102400 DFT=T DoStab=F Mixed=T DoRPA=T DoScal=F NonHer=T
 Making orbital integer symmetry assigments:
 Orbital symmetries:
       Occupied  (A) (A) (A) (A) (A) (A) (A) (A) (A) (A) (A) (A)
                 (A) (A) (A) (A) (A) (A) (A) (A) (A) (A) (A) (A)
                 (A) (A) (A) (A) (A) (A) (A) (A) (A) (A) (A) (A)
                 (A) (A) (A) (A) (A) (A) (A) (A) (A) (A) (A) (A)
                 (A) (A) (A) (A) (A) (A) (A) (A) (A) (A) (A) (A)
                 (A) (A) (A) (A) (A) (A) (A) (A) (A) (A) (A) (A)
                 (A) (A) (A) (A) (A) (A) (A) (A) (A) (A) (A) (A)
                 (A) (A) (A) (A) (A) (A) (A) (A) (A) (A) (A) (A)
                 (A) (A) (A) (A) (A) (A) (A) (A) (A) (A) (A) (A)
                 (A) (A) (A) (A) (A) (A) (A) (A) (A) (A) (A) (A)
                 (A) (A) (A) (A) (A) (A) (A) (A) (A) (A) (A) (A)
                 (A) (A) (A) (A) (A) (A) (A) (A) (A) (A) (A) (A)
                 (A) (A) (A) (A) (A) (A) (A) (A) (A) (A) (A) (A)
                 (A) (A) (A) (A) (A) (A) (A) (A) (A) (A) (A) (A)
                 (A) (A) (A) (A) (A) (A) (A) (A) (A) (A) (A) (A)
                 (A) (A) (A) (A) (A) (A) (A) (A) (A) (A) (A) (A)
                 (A) (A) (A) (A) (A) (A) (A) (A) (A) (A) (A) (A)
                 (A) (A) (A) (A) (A) (A) (A) (A) (A) (A) (A) (A)
                 (A) (A) (A) (A) (A) (A) (A) (A) (A) (A) (A) (A)
                 (A) (A) (A) (A) (A) (A) (A) (A) (A) (A) (A) (A)
                 (A) (A) (A) (A) (A) (A) (A) (A) (A) (A) (A) (A)
                 (A) (A) (A) (A) (A) (A) (A) (A) (A) (A) (A) (A)
                 (A) (A) (A) (A) (A) (A) (A) (A) (A) (A) (A) (A)
                 (A) (A) (A) (A) (A) (A) (A) (A) (A) (A) (A) (A)
                 (A) (A) (A) (A) (A) (A) (A) (A) (A) (A) (A) (A)
                 (A) (A) (A) (A) (A) (A) (A) (A) (A) (A) (A) (A)
       Virtual   (A) (A) (A) (A) (A) (A) (A) (A) (A) (A) (A) (A)
                 (A) (A) (A) (A) (A) (A) (A) (A) (A) (A) (A) (A)
                 (A) (A) (A) (A) (A) (A) (A) (A) (A) (A) (A) (A)
                 (A) (A) (A) (A) (A) (A) (A) (A) (A) (A) (A) (A)
                 (A) (A) (A) (A) (A) (A) (A) (A) (A) (A) (A) (A)
                 (A) (A) (A) (A) (A) (A) (A) (A) (A) (A) (A) (A)
                 (A) (A) (A) (A) (A) (A) (A) (A) (A) (A) (A) (A)
                 (A) (A) (A) (A) (A) (A) (A) (A) (A) (A) (A) (A)
                 (A) (A) (A) (A) (A) (A) (A) (A) (A) (A) (A) (A)
                 (A) (A) (A) (A) (A) (A) (A) (A) (A) (A) (A) (A)
                 (A) (A) (A) (A) (A) (A) (A) (A) (A) (A) (A) (A)
                 (A) (A) (A) (A) (A) (A) (A) (A) (A) (A) (A) (A)
                 (A) (A) (A) (A) (A) (A) (A) (A) (A) (A) (A) (A)
                 (A) (A) (A) (A) (A) (A) (A) (A) (A) (A) (A) (A)
                 (A) (A) (A) (A) (A) (A) (A) (A) (A) (A) (A) (A)
                 (A) (A) (A) (A) (A) (A) (A) (A) (A) (A) (A) (A)
                 (A) (A) (A) (A) (A) (A) (A) (A) (A) (A) (A) (A)
                 (A) (A) (A) (A) (A) (A) (A) (A) (A) (A) (A) (A)
                 (A) (A) (A) (A) (A) (A) (A) (A) (A) (A) (A) (A)
                 (A) (A) (A) (A) (A) (A) (A) (A) (A) (A) (A) (A)
                 (A) (A) (A) (A) (A) (A) (A) (A) (A) (A) (A) (A)
                 (A) (A) (A) (A) (A) (A) (A) (A) (A) (A) (A) (A)
                 (A) (A) (A) (A) (A) (A) (A) (A) (A) (A) (A) (A)
                 (A) (A) (A) (A) (A) (A) (A) (A) (A) (A) (A) (A)
                 (A) (A) (A) (A) (A) (A) (A) (A) (A) (A) (A) (A)
                 (A) (A) (A) (A) (A) (A) (A) (A) (A) (A) (A) (A)
                 (A) (A) (A) (A) (A) (A) (A) (A) (A) (A) (A) (A)
                 (A) (A) (A) (A) (A) (A) (A) (A) (A) (A) (A) (A)
                 (A) (A) (A) (A) (A) (A) (A) (A) (A) (A) (A) (A)
                 (A) (A) (A) (A) (A) (A) (A) (A) (A) (A) (A) (A)
                 (A) (A) (A) (A) (A) (A) (A) (A) (A) (A) (A) (A)
                 (A) (A) (A) (A) (A) (A) (A) (A) (A) (A) (A) (A)
                 (A) (A) (A) (A) (A) (A) (A) (A) (A) (A) (A) (A)
                 (A) (A) (A) (A) (A) (A) (A) (A) (A) (A) (A) (A)
                 (A) (A) (A) (A) (A) (A) (A) (A) (A) (A) (A) (A)
                 (A) (A) (A) (A) (A) (A) (A) (A) (A) (A) (A) (A)
                 (A) (A) (A) (A) (A) (A) (A) (A) (A) (A) (A) (A)
                 (A) (A) (A) (A) (A) (A) (A) (A) (A) (A) (A) (A)
                 (A) (A) (A) (A) (A) (A) (A) (A) (A) (A) (A) (A)
                 (A) (A) (A) (A) (A) (A) (A) (A) (A) (A) (A) (A)
                 (A) (A) (A) (A) (A) (A) (A) (A) (A) (A) (A) (A)
                 (A) (A) (A) (A) (A) (A) (A) (A) (A) (A) (A) (A)
                 (A) (A) (A) (A) (A) (A) (A) (A) (A) (A) (A) (A)
                 (A) (A) (A) (A) (A) (A) (A) (A) (A) (A) (A) (A)
                 (A) (A) (A) (A) (A) (A) (A) (A) (A) (A) (A) (A)
                 (A) (A) (A) (A) (A) (A) (A) (A) (A) (A) (A) (A)
                 (A) (A) (A) (A) (A) (A) (A) (A) (A) (A) (A) (A)
                 (A) (A) (A) (A) (A) (A) (A) (A) (A) (A) (A) (A)
                 (A) (A) (A) (A) (A) (A) (A) (A) (A) (A) (A) (A)
                 (A) (A) (A) (A) (A) (A) (A) (A) (A) (A) (A) (A)
                 (A) (A) (A) (A) (A) (A) (A) (A) (A) (A) (A) (A)
                 (A) (A) (A) (A) (A) (A) (A) (A) (A) (A) (A) (A)
                 (A) (A) (A) (A) (A) (A) (A) (A) (A) (A) (A) (A)
                 (A) (A) (A) (A) (A) (A) (A) (A) (A) (A) (A) (A)
                 (A) (A) (A) (A) (A) (A) (A) (A) (A) (A) (A) (A)
                 (A) (A) (A) (A) (A) (A) (A) (A) (A) (A) (A) (A)
                 (A) (A) (A) (A) (A) (A) (A) (A) (A) (A) (A) (A)
                 (A) (A) (A) (A) (A) (A) (A) (A) (A) (A) (A) (A)
                 (A) (A) (A) (A) (A) (A) (A) (A) (A) (A) (A) (A)
                 (A) (A) (A) (A) (A) (A) (A) (A) (A) (A) (A) (A)
                 (A) (A) (A) (A) (A) (A) (A) (A) (A) (A) (A) (A)
                 (A) (A) (A) (A) (A) (A) (A) (A) (A) (A) (A) (A)
                 (A) (A) (A) (A) (A) (A) (A) (A) (A) (A) (A) (A)
                 (A) (A) (A) (A) (A) (A) (A) (A) (A) (A) (A) (A)
                 (A) (A) (A) (A) (A) (A) (A) (A) (A) (A) (A) (A)
                 (A) (A) (A) (A) (A) (A) (A) (A) (A) (A) (A) (A)
                 (A) (A) (A) (A) (A) (A) (A) (A) (A) (A) (A) (A)
                 (A) (A) (A) (A) (A) (A) (A) (A) (A) (A) (A) (A)
                 (A) (A) (A) (A) (A) (A) (A) (A) (A) (A) (A) (A)
                 (A) (A) (A) (A) (A) (A) (A) (A) (A) (A) (A) (A)
                 (A) (A) (A) (A) (A) (A) (A) (A) (A) (A) (A) (A)
                 (A) (A) (A) (A) (A) (A) (A) (A) (A) (A) (A) (A)
                 (A) (A) (A) (A) (A) (A) (A) (A) (A) (A) (A) (A)
                 (A) (A) (A) (A) (A) (A) (A) (A) (A) (A) (A) (A)
                 (A) (A) (A) (A) (A) (A) (A) (A) (A) (A) (A) (A)
                 (A) (A) (A) (A) (A) (A) (A) (A) (A) (A) (A) (A)
                 (A) (A) (A) (A) (A) (A) (A) (A) (A) (A) (A) (A)
                 (A) (A) (A) (A) (A) (A) (A) (A) (A) (A) (A) (A)
                 (A) (A) (A) (A) (A) (A) (A) (A) (A) (A) (A) (A)
                 (A) (A) (A) (A) (A) (A) (A) (A) (A) (A) (A) (A)
                 (A) (A) (A) (A) (A) (A) (A) (A) (A) (A) (A) (A)
                 (A) (A) (A) (A) (A) (A) (A) (A) (A) (A) (A) (A)
                 (A) (A) (A) (A) (A) (A) (A) (A) (A) (A) (A) (A)
                 (A) (A) (A) (A) (A) (A) (A) (A) (A) (A) (A) (A)
                 (A) (A) (A) (A) (A) (A) (A) (A) (A) (A) (A) (A)
                 (A) (A) (A) (A) (A) (A) (A) (A) (A) (A) (A) (A)
                 (A) (A) (A) (A) (A) (A) (A) (A) (A) (A) (A) (A)
                 (A) (A) (A) (A) (A) (A) (A) (A) (A) (A) (A) (A)
                 (A) (A) (A) (A) (A) (A) (A) (A) (A) (A) (A) (A)
                 (A) (A) (A) (A) (A) (A) (A) (A) (A) (A) (A) (A)
                 (A) (A) (A) (A) (A) (A) (A) (A) (A) (A) (A) (A)
                 (A) (A) (A) (A) (A) (A) (A) (A) (A) (A) (A) (A)
                 (A) (A) (A) (A) (A) (A) (A) (A) (A) (A) (A) (A)
                 (A) (A) (A) (A) (A) (A) (A) (A) (A) (A) (A) (A)
                 (A) (A) (A) (A) (A) (A) (A) (A) (A) (A) (A) (A)
                 (A) (A) (A) (A) (A) (A) (A) (A) (A) (A) (A) (A)
                 (A) (A) (A) (A) (A) (A) (A) (A) (A) (A) (A) (A)
                 (A) (A) (A) (A) (A) (A) (A) (A) (A) (A) (A) (A)
                 (A) (A) (A) (A) (A) (A) (A) (A) (A) (A) (A) (A)
                 (A) (A) (A) (A) (A) (A) (A) (A) (A) (A) (A) (A)
                 (A) (A) (A) (A) (A) (A) (A) (A) (A) (A) (A) (A)
                 (A) (A) (A) (A) (A) (A) (A) (A) (A) (A) (A) (A)
                 (A) (A) (A) (A) (A) (A) (A) (A) (A) (A) (A) (A)
                 (A) (A) (A) (A) (A) (A) (A) (A) (A) (A) (A) (A)
                 (A) (A) (A) (A) (A) (A) (A) (A) (A) (A) (A) (A)
    20 initial guesses have been made.
 Convergence on wavefunction:    0.001000000000000
 Davidson Disk Diagonalization:  ConvIn= 1.00D-03 SkipCon=T Conv= 1.00D-03.
 Max sub-space:  2000 roots to seek:    20 dimension of matrix:       549360
 Iteration     1 Dimension    20 NMult     0 NNew     20
 CISAX will form    20 AO SS matrices at one time.
 NMat=    20 NSing=    20 JSym2X= 0.
 FoFJK:  IHMeth= 1 ICntrl=       0 DoSepK=T KAlg= 0 I1Cent=           0 FoldK=F
 IRaf=         1 NMat=      40 IRICut=       1 DoRegI=T DoRafI=F ISym2E= 0 IDoP0=3 IntGTp=3.
 FoFCou: FMM=T IPFlag=           0 FMFlag=      100000 FMFlg1=        2001
         NFxFlg=           0 DoJE=F BraDBF=F KetDBF=F FulRan=T
         wScrn=  0.000000 ICntrl=       500 IOpCl=  0 I1Cent=           0 NGrid=           0
         NMat0=   20 NMatS0=     20 NMatT0=    0 NMatD0=   20 NMtDS0=    0 NMtDT0=    0
 Symmetry not used in FoFCou.
 FMM levels:  10  Number of levels for PrismC:   9
 New state      1 was old state      7
 New state      2 was old state      6
 New state      3 was old state      1
 New state      4 was old state      2
 New state      5 was old state      3
 Excitation Energies [eV] at current iteration:
 Root      1 :     2.613979766657163
 Root      2 :     2.617532399220154
 Root      3 :     2.650476821698133
 Root      4 :     2.679291509549873
 Root      5 :     2.691248087413510
 Root      6 :     2.737831367990126
 Root      7 :     3.440040557915609
 Root      8 :     3.537557484645282
 Root      9 :     3.629265589410734
 Root     10 :     3.667927190070455
 Root     11 :     3.737267505897655
 Root     12 :     3.760959715813911
 Root     13 :     4.302116372006242
 Root     14 :     4.306452788883091
 Root     15 :     4.556788454720459
 Root     16 :     4.671607847894674
 Root     17 :     4.868202199888430
 Root     18 :     4.904262269925556
 Root     19 :     4.965922749095323
 Root     20 :     4.998906614619553
 Iteration     2 Dimension    30 NMult    20 NNew     10
 CISAX will form    10 AO SS matrices at one time.
 NMat=    10 NSing=    10 JSym2X= 0.
 New state      1 was old state      4
 Root      1 not converged, maximum delta is    0.178222718263929
 New state      2 was old state      5
 Root      2 not converged, maximum delta is    0.179517269915096
 New state      3 was old state      2
 Root      3 not converged, maximum delta is    0.080212395407090
 New state      4 was old state      1
 Root      4 not converged, maximum delta is    0.102218239908766
 New state      5 was old state      3
 Root      5 not converged, maximum delta is    0.001439289969127
 Excitation Energies [eV] at current iteration:
 Root      1 :     1.799610752946244   Change is   -0.879680756603629
 Root      2 :     1.807095214830994   Change is   -0.884152872582516
 Root      3 :     2.235244328853617   Change is   -0.382288070366537
 Root      4 :     2.238987014079095   Change is   -0.374992752578068
 Root      5 :     2.650296224394483   Change is   -0.000180597303650
 Iteration     3 Dimension    40 NMult    30 NNew     10
 CISAX will form    10 AO SS matrices at one time.
 NMat=    10 NSing=    10 JSym2X= 0.
 Root      1 not converged, maximum delta is    0.064594712595542
 Root      2 not converged, maximum delta is    0.065578033324434
 Root      3 not converged, maximum delta is    0.043779415989784
 Root      4 not converged, maximum delta is    0.043270859774743
 Root      5 has converged.
 Excitation Energies [eV] at current iteration:
 Root      1 :     1.692523529525666   Change is   -0.107087223420578
 Root      2 :     1.698788965704372   Change is   -0.108306249126622
 Root      3 :     2.193898637555356   Change is   -0.041345691298261
 Root      4 :     2.199573705370562   Change is   -0.039413308708533
 Root      5 :     2.650295346620638   Change is   -0.000000877773845
 Iteration     4 Dimension    48 NMult    40 NNew      8
 CISAX will form     8 AO SS matrices at one time.
 NMat=     8 NSing=     8 JSym2X= 0.
 Root      1 not converged, maximum delta is    0.012299808010101
 Root      2 not converged, maximum delta is    0.012505773651614
 Root      3 not converged, maximum delta is    0.009673749001125
 Root      4 not converged, maximum delta is    0.009058459953646
 Root      5 has converged.
 Excitation Energies [eV] at current iteration:
 Root      1 :     1.675796099540191   Change is   -0.016727429985474
 Root      2 :     1.681915954575407   Change is   -0.016873011128965
 Root      3 :     2.186608696707546   Change is   -0.007289940847810
 Root      4 :     2.192738431048174   Change is   -0.006835274322387
 Root      5 :     2.650295346619149   Change is   -0.000000000001489
 Iteration     5 Dimension    56 NMult    48 NNew      8
 CISAX will form     8 AO SS matrices at one time.
 NMat=     8 NSing=     8 JSym2X= 0.
 Root      1 not converged, maximum delta is    0.002055293206353
 Root      2 not converged, maximum delta is    0.002043625654293
 Root      3 not converged, maximum delta is    0.002506536034077
 Root      4 not converged, maximum delta is    0.002419266834776
 Root      5 has converged.
 Excitation Energies [eV] at current iteration:
 Root      1 :     1.674026926269324   Change is   -0.001769173270867
 Root      2 :     1.680135584353997   Change is   -0.001780370221411
 Root      3 :     2.185766113802015   Change is   -0.000842582905531
 Root      4 :     2.191950951820606   Change is   -0.000787479227568
 Root      5 :     2.650295346618808   Change is   -0.000000000000341
 Iteration     6 Dimension    64 NMult    56 NNew      8
 CISAX will form     8 AO SS matrices at one time.
 NMat=     8 NSing=     8 JSym2X= 0.
 Root      1 not converged, maximum delta is    0.001274323772259
 Root      2 not converged, maximum delta is    0.001297034153174
 Root      3 not converged, maximum delta is    0.001072022653049
 Root      4 not converged, maximum delta is    0.001033888586663
 Root      5 has converged.
 Excitation Energies [eV] at current iteration:
 Root      1 :     1.673774541201880   Change is   -0.000252385067444
 Root      2 :     1.679879861965426   Change is   -0.000255722388571
 Root      3 :     2.185638014488592   Change is   -0.000128099313423
 Root      4 :     2.191831440890513   Change is   -0.000119510930094
 Root      5 :     2.650295346618529   Change is   -0.000000000000279
 Iteration     7 Dimension    72 NMult    64 NNew      8
 CISAX will form     8 AO SS matrices at one time.
 NMat=     8 NSing=     8 JSym2X= 0.
 Root      1 has converged.
 Root      2 has converged.
 Root      3 has converged.
 Root      4 has converged.
 Root      5 has converged.
 Excitation Energies [eV] at current iteration:
[...]
 Alpha virt. eigenvalues --    1.83542   1.83745   1.83950   1.84007   1.84233
 Alpha virt. eigenvalues --    1.84432   1.84583   1.84790   1.84829   1.85090
 Alpha virt. eigenvalues --    1.85172   1.85255   1.85380   1.85428   1.85534
 Alpha virt. eigenvalues --    1.85851   1.85950   1.86340   1.86441   1.86527
 Alpha virt. eigenvalues --    1.86696   1.86767   1.86894   1.87032   1.87084
 Alpha virt. eigenvalues --    1.87436   1.87524   1.87670   1.87806   1.87852
 Alpha virt. eigenvalues --    1.88025   1.88075   1.88222   1.88519   1.88618
 Alpha virt. eigenvalues --    1.88819   1.88976   1.89112   1.89138   1.89596
 Alpha virt. eigenvalues --    1.89703   1.89717   1.89923   1.90102   1.90231
 Alpha virt. eigenvalues --    1.90743   1.90939   1.91341   1.91428   1.91499
 Alpha virt. eigenvalues --    1.91619   1.92143   1.92217   1.92636   1.92695
 Alpha virt. eigenvalues --    1.92965   1.93204   1.93316   1.93569   1.94269
 Alpha virt. eigenvalues --    1.94368   1.94665   1.94875   1.95453   1.95671
 Alpha virt. eigenvalues --    1.95724   1.95846   1.95993   1.96098   1.96135
 Alpha virt. eigenvalues --    1.96204   1.96532   1.96583   1.96884   1.96981
 Alpha virt. eigenvalues --    1.97437   1.97586   1.97825   1.97840   1.98164
 Alpha virt. eigenvalues --    1.98205   1.98373   1.98683   1.99125   1.99130
 Alpha virt. eigenvalues --    1.99821   1.99960   2.00643   2.00778   2.00987
 Alpha virt. eigenvalues --    2.01132   2.01485   2.01576   2.01629   2.01657
 Alpha virt. eigenvalues --    2.01711   2.01850   2.02751   2.02775   2.03212
 Alpha virt. eigenvalues --    2.03223   2.03394   2.03411   2.03482   2.03555
 Alpha virt. eigenvalues --    2.04026   2.04069   2.04936   2.05030   2.05490
 Alpha virt. eigenvalues --    2.05679   2.06054   2.06324   2.06902   2.07049
 Alpha virt. eigenvalues --    2.07173   2.07398   2.08544   2.08605   2.08966
 Alpha virt. eigenvalues --    2.09040   2.09582   2.09647   2.10752   2.11107
 Alpha virt. eigenvalues --    2.11167   2.11451   2.11544   2.11552   2.11711
 Alpha virt. eigenvalues --    2.11902   2.12460   2.12492   2.12783   2.12824
 Alpha virt. eigenvalues --    2.12853   2.12911   2.13648   2.13778   2.14114
 Alpha virt. eigenvalues --    2.14332   2.15316   2.15453   2.15920   2.16122
 Alpha virt. eigenvalues --    2.16499   2.16641   2.16741   2.17217   2.17400
 Alpha virt. eigenvalues --    2.17686   2.17718   2.17969   2.18049   2.18066
 Alpha virt. eigenvalues --    2.18316   2.18691   2.18868   2.19255   2.19632
 Alpha virt. eigenvalues --    2.19847   2.20031   2.20201   2.20281   2.20468
 Alpha virt. eigenvalues --    2.21122   2.21246   2.21646   2.21736   2.21801
 Alpha virt. eigenvalues --    2.21904   2.22664   2.22743   2.23296   2.23400
 Alpha virt. eigenvalues --    2.24368   2.24475   2.24928   2.25063   2.26292
 Alpha virt. eigenvalues --    2.26470   2.26759   2.27048   2.27094   2.27235
 Alpha virt. eigenvalues --    2.28128   2.28343   2.29249   2.29483   2.29725
 Alpha virt. eigenvalues --    2.29913   2.30452   2.30635   2.30826   2.31072
 Alpha virt. eigenvalues --    2.31187   2.31257   2.32093   2.32296   2.33123
 Alpha virt. eigenvalues --    2.33261   2.33448   2.33525   2.34125   2.34191
 Alpha virt. eigenvalues --    2.35314   2.35372   2.35787   2.35937   2.36323
 Alpha virt. eigenvalues --    2.36370   2.36513   2.36601   2.37636   2.37740
 Alpha virt. eigenvalues --    2.38220   2.38427   2.38794   2.38859   2.39593
 Alpha virt. eigenvalues --    2.39702   2.40163   2.40325   2.40480   2.40843
 Alpha virt. eigenvalues --    2.41228   2.41275   2.41664   2.41737   2.42036
 Alpha virt. eigenvalues --    2.42147   2.42885   2.42913   2.43042   2.43548
 Alpha virt. eigenvalues --    2.44006   2.44157   2.44713   2.44840   2.44891
 Alpha virt. eigenvalues --    2.45024   2.45526   2.45611   2.46263   2.46312
 Alpha virt. eigenvalues --    2.46461   2.46533   2.46783   2.46822   2.47236
 Alpha virt. eigenvalues --    2.47425   2.47692   2.47933   2.49278   2.49451
 Alpha virt. eigenvalues --    2.49945   2.50040   2.50493   2.50517   2.51114
 Alpha virt. eigenvalues --    2.51285   2.51641   2.51871   2.52398   2.52439
 Alpha virt. eigenvalues --    2.52799   2.53186   2.53895   2.54010   2.54102
 Alpha virt. eigenvalues --    2.54325   2.54765   2.54847   2.55486   2.55704
 Alpha virt. eigenvalues --    2.57835   2.58113   2.58622   2.58947   2.60198
 Alpha virt. eigenvalues --    2.60306   2.60608   2.60939   2.61683   2.61858
 Alpha virt. eigenvalues --    2.62455   2.62524   2.62940   2.63157   2.63922
 Alpha virt. eigenvalues --    2.64217   2.64237   2.64491   2.65062   2.65134
 Alpha virt. eigenvalues --    2.65780   2.65869   2.66751   2.66861   2.66892
 Alpha virt. eigenvalues --    2.67084   2.67886   2.68013   2.68835   2.68844
 Alpha virt. eigenvalues --    2.69014   2.69033   2.69369   2.69618   2.69981
 Alpha virt. eigenvalues --    2.70171   2.70965   2.71078   2.71902   2.72036
 Alpha virt. eigenvalues --    2.72493   2.72640   2.72736   2.72834   2.73245
 Alpha virt. eigenvalues --    2.73333   2.73450   2.73532   2.74491   2.74530
 Alpha virt. eigenvalues --    2.74958   2.75071   2.76552   2.76566   2.77082
 Alpha virt. eigenvalues --    2.77215   2.77425   2.77619   2.78141   2.78313
 Alpha virt. eigenvalues --    2.78715   2.78717   2.79112   2.79162   2.80277
 Alpha virt. eigenvalues --    2.80309   2.80580   2.80684   2.81094   2.81166
 Alpha virt. eigenvalues --    2.81916   2.81989   2.82317   2.82362   2.83720
 Alpha virt. eigenvalues --    2.83746   2.83866   2.83902   2.84518   2.84557
 Alpha virt. eigenvalues --    2.84853   2.84925   2.85629   2.85709   2.86666
 Alpha virt. eigenvalues --    2.86975   2.87155   2.87610   2.88110   2.88249
 Alpha virt. eigenvalues --    2.88492   2.88641   2.88893   2.88908   2.90490
 Alpha virt. eigenvalues --    2.90668   2.91102   2.91161   2.93143   2.93330
 Alpha virt. eigenvalues --    2.93789   2.94177   2.94517   2.94604   2.95372
 Alpha virt. eigenvalues --    2.95461   2.95799   2.96204   2.96388   2.96422
 Alpha virt. eigenvalues --    2.96850   2.97179   2.97817   2.98052   2.98177
 Alpha virt. eigenvalues --    2.98338   2.98345   2.98582   2.98586   2.98799
 Alpha virt. eigenvalues --    2.98852   2.98946   2.99549   2.99823   2.99996
 Alpha virt. eigenvalues --    3.00017   3.00210   3.00351   3.00452   3.00994
 Alpha virt. eigenvalues --    3.01930   3.01965   3.02002   3.02106   3.02728
 Alpha virt. eigenvalues --    3.02802   3.02979   3.03293   3.03320   3.03706
 Alpha virt. eigenvalues --    3.04063   3.04146   3.04431   3.04447   3.04528
 Alpha virt. eigenvalues --    3.04752   3.05264   3.05382   3.06093   3.06198
 Alpha virt. eigenvalues --    3.06804   3.06954   3.07944   3.08108   3.09389
 Alpha virt. eigenvalues --    3.09396   3.09688   3.10405   3.10433   3.10739
 Alpha virt. eigenvalues --    3.11296   3.11535   3.11945   3.11947   3.12144
 Alpha virt. eigenvalues --    3.12296   3.13274   3.13606   3.13641   3.13717
 Alpha virt. eigenvalues --    3.14097   3.14438   3.15887   3.16030   3.17241
 Alpha virt. eigenvalues --    3.17530   3.17895   3.18029   3.19048   3.19091
 Alpha virt. eigenvalues --    3.22306   3.22571   3.23925   3.24443   3.24660
 Alpha virt. eigenvalues --    3.25187   3.26482   3.26671   3.27405   3.27601
 Alpha virt. eigenvalues --    3.29103   3.29188   3.31389   3.31503   3.33201
 Alpha virt. eigenvalues --    3.33394   3.40212   3.40642   3.42774   3.42829
 Alpha virt. eigenvalues --    3.48641   3.48702   3.50002   3.50299   3.50848
 Alpha virt. eigenvalues --    3.51451   3.56522   3.57021   3.59074   3.59368
 Alpha virt. eigenvalues --    3.62523   3.62817   3.66125   3.66131   3.67191
 Alpha virt. eigenvalues --    3.67503   3.73270   3.73992   3.76051   3.76656
          Condensed to atoms (all electrons):
 Mulliken charges:
               1
     1  Mg   0.838644
     2  C   -0.002910
     3  C   -0.093967
     4  C   -0.046117
     5  C   -0.063992
     6  N   -0.256816
     7  C   -0.052300
     8  C   -0.013988
     9  C   -0.086998
    10  C    0.046300
    11  C    0.104778
    12  C    0.053393
    13  C   -0.072176
    14  H    0.037035
    15  N   -0.433103
    16  C    0.168267
    17  C   -0.177212
    18  C   -0.004304
    19  C    0.148655
    20  C    0.110146
    21  C    0.011860
    22  O   -0.249998
    23  C    0.062674
    24  N   -0.341167
    25  C    0.041273
    26  C   -0.028125
    27  C   -0.023997
    28  C    0.074890
    29  C    0.076172
    30  C    0.035145
    31  C   -0.004503
    32  N   -0.310523
    33  C    0.080501
    34  C   -0.169686
    35  C    0.008409
    36  C    0.082997
    37  C    0.127312
    38  C    0.046128
    39  O   -0.188249
    40  C   -0.005307
    41  C    0.212912
    42  O   -0.257151
    43  O   -0.304770
    44  C    0.157630
    45  H   -0.017464
    46  H   -0.017102
    47  H   -0.041392
    48  H    0.001085
    49  H   -0.003807
    50  H    0.025521
    51  H    0.016341
    52  H    0.016842
    53  H    0.011212
    54  H    0.044152
    55  H    0.017845
    56  H    0.018148
    57  H    0.006169
    58  H    0.026820
    59  H    0.039166
    60  H    0.037682
    61  H    0.035055
    62  H    0.030953
    63  H    0.016192
    64  H    0.009591
    65  H    0.023043
    66  H    0.012619
    67  H    0.004883
    68  H    0.006319
    69  H    0.004967
    70  H    0.008268
    71  H    0.018491
    72  H    0.028928
    73  H    0.047585
    74  H    0.009186
    75  H    0.046155
    76  H    0.035310
    77  H    0.043040
    78  H    0.046726
    79  H    0.053705
    80  Mg   0.838166
    81  C   -0.016989
    82  C   -0.087914
    83  C   -0.045409
    84  C   -0.063975
    85  N   -0.254544
    86  C   -0.049847
    87  C   -0.015106
    88  C   -0.090485
    89  C    0.045739
    90  C    0.114377
    91  C    0.062597
    92  C   -0.077674
    93  H    0.034551
    94  N   -0.423522
    95  C    0.162925
    96  C   -0.174631
    97  C   -0.007841
    98  C    0.152169
    99  C    0.099371
   100  C    0.015489
   101  O   -0.253177
   102  C    0.061230
   103  N   -0.349970
   104  C    0.037813
   105  C   -0.020062
   106  C   -0.034948
   107  C    0.088884
   108  C    0.073269
   109  C    0.034663
   110  C   -0.007628
   111  N   -0.324128
   112  C    0.078422
   113  C   -0.162773
   114  C    0.002106
   115  C    0.096318
   116  C    0.131482
   117  C    0.042349
   118  O   -0.188424
   119  C    0.000922
   120  C    0.211157
   121  O   -0.251019
   122  O   -0.305779
   123  C    0.152110
   124  H   -0.019702
   125  H   -0.015506
   126  H   -0.039964
   127  H   -0.001183
   128  H   -0.004567
   129  H    0.022102
   130  H    0.015113
   131  H    0.015804
   132  H    0.013990
   133  H    0.037627
   134  H    0.020360
   135  H    0.019555
   136  H    0.008700
   137  H    0.026204
   138  H    0.039537
   139  H    0.038233
   140  H    0.036205
   141  H    0.033764
   142  H    0.014131
   143  H    0.013739
   144  H    0.024851
   145  H    0.011901
   146  H    0.007237
   147  H    0.006445
   148  H    0.003820
   149  H    0.010792
   150  H    0.017700
   151  H    0.029850
   152  H    0.045554
   153  H    0.008779
   154  H    0.047602
   155  H    0.034633
   156  H    0.043500
   157  H    0.049355
   158  H    0.053577
 Sum of Mulliken charges =  -0.00000
 Mulliken charges with hydrogens summed into heavy atoms:
               1
     1  Mg   0.838644
     2  C   -0.002910
     3  C   -0.111431
     4  C   -0.063218
     5  C   -0.105383
     6  N   -0.256816
     7  C   -0.052300
     8  C   -0.012903
     9  C   -0.090805
    10  C    0.046300
    11  C    0.163482
    12  C    0.108757
    13  C    0.000853
    15  N   -0.433103
    16  C    0.168267
    17  C   -0.177212
    18  C   -0.004304
    19  C    0.148655
    20  C    0.182301
    21  C    0.011860
    22  O   -0.249998
    23  C    0.166364
    24  N   -0.341167
    25  C    0.041273
    26  C   -0.011934
    27  C   -0.014407
    28  C    0.074890
    29  C    0.116717
    30  C    0.046432
    31  C    0.051184
    32  N   -0.310523
    33  C    0.080501
    34  C   -0.169686
    35  C    0.008409
    36  C    0.082997
    37  C    0.230239
    38  C    0.046128
    39  O   -0.188249
    40  C    0.030003
    41  C    0.212912
    42  O   -0.257151
    43  O   -0.304770
    44  C    0.301101
    80  Mg   0.838166
    81  C   -0.016989
    82  C   -0.107616
    83  C   -0.060916
    84  C   -0.103939
    85  N   -0.254544
    86  C   -0.049847
    87  C   -0.016289
    88  C   -0.095052
    89  C    0.045739
    90  C    0.167396
    91  C    0.114214
    92  C   -0.003208
    94  N   -0.423522
    95  C    0.162925
    96  C   -0.174631
    97  C   -0.007841
    98  C    0.152169
    99  C    0.173813
   100  C    0.015489
   101  O   -0.253177
   102  C    0.169432
   103  N   -0.349970
   104  C    0.037813
   105  C   -0.005931
   106  C   -0.021208
   107  C    0.088884
   108  C    0.117258
   109  C    0.044928
   110  C    0.050713
   111  N   -0.324128
   112  C    0.078422
   113  C   -0.162773
   114  C    0.002106
   115  C    0.096318
   116  C    0.233417
   117  C    0.042349
   118  O   -0.188424
   119  C    0.035555
   120  C    0.211157
   121  O   -0.251019
   122  O   -0.305779
   123  C    0.298543
 Electronic spatial extent (au):  <R**2>=         150332.6462
 Charge=             -0.0000 electrons
 Dipole moment (field-independent basis, Debye):
    X=             -3.5104    Y=              1.8414    Z=              6.1438  Tot=              7.3117
 Quadrupole moment (field-independent basis, Debye-Ang):
   XX=           -519.1697   YY=           -508.6118   ZZ=           -490.3068
   XY=             36.6702   XZ=             -8.8797   YZ=             -8.8665
 Traceless Quadrupole moment (field-independent basis, Debye-Ang):
   XX=            -13.1403   YY=             -2.5824   ZZ=             15.7227
   XY=             36.6702   XZ=             -8.8797   YZ=             -8.8665
 Octapole moment (field-independent basis, Debye-Ang**2):
  XXX=           -470.8926  YYY=             17.3321  ZZZ=            228.9249  XYY=           -310.3071
  XXY=            139.1016  XXZ=            301.5498  XZZ=            318.0546  YZZ=           -178.8765
  YYZ=            -13.0556  XYZ=            333.5055
 Hexadecapole moment (field-independent basis, Debye-Ang**3):
 XXXX=        -140453.5359 YYYY=         -34574.6115 ZZZZ=         -31234.8235 XXXY=           2131.1911
 XXXZ=             -5.7475 YYYX=           1596.6891 YYYZ=            797.5954 ZZZX=           -781.8800
 ZZZY=           -884.8934 XXYY=         -28656.4233 XXZZ=         -27489.7883 YYZZ=         -11284.4318
 XXYZ=           -720.6417 YYXZ=           1643.8519 ZZXY=           -859.5971
 N-N= 1.424118825649D+04 E-N=-3.796332638652D+04  KE= 4.028801850018D+03
 Leave Link  601 at Sat Sep 11 11:38:19 2021, MaxMem= 23488102400 cpu:              21.6 elap:               1.0
 (Enter /sw/apps/gaussian-16.0/g16/l9999.exe)
 1\1\GINC-BP1-COMPUTE00099\SP\RCAM-B3LYP TD-FC\def2SVP\C68H72Mg2N8O8\OF
 15641\11-Sep-2021\0\\#p cam-b3lyp/Def2SVP td=(nstates=5)\\TDDFT excite
 d states in gaussian\\0,1\Mg,0,0.,0.,0.\C,0,-0.217,-2.218,2.801\C,0,-1
 .255,2.442,2.026\C,0,-0.245,1.85,-2.564\C,0,0.146,-2.824,-2.037\N,0,-0
 .617,-0.009,2.126\C,0,-0.594,-0.908,3.105\C,0,-0.936,-0.309,4.502\C,0,
 -1.773,0.964,4.032\C,0,-1.155,1.168,2.66\C,0,-3.263,0.685,3.863\C,0,0.
 345,0.11,5.299\C,0,0.124,0.397,6.787\H,0,1.168,0.033,7.733\N,0,-0.185,
 1.961,-0.152\C,0,-0.703,2.8,0.777\C,0,-0.62,4.156,0.193\C,0,-0.187,4.0
 15,-1.225\C,0,-0.214,2.583,-1.38\C,0,-0.887,5.406,0.974\C,0,0.181,5.01
 3,-2.277\O,0,0.303,4.69,-3.508\C,0,0.31,6.414,-1.837\N,0,-0.265,-0.413
 ,-2.029\C,0,-0.279,0.569,-2.937\C,0,-0.196,0.024,-4.332\C,0,0.124,-1.5
 33,-4.18\C,0,0.086,-1.632,-2.635\C,0,-1.451,0.205,-5.197\C,0,1.373,-2.
 07,-4.923\C,0,2.626,-1.49,-4.306\N,0,0.15,-2.144,0.303\C,0,0.173,-3.13
 6,-0.688\C,0,0.173,-4.438,0.004\C,0,0.133,-4.111,1.358\C,0,0.083,-2.69
 5,1.502\C,0,0.149,-5.715,-0.623\C,0,0.096,-4.629,2.716\O,0,0.208,-5.74
 7,3.221\C,0,-0.255,-3.428,3.701\C,0,0.717,-3.482,4.848\O,0,1.931,-3.25
 5,4.669\O,0,0.038,-3.556,6.003\C,0,0.943,-3.583,7.183\H,0,-1.859,3.22,
 2.497\H,0,-0.218,2.453,-3.474\H,0,0.276,-3.747,-2.605\H,0,-1.554,-0.94
 9,5.132\H,0,-1.585,1.831,4.665\H,0,-3.484,-0.377,3.969\H,0,-3.511,1.02
 7,2.858\H,0,-3.852,1.301,4.543\H,0,0.669,1.096,4.966\H,0,1.13,-0.639,5
 .189\H,0,-0.844,0.026,7.125\H,0,0.062,1.477,6.921\H,0,-1.344,5.186,1.9
 38\H,0,-1.651,5.963,0.432\H,0,0.007,6.02,1.084\H,0,-0.635,6.744,-1.405
 \H,0,0.665,6.97,-2.704\H,0,1.048,6.466,-1.036\H,0,0.608,0.501,-4.891\H
 ,0,-0.692,-2.156,-4.547\H,0,-1.267,0.74,-6.129\H,0,-2.204,0.714,-4.596
 \H,0,-1.967,-0.72,-5.453\H,0,1.356,-1.759,-5.967\H,0,1.452,-3.157,-4.9
 02\H,0,2.714,-0.522,-4.798\H,0,3.487,-2.121,-4.529\H,0,2.495,-1.303,-3
 .24\H,0,0.867,-6.333,-0.084\H,0,0.404,-5.642,-1.68\H,0,-0.891,-5.999,-
 0.463\H,0,-1.283,-3.581,4.028\H,0,0.698,-4.478,7.755\H,0,0.833,-2.619,
 7.68\H,0,2.,-3.754,6.976\Mg,0,13.14537,1.19054,0.99547\C,0,12.52537,3.
 55296,3.62485\C,0,12.21056,3.62203,-1.20648\C,0,13.24766,-0.99225,-1.3
 0505\C,0,12.92077,-1.32782,3.39403\N,0,12.47595,3.27765,1.29229\C,0,12
 .33814,4.08598,2.33246\C,0,12.05807,5.56744,1.9631\C,0,11.4246,5.33627
 ,0.50566\C,0,12.10182,4.01385,0.15174\C,0,9.92189,5.11148,0.53135\C,0,
 13.37093,6.4236,1.88959\C,0,13.14978,7.93696,1.83897\H,0,14.10925,8.80
 369,2.5177\N,0,13.25943,1.40498,-0.9742\C,0,12.85384,2.46662,-1.70199\
 C,0,13.13683,2.12466,-3.10454\C,0,13.59053,0.70839,-3.1597\C,0,13.3585
 2,0.30364,-1.78768\C,0,13.04522,3.12469,-4.22033\C,0,14.13033,-0.14472
 ,-4.26742\O,0,14.23659,-1.41637,-4.1473\C,0,14.44322,0.54075,-5.52985\
 N,0,12.88262,-0.87181,0.99594\C,0,13.03306,-1.58815,-0.13196\C,0,13.06
 907,-3.06875,0.16291\C,0,13.15456,-3.1877,1.75543\C,0,13.05902,-1.6915
 ,2.12644\C,0,11.87513,-3.87727,-0.34421\C,0,14.3302,-4.01982,2.33691\C
 ,0,15.64215,-3.31964,2.06504\N,0,12.97422,1.10301,3.14746\C,0,12.86898
 ,-0.05525,3.94836\C,0,12.65812,0.39502,5.33948\C,0,12.6321,1.79478,5.2
 4731\C,0,12.79371,2.18853,3.89146\C,0,12.47219,-0.45141,6.46869\C,0,12
 .49404,3.02852,5.98726\O,0,12.41924,3.32264,7.17958\C,0,12.2922,4.2183
 1,4.95283\C,0,13.21565,5.33827,5.3471\O,0,14.44909,5.19183,5.28542\O,0
 ,12.49614,6.46162,5.52244\C,0,13.36947,7.60341,5.90378\H,0,11.72103,4.
 23475,-1.964\H,0,13.38719,-1.7843,-2.04442\H,0,12.93914,-2.0493,4.2136
 7\H,0,11.34257,6.06803,2.60438\H,0,11.72907,6.11762,-0.18582\H,0,9.544
 41,5.02649,1.53953\H,0,9.75251,4.19272,-0.01477\H,0,9.4135,5.89693,-0.
 03517\H,0,13.84422,6.27005,0.91124\H,0,14.02955,6.18159,2.70094\H,0,12
 .12357,8.21288,2.11047\H,0,13.25101,8.26798,0.80253\H,0,12.52783,4.037
 69,-3.90074\H,0,12.38835,2.69317,-4.98334\H,0,14.01562,3.34243,-4.6715
 3\H,0,13.54728,1.02693,-5.90849\H,0,14.90016,-0.21755,-6.16865\H,0,15.
 17,1.33499,-5.32589\H,0,13.94838,-3.5283,-0.27152\H,0,12.26191,-3.6734
 3,2.17624\H,0,12.16405,-4.70842,-1.01487\H,0,11.19449,-3.20258,-0.8462
 6\H,0,11.24432,-4.30605,0.43261\H,0,14.3883,-4.99157,1.84045\H,0,14.24
 163,-4.20703,3.40185\H,0,15.88005,-3.62944,1.04302\H,0,16.40572,-3.651
 17,2.76582\H,0,15.51322,-2.23107,2.05794\H,0,13.07007,-0.03756,7.2698\
 H,0,12.75796,-1.47768,6.24763\H,0,11.39363,-0.34797,6.61449\H,0,11.244
 15,4.51695,4.99744\H,0,12.97613,8.00711,6.84186\H,0,13.37666,8.27947,5
 .0282\H,0,14.39286,7.38051,6.18209\\Version=ES64L-G16RevA.03\State=1-A
 \HF=-4069.8118766\RMSD=4.503e-09\PG=C01 [X(C68H72Mg2N8O8)]\\@


 THE MOLECULE ALSO HAS A BODY.  WHEN THIS BODY IS HIT, THE MOLECULE
 FEELS HURT ALL OVER -- A. KITAIGORODSKI
 Job cpu time:       0 days 12 hours  3 minutes 27.9 seconds.
 Elapsed time:       0 days  0 hours 30 minutes 44.0 seconds.
 File lengths (MBytes):  RWF=  13225 Int=      0 D2E=      0 Chk=    574 Scr=      1
 Normal termination of Gaussian 16 at Sat Sep 11 11:38:20 2021.
