 Entering Gaussian System, Link 0=g16
 Initial command:
 /sw/apps/gaussian-16.0/g16/l1.exe "/tmp/Gau-79644.inp" -scrdir="/tmp/"
 Entering Link 1 = /sw/apps/gaussian-16.0/g16/l1.exe PID=     79645.
  
 Copyright (c) 1988,1990,1992,1993,1995,1998,2003,2009,2016,
            Gaussian, Inc.  All Rights Reserved.
  
 This is part of the Gaussian(R) 16 program.  It is based on
 the Gaussian(R) 09 system (copyright 2009, Gaussian, Inc.),
 the Gaussian(R) 03 system (copyright 2003, Gaussian, Inc.),
 the Gaussian(R) 98 system (copyright 1998, Gaussian, Inc.),
 the Gaussian(R) 94 system (copyright 1995, Gaussian, Inc.),
 the Gaussian 92(TM) system (copyright 1992, Gaussian, Inc.),
 the Gaussian 90(TM) system (copyright 1990, Gaussian, Inc.),
 the Gaussian 88(TM) system (copyright 1988, Gaussian, Inc.),
 the Gaussian 86(TM) system (copyright 1986, Carnegie Mellon
 University), and the Gaussian 82(TM) system (copyright 1983,
 Carnegie Mellon University). Gaussian is a federally registered
 trademark of Gaussian, Inc.
  
 This software contains proprietary and confidential information,
 including trade secrets, belonging to Gaussian, Inc.
  
 This software is provided under written license and may be
 used, copied, transmitted, or stored only in accord with that
 written license.
  
 The following legend is applicable only to US Government
 contracts under FAR:
  
                    RESTRICTED RIGHTS LEGEND
  
 Use, reproduction and disclosure by the US Government is
 subject to restrictions as set forth in subparagraphs (a)
 and (c) of the Commercial Computer Software - Restricted
 Rights clause in FAR 52.227-19.
  
 Gaussian, Inc.
 340 Quinnipiac St., Bldg. 40, Wallingford CT 06492
  
  
 ---------------------------------------------------------------
 Warning -- This program may not be used in any manner that
 competes with the business of Gaussian, Inc. or will provide
 assistance to any competitor of Gaussian, Inc.  The licensee
 of this program is prohibited from giving any competitor of
 Gaussian, Inc. access to this program.  By using this program,
 the user acknowledges that Gaussian, Inc. is engaged in the
 business of creating and licensing software in the field of
 computational chemistry and represents and warrants to the
 licensee that it is not a competitor of Gaussian, Inc. and that
 it will not use this program in any manner prohibited above.
 ---------------------------------------------------------------
  

 Cite this work as:
 Gaussian 16, Revision A.03,
 M. J. Frisch, G. W. Trucks, H. B. Schlegel, G. E. Scuseria, 
 M. A. Robb, J. R. Cheeseman, G. Scalmani, V. Barone, 
 G. A. Petersson, H. Nakatsuji, X. Li, M. Caricato, A. V. Marenich, 
 J. Bloino, B. G. Janesko, R. Gomperts, B. Mennucci, H. P. Hratchian, 
 J. V. Ortiz, A. F. Izmaylov, J. L. Sonnenberg, D. Williams-Young, 
 F. Ding, F. Lipparini, F. Egidi, J. Goings, B. Peng, A. Petrone, 
 T. Henderson, D. Ranasinghe, V. G. Zakrzewski, J. Gao, N. Rega, 
 G. Zheng, W. Liang, M. Hada, M. Ehara, K. Toyota, R. Fukuda, 
 J. Hasegawa, M. Ishida, T. Nakajima, Y. Honda, O. Kitao, H. Nakai, 
 T. Vreven, K. Throssell, J. A. Montgomery, Jr., J. E. Peralta, 
 F. Ogliaro, M. J. Bearpark, J. J. Heyd, E. N. Brothers, K. N. Kudin, 
 V. N. Staroverov, T. A. Keith, R. Kobayashi, J. Normand, 
 K. Raghavachari, A. P. Rendell, J. C. Burant, S. S. Iyengar, 
 J. Tomasi, M. Cossi, J. M. Millam, M. Klene, C. Adamo, R. Cammi, 
 J. W. Ochterski, R. L. Martin, K. Morokuma, O. Farkas, 
 J. B. Foresman, and D. J. Fox, Gaussian, Inc., Wallingford CT, 2016.
 
 ******************************************
 Gaussian 16:  ES64L-G16RevA.03 25-Dec-2016
                 4-Sep-2021 
 ******************************************
 %nproc=24
 Will use up to   24 processors via shared memory.
 %mem=175gb
 -----------------------------------
 #p cam-b3lyp/Def2SVP td=(nstates=5)
 -----------------------------------
 1/38=1,172=1/1;
 2/12=2,17=6,18=5,40=1/2;
 3/5=43,7=101,11=9,25=1,30=1,74=-40/1,2,3,8;
 4//1;
 5/5=2,38=5/2;
 8/6=1,10=1,108=5/1;
 9/41=5,42=1,70=2/14;
 6/7=2,8=2,9=2,10=2/1;
 99/5=1,9=1/99;
 Leave Link    1 at Sat Sep  4 14:50:43 2021, MaxMem= 23488102400 cpu:               0.9 elap:               0.0
 (Enter /sw/apps/gaussian-16.0/g16/l101.exe)
 --------------------------------
 TDDFT excited states in gaussian
 --------------------------------
 Symbolic Z-matrix:
 Charge =  0 Multiplicity = 1
 Mg                    0.        0.        0. 
 C                    -0.217    -2.218     2.801 
 C                    -1.255     2.442     2.026 
 C                    -0.245     1.85     -2.564 
 C                     0.146    -2.824    -2.037 
 N                    -0.617    -0.009     2.126 
 C                    -0.594    -0.908     3.105 
 C                    -0.936    -0.309     4.502 
 C                    -1.773     0.964     4.032 
 C                    -1.155     1.168     2.66 
 C                    -3.263     0.685     3.863 
 C                     0.345     0.11      5.299 
 C                     0.124     0.397     6.787 
 H                     1.168     0.033     7.733 
 N                    -0.185     1.961    -0.152 
 C                    -0.703     2.8       0.777 
 C                    -0.62      4.156     0.193 
 C                    -0.187     4.015    -1.225 
 C                    -0.214     2.583    -1.38 
 C                    -0.887     5.406     0.974 
 C                     0.181     5.013    -2.277 
 O                     0.303     4.69     -3.508 
 C                     0.31      6.414    -1.837 
 N                    -0.265    -0.413    -2.029 
 C                    -0.279     0.569    -2.937 
 C                    -0.196     0.024    -4.332 
 C                     0.124    -1.533    -4.18 
 C                     0.086    -1.632    -2.635 
 C                    -1.451     0.205    -5.197 
 C                     1.373    -2.07     -4.923 
 C                     2.626    -1.49     -4.306 
 N                     0.15     -2.144     0.303 
 C                     0.173    -3.136    -0.688 
 C                     0.173    -4.438     0.004 
 C                     0.133    -4.111     1.358 
 C                     0.083    -2.695     1.502 
 C                     0.149    -5.715    -0.623 
 C                     0.096    -4.629     2.716 
 O                     0.208    -5.747     3.221 
 C                    -0.255    -3.428     3.701 
 C                     0.717    -3.482     4.848 
 O                     1.931    -3.255     4.669 
 O                     0.038    -3.556     6.003 
 C                     0.943    -3.583     7.183 
 H                    -1.859     3.22      2.497 
 H                    -0.218     2.453    -3.474 
 H                     0.276    -3.747    -2.605 
 H                    -1.554    -0.949     5.132 
 H                    -1.585     1.831     4.665 
 H                    -3.484    -0.377     3.969 
 H                    -3.511     1.027     2.858 
 H                    -3.852     1.301     4.543 
 H                     0.669     1.096     4.966 
 H                     1.13     -0.639     5.189 
 H                    -0.844     0.026     7.125 
 H                     0.062     1.477     6.921 
 H                    -1.344     5.186     1.938 
 H                    -1.651     5.963     0.432 
 H                     0.007     6.02      1.084 
 H                    -0.635     6.744    -1.405 
 H                     0.665     6.97     -2.704 
 H                     1.048     6.466    -1.036 
 H                     0.608     0.501    -4.891 
 H                    -0.692    -2.156    -4.547 
 H                    -1.267     0.74     -6.129 
 H                    -2.204     0.714    -4.596 
 H                    -1.967    -0.72     -5.453 
 H                     1.356    -1.759    -5.967 
 H                     1.452    -3.157    -4.902 
 H                     2.714    -0.522    -4.798 
 H                     3.487    -2.121    -4.529 
 H                     2.495    -1.303    -3.24 
 H                     0.867    -6.333    -0.084 
 H                     0.404    -5.642    -1.68 
 H                    -0.891    -5.999    -0.463 
 H                    -1.283    -3.581     4.028 
 H                     0.698    -4.478     7.755 
 H                     0.833    -2.619     7.68 
 H                     2.       -3.754     6.976 
 Mg                    15.77259   1.42665   1.20213 
 C                     15.3733   0.62403   4.6771 
 C                     14.55474   4.52801   1.93221 
 C                     15.68711   2.01785  -1.91405 
 C                     15.86029  -1.99837   0.56402 
 N                     15.08754   2.33892   3.09706 
 C                     15.03947   1.95837   4.36482 
 C                     14.6867   3.09277   5.36394 
 C                     13.91045   4.07028   4.35359 
 C                     14.57882   3.65094   3.04588 
 C                     12.42448   3.77004   4.24823 
 C                     15.96365   3.78117   5.96186 
 C                     15.70192   4.68306   7.17009 
 H                     16.70572   4.7363    8.22935 
 N                     15.67539   3.15087   0.22427 
 C                     15.17057   4.31691   0.679 
 C                     15.31391   5.27601  -0.42722 
 C                     15.79348   4.539    -1.62787 
 C                     15.71567   3.17391  -1.14772 
 C                     15.0823   6.74989  -0.26148 
 C                     16.23526   4.98758  -2.98795 
 O                     16.38417   4.15934  -3.95473 
 C                     16.39813   6.43609  -3.17972 
 N                     15.56123   0.19712  -0.46098 
 C                     15.61048   0.70331  -1.70567 
 C                     15.71282  -0.39464  -2.73739 
 C                     15.96678  -1.73941  -1.90993 
 C                     15.87434  -1.17503  -0.47525 
 C                     14.49238  -0.57543  -3.63974 
 C                     17.21641  -2.57756  -2.29541 
 C                     18.47555  -1.82034  -1.93962 
 N                     15.82898  -0.37615   2.39158 
 C                     15.83586  -1.70793   1.92211 
 C                     15.76042  -2.5875    3.10663 
 C                     15.69111  -1.69913   4.19037 
 C                     15.70087  -0.36043   3.71363 
 C                     15.71379  -4.00999   3.08488 
 C                     15.6012  -1.58949   5.62863 
 O                     15.64408  -2.38648   6.56496 
 C                     15.26389  -0.08138   6.00037 
 C                     16.19609   0.34536   7.10101 
 O                     17.41955   0.43144   6.89518 
 O                     15.47185   0.78835   8.14485 
 C                     16.35235   1.2333    9.25776 
 H                     13.97422   5.44782   2.00866 
 H                     15.76786   2.16558  -2.99347 
 H                     15.98147  -3.07823   0.45494 
 H                     14.03009   2.79721   6.17344 
 H                     14.12217   5.11363   4.57256 
 H                     12.15637   2.87044   4.78206 
 H                     12.22132   3.65755   3.19129 
 H                     11.84095   4.63478   4.57693 
 H                     16.3359   4.52702   5.24779 
 H                     16.70895   3.05094   6.21072 
 H                     14.70326   4.52383   7.59467 
 H                     15.68648   5.7217    6.83096 
 H                     14.57915   6.97382   0.68726 
 H                     14.36005   7.04837  -1.02903 
 H                     15.9948   7.33648  -0.38765 
 H                     15.4561   6.93651  -2.9685 
 H                     16.80414   6.55378  -4.18629 
 H                     17.12281   6.80681  -2.44621 
 H                     16.55287  -0.22571  -3.39987 
 H                     15.13489  -2.45017  -2.02223 
 H                     14.72978  -0.49115  -4.71706 
 H                     13.74699   0.15572  -3.35628 
 H                     13.95658  -1.5141   -3.50928 
 H                     17.24589  -2.73853  -3.37586 
 H                     17.24395  -3.55403  -1.82346 
 H                     18.61298  -1.1537   -2.79623 
 H                     19.31583  -2.5033   -1.83218 
 H                     18.32032  -1.19227  -1.0547 
 H                     16.38177  -4.35533   3.86272 
 H                     15.99966  -4.40231   2.11116 
 H                     14.65412  -4.17368   3.29839 
 H                     14.2193  -0.0466    6.31215 
 H                     16.04935   0.67375   10.14814 
 H                     16.25185   2.33428   9.29632 
 H                     17.40427   0.97995   9.19657 
 
 ITRead=  0  0  0  0  0  0  0  0  0  0  0  0  0  0  0  0  0  0  0  0
 ITRead=  0  0  0  0  0  0  0  0  0  0  0  0  0  0  0  0  0  0  0  0
 ITRead=  0  0  0  0  0  0  0  0  0  0  0  0  0  0  0  0  0  0  0  0
 ITRead=  0  0  0  0  0  0  0  0  0  0  0  0  0  0  0  0  0  0  0  0
 ITRead=  0  0  0  0  0  0  0  0  0  0  0  0  0  0  0  0  0  0  0  0
 ITRead=  0  0  0  0  0  0  0  0  0  0  0  0  0  0  0  0  0  0  0  0
 ITRead=  0  0  0  0  0  0  0  0  0  0  0  0  0  0  0  0  0  0  0  0
 ITRead=  0  0  0  0  0  0  0  0  0  0  0  0  0  0  0  0  0  0
 MicOpt= -1 -1 -1 -1 -1 -1 -1 -1 -1 -1 -1 -1 -1 -1 -1 -1 -1 -1 -1 -1
 MicOpt= -1 -1 -1 -1 -1 -1 -1 -1 -1 -1 -1 -1 -1 -1 -1 -1 -1 -1 -1 -1
 MicOpt= -1 -1 -1 -1 -1 -1 -1 -1 -1 -1 -1 -1 -1 -1 -1 -1 -1 -1 -1 -1
 MicOpt= -1 -1 -1 -1 -1 -1 -1 -1 -1 -1 -1 -1 -1 -1 -1 -1 -1 -1 -1 -1
 MicOpt= -1 -1 -1 -1 -1 -1 -1 -1 -1 -1 -1 -1 -1 -1 -1 -1 -1 -1 -1 -1
 MicOpt= -1 -1 -1 -1 -1 -1 -1 -1 -1 -1 -1 -1 -1 -1 -1 -1 -1 -1 -1 -1
 MicOpt= -1 -1 -1 -1 -1 -1 -1 -1 -1 -1 -1 -1 -1 -1 -1 -1 -1 -1 -1 -1
 MicOpt= -1 -1 -1 -1 -1 -1 -1 -1 -1 -1 -1 -1 -1 -1 -1 -1 -1 -1
 NAtoms=    158 NQM=      158 NQMF=       0 NMMI=      0 NMMIF=      0
                NMic=       0 NMicF=      0.
                    Isotopes and Nuclear Properties:
 (Nuclear quadrupole moments (NQMom) in fm**2, nuclear magnetic moments (NMagM)
  in nuclear magnetons)

  Atom         1           2           3           4           5           6           7           8           9          10
 IAtWgt=          24          12          12          12          12          14          12          12          12          12
 AtmWgt=  23.9850450  12.0000000  12.0000000  12.0000000  12.0000000  14.0030740  12.0000000  12.0000000  12.0000000  12.0000000
 NucSpn=           0           0           0           0           0           2           0           0           0           0
 AtZEff=  -0.0000000  -0.0000000  -0.0000000  -0.0000000  -0.0000000  -0.0000000  -0.0000000  -0.0000000  -0.0000000  -0.0000000
 NQMom=    0.0000000   0.0000000   0.0000000   0.0000000   0.0000000   2.0440000   0.0000000   0.0000000   0.0000000   0.0000000
 NMagM=    0.0000000   0.0000000   0.0000000   0.0000000   0.0000000   0.4037610   0.0000000   0.0000000   0.0000000   0.0000000
 AtZNuc=  12.0000000   6.0000000   6.0000000   6.0000000   6.0000000   7.0000000   6.0000000   6.0000000   6.0000000   6.0000000

  Atom        11          12          13          14          15          16          17          18          19          20
 IAtWgt=          12          12          12           1          14          12          12          12          12          12
 AtmWgt=  12.0000000  12.0000000  12.0000000   1.0078250  14.0030740  12.0000000  12.0000000  12.0000000  12.0000000  12.0000000
 NucSpn=           0           0           0           1           2           0           0           0           0           0
 AtZEff=  -0.0000000  -0.0000000  -0.0000000  -0.0000000  -0.0000000  -0.0000000  -0.0000000  -0.0000000  -0.0000000  -0.0000000
 NQMom=    0.0000000   0.0000000   0.0000000   0.0000000   2.0440000   0.0000000   0.0000000   0.0000000   0.0000000   0.0000000
 NMagM=    0.0000000   0.0000000   0.0000000   2.7928460   0.4037610   0.0000000   0.0000000   0.0000000   0.0000000   0.0000000
 AtZNuc=   6.0000000   6.0000000   6.0000000   1.0000000   7.0000000   6.0000000   6.0000000   6.0000000   6.0000000   6.0000000

  Atom        21          22          23          24          25          26          27          28          29          30
 IAtWgt=          12          16          12          14          12          12          12          12          12          12
 AtmWgt=  12.0000000  15.9949146  12.0000000  14.0030740  12.0000000  12.0000000  12.0000000  12.0000000  12.0000000  12.0000000
 NucSpn=           0           0           0           2           0           0           0           0           0           0
 AtZEff=  -0.0000000  -0.0000000  -0.0000000  -0.0000000  -0.0000000  -0.0000000  -0.0000000  -0.0000000  -0.0000000  -0.0000000
 NQMom=    0.0000000   0.0000000   0.0000000   2.0440000   0.0000000   0.0000000   0.0000000   0.0000000   0.0000000   0.0000000
 NMagM=    0.0000000   0.0000000   0.0000000   0.4037610   0.0000000   0.0000000   0.0000000   0.0000000   0.0000000   0.0000000
 AtZNuc=   6.0000000   8.0000000   6.0000000   7.0000000   6.0000000   6.0000000   6.0000000   6.0000000   6.0000000   6.0000000

  Atom        31          32          33          34          35          36          37          38          39          40
 IAtWgt=          12          14          12          12          12          12          12          12          16          12
 AtmWgt=  12.0000000  14.0030740  12.0000000  12.0000000  12.0000000  12.0000000  12.0000000  12.0000000  15.9949146  12.0000000
 NucSpn=           0           2           0           0           0           0           0           0           0           0
 AtZEff=  -0.0000000  -0.0000000  -0.0000000  -0.0000000  -0.0000000  -0.0000000  -0.0000000  -0.0000000  -0.0000000  -0.0000000
 NQMom=    0.0000000   2.0440000   0.0000000   0.0000000   0.0000000   0.0000000   0.0000000   0.0000000   0.0000000   0.0000000
 NMagM=    0.0000000   0.4037610   0.0000000   0.0000000   0.0000000   0.0000000   0.0000000   0.0000000   0.0000000   0.0000000
 AtZNuc=   6.0000000   7.0000000   6.0000000   6.0000000   6.0000000   6.0000000   6.0000000   6.0000000   8.0000000   6.0000000

  Atom        41          42          43          44          45          46          47          48          49          50
 IAtWgt=          12          16          16          12           1           1           1           1           1           1
 AtmWgt=  12.0000000  15.9949146  15.9949146  12.0000000   1.0078250   1.0078250   1.0078250   1.0078250   1.0078250   1.0078250
 NucSpn=           0           0           0           0           1           1           1           1           1           1
 AtZEff=  -0.0000000  -0.0000000  -0.0000000  -0.0000000  -0.0000000  -0.0000000  -0.0000000  -0.0000000  -0.0000000  -0.0000000
 NQMom=    0.0000000   0.0000000   0.0000000   0.0000000   0.0000000   0.0000000   0.0000000   0.0000000   0.0000000   0.0000000
 NMagM=    0.0000000   0.0000000   0.0000000   0.0000000   2.7928460   2.7928460   2.7928460   2.7928460   2.7928460   2.7928460
 AtZNuc=   6.0000000   8.0000000   8.0000000   6.0000000   1.0000000   1.0000000   1.0000000   1.0000000   1.0000000   1.0000000

  Atom        51          52          53          54          55          56          57          58          59          60
 IAtWgt=           1           1           1           1           1           1           1           1           1           1
 AtmWgt=   1.0078250   1.0078250   1.0078250   1.0078250   1.0078250   1.0078250   1.0078250   1.0078250   1.0078250   1.0078250
 NucSpn=           1           1           1           1           1           1           1           1           1           1
 AtZEff=  -0.0000000  -0.0000000  -0.0000000  -0.0000000  -0.0000000  -0.0000000  -0.0000000  -0.0000000  -0.0000000  -0.0000000
 NQMom=    0.0000000   0.0000000   0.0000000   0.0000000   0.0000000   0.0000000   0.0000000   0.0000000   0.0000000   0.0000000
 NMagM=    2.7928460   2.7928460   2.7928460   2.7928460   2.7928460   2.7928460   2.7928460   2.7928460   2.7928460   2.7928460
 AtZNuc=   1.0000000   1.0000000   1.0000000   1.0000000   1.0000000   1.0000000   1.0000000   1.0000000   1.0000000   1.0000000

  Atom        61          62          63          64          65          66          67          68          69          70
 IAtWgt=           1           1           1           1           1           1           1           1           1           1
 AtmWgt=   1.0078250   1.0078250   1.0078250   1.0078250   1.0078250   1.0078250   1.0078250   1.0078250   1.0078250   1.0078250
 NucSpn=           1           1           1           1           1           1           1           1           1           1
 AtZEff=  -0.0000000  -0.0000000  -0.0000000  -0.0000000  -0.0000000  -0.0000000  -0.0000000  -0.0000000  -0.0000000  -0.0000000
 NQMom=    0.0000000   0.0000000   0.0000000   0.0000000   0.0000000   0.0000000   0.0000000   0.0000000   0.0000000   0.0000000
 NMagM=    2.7928460   2.7928460   2.7928460   2.7928460   2.7928460   2.7928460   2.7928460   2.7928460   2.7928460   2.7928460
 AtZNuc=   1.0000000   1.0000000   1.0000000   1.0000000   1.0000000   1.0000000   1.0000000   1.0000000   1.0000000   1.0000000

  Atom        71          72          73          74          75          76          77          78          79          80
 IAtWgt=           1           1           1           1           1           1           1           1           1          24
 AtmWgt=   1.0078250   1.0078250   1.0078250   1.0078250   1.0078250   1.0078250   1.0078250   1.0078250   1.0078250  23.9850450
 NucSpn=           1           1           1           1           1           1           1           1           1           0
 AtZEff=  -0.0000000  -0.0000000  -0.0000000  -0.0000000  -0.0000000  -0.0000000  -0.0000000  -0.0000000  -0.0000000  -0.0000000
 NQMom=    0.0000000   0.0000000   0.0000000   0.0000000   0.0000000   0.0000000   0.0000000   0.0000000   0.0000000   0.0000000
 NMagM=    2.7928460   2.7928460   2.7928460   2.7928460   2.7928460   2.7928460   2.7928460   2.7928460   2.7928460   0.0000000
 AtZNuc=   1.0000000   1.0000000   1.0000000   1.0000000   1.0000000   1.0000000   1.0000000   1.0000000   1.0000000  12.0000000

  Atom        81          82          83          84          85          86          87          88          89          90
 IAtWgt=          12          12          12          12          14          12          12          12          12          12
 AtmWgt=  12.0000000  12.0000000  12.0000000  12.0000000  14.0030740  12.0000000  12.0000000  12.0000000  12.0000000  12.0000000
 NucSpn=           0           0           0           0           2           0           0           0           0           0
 AtZEff=  -0.0000000  -0.0000000  -0.0000000  -0.0000000  -0.0000000  -0.0000000  -0.0000000  -0.0000000  -0.0000000  -0.0000000
 NQMom=    0.0000000   0.0000000   0.0000000   0.0000000   2.0440000   0.0000000   0.0000000   0.0000000   0.0000000   0.0000000
 NMagM=    0.0000000   0.0000000   0.0000000   0.0000000   0.4037610   0.0000000   0.0000000   0.0000000   0.0000000   0.0000000
 AtZNuc=   6.0000000   6.0000000   6.0000000   6.0000000   7.0000000   6.0000000   6.0000000   6.0000000   6.0000000   6.0000000

  Atom        91          92          93          94          95          96          97          98          99         100
 IAtWgt=          12          12           1          14          12          12          12          12          12          12
 AtmWgt=  12.0000000  12.0000000   1.0078250  14.0030740  12.0000000  12.0000000  12.0000000  12.0000000  12.0000000  12.0000000
 NucSpn=           0           0           1           2           0           0           0           0           0           0
 AtZEff=  -0.0000000  -0.0000000  -0.0000000  -0.0000000  -0.0000000  -0.0000000  -0.0000000  -0.0000000  -0.0000000  -0.0000000
 NQMom=    0.0000000   0.0000000   0.0000000   2.0440000   0.0000000   0.0000000   0.0000000   0.0000000   0.0000000   0.0000000
 NMagM=    0.0000000   0.0000000   2.7928460   0.4037610   0.0000000   0.0000000   0.0000000   0.0000000   0.0000000   0.0000000
 AtZNuc=   6.0000000   6.0000000   1.0000000   7.0000000   6.0000000   6.0000000   6.0000000   6.0000000   6.0000000   6.0000000

  Atom       101         102         103         104         105         106         107         108         109         110
 IAtWgt=          16          12          14          12          12          12          12          12          12          12
 AtmWgt=  15.9949146  12.0000000  14.0030740  12.0000000  12.0000000  12.0000000  12.0000000  12.0000000  12.0000000  12.0000000
 NucSpn=           0           0           2           0           0           0           0           0           0           0
 AtZEff=  -0.0000000  -0.0000000  -0.0000000  -0.0000000  -0.0000000  -0.0000000  -0.0000000  -0.0000000  -0.0000000  -0.0000000
 NQMom=    0.0000000   0.0000000   2.0440000   0.0000000   0.0000000   0.0000000   0.0000000   0.0000000   0.0000000   0.0000000
 NMagM=    0.0000000   0.0000000   0.4037610   0.0000000   0.0000000   0.0000000   0.0000000   0.0000000   0.0000000   0.0000000
 AtZNuc=   8.0000000   6.0000000   7.0000000   6.0000000   6.0000000   6.0000000   6.0000000   6.0000000   6.0000000   6.0000000

  Atom       111         112         113         114         115         116         117         118         119         120
 IAtWgt=          14          12          12          12          12          12          12          16          12          12
 AtmWgt=  14.0030740  12.0000000  12.0000000  12.0000000  12.0000000  12.0000000  12.0000000  15.9949146  12.0000000  12.0000000
 NucSpn=           2           0           0           0           0           0           0           0           0           0
 AtZEff=  -0.0000000  -0.0000000  -0.0000000  -0.0000000  -0.0000000  -0.0000000  -0.0000000  -0.0000000  -0.0000000  -0.0000000
 NQMom=    2.0440000   0.0000000   0.0000000   0.0000000   0.0000000   0.0000000   0.0000000   0.0000000   0.0000000   0.0000000
 NMagM=    0.4037610   0.0000000   0.0000000   0.0000000   0.0000000   0.0000000   0.0000000   0.0000000   0.0000000   0.0000000
 AtZNuc=   7.0000000   6.0000000   6.0000000   6.0000000   6.0000000   6.0000000   6.0000000   8.0000000   6.0000000   6.0000000

  Atom       121         122         123         124         125         126         127         128         129         130
 IAtWgt=          16          16          12           1           1           1           1           1           1           1
 AtmWgt=  15.9949146  15.9949146  12.0000000   1.0078250   1.0078250   1.0078250   1.0078250   1.0078250   1.0078250   1.0078250
 NucSpn=           0           0           0           1           1           1           1           1           1           1
 AtZEff=  -0.0000000  -0.0000000  -0.0000000  -0.0000000  -0.0000000  -0.0000000  -0.0000000  -0.0000000  -0.0000000  -0.0000000
 NQMom=    0.0000000   0.0000000   0.0000000   0.0000000   0.0000000   0.0000000   0.0000000   0.0000000   0.0000000   0.0000000
 NMagM=    0.0000000   0.0000000   0.0000000   2.7928460   2.7928460   2.7928460   2.7928460   2.7928460   2.7928460   2.7928460
 AtZNuc=   8.0000000   8.0000000   6.0000000   1.0000000   1.0000000   1.0000000   1.0000000   1.0000000   1.0000000   1.0000000

  Atom       131         132         133         134         135         136         137         138         139         140
 IAtWgt=           1           1           1           1           1           1           1           1           1           1
 AtmWgt=   1.0078250   1.0078250   1.0078250   1.0078250   1.0078250   1.0078250   1.0078250   1.0078250   1.0078250   1.0078250
 NucSpn=           1           1           1           1           1           1           1           1           1           1
 AtZEff=  -0.0000000  -0.0000000  -0.0000000  -0.0000000  -0.0000000  -0.0000000  -0.0000000  -0.0000000  -0.0000000  -0.0000000
 NQMom=    0.0000000   0.0000000   0.0000000   0.0000000   0.0000000   0.0000000   0.0000000   0.0000000   0.0000000   0.0000000
 NMagM=    2.7928460   2.7928460   2.7928460   2.7928460   2.7928460   2.7928460   2.7928460   2.7928460   2.7928460   2.7928460
 AtZNuc=   1.0000000   1.0000000   1.0000000   1.0000000   1.0000000   1.0000000   1.0000000   1.0000000   1.0000000   1.0000000

  Atom       141         142         143         144         145         146         147         148         149         150
 IAtWgt=           1           1           1           1           1           1           1           1           1           1
 AtmWgt=   1.0078250   1.0078250   1.0078250   1.0078250   1.0078250   1.0078250   1.0078250   1.0078250   1.0078250   1.0078250
 NucSpn=           1           1           1           1           1           1           1           1           1           1
 AtZEff=  -0.0000000  -0.0000000  -0.0000000  -0.0000000  -0.0000000  -0.0000000  -0.0000000  -0.0000000  -0.0000000  -0.0000000
 NQMom=    0.0000000   0.0000000   0.0000000   0.0000000   0.0000000   0.0000000   0.0000000   0.0000000   0.0000000   0.0000000
 NMagM=    2.7928460   2.7928460   2.7928460   2.7928460   2.7928460   2.7928460   2.7928460   2.7928460   2.7928460   2.7928460
 AtZNuc=   1.0000000   1.0000000   1.0000000   1.0000000   1.0000000   1.0000000   1.0000000   1.0000000   1.0000000   1.0000000

  Atom       151         152         153         154         155         156         157         158
 IAtWgt=           1           1           1           1           1           1           1           1
 AtmWgt=   1.0078250   1.0078250   1.0078250   1.0078250   1.0078250   1.0078250   1.0078250   1.0078250
 NucSpn=           1           1           1           1           1           1           1           1
 AtZEff=  -0.0000000  -0.0000000  -0.0000000  -0.0000000  -0.0000000  -0.0000000  -0.0000000  -0.0000000
 NQMom=    0.0000000   0.0000000   0.0000000   0.0000000   0.0000000   0.0000000   0.0000000   0.0000000
 NMagM=    2.7928460   2.7928460   2.7928460   2.7928460   2.7928460   2.7928460   2.7928460   2.7928460
 AtZNuc=   1.0000000   1.0000000   1.0000000   1.0000000   1.0000000   1.0000000   1.0000000   1.0000000
 Leave Link  101 at Sat Sep  4 14:50:43 2021, MaxMem= 23488102400 cpu:               3.9 elap:               0.2
 (Enter /sw/apps/gaussian-16.0/g16/l202.exe)
 Stoichiometry    C68H72Mg2N8O8
 Framework group  C1[X(C68H72Mg2N8O8)]
 Deg. of freedom   468
 Full point group                 C1      NOp   1
 Largest Abelian subgroup         C1      NOp   1
 Largest concise Abelian subgroup C1      NOp   1
                         Standard orientation:                         
 ---------------------------------------------------------------------
 Center     Atomic      Atomic             Coordinates (Angstroms)
 Number     Number       Type             X           Y           Z
 ---------------------------------------------------------------------
      1         12           0       -7.858255   -0.734120   -0.081566
      2          6           0       -8.069561    2.699879    0.905964
      3          6           0       -8.666481    0.278492   -3.238218
      4          6           0       -8.123545   -3.792313   -0.877618
      5          6           0       -8.190316   -1.569580    3.285540
      6          7           0       -8.287768    1.263402   -0.933663
      7          6           0       -8.276934    2.506042   -0.461541
      8          6           0       -8.431708    3.589579   -1.570309
      9          6           0       -9.165178    2.710949   -2.680277
     10          6           0       -8.649073    1.338868   -2.284105
     11          6           0      -10.685435    2.718385   -2.556728
     12          6           0       -7.049575    4.119843   -2.080466
     13          6           0       -7.110008    5.399674   -2.919355
     14          1           0       -6.033491    6.370627   -2.794020
     15          7           0       -7.845061   -1.601823   -1.856324
     16          6           0       -8.188735   -1.034671   -3.037643
     17          6           0       -8.011815   -2.086743   -4.061618
     18          6           0       -7.719774   -3.364864   -3.355070
     19          6           0       -7.912821   -2.971174   -1.982802
     20          6           0       -8.075662   -1.820620   -5.534321
     21          6           0       -7.338993   -4.727821   -3.840339
     22          8           0       -7.358396   -5.752135   -3.075500
     23          6           0       -7.023738   -4.849958   -5.275170
     24          7           0       -8.339168   -2.448532    1.007999
     25          6           0       -8.326121   -3.656836    0.434577
     26          6           0       -8.421961   -4.748393    1.458909
     27          6           0       -8.258268   -4.037359    2.879257
     28          6           0       -8.173770   -2.567500    2.399001
     29          6           0       -9.720079   -5.567356    1.444762
     30          6           0       -7.142254   -4.574488    3.810076
     31          6           0       -5.786118   -4.270141    3.213949
     32          7           0       -7.912699    0.343389    1.801797
     33          6           0       -8.081024   -0.204134    3.081859
     34          6           0       -8.160681    0.924452    4.027384
     35          6           0       -8.049059    2.057937    3.224517
     36          6           0       -7.934938    1.663124    1.860922
     37          6           0       -8.374742    0.822728    5.430332
     38          6           0       -8.024398    3.511413    3.198885
     39          8           0       -7.989518    4.393392    4.058180
     40          6           0       -8.159163    3.988223    1.685505
     41          6           0       -7.103581    5.032179    1.442171
     42          8           0       -5.892167    4.732857    1.457915
     43          8           0       -7.684862    6.156994    0.997821
     44          6           0       -6.689928    7.224087    0.708733
     45          1           0       -9.141202    0.447635   -4.206708
     46          1           0       -8.110547   -4.862195   -1.095843
     47          1           0       -8.208943   -1.755352    4.360991
     48          1           0       -9.058131    4.437537   -1.292846
     49          1           0       -8.831952    2.965201   -3.686278
     50          1           0      -11.008702    3.223070   -1.646391
     51          1           0      -10.980886    1.669212   -2.535784
     52          1           0      -11.144652    3.141203   -3.450664
     53          1           0       -6.651899    3.429211   -2.824067
     54          1           0       -6.361455    4.267037   -1.247309
     55          1           0       -8.079471    5.890384   -2.828501
     56          1           0       -7.044530    5.121889   -3.971376
     57          1           0       -8.469044   -0.826946   -5.745054
     58          1           0       -8.819500   -2.500765   -5.948828
     59          1           0       -7.115057   -1.984341   -6.022955
     60          1           0       -7.887452   -4.535571   -5.861436
     61          1           0       -6.687165   -5.875510   -5.422858
     62          1           0       -6.218344   -4.156875   -5.519966
     63          1           0       -7.622609   -5.476974    1.329941
     64          1           0       -9.164648   -4.111466    3.480636
     65          1           0       -9.560718   -6.638429    1.317825
     66          1           0      -10.359965   -5.171105    0.656839
     67          1           0      -10.352020   -5.437538    2.322950
     68          1           0       -7.215547   -5.657411    3.904164
     69          1           0       -7.178326   -4.151170    4.813944
     70          1           0       -5.637795   -5.091901    2.514275
     71          1           0       -5.019816   -4.274849    3.989816
     72          1           0       -5.804334   -3.347397    2.633691
     73          1           0       -7.683245    1.524773    5.896093
     74          1           0       -8.205147   -0.193987    5.784072
     75          1           0       -9.421521    1.118841    5.496874
     76          1           0       -9.165714    4.389511    1.571731
     77          1           0       -6.979098    8.098896    1.291249
     78          1           0       -6.653208    7.327934   -0.375828
     79          1           0       -5.678958    7.054127    1.080742
     80         12           0        8.021107   -0.784801    0.231987
     81          6           0        7.838339    2.750860   -0.355164
     82          6           0        7.208804   -1.221091   -3.051978
     83          6           0        7.731915   -3.889551    0.818753
     84          6           0        7.687252   -0.096968    3.632143
     85          7           0        7.602762    0.656417   -1.392874
     86          6           0        7.623391    1.975270   -1.513473
     87          6           0        7.480970    2.490169   -2.970919
     88          6           0        6.729692    1.219182   -3.602638
     89          6           0        7.234619    0.138051   -2.649289
     90          6           0        5.216624    1.293365   -3.482329
     91          6           0        8.870771    2.735294   -3.656754
     92          6           0        8.811653    3.527335   -4.964769
     93          1           0        9.902655    4.448584   -5.270540
     94          7           0        8.025034   -2.332418   -1.010373
     95          6           0        7.688616   -2.327609   -2.317305
     96          6           0        7.838044   -3.717253   -2.776327
     97          6           0        8.131212   -4.572713   -1.594391
     98          6           0        7.949541   -3.613651   -0.523286
     99          6           0        7.780320   -4.106345   -4.225020
    100          6           0        8.499914   -6.018293   -1.450974
    101          8           0        8.475886   -6.609728   -0.314115
    102          6           0        8.799525   -6.744838   -2.693491
    103          7           0        7.537524   -1.856655    1.946521
    104          6           0        7.533469   -3.201228    1.943093
    105          6           0        7.428918   -3.749971    3.346077
    106          6           0        7.607890   -2.490028    4.314635
    107          6           0        7.699858   -1.368591    3.256665
    108          6           0        6.123173   -4.469446    3.683392
    109          6           0        8.723065   -2.583216    5.391837
    110          6           0       10.081778   -2.587455    4.729052
    111          7           0        7.986536    0.989886    1.463795
    112          6           0        7.810742    1.053375    2.863493
    113          6           0        7.743796    2.483063    3.229457
    114          6           0        7.863143    3.157153    2.004771
    115          6           0        7.974879    2.213850    0.947800
    116          6           0        7.543765    2.997419    4.541537
    117          6           0        7.909342    4.452079    1.364671
    118          8           0        7.947101    5.616199    1.761085
    119          6           0        7.768269    4.245230   -0.204939
    120          6           0        8.831804    5.067819   -0.879292
    121          8           0       10.035229    4.796031   -0.722673
    122          8           0        8.251394    5.897880   -1.765006
    123          6           0        9.266717    6.727083   -2.467410
    124          1           0        6.738600   -1.471493   -4.003348
    125          1           0        7.734963   -4.948056    1.089030
    126          1           0        7.682551    0.201486    4.682659
    127          1           0        6.868519    3.376983   -3.081586
    128          1           0        7.069689    1.022900   -4.616160
    129          1           0        4.900792    2.135460   -2.884613
    130          1           0        4.912573    0.364465   -3.017843
    131          1           0        4.759223    1.297386   -4.475856
    132          1           0        9.257851    1.779638   -4.033116
    133          1           0        9.552398    3.209490   -2.977664
    134          1           0        7.841882    4.020181   -5.104734
    135          1           0        8.878191    2.824874   -5.799120
    136          1           0        7.387341   -3.291190   -4.845103
    137          1           0        7.030845   -4.900304   -4.313241
    138          1           0        8.736036   -4.479326   -4.599392
    139          1           0        7.937995   -6.698910   -3.355391
    140          1           0        9.127811   -7.737602   -2.379601
    141          1           0        9.619978   -6.233087   -3.208854
    142          1           0        8.222177   -4.460500    3.543532
    143          1           0        6.698273   -2.294688    4.901381
    144          1           0        6.274794   -5.508505    4.031884
    145          1           0        5.487282   -4.450847    2.808273
    146          1           0        5.503355   -3.975705    4.429883
    147          1           0        8.642259   -3.525037    5.940104
    148          1           0        8.686564   -1.781475    6.121815
    149          1           0       10.215549   -3.636118    4.447116
    150          1           0       10.850390   -2.265764    5.428909
    151          1           0       10.071129   -1.996650    3.805750
    152          1           0        8.235361    3.820625    4.662030
    153          1           0        7.701380    2.230856    5.297385
    154          1           0        6.494952    3.298839    4.475065
    155          1           0        6.764038    4.562768   -0.488268
    156          1           0        8.983282    7.773546   -2.318206
    157          1           0        9.288102    6.354565   -3.508812
    158          1           0       10.276383    6.723238   -2.073677
 ---------------------------------------------------------------------
 Rotational constants (GHZ):           0.0202522           0.0059841           0.0055602
 Leave Link  202 at Sat Sep  4 14:50:43 2021, MaxMem= 23488102400 cpu:               0.2 elap:               0.0
 (Enter /sw/apps/gaussian-16.0/g16/l301.exe)
 Standard basis: def2SVP (5D, 7F)
 Ernie: Thresh=  0.10000D-02 Tol=  0.10000D-05 Strict=F.
 There are  1658 symmetry adapted cartesian basis functions of A   symmetry.
 There are  1572 symmetry adapted basis functions of A   symmetry.
  1572 basis functions,  2678 primitive gaussians,  1658 cartesian basis functions
   312 alpha electrons      312 beta electrons
       nuclear repulsion energy     13739.2876552953 Hartrees.
 IExCor=20419 DFT=T Ex+Corr=CAM-B3LYP ExCW=0 ScaHFX=  1.000000
 ScaDFX=  1.000000  1.000000  1.000000  0.810000 ScalE2=  1.000000  1.000000
 IRadAn=      5 IRanWt=     -1 IRanGd=            0 ICorTp=0 IEmpDi=  4
 HFx  wShort=  0.000000 wLong=  0.330000 cFull=  0.190000 cShort=  0.000000 cLong=  0.460000
 DFx  wShort=  0.000000 wLong=  0.330000 cFull=  0.190000 cShort=  0.000000 cLong=  0.460000
 NAtoms=  158 NActive=  158 NUniq=  158 SFac= 1.00D+00 NAtFMM=   60 NAOKFM=T Big=T
 Integral buffers will be    131072 words long.
 Raffenetti 1 integral format.
 Two-electron integral symmetry is turned on.
 Leave Link  301 at Sat Sep  4 14:50:43 2021, MaxMem= 23488102400 cpu:               1.4 elap:               0.1
 (Enter /sw/apps/gaussian-16.0/g16/l302.exe)
 NPDir=0 NMtPBC=     1 NCelOv=     1 NCel=       1 NClECP=     1 NCelD=      1
         NCelK=      1 NCelE2=     1 NClLst=     1 CellRange=     0.0.
 One-electron integrals computed using PRISM.
 One-electron integral symmetry used in STVInt
   1 Symmetry operations used in ECPInt.
 ECPInt:  NShTT=  271216 NPrTT=  987664 LenC2=  107315 LenP2D=  244255.
 LDataN:  DoStor=T MaxTD1= 4 Len=   56
 NBasis=  1572 RedAO= T EigKep=  3.36D-04  NBF=  1572
 NBsUse=  1572 1.00D-06 EigRej= -1.00D+00 NBFU=  1572
 Precomputing XC quadrature grid using
 IXCGrd= 4 IRadAn=           5 IRanWt=          -1 IRanGd=           0 AccXCQ= 0.00D+00.
 Generated NRdTot=       0 NPtTot=           0 NUsed=           0 NTot=          32
 NSgBfM=   857   831   841   850   857 MxSgAt=   158 MxSgA2=   148.
 Leave Link  302 at Sat Sep  4 14:50:48 2021, MaxMem= 23488102400 cpu:             112.4 elap:               4.7
 (Enter /sw/apps/gaussian-16.0/g16/l303.exe)
 DipDrv:  MaxL=1.
 Leave Link  303 at Sat Sep  4 14:50:49 2021, MaxMem= 23488102400 cpu:               8.6 elap:               0.4
 (Enter /sw/apps/gaussian-16.0/g16/l308.exe)
 Leave Link  308 at Sat Sep  4 14:50:49 2021, MaxMem= 23488102400 cpu:              13.8 elap:               0.7
 (Enter /sw/apps/gaussian-16.0/g16/l401.exe)
 ExpMin= 3.36D-02 ExpMax= 4.95D+03 ExpMxC= 7.45D+02 IAcc=3 IRadAn=         5 AccDes= 0.00D+00
 Harris functional with IExCor=20419 and IRadAn=       5 diagonalized for initial guess.
 HarFok:  IExCor=20419 AccDes= 0.00D+00 IRadAn=         5 IDoV= 1 UseB2=F ITyADJ=14
 ICtDFT=  3500011 ScaDFX=  1.000000  1.000000  1.000000  1.000000
 FoFCou: FMM=F IPFlag=           0 FMFlag=      100000 FMFlg1=        2001
         NFxFlg=           0 DoJE=T BraDBF=F KetDBF=T FulRan=T
         wScrn=  0.000000 ICntrl=       500 IOpCl=  0 I1Cent=   200000004 NGrid=           0
         NMat0=    1 NMatS0=      1 NMatT0=    0 NMatD0=    1 NMtDS0=    0 NMtDT0=    0
 Petite list used in FoFCou.
 Harris En= -3918.65801745575    
 JPrj=0 DoOrth=F DoCkMO=F.
 Leave Link  401 at Sat Sep  4 14:50:56 2021, MaxMem= 23488102400 cpu:             160.7 elap:               6.7
 (Enter /sw/apps/gaussian-16.0/g16/l502.exe)
 Integral symmetry usage will be decided dynamically.
 Closed shell SCF:
 Using DIIS extrapolation, IDIIS=  1040.
 NGot= 23488102400 LenX= 23482547354 LenY= 23479796732
 Requested convergence on RMS density matrix=1.00D-08 within 128 cycles.
 Requested convergence on MAX density matrix=1.00D-06.
 Requested convergence on             energy=1.00D-06.
 No special actions if energy rises.
 Fock matrices will be formed incrementally for  20 cycles.

 Cycle   1  Pass 1  IDiag  1:
 FoFJK:  IHMeth= 1 ICntrl=       0 DoSepK=T KAlg= 0 I1Cent=           0 FoldK=F
 IRaf=         1 NMat=       1 IRICut=       1 DoRegI=T DoRafI=F ISym2E= 0 IDoP0=0 IntGTp=1.
 FoFCou: FMM=T IPFlag=           0 FMFlag=      100000 FMFlg1=        2001
         NFxFlg=           0 DoJE=T BraDBF=F KetDBF=F FulRan=T
         wScrn=  0.000000 ICntrl=       500 IOpCl=  0 I1Cent=           0 NGrid=           0
         NMat0=    1 NMatS0=      1 NMatT0=    0 NMatD0=    1 NMtDS0=    0 NMtDT0=    0
 Symmetry not used in FoFCou.
 FMM levels:  10  Number of levels for PrismC:   9
 E= -4068.94894993390    
 DIIS: error= 2.04D-02 at cycle   1 NSaved=   1.
 NSaved= 1 IEnMin= 1 EnMin= -4068.94894993390     IErMin= 1 ErrMin= 2.04D-02
 ErrMax= 2.04D-02  0.00D+00 EMaxC= 1.00D-01 BMatC= 1.69D+00 BMatP= 1.69D+00
 IDIUse=3 WtCom= 7.96D-01 WtEn= 2.04D-01
 Coeff-Com:  0.100D+01
 Coeff-En:   0.100D+01
 Coeff:      0.100D+01
 Gap=     0.120 Goal=   None    Shift=    0.000
 GapD=    0.120 DampG=1.000 DampE=0.500 DampFc=0.5000 IDamp=-1.
 Damping current iteration by 5.00D-01
 RMSDP=1.57D-03 MaxDP=1.35D-01              OVMax= 2.05D-01

 Cycle   2  Pass 1  IDiag  1:
 RMSU=  7.70D-04    CP:  9.82D-01
 E= -4069.33777427223     Delta-E=       -0.388824338323 Rises=F Damp=T
 DIIS: error= 1.27D-02 at cycle   2 NSaved=   2.
 NSaved= 2 IEnMin= 2 EnMin= -4069.33777427223     IErMin= 2 ErrMin= 1.27D-02
 ErrMax= 1.27D-02  0.00D+00 EMaxC= 1.00D-01 BMatC= 3.07D-01 BMatP= 1.69D+00
 IDIUse=3 WtCom= 8.73D-01 WtEn= 1.27D-01
 Coeff-Com: -0.213D+00 0.121D+01
 Coeff-En:   0.000D+00 0.100D+01
 Coeff:     -0.186D+00 0.119D+01
 Gap=     0.136 Goal=   None    Shift=    0.000
 RMSDP=7.66D-04 MaxDP=9.43D-02 DE=-3.89D-01 OVMax= 1.90D-01

 Cycle   3  Pass 1  IDiag  1:
 RMSU=  7.33D-04    CP:  9.68D-01  1.24D+00
 E= -4069.62684387254     Delta-E=       -0.289069600316 Rises=F Damp=F
 DIIS: error= 1.57D-02 at cycle   3 NSaved=   3.
 NSaved= 3 IEnMin= 3 EnMin= -4069.62684387254     IErMin= 2 ErrMin= 1.27D-02
 ErrMax= 1.57D-02  0.00D+00 EMaxC= 1.00D-01 BMatC= 2.02D-01 BMatP= 3.07D-01
 IDIUse=3 WtCom= 8.43D-01 WtEn= 1.57D-01
 Coeff-Com: -0.267D+00 0.652D+00 0.615D+00
 Coeff-En:   0.000D+00 0.000D+00 0.100D+01
 Coeff:     -0.225D+00 0.549D+00 0.676D+00
 Gap=     0.123 Goal=   None    Shift=    0.000
 RMSDP=5.10D-04 MaxDP=4.89D-02 DE=-2.89D-01 OVMax= 1.46D-01

 Cycle   4  Pass 1  IDiag  1:
 RMSU=  2.66D-04    CP:  9.65D-01  1.55D+00  5.04D-01
 E= -4069.76442297695     Delta-E=       -0.137579104412 Rises=F Damp=F
 DIIS: error= 7.27D-03 at cycle   4 NSaved=   4.
 NSaved= 4 IEnMin= 4 EnMin= -4069.76442297695     IErMin= 4 ErrMin= 7.27D-03
 ErrMax= 7.27D-03  0.00D+00 EMaxC= 1.00D-01 BMatC= 5.07D-02 BMatP= 2.02D-01
 IDIUse=3 WtCom= 9.27D-01 WtEn= 7.27D-02
 Coeff-Com: -0.109D+00 0.226D+00 0.409D+00 0.474D+00
 Coeff-En:   0.000D+00 0.000D+00 0.222D+00 0.778D+00
 Coeff:     -0.101D+00 0.210D+00 0.395D+00 0.496D+00
 Gap=     0.122 Goal=   None    Shift=    0.000
 RMSDP=2.02D-04 MaxDP=2.04D-02 DE=-1.38D-01 OVMax= 6.42D-02

 Cycle   5  Pass 1  IDiag  1:
 RMSU=  7.67D-05    CP:  9.64D-01  1.49D+00  6.89D-01  5.47D-01
 E= -4069.81039656287     Delta-E=       -0.045973585919 Rises=F Damp=F
 DIIS: error= 7.72D-04 at cycle   5 NSaved=   5.
 NSaved= 5 IEnMin= 5 EnMin= -4069.81039656287     IErMin= 5 ErrMin= 7.72D-04
 ErrMax= 7.72D-04  0.00D+00 EMaxC= 1.00D-01 BMatC= 1.20D-03 BMatP= 5.07D-02
 IDIUse=3 WtCom= 9.92D-01 WtEn= 7.72D-03
 Coeff-Com: -0.363D-01 0.714D-01 0.167D+00 0.251D+00 0.547D+00
 Coeff-En:   0.000D+00 0.000D+00 0.000D+00 0.000D+00 0.100D+01
 Coeff:     -0.361D-01 0.708D-01 0.166D+00 0.249D+00 0.550D+00
 Gap=     0.122 Goal=   None    Shift=    0.000
 RMSDP=4.19D-05 MaxDP=4.18D-03 DE=-4.60D-02 OVMax= 1.76D-02

 Cycle   6  Pass 1  IDiag  1:
 RMSU=  3.08D-05    CP:  9.64D-01  1.49D+00  6.80D-01  6.21D-01  7.49D-01
 E= -4069.81145352505     Delta-E=       -0.001056962181 Rises=F Damp=F
 DIIS: error= 2.05D-04 at cycle   6 NSaved=   6.
 NSaved= 6 IEnMin= 6 EnMin= -4069.81145352505     IErMin= 6 ErrMin= 2.05D-04
 ErrMax= 2.05D-04  0.00D+00 EMaxC= 1.00D-01 BMatC= 1.83D-04 BMatP= 1.20D-03
 IDIUse=3 WtCom= 9.98D-01 WtEn= 2.05D-03
 Coeff-Com:  0.218D-02-0.654D-02 0.115D-01 0.407D-01 0.307D+00 0.646D+00
 Coeff-En:   0.000D+00 0.000D+00 0.000D+00 0.000D+00 0.109D+00 0.891D+00
 Coeff:      0.218D-02-0.653D-02 0.115D-01 0.406D-01 0.306D+00 0.646D+00
 Gap=     0.122 Goal=   None    Shift=    0.000
 RMSDP=1.64D-05 MaxDP=1.19D-03 DE=-1.06D-03 OVMax= 7.59D-03

 Cycle   7  Pass 1  IDiag  1:
 RMSU=  1.09D-05    CP:  9.64D-01  1.50D+00  6.86D-01  6.20D-01  8.54D-01
                    CP:  7.44D-01
 E= -4069.81165335057     Delta-E=       -0.000199825521 Rises=F Damp=F
 DIIS: error= 8.73D-05 at cycle   7 NSaved=   7.
 NSaved= 7 IEnMin= 7 EnMin= -4069.81165335057     IErMin= 7 ErrMin= 8.73D-05
 ErrMax= 8.73D-05  0.00D+00 EMaxC= 1.00D-01 BMatC= 2.23D-05 BMatP= 1.83D-04
 IDIUse=1 WtCom= 1.00D+00 WtEn= 0.00D+00
 Coeff-Com:  0.450D-02-0.986D-02-0.892D-02-0.352D-02 0.105D+00 0.333D+00
 Coeff-Com:  0.580D+00
 Coeff:      0.450D-02-0.986D-02-0.892D-02-0.352D-02 0.105D+00 0.333D+00
 Coeff:      0.580D+00
 Gap=     0.122 Goal=   None    Shift=    0.000
 RMSDP=6.60D-06 MaxDP=1.10D-03 DE=-2.00D-04 OVMax= 3.47D-03

 Cycle   8  Pass 1  IDiag  1:
 RMSU=  4.73D-06    CP:  9.64D-01  1.50D+00  6.87D-01  6.25D-01  8.57D-01
                    CP:  8.69D-01  8.18D-01
 E= -4069.81168097962     Delta-E=       -0.000027629041 Rises=F Damp=F
 DIIS: error= 5.10D-05 at cycle   8 NSaved=   8.
 NSaved= 8 IEnMin= 8 EnMin= -4069.81168097962     IErMin= 8 ErrMin= 5.10D-05
 ErrMax= 5.10D-05  0.00D+00 EMaxC= 1.00D-01 BMatC= 4.91D-06 BMatP= 2.23D-05
 IDIUse=1 WtCom= 1.00D+00 WtEn= 0.00D+00
 Coeff-Com:  0.218D-02-0.431D-02-0.779D-02-0.121D-01-0.107D-01 0.333D-01
 Coeff-Com:  0.336D+00 0.663D+00
 Coeff:      0.218D-02-0.431D-02-0.779D-02-0.121D-01-0.107D-01 0.333D-01
 Coeff:      0.336D+00 0.663D+00
 Gap=     0.122 Goal=   None    Shift=    0.000
 RMSDP=3.32D-06 MaxDP=3.72D-04 DE=-2.76D-05 OVMax= 1.07D-03

 Cycle   9  Pass 1  IDiag  1:
 RMSU=  1.93D-06    CP:  9.64D-01  1.50D+00  6.87D-01  6.26D-01  8.74D-01
                    CP:  8.95D-01  1.01D+00  9.51D-01
 E= -4069.81168884562     Delta-E=       -0.000007866001 Rises=F Damp=F
 DIIS: error= 1.98D-05 at cycle   9 NSaved=   9.
 NSaved= 9 IEnMin= 9 EnMin= -4069.81168884562     IErMin= 9 ErrMin= 1.98D-05
 ErrMax= 1.98D-05  0.00D+00 EMaxC= 1.00D-01 BMatC= 7.13D-07 BMatP= 4.91D-06
 IDIUse=1 WtCom= 1.00D+00 WtEn= 0.00D+00
 Coeff-Com:  0.469D-03-0.779D-03-0.269D-02-0.602D-02-0.209D-01-0.394D-01
 Coeff-Com:  0.101D+00 0.329D+00 0.639D+00
 Coeff:      0.469D-03-0.779D-03-0.269D-02-0.602D-02-0.209D-01-0.394D-01
 Coeff:      0.101D+00 0.329D+00 0.639D+00
 Gap=     0.122 Goal=   None    Shift=    0.000
 RMSDP=1.43D-06 MaxDP=1.49D-04 DE=-7.87D-06 OVMax= 7.43D-04

 Cycle  10  Pass 1  IDiag  1:
 RMSU=  9.48D-07    CP:  9.64D-01  1.50D+00  6.87D-01  6.27D-01  8.77D-01
                    CP:  9.08D-01  1.06D+00  1.12D+00  1.06D+00
 E= -4069.81169048221     Delta-E=       -0.000001636588 Rises=F Damp=F
 DIIS: error= 1.03D-05 at cycle  10 NSaved=  10.
 NSaved=10 IEnMin=10 EnMin= -4069.81169048221     IErMin=10 ErrMin= 1.03D-05
 ErrMax= 1.03D-05  0.00D+00 EMaxC= 1.00D-01 BMatC= 1.75D-07 BMatP= 7.13D-07
 IDIUse=1 WtCom= 1.00D+00 WtEn= 0.00D+00
 Coeff-Com: -0.428D-03 0.898D-03 0.123D-02 0.111D-02-0.371D-02-0.312D-01
 Coeff-Com: -0.453D-01-0.760D-01 0.249D+00 0.905D+00
 Coeff:     -0.428D-03 0.898D-03 0.123D-02 0.111D-02-0.371D-02-0.312D-01
 Coeff:     -0.453D-01-0.760D-01 0.249D+00 0.905D+00
 Gap=     0.122 Goal=   None    Shift=    0.000
 RMSDP=1.24D-06 MaxDP=1.25D-04 DE=-1.64D-06 OVMax= 6.22D-04

 Cycle  11  Pass 1  IDiag  1:
 RMSU=  5.26D-07    CP:  9.64D-01  1.50D+00  6.87D-01  6.27D-01  8.80D-01
                    CP:  9.18D-01  1.11D+00  1.23D+00  1.40D+00  1.37D+00
 E= -4069.81169129144     Delta-E=       -0.000000809232 Rises=F Damp=F
 DIIS: error= 4.09D-06 at cycle  11 NSaved=  11.
 NSaved=11 IEnMin=11 EnMin= -4069.81169129144     IErMin=11 ErrMin= 4.09D-06
 ErrMax= 4.09D-06  0.00D+00 EMaxC= 1.00D-01 BMatC= 6.51D-08 BMatP= 1.75D-07
 IDIUse=1 WtCom= 1.00D+00 WtEn= 0.00D+00
 Coeff-Com: -0.333D-03 0.647D-03 0.134D-02 0.213D-02 0.441D-02-0.856D-02
 Coeff-Com: -0.426D-01-0.133D+00-0.281D-01 0.475D+00 0.729D+00
 Coeff:     -0.333D-03 0.647D-03 0.134D-02 0.213D-02 0.441D-02-0.856D-02
 Coeff:     -0.426D-01-0.133D+00-0.281D-01 0.475D+00 0.729D+00
 Gap=     0.122 Goal=   None    Shift=    0.000
 RMSDP=6.99D-07 MaxDP=6.11D-05 DE=-8.09D-07 OVMax= 3.84D-04

 Cycle  12  Pass 1  IDiag  1:
 RMSU=  2.68D-07    CP:  9.64D-01  1.50D+00  6.87D-01  6.27D-01  8.81D-01
                    CP:  9.21D-01  1.13D+00  1.29D+00  1.56D+00  1.76D+00
                    CP:  1.19D+00
 E= -4069.81169156407     Delta-E=       -0.000000272630 Rises=F Damp=F
 DIIS: error= 2.44D-06 at cycle  12 NSaved=  12.
 NSaved=12 IEnMin=12 EnMin= -4069.81169156407     IErMin=12 ErrMin= 2.44D-06
 ErrMax= 2.44D-06  0.00D+00 EMaxC= 1.00D-01 BMatC= 1.58D-08 BMatP= 6.51D-08
 IDIUse=1 WtCom= 1.00D+00 WtEn= 0.00D+00
 Coeff-Com: -0.617D-05-0.474D-05 0.205D-03 0.549D-03 0.342D-02 0.388D-02
 Coeff-Com:  0.216D-02-0.366D-01-0.705D-01-0.634D-01 0.257D+00 0.903D+00
 Coeff:     -0.617D-05-0.474D-05 0.205D-03 0.549D-03 0.342D-02 0.388D-02
 Coeff:      0.216D-02-0.366D-01-0.705D-01-0.634D-01 0.257D+00 0.903D+00
 Gap=     0.122 Goal=   None    Shift=    0.000
 RMSDP=4.41D-07 MaxDP=3.16D-05 DE=-2.73D-07 OVMax= 2.52D-04

 Cycle  13  Pass 1  IDiag  1:
 RMSU=  1.68D-07    CP:  9.64D-01  1.50D+00  6.87D-01  6.27D-01  8.81D-01
                    CP:  9.21D-01  1.14D+00  1.32D+00  1.68D+00  1.99D+00
                    CP:  1.60D+00  1.25D+00
 E= -4069.81169165905     Delta-E=       -0.000000094984 Rises=F Damp=F
 DIIS: error= 1.28D-06 at cycle  13 NSaved=  13.
 NSaved=13 IEnMin=13 EnMin= -4069.81169165905     IErMin=13 ErrMin= 1.28D-06
 ErrMax= 1.28D-06  0.00D+00 EMaxC= 1.00D-01 BMatC= 8.58D-09 BMatP= 1.58D-08
 IDIUse=1 WtCom= 1.00D+00 WtEn= 0.00D+00
 Coeff-Com:  0.120D-03-0.246D-03-0.368D-03-0.452D-03 0.640D-03 0.506D-02
 Coeff-Com:  0.193D-01 0.229D-01-0.340D-01-0.240D+00-0.156D+00 0.591D+00
 Coeff-Com:  0.792D+00
 Coeff:      0.120D-03-0.246D-03-0.368D-03-0.452D-03 0.640D-03 0.506D-02
 Coeff:      0.193D-01 0.229D-01-0.340D-01-0.240D+00-0.156D+00 0.591D+00
 Coeff:      0.792D+00
 Gap=     0.122 Goal=   None    Shift=    0.000
 RMSDP=3.50D-07 MaxDP=2.38D-05 DE=-9.50D-08 OVMax= 2.08D-04

 Cycle  14  Pass 1  IDiag  1:
 RMSU=  7.76D-08    CP:  9.64D-01  1.50D+00  6.87D-01  6.27D-01  8.81D-01
                    CP:  9.22D-01  1.14D+00  1.35D+00  1.75D+00  2.18D+00
                    CP:  1.87D+00  1.77D+00  1.10D+00
 E= -4069.81169169718     Delta-E=       -0.000000038130 Rises=F Damp=F
 DIIS: error= 6.90D-07 at cycle  14 NSaved=  14.
 NSaved=14 IEnMin=14 EnMin= -4069.81169169718     IErMin=14 ErrMin= 6.90D-07
 ErrMax= 6.90D-07  0.00D+00 EMaxC= 1.00D-01 BMatC= 1.33D-09 BMatP= 8.58D-09
 IDIUse=1 WtCom= 1.00D+00 WtEn= 0.00D+00
 Coeff-Com:  0.676D-04-0.133D-03-0.250D-03-0.392D-03-0.467D-03 0.129D-02
 Coeff-Com:  0.106D-01 0.196D-01 0.393D-02-0.101D+00-0.144D+00 0.894D-01
 Coeff-Com:  0.408D+00 0.713D+00
 Coeff:      0.676D-04-0.133D-03-0.250D-03-0.392D-03-0.467D-03 0.129D-02
 Coeff:      0.106D-01 0.196D-01 0.393D-02-0.101D+00-0.144D+00 0.894D-01
 Coeff:      0.408D+00 0.713D+00
 Gap=     0.122 Goal=   None    Shift=    0.000
 RMSDP=1.06D-07 MaxDP=7.04D-06 DE=-3.81D-08 OVMax= 5.71D-05

 Cycle  15  Pass 1  IDiag  1:
 RMSU=  3.88D-08    CP:  9.64D-01  1.50D+00  6.87D-01  6.27D-01  8.81D-01
                    CP:  9.22D-01  1.14D+00  1.35D+00  1.77D+00  2.23D+00
                    CP:  1.97D+00  1.91D+00  1.34D+00  1.03D+00
 E= -4069.81169170152     Delta-E=       -0.000000004344 Rises=F Damp=F
 DIIS: error= 3.18D-07 at cycle  15 NSaved=  15.
 NSaved=15 IEnMin=15 EnMin= -4069.81169170152     IErMin=15 ErrMin= 3.18D-07
 ErrMax= 3.18D-07  0.00D+00 EMaxC= 1.00D-01 BMatC= 2.25D-10 BMatP= 1.33D-09
 IDIUse=1 WtCom= 1.00D+00 WtEn= 0.00D+00
 Coeff-Com:  0.574D-05-0.966D-05-0.340D-04-0.839D-04-0.298D-03-0.514D-03
 Coeff-Com:  0.115D-02 0.268D-02 0.876D-02 0.112D-02-0.305D-01-0.727D-01
 Coeff-Com:  0.327D-01 0.293D+00 0.765D+00
 Coeff:      0.574D-05-0.966D-05-0.340D-04-0.839D-04-0.298D-03-0.514D-03
 Coeff:      0.115D-02 0.268D-02 0.876D-02 0.112D-02-0.305D-01-0.727D-01
 Coeff:      0.327D-01 0.293D+00 0.765D+00
 Gap=     0.122 Goal=   None    Shift=    0.000
 RMSDP=3.99D-08 MaxDP=2.75D-06 DE=-4.34D-09 OVMax= 2.81D-05

 Cycle  16  Pass 1  IDiag  1:
 RMSU=  1.90D-08    CP:  9.64D-01  1.50D+00  6.87D-01  6.27D-01  8.81D-01
                    CP:  9.22D-01  1.14D+00  1.35D+00  1.77D+00  2.24D+00
                    CP:  2.00D+00  1.97D+00  1.41D+00  1.24D+00  1.14D+00
 E= -4069.81169170222     Delta-E=       -0.000000000695 Rises=F Damp=F
 DIIS: error= 1.83D-07 at cycle  16 NSaved=  16.
 NSaved=16 IEnMin=16 EnMin= -4069.81169170222     IErMin=16 ErrMin= 1.83D-07
 ErrMax= 1.83D-07  0.00D+00 EMaxC= 1.00D-01 BMatC= 8.70D-11 BMatP= 2.25D-10
 IDIUse=1 WtCom= 1.00D+00 WtEn= 0.00D+00
 Coeff-Com: -0.141D-04 0.287D-04 0.465D-04 0.524D-04-0.326D-04-0.635D-03
 Coeff-Com: -0.192D-02-0.422D-02 0.443D-02 0.253D-01 0.207D-01-0.646D-01
 Coeff-Com: -0.806D-01-0.404D-01 0.404D+00 0.738D+00
 Coeff:     -0.141D-04 0.287D-04 0.465D-04 0.524D-04-0.326D-04-0.635D-03
 Coeff:     -0.192D-02-0.422D-02 0.443D-02 0.253D-01 0.207D-01-0.646D-01
 Coeff:     -0.806D-01-0.404D-01 0.404D+00 0.738D+00
 Gap=     0.122 Goal=   None    Shift=    0.000
 RMSDP=2.34D-08 MaxDP=1.64D-06 DE=-6.95D-10 OVMax= 1.23D-05

 Cycle  17  Pass 1  IDiag  1:
 RMSU=  1.06D-08    CP:  9.64D-01  1.50D+00  6.87D-01  6.27D-01  8.81D-01
                    CP:  9.22D-01  1.14D+00  1.35D+00  1.78D+00  2.25D+00
                    CP:  2.01D+00  1.99D+00  1.46D+00  1.34D+00  1.44D+00
                    CP:  1.24D+00
 E= -4069.81169170247     Delta-E=       -0.000000000251 Rises=F Damp=F
 DIIS: error= 9.23D-08 at cycle  17 NSaved=  17.
 NSaved=17 IEnMin=17 EnMin= -4069.81169170247     IErMin=17 ErrMin= 9.23D-08
 ErrMax= 9.23D-08  0.00D+00 EMaxC= 1.00D-01 BMatC= 1.81D-11 BMatP= 8.70D-11
 IDIUse=1 WtCom= 1.00D+00 WtEn= 0.00D+00
 Coeff-Com: -0.734D-05 0.143D-04 0.289D-04 0.427D-04 0.819D-04-0.129D-03
 Coeff-Com: -0.942D-03-0.283D-02 0.105D-03 0.948D-02 0.176D-01-0.781D-02
 Coeff-Com: -0.359D-01-0.102D+00-0.229D-01 0.288D+00 0.857D+00
 Coeff:     -0.734D-05 0.143D-04 0.289D-04 0.427D-04 0.819D-04-0.129D-03
 Coeff:     -0.942D-03-0.283D-02 0.105D-03 0.948D-02 0.176D-01-0.781D-02
 Coeff:     -0.359D-01-0.102D+00-0.229D-01 0.288D+00 0.857D+00
 Gap=     0.122 Goal=   None    Shift=    0.000
 RMSDP=1.37D-08 MaxDP=1.09D-06 DE=-2.51D-10 OVMax= 9.61D-06

 Cycle  18  Pass 1  IDiag  1:
 RMSU=  5.16D-09    CP:  9.64D-01  1.50D+00  6.87D-01  6.27D-01  8.81D-01
                    CP:  9.22D-01  1.14D+00  1.35D+00  1.78D+00  2.25D+00
                    CP:  2.01D+00  2.00D+00  1.48D+00  1.40D+00  1.61D+00
                    CP:  1.64D+00  1.37D+00
 E= -4069.81169170280     Delta-E=       -0.000000000331 Rises=F Damp=F
 DIIS: error= 6.45D-08 at cycle  18 NSaved=  18.
 NSaved=18 IEnMin=18 EnMin= -4069.81169170280     IErMin=18 ErrMin= 6.45D-08
 ErrMax= 6.45D-08  0.00D+00 EMaxC= 1.00D-01 BMatC= 7.84D-12 BMatP= 1.81D-11
 IDIUse=1 WtCom= 1.00D+00 WtEn= 0.00D+00
 Coeff-Com:  0.145D-05-0.323D-05-0.232D-05 0.148D-05 0.629D-04 0.167D-03
 Coeff-Com:  0.313D-03 0.337D-04-0.125D-02-0.525D-02 0.992D-03 0.184D-01
 Coeff-Com:  0.152D-01-0.376D-01-0.156D+00-0.172D+00 0.398D+00 0.939D+00
 Coeff:      0.145D-05-0.323D-05-0.232D-05 0.148D-05 0.629D-04 0.167D-03
 Coeff:      0.313D-03 0.337D-04-0.125D-02-0.525D-02 0.992D-03 0.184D-01
 Coeff:      0.152D-01-0.376D-01-0.156D+00-0.172D+00 0.398D+00 0.939D+00
 Gap=     0.122 Goal=   None    Shift=    0.000
 RMSDP=1.14D-08 MaxDP=7.87D-07 DE=-3.31D-10 OVMax= 6.02D-06

 Cycle  19  Pass 1  IDiag  1:
 RMSU=  3.07D-09    CP:  9.64D-01  1.50D+00  6.87D-01  6.27D-01  8.81D-01
                    CP:  9.22D-01  1.14D+00  1.35D+00  1.78D+00  2.25D+00
                    CP:  2.02D+00  2.01D+00  1.49D+00  1.45D+00  1.75D+00
                    CP:  1.95D+00  1.90D+00  1.27D+00
 E= -4069.81169170284     Delta-E=       -0.000000000040 Rises=F Damp=F
 DIIS: error= 3.13D-08 at cycle  19 NSaved=  19.
 NSaved=19 IEnMin=19 EnMin= -4069.81169170284     IErMin=19 ErrMin= 3.13D-08
 ErrMax= 3.13D-08  0.00D+00 EMaxC= 1.00D-01 BMatC= 1.93D-12 BMatP= 7.84D-12
 IDIUse=1 WtCom= 1.00D+00 WtEn= 0.00D+00
 Coeff-Com:  0.302D-05-0.612D-05-0.101D-04-0.122D-04 0.164D-04 0.132D-03
 Coeff-Com:  0.490D-03 0.813D-03-0.669D-03-0.628D-02-0.478D-02 0.132D-01
 Coeff-Com:  0.212D-01 0.934D-02-0.799D-01-0.193D+00-0.404D-02 0.528D+00
 Coeff-Com:  0.716D+00
 Coeff:      0.302D-05-0.612D-05-0.101D-04-0.122D-04 0.164D-04 0.132D-03
 Coeff:      0.490D-03 0.813D-03-0.669D-03-0.628D-02-0.478D-02 0.132D-01
 Coeff:      0.212D-01 0.934D-02-0.799D-01-0.193D+00-0.404D-02 0.528D+00
 Coeff:      0.716D+00
 Gap=     0.122 Goal=   None    Shift=    0.000
 RMSDP=5.00D-09 MaxDP=3.70D-07 DE=-4.00D-11 OVMax= 3.66D-06

 SCF Done:  E(RCAM-B3LYP) =  -4069.81169170     A.U. after   19 cycles
            NFock= 19  Conv=0.50D-08     -V/T= 2.0102
 KE= 4.028801999686D+03 PE=-3.695950133972D+04 EE= 1.512159999304D+04
 Leave Link  502 at Sat Sep  4 14:59:24 2021, MaxMem= 23488102400 cpu:           11598.5 elap:             508.0
 (Enter /sw/apps/gaussian-16.0/g16/l801.exe)
 DoSCS=F DFT=T ScalE2(SS,OS)=  1.000000  1.000000
 ExpMin= 3.36D-02 ExpMax= 4.95D+03 ExpMxC= 7.45D+02 IAcc=3 IRadAn=         5 AccDes= 0.00D+00
 HarFok:  IExCor=  205 AccDes= 0.00D+00 IRadAn=         5 IDoV=-2 UseB2=F ITyADJ=14
 ICtDFT= 12500011 ScaDFX=  1.000000  1.000000  1.000000  1.000000
 GSVD:  LWork=       -9588 too small for GESVD, short by       45590 words or       45590 for optimal perf.
 Largest valence mixing into a core orbital is  2.03D-04
 Largest core mixing into a valence orbital is  5.24D-05
 Range of M.O.s used for correlation:    95  1572
 NBasis=  1572 NAE=   312 NBE=   312 NFC=    94 NFV=     0
 NROrb=   1478 NOA=   218 NOB=   218 NVA=  1260 NVB=  1260
 Leave Link  801 at Sat Sep  4 14:59:24 2021, MaxMem= 23488102400 cpu:               8.7 elap:               0.4
 (Enter /sw/apps/gaussian-16.0/g16/l914.exe)
 RHF ground state
 Two-electron integrals replicated using symmetry.
 MDV= 23488102400 DFT=T DoStab=F Mixed=T DoRPA=T DoScal=F NonHer=T
 Making orbital integer symmetry assigments:
 Orbital symmetries:
       Occupied  (A) (A) (A) (A) (A) (A) (A) (A) (A) (A) (A) (A)
                 (A) (A) (A) (A) (A) (A) (A) (A) (A) (A) (A) (A)
                 (A) (A) (A) (A) (A) (A) (A) (A) (A) (A) (A) (A)
                 (A) (A) (A) (A) (A) (A) (A) (A) (A) (A) (A) (A)
                 (A) (A) (A) (A) (A) (A) (A) (A) (A) (A) (A) (A)
                 (A) (A) (A) (A) (A) (A) (A) (A) (A) (A) (A) (A)
                 (A) (A) (A) (A) (A) (A) (A) (A) (A) (A) (A) (A)
                 (A) (A) (A) (A) (A) (A) (A) (A) (A) (A) (A) (A)
                 (A) (A) (A) (A) (A) (A) (A) (A) (A) (A) (A) (A)
                 (A) (A) (A) (A) (A) (A) (A) (A) (A) (A) (A) (A)
                 (A) (A) (A) (A) (A) (A) (A) (A) (A) (A) (A) (A)
                 (A) (A) (A) (A) (A) (A) (A) (A) (A) (A) (A) (A)
                 (A) (A) (A) (A) (A) (A) (A) (A) (A) (A) (A) (A)
                 (A) (A) (A) (A) (A) (A) (A) (A) (A) (A) (A) (A)
                 (A) (A) (A) (A) (A) (A) (A) (A) (A) (A) (A) (A)
                 (A) (A) (A) (A) (A) (A) (A) (A) (A) (A) (A) (A)
                 (A) (A) (A) (A) (A) (A) (A) (A) (A) (A) (A) (A)
                 (A) (A) (A) (A) (A) (A) (A) (A) (A) (A) (A) (A)
                 (A) (A) (A) (A) (A) (A) (A) (A) (A) (A) (A) (A)
                 (A) (A) (A) (A) (A) (A) (A) (A) (A) (A) (A) (A)
                 (A) (A) (A) (A) (A) (A) (A) (A) (A) (A) (A) (A)
                 (A) (A) (A) (A) (A) (A) (A) (A) (A) (A) (A) (A)
                 (A) (A) (A) (A) (A) (A) (A) (A) (A) (A) (A) (A)
                 (A) (A) (A) (A) (A) (A) (A) (A) (A) (A) (A) (A)
                 (A) (A) (A) (A) (A) (A) (A) (A) (A) (A) (A) (A)
                 (A) (A) (A) (A) (A) (A) (A) (A) (A) (A) (A) (A)
       Virtual   (A) (A) (A) (A) (A) (A) (A) (A) (A) (A) (A) (A)
                 (A) (A) (A) (A) (A) (A) (A) (A) (A) (A) (A) (A)
                 (A) (A) (A) (A) (A) (A) (A) (A) (A) (A) (A) (A)
                 (A) (A) (A) (A) (A) (A) (A) (A) (A) (A) (A) (A)
                 (A) (A) (A) (A) (A) (A) (A) (A) (A) (A) (A) (A)
                 (A) (A) (A) (A) (A) (A) (A) (A) (A) (A) (A) (A)
                 (A) (A) (A) (A) (A) (A) (A) (A) (A) (A) (A) (A)
                 (A) (A) (A) (A) (A) (A) (A) (A) (A) (A) (A) (A)
                 (A) (A) (A) (A) (A) (A) (A) (A) (A) (A) (A) (A)
                 (A) (A) (A) (A) (A) (A) (A) (A) (A) (A) (A) (A)
                 (A) (A) (A) (A) (A) (A) (A) (A) (A) (A) (A) (A)
                 (A) (A) (A) (A) (A) (A) (A) (A) (A) (A) (A) (A)
                 (A) (A) (A) (A) (A) (A) (A) (A) (A) (A) (A) (A)
                 (A) (A) (A) (A) (A) (A) (A) (A) (A) (A) (A) (A)
                 (A) (A) (A) (A) (A) (A) (A) (A) (A) (A) (A) (A)
                 (A) (A) (A) (A) (A) (A) (A) (A) (A) (A) (A) (A)
                 (A) (A) (A) (A) (A) (A) (A) (A) (A) (A) (A) (A)
                 (A) (A) (A) (A) (A) (A) (A) (A) (A) (A) (A) (A)
                 (A) (A) (A) (A) (A) (A) (A) (A) (A) (A) (A) (A)
                 (A) (A) (A) (A) (A) (A) (A) (A) (A) (A) (A) (A)
                 (A) (A) (A) (A) (A) (A) (A) (A) (A) (A) (A) (A)
                 (A) (A) (A) (A) (A) (A) (A) (A) (A) (A) (A) (A)
                 (A) (A) (A) (A) (A) (A) (A) (A) (A) (A) (A) (A)
                 (A) (A) (A) (A) (A) (A) (A) (A) (A) (A) (A) (A)
                 (A) (A) (A) (A) (A) (A) (A) (A) (A) (A) (A) (A)
                 (A) (A) (A) (A) (A) (A) (A) (A) (A) (A) (A) (A)
                 (A) (A) (A) (A) (A) (A) (A) (A) (A) (A) (A) (A)
                 (A) (A) (A) (A) (A) (A) (A) (A) (A) (A) (A) (A)
                 (A) (A) (A) (A) (A) (A) (A) (A) (A) (A) (A) (A)
                 (A) (A) (A) (A) (A) (A) (A) (A) (A) (A) (A) (A)
                 (A) (A) (A) (A) (A) (A) (A) (A) (A) (A) (A) (A)
                 (A) (A) (A) (A) (A) (A) (A) (A) (A) (A) (A) (A)
                 (A) (A) (A) (A) (A) (A) (A) (A) (A) (A) (A) (A)
                 (A) (A) (A) (A) (A) (A) (A) (A) (A) (A) (A) (A)
                 (A) (A) (A) (A) (A) (A) (A) (A) (A) (A) (A) (A)
                 (A) (A) (A) (A) (A) (A) (A) (A) (A) (A) (A) (A)
                 (A) (A) (A) (A) (A) (A) (A) (A) (A) (A) (A) (A)
                 (A) (A) (A) (A) (A) (A) (A) (A) (A) (A) (A) (A)
                 (A) (A) (A) (A) (A) (A) (A) (A) (A) (A) (A) (A)
                 (A) (A) (A) (A) (A) (A) (A) (A) (A) (A) (A) (A)
                 (A) (A) (A) (A) (A) (A) (A) (A) (A) (A) (A) (A)
                 (A) (A) (A) (A) (A) (A) (A) (A) (A) (A) (A) (A)
                 (A) (A) (A) (A) (A) (A) (A) (A) (A) (A) (A) (A)
                 (A) (A) (A) (A) (A) (A) (A) (A) (A) (A) (A) (A)
                 (A) (A) (A) (A) (A) (A) (A) (A) (A) (A) (A) (A)
                 (A) (A) (A) (A) (A) (A) (A) (A) (A) (A) (A) (A)
                 (A) (A) (A) (A) (A) (A) (A) (A) (A) (A) (A) (A)
                 (A) (A) (A) (A) (A) (A) (A) (A) (A) (A) (A) (A)
                 (A) (A) (A) (A) (A) (A) (A) (A) (A) (A) (A) (A)
                 (A) (A) (A) (A) (A) (A) (A) (A) (A) (A) (A) (A)
                 (A) (A) (A) (A) (A) (A) (A) (A) (A) (A) (A) (A)
                 (A) (A) (A) (A) (A) (A) (A) (A) (A) (A) (A) (A)
                 (A) (A) (A) (A) (A) (A) (A) (A) (A) (A) (A) (A)
                 (A) (A) (A) (A) (A) (A) (A) (A) (A) (A) (A) (A)
                 (A) (A) (A) (A) (A) (A) (A) (A) (A) (A) (A) (A)
                 (A) (A) (A) (A) (A) (A) (A) (A) (A) (A) (A) (A)
                 (A) (A) (A) (A) (A) (A) (A) (A) (A) (A) (A) (A)
                 (A) (A) (A) (A) (A) (A) (A) (A) (A) (A) (A) (A)
                 (A) (A) (A) (A) (A) (A) (A) (A) (A) (A) (A) (A)
                 (A) (A) (A) (A) (A) (A) (A) (A) (A) (A) (A) (A)
                 (A) (A) (A) (A) (A) (A) (A) (A) (A) (A) (A) (A)
                 (A) (A) (A) (A) (A) (A) (A) (A) (A) (A) (A) (A)
                 (A) (A) (A) (A) (A) (A) (A) (A) (A) (A) (A) (A)
                 (A) (A) (A) (A) (A) (A) (A) (A) (A) (A) (A) (A)
                 (A) (A) (A) (A) (A) (A) (A) (A) (A) (A) (A) (A)
                 (A) (A) (A) (A) (A) (A) (A) (A) (A) (A) (A) (A)
                 (A) (A) (A) (A) (A) (A) (A) (A) (A) (A) (A) (A)
                 (A) (A) (A) (A) (A) (A) (A) (A) (A) (A) (A) (A)
                 (A) (A) (A) (A) (A) (A) (A) (A) (A) (A) (A) (A)
                 (A) (A) (A) (A) (A) (A) (A) (A) (A) (A) (A) (A)
                 (A) (A) (A) (A) (A) (A) (A) (A) (A) (A) (A) (A)
                 (A) (A) (A) (A) (A) (A) (A) (A) (A) (A) (A) (A)
                 (A) (A) (A) (A) (A) (A) (A) (A) (A) (A) (A) (A)
                 (A) (A) (A) (A) (A) (A) (A) (A) (A) (A) (A) (A)
                 (A) (A) (A) (A) (A) (A) (A) (A) (A) (A) (A) (A)
                 (A) (A) (A) (A) (A) (A) (A) (A) (A) (A) (A) (A)
                 (A) (A) (A) (A) (A) (A) (A) (A) (A) (A) (A) (A)
                 (A) (A) (A) (A) (A) (A) (A) (A) (A) (A) (A) (A)
                 (A) (A) (A) (A) (A) (A) (A) (A) (A) (A) (A) (A)
                 (A) (A) (A) (A) (A) (A) (A) (A) (A) (A) (A) (A)
                 (A) (A) (A) (A) (A) (A) (A) (A) (A) (A) (A) (A)
                 (A) (A) (A) (A) (A) (A) (A) (A) (A) (A) (A) (A)
                 (A) (A) (A) (A) (A) (A) (A) (A) (A) (A) (A) (A)
                 (A) (A) (A) (A) (A) (A) (A) (A) (A) (A) (A) (A)
                 (A) (A) (A) (A) (A) (A) (A) (A) (A) (A) (A) (A)
                 (A) (A) (A) (A) (A) (A) (A) (A) (A) (A) (A) (A)
                 (A) (A) (A) (A) (A) (A) (A) (A) (A) (A) (A) (A)
                 (A) (A) (A) (A) (A) (A) (A) (A) (A) (A) (A) (A)
                 (A) (A) (A) (A) (A) (A) (A) (A) (A) (A) (A) (A)
                 (A) (A) (A) (A) (A) (A) (A) (A) (A) (A) (A) (A)
                 (A) (A) (A) (A) (A) (A) (A) (A) (A) (A) (A) (A)
                 (A) (A) (A) (A) (A) (A) (A) (A) (A) (A) (A) (A)
                 (A) (A) (A) (A) (A) (A) (A) (A) (A) (A) (A) (A)
                 (A) (A) (A) (A) (A) (A) (A) (A) (A) (A) (A) (A)
                 (A) (A) (A) (A) (A) (A) (A) (A) (A) (A) (A) (A)
                 (A) (A) (A) (A) (A) (A) (A) (A) (A) (A) (A) (A)
                 (A) (A) (A) (A) (A) (A) (A) (A) (A) (A) (A) (A)
                 (A) (A) (A) (A) (A) (A) (A) (A) (A) (A) (A) (A)
                 (A) (A) (A) (A) (A) (A) (A) (A) (A) (A) (A) (A)
                 (A) (A) (A) (A) (A) (A) (A) (A) (A) (A) (A) (A)
                 (A) (A) (A) (A) (A) (A) (A) (A) (A) (A) (A) (A)
                 (A) (A) (A) (A) (A) (A) (A) (A) (A) (A) (A) (A)
                 (A) (A) (A) (A) (A) (A) (A) (A) (A) (A) (A) (A)
                 (A) (A) (A) (A) (A) (A) (A) (A) (A) (A) (A) (A)
                 (A) (A) (A) (A) (A) (A) (A) (A) (A) (A) (A) (A)
    20 initial guesses have been made.
 Convergence on wavefunction:    0.001000000000000
 Davidson Disk Diagonalization:  ConvIn= 1.00D-03 SkipCon=T Conv= 1.00D-03.
 Max sub-space:  2000 roots to seek:    20 dimension of matrix:       549360
 Iteration     1 Dimension    20 NMult     0 NNew     20
 CISAX will form    20 AO SS matrices at one time.
 NMat=    20 NSing=    20 JSym2X= 0.
 FoFJK:  IHMeth= 1 ICntrl=       0 DoSepK=T KAlg= 0 I1Cent=           0 FoldK=F
 IRaf=         1 NMat=      40 IRICut=       1 DoRegI=T DoRafI=F ISym2E= 0 IDoP0=3 IntGTp=3.
 FoFCou: FMM=T IPFlag=           0 FMFlag=      100000 FMFlg1=        2001
         NFxFlg=           0 DoJE=F BraDBF=F KetDBF=F FulRan=T
         wScrn=  0.000000 ICntrl=       500 IOpCl=  0 I1Cent=           0 NGrid=           0
         NMat0=   20 NMatS0=     20 NMatT0=    0 NMatD0=   20 NMtDS0=    0 NMtDT0=    0
 Symmetry not used in FoFCou.
 FMM levels:  10  Number of levels for PrismC:   9
 New state      1 was old state      7
 New state      2 was old state      6
 New state      3 was old state      2
 New state      4 was old state      3
 New state      5 was old state      1
 Excitation Energies [eV] at current iteration:
 Root      1 :     2.613616641020121
 Root      2 :     2.619246431842535
 Root      3 :     2.669887131979347
 Root      4 :     2.700991254736988
 Root      5 :     2.765445114518376
 Root      6 :     2.824448100123292
 Root      7 :     3.556637310315708
 Root      8 :     3.625706088846294
 Root      9 :     3.626781540447810
 Root     10 :     3.667875107246604
 Root     11 :     3.737261583342284
 Root     12 :     3.760328860271116
 Root     13 :     4.293460764672731
 Root     14 :     4.315554310358651
 Root     15 :     4.673887743779336
 Root     16 :     4.757859100245722
 Root     17 :     4.976172418586075
 Root     18 :     5.011687845285192
 Root     19 :     5.050797080051361
 Root     20 :     5.084625867289452
 Iteration     2 Dimension    30 NMult    20 NNew     10
 CISAX will form    10 AO SS matrices at one time.
 NMat=    10 NSing=    10 JSym2X= 0.
 New state      1 was old state      3
 Root      1 not converged, maximum delta is    0.155420374694039
 New state      2 was old state      4
 Root      2 not converged, maximum delta is    0.158973486944009
 New state      3 was old state      2
 Root      3 not converged, maximum delta is    0.355816921924664
 New state      4 was old state      1
 Root      4 not converged, maximum delta is    0.350328751411266
 Root      5 has converged.
 Excitation Energies [eV] at current iteration:
 Root      1 :     1.796118446710895   Change is   -0.873768685268452
 Root      2 :     1.812106831283788   Change is   -0.888884423453200
 Root      3 :     2.235001623681923   Change is   -0.384244808160612
 Root      4 :     2.239513021226570   Change is   -0.374103619793551
 Root      5 :     2.765362604031621   Change is   -0.000082510486755
 Iteration     3 Dimension    38 NMult    30 NNew      8
 CISAX will form     8 AO SS matrices at one time.
 NMat=     8 NSing=     8 JSym2X= 0.
 Root      1 not converged, maximum delta is    0.055959228653628
 Root      2 not converged, maximum delta is    0.056876610686684
 Root      3 not converged, maximum delta is    0.087483263766444
 Root      4 not converged, maximum delta is    0.087080075197793
 Root      5 has converged.
 Excitation Energies [eV] at current iteration:
 Root      1 :     1.689193366207661   Change is   -0.106925080503235
 Root      2 :     1.703464249795349   Change is   -0.108642581488439
 Root      3 :     2.193850230663833   Change is   -0.041151393018090
 Root      4 :     2.200243270729848   Change is   -0.039269750496723
 Root      5 :     2.765362604031562   Change is   -0.000000000000060
 Iteration     4 Dimension    46 NMult    38 NNew      8
 CISAX will form     8 AO SS matrices at one time.
 NMat=     8 NSing=     8 JSym2X= 0.
 Root      1 not converged, maximum delta is    0.010810485668757
 Root      2 not converged, maximum delta is    0.010815606784111
 Root      3 not converged, maximum delta is    0.011702653057269
 Root      4 not converged, maximum delta is    0.011594452009036
 Root      5 has converged.
 Excitation Energies [eV] at current iteration:
 Root      1 :     1.672458071021492   Change is   -0.016735295186169
 Root      2 :     1.686607778567780   Change is   -0.016856471227569
 Root      3 :     2.186577367191385   Change is   -0.007272863472448
 Root      4 :     2.193420290423090   Change is   -0.006822980306758
 Root      5 :     2.765362604031680   Change is    0.000000000000119
 Iteration     5 Dimension    54 NMult    46 NNew      8
 CISAX will form     8 AO SS matrices at one time.
 NMat=     8 NSing=     8 JSym2X= 0.
 Root      1 not converged, maximum delta is    0.001781406498537
 Root      2 not converged, maximum delta is    0.001796800738807
 Root      3 not converged, maximum delta is    0.002447654320008
 Root      4 not converged, maximum delta is    0.002341601243311
 Root      5 has converged.
 Excitation Energies [eV] at current iteration:
 Root      1 :     1.670697434623930   Change is   -0.001760636397562
 Root      2 :     1.684818063736251   Change is   -0.001789714831529
 Root      3 :     2.185735505477830   Change is   -0.000841861713556
 Root      4 :     2.192638842887074   Change is   -0.000781447536016
 Root      5 :     2.765362604031651   Change is   -0.000000000000030
 Iteration     6 Dimension    62 NMult    54 NNew      8
 CISAX will form     8 AO SS matrices at one time.
 NMat=     8 NSing=     8 JSym2X= 0.
 Root      1 not converged, maximum delta is    0.001102716941163
 Root      2 not converged, maximum delta is    0.001121827779435
 Root      3 not converged, maximum delta is    0.001042714362100
 Root      4 has converged.
 Root      5 has converged.
 Excitation Energies [eV] at current iteration:
 Root      1 :     1.670446650445541   Change is   -0.000250784178389
 Root      2 :     1.684560991177061   Change is   -0.000257072559190
 Root      3 :     2.185607692858170   Change is   -0.000127812619659
 Root      4 :     2.192519936693385   Change is   -0.000118906193689
 Root      5 :     2.765362604031502   Change is   -0.000000000000148
 Iteration     7 Dimension    68 NMult    62 NNew      6
 CISAX will form     6 AO SS matrices at one time.
 NMat=     6 NSing=     6 JSym2X= 0.
 Root      1 has converged.
 Root      2 has converged.
 Root      3 has converged.
 Root      4 has converged.
 Root      5 has converged.
 Excitation Energies [eV] at current iteration:
 Root      1 :     1.670422231274557   Change is   -0.000024419170984
 Root      2 :     1.684536512770211   Change is   -0.000024478406850
[...]
 Alpha virt. eigenvalues --    1.83532   1.83761   1.83912   1.84023   1.84215
 Alpha virt. eigenvalues --    1.84454   1.84546   1.84805   1.84808   1.85108
 Alpha virt. eigenvalues --    1.85140   1.85275   1.85356   1.85467   1.85506
 Alpha virt. eigenvalues --    1.85869   1.85921   1.86360   1.86401   1.86553
 Alpha virt. eigenvalues --    1.86668   1.86787   1.86844   1.87050   1.87060
 Alpha virt. eigenvalues --    1.87448   1.87500   1.87687   1.87786   1.87869
 Alpha virt. eigenvalues --    1.88034   1.88041   1.88194   1.88534   1.88588
 Alpha virt. eigenvalues --    1.88824   1.88955   1.89093   1.89130   1.89621
 Alpha virt. eigenvalues --    1.89675   1.89741   1.89894   1.90120   1.90206
 Alpha virt. eigenvalues --    1.90758   1.90913   1.91353   1.91446   1.91447
 Alpha virt. eigenvalues --    1.91605   1.92157   1.92200   1.92628   1.92671
 Alpha virt. eigenvalues --    1.92984   1.93170   1.93339   1.93524   1.94286
 Alpha virt. eigenvalues --    1.94326   1.94687   1.94834   1.95478   1.95615
 Alpha virt. eigenvalues --    1.95732   1.95827   1.96000   1.96064   1.96154
 Alpha virt. eigenvalues --    1.96189   1.96500   1.96599   1.96897   1.96950
 Alpha virt. eigenvalues --    1.97454   1.97557   1.97819   1.97840   1.98173
 Alpha virt. eigenvalues --    1.98183   1.98362   1.98691   1.99090   1.99141
 Alpha virt. eigenvalues --    1.99825   1.99941   2.00661   2.00745   2.01001
 Alpha virt. eigenvalues --    2.01112   2.01485   2.01528   2.01616   2.01676
 Alpha virt. eigenvalues --    2.01725   2.01835   2.02725   2.02787   2.03160
 Alpha virt. eigenvalues --    2.03239   2.03392   2.03409   2.03490   2.03537
 Alpha virt. eigenvalues --    2.04040   2.04041   2.04956   2.04994   2.05512
 Alpha virt. eigenvalues --    2.05645   2.06078   2.06300   2.06913   2.07045
 Alpha virt. eigenvalues --    2.07190   2.07370   2.08566   2.08578   2.08980
 Alpha virt. eigenvalues --    2.09018   2.09591   2.09625   2.10779   2.11054
 Alpha virt. eigenvalues --    2.11185   2.11424   2.11538   2.11541   2.11725
 Alpha virt. eigenvalues --    2.11877   2.12467   2.12474   2.12802   2.12817
 Alpha virt. eigenvalues --    2.12837   2.12886   2.13636   2.13768   2.14140
 Alpha virt. eigenvalues --    2.14275   2.15335   2.15421   2.15930   2.16098
 Alpha virt. eigenvalues --    2.16522   2.16608   2.16758   2.17197   2.17419
 Alpha virt. eigenvalues --    2.17668   2.17706   2.17948   2.18022   2.18074
 Alpha virt. eigenvalues --    2.18330   2.18682   2.18873   2.19245   2.19643
 Alpha virt. eigenvalues --    2.19830   2.20036   2.20218   2.20259   2.20446
 Alpha virt. eigenvalues --    2.21150   2.21191   2.21669   2.21752   2.21780
 Alpha virt. eigenvalues --    2.21889   2.22679   2.22714   2.23317   2.23362
 Alpha virt. eigenvalues --    2.24392   2.24436   2.24957   2.25018   2.26302
 Alpha virt. eigenvalues --    2.26453   2.26779   2.27021   2.27106   2.27216
 Alpha virt. eigenvalues --    2.28137   2.28323   2.29266   2.29451   2.29735
 Alpha virt. eigenvalues --    2.29892   2.30455   2.30628   2.30825   2.31085
 Alpha virt. eigenvalues --    2.31194   2.31217   2.32117   2.32255   2.33134
 Alpha virt. eigenvalues --    2.33242   2.33463   2.33496   2.34141   2.34152
 Alpha virt. eigenvalues --    2.35307   2.35381   2.35794   2.35917   2.36344
 Alpha virt. eigenvalues --    2.36351   2.36464   2.36620   2.37660   2.37695
 Alpha virt. eigenvalues --    2.38249   2.38391   2.38781   2.38855   2.39608
 Alpha virt. eigenvalues --    2.39678   2.40182   2.40279   2.40484   2.40830
 Alpha virt. eigenvalues --    2.41212   2.41269   2.41684   2.41703   2.42046
 Alpha virt. eigenvalues --    2.42137   2.42833   2.42939   2.43061   2.43555
 Alpha virt. eigenvalues --    2.43980   2.44172   2.44727   2.44813   2.44903
 Alpha virt. eigenvalues --    2.44999   2.45546   2.45582   2.46290   2.46292
 Alpha virt. eigenvalues --    2.46477   2.46508   2.46798   2.46808   2.47257
 Alpha virt. eigenvalues --    2.47391   2.47711   2.47895   2.49304   2.49401
 Alpha virt. eigenvalues --    2.49901   2.50063   2.50458   2.50542   2.51120
 Alpha virt. eigenvalues --    2.51271   2.51613   2.51882   2.52387   2.52438
 Alpha virt. eigenvalues --    2.52806   2.53164   2.53914   2.53973   2.54137
 Alpha virt. eigenvalues --    2.54286   2.54788   2.54817   2.55513   2.55673
 Alpha virt. eigenvalues --    2.57856   2.58080   2.58641   2.58906   2.60208
 Alpha virt. eigenvalues --    2.60298   2.60608   2.60917   2.61703   2.61822
 Alpha virt. eigenvalues --    2.62427   2.62529   2.62954   2.63128   2.63930
 Alpha virt. eigenvalues --    2.64215   2.64243   2.64430   2.65077   2.65098
 Alpha virt. eigenvalues --    2.65781   2.65851   2.66773   2.66820   2.66904
 Alpha virt. eigenvalues --    2.67053   2.67905   2.67979   2.68814   2.68852
 Alpha virt. eigenvalues --    2.69023   2.69024   2.69386   2.69588   2.69995
 Alpha virt. eigenvalues --    2.70136   2.70980   2.71059   2.71885   2.72055
 Alpha virt. eigenvalues --    2.72485   2.72654   2.72725   2.72843   2.73271
 Alpha virt. eigenvalues --    2.73284   2.73455   2.73546   2.74505   2.74510
 Alpha virt. eigenvalues --    2.74973   2.75049   2.76517   2.76587   2.77064
 Alpha virt. eigenvalues --    2.77232   2.77447   2.77594   2.78176   2.78284
 Alpha virt. eigenvalues --    2.78683   2.78730   2.79130   2.79143   2.80249
 Alpha virt. eigenvalues --    2.80336   2.80590   2.80675   2.81116   2.81146
 Alpha virt. eigenvalues --    2.81930   2.81980   2.82329   2.82338   2.83745
 Alpha virt. eigenvalues --    2.83763   2.83835   2.83897   2.84523   2.84541
 Alpha virt. eigenvalues --    2.84878   2.84881   2.85657   2.85678   2.86646
 Alpha virt. eigenvalues --    2.86997   2.87154   2.87619   2.88141   2.88223
 Alpha virt. eigenvalues --    2.88508   2.88612   2.88864   2.88930   2.90494
 Alpha virt. eigenvalues --    2.90642   2.91059   2.91185   2.93150   2.93307
 Alpha virt. eigenvalues --    2.93757   2.94194   2.94547   2.94560   2.95363
 Alpha virt. eigenvalues --    2.95447   2.95814   2.96214   2.96357   2.96440
 Alpha virt. eigenvalues --    2.96850   2.97186   2.97817   2.98013   2.98196
 Alpha virt. eigenvalues --    2.98334   2.98366   2.98558   2.98602   2.98781
 Alpha virt. eigenvalues --    2.98876   2.98915   2.99575   2.99782   2.99996
 Alpha virt. eigenvalues --    3.00031   3.00219   3.00317   3.00460   3.00973
 Alpha virt. eigenvalues --    3.01888   3.01987   3.02023   3.02093   3.02741
 Alpha virt. eigenvalues --    3.02796   3.02979   3.03294   3.03315   3.03690
 Alpha virt. eigenvalues --    3.04035   3.04167   3.04412   3.04451   3.04544
 Alpha virt. eigenvalues --    3.04729   3.05290   3.05336   3.06107   3.06149
 Alpha virt. eigenvalues --    3.06800   3.06919   3.07902   3.08133   3.09343
 Alpha virt. eigenvalues --    3.09395   3.09687   3.10398   3.10437   3.10718
 Alpha virt. eigenvalues --    3.11327   3.11469   3.11887   3.11942   3.12173
 Alpha virt. eigenvalues --    3.12279   3.13278   3.13626   3.13633   3.13675
 Alpha virt. eigenvalues --    3.14106   3.14450   3.15916   3.15974   3.17263
 Alpha virt. eigenvalues --    3.17509   3.17861   3.18066   3.19018   3.19119
 Alpha virt. eigenvalues --    3.22320   3.22576   3.23945   3.24427   3.24682
 Alpha virt. eigenvalues --    3.25181   3.26503   3.26645   3.27381   3.27620
 Alpha virt. eigenvalues --    3.29117   3.29199   3.31365   3.31523   3.33172
 Alpha virt. eigenvalues --    3.33415   3.40232   3.40653   3.42800   3.42806
 Alpha virt. eigenvalues --    3.48663   3.48687   3.50019   3.50268   3.50822
 Alpha virt. eigenvalues --    3.51471   3.56547   3.56992   3.59097   3.59329
 Alpha virt. eigenvalues --    3.62504   3.62839   3.66095   3.66174   3.67205
 Alpha virt. eigenvalues --    3.67518   3.73288   3.74002   3.76071   3.76664
          Condensed to atoms (all electrons):
 Mulliken charges:
               1
     1  Mg   0.838518
     2  C   -0.002950
     3  C   -0.094249
     4  C   -0.045870
     5  C   -0.063948
     6  N   -0.256740
     7  C   -0.052454
     8  C   -0.013983
     9  C   -0.086967
    10  C    0.046237
    11  C    0.104811
    12  C    0.053523
    13  C   -0.071828
    14  H    0.036282
    15  N   -0.433091
    16  C    0.168316
    17  C   -0.177305
    18  C   -0.004117
    19  C    0.148641
    20  C    0.110211
    21  C    0.012158
    22  O   -0.249590
    23  C    0.062569
    24  N   -0.341127
    25  C    0.041194
    26  C   -0.028150
    27  C   -0.024026
    28  C    0.074898
    29  C    0.076139
    30  C    0.035114
    31  C   -0.004500
    32  N   -0.310508
    33  C    0.080483
    34  C   -0.169632
    35  C    0.008463
    36  C    0.083023
    37  C    0.127288
    38  C    0.046230
    39  O   -0.188089
    40  C   -0.005372
    41  C    0.212955
    42  O   -0.257050
    43  O   -0.304837
    44  C    0.157548
    45  H   -0.017658
    46  H   -0.016843
    47  H   -0.041397
    48  H    0.001080
    49  H   -0.004164
    50  H    0.025563
    51  H    0.016453
    52  H    0.016660
    53  H    0.010899
    54  H    0.044208
    55  H    0.018011
    56  H    0.017722
    57  H    0.005836
    58  H    0.026836
    59  H    0.039083
    60  H    0.037403
    61  H    0.035532
    62  H    0.031074
    63  H    0.016541
    64  H    0.009551
    65  H    0.023246
    66  H    0.012550
    67  H    0.004822
    68  H    0.006455
    69  H    0.004784
    70  H    0.008795
    71  H    0.018131
    72  H    0.028903
    73  H    0.047742
    74  H    0.009131
    75  H    0.046123
    76  H    0.035234
    77  H    0.043195
    78  H    0.046299
    79  H    0.053982
    80  Mg   0.837927
    81  C   -0.016788
    82  C   -0.087856
    83  C   -0.045417
    84  C   -0.064571
    85  N   -0.254532
    86  C   -0.049703
    87  C   -0.015099
    88  C   -0.090554
    89  C    0.045806
    90  C    0.114398
    91  C    0.062561
    92  C   -0.077720
    93  H    0.034679
    94  N   -0.423455
    95  C    0.162886
    96  C   -0.174726
    97  C   -0.007861
    98  C    0.152037
    99  C    0.099421
   100  C    0.015514
   101  O   -0.253243
   102  C    0.061236
   103  N   -0.349967
   104  C    0.037533
   105  C   -0.019875
   106  C   -0.034846
   107  C    0.088949
   108  C    0.073601
   109  C    0.034700
   110  C   -0.007643
   111  N   -0.324187
   112  C    0.078515
   113  C   -0.162835
   114  C    0.002431
   115  C    0.096232
   116  C    0.131422
   117  C    0.042640
   118  O   -0.187695
   119  C    0.000796
   120  C    0.211219
   121  O   -0.251145
   122  O   -0.305570
   123  C    0.152093
   124  H   -0.019965
   125  H   -0.015627
   126  H   -0.040240
   127  H   -0.000636
   128  H   -0.004679
   129  H    0.022902
   130  H    0.014684
   131  H    0.015711
   132  H    0.013850
   133  H    0.037682
   134  H    0.020665
   135  H    0.019383
   136  H    0.008505
   137  H    0.026015
   138  H    0.039565
   139  H    0.038193
   140  H    0.036266
   141  H    0.033764
   142  H    0.014246
   143  H    0.012756
   144  H    0.024938
   145  H    0.011832
   146  H    0.005896
   147  H    0.006190
   148  H    0.003756
   149  H    0.010834
   150  H    0.017840
   151  H    0.030079
   152  H    0.045908
   153  H    0.008496
   154  H    0.047816
   155  H    0.035400
   156  H    0.043862
   157  H    0.049295
   158  H    0.053512
 Sum of Mulliken charges =  -0.00000
 Mulliken charges with hydrogens summed into heavy atoms:
               1
     1  Mg   0.838518
     2  C   -0.002950
     3  C   -0.111907
     4  C   -0.062714
     5  C   -0.105345
     6  N   -0.256740
     7  C   -0.052454
     8  C   -0.012903
     9  C   -0.091132
    10  C    0.046237
    11  C    0.163487
    12  C    0.108630
    13  C    0.000188
    15  N   -0.433091
    16  C    0.168316
    17  C   -0.177305
    18  C   -0.004117
    19  C    0.148641
    20  C    0.181966
    21  C    0.012158
    22  O   -0.249590
    23  C    0.166577
    24  N   -0.341127
    25  C    0.041194
    26  C   -0.011609
    27  C   -0.014475
    28  C    0.074898
    29  C    0.116757
    30  C    0.046352
    31  C    0.051330
    32  N   -0.310508
    33  C    0.080483
    34  C   -0.169632
    35  C    0.008463
    36  C    0.083023
    37  C    0.230284
    38  C    0.046230
    39  O   -0.188089
    40  C    0.029862
    41  C    0.212955
    42  O   -0.257050
    43  O   -0.304837
    44  C    0.301024
    80  Mg   0.837927
    81  C   -0.016788
    82  C   -0.107821
    83  C   -0.061044
    84  C   -0.104811
    85  N   -0.254532
    86  C   -0.049703
    87  C   -0.015735
    88  C   -0.095233
    89  C    0.045806
    90  C    0.167695
    91  C    0.114092
    92  C   -0.002992
    94  N   -0.423455
    95  C    0.162886
    96  C   -0.174726
    97  C   -0.007861
    98  C    0.152037
    99  C    0.173506
   100  C    0.015514
   101  O   -0.253243
   102  C    0.169459
   103  N   -0.349967
   104  C    0.037533
   105  C   -0.005629
   106  C   -0.022091
   107  C    0.088949
   108  C    0.116267
   109  C    0.044646
   110  C    0.051110
   111  N   -0.324187
   112  C    0.078515
   113  C   -0.162835
   114  C    0.002431
   115  C    0.096232
   116  C    0.233642
   117  C    0.042640
   118  O   -0.187695
   119  C    0.036196
   120  C    0.211219
   121  O   -0.251145
   122  O   -0.305570
   123  C    0.298762
 Electronic spatial extent (au):  <R**2>=         192753.4692
 Charge=             -0.0000 electrons
 Dipole moment (field-independent basis, Debye):
    X=             -3.8922    Y=             -2.2780    Z=             -7.5463  Tot=              8.7912
 Quadrupole moment (field-independent basis, Debye-Ang):
   XX=           -517.7148   YY=           -546.6525   ZZ=           -452.3291
   XY=            -17.4476   XZ=              3.3355   YZ=            -43.7934
 Traceless Quadrupole moment (field-independent basis, Debye-Ang):
   XX=            -12.1493   YY=            -41.0870   ZZ=             53.2363
   XY=            -17.4476   XZ=              3.3355   YZ=            -43.7934
 Octapole moment (field-independent basis, Debye-Ang**2):
  XXX=           -742.6308  YYY=            359.9016  ZZZ=           -107.2778  XYY=           -150.9695
  XXY=           -146.1025  XXZ=           -477.2810  XZZ=            156.7896  YZZ=           -168.1173
  YYZ=           -182.1327  XYZ=            174.4593
 Hexadecapole moment (field-independent basis, Debye-Ang**3):
 XXXX=        -199473.6346 YYYY=         -41846.0333 ZZZZ=         -24687.4598 XXXY=          -1851.6571
 XXXZ=            -93.4592 YYYX=           -232.7148 YYYZ=          -1179.1302 ZZZX=           1174.6435
 ZZZY=            -39.7524 XXYY=         -41932.4692 XXZZ=         -33328.8672 YYZZ=         -10966.8997
 XXYZ=          -2863.3822 YYXZ=          -1562.5917 ZZXY=            532.1982
 N-N= 1.373928765530D+04 E-N=-3.695950133146D+04  KE= 4.028801999686D+03
 Leave Link  601 at Sat Sep  4 15:18:42 2021, MaxMem= 23488102400 cpu:              15.2 elap:               0.7
 (Enter /sw/apps/gaussian-16.0/g16/l9999.exe)
 1\1\GINC-BP1-COMPUTE00098\SP\RCAM-B3LYP TD-FC\def2SVP\C68H72Mg2N8O8\OF
 15641\04-Sep-2021\0\\#p cam-b3lyp/Def2SVP td=(nstates=5)\\TDDFT excite
 d states in gaussian\\0,1\Mg,0,0.,0.,0.\C,0,-0.217,-2.218,2.801\C,0,-1
 .255,2.442,2.026\C,0,-0.245,1.85,-2.564\C,0,0.146,-2.824,-2.037\N,0,-0
 .617,-0.009,2.126\C,0,-0.594,-0.908,3.105\C,0,-0.936,-0.309,4.502\C,0,
 -1.773,0.964,4.032\C,0,-1.155,1.168,2.66\C,0,-3.263,0.685,3.863\C,0,0.
 345,0.11,5.299\C,0,0.124,0.397,6.787\H,0,1.168,0.033,7.733\N,0,-0.185,
 1.961,-0.152\C,0,-0.703,2.8,0.777\C,0,-0.62,4.156,0.193\C,0,-0.187,4.0
 15,-1.225\C,0,-0.214,2.583,-1.38\C,0,-0.887,5.406,0.974\C,0,0.181,5.01
 3,-2.277\O,0,0.303,4.69,-3.508\C,0,0.31,6.414,-1.837\N,0,-0.265,-0.413
 ,-2.029\C,0,-0.279,0.569,-2.937\C,0,-0.196,0.024,-4.332\C,0,0.124,-1.5
 33,-4.18\C,0,0.086,-1.632,-2.635\C,0,-1.451,0.205,-5.197\C,0,1.373,-2.
 07,-4.923\C,0,2.626,-1.49,-4.306\N,0,0.15,-2.144,0.303\C,0,0.173,-3.13
 6,-0.688\C,0,0.173,-4.438,0.004\C,0,0.133,-4.111,1.358\C,0,0.083,-2.69
 5,1.502\C,0,0.149,-5.715,-0.623\C,0,0.096,-4.629,2.716\O,0,0.208,-5.74
 7,3.221\C,0,-0.255,-3.428,3.701\C,0,0.717,-3.482,4.848\O,0,1.931,-3.25
 5,4.669\O,0,0.038,-3.556,6.003\C,0,0.943,-3.583,7.183\H,0,-1.859,3.22,
 2.497\H,0,-0.218,2.453,-3.474\H,0,0.276,-3.747,-2.605\H,0,-1.554,-0.94
 9,5.132\H,0,-1.585,1.831,4.665\H,0,-3.484,-0.377,3.969\H,0,-3.511,1.02
 7,2.858\H,0,-3.852,1.301,4.543\H,0,0.669,1.096,4.966\H,0,1.13,-0.639,5
 .189\H,0,-0.844,0.026,7.125\H,0,0.062,1.477,6.921\H,0,-1.344,5.186,1.9
 38\H,0,-1.651,5.963,0.432\H,0,0.007,6.02,1.084\H,0,-0.635,6.744,-1.405
 \H,0,0.665,6.97,-2.704\H,0,1.048,6.466,-1.036\H,0,0.608,0.501,-4.891\H
 ,0,-0.692,-2.156,-4.547\H,0,-1.267,0.74,-6.129\H,0,-2.204,0.714,-4.596
 \H,0,-1.967,-0.72,-5.453\H,0,1.356,-1.759,-5.967\H,0,1.452,-3.157,-4.9
 02\H,0,2.714,-0.522,-4.798\H,0,3.487,-2.121,-4.529\H,0,2.495,-1.303,-3
 .24\H,0,0.867,-6.333,-0.084\H,0,0.404,-5.642,-1.68\H,0,-0.891,-5.999,-
 0.463\H,0,-1.283,-3.581,4.028\H,0,0.698,-4.478,7.755\H,0,0.833,-2.619,
 7.68\H,0,2.,-3.754,6.976\Mg,0,15.77259,1.42665,1.20213\C,0,15.3733,0.6
 2403,4.6771\C,0,14.55474,4.52801,1.93221\C,0,15.68711,2.01785,-1.91405
 \C,0,15.86029,-1.99837,0.56402\N,0,15.08754,2.33892,3.09706\C,0,15.039
 47,1.95837,4.36482\C,0,14.6867,3.09277,5.36394\C,0,13.91045,4.07028,4.
 35359\C,0,14.57882,3.65094,3.04588\C,0,12.42448,3.77004,4.24823\C,0,15
 .96365,3.78117,5.96186\C,0,15.70192,4.68306,7.17009\H,0,16.70572,4.736
 3,8.22935\N,0,15.67539,3.15087,0.22427\C,0,15.17057,4.31691,0.679\C,0,
 15.31391,5.27601,-0.42722\C,0,15.79348,4.539,-1.62787\C,0,15.71567,3.1
 7391,-1.14772\C,0,15.0823,6.74989,-0.26148\C,0,16.23526,4.98758,-2.987
 95\O,0,16.38417,4.15934,-3.95473\C,0,16.39813,6.43609,-3.17972\N,0,15.
 56123,0.19712,-0.46098\C,0,15.61048,0.70331,-1.70567\C,0,15.71282,-0.3
 9464,-2.73739\C,0,15.96678,-1.73941,-1.90993\C,0,15.87434,-1.17503,-0.
 47525\C,0,14.49238,-0.57543,-3.63974\C,0,17.21641,-2.57756,-2.29541\C,
 0,18.47555,-1.82034,-1.93962\N,0,15.82898,-0.37615,2.39158\C,0,15.8358
 6,-1.70793,1.92211\C,0,15.76042,-2.5875,3.10663\C,0,15.69111,-1.69913,
 4.19037\C,0,15.70087,-0.36043,3.71363\C,0,15.71379,-4.00999,3.08488\C,
 0,15.6012,-1.58949,5.62863\O,0,15.64408,-2.38648,6.56496\C,0,15.26389,
 -0.08138,6.00037\C,0,16.19609,0.34536,7.10101\O,0,17.41955,0.43144,6.8
 9518\O,0,15.47185,0.78835,8.14485\C,0,16.35235,1.2333,9.25776\H,0,13.9
 7422,5.44782,2.00866\H,0,15.76786,2.16558,-2.99347\H,0,15.98147,-3.078
 23,0.45494\H,0,14.03009,2.79721,6.17344\H,0,14.12217,5.11363,4.57256\H
 ,0,12.15637,2.87044,4.78206\H,0,12.22132,3.65755,3.19129\H,0,11.84095,
 4.63478,4.57693\H,0,16.3359,4.52702,5.24779\H,0,16.70895,3.05094,6.210
 72\H,0,14.70326,4.52383,7.59467\H,0,15.68648,5.7217,6.83096\H,0,14.579
 15,6.97382,0.68726\H,0,14.36005,7.04837,-1.02903\H,0,15.9948,7.33648,-
 0.38765\H,0,15.4561,6.93651,-2.9685\H,0,16.80414,6.55378,-4.18629\H,0,
 17.12281,6.80681,-2.44621\H,0,16.55287,-0.22571,-3.39987\H,0,15.13489,
 -2.45017,-2.02223\H,0,14.72978,-0.49115,-4.71706\H,0,13.74699,0.15572,
 -3.35628\H,0,13.95658,-1.5141,-3.50928\H,0,17.24589,-2.73853,-3.37586\
 H,0,17.24395,-3.55403,-1.82346\H,0,18.61298,-1.1537,-2.79623\H,0,19.31
 583,-2.5033,-1.83218\H,0,18.32032,-1.19227,-1.0547\H,0,16.38177,-4.355
 33,3.86272\H,0,15.99966,-4.40231,2.11116\H,0,14.65412,-4.17368,3.29839
 \H,0,14.2193,-0.0466,6.31215\H,0,16.04935,0.67375,10.14814\H,0,16.2518
 5,2.33428,9.29632\H,0,17.40427,0.97995,9.19657\\Version=ES64L-G16RevA.
 03\State=1-A\HF=-4069.8116917\RMSD=5.002e-09\PG=C01 [X(C68H72Mg2N8O8)]
 \\@


 EDUCATION DOESN'T COST 
           ... IT PAYS!

 -- POSTMARK, UNIV. OF MISSISSIPPI, DEC 78
 Job cpu time:       0 days 10 hours 56 minutes 48.1 seconds.
 Elapsed time:       0 days  0 hours 27 minutes 58.2 seconds.
 File lengths (MBytes):  RWF=  13225 Int=      0 D2E=      0 Chk=    574 Scr=      1
 Normal termination of Gaussian 16 at Sat Sep  4 15:18:43 2021.
