 Entering Gaussian System, Link 0=g16
 Initial command:
 /sw/apps/gaussian-16.0/g16/l1.exe "/tmp/Gau-75011.inp" -scrdir="/tmp/"
 Entering Link 1 = /sw/apps/gaussian-16.0/g16/l1.exe PID=     75012.
  
 Copyright (c) 1988,1990,1992,1993,1995,1998,2003,2009,2016,
            Gaussian, Inc.  All Rights Reserved.
  
 This is part of the Gaussian(R) 16 program.  It is based on
 the Gaussian(R) 09 system (copyright 2009, Gaussian, Inc.),
 the Gaussian(R) 03 system (copyright 2003, Gaussian, Inc.),
 the Gaussian(R) 98 system (copyright 1998, Gaussian, Inc.),
 the Gaussian(R) 94 system (copyright 1995, Gaussian, Inc.),
 the Gaussian 92(TM) system (copyright 1992, Gaussian, Inc.),
 the Gaussian 90(TM) system (copyright 1990, Gaussian, Inc.),
 the Gaussian 88(TM) system (copyright 1988, Gaussian, Inc.),
 the Gaussian 86(TM) system (copyright 1986, Carnegie Mellon
 University), and the Gaussian 82(TM) system (copyright 1983,
 Carnegie Mellon University). Gaussian is a federally registered
 trademark of Gaussian, Inc.
  
 This software contains proprietary and confidential information,
 including trade secrets, belonging to Gaussian, Inc.
  
 This software is provided under written license and may be
 used, copied, transmitted, or stored only in accord with that
 written license.
  
 The following legend is applicable only to US Government
 contracts under FAR:
  
                    RESTRICTED RIGHTS LEGEND
  
 Use, reproduction and disclosure by the US Government is
 subject to restrictions as set forth in subparagraphs (a)
 and (c) of the Commercial Computer Software - Restricted
 Rights clause in FAR 52.227-19.
  
 Gaussian, Inc.
 340 Quinnipiac St., Bldg. 40, Wallingford CT 06492
  
  
 ---------------------------------------------------------------
 Warning -- This program may not be used in any manner that
 competes with the business of Gaussian, Inc. or will provide
 assistance to any competitor of Gaussian, Inc.  The licensee
 of this program is prohibited from giving any competitor of
 Gaussian, Inc. access to this program.  By using this program,
 the user acknowledges that Gaussian, Inc. is engaged in the
 business of creating and licensing software in the field of
 computational chemistry and represents and warrants to the
 licensee that it is not a competitor of Gaussian, Inc. and that
 it will not use this program in any manner prohibited above.
 ---------------------------------------------------------------
  

 Cite this work as:
 Gaussian 16, Revision A.03,
 M. J. Frisch, G. W. Trucks, H. B. Schlegel, G. E. Scuseria, 
 M. A. Robb, J. R. Cheeseman, G. Scalmani, V. Barone, 
 G. A. Petersson, H. Nakatsuji, X. Li, M. Caricato, A. V. Marenich, 
 J. Bloino, B. G. Janesko, R. Gomperts, B. Mennucci, H. P. Hratchian, 
 J. V. Ortiz, A. F. Izmaylov, J. L. Sonnenberg, D. Williams-Young, 
 F. Ding, F. Lipparini, F. Egidi, J. Goings, B. Peng, A. Petrone, 
 T. Henderson, D. Ranasinghe, V. G. Zakrzewski, J. Gao, N. Rega, 
 G. Zheng, W. Liang, M. Hada, M. Ehara, K. Toyota, R. Fukuda, 
 J. Hasegawa, M. Ishida, T. Nakajima, Y. Honda, O. Kitao, H. Nakai, 
 T. Vreven, K. Throssell, J. A. Montgomery, Jr., J. E. Peralta, 
 F. Ogliaro, M. J. Bearpark, J. J. Heyd, E. N. Brothers, K. N. Kudin, 
 V. N. Staroverov, T. A. Keith, R. Kobayashi, J. Normand, 
 K. Raghavachari, A. P. Rendell, J. C. Burant, S. S. Iyengar, 
 J. Tomasi, M. Cossi, J. M. Millam, M. Klene, C. Adamo, R. Cammi, 
 J. W. Ochterski, R. L. Martin, K. Morokuma, O. Farkas, 
 J. B. Foresman, and D. J. Fox, Gaussian, Inc., Wallingford CT, 2016.
 
 ******************************************
 Gaussian 16:  ES64L-G16RevA.03 25-Dec-2016
                 4-Sep-2021 
 ******************************************
 %nproc=24
 Will use up to   24 processors via shared memory.
 %mem=175gb
 -----------------------------------
 #p cam-b3lyp/Def2SVP td=(nstates=5)
 -----------------------------------
 1/38=1,172=1/1;
 2/12=2,17=6,18=5,40=1/2;
 3/5=43,7=101,11=9,25=1,30=1,74=-40/1,2,3,8;
 4//1;
 5/5=2,38=5/2;
 8/6=1,10=1,108=5/1;
 9/41=5,42=1,70=2/14;
 6/7=2,8=2,9=2,10=2/1;
 99/5=1,9=1/99;
 Leave Link    1 at Sat Sep  4 10:29:08 2021, MaxMem= 23488102400 cpu:               0.9 elap:               0.0
 (Enter /sw/apps/gaussian-16.0/g16/l101.exe)
 --------------------------------
 TDDFT excited states in gaussian
 --------------------------------
 Symbolic Z-matrix:
 Charge =  0 Multiplicity = 1
 Mg                    0.        0.        0. 
 C                    -0.217    -2.218     2.801 
 C                    -1.255     2.442     2.026 
 C                    -0.245     1.85     -2.564 
 C                     0.146    -2.824    -2.037 
 N                    -0.617    -0.009     2.126 
 C                    -0.594    -0.908     3.105 
 C                    -0.936    -0.309     4.502 
 C                    -1.773     0.964     4.032 
 C                    -1.155     1.168     2.66 
 C                    -3.263     0.685     3.863 
 C                     0.345     0.11      5.299 
 C                     0.124     0.397     6.787 
 H                     1.168     0.033     7.733 
 N                    -0.185     1.961    -0.152 
 C                    -0.703     2.8       0.777 
 C                    -0.62      4.156     0.193 
 C                    -0.187     4.015    -1.225 
 C                    -0.214     2.583    -1.38 
 C                    -0.887     5.406     0.974 
 C                     0.181     5.013    -2.277 
 O                     0.303     4.69     -3.508 
 C                     0.31      6.414    -1.837 
 N                    -0.265    -0.413    -2.029 
 C                    -0.279     0.569    -2.937 
 C                    -0.196     0.024    -4.332 
 C                     0.124    -1.533    -4.18 
 C                     0.086    -1.632    -2.635 
 C                    -1.451     0.205    -5.197 
 C                     1.373    -2.07     -4.923 
 C                     2.626    -1.49     -4.306 
 N                     0.15     -2.144     0.303 
 C                     0.173    -3.136    -0.688 
 C                     0.173    -4.438     0.004 
 C                     0.133    -4.111     1.358 
 C                     0.083    -2.695     1.502 
 C                     0.149    -5.715    -0.623 
 C                     0.096    -4.629     2.716 
 O                     0.208    -5.747     3.221 
 C                    -0.255    -3.428     3.701 
 C                     0.717    -3.482     4.848 
 O                     1.931    -3.255     4.669 
 O                     0.038    -3.556     6.003 
 C                     0.943    -3.583     7.183 
 H                    -1.859     3.22      2.497 
 H                    -0.218     2.453    -3.474 
 H                     0.276    -3.747    -2.605 
 H                    -1.554    -0.949     5.132 
 H                    -1.585     1.831     4.665 
 H                    -3.484    -0.377     3.969 
 H                    -3.511     1.027     2.858 
 H                    -3.852     1.301     4.543 
 H                     0.669     1.096     4.966 
 H                     1.13     -0.639     5.189 
 H                    -0.844     0.026     7.125 
 H                     0.062     1.477     6.921 
 H                    -1.344     5.186     1.938 
 H                    -1.651     5.963     0.432 
 H                     0.007     6.02      1.084 
 H                    -0.635     6.744    -1.405 
 H                     0.665     6.97     -2.704 
 H                     1.048     6.466    -1.036 
 H                     0.608     0.501    -4.891 
 H                    -0.692    -2.156    -4.547 
 H                    -1.267     0.74     -6.129 
 H                    -2.204     0.714    -4.596 
 H                    -1.967    -0.72     -5.453 
 H                     1.356    -1.759    -5.967 
 H                     1.452    -3.157    -4.902 
 H                     2.714    -0.522    -4.798 
 H                     3.487    -2.121    -4.529 
 H                     2.495    -1.303    -3.24 
 H                     0.867    -6.333    -0.084 
 H                     0.404    -5.642    -1.68 
 H                    -0.891    -5.999    -0.463 
 H                    -1.283    -3.581     4.028 
 H                     0.698    -4.478     7.755 
 H                     0.833    -2.619     7.68 
 H                     2.       -3.754     6.976 
 Mg                    13.14526   1.18262   1.00627 
 C                     13.1974  -2.32822   1.74812 
 C                     11.97667   1.68201   4.17164 
 C                     12.66066   4.22351   0.24101 
 C                     13.20967   0.32833  -2.37186 
 N                     12.68756  -0.22109   2.65319 
 C                     12.80487  -1.52703   2.84057 
 C                     12.56097  -1.99165   4.30146 
 C                     11.64817  -0.76583   4.79444 
 C                     12.15457   0.31478   3.84129 
 C                     10.16593  -0.9763    4.53368 
 C                     13.89102  -2.08634   5.12851 
 C                     13.76749  -2.82576   6.46259 
 H                     14.89492  -3.63514   6.91678 
 N                     12.89766   2.77476   2.16487 
 C                     12.43428   2.79474   3.43222 
 C                     12.42203   4.20992   3.83384 
 C                     12.75984   5.03803   2.64437 
 C                     12.76556   4.02332   1.60975 
 C                     12.18837   4.65208   5.24922 
 C                     13.02041   6.50303   2.46527 
 O                     13.061    7.04261   1.30336 
 C                     13.13377   7.30365   3.69313 
 N                     12.74805   2.1365   -0.7978 
 C                     12.63269   3.47462  -0.86158 
 C                     12.62347   3.95369  -2.29364 
 C                     13.00141   2.67513  -3.17683 
 C                     13.0798   1.61066  -2.06052 
 C                     11.30291   4.54225  -2.78973 
 C                     14.20683   2.82037  -4.14562 
 C                     15.48775   2.97022  -3.35685 
 N                     13.38017  -0.63776  -0.13351 
 C                     13.35051  -0.77413  -1.53872 
 C                     13.4386  -2.21813  -1.83794 
 C                     13.49061  -2.82805  -0.57549 
 C                     13.41825  -1.8357    0.43915 
 C                     13.4134  -2.80176  -3.13596 
 C                     13.57955  -4.08647   0.12962 
 O                     13.75257  -5.25828  -0.20303 
 C                     13.26624  -3.82794   1.66631 
 C                     14.32158  -4.52627   2.4794 
 O                     15.50805  -4.15751   2.42539 
 O                     13.72634  -5.36635   3.34562 
 C                     14.73162  -6.0743    4.1823 
 H                     11.39499   1.92968   5.06001 
 H                     12.60323   5.26617  -0.07998 
 H                     13.33428  -0.01259  -3.40187 
 H                     12.01585  -2.92306   4.39691 
 H                     11.86816  -0.49896   5.82485 
 H                     9.9818   -1.86668   3.95104 
 H                     9.83401  -0.09739   3.99665 
 H                     9.61374  -0.97901   5.47782 
 H                     14.15847  -1.08589   5.49226 
 H                     14.6737  -2.52711   4.54219 
 H                     12.83261  -3.39491   6.53338 
 H                     13.69238  -2.08627   7.26355 
 H                     11.80422   3.83217   5.86857 
 H                     11.37087   5.38078   5.22575 
 H                     13.06798   5.12197   5.69437 
 H                     12.21733   7.21035   4.27098 
 H                     13.40861   8.30738   3.36319 
 H                     13.93823   6.88699   4.30945 
 H                     13.37108   4.72177  -2.44931 
 H                     12.17401   2.37728  -3.83753 
 H                     11.40219   5.57526  -3.17329 
 H                     10.58673   4.5046   -1.97966 
 H                     10.80341   3.966    -3.56667 
 H                     14.10356   3.7281   -4.74522 
 H                     14.30952   1.98899  -4.83501 
 H                     15.50575   4.03731  -3.11584 
 H                     16.34617   2.68796  -3.96306 
 H                     15.43399   2.41942  -2.41061 
 H                     14.17914  -3.56594  -3.14865 
 H                     13.5817  -2.05631  -3.9104 
 H                     12.39166  -3.19029  -3.15531 
 H                     12.26844  -4.21966   1.86762 
 H                     14.5518  -7.14673   4.05883 
 H                     14.61833  -5.65859   5.20118 
 H                     15.77169  -5.9989    3.88733 
 
 ITRead=  0  0  0  0  0  0  0  0  0  0  0  0  0  0  0  0  0  0  0  0
 ITRead=  0  0  0  0  0  0  0  0  0  0  0  0  0  0  0  0  0  0  0  0
 ITRead=  0  0  0  0  0  0  0  0  0  0  0  0  0  0  0  0  0  0  0  0
 ITRead=  0  0  0  0  0  0  0  0  0  0  0  0  0  0  0  0  0  0  0  0
 ITRead=  0  0  0  0  0  0  0  0  0  0  0  0  0  0  0  0  0  0  0  0
 ITRead=  0  0  0  0  0  0  0  0  0  0  0  0  0  0  0  0  0  0  0  0
 ITRead=  0  0  0  0  0  0  0  0  0  0  0  0  0  0  0  0  0  0  0  0
 ITRead=  0  0  0  0  0  0  0  0  0  0  0  0  0  0  0  0  0  0
 MicOpt= -1 -1 -1 -1 -1 -1 -1 -1 -1 -1 -1 -1 -1 -1 -1 -1 -1 -1 -1 -1
 MicOpt= -1 -1 -1 -1 -1 -1 -1 -1 -1 -1 -1 -1 -1 -1 -1 -1 -1 -1 -1 -1
 MicOpt= -1 -1 -1 -1 -1 -1 -1 -1 -1 -1 -1 -1 -1 -1 -1 -1 -1 -1 -1 -1
 MicOpt= -1 -1 -1 -1 -1 -1 -1 -1 -1 -1 -1 -1 -1 -1 -1 -1 -1 -1 -1 -1
 MicOpt= -1 -1 -1 -1 -1 -1 -1 -1 -1 -1 -1 -1 -1 -1 -1 -1 -1 -1 -1 -1
 MicOpt= -1 -1 -1 -1 -1 -1 -1 -1 -1 -1 -1 -1 -1 -1 -1 -1 -1 -1 -1 -1
 MicOpt= -1 -1 -1 -1 -1 -1 -1 -1 -1 -1 -1 -1 -1 -1 -1 -1 -1 -1 -1 -1
 MicOpt= -1 -1 -1 -1 -1 -1 -1 -1 -1 -1 -1 -1 -1 -1 -1 -1 -1 -1
 NAtoms=    158 NQM=      158 NQMF=       0 NMMI=      0 NMMIF=      0
                NMic=       0 NMicF=      0.
                    Isotopes and Nuclear Properties:
 (Nuclear quadrupole moments (NQMom) in fm**2, nuclear magnetic moments (NMagM)
  in nuclear magnetons)

  Atom         1           2           3           4           5           6           7           8           9          10
 IAtWgt=          24          12          12          12          12          14          12          12          12          12
 AtmWgt=  23.9850450  12.0000000  12.0000000  12.0000000  12.0000000  14.0030740  12.0000000  12.0000000  12.0000000  12.0000000
 NucSpn=           0           0           0           0           0           2           0           0           0           0
 AtZEff=  -0.0000000  -0.0000000  -0.0000000  -0.0000000  -0.0000000  -0.0000000  -0.0000000  -0.0000000  -0.0000000  -0.0000000
 NQMom=    0.0000000   0.0000000   0.0000000   0.0000000   0.0000000   2.0440000   0.0000000   0.0000000   0.0000000   0.0000000
 NMagM=    0.0000000   0.0000000   0.0000000   0.0000000   0.0000000   0.4037610   0.0000000   0.0000000   0.0000000   0.0000000
 AtZNuc=  12.0000000   6.0000000   6.0000000   6.0000000   6.0000000   7.0000000   6.0000000   6.0000000   6.0000000   6.0000000

  Atom        11          12          13          14          15          16          17          18          19          20
 IAtWgt=          12          12          12           1          14          12          12          12          12          12
 AtmWgt=  12.0000000  12.0000000  12.0000000   1.0078250  14.0030740  12.0000000  12.0000000  12.0000000  12.0000000  12.0000000
 NucSpn=           0           0           0           1           2           0           0           0           0           0
 AtZEff=  -0.0000000  -0.0000000  -0.0000000  -0.0000000  -0.0000000  -0.0000000  -0.0000000  -0.0000000  -0.0000000  -0.0000000
 NQMom=    0.0000000   0.0000000   0.0000000   0.0000000   2.0440000   0.0000000   0.0000000   0.0000000   0.0000000   0.0000000
 NMagM=    0.0000000   0.0000000   0.0000000   2.7928460   0.4037610   0.0000000   0.0000000   0.0000000   0.0000000   0.0000000
 AtZNuc=   6.0000000   6.0000000   6.0000000   1.0000000   7.0000000   6.0000000   6.0000000   6.0000000   6.0000000   6.0000000

  Atom        21          22          23          24          25          26          27          28          29          30
 IAtWgt=          12          16          12          14          12          12          12          12          12          12
 AtmWgt=  12.0000000  15.9949146  12.0000000  14.0030740  12.0000000  12.0000000  12.0000000  12.0000000  12.0000000  12.0000000
 NucSpn=           0           0           0           2           0           0           0           0           0           0
 AtZEff=  -0.0000000  -0.0000000  -0.0000000  -0.0000000  -0.0000000  -0.0000000  -0.0000000  -0.0000000  -0.0000000  -0.0000000
 NQMom=    0.0000000   0.0000000   0.0000000   2.0440000   0.0000000   0.0000000   0.0000000   0.0000000   0.0000000   0.0000000
 NMagM=    0.0000000   0.0000000   0.0000000   0.4037610   0.0000000   0.0000000   0.0000000   0.0000000   0.0000000   0.0000000
 AtZNuc=   6.0000000   8.0000000   6.0000000   7.0000000   6.0000000   6.0000000   6.0000000   6.0000000   6.0000000   6.0000000

  Atom        31          32          33          34          35          36          37          38          39          40
 IAtWgt=          12          14          12          12          12          12          12          12          16          12
 AtmWgt=  12.0000000  14.0030740  12.0000000  12.0000000  12.0000000  12.0000000  12.0000000  12.0000000  15.9949146  12.0000000
 NucSpn=           0           2           0           0           0           0           0           0           0           0
 AtZEff=  -0.0000000  -0.0000000  -0.0000000  -0.0000000  -0.0000000  -0.0000000  -0.0000000  -0.0000000  -0.0000000  -0.0000000
 NQMom=    0.0000000   2.0440000   0.0000000   0.0000000   0.0000000   0.0000000   0.0000000   0.0000000   0.0000000   0.0000000
 NMagM=    0.0000000   0.4037610   0.0000000   0.0000000   0.0000000   0.0000000   0.0000000   0.0000000   0.0000000   0.0000000
 AtZNuc=   6.0000000   7.0000000   6.0000000   6.0000000   6.0000000   6.0000000   6.0000000   6.0000000   8.0000000   6.0000000

  Atom        41          42          43          44          45          46          47          48          49          50
 IAtWgt=          12          16          16          12           1           1           1           1           1           1
 AtmWgt=  12.0000000  15.9949146  15.9949146  12.0000000   1.0078250   1.0078250   1.0078250   1.0078250   1.0078250   1.0078250
 NucSpn=           0           0           0           0           1           1           1           1           1           1
 AtZEff=  -0.0000000  -0.0000000  -0.0000000  -0.0000000  -0.0000000  -0.0000000  -0.0000000  -0.0000000  -0.0000000  -0.0000000
 NQMom=    0.0000000   0.0000000   0.0000000   0.0000000   0.0000000   0.0000000   0.0000000   0.0000000   0.0000000   0.0000000
 NMagM=    0.0000000   0.0000000   0.0000000   0.0000000   2.7928460   2.7928460   2.7928460   2.7928460   2.7928460   2.7928460
 AtZNuc=   6.0000000   8.0000000   8.0000000   6.0000000   1.0000000   1.0000000   1.0000000   1.0000000   1.0000000   1.0000000

  Atom        51          52          53          54          55          56          57          58          59          60
 IAtWgt=           1           1           1           1           1           1           1           1           1           1
 AtmWgt=   1.0078250   1.0078250   1.0078250   1.0078250   1.0078250   1.0078250   1.0078250   1.0078250   1.0078250   1.0078250
 NucSpn=           1           1           1           1           1           1           1           1           1           1
 AtZEff=  -0.0000000  -0.0000000  -0.0000000  -0.0000000  -0.0000000  -0.0000000  -0.0000000  -0.0000000  -0.0000000  -0.0000000
 NQMom=    0.0000000   0.0000000   0.0000000   0.0000000   0.0000000   0.0000000   0.0000000   0.0000000   0.0000000   0.0000000
 NMagM=    2.7928460   2.7928460   2.7928460   2.7928460   2.7928460   2.7928460   2.7928460   2.7928460   2.7928460   2.7928460
 AtZNuc=   1.0000000   1.0000000   1.0000000   1.0000000   1.0000000   1.0000000   1.0000000   1.0000000   1.0000000   1.0000000

  Atom        61          62          63          64          65          66          67          68          69          70
 IAtWgt=           1           1           1           1           1           1           1           1           1           1
 AtmWgt=   1.0078250   1.0078250   1.0078250   1.0078250   1.0078250   1.0078250   1.0078250   1.0078250   1.0078250   1.0078250
 NucSpn=           1           1           1           1           1           1           1           1           1           1
 AtZEff=  -0.0000000  -0.0000000  -0.0000000  -0.0000000  -0.0000000  -0.0000000  -0.0000000  -0.0000000  -0.0000000  -0.0000000
 NQMom=    0.0000000   0.0000000   0.0000000   0.0000000   0.0000000   0.0000000   0.0000000   0.0000000   0.0000000   0.0000000
 NMagM=    2.7928460   2.7928460   2.7928460   2.7928460   2.7928460   2.7928460   2.7928460   2.7928460   2.7928460   2.7928460
 AtZNuc=   1.0000000   1.0000000   1.0000000   1.0000000   1.0000000   1.0000000   1.0000000   1.0000000   1.0000000   1.0000000

  Atom        71          72          73          74          75          76          77          78          79          80
 IAtWgt=           1           1           1           1           1           1           1           1           1          24
 AtmWgt=   1.0078250   1.0078250   1.0078250   1.0078250   1.0078250   1.0078250   1.0078250   1.0078250   1.0078250  23.9850450
 NucSpn=           1           1           1           1           1           1           1           1           1           0
 AtZEff=  -0.0000000  -0.0000000  -0.0000000  -0.0000000  -0.0000000  -0.0000000  -0.0000000  -0.0000000  -0.0000000  -0.0000000
 NQMom=    0.0000000   0.0000000   0.0000000   0.0000000   0.0000000   0.0000000   0.0000000   0.0000000   0.0000000   0.0000000
 NMagM=    2.7928460   2.7928460   2.7928460   2.7928460   2.7928460   2.7928460   2.7928460   2.7928460   2.7928460   0.0000000
 AtZNuc=   1.0000000   1.0000000   1.0000000   1.0000000   1.0000000   1.0000000   1.0000000   1.0000000   1.0000000  12.0000000

  Atom        81          82          83          84          85          86          87          88          89          90
 IAtWgt=          12          12          12          12          14          12          12          12          12          12
 AtmWgt=  12.0000000  12.0000000  12.0000000  12.0000000  14.0030740  12.0000000  12.0000000  12.0000000  12.0000000  12.0000000
 NucSpn=           0           0           0           0           2           0           0           0           0           0
 AtZEff=  -0.0000000  -0.0000000  -0.0000000  -0.0000000  -0.0000000  -0.0000000  -0.0000000  -0.0000000  -0.0000000  -0.0000000
 NQMom=    0.0000000   0.0000000   0.0000000   0.0000000   2.0440000   0.0000000   0.0000000   0.0000000   0.0000000   0.0000000
 NMagM=    0.0000000   0.0000000   0.0000000   0.0000000   0.4037610   0.0000000   0.0000000   0.0000000   0.0000000   0.0000000
 AtZNuc=   6.0000000   6.0000000   6.0000000   6.0000000   7.0000000   6.0000000   6.0000000   6.0000000   6.0000000   6.0000000

  Atom        91          92          93          94          95          96          97          98          99         100
 IAtWgt=          12          12           1          14          12          12          12          12          12          12
 AtmWgt=  12.0000000  12.0000000   1.0078250  14.0030740  12.0000000  12.0000000  12.0000000  12.0000000  12.0000000  12.0000000
 NucSpn=           0           0           1           2           0           0           0           0           0           0
 AtZEff=  -0.0000000  -0.0000000  -0.0000000  -0.0000000  -0.0000000  -0.0000000  -0.0000000  -0.0000000  -0.0000000  -0.0000000
 NQMom=    0.0000000   0.0000000   0.0000000   2.0440000   0.0000000   0.0000000   0.0000000   0.0000000   0.0000000   0.0000000
 NMagM=    0.0000000   0.0000000   2.7928460   0.4037610   0.0000000   0.0000000   0.0000000   0.0000000   0.0000000   0.0000000
 AtZNuc=   6.0000000   6.0000000   1.0000000   7.0000000   6.0000000   6.0000000   6.0000000   6.0000000   6.0000000   6.0000000

  Atom       101         102         103         104         105         106         107         108         109         110
 IAtWgt=          16          12          14          12          12          12          12          12          12          12
 AtmWgt=  15.9949146  12.0000000  14.0030740  12.0000000  12.0000000  12.0000000  12.0000000  12.0000000  12.0000000  12.0000000
 NucSpn=           0           0           2           0           0           0           0           0           0           0
 AtZEff=  -0.0000000  -0.0000000  -0.0000000  -0.0000000  -0.0000000  -0.0000000  -0.0000000  -0.0000000  -0.0000000  -0.0000000
 NQMom=    0.0000000   0.0000000   2.0440000   0.0000000   0.0000000   0.0000000   0.0000000   0.0000000   0.0000000   0.0000000
 NMagM=    0.0000000   0.0000000   0.4037610   0.0000000   0.0000000   0.0000000   0.0000000   0.0000000   0.0000000   0.0000000
 AtZNuc=   8.0000000   6.0000000   7.0000000   6.0000000   6.0000000   6.0000000   6.0000000   6.0000000   6.0000000   6.0000000

  Atom       111         112         113         114         115         116         117         118         119         120
 IAtWgt=          14          12          12          12          12          12          12          16          12          12
 AtmWgt=  14.0030740  12.0000000  12.0000000  12.0000000  12.0000000  12.0000000  12.0000000  15.9949146  12.0000000  12.0000000
 NucSpn=           2           0           0           0           0           0           0           0           0           0
 AtZEff=  -0.0000000  -0.0000000  -0.0000000  -0.0000000  -0.0000000  -0.0000000  -0.0000000  -0.0000000  -0.0000000  -0.0000000
 NQMom=    2.0440000   0.0000000   0.0000000   0.0000000   0.0000000   0.0000000   0.0000000   0.0000000   0.0000000   0.0000000
 NMagM=    0.4037610   0.0000000   0.0000000   0.0000000   0.0000000   0.0000000   0.0000000   0.0000000   0.0000000   0.0000000
 AtZNuc=   7.0000000   6.0000000   6.0000000   6.0000000   6.0000000   6.0000000   6.0000000   8.0000000   6.0000000   6.0000000

  Atom       121         122         123         124         125         126         127         128         129         130
 IAtWgt=          16          16          12           1           1           1           1           1           1           1
 AtmWgt=  15.9949146  15.9949146  12.0000000   1.0078250   1.0078250   1.0078250   1.0078250   1.0078250   1.0078250   1.0078250
 NucSpn=           0           0           0           1           1           1           1           1           1           1
 AtZEff=  -0.0000000  -0.0000000  -0.0000000  -0.0000000  -0.0000000  -0.0000000  -0.0000000  -0.0000000  -0.0000000  -0.0000000
 NQMom=    0.0000000   0.0000000   0.0000000   0.0000000   0.0000000   0.0000000   0.0000000   0.0000000   0.0000000   0.0000000
 NMagM=    0.0000000   0.0000000   0.0000000   2.7928460   2.7928460   2.7928460   2.7928460   2.7928460   2.7928460   2.7928460
 AtZNuc=   8.0000000   8.0000000   6.0000000   1.0000000   1.0000000   1.0000000   1.0000000   1.0000000   1.0000000   1.0000000

  Atom       131         132         133         134         135         136         137         138         139         140
 IAtWgt=           1           1           1           1           1           1           1           1           1           1
 AtmWgt=   1.0078250   1.0078250   1.0078250   1.0078250   1.0078250   1.0078250   1.0078250   1.0078250   1.0078250   1.0078250
 NucSpn=           1           1           1           1           1           1           1           1           1           1
 AtZEff=  -0.0000000  -0.0000000  -0.0000000  -0.0000000  -0.0000000  -0.0000000  -0.0000000  -0.0000000  -0.0000000  -0.0000000
 NQMom=    0.0000000   0.0000000   0.0000000   0.0000000   0.0000000   0.0000000   0.0000000   0.0000000   0.0000000   0.0000000
 NMagM=    2.7928460   2.7928460   2.7928460   2.7928460   2.7928460   2.7928460   2.7928460   2.7928460   2.7928460   2.7928460
 AtZNuc=   1.0000000   1.0000000   1.0000000   1.0000000   1.0000000   1.0000000   1.0000000   1.0000000   1.0000000   1.0000000

  Atom       141         142         143         144         145         146         147         148         149         150
 IAtWgt=           1           1           1           1           1           1           1           1           1           1
 AtmWgt=   1.0078250   1.0078250   1.0078250   1.0078250   1.0078250   1.0078250   1.0078250   1.0078250   1.0078250   1.0078250
 NucSpn=           1           1           1           1           1           1           1           1           1           1
 AtZEff=  -0.0000000  -0.0000000  -0.0000000  -0.0000000  -0.0000000  -0.0000000  -0.0000000  -0.0000000  -0.0000000  -0.0000000
 NQMom=    0.0000000   0.0000000   0.0000000   0.0000000   0.0000000   0.0000000   0.0000000   0.0000000   0.0000000   0.0000000
 NMagM=    2.7928460   2.7928460   2.7928460   2.7928460   2.7928460   2.7928460   2.7928460   2.7928460   2.7928460   2.7928460
 AtZNuc=   1.0000000   1.0000000   1.0000000   1.0000000   1.0000000   1.0000000   1.0000000   1.0000000   1.0000000   1.0000000

  Atom       151         152         153         154         155         156         157         158
 IAtWgt=           1           1           1           1           1           1           1           1
 AtmWgt=   1.0078250   1.0078250   1.0078250   1.0078250   1.0078250   1.0078250   1.0078250   1.0078250
 NucSpn=           1           1           1           1           1           1           1           1
 AtZEff=  -0.0000000  -0.0000000  -0.0000000  -0.0000000  -0.0000000  -0.0000000  -0.0000000  -0.0000000
 NQMom=    0.0000000   0.0000000   0.0000000   0.0000000   0.0000000   0.0000000   0.0000000   0.0000000
 NMagM=    2.7928460   2.7928460   2.7928460   2.7928460   2.7928460   2.7928460   2.7928460   2.7928460
 AtZNuc=   1.0000000   1.0000000   1.0000000   1.0000000   1.0000000   1.0000000   1.0000000   1.0000000
 Leave Link  101 at Sat Sep  4 10:29:08 2021, MaxMem= 23488102400 cpu:               3.2 elap:               0.2
 (Enter /sw/apps/gaussian-16.0/g16/l202.exe)
 Stoichiometry    C68H72Mg2N8O8
 Framework group  C1[X(C68H72Mg2N8O8)]
 Deg. of freedom   468
 Full point group                 C1      NOp   1
 Largest Abelian subgroup         C1      NOp   1
 Largest concise Abelian subgroup C1      NOp   1
                         Standard orientation:                         
 ---------------------------------------------------------------------
 Center     Atomic      Atomic             Coordinates (Angstroms)
 Number     Number       Type             X           Y           Z
 ---------------------------------------------------------------------
      1         12           0        6.528963   -0.640187   -0.432672
      2          6           0        6.736973    2.792710    0.559379
      3          6           0        7.591900   -1.456773    2.705228
      4          6           0        6.789579   -3.642498   -1.420006
      5          6           0        6.590800    0.464414   -3.737471
      6          7           0        7.062352    0.599961    1.321801
      7          6           0        7.042003    1.901669    1.590712
      8          6           0        7.301730    2.226488    3.092181
      9          6           0        8.097800    0.907006    3.501129
     10          6           0        7.525159   -0.051083    2.471532
     11          6           0        9.604381    1.013790    3.288259
     12          6           0        5.972931    2.369866    3.907942
     13          6           0        6.122481    3.002765    5.294459
     14          1           0        5.059974    3.865342    5.788814
     15          7           0        6.630583   -2.323201    0.596884
     16          6           0        7.073356   -2.468956    1.868887
     17          6           0        6.951755   -3.909426    2.180239
     18          6           0        6.581230   -4.616963    0.923180
     19          6           0        6.679200   -3.545576   -0.034896
     20          6           0        7.131102   -4.471664    3.557000
     21          6           0        6.209634   -6.036150    0.629996
     22          8           0        6.150517   -6.491142   -0.563345
     23          6           0        6.000138   -6.914508    1.795174
     24          7           0        6.891357   -1.493589   -2.302969
     25          6           0        6.896187   -2.821075   -2.466497
     26          6           0        6.892469   -3.192200   -3.919835
     27          6           0        6.637760   -1.835192   -4.721960
     28          6           0        6.619929   -0.853134   -3.524666
     29          6           0        8.170743   -3.861914   -4.442818
     30          6           0        5.444339   -1.815646   -5.709778
     31          6           0        4.143205   -1.908452   -4.944576
     32          7           0        6.464694    1.279047   -1.444332
     33          6           0        6.525394    1.505810   -2.826927
     34          6           0        6.557482    2.966689   -3.024086
     35          6           0        6.529768    3.491417   -1.733451
     36          6           0        6.509814    2.425508   -0.789135
     37          6           0        6.663833    3.636677   -4.274781
     38          6           0        6.537243    4.704367   -0.931858
     39          8           0        6.456476    5.908276   -1.179999
     40          6           0        6.794707    4.299849    0.586662
     41          6           0        5.782166    5.027179    1.428719
     42          8           0        4.567022    4.755493    1.345185
     43          8           0        6.418262    5.752172    2.361622
     44          6           0        5.470089    6.475916    3.250057
     45          1           0        8.141149   -1.821688    3.575345
     46          1           0        6.770757   -4.662959   -1.808261
     47          1           0        6.525064    0.883701   -4.743120
     48          1           0        7.923092    3.105147    3.266222
     49          1           0        7.846112    0.575607    4.508378
     50          1           0        9.869037    1.934552    2.768572
     51          1           0        9.875614    0.145820    2.686964
     52          1           0       10.137856    0.902624    4.232623
     53          1           0        5.617760    1.379677    4.193319
     54          1           0        5.227611    2.924606    3.336901
     55          1           0        7.092399    3.487643    5.408749
     56          1           0        6.130141    2.203562    6.035685
     57          1           0        7.559669   -3.736584    4.237097
     58          1           0        7.889598   -5.251023    3.486340
     59          1           0        6.206554   -4.893195    3.951786
     60          1           0        6.911624   -6.943379    2.392593
     61          1           0        5.654359   -7.867093    1.395340
     62          1           0        5.229862   -6.478561    2.432022
     63          1           0        6.090067   -3.894481   -4.142050
     64          1           0        7.494878   -1.555339   -5.334907
     65          1           0        7.999146   -4.837820   -4.897643
     66          1           0        8.875860   -3.934676   -3.615287
     67          1           0        8.737772   -3.267899   -5.159086
     68          1           0        5.487914   -2.677977   -6.374181
     69          1           0        5.413982   -0.920006   -6.330390
     70          1           0        4.030629   -2.980206   -4.784881
     71          1           0        3.321075   -1.514406   -5.542941
     72          1           0        4.223912   -1.439558   -3.963703
     73          1           0        5.954139    4.463146   -4.239404
     74          1           0        6.447200    2.963756   -5.104149
     75          1           0        7.708616    3.945981   -4.249967
     76          1           0        7.815054    4.600519    0.822480
     77          1           0        5.732951    7.532928    3.206872
     78          1           0        5.516770    5.982172    4.220852
     79          1           0        4.430814    6.508706    2.921162
     80         12           0       -6.685652   -0.827373    0.307574
     81          6           0       -6.607333    2.456156   -1.138579
     82          6           0       -5.665262    0.599339    3.232955
     83          6           0       -6.310049   -3.749227    1.486203
     84          6           0       -6.579439   -2.105822   -2.932799
     85          7           0       -6.229310    1.267263    0.852079
     86          6           0       -6.294463    2.438307    0.236640
     87          6           0       -6.086893    3.665104    1.164779
     88          6           0       -5.250574    2.945204    2.331475
     89          6           0       -5.767925    1.518641    2.158505
     90          6           0       -3.751270    2.942889    2.083662
     91          6           0       -7.442519    4.243658    1.702891
     92          6           0       -7.337689    5.621138    2.361171
     93          1           0       -8.444089    6.559178    2.192517
     94          7           0       -6.555920   -1.446528    2.188634
     95          6           0       -6.143703   -0.729168    3.254827
     96          6           0       -6.211349   -1.643437    4.405358
     97          6           0       -6.539739   -3.005436    3.903524
     98          6           0       -6.459058   -2.785957    2.473339
     99          6           0       -6.053369   -1.179060    5.824090
    100          6           0       -6.859329   -4.295426    4.596336
    101          8           0       -6.879014   -5.411330    3.966098
    102          6           0       -7.056698   -4.226615    6.051600
    103          7           0       -6.262075   -2.660712   -0.576612
    104          6           0       -6.205149   -3.785667    0.157674
    105          6           0       -6.161833   -5.010920   -0.723954
    106          6           0       -6.446640   -4.483616   -2.206659
    107          6           0       -6.520127   -2.966639   -1.925999
    108          6           0       -4.850996   -5.796919   -0.706645
    109          6           0       -7.618708   -5.150279   -2.977700
    110          6           0       -8.934894   -4.793252   -2.325354
    111          7           0       -6.793094   -0.012156   -1.690411
    112          6           0       -6.702497   -0.722495   -2.907499
    113          6           0       -6.713241    0.276032   -3.996194
    114          6           0       -6.786719    1.509043   -3.330784
    115          6           0       -6.799085    1.295107   -1.925947
    116          6           0       -6.610983   -0.008630   -5.387103
    117          6           0       -6.845900    2.943458   -3.497105
    118          8           0       -6.952469    3.702735   -4.459328
    119          6           0       -6.604812    3.626599   -2.082322
    120          6           0       -7.658286    4.683078   -1.891101
    121          8           0       -8.857256    4.368936   -1.789130
    122          8           0       -7.059778    5.862400   -1.643371
    123          6           0       -8.063766    6.939759   -1.435714
    124          1           0       -5.130508    0.908914    4.131339
    125          1           0       -6.287512   -4.783760    1.836496
    126          1           0       -6.648187   -2.428859   -3.973757
    127          1           0       -5.504212    4.469149    0.731438
    128          1           0       -5.522464    3.333428    3.309595
    129          1           0       -3.504348    3.322727    1.103406
    130          1           0       -3.438879    1.911237    2.179379
    131          1           0       -3.236767    3.488668    2.879736
    132          1           0       -7.769069    3.647828    2.564921
    133          1           0       -8.180932    4.270032    0.925274
    134          1           0       -6.381421    6.111267    2.141473
    135          1           0       -7.327504    5.487613    3.445648
    136          1           0       -5.656860   -0.157304    5.871121
    137          1           0       -5.269481   -1.795724    6.276977
    138          1           0       -6.970084   -1.288108    6.407537
    139          1           0       -6.160202   -3.826340    6.519097
    140          1           0       -7.363720   -5.230100    6.352642
    141          1           0       -7.864848   -3.517193    6.261900
    142          1           0       -6.936882   -5.714715   -0.446338
    143          1           0       -5.581440   -4.639345   -2.867726
    144          1           0       -4.982010   -6.857953   -0.421819
    145          1           0       -4.165983   -5.303382   -0.030092
    146          1           0       -4.295944   -5.789950   -1.643165
    147          1           0       -7.533425   -6.238643   -2.929228
    148          1           0       -7.656606   -4.876629   -4.026831
    149          1           0       -9.010678   -5.518359   -1.509531
    150          1           0       -9.755327   -4.906082   -3.031191
    151          1           0       -8.893142   -3.794372   -1.875758
    152          1           0       -7.340183    0.614986   -5.886963
    153          1           0       -6.782602   -1.063558   -5.590698
    154          1           0       -5.572690    0.281038   -5.569649
    155          1           0       -5.598877    4.048052   -2.089199
    156          1           0       -7.830793    7.735562   -2.149932
    157          1           0       -8.009277    7.195752   -0.360882
    158          1           0       -9.093890    6.720947   -1.691455
 ---------------------------------------------------------------------
 Rotational constants (GHZ):           0.0203033           0.0081077           0.0074495
 Leave Link  202 at Sat Sep  4 10:29:08 2021, MaxMem= 23488102400 cpu:               0.3 elap:               0.0
 (Enter /sw/apps/gaussian-16.0/g16/l301.exe)
 Standard basis: def2SVP (5D, 7F)
 Ernie: Thresh=  0.10000D-02 Tol=  0.10000D-05 Strict=F.
 There are  1658 symmetry adapted cartesian basis functions of A   symmetry.
 There are  1572 symmetry adapted basis functions of A   symmetry.
  1572 basis functions,  2678 primitive gaussians,  1658 cartesian basis functions
   312 alpha electrons      312 beta electrons
       nuclear repulsion energy     14250.9652311616 Hartrees.
 IExCor=20419 DFT=T Ex+Corr=CAM-B3LYP ExCW=0 ScaHFX=  1.000000
 ScaDFX=  1.000000  1.000000  1.000000  0.810000 ScalE2=  1.000000  1.000000
 IRadAn=      5 IRanWt=     -1 IRanGd=            0 ICorTp=0 IEmpDi=  4
 HFx  wShort=  0.000000 wLong=  0.330000 cFull=  0.190000 cShort=  0.000000 cLong=  0.460000
 DFx  wShort=  0.000000 wLong=  0.330000 cFull=  0.190000 cShort=  0.000000 cLong=  0.460000
 NAtoms=  158 NActive=  158 NUniq=  158 SFac= 1.00D+00 NAtFMM=   60 NAOKFM=T Big=T
 Integral buffers will be    131072 words long.
 Raffenetti 1 integral format.
 Two-electron integral symmetry is turned on.
 Leave Link  301 at Sat Sep  4 10:29:08 2021, MaxMem= 23488102400 cpu:               1.3 elap:               0.1
 (Enter /sw/apps/gaussian-16.0/g16/l302.exe)
 NPDir=0 NMtPBC=     1 NCelOv=     1 NCel=       1 NClECP=     1 NCelD=      1
         NCelK=      1 NCelE2=     1 NClLst=     1 CellRange=     0.0.
 One-electron integrals computed using PRISM.
 One-electron integral symmetry used in STVInt
   1 Symmetry operations used in ECPInt.
 ECPInt:  NShTT=  271216 NPrTT=  987664 LenC2=  116677 LenP2D=  255398.
 LDataN:  DoStor=T MaxTD1= 4 Len=   56
 NBasis=  1572 RedAO= T EigKep=  3.36D-04  NBF=  1572
 NBsUse=  1572 1.00D-06 EigRej= -1.00D+00 NBFU=  1572
 Precomputing XC quadrature grid using
 IXCGrd= 4 IRadAn=           5 IRanWt=          -1 IRanGd=           0 AccXCQ= 0.00D+00.
 Generated NRdTot=       0 NPtTot=           0 NUsed=           0 NTot=          32
 NSgBfM=  1034  1011  1024  1024  1034 MxSgAt=   158 MxSgA2=   155.
 Leave Link  302 at Sat Sep  4 10:29:13 2021, MaxMem= 23488102400 cpu:             112.3 elap:               4.7
 (Enter /sw/apps/gaussian-16.0/g16/l303.exe)
 DipDrv:  MaxL=1.
 Leave Link  303 at Sat Sep  4 10:29:13 2021, MaxMem= 23488102400 cpu:               9.4 elap:               0.4
 (Enter /sw/apps/gaussian-16.0/g16/l308.exe)
 Leave Link  308 at Sat Sep  4 10:29:14 2021, MaxMem= 23488102400 cpu:              15.4 elap:               0.7
 (Enter /sw/apps/gaussian-16.0/g16/l401.exe)
 ExpMin= 3.36D-02 ExpMax= 4.95D+03 ExpMxC= 7.45D+02 IAcc=3 IRadAn=         5 AccDes= 0.00D+00
 Harris functional with IExCor=20419 and IRadAn=       5 diagonalized for initial guess.
 HarFok:  IExCor=20419 AccDes= 0.00D+00 IRadAn=         5 IDoV= 1 UseB2=F ITyADJ=14
 ICtDFT=  3500011 ScaDFX=  1.000000  1.000000  1.000000  1.000000
 FoFCou: FMM=F IPFlag=           0 FMFlag=      100000 FMFlg1=        2001
         NFxFlg=           0 DoJE=T BraDBF=F KetDBF=T FulRan=T
         wScrn=  0.000000 ICntrl=       500 IOpCl=  0 I1Cent=   200000004 NGrid=           0
         NMat0=    1 NMatS0=      1 NMatT0=    0 NMatD0=    1 NMtDS0=    0 NMtDT0=    0
 Petite list used in FoFCou.
 Harris En= -3918.65802100966    
 JPrj=0 DoOrth=F DoCkMO=F.
 Leave Link  401 at Sat Sep  4 10:29:21 2021, MaxMem= 23488102400 cpu:             167.6 elap:               7.0
 (Enter /sw/apps/gaussian-16.0/g16/l502.exe)
 Integral symmetry usage will be decided dynamically.
 Closed shell SCF:
 Using DIIS extrapolation, IDIIS=  1040.
 NGot= 23488102400 LenX= 23482547354 LenY= 23479796732
 Requested convergence on RMS density matrix=1.00D-08 within 128 cycles.
 Requested convergence on MAX density matrix=1.00D-06.
 Requested convergence on             energy=1.00D-06.
 No special actions if energy rises.
 Fock matrices will be formed incrementally for  20 cycles.

 Cycle   1  Pass 1  IDiag  1:
 FoFJK:  IHMeth= 1 ICntrl=       0 DoSepK=T KAlg= 0 I1Cent=           0 FoldK=F
 IRaf=         1 NMat=       1 IRICut=       1 DoRegI=T DoRafI=F ISym2E= 0 IDoP0=0 IntGTp=1.
 FoFCou: FMM=T IPFlag=           0 FMFlag=      100000 FMFlg1=        2001
         NFxFlg=           0 DoJE=T BraDBF=F KetDBF=F FulRan=T
         wScrn=  0.000000 ICntrl=       500 IOpCl=  0 I1Cent=           0 NGrid=           0
         NMat0=    1 NMatS0=      1 NMatT0=    0 NMatD0=    1 NMtDS0=    0 NMtDT0=    0
 Symmetry not used in FoFCou.
 FMM levels:  10  Number of levels for PrismC:   9
 E= -4068.94935254434    
 DIIS: error= 2.04D-02 at cycle   1 NSaved=   1.
 NSaved= 1 IEnMin= 1 EnMin= -4068.94935254434     IErMin= 1 ErrMin= 2.04D-02
 ErrMax= 2.04D-02  0.00D+00 EMaxC= 1.00D-01 BMatC= 1.69D+00 BMatP= 1.69D+00
 IDIUse=3 WtCom= 7.96D-01 WtEn= 2.04D-01
 Coeff-Com:  0.100D+01
 Coeff-En:   0.100D+01
 Coeff:      0.100D+01
 Gap=     0.120 Goal=   None    Shift=    0.000
 GapD=    0.120 DampG=1.000 DampE=0.500 DampFc=0.5000 IDamp=-1.
 Damping current iteration by 5.00D-01
 RMSDP=1.57D-03 MaxDP=1.35D-01              OVMax= 2.03D-01

 Cycle   2  Pass 1  IDiag  1:
 RMSU=  7.69D-04    CP:  9.82D-01
 E= -4069.33821476813     Delta-E=       -0.388862223790 Rises=F Damp=T
 DIIS: error= 1.27D-02 at cycle   2 NSaved=   2.
 NSaved= 2 IEnMin= 2 EnMin= -4069.33821476813     IErMin= 2 ErrMin= 1.27D-02
 ErrMax= 1.27D-02  0.00D+00 EMaxC= 1.00D-01 BMatC= 3.07D-01 BMatP= 1.69D+00
 IDIUse=3 WtCom= 8.73D-01 WtEn= 1.27D-01
 Coeff-Com: -0.213D+00 0.121D+01
 Coeff-En:   0.000D+00 0.100D+01
 Coeff:     -0.186D+00 0.119D+01
 Gap=     0.135 Goal=   None    Shift=    0.000
 RMSDP=7.65D-04 MaxDP=9.45D-02 DE=-3.89D-01 OVMax= 1.88D-01

 Cycle   3  Pass 1  IDiag  1:
 RMSU=  7.33D-04    CP:  9.68D-01  1.24D+00
 E= -4069.62760365208     Delta-E=       -0.289388883957 Rises=F Damp=F
 DIIS: error= 1.56D-02 at cycle   3 NSaved=   3.
 NSaved= 3 IEnMin= 3 EnMin= -4069.62760365208     IErMin= 2 ErrMin= 1.27D-02
 ErrMax= 1.56D-02  0.00D+00 EMaxC= 1.00D-01 BMatC= 2.02D-01 BMatP= 3.07D-01
 IDIUse=3 WtCom= 8.44D-01 WtEn= 1.56D-01
 Coeff-Com: -0.267D+00 0.652D+00 0.616D+00
 Coeff-En:   0.000D+00 0.000D+00 0.100D+01
 Coeff:     -0.225D+00 0.550D+00 0.676D+00
 Gap=     0.122 Goal=   None    Shift=    0.000
 RMSDP=5.09D-04 MaxDP=4.76D-02 DE=-2.89D-01 OVMax= 1.43D-01

 Cycle   4  Pass 1  IDiag  1:
 RMSU=  2.66D-04    CP:  9.65D-01  1.55D+00  5.05D-01
 E= -4069.76501938565     Delta-E=       -0.137415733567 Rises=F Damp=F
 DIIS: error= 7.17D-03 at cycle   4 NSaved=   4.
 NSaved= 4 IEnMin= 4 EnMin= -4069.76501938565     IErMin= 4 ErrMin= 7.17D-03
 ErrMax= 7.17D-03  0.00D+00 EMaxC= 1.00D-01 BMatC= 5.01D-02 BMatP= 2.02D-01
 IDIUse=3 WtCom= 9.28D-01 WtEn= 7.17D-02
 Coeff-Com: -0.109D+00 0.226D+00 0.408D+00 0.474D+00
 Coeff-En:   0.000D+00 0.000D+00 0.221D+00 0.779D+00
 Coeff:     -0.101D+00 0.210D+00 0.395D+00 0.496D+00
 Gap=     0.122 Goal=   None    Shift=    0.000
 RMSDP=2.01D-04 MaxDP=2.00D-02 DE=-1.37D-01 OVMax= 6.26D-02

 Cycle   5  Pass 1  IDiag  1:
 RMSU=  7.65D-05    CP:  9.64D-01  1.49D+00  6.89D-01  5.48D-01
 E= -4069.81053746371     Delta-E=       -0.045518078063 Rises=F Damp=F
 DIIS: error= 7.54D-04 at cycle   5 NSaved=   5.
 NSaved= 5 IEnMin= 5 EnMin= -4069.81053746371     IErMin= 5 ErrMin= 7.54D-04
 ErrMax= 7.54D-04  0.00D+00 EMaxC= 1.00D-01 BMatC= 1.19D-03 BMatP= 5.01D-02
 IDIUse=3 WtCom= 9.92D-01 WtEn= 7.54D-03
 Coeff-Com: -0.364D-01 0.715D-01 0.167D+00 0.251D+00 0.547D+00
 Coeff-En:   0.000D+00 0.000D+00 0.000D+00 0.000D+00 0.100D+01
 Coeff:     -0.361D-01 0.710D-01 0.166D+00 0.249D+00 0.551D+00
 Gap=     0.121 Goal=   None    Shift=    0.000
 RMSDP=4.20D-05 MaxDP=4.12D-03 DE=-4.55D-02 OVMax= 1.67D-02

 Cycle   6  Pass 1  IDiag  1:
 RMSU=  3.10D-05    CP:  9.64D-01  1.49D+00  6.80D-01  6.22D-01  7.48D-01
 E= -4069.81158258005     Delta-E=       -0.001045116336 Rises=F Damp=F
 DIIS: error= 2.03D-04 at cycle   6 NSaved=   6.
 NSaved= 6 IEnMin= 6 EnMin= -4069.81158258005     IErMin= 6 ErrMin= 2.03D-04
 ErrMax= 2.03D-04  0.00D+00 EMaxC= 1.00D-01 BMatC= 1.85D-04 BMatP= 1.19D-03
 IDIUse=3 WtCom= 9.98D-01 WtEn= 2.03D-03
 Coeff-Com:  0.209D-02-0.635D-02 0.118D-01 0.410D-01 0.308D+00 0.643D+00
 Coeff-En:   0.000D+00 0.000D+00 0.000D+00 0.000D+00 0.114D+00 0.886D+00
 Coeff:      0.208D-02-0.634D-02 0.118D-01 0.410D-01 0.308D+00 0.644D+00
 Gap=     0.121 Goal=   None    Shift=    0.000
 RMSDP=1.65D-05 MaxDP=1.14D-03 DE=-1.05D-03 OVMax= 7.29D-03

 Cycle   7  Pass 1  IDiag  1:
 RMSU=  1.09D-05    CP:  9.64D-01  1.50D+00  6.86D-01  6.20D-01  8.54D-01
                    CP:  7.40D-01
 E= -4069.81178453185     Delta-E=       -0.000201951803 Rises=F Damp=F
 DIIS: error= 8.69D-05 at cycle   7 NSaved=   7.
 NSaved= 7 IEnMin= 7 EnMin= -4069.81178453185     IErMin= 7 ErrMin= 8.69D-05
 ErrMax= 8.69D-05  0.00D+00 EMaxC= 1.00D-01 BMatC= 2.28D-05 BMatP= 1.85D-04
 IDIUse=1 WtCom= 1.00D+00 WtEn= 0.00D+00
 Coeff-Com:  0.449D-02-0.985D-02-0.884D-02-0.337D-02 0.106D+00 0.334D+00
 Coeff-Com:  0.577D+00
 Coeff:      0.449D-02-0.985D-02-0.884D-02-0.337D-02 0.106D+00 0.334D+00
 Coeff:      0.577D+00
 Gap=     0.122 Goal=   None    Shift=    0.000
 RMSDP=6.65D-06 MaxDP=1.10D-03 DE=-2.02D-04 OVMax= 3.24D-03

 Cycle   8  Pass 1  IDiag  1:
 RMSU=  4.74D-06    CP:  9.64D-01  1.50D+00  6.87D-01  6.26D-01  8.57D-01
                    CP:  8.65D-01  8.14D-01
 E= -4069.81181271049     Delta-E=       -0.000028178642 Rises=F Damp=F
 DIIS: error= 5.23D-05 at cycle   8 NSaved=   8.
 NSaved= 8 IEnMin= 8 EnMin= -4069.81181271049     IErMin= 8 ErrMin= 5.23D-05
 ErrMax= 5.23D-05  0.00D+00 EMaxC= 1.00D-01 BMatC= 4.91D-06 BMatP= 2.28D-05
 IDIUse=1 WtCom= 1.00D+00 WtEn= 0.00D+00
 Coeff-Com:  0.219D-02-0.434D-02-0.782D-02-0.122D-01-0.106D-01 0.337D-01
 Coeff-Com:  0.334D+00 0.665D+00
 Coeff:      0.219D-02-0.434D-02-0.782D-02-0.122D-01-0.106D-01 0.337D-01
 Coeff:      0.334D+00 0.665D+00
 Gap=     0.122 Goal=   None    Shift=    0.000
 RMSDP=3.32D-06 MaxDP=3.50D-04 DE=-2.82D-05 OVMax= 1.09D-03

 Cycle   9  Pass 1  IDiag  1:
 RMSU=  1.93D-06    CP:  9.64D-01  1.50D+00  6.87D-01  6.27D-01  8.74D-01
                    CP:  8.92D-01  1.01D+00  9.52D-01
 E= -4069.81182057843     Delta-E=       -0.000007867937 Rises=F Damp=F
 DIIS: error= 2.05D-05 at cycle   9 NSaved=   9.
 NSaved= 9 IEnMin= 9 EnMin= -4069.81182057843     IErMin= 9 ErrMin= 2.05D-05
 ErrMax= 2.05D-05  0.00D+00 EMaxC= 1.00D-01 BMatC= 7.18D-07 BMatP= 4.91D-06
 IDIUse=1 WtCom= 1.00D+00 WtEn= 0.00D+00
 Coeff-Com:  0.481D-03-0.802D-03-0.272D-02-0.607D-02-0.210D-01-0.392D-01
 Coeff-Com:  0.101D+00 0.331D+00 0.638D+00
 Coeff:      0.481D-03-0.802D-03-0.272D-02-0.607D-02-0.210D-01-0.392D-01
 Coeff:      0.101D+00 0.331D+00 0.638D+00
 Gap=     0.122 Goal=   None    Shift=    0.000
 RMSDP=1.43D-06 MaxDP=1.46D-04 DE=-7.87D-06 OVMax= 7.63D-04

 Cycle  10  Pass 1  IDiag  1:
 RMSU=  9.48D-07    CP:  9.64D-01  1.50D+00  6.87D-01  6.27D-01  8.77D-01
                    CP:  9.05D-01  1.05D+00  1.12D+00  1.06D+00
 E= -4069.81182221075     Delta-E=       -0.000001632317 Rises=F Damp=F
 DIIS: error= 1.05D-05 at cycle  10 NSaved=  10.
 NSaved=10 IEnMin=10 EnMin= -4069.81182221075     IErMin=10 ErrMin= 1.05D-05
 ErrMax= 1.05D-05  0.00D+00 EMaxC= 1.00D-01 BMatC= 1.73D-07 BMatP= 7.18D-07
 IDIUse=1 WtCom= 1.00D+00 WtEn= 0.00D+00
 Coeff-Com: -0.426D-03 0.893D-03 0.122D-02 0.109D-02-0.375D-02-0.311D-01
 Coeff-Com: -0.445D-01-0.747D-01 0.245D+00 0.906D+00
 Coeff:     -0.426D-03 0.893D-03 0.122D-02 0.109D-02-0.375D-02-0.311D-01
 Coeff:     -0.445D-01-0.747D-01 0.245D+00 0.906D+00
 Gap=     0.122 Goal=   None    Shift=    0.000
 RMSDP=1.23D-06 MaxDP=1.20D-04 DE=-1.63D-06 OVMax= 6.28D-04

 Cycle  11  Pass 1  IDiag  1:
 RMSU=  5.26D-07    CP:  9.64D-01  1.50D+00  6.88D-01  6.28D-01  8.80D-01
                    CP:  9.15D-01  1.10D+00  1.23D+00  1.39D+00  1.37D+00
 E= -4069.81182301074     Delta-E=       -0.000000799988 Rises=F Damp=F
 DIIS: error= 4.16D-06 at cycle  11 NSaved=  11.
 NSaved=11 IEnMin=11 EnMin= -4069.81182301074     IErMin=11 ErrMin= 4.16D-06
 ErrMax= 4.16D-06  0.00D+00 EMaxC= 1.00D-01 BMatC= 6.55D-08 BMatP= 1.73D-07
 IDIUse=1 WtCom= 1.00D+00 WtEn= 0.00D+00
 Coeff-Com: -0.335D-03 0.652D-03 0.135D-02 0.213D-02 0.441D-02-0.869D-02
 Coeff-Com: -0.422D-01-0.132D+00-0.293D-01 0.479D+00 0.726D+00
 Coeff:     -0.335D-03 0.652D-03 0.135D-02 0.213D-02 0.441D-02-0.869D-02
 Coeff:     -0.422D-01-0.132D+00-0.293D-01 0.479D+00 0.726D+00
 Gap=     0.122 Goal=   None    Shift=    0.000
 RMSDP=6.95D-07 MaxDP=6.24D-05 DE=-8.00D-07 OVMax= 3.82D-04

 Cycle  12  Pass 1  IDiag  1:
 RMSU=  2.68D-07    CP:  9.64D-01  1.50D+00  6.88D-01  6.28D-01  8.81D-01
                    CP:  9.17D-01  1.12D+00  1.29D+00  1.56D+00  1.76D+00
                    CP:  1.19D+00
 E= -4069.81182328088     Delta-E=       -0.000000270149 Rises=F Damp=F
 DIIS: error= 2.58D-06 at cycle  12 NSaved=  12.
 NSaved=12 IEnMin=12 EnMin= -4069.81182328088     IErMin=12 ErrMin= 2.58D-06
 ErrMax= 2.58D-06  0.00D+00 EMaxC= 1.00D-01 BMatC= 1.59D-08 BMatP= 6.55D-08
 IDIUse=1 WtCom= 1.00D+00 WtEn= 0.00D+00
 Coeff-Com: -0.943D-05 0.182D-05 0.215D-03 0.562D-03 0.345D-02 0.369D-02
 Coeff-Com:  0.193D-02-0.371D-01-0.703D-01-0.581D-01 0.257D+00 0.899D+00
 Coeff:     -0.943D-05 0.182D-05 0.215D-03 0.562D-03 0.345D-02 0.369D-02
 Coeff:      0.193D-02-0.371D-01-0.703D-01-0.581D-01 0.257D+00 0.899D+00
 Gap=     0.122 Goal=   None    Shift=    0.000
 RMSDP=4.36D-07 MaxDP=3.11D-05 DE=-2.70D-07 OVMax= 2.53D-04

 Cycle  13  Pass 1  IDiag  1:
 RMSU=  1.68D-07    CP:  9.64D-01  1.50D+00  6.88D-01  6.28D-01  8.81D-01
                    CP:  9.17D-01  1.13D+00  1.32D+00  1.67D+00  1.98D+00
                    CP:  1.60D+00  1.25D+00
 E= -4069.81182337440     Delta-E=       -0.000000093514 Rises=F Damp=F
 DIIS: error= 1.30D-06 at cycle  13 NSaved=  13.
 NSaved=13 IEnMin=13 EnMin= -4069.81182337440     IErMin=13 ErrMin= 1.30D-06
 ErrMax= 1.30D-06  0.00D+00 EMaxC= 1.00D-01 BMatC= 8.70D-09 BMatP= 1.59D-08
 IDIUse=1 WtCom= 1.00D+00 WtEn= 0.00D+00
 Coeff-Com:  0.120D-03-0.245D-03-0.366D-03-0.449D-03 0.662D-03 0.498D-02
 Coeff-Com:  0.192D-01 0.227D-01-0.336D-01-0.239D+00-0.158D+00 0.591D+00
 Coeff-Com:  0.793D+00
 Coeff:      0.120D-03-0.245D-03-0.366D-03-0.449D-03 0.662D-03 0.498D-02
 Coeff:      0.192D-01 0.227D-01-0.336D-01-0.239D+00-0.158D+00 0.591D+00
 Coeff:      0.793D+00
 Gap=     0.122 Goal=   None    Shift=    0.000
 RMSDP=3.49D-07 MaxDP=2.34D-05 DE=-9.35D-08 OVMax= 2.07D-04

 Cycle  14  Pass 1  IDiag  1:
 RMSU=  7.74D-08    CP:  9.64D-01  1.50D+00  6.88D-01  6.28D-01  8.81D-01
                    CP:  9.18D-01  1.14D+00  1.34D+00  1.74D+00  2.18D+00
                    CP:  1.86D+00  1.77D+00  1.10D+00
 E= -4069.81182341298     Delta-E=       -0.000000038581 Rises=F Damp=F
 DIIS: error= 7.14D-07 at cycle  14 NSaved=  14.
 NSaved=14 IEnMin=14 EnMin= -4069.81182341298     IErMin=14 ErrMin= 7.14D-07
 ErrMax= 7.14D-07  0.00D+00 EMaxC= 1.00D-01 BMatC= 1.32D-09 BMatP= 8.70D-09
 IDIUse=1 WtCom= 1.00D+00 WtEn= 0.00D+00
 Coeff-Com:  0.680D-04-0.134D-03-0.251D-03-0.393D-03-0.463D-03 0.127D-02
 Coeff-Com:  0.106D-01 0.196D-01 0.419D-02-0.101D+00-0.145D+00 0.889D-01
 Coeff-Com:  0.406D+00 0.717D+00
 Coeff:      0.680D-04-0.134D-03-0.251D-03-0.393D-03-0.463D-03 0.127D-02
 Coeff:      0.106D-01 0.196D-01 0.419D-02-0.101D+00-0.145D+00 0.889D-01
 Coeff:      0.406D+00 0.717D+00
 Gap=     0.122 Goal=   None    Shift=    0.000
 RMSDP=1.06D-07 MaxDP=7.01D-06 DE=-3.86D-08 OVMax= 5.82D-05

 Cycle  15  Pass 1  IDiag  1:
 RMSU=  3.86D-08    CP:  9.64D-01  1.50D+00  6.88D-01  6.28D-01  8.81D-01
                    CP:  9.18D-01  1.14D+00  1.35D+00  1.76D+00  2.22D+00
                    CP:  1.97D+00  1.91D+00  1.34D+00  1.04D+00
 E= -4069.81182341712     Delta-E=       -0.000000004136 Rises=F Damp=F
 DIIS: error= 3.37D-07 at cycle  15 NSaved=  15.
 NSaved=15 IEnMin=15 EnMin= -4069.81182341712     IErMin=15 ErrMin= 3.37D-07
 ErrMax= 3.37D-07  0.00D+00 EMaxC= 1.00D-01 BMatC= 2.29D-10 BMatP= 1.32D-09
 IDIUse=1 WtCom= 1.00D+00 WtEn= 0.00D+00
 Coeff-Com:  0.612D-05-0.104D-04-0.353D-04-0.856D-04-0.298D-03-0.510D-03
 Coeff-Com:  0.120D-02 0.275D-02 0.874D-02 0.613D-03-0.310D-01-0.721D-01
 Coeff-Com:  0.321D-01 0.295D+00 0.763D+00
 Coeff:      0.612D-05-0.104D-04-0.353D-04-0.856D-04-0.298D-03-0.510D-03
 Coeff:      0.120D-02 0.275D-02 0.874D-02 0.613D-03-0.310D-01-0.721D-01
 Coeff:      0.321D-01 0.295D+00 0.763D+00
 Gap=     0.122 Goal=   None    Shift=    0.000
 RMSDP=3.98D-08 MaxDP=2.64D-06 DE=-4.14D-09 OVMax= 2.75D-05

 Cycle  16  Pass 1  IDiag  1:
 RMSU=  1.87D-08    CP:  9.64D-01  1.50D+00  6.88D-01  6.28D-01  8.81D-01
                    CP:  9.18D-01  1.14D+00  1.35D+00  1.76D+00  2.23D+00
                    CP:  1.99D+00  1.97D+00  1.41D+00  1.24D+00  1.15D+00
 E= -4069.81182341815     Delta-E=       -0.000000001033 Rises=F Damp=F
 DIIS: error= 1.80D-07 at cycle  16 NSaved=  16.
 NSaved=16 IEnMin=16 EnMin= -4069.81182341815     IErMin=16 ErrMin= 1.80D-07
 ErrMax= 1.80D-07  0.00D+00 EMaxC= 1.00D-01 BMatC= 8.51D-11 BMatP= 2.29D-10
 IDIUse=1 WtCom= 1.00D+00 WtEn= 0.00D+00
 Coeff-Com: -0.140D-04 0.285D-04 0.462D-04 0.522D-04-0.302D-04-0.627D-03
 Coeff-Com: -0.187D-02-0.421D-02 0.431D-02 0.251D-01 0.209D-01-0.635D-01
 Coeff-Com: -0.807D-01-0.404D-01 0.397D+00 0.744D+00
 Coeff:     -0.140D-04 0.285D-04 0.462D-04 0.522D-04-0.302D-04-0.627D-03
 Coeff:     -0.187D-02-0.421D-02 0.431D-02 0.251D-01 0.209D-01-0.635D-01
 Coeff:     -0.807D-01-0.404D-01 0.397D+00 0.744D+00
 Gap=     0.122 Goal=   None    Shift=    0.000
 RMSDP=2.32D-08 MaxDP=1.65D-06 DE=-1.03D-09 OVMax= 1.28D-05

 Cycle  17  Pass 1  IDiag  1:
 RMSU=  1.04D-08    CP:  9.64D-01  1.50D+00  6.88D-01  6.28D-01  8.81D-01
                    CP:  9.18D-01  1.14D+00  1.35D+00  1.77D+00  2.24D+00
                    CP:  2.01D+00  1.99D+00  1.46D+00  1.34D+00  1.44D+00
                    CP:  1.25D+00
 E= -4069.81182341852     Delta-E=       -0.000000000367 Rises=F Damp=F
 DIIS: error= 9.34D-08 at cycle  17 NSaved=  17.
 NSaved=17 IEnMin=17 EnMin= -4069.81182341852     IErMin=17 ErrMin= 9.34D-08
 ErrMax= 9.34D-08  0.00D+00 EMaxC= 1.00D-01 BMatC= 1.82D-11 BMatP= 8.51D-11
 IDIUse=1 WtCom= 1.00D+00 WtEn= 0.00D+00
 Coeff-Com: -0.731D-05 0.142D-04 0.288D-04 0.426D-04 0.827D-04-0.127D-03
 Coeff-Com: -0.920D-03-0.282D-02 0.498D-04 0.932D-02 0.176D-01-0.740D-02
 Coeff-Com: -0.354D-01-0.101D+00-0.292D-01 0.290D+00 0.860D+00
 Coeff:     -0.731D-05 0.142D-04 0.288D-04 0.426D-04 0.827D-04-0.127D-03
 Coeff:     -0.920D-03-0.282D-02 0.498D-04 0.932D-02 0.176D-01-0.740D-02
 Coeff:     -0.354D-01-0.101D+00-0.292D-01 0.290D+00 0.860D+00
 Gap=     0.122 Goal=   None    Shift=    0.000
 RMSDP=1.36D-08 MaxDP=1.04D-06 DE=-3.67D-10 OVMax= 9.09D-06

 Cycle  18  Pass 1  IDiag  1:
 RMSU=  4.88D-09    CP:  9.64D-01  1.50D+00  6.88D-01  6.28D-01  8.81D-01
                    CP:  9.18D-01  1.14D+00  1.35D+00  1.77D+00  2.24D+00
                    CP:  2.01D+00  2.00D+00  1.48D+00  1.41D+00  1.61D+00
                    CP:  1.65D+00  1.39D+00
 E= -4069.81182341833     Delta-E=        0.000000000189 Rises=F Damp=F
 DIIS: error= 5.72D-08 at cycle  18 NSaved=  18.
 NSaved=18 IEnMin=17 EnMin= -4069.81182341852     IErMin=18 ErrMin= 5.72D-08
 ErrMax= 5.72D-08  0.00D+00 EMaxC= 1.00D-01 BMatC= 7.18D-12 BMatP= 1.82D-11
 IDIUse=1 WtCom= 1.00D+00 WtEn= 0.00D+00
 Coeff-Com:  0.187D-05-0.405D-05-0.392D-05-0.894D-06 0.603D-04 0.174D-03
 Coeff-Com:  0.374D-03 0.179D-03-0.123D-02-0.583D-02-0.870D-05 0.191D-01
 Coeff-Com:  0.179D-01-0.321D-01-0.159D+00-0.188D+00 0.354D+00 0.995D+00
 Coeff:      0.187D-05-0.405D-05-0.392D-05-0.894D-06 0.603D-04 0.174D-03
 Coeff:      0.374D-03 0.179D-03-0.123D-02-0.583D-02-0.870D-05 0.191D-01
 Coeff:      0.179D-01-0.321D-01-0.159D+00-0.188D+00 0.354D+00 0.995D+00
 Gap=     0.122 Goal=   None    Shift=    0.000
 RMSDP=1.16D-08 MaxDP=7.79D-07 DE= 1.89D-10 OVMax= 6.54D-06

 Cycle  19  Pass 1  IDiag  1:
 RMSU=  2.82D-09    CP:  9.64D-01  1.50D+00  6.88D-01  6.28D-01  8.81D-01
                    CP:  9.18D-01  1.14D+00  1.35D+00  1.77D+00  2.24D+00
                    CP:  2.01D+00  2.00D+00  1.49D+00  1.45D+00  1.76D+00
                    CP:  1.98D+00  1.94D+00  1.37D+00
 E= -4069.81182341855     Delta-E=       -0.000000000226 Rises=F Damp=F
 DIIS: error= 2.93D-08 at cycle  19 NSaved=  19.
 NSaved=19 IEnMin=19 EnMin= -4069.81182341855     IErMin=19 ErrMin= 2.93D-08
 ErrMax= 2.93D-08  0.00D+00 EMaxC= 1.00D-01 BMatC= 1.50D-12 BMatP= 7.18D-12
 IDIUse=1 WtCom= 1.00D+00 WtEn= 0.00D+00
 Coeff-Com:  0.288D-05-0.582D-05-0.980D-05-0.122D-04 0.123D-04 0.117D-03
 Coeff-Com:  0.460D-03 0.794D-03-0.563D-03-0.590D-02-0.488D-02 0.117D-01
 Coeff-Com:  0.201D-01 0.118D-01-0.688D-01-0.179D+00-0.340D-01 0.493D+00
 Coeff-Com:  0.755D+00
 Coeff:      0.288D-05-0.582D-05-0.980D-05-0.122D-04 0.123D-04 0.117D-03
 Coeff:      0.460D-03 0.794D-03-0.563D-03-0.590D-02-0.488D-02 0.117D-01
 Coeff:      0.201D-01 0.118D-01-0.688D-01-0.179D+00-0.340D-01 0.493D+00
 Coeff:      0.755D+00
 Gap=     0.122 Goal=   None    Shift=    0.000
 RMSDP=4.64D-09 MaxDP=3.34D-07 DE=-2.26D-10 OVMax= 3.17D-06

 SCF Done:  E(RCAM-B3LYP) =  -4069.81182342     A.U. after   19 cycles
            NFock= 19  Conv=0.46D-08     -V/T= 2.0102
 KE= 4.028802017415D+03 PE=-3.798291576050D+04 EE= 1.563333668850D+04
 Leave Link  502 at Sat Sep  4 10:38:11 2021, MaxMem= 23488102400 cpu:           12164.7 elap:             530.2
 (Enter /sw/apps/gaussian-16.0/g16/l801.exe)
 DoSCS=F DFT=T ScalE2(SS,OS)=  1.000000  1.000000
 ExpMin= 3.36D-02 ExpMax= 4.95D+03 ExpMxC= 7.45D+02 IAcc=3 IRadAn=         5 AccDes= 0.00D+00
 HarFok:  IExCor=  205 AccDes= 0.00D+00 IRadAn=         5 IDoV=-2 UseB2=F ITyADJ=14
 ICtDFT= 12500011 ScaDFX=  1.000000  1.000000  1.000000  1.000000
 GSVD:  LWork=       -9588 too small for GESVD, short by       45590 words or       45590 for optimal perf.
 Largest valence mixing into a core orbital is  2.03D-04
 Largest core mixing into a valence orbital is  5.24D-05
 Range of M.O.s used for correlation:    95  1572
 NBasis=  1572 NAE=   312 NBE=   312 NFC=    94 NFV=     0
 NROrb=   1478 NOA=   218 NOB=   218 NVA=  1260 NVB=  1260
 Leave Link  801 at Sat Sep  4 10:38:11 2021, MaxMem= 23488102400 cpu:               7.6 elap:               0.3
 (Enter /sw/apps/gaussian-16.0/g16/l914.exe)
 RHF ground state
 Two-electron integrals replicated using symmetry.
 MDV= 23488102400 DFT=T DoStab=F Mixed=T DoRPA=T DoScal=F NonHer=T
 Making orbital integer symmetry assigments:
 Orbital symmetries:
       Occupied  (A) (A) (A) (A) (A) (A) (A) (A) (A) (A) (A) (A)
                 (A) (A) (A) (A) (A) (A) (A) (A) (A) (A) (A) (A)
                 (A) (A) (A) (A) (A) (A) (A) (A) (A) (A) (A) (A)
                 (A) (A) (A) (A) (A) (A) (A) (A) (A) (A) (A) (A)
                 (A) (A) (A) (A) (A) (A) (A) (A) (A) (A) (A) (A)
                 (A) (A) (A) (A) (A) (A) (A) (A) (A) (A) (A) (A)
                 (A) (A) (A) (A) (A) (A) (A) (A) (A) (A) (A) (A)
                 (A) (A) (A) (A) (A) (A) (A) (A) (A) (A) (A) (A)
                 (A) (A) (A) (A) (A) (A) (A) (A) (A) (A) (A) (A)
                 (A) (A) (A) (A) (A) (A) (A) (A) (A) (A) (A) (A)
                 (A) (A) (A) (A) (A) (A) (A) (A) (A) (A) (A) (A)
                 (A) (A) (A) (A) (A) (A) (A) (A) (A) (A) (A) (A)
                 (A) (A) (A) (A) (A) (A) (A) (A) (A) (A) (A) (A)
                 (A) (A) (A) (A) (A) (A) (A) (A) (A) (A) (A) (A)
                 (A) (A) (A) (A) (A) (A) (A) (A) (A) (A) (A) (A)
                 (A) (A) (A) (A) (A) (A) (A) (A) (A) (A) (A) (A)
                 (A) (A) (A) (A) (A) (A) (A) (A) (A) (A) (A) (A)
                 (A) (A) (A) (A) (A) (A) (A) (A) (A) (A) (A) (A)
                 (A) (A) (A) (A) (A) (A) (A) (A) (A) (A) (A) (A)
                 (A) (A) (A) (A) (A) (A) (A) (A) (A) (A) (A) (A)
                 (A) (A) (A) (A) (A) (A) (A) (A) (A) (A) (A) (A)
                 (A) (A) (A) (A) (A) (A) (A) (A) (A) (A) (A) (A)
                 (A) (A) (A) (A) (A) (A) (A) (A) (A) (A) (A) (A)
                 (A) (A) (A) (A) (A) (A) (A) (A) (A) (A) (A) (A)
                 (A) (A) (A) (A) (A) (A) (A) (A) (A) (A) (A) (A)
                 (A) (A) (A) (A) (A) (A) (A) (A) (A) (A) (A) (A)
       Virtual   (A) (A) (A) (A) (A) (A) (A) (A) (A) (A) (A) (A)
                 (A) (A) (A) (A) (A) (A) (A) (A) (A) (A) (A) (A)
                 (A) (A) (A) (A) (A) (A) (A) (A) (A) (A) (A) (A)
                 (A) (A) (A) (A) (A) (A) (A) (A) (A) (A) (A) (A)
                 (A) (A) (A) (A) (A) (A) (A) (A) (A) (A) (A) (A)
                 (A) (A) (A) (A) (A) (A) (A) (A) (A) (A) (A) (A)
                 (A) (A) (A) (A) (A) (A) (A) (A) (A) (A) (A) (A)
                 (A) (A) (A) (A) (A) (A) (A) (A) (A) (A) (A) (A)
                 (A) (A) (A) (A) (A) (A) (A) (A) (A) (A) (A) (A)
                 (A) (A) (A) (A) (A) (A) (A) (A) (A) (A) (A) (A)
                 (A) (A) (A) (A) (A) (A) (A) (A) (A) (A) (A) (A)
                 (A) (A) (A) (A) (A) (A) (A) (A) (A) (A) (A) (A)
                 (A) (A) (A) (A) (A) (A) (A) (A) (A) (A) (A) (A)
                 (A) (A) (A) (A) (A) (A) (A) (A) (A) (A) (A) (A)
                 (A) (A) (A) (A) (A) (A) (A) (A) (A) (A) (A) (A)
                 (A) (A) (A) (A) (A) (A) (A) (A) (A) (A) (A) (A)
                 (A) (A) (A) (A) (A) (A) (A) (A) (A) (A) (A) (A)
                 (A) (A) (A) (A) (A) (A) (A) (A) (A) (A) (A) (A)
                 (A) (A) (A) (A) (A) (A) (A) (A) (A) (A) (A) (A)
                 (A) (A) (A) (A) (A) (A) (A) (A) (A) (A) (A) (A)
                 (A) (A) (A) (A) (A) (A) (A) (A) (A) (A) (A) (A)
                 (A) (A) (A) (A) (A) (A) (A) (A) (A) (A) (A) (A)
                 (A) (A) (A) (A) (A) (A) (A) (A) (A) (A) (A) (A)
                 (A) (A) (A) (A) (A) (A) (A) (A) (A) (A) (A) (A)
                 (A) (A) (A) (A) (A) (A) (A) (A) (A) (A) (A) (A)
                 (A) (A) (A) (A) (A) (A) (A) (A) (A) (A) (A) (A)
                 (A) (A) (A) (A) (A) (A) (A) (A) (A) (A) (A) (A)
                 (A) (A) (A) (A) (A) (A) (A) (A) (A) (A) (A) (A)
                 (A) (A) (A) (A) (A) (A) (A) (A) (A) (A) (A) (A)
                 (A) (A) (A) (A) (A) (A) (A) (A) (A) (A) (A) (A)
                 (A) (A) (A) (A) (A) (A) (A) (A) (A) (A) (A) (A)
                 (A) (A) (A) (A) (A) (A) (A) (A) (A) (A) (A) (A)
                 (A) (A) (A) (A) (A) (A) (A) (A) (A) (A) (A) (A)
                 (A) (A) (A) (A) (A) (A) (A) (A) (A) (A) (A) (A)
                 (A) (A) (A) (A) (A) (A) (A) (A) (A) (A) (A) (A)
                 (A) (A) (A) (A) (A) (A) (A) (A) (A) (A) (A) (A)
                 (A) (A) (A) (A) (A) (A) (A) (A) (A) (A) (A) (A)
                 (A) (A) (A) (A) (A) (A) (A) (A) (A) (A) (A) (A)
                 (A) (A) (A) (A) (A) (A) (A) (A) (A) (A) (A) (A)
                 (A) (A) (A) (A) (A) (A) (A) (A) (A) (A) (A) (A)
                 (A) (A) (A) (A) (A) (A) (A) (A) (A) (A) (A) (A)
                 (A) (A) (A) (A) (A) (A) (A) (A) (A) (A) (A) (A)
                 (A) (A) (A) (A) (A) (A) (A) (A) (A) (A) (A) (A)
                 (A) (A) (A) (A) (A) (A) (A) (A) (A) (A) (A) (A)
                 (A) (A) (A) (A) (A) (A) (A) (A) (A) (A) (A) (A)
                 (A) (A) (A) (A) (A) (A) (A) (A) (A) (A) (A) (A)
                 (A) (A) (A) (A) (A) (A) (A) (A) (A) (A) (A) (A)
                 (A) (A) (A) (A) (A) (A) (A) (A) (A) (A) (A) (A)
                 (A) (A) (A) (A) (A) (A) (A) (A) (A) (A) (A) (A)
                 (A) (A) (A) (A) (A) (A) (A) (A) (A) (A) (A) (A)
                 (A) (A) (A) (A) (A) (A) (A) (A) (A) (A) (A) (A)
                 (A) (A) (A) (A) (A) (A) (A) (A) (A) (A) (A) (A)
                 (A) (A) (A) (A) (A) (A) (A) (A) (A) (A) (A) (A)
                 (A) (A) (A) (A) (A) (A) (A) (A) (A) (A) (A) (A)
                 (A) (A) (A) (A) (A) (A) (A) (A) (A) (A) (A) (A)
                 (A) (A) (A) (A) (A) (A) (A) (A) (A) (A) (A) (A)
                 (A) (A) (A) (A) (A) (A) (A) (A) (A) (A) (A) (A)
                 (A) (A) (A) (A) (A) (A) (A) (A) (A) (A) (A) (A)
                 (A) (A) (A) (A) (A) (A) (A) (A) (A) (A) (A) (A)
                 (A) (A) (A) (A) (A) (A) (A) (A) (A) (A) (A) (A)
                 (A) (A) (A) (A) (A) (A) (A) (A) (A) (A) (A) (A)
                 (A) (A) (A) (A) (A) (A) (A) (A) (A) (A) (A) (A)
                 (A) (A) (A) (A) (A) (A) (A) (A) (A) (A) (A) (A)
                 (A) (A) (A) (A) (A) (A) (A) (A) (A) (A) (A) (A)
                 (A) (A) (A) (A) (A) (A) (A) (A) (A) (A) (A) (A)
                 (A) (A) (A) (A) (A) (A) (A) (A) (A) (A) (A) (A)
                 (A) (A) (A) (A) (A) (A) (A) (A) (A) (A) (A) (A)
                 (A) (A) (A) (A) (A) (A) (A) (A) (A) (A) (A) (A)
                 (A) (A) (A) (A) (A) (A) (A) (A) (A) (A) (A) (A)
                 (A) (A) (A) (A) (A) (A) (A) (A) (A) (A) (A) (A)
                 (A) (A) (A) (A) (A) (A) (A) (A) (A) (A) (A) (A)
                 (A) (A) (A) (A) (A) (A) (A) (A) (A) (A) (A) (A)
                 (A) (A) (A) (A) (A) (A) (A) (A) (A) (A) (A) (A)
                 (A) (A) (A) (A) (A) (A) (A) (A) (A) (A) (A) (A)
                 (A) (A) (A) (A) (A) (A) (A) (A) (A) (A) (A) (A)
                 (A) (A) (A) (A) (A) (A) (A) (A) (A) (A) (A) (A)
                 (A) (A) (A) (A) (A) (A) (A) (A) (A) (A) (A) (A)
                 (A) (A) (A) (A) (A) (A) (A) (A) (A) (A) (A) (A)
                 (A) (A) (A) (A) (A) (A) (A) (A) (A) (A) (A) (A)
                 (A) (A) (A) (A) (A) (A) (A) (A) (A) (A) (A) (A)
                 (A) (A) (A) (A) (A) (A) (A) (A) (A) (A) (A) (A)
                 (A) (A) (A) (A) (A) (A) (A) (A) (A) (A) (A) (A)
                 (A) (A) (A) (A) (A) (A) (A) (A) (A) (A) (A) (A)
                 (A) (A) (A) (A) (A) (A) (A) (A) (A) (A) (A) (A)
                 (A) (A) (A) (A) (A) (A) (A) (A) (A) (A) (A) (A)
                 (A) (A) (A) (A) (A) (A) (A) (A) (A) (A) (A) (A)
                 (A) (A) (A) (A) (A) (A) (A) (A) (A) (A) (A) (A)
                 (A) (A) (A) (A) (A) (A) (A) (A) (A) (A) (A) (A)
                 (A) (A) (A) (A) (A) (A) (A) (A) (A) (A) (A) (A)
                 (A) (A) (A) (A) (A) (A) (A) (A) (A) (A) (A) (A)
                 (A) (A) (A) (A) (A) (A) (A) (A) (A) (A) (A) (A)
                 (A) (A) (A) (A) (A) (A) (A) (A) (A) (A) (A) (A)
                 (A) (A) (A) (A) (A) (A) (A) (A) (A) (A) (A) (A)
                 (A) (A) (A) (A) (A) (A) (A) (A) (A) (A) (A) (A)
                 (A) (A) (A) (A) (A) (A) (A) (A) (A) (A) (A) (A)
                 (A) (A) (A) (A) (A) (A) (A) (A) (A) (A) (A) (A)
                 (A) (A) (A) (A) (A) (A) (A) (A) (A) (A) (A) (A)
                 (A) (A) (A) (A) (A) (A) (A) (A) (A) (A) (A) (A)
                 (A) (A) (A) (A) (A) (A) (A) (A) (A) (A) (A) (A)
                 (A) (A) (A) (A) (A) (A) (A) (A) (A) (A) (A) (A)
                 (A) (A) (A) (A) (A) (A) (A) (A) (A) (A) (A) (A)
                 (A) (A) (A) (A) (A) (A) (A) (A) (A) (A) (A) (A)
                 (A) (A) (A) (A) (A) (A) (A) (A) (A) (A) (A) (A)
                 (A) (A) (A) (A) (A) (A) (A) (A) (A) (A) (A) (A)
                 (A) (A) (A) (A) (A) (A) (A) (A) (A) (A) (A) (A)
    20 initial guesses have been made.
 Convergence on wavefunction:    0.001000000000000
 Davidson Disk Diagonalization:  ConvIn= 1.00D-03 SkipCon=T Conv= 1.00D-03.
 Max sub-space:  2000 roots to seek:    20 dimension of matrix:       549360
 Iteration     1 Dimension    20 NMult     0 NNew     20
 CISAX will form    20 AO SS matrices at one time.
 NMat=    20 NSing=    20 JSym2X= 0.
 FoFJK:  IHMeth= 1 ICntrl=       0 DoSepK=T KAlg= 0 I1Cent=           0 FoldK=F
 IRaf=         1 NMat=      40 IRICut=       1 DoRegI=T DoRafI=F ISym2E= 0 IDoP0=3 IntGTp=3.
 FoFCou: FMM=T IPFlag=           0 FMFlag=      100000 FMFlg1=        2001
         NFxFlg=           0 DoJE=F BraDBF=F KetDBF=F FulRan=T
         wScrn=  0.000000 ICntrl=       500 IOpCl=  0 I1Cent=           0 NGrid=           0
         NMat0=   20 NMatS0=     20 NMatT0=    0 NMatD0=   20 NMtDS0=    0 NMtDT0=    0
 Symmetry not used in FoFCou.
 FMM levels:  10  Number of levels for PrismC:   9
 New state      1 was old state      7
 New state      2 was old state      6
 New state      3 was old state      1
 New state      4 was old state      2
 New state      5 was old state      3
 Excitation Energies [eV] at current iteration:
 Root      1 :     2.612727014048927
 Root      2 :     2.620603232717722
 Root      3 :     2.647349028678565
 Root      4 :     2.663709697765940
 Root      5 :     2.706776100730894
 Root      6 :     2.741165038077694
 Root      7 :     3.436135982138712
 Root      8 :     3.542364261671584
 Root      9 :     3.626646748464516
 Root     10 :     3.669208061643303
 Root     11 :     3.738863409026649
 Root     12 :     3.758986296372782
 Root     13 :     4.286632923818900
 Root     14 :     4.321236270514954
 Root     15 :     4.554336379833837
 Root     16 :     4.674873317701825
 Root     17 :     4.864983525687347
 Root     18 :     4.901204287601511
 Root     19 :     4.966266404599003
 Root     20 :     5.000215358854594
 Iteration     2 Dimension    30 NMult    20 NNew     10
 CISAX will form    10 AO SS matrices at one time.
 NMat=    10 NSing=    10 JSym2X= 0.
 New state      1 was old state      4
 Root      1 not converged, maximum delta is    0.151174666864246
 New state      2 was old state      5
 Root      2 not converged, maximum delta is    0.156386169333297
 New state      3 was old state      1
 Root      3 not converged, maximum delta is    0.356936052000643
 New state      4 was old state      2
 Root      4 not converged, maximum delta is    0.344534769097424
 New state      5 was old state      3
 Root      5 not converged, maximum delta is    0.001188270027600
 Excitation Energies [eV] at current iteration:
 Root      1 :     1.793388472023678   Change is   -0.870321225742262
 Root      2 :     1.813928256002149   Change is   -0.892847844728745
 Root      3 :     2.234282217699560   Change is   -0.378444796349367
 Root      4 :     2.240434854758004   Change is   -0.380168377959718
 Root      5 :     2.647178790389940   Change is   -0.000170238288626
 Iteration     3 Dimension    40 NMult    30 NNew     10
 CISAX will form    10 AO SS matrices at one time.
 NMat=    10 NSing=    10 JSym2X= 0.
 Root      1 not converged, maximum delta is    0.055742487880319
 Root      2 not converged, maximum delta is    0.056732406838294
 Root      3 not converged, maximum delta is    0.111517625524390
 Root      4 not converged, maximum delta is    0.111018350689755
 Root      5 has converged.
 Excitation Energies [eV] at current iteration:
 Root      1 :     1.686689441337466   Change is   -0.106699030686213
 Root      2 :     1.705212422744002   Change is   -0.108715833258147
 Root      3 :     2.192715209333006   Change is   -0.041567008366554
 Root      4 :     2.201256915667103   Change is   -0.039177939090901
 Root      5 :     2.647178007033464   Change is   -0.000000783356475
 Iteration     4 Dimension    48 NMult    40 NNew      8
 CISAX will form     8 AO SS matrices at one time.
 NMat=     8 NSing=     8 JSym2X= 0.
 Root      1 not converged, maximum delta is    0.010786714343081
 Root      2 not converged, maximum delta is    0.010703142025066
 Root      3 not converged, maximum delta is    0.013261663566886
 Root      4 not converged, maximum delta is    0.013133591745415
 Root      5 has converged.
 Excitation Energies [eV] at current iteration:
 Root      1 :     1.669972260170403   Change is   -0.016717181167063
 Root      2 :     1.688342515836700   Change is   -0.016869906907302
 Root      3 :     2.185382393950877   Change is   -0.007332815382129
 Root      4 :     2.194463144008626   Change is   -0.006793771658478
 Root      5 :     2.647178007030203   Change is   -0.000000000003261
 Iteration     5 Dimension    56 NMult    48 NNew      8
 CISAX will form     8 AO SS matrices at one time.
 NMat=     8 NSing=     8 JSym2X= 0.
 Root      1 not converged, maximum delta is    0.001726226720291
 Root      2 not converged, maximum delta is    0.001779951931831
 Root      3 not converged, maximum delta is    0.002481901365345
 Root      4 not converged, maximum delta is    0.002294677895636
 Root      5 has converged.
 Excitation Energies [eV] at current iteration:
 Root      1 :     1.668214448517485   Change is   -0.001757811652918
 Root      2 :     1.686551816575750   Change is   -0.001790699260949
 Root      3 :     2.184526644780522   Change is   -0.000855749170355
 Root      4 :     2.193689248419667   Change is   -0.000773895588959
 Root      5 :     2.647178007029365   Change is   -0.000000000000838
 Iteration     6 Dimension    64 NMult    56 NNew      8
 CISAX will form     8 AO SS matrices at one time.
 NMat=     8 NSing=     8 JSym2X= 0.
 Root      1 not converged, maximum delta is    0.001086442811729
 Root      2 not converged, maximum delta is    0.001097655174582
 Root      3 not converged, maximum delta is    0.001059649327599
 Root      4 has converged.
 Root      5 has converged.
 Excitation Energies [eV] at current iteration:
 Root      1 :     1.667964047738826   Change is   -0.000250400778659
 Root      2 :     1.686294691457835   Change is   -0.000257125117916
 Root      3 :     2.184396922101838   Change is   -0.000129722678685
 Root      4 :     2.193571153362547   Change is   -0.000118095057120
 Root      5 :     2.647178007029178   Change is   -0.000000000000186
 Iteration     7 Dimension    70 NMult    64 NNew      6
 CISAX will form     6 AO SS matrices at one time.
 NMat=     6 NSing=     6 JSym2X= 0.
 Root      1 has converged.
 Root      2 has converged.
 Root      3 has converged.
 Root      4 has converged.
 Root      5 has converged.
 Excitation Energies [eV] at current iteration:
 Root      1 :     1.667939692497495   Change is   -0.000024355241331
[...]
 Alpha virt. eigenvalues --    1.84426   1.84579   1.84788   1.84865   1.85074
 Alpha virt. eigenvalues --    1.85183   1.85250   1.85382   1.85478   1.85552
 Alpha virt. eigenvalues --    1.85845   1.85969   1.86342   1.86440   1.86536
 Alpha virt. eigenvalues --    1.86714   1.86760   1.86875   1.87006   1.87107
 Alpha virt. eigenvalues --    1.87415   1.87554   1.87646   1.87844   1.87845
 Alpha virt. eigenvalues --    1.88015   1.88073   1.88245   1.88510   1.88648
 Alpha virt. eigenvalues --    1.88788   1.89029   1.89108   1.89154   1.89608
 Alpha virt. eigenvalues --    1.89720   1.89728   1.89925   1.90093   1.90261
 Alpha virt. eigenvalues --    1.90720   1.90973   1.91316   1.91416   1.91485
 Alpha virt. eigenvalues --    1.91699   1.92128   1.92268   1.92571   1.92739
 Alpha virt. eigenvalues --    1.92961   1.93218   1.93323   1.93556   1.94259
 Alpha virt. eigenvalues --    1.94364   1.94671   1.94871   1.95463   1.95643
 Alpha virt. eigenvalues --    1.95690   1.95896   1.95954   1.96119   1.96134
 Alpha virt. eigenvalues --    1.96254   1.96551   1.96569   1.96873   1.97006
 Alpha virt. eigenvalues --    1.97424   1.97607   1.97812   1.97878   1.98135
 Alpha virt. eigenvalues --    1.98253   1.98434   1.98617   1.99100   1.99142
 Alpha virt. eigenvalues --    1.99778   2.00016   2.00640   2.00792   2.00961
 Alpha virt. eigenvalues --    2.01169   2.01424   2.01557   2.01653   2.01679
 Alpha virt. eigenvalues --    2.01682   2.01907   2.02752   2.02780   2.03201
 Alpha virt. eigenvalues --    2.03211   2.03367   2.03441   2.03452   2.03594
 Alpha virt. eigenvalues --    2.04002   2.04094   2.04938   2.05030   2.05494
 Alpha virt. eigenvalues --    2.05681   2.06056   2.06343   2.06854   2.07118
 Alpha virt. eigenvalues --    2.07160   2.07414   2.08576   2.08583   2.08952
 Alpha virt. eigenvalues --    2.09076   2.09550   2.09678   2.10769   2.11080
 Alpha virt. eigenvalues --    2.11157   2.11470   2.11486   2.11614   2.11700
 Alpha virt. eigenvalues --    2.11936   2.12427   2.12547   2.12782   2.12809
 Alpha virt. eigenvalues --    2.12860   2.12948   2.13709   2.13734   2.14125
 Alpha virt. eigenvalues --    2.14306   2.15310   2.15461   2.15892   2.16167
 Alpha virt. eigenvalues --    2.16505   2.16658   2.16733   2.17237   2.17388
 Alpha virt. eigenvalues --    2.17681   2.17698   2.18024   2.18053   2.18057
 Alpha virt. eigenvalues --    2.18282   2.18753   2.18820   2.19324   2.19603
 Alpha virt. eigenvalues --    2.19894   2.20000   2.20183   2.20311   2.20510
 Alpha virt. eigenvalues --    2.21142   2.21214   2.21646   2.21710   2.21827
 Alpha virt. eigenvalues --    2.21939   2.22654   2.22772   2.23293   2.23398
 Alpha virt. eigenvalues --    2.24376   2.24466   2.24951   2.25043   2.26257
 Alpha virt. eigenvalues --    2.26515   2.26755   2.27064   2.27073   2.27275
 Alpha virt. eigenvalues --    2.28103   2.28407   2.29244   2.29506   2.29698
 Alpha virt. eigenvalues --    2.29955   2.30409   2.30709   2.30913   2.31041
 Alpha virt. eigenvalues --    2.31132   2.31260   2.32102   2.32288   2.33097
 Alpha virt. eigenvalues --    2.33309   2.33429   2.33545   2.34113   2.34206
 Alpha virt. eigenvalues --    2.35318   2.35378   2.35760   2.35989   2.36340
 Alpha virt. eigenvalues --    2.36390   2.36489   2.36597   2.37645   2.37726
 Alpha virt. eigenvalues --    2.38243   2.38418   2.38804   2.38867   2.39580
 Alpha virt. eigenvalues --    2.39730   2.40157   2.40315   2.40442   2.40910
 Alpha virt. eigenvalues --    2.41214   2.41291   2.41665   2.41740   2.41992
 Alpha virt. eigenvalues --    2.42199   2.42858   2.42929   2.43153   2.43453
 Alpha virt. eigenvalues --    2.44030   2.44126   2.44700   2.44862   2.44869
 Alpha virt. eigenvalues --    2.45060   2.45526   2.45624   2.46285   2.46335
 Alpha virt. eigenvalues --    2.46449   2.46544   2.46764   2.46862   2.47229
 Alpha virt. eigenvalues --    2.47427   2.47686   2.47935   2.49293   2.49424
 Alpha virt. eigenvalues --    2.49930   2.50052   2.50493   2.50533   2.51073
 Alpha virt. eigenvalues --    2.51339   2.51654   2.51843   2.52384   2.52468
 Alpha virt. eigenvalues --    2.52771   2.53239   2.53893   2.54014   2.54137
 Alpha virt. eigenvalues --    2.54305   2.54763   2.54857   2.55497   2.55714
 Alpha virt. eigenvalues --    2.57839   2.58124   2.58619   2.58960   2.60159
 Alpha virt. eigenvalues --    2.60374   2.60564   2.60995   2.61686   2.61867
 Alpha virt. eigenvalues --    2.62483   2.62490   2.62923   2.63180   2.63899
 Alpha virt. eigenvalues --    2.64229   2.64289   2.64459   2.65047   2.65151
 Alpha virt. eigenvalues --    2.65737   2.65928   2.66756   2.66856   2.66879
 Alpha virt. eigenvalues --    2.67122   2.67881   2.68035   2.68820   2.68856
 Alpha virt. eigenvalues --    2.68978   2.69097   2.69365   2.69648   2.69965
 Alpha virt. eigenvalues --    2.70181   2.70943   2.71131   2.71942   2.72010
 Alpha virt. eigenvalues --    2.72546   2.72612   2.72759   2.72804   2.73258
 Alpha virt. eigenvalues --    2.73314   2.73460   2.73531   2.74478   2.74551
 Alpha virt. eigenvalues --    2.74938   2.75103   2.76561   2.76567   2.77113
 Alpha virt. eigenvalues --    2.77196   2.77425   2.77641   2.78170   2.78313
 Alpha virt. eigenvalues --    2.78686   2.78728   2.79100   2.79206   2.80279
 Alpha virt. eigenvalues --    2.80313   2.80535   2.80741   2.81084   2.81189
 Alpha virt. eigenvalues --    2.81896   2.82040   2.82315   2.82376   2.83710
 Alpha virt. eigenvalues --    2.83744   2.83863   2.83957   2.84523   2.84553
 Alpha virt. eigenvalues --    2.84863   2.84913   2.85644   2.85712   2.86695
 Alpha virt. eigenvalues --    2.86958   2.87231   2.87542   2.88133   2.88253
 Alpha virt. eigenvalues --    2.88482   2.88654   2.88900   2.88907   2.90453
 Alpha virt. eigenvalues --    2.90709   2.91106   2.91168   2.93113   2.93372
 Alpha virt. eigenvalues --    2.93809   2.94168   2.94540   2.94586   2.95307
 Alpha virt. eigenvalues --    2.95541   2.95907   2.96132   2.96403   2.96408
 Alpha virt. eigenvalues --    2.96930   2.97111   2.97753   2.98041   2.98175
 Alpha virt. eigenvalues --    2.98343   2.98422   2.98577   2.98621   2.98821
 Alpha virt. eigenvalues --    2.98860   2.98949   2.99569   2.99806   2.99976
 Alpha virt. eigenvalues --    3.00074   3.00179   3.00352   3.00416   3.01055
 Alpha virt. eigenvalues --    3.01941   3.01966   3.01999   3.02172   3.02669
 Alpha virt. eigenvalues --    3.02858   3.02925   3.03303   3.03355   3.03786
 Alpha virt. eigenvalues --    3.04109   3.04148   3.04432   3.04465   3.04521
 Alpha virt. eigenvalues --    3.04755   3.05281   3.05369   3.06079   3.06199
 Alpha virt. eigenvalues --    3.06748   3.06990   3.07934   3.08126   3.09347
 Alpha virt. eigenvalues --    3.09367   3.09645   3.10398   3.10497   3.10796
 Alpha virt. eigenvalues --    3.11316   3.11496   3.11884   3.11908   3.12168
 Alpha virt. eigenvalues --    3.12367   3.13234   3.13623   3.13695   3.13707
 Alpha virt. eigenvalues --    3.14023   3.14537   3.15912   3.15992   3.17237
 Alpha virt. eigenvalues --    3.17552   3.17879   3.18063   3.19047   3.19108
 Alpha virt. eigenvalues --    3.22237   3.22650   3.23918   3.24475   3.24636
 Alpha virt. eigenvalues --    3.25234   3.26478   3.26689   3.27431   3.27590
 Alpha virt. eigenvalues --    3.29028   3.29277   3.31412   3.31495   3.33217
 Alpha virt. eigenvalues --    3.33392   3.40322   3.40548   3.42798   3.42828
 Alpha virt. eigenvalues --    3.48630   3.48733   3.49994   3.50314   3.50872
 Alpha virt. eigenvalues --    3.51448   3.56527   3.57030   3.59078   3.59365
 Alpha virt. eigenvalues --    3.62547   3.62808   3.66111   3.66172   3.67112
 Alpha virt. eigenvalues --    3.67601   3.73209   3.74073   3.76005   3.76728
          Condensed to atoms (all electrons):
 Mulliken charges:
               1
     1  Mg   0.838578
     2  C   -0.003249
     3  C   -0.094330
     4  C   -0.045769
     5  C   -0.063729
     6  N   -0.256755
     7  C   -0.052609
     8  C   -0.013988
     9  C   -0.086960
    10  C    0.046178
    11  C    0.104785
    12  C    0.053569
    13  C   -0.071417
    14  H    0.034880
    15  N   -0.433152
    16  C    0.168353
    17  C   -0.177173
    18  C   -0.003906
    19  C    0.148681
    20  C    0.110166
    21  C    0.012351
    22  O   -0.249516
    23  C    0.062450
    24  N   -0.341117
    25  C    0.041252
    26  C   -0.028193
    27  C   -0.024025
    28  C    0.074770
    29  C    0.076131
    30  C    0.035086
    31  C   -0.004550
    32  N   -0.310491
    33  C    0.080355
    34  C   -0.169437
    35  C    0.008379
    36  C    0.082927
    37  C    0.127265
    38  C    0.046109
    39  O   -0.188361
    40  C   -0.005359
    41  C    0.212964
    42  O   -0.257684
    43  O   -0.304576
    44  C    0.157882
    45  H   -0.017611
    46  H   -0.016701
    47  H   -0.041150
    48  H    0.000968
    49  H   -0.004258
    50  H    0.025547
    51  H    0.016650
    52  H    0.016670
    53  H    0.010963
    54  H    0.043628
    55  H    0.018243
    56  H    0.017896
    57  H    0.005719
    58  H    0.026981
    59  H    0.039539
    60  H    0.037360
    61  H    0.035890
    62  H    0.031559
    63  H    0.016573
    64  H    0.009633
    65  H    0.023307
    66  H    0.012552
    67  H    0.004903
    68  H    0.006461
    69  H    0.005064
    70  H    0.008593
    71  H    0.018458
    72  H    0.028835
    73  H    0.047853
    74  H    0.009440
    75  H    0.046090
    76  H    0.035261
    77  H    0.043150
    78  H    0.046172
    79  H    0.052995
    80  Mg   0.837984
    81  C   -0.016709
    82  C   -0.087702
    83  C   -0.045767
    84  C   -0.064971
    85  N   -0.254647
    86  C   -0.049268
    87  C   -0.015247
    88  C   -0.090601
    89  C    0.045940
    90  C    0.114401
    91  C    0.062508
    92  C   -0.077795
    93  H    0.034412
    94  N   -0.423454
    95  C    0.162881
    96  C   -0.174845
    97  C   -0.008172
    98  C    0.152163
    99  C    0.099532
   100  C    0.015281
   101  O   -0.253526
   102  C    0.061308
   103  N   -0.350059
   104  C    0.037573
   105  C   -0.019810
   106  C   -0.034808
   107  C    0.089041
   108  C    0.073675
   109  C    0.034789
   110  C   -0.007619
   111  N   -0.324157
   112  C    0.078654
   113  C   -0.163169
   114  C    0.002499
   115  C    0.096203
   116  C    0.131433
   117  C    0.042521
   118  O   -0.187675
   119  C    0.000867
   120  C    0.211144
   121  O   -0.251396
   122  O   -0.305167
   123  C    0.152160
   124  H   -0.019710
   125  H   -0.015957
   126  H   -0.040683
   127  H    0.000364
   128  H   -0.004806
   129  H    0.024279
   130  H    0.014391
   131  H    0.016936
   132  H    0.013531
   133  H    0.037449
   134  H    0.021510
   135  H    0.019266
   136  H    0.008733
   137  H    0.025452
   138  H    0.039432
   139  H    0.037837
   140  H    0.035971
   141  H    0.033875
   142  H    0.014113
   143  H    0.012454
   144  H    0.024811
   145  H    0.011676
   146  H    0.005904
   147  H    0.006080
   148  H    0.003529
   149  H    0.010788
   150  H    0.017715
   151  H    0.030217
   152  H    0.045868
   153  H    0.008233
   154  H    0.047180
   155  H    0.036356
   156  H    0.044081
   157  H    0.049516
   158  H    0.053202
 Sum of Mulliken charges =  -0.00000
 Mulliken charges with hydrogens summed into heavy atoms:
               1
     1  Mg   0.838578
     2  C   -0.003249
     3  C   -0.111941
     4  C   -0.062470
     5  C   -0.104880
     6  N   -0.256755
     7  C   -0.052609
     8  C   -0.013020
     9  C   -0.091217
    10  C    0.046178
    11  C    0.163652
    12  C    0.108161
    13  C   -0.000397
    15  N   -0.433152
    16  C    0.168353
    17  C   -0.177173
    18  C   -0.003906
    19  C    0.148681
    20  C    0.182406
    21  C    0.012351
    22  O   -0.249516
    23  C    0.167260
    24  N   -0.341117
    25  C    0.041252
    26  C   -0.011621
    27  C   -0.014392
    28  C    0.074770
    29  C    0.116893
    30  C    0.046610
    31  C    0.051337
    32  N   -0.310491
    33  C    0.080355
    34  C   -0.169437
    35  C    0.008379
    36  C    0.082927
    37  C    0.230649
    38  C    0.046109
    39  O   -0.188361
    40  C    0.029902
    41  C    0.212964
    42  O   -0.257684
    43  O   -0.304576
    44  C    0.300199
    80  Mg   0.837984
    81  C   -0.016709
    82  C   -0.107411
    83  C   -0.061724
    84  C   -0.105654
    85  N   -0.254647
    86  C   -0.049268
    87  C   -0.014883
    88  C   -0.095407
    89  C    0.045940
    90  C    0.170008
    91  C    0.113488
    92  C   -0.002606
    94  N   -0.423454
    95  C    0.162881
    96  C   -0.174845
    97  C   -0.008172
    98  C    0.152163
    99  C    0.173149
   100  C    0.015281
   101  O   -0.253526
   102  C    0.168991
   103  N   -0.350059
   104  C    0.037573
   105  C   -0.005696
   106  C   -0.022353
   107  C    0.089041
   108  C    0.116066
   109  C    0.044398
   110  C    0.051101
   111  N   -0.324157
   112  C    0.078654
   113  C   -0.163169
   114  C    0.002499
   115  C    0.096203
   116  C    0.232714
   117  C    0.042521
   118  O   -0.187675
   119  C    0.037223
   120  C    0.211144
   121  O   -0.251396
   122  O   -0.305167
   123  C    0.298960
 Electronic spatial extent (au):  <R**2>=         149912.1637
 Charge=             -0.0000 electrons
 Dipole moment (field-independent basis, Debye):
    X=              4.5272    Y=             -2.1451    Z=              6.8677  Tot=              8.5007
 Quadrupole moment (field-independent basis, Debye-Ang):
   XX=           -517.8885   YY=           -539.4652   ZZ=           -460.0052
   XY=            -11.4962   XZ=             -2.4196   YZ=             37.5812
 Traceless Quadrupole moment (field-independent basis, Debye-Ang):
   XX=            -12.1022   YY=            -33.6789   ZZ=             45.7811
   XY=            -11.4962   XZ=             -2.4196   YZ=             37.5812
 Octapole moment (field-independent basis, Debye-Ang**2):
  XXX=            610.0451  YYY=            267.7048  ZZZ=            123.3324  XYY=           -213.8571
  XXY=           -104.3972  XXZ=            369.6608  XZZ=            216.3275  YZZ=            -81.5412
  YYZ=            135.6684  XYZ=           -232.8141
 Hexadecapole moment (field-independent basis, Debye-Ang**3):
 XXXX=        -139932.6567 YYYY=         -40562.7621 ZZZZ=         -25708.3390 XXXY=             96.5866
 XXXZ=             85.1222 YYYX=          -1987.1818 YYYZ=            815.3064 ZZZX=          -1212.0549
 ZZZY=            344.9288 XXYY=         -30581.9771 XXZZ=         -25454.9063 YYZZ=         -11032.1457
 XXYZ=           1522.9776 YYXZ=           1630.1875 ZZXY=            544.8895
 N-N= 1.425096523116D+04 E-N=-3.798291575281D+04  KE= 4.028802017415D+03
 Leave Link  601 at Sat Sep  4 10:59:54 2021, MaxMem= 23488102400 cpu:              13.1 elap:               0.7
 (Enter /sw/apps/gaussian-16.0/g16/l9999.exe)
 1\1\GINC-BP1-COMPUTE00098\SP\RCAM-B3LYP TD-FC\def2SVP\C68H72Mg2N8O8\OF
 15641\04-Sep-2021\0\\#p cam-b3lyp/Def2SVP td=(nstates=5)\\TDDFT excite
 d states in gaussian\\0,1\Mg,0,0.,0.,0.\C,0,-0.217,-2.218,2.801\C,0,-1
 .255,2.442,2.026\C,0,-0.245,1.85,-2.564\C,0,0.146,-2.824,-2.037\N,0,-0
 .617,-0.009,2.126\C,0,-0.594,-0.908,3.105\C,0,-0.936,-0.309,4.502\C,0,
 -1.773,0.964,4.032\C,0,-1.155,1.168,2.66\C,0,-3.263,0.685,3.863\C,0,0.
 345,0.11,5.299\C,0,0.124,0.397,6.787\H,0,1.168,0.033,7.733\N,0,-0.185,
 1.961,-0.152\C,0,-0.703,2.8,0.777\C,0,-0.62,4.156,0.193\C,0,-0.187,4.0
 15,-1.225\C,0,-0.214,2.583,-1.38\C,0,-0.887,5.406,0.974\C,0,0.181,5.01
 3,-2.277\O,0,0.303,4.69,-3.508\C,0,0.31,6.414,-1.837\N,0,-0.265,-0.413
 ,-2.029\C,0,-0.279,0.569,-2.937\C,0,-0.196,0.024,-4.332\C,0,0.124,-1.5
 33,-4.18\C,0,0.086,-1.632,-2.635\C,0,-1.451,0.205,-5.197\C,0,1.373,-2.
 07,-4.923\C,0,2.626,-1.49,-4.306\N,0,0.15,-2.144,0.303\C,0,0.173,-3.13
 6,-0.688\C,0,0.173,-4.438,0.004\C,0,0.133,-4.111,1.358\C,0,0.083,-2.69
 5,1.502\C,0,0.149,-5.715,-0.623\C,0,0.096,-4.629,2.716\O,0,0.208,-5.74
 7,3.221\C,0,-0.255,-3.428,3.701\C,0,0.717,-3.482,4.848\O,0,1.931,-3.25
 5,4.669\O,0,0.038,-3.556,6.003\C,0,0.943,-3.583,7.183\H,0,-1.859,3.22,
 2.497\H,0,-0.218,2.453,-3.474\H,0,0.276,-3.747,-2.605\H,0,-1.554,-0.94
 9,5.132\H,0,-1.585,1.831,4.665\H,0,-3.484,-0.377,3.969\H,0,-3.511,1.02
 7,2.858\H,0,-3.852,1.301,4.543\H,0,0.669,1.096,4.966\H,0,1.13,-0.639,5
 .189\H,0,-0.844,0.026,7.125\H,0,0.062,1.477,6.921\H,0,-1.344,5.186,1.9
 38\H,0,-1.651,5.963,0.432\H,0,0.007,6.02,1.084\H,0,-0.635,6.744,-1.405
 \H,0,0.665,6.97,-2.704\H,0,1.048,6.466,-1.036\H,0,0.608,0.501,-4.891\H
 ,0,-0.692,-2.156,-4.547\H,0,-1.267,0.74,-6.129\H,0,-2.204,0.714,-4.596
 \H,0,-1.967,-0.72,-5.453\H,0,1.356,-1.759,-5.967\H,0,1.452,-3.157,-4.9
 02\H,0,2.714,-0.522,-4.798\H,0,3.487,-2.121,-4.529\H,0,2.495,-1.303,-3
 .24\H,0,0.867,-6.333,-0.084\H,0,0.404,-5.642,-1.68\H,0,-0.891,-5.999,-
 0.463\H,0,-1.283,-3.581,4.028\H,0,0.698,-4.478,7.755\H,0,0.833,-2.619,
 7.68\H,0,2.,-3.754,6.976\Mg,0,13.14526,1.18262,1.00627\C,0,13.1974,-2.
 32822,1.74812\C,0,11.97667,1.68201,4.17164\C,0,12.66066,4.22351,0.2410
 1\C,0,13.20967,0.32833,-2.37186\N,0,12.68756,-0.22109,2.65319\C,0,12.8
 0487,-1.52703,2.84057\C,0,12.56097,-1.99165,4.30146\C,0,11.64817,-0.76
 583,4.79444\C,0,12.15457,0.31478,3.84129\C,0,10.16593,-0.9763,4.53368\
 C,0,13.89102,-2.08634,5.12851\C,0,13.76749,-2.82576,6.46259\H,0,14.894
 92,-3.63514,6.91678\N,0,12.89766,2.77476,2.16487\C,0,12.43428,2.79474,
 3.43222\C,0,12.42203,4.20992,3.83384\C,0,12.75984,5.03803,2.64437\C,0,
 12.76556,4.02332,1.60975\C,0,12.18837,4.65208,5.24922\C,0,13.02041,6.5
 0303,2.46527\O,0,13.061,7.04261,1.30336\C,0,13.13377,7.30365,3.69313\N
 ,0,12.74805,2.1365,-0.7978\C,0,12.63269,3.47462,-0.86158\C,0,12.62347,
 3.95369,-2.29364\C,0,13.00141,2.67513,-3.17683\C,0,13.0798,1.61066,-2.
 06052\C,0,11.30291,4.54225,-2.78973\C,0,14.20683,2.82037,-4.14562\C,0,
 15.48775,2.97022,-3.35685\N,0,13.38017,-0.63776,-0.13351\C,0,13.35051,
 -0.77413,-1.53872\C,0,13.4386,-2.21813,-1.83794\C,0,13.49061,-2.82805,
 -0.57549\C,0,13.41825,-1.8357,0.43915\C,0,13.4134,-2.80176,-3.13596\C,
 0,13.57955,-4.08647,0.12962\O,0,13.75257,-5.25828,-0.20303\C,0,13.2662
 4,-3.82794,1.66631\C,0,14.32158,-4.52627,2.4794\O,0,15.50805,-4.15751,
 2.42539\O,0,13.72634,-5.36635,3.34562\C,0,14.73162,-6.0743,4.1823\H,0,
 11.39499,1.92968,5.06001\H,0,12.60323,5.26617,-0.07998\H,0,13.33428,-0
 .01259,-3.40187\H,0,12.01585,-2.92306,4.39691\H,0,11.86816,-0.49896,5.
 82485\H,0,9.9818,-1.86668,3.95104\H,0,9.83401,-0.09739,3.99665\H,0,9.6
 1374,-0.97901,5.47782\H,0,14.15847,-1.08589,5.49226\H,0,14.6737,-2.527
 11,4.54219\H,0,12.83261,-3.39491,6.53338\H,0,13.69238,-2.08627,7.26355
 \H,0,11.80422,3.83217,5.86857\H,0,11.37087,5.38078,5.22575\H,0,13.0679
 8,5.12197,5.69437\H,0,12.21733,7.21035,4.27098\H,0,13.40861,8.30738,3.
 36319\H,0,13.93823,6.88699,4.30945\H,0,13.37108,4.72177,-2.44931\H,0,1
 2.17401,2.37728,-3.83753\H,0,11.40219,5.57526,-3.17329\H,0,10.58673,4.
 5046,-1.97966\H,0,10.80341,3.966,-3.56667\H,0,14.10356,3.7281,-4.74522
 \H,0,14.30952,1.98899,-4.83501\H,0,15.50575,4.03731,-3.11584\H,0,16.34
 617,2.68796,-3.96306\H,0,15.43399,2.41942,-2.41061\H,0,14.17914,-3.565
 94,-3.14865\H,0,13.5817,-2.05631,-3.9104\H,0,12.39166,-3.19029,-3.1553
 1\H,0,12.26844,-4.21966,1.86762\H,0,14.5518,-7.14673,4.05883\H,0,14.61
 833,-5.65859,5.20118\H,0,15.77169,-5.9989,3.88733\\Version=ES64L-G16Re
 vA.03\State=1-A\HF=-4069.8118234\RMSD=4.638e-09\PG=C01 [X(C68H72Mg2N8O
 8)]\\@


     "IF I COULD JUST GET IT ON PAPER"
 LIFE AND INK, THEY RUN OUT AT THE SAME TIME,
 OR SO SAID MY OLD FRIEND THE SQUID.
     -- JIMMY BUFFETT, 1981
 Job cpu time:       0 days 12 hours  3 minutes 55.3 seconds.
 Elapsed time:       0 days  0 hours 30 minutes 45.3 seconds.
 File lengths (MBytes):  RWF=  13225 Int=      0 D2E=      0 Chk=    574 Scr=      1
 Normal termination of Gaussian 16 at Sat Sep  4 10:59:55 2021.
