 Entering Gaussian System, Link 0=g16
 Initial command:
 /sw/apps/gaussian-16.0/g16/l1.exe "/tmp/Gau-42872.inp" -scrdir="/tmp/"
 Entering Link 1 = /sw/apps/gaussian-16.0/g16/l1.exe PID=     42873.
  
 Copyright (c) 1988,1990,1992,1993,1995,1998,2003,2009,2016,
            Gaussian, Inc.  All Rights Reserved.
  
 This is part of the Gaussian(R) 16 program.  It is based on
 the Gaussian(R) 09 system (copyright 2009, Gaussian, Inc.),
 the Gaussian(R) 03 system (copyright 2003, Gaussian, Inc.),
 the Gaussian(R) 98 system (copyright 1998, Gaussian, Inc.),
 the Gaussian(R) 94 system (copyright 1995, Gaussian, Inc.),
 the Gaussian 92(TM) system (copyright 1992, Gaussian, Inc.),
 the Gaussian 90(TM) system (copyright 1990, Gaussian, Inc.),
 the Gaussian 88(TM) system (copyright 1988, Gaussian, Inc.),
 the Gaussian 86(TM) system (copyright 1986, Carnegie Mellon
 University), and the Gaussian 82(TM) system (copyright 1983,
 Carnegie Mellon University). Gaussian is a federally registered
 trademark of Gaussian, Inc.
  
 This software contains proprietary and confidential information,
 including trade secrets, belonging to Gaussian, Inc.
  
 This software is provided under written license and may be
 used, copied, transmitted, or stored only in accord with that
 written license.
  
 The following legend is applicable only to US Government
 contracts under FAR:
  
                    RESTRICTED RIGHTS LEGEND
  
 Use, reproduction and disclosure by the US Government is
 subject to restrictions as set forth in subparagraphs (a)
 and (c) of the Commercial Computer Software - Restricted
 Rights clause in FAR 52.227-19.
  
 Gaussian, Inc.
 340 Quinnipiac St., Bldg. 40, Wallingford CT 06492
  
  
 ---------------------------------------------------------------
 Warning -- This program may not be used in any manner that
 competes with the business of Gaussian, Inc. or will provide
 assistance to any competitor of Gaussian, Inc.  The licensee
 of this program is prohibited from giving any competitor of
 Gaussian, Inc. access to this program.  By using this program,
 the user acknowledges that Gaussian, Inc. is engaged in the
 business of creating and licensing software in the field of
 computational chemistry and represents and warrants to the
 licensee that it is not a competitor of Gaussian, Inc. and that
 it will not use this program in any manner prohibited above.
 ---------------------------------------------------------------
  

 Cite this work as:
 Gaussian 16, Revision A.03,
 M. J. Frisch, G. W. Trucks, H. B. Schlegel, G. E. Scuseria, 
 M. A. Robb, J. R. Cheeseman, G. Scalmani, V. Barone, 
 G. A. Petersson, H. Nakatsuji, X. Li, M. Caricato, A. V. Marenich, 
 J. Bloino, B. G. Janesko, R. Gomperts, B. Mennucci, H. P. Hratchian, 
 J. V. Ortiz, A. F. Izmaylov, J. L. Sonnenberg, D. Williams-Young, 
 F. Ding, F. Lipparini, F. Egidi, J. Goings, B. Peng, A. Petrone, 
 T. Henderson, D. Ranasinghe, V. G. Zakrzewski, J. Gao, N. Rega, 
 G. Zheng, W. Liang, M. Hada, M. Ehara, K. Toyota, R. Fukuda, 
 J. Hasegawa, M. Ishida, T. Nakajima, Y. Honda, O. Kitao, H. Nakai, 
 T. Vreven, K. Throssell, J. A. Montgomery, Jr., J. E. Peralta, 
 F. Ogliaro, M. J. Bearpark, J. J. Heyd, E. N. Brothers, K. N. Kudin, 
 V. N. Staroverov, T. A. Keith, R. Kobayashi, J. Normand, 
 K. Raghavachari, A. P. Rendell, J. C. Burant, S. S. Iyengar, 
 J. Tomasi, M. Cossi, J. M. Millam, M. Klene, C. Adamo, R. Cammi, 
 J. W. Ochterski, R. L. Martin, K. Morokuma, O. Farkas, 
 J. B. Foresman, and D. J. Fox, Gaussian, Inc., Wallingford CT, 2016.
 
 ******************************************
 Gaussian 16:  ES64L-G16RevA.03 25-Dec-2016
                12-Sep-2021 
 ******************************************
 %nproc=24
 Will use up to   24 processors via shared memory.
 %mem=175gb
 -----------------------------------
 #p cam-b3lyp/Def2SVP td=(nstates=5)
 -----------------------------------
 1/38=1,172=1/1;
 2/12=2,17=6,18=5,40=1/2;
 3/5=43,7=101,11=9,25=1,30=1,74=-40/1,2,3,8;
 4//1;
 5/5=2,38=5/2;
 8/6=1,10=1,108=5/1;
 9/41=5,42=1,70=2/14;
 6/7=2,8=2,9=2,10=2/1;
 99/5=1,9=1/99;
 Leave Link    1 at Sun Sep 12 19:48:59 2021, MaxMem= 23488102400 cpu:               0.5 elap:               0.0
 (Enter /sw/apps/gaussian-16.0/g16/l101.exe)
 --------------------------------
 TDDFT excited states in gaussian
 --------------------------------
 Symbolic Z-matrix:
 Charge =  0 Multiplicity = 1
 Mg                    0.        0.        0. 
 C                    -0.217    -2.218     2.801 
 C                    -1.255     2.442     2.026 
 C                    -0.245     1.85     -2.564 
 C                     0.146    -2.824    -2.037 
 N                    -0.617    -0.009     2.126 
 C                    -0.594    -0.908     3.105 
 C                    -0.936    -0.309     4.502 
 C                    -1.773     0.964     4.032 
 C                    -1.155     1.168     2.66 
 C                    -3.263     0.685     3.863 
 C                     0.345     0.11      5.299 
 C                     0.124     0.397     6.787 
 H                     1.168     0.033     7.733 
 N                    -0.185     1.961    -0.152 
 C                    -0.703     2.8       0.777 
 C                    -0.62      4.156     0.193 
 C                    -0.187     4.015    -1.225 
 C                    -0.214     2.583    -1.38 
 C                    -0.887     5.406     0.974 
 C                     0.181     5.013    -2.277 
 O                     0.303     4.69     -3.508 
 C                     0.31      6.414    -1.837 
 N                    -0.265    -0.413    -2.029 
 C                    -0.279     0.569    -2.937 
 C                    -0.196     0.024    -4.332 
 C                     0.124    -1.533    -4.18 
 C                     0.086    -1.632    -2.635 
 C                    -1.451     0.205    -5.197 
 C                     1.373    -2.07     -4.923 
 C                     2.626    -1.49     -4.306 
 N                     0.15     -2.144     0.303 
 C                     0.173    -3.136    -0.688 
 C                     0.173    -4.438     0.004 
 C                     0.133    -4.111     1.358 
 C                     0.083    -2.695     1.502 
 C                     0.149    -5.715    -0.623 
 C                     0.096    -4.629     2.716 
 O                     0.208    -5.747     3.221 
 C                    -0.255    -3.428     3.701 
 C                     0.717    -3.482     4.848 
 O                     1.931    -3.255     4.669 
 O                     0.038    -3.556     6.003 
 C                     0.943    -3.583     7.183 
 H                    -1.859     3.22      2.497 
 H                    -0.218     2.453    -3.474 
 H                     0.276    -3.747    -2.605 
 H                    -1.554    -0.949     5.132 
 H                    -1.585     1.831     4.665 
 H                    -3.484    -0.377     3.969 
 H                    -3.511     1.027     2.858 
 H                    -3.852     1.301     4.543 
 H                     0.669     1.096     4.966 
 H                     1.13     -0.639     5.189 
 H                    -0.844     0.026     7.125 
 H                     0.062     1.477     6.921 
 H                    -1.344     5.186     1.938 
 H                    -1.651     5.963     0.432 
 H                     0.007     6.02      1.084 
 H                    -0.635     6.744    -1.405 
 H                     0.665     6.97     -2.704 
 H                     1.048     6.466    -1.036 
 H                     0.608     0.501    -4.891 
 H                    -0.692    -2.156    -4.547 
 H                    -1.267     0.74     -6.129 
 H                    -2.204     0.714    -4.596 
 H                    -1.967    -0.72     -5.453 
 H                     1.356    -1.759    -5.967 
 H                     1.452    -3.157    -4.902 
 H                     2.714    -0.522    -4.798 
 H                     3.487    -2.121    -4.529 
 H                     2.495    -1.303    -3.24 
 H                     0.867    -6.333    -0.084 
 H                     0.404    -5.642    -1.68 
 H                    -0.891    -5.999    -0.463 
 H                    -1.283    -3.581     4.028 
 H                     0.698    -4.478     7.755 
 H                     0.833    -2.619     7.68 
 H                     2.       -3.754     6.976 
 Mg                    31.5392   2.83908   2.40358 
 C                     31.56983  -0.61825   3.36534 
 C                     30.35565   3.54228   5.52437 
 C                     31.07393   5.82791   1.44553 
 C                     31.61802   1.77336  -0.91361 
 N                     31.06546   1.54403   4.13293 
 C                     31.17525   0.25197   4.40287 
 C                     30.92099  -0.11856   5.88868 
 C                     30.01157   1.14007   6.29816 
 C                     30.52858   2.15615   5.28181 
 C                     28.52977   0.92043   6.04254 
 C                     32.24597  -0.16709   6.72778 
 C                     32.1114  -0.82041   8.10503 
 H                     33.23227  -1.60475   8.61584 
 N                     31.29312   4.50217   3.45816 
 C                     30.82286   4.60409   4.71901 
 C                     30.81541   6.0418    5.03063 
 C                     31.16389   6.79176   3.79336 
 C                     31.17029   5.71387   2.82475 
 C                     30.57614   6.57333   6.41398 
 C                     31.43271   8.24135   3.52388 
 O                     31.48239   8.70646   2.33056 
 C                     31.54326   9.11721   4.69953 
 N                     31.15669   3.67922   0.54073 
 C                     31.04834   5.01118   0.39214 
 C                     31.0494   5.39911  -1.06727 
 C                     31.42586   4.06572  -1.86598 
 C                     31.4928   3.07334  -0.68441 
 C                     29.73453   5.96133  -1.60712 
 C                     32.63731   4.14408  -2.83496 
 C                     33.91459   4.33743  -2.04975 
 N                     31.77136   0.94945   1.38209 
 C                     31.74879   0.72494  -0.01189 
 C                     31.83135  -0.73543  -0.21907 
 C                     31.87336  -1.26483   1.07957 
 C                     31.80034  -0.2102    2.02926 
 C                     31.81042  -1.39955  -1.47789 
 C                     31.95217  -2.47672   1.86304 
 O                     32.1212  -3.66794   1.60585 
 C                     31.63167  -2.12046   3.37854 
 C                     32.67902  -2.77102   4.24012 
 O                     33.86759  -2.41187   4.16991 
 O                     32.07485  -3.55211   5.15405 
 C                     33.07197  -4.21056   6.03949 
 H                     29.77031   3.8481    6.39197 
 H                     31.02346   6.84853   1.05919 
 H                     31.74662   1.36766  -1.91936 
 H                     30.37073  -1.03958   6.03941 
 H                     30.22719   1.47031   7.31098 
 H                     28.34444  -0.00403   5.51607 
 H                     28.20519   1.76528   5.44931 
 H                     27.97237   0.97974   6.98175 
 H                     32.51636   0.85305   7.02935 
 H                     33.02967  -0.64751   6.17494 
 H                     31.17333  -1.37965   8.20608 
 H                     32.03555  -0.03159   8.85737 
 H                     30.18451   5.79585   7.08148 
 H                     29.76241   7.30286   6.33991 
 H                     31.4556   7.06628   6.83377 
 H                     30.6232   9.06472   5.27676 
 H                     31.8249   10.09688   4.30863 
 H                     32.34223   8.7365    5.34553 
 H                     31.80166   6.15241  -1.26664 
 H                     30.60064   3.73065  -2.51141 
 H                     29.84106   6.96765  -2.05438 
 H                     29.01371   5.97808  -0.80047 
 H                     29.23648   5.33958  -2.34912 
 H                     32.54186   5.0127   -3.49112 
 H                     32.73968   3.27046  -3.47001 
 H                     33.93656   5.41749  -1.87631 
 H                     34.77493   4.01359  -2.63197 
 H                     33.85287   3.8476   -1.07102 
 H                     32.57242  -2.16653  -1.43797 
 H                     31.98669  -0.70515  -2.29673 
 H                     30.7869  -1.78382  -1.47867 
 H                     30.63084  -2.49411   3.5983 
 H                     32.88752  -5.2878    5.98275 
 H                     32.95513  -3.73097   7.02949 
 H                     34.11401  -4.15869   5.74642 
 
 ITRead=  0  0  0  0  0  0  0  0  0  0  0  0  0  0  0  0  0  0  0  0
 ITRead=  0  0  0  0  0  0  0  0  0  0  0  0  0  0  0  0  0  0  0  0
 ITRead=  0  0  0  0  0  0  0  0  0  0  0  0  0  0  0  0  0  0  0  0
 ITRead=  0  0  0  0  0  0  0  0  0  0  0  0  0  0  0  0  0  0  0  0
 ITRead=  0  0  0  0  0  0  0  0  0  0  0  0  0  0  0  0  0  0  0  0
 ITRead=  0  0  0  0  0  0  0  0  0  0  0  0  0  0  0  0  0  0  0  0
 ITRead=  0  0  0  0  0  0  0  0  0  0  0  0  0  0  0  0  0  0  0  0
 ITRead=  0  0  0  0  0  0  0  0  0  0  0  0  0  0  0  0  0  0
 MicOpt= -1 -1 -1 -1 -1 -1 -1 -1 -1 -1 -1 -1 -1 -1 -1 -1 -1 -1 -1 -1
 MicOpt= -1 -1 -1 -1 -1 -1 -1 -1 -1 -1 -1 -1 -1 -1 -1 -1 -1 -1 -1 -1
 MicOpt= -1 -1 -1 -1 -1 -1 -1 -1 -1 -1 -1 -1 -1 -1 -1 -1 -1 -1 -1 -1
 MicOpt= -1 -1 -1 -1 -1 -1 -1 -1 -1 -1 -1 -1 -1 -1 -1 -1 -1 -1 -1 -1
 MicOpt= -1 -1 -1 -1 -1 -1 -1 -1 -1 -1 -1 -1 -1 -1 -1 -1 -1 -1 -1 -1
 MicOpt= -1 -1 -1 -1 -1 -1 -1 -1 -1 -1 -1 -1 -1 -1 -1 -1 -1 -1 -1 -1
 MicOpt= -1 -1 -1 -1 -1 -1 -1 -1 -1 -1 -1 -1 -1 -1 -1 -1 -1 -1 -1 -1
 MicOpt= -1 -1 -1 -1 -1 -1 -1 -1 -1 -1 -1 -1 -1 -1 -1 -1 -1 -1
 NAtoms=    158 NQM=      158 NQMF=       0 NMMI=      0 NMMIF=      0
                NMic=       0 NMicF=      0.
                    Isotopes and Nuclear Properties:
 (Nuclear quadrupole moments (NQMom) in fm**2, nuclear magnetic moments (NMagM)
  in nuclear magnetons)

  Atom         1           2           3           4           5           6           7           8           9          10
 IAtWgt=          24          12          12          12          12          14          12          12          12          12
 AtmWgt=  23.9850450  12.0000000  12.0000000  12.0000000  12.0000000  14.0030740  12.0000000  12.0000000  12.0000000  12.0000000
 NucSpn=           0           0           0           0           0           2           0           0           0           0
 AtZEff=  -0.0000000  -0.0000000  -0.0000000  -0.0000000  -0.0000000  -0.0000000  -0.0000000  -0.0000000  -0.0000000  -0.0000000
 NQMom=    0.0000000   0.0000000   0.0000000   0.0000000   0.0000000   2.0440000   0.0000000   0.0000000   0.0000000   0.0000000
 NMagM=    0.0000000   0.0000000   0.0000000   0.0000000   0.0000000   0.4037610   0.0000000   0.0000000   0.0000000   0.0000000
 AtZNuc=  12.0000000   6.0000000   6.0000000   6.0000000   6.0000000   7.0000000   6.0000000   6.0000000   6.0000000   6.0000000

  Atom        11          12          13          14          15          16          17          18          19          20
 IAtWgt=          12          12          12           1          14          12          12          12          12          12
 AtmWgt=  12.0000000  12.0000000  12.0000000   1.0078250  14.0030740  12.0000000  12.0000000  12.0000000  12.0000000  12.0000000
 NucSpn=           0           0           0           1           2           0           0           0           0           0
 AtZEff=  -0.0000000  -0.0000000  -0.0000000  -0.0000000  -0.0000000  -0.0000000  -0.0000000  -0.0000000  -0.0000000  -0.0000000
 NQMom=    0.0000000   0.0000000   0.0000000   0.0000000   2.0440000   0.0000000   0.0000000   0.0000000   0.0000000   0.0000000
 NMagM=    0.0000000   0.0000000   0.0000000   2.7928460   0.4037610   0.0000000   0.0000000   0.0000000   0.0000000   0.0000000
 AtZNuc=   6.0000000   6.0000000   6.0000000   1.0000000   7.0000000   6.0000000   6.0000000   6.0000000   6.0000000   6.0000000

  Atom        21          22          23          24          25          26          27          28          29          30
 IAtWgt=          12          16          12          14          12          12          12          12          12          12
 AtmWgt=  12.0000000  15.9949146  12.0000000  14.0030740  12.0000000  12.0000000  12.0000000  12.0000000  12.0000000  12.0000000
 NucSpn=           0           0           0           2           0           0           0           0           0           0
 AtZEff=  -0.0000000  -0.0000000  -0.0000000  -0.0000000  -0.0000000  -0.0000000  -0.0000000  -0.0000000  -0.0000000  -0.0000000
 NQMom=    0.0000000   0.0000000   0.0000000   2.0440000   0.0000000   0.0000000   0.0000000   0.0000000   0.0000000   0.0000000
 NMagM=    0.0000000   0.0000000   0.0000000   0.4037610   0.0000000   0.0000000   0.0000000   0.0000000   0.0000000   0.0000000
 AtZNuc=   6.0000000   8.0000000   6.0000000   7.0000000   6.0000000   6.0000000   6.0000000   6.0000000   6.0000000   6.0000000

  Atom        31          32          33          34          35          36          37          38          39          40
 IAtWgt=          12          14          12          12          12          12          12          12          16          12
 AtmWgt=  12.0000000  14.0030740  12.0000000  12.0000000  12.0000000  12.0000000  12.0000000  12.0000000  15.9949146  12.0000000
 NucSpn=           0           2           0           0           0           0           0           0           0           0
 AtZEff=  -0.0000000  -0.0000000  -0.0000000  -0.0000000  -0.0000000  -0.0000000  -0.0000000  -0.0000000  -0.0000000  -0.0000000
 NQMom=    0.0000000   2.0440000   0.0000000   0.0000000   0.0000000   0.0000000   0.0000000   0.0000000   0.0000000   0.0000000
 NMagM=    0.0000000   0.4037610   0.0000000   0.0000000   0.0000000   0.0000000   0.0000000   0.0000000   0.0000000   0.0000000
 AtZNuc=   6.0000000   7.0000000   6.0000000   6.0000000   6.0000000   6.0000000   6.0000000   6.0000000   8.0000000   6.0000000

  Atom        41          42          43          44          45          46          47          48          49          50
 IAtWgt=          12          16          16          12           1           1           1           1           1           1
 AtmWgt=  12.0000000  15.9949146  15.9949146  12.0000000   1.0078250   1.0078250   1.0078250   1.0078250   1.0078250   1.0078250
 NucSpn=           0           0           0           0           1           1           1           1           1           1
 AtZEff=  -0.0000000  -0.0000000  -0.0000000  -0.0000000  -0.0000000  -0.0000000  -0.0000000  -0.0000000  -0.0000000  -0.0000000
 NQMom=    0.0000000   0.0000000   0.0000000   0.0000000   0.0000000   0.0000000   0.0000000   0.0000000   0.0000000   0.0000000
 NMagM=    0.0000000   0.0000000   0.0000000   0.0000000   2.7928460   2.7928460   2.7928460   2.7928460   2.7928460   2.7928460
 AtZNuc=   6.0000000   8.0000000   8.0000000   6.0000000   1.0000000   1.0000000   1.0000000   1.0000000   1.0000000   1.0000000

  Atom        51          52          53          54          55          56          57          58          59          60
 IAtWgt=           1           1           1           1           1           1           1           1           1           1
 AtmWgt=   1.0078250   1.0078250   1.0078250   1.0078250   1.0078250   1.0078250   1.0078250   1.0078250   1.0078250   1.0078250
 NucSpn=           1           1           1           1           1           1           1           1           1           1
 AtZEff=  -0.0000000  -0.0000000  -0.0000000  -0.0000000  -0.0000000  -0.0000000  -0.0000000  -0.0000000  -0.0000000  -0.0000000
 NQMom=    0.0000000   0.0000000   0.0000000   0.0000000   0.0000000   0.0000000   0.0000000   0.0000000   0.0000000   0.0000000
 NMagM=    2.7928460   2.7928460   2.7928460   2.7928460   2.7928460   2.7928460   2.7928460   2.7928460   2.7928460   2.7928460
 AtZNuc=   1.0000000   1.0000000   1.0000000   1.0000000   1.0000000   1.0000000   1.0000000   1.0000000   1.0000000   1.0000000

  Atom        61          62          63          64          65          66          67          68          69          70
 IAtWgt=           1           1           1           1           1           1           1           1           1           1
 AtmWgt=   1.0078250   1.0078250   1.0078250   1.0078250   1.0078250   1.0078250   1.0078250   1.0078250   1.0078250   1.0078250
 NucSpn=           1           1           1           1           1           1           1           1           1           1
 AtZEff=  -0.0000000  -0.0000000  -0.0000000  -0.0000000  -0.0000000  -0.0000000  -0.0000000  -0.0000000  -0.0000000  -0.0000000
 NQMom=    0.0000000   0.0000000   0.0000000   0.0000000   0.0000000   0.0000000   0.0000000   0.0000000   0.0000000   0.0000000
 NMagM=    2.7928460   2.7928460   2.7928460   2.7928460   2.7928460   2.7928460   2.7928460   2.7928460   2.7928460   2.7928460
 AtZNuc=   1.0000000   1.0000000   1.0000000   1.0000000   1.0000000   1.0000000   1.0000000   1.0000000   1.0000000   1.0000000

  Atom        71          72          73          74          75          76          77          78          79          80
 IAtWgt=           1           1           1           1           1           1           1           1           1          24
 AtmWgt=   1.0078250   1.0078250   1.0078250   1.0078250   1.0078250   1.0078250   1.0078250   1.0078250   1.0078250  23.9850450
 NucSpn=           1           1           1           1           1           1           1           1           1           0
 AtZEff=  -0.0000000  -0.0000000  -0.0000000  -0.0000000  -0.0000000  -0.0000000  -0.0000000  -0.0000000  -0.0000000  -0.0000000
 NQMom=    0.0000000   0.0000000   0.0000000   0.0000000   0.0000000   0.0000000   0.0000000   0.0000000   0.0000000   0.0000000
 NMagM=    2.7928460   2.7928460   2.7928460   2.7928460   2.7928460   2.7928460   2.7928460   2.7928460   2.7928460   0.0000000
 AtZNuc=   1.0000000   1.0000000   1.0000000   1.0000000   1.0000000   1.0000000   1.0000000   1.0000000   1.0000000  12.0000000

  Atom        81          82          83          84          85          86          87          88          89          90
 IAtWgt=          12          12          12          12          14          12          12          12          12          12
 AtmWgt=  12.0000000  12.0000000  12.0000000  12.0000000  14.0030740  12.0000000  12.0000000  12.0000000  12.0000000  12.0000000
 NucSpn=           0           0           0           0           2           0           0           0           0           0
 AtZEff=  -0.0000000  -0.0000000  -0.0000000  -0.0000000  -0.0000000  -0.0000000  -0.0000000  -0.0000000  -0.0000000  -0.0000000
 NQMom=    0.0000000   0.0000000   0.0000000   0.0000000   2.0440000   0.0000000   0.0000000   0.0000000   0.0000000   0.0000000
 NMagM=    0.0000000   0.0000000   0.0000000   0.0000000   0.4037610   0.0000000   0.0000000   0.0000000   0.0000000   0.0000000
 AtZNuc=   6.0000000   6.0000000   6.0000000   6.0000000   7.0000000   6.0000000   6.0000000   6.0000000   6.0000000   6.0000000

  Atom        91          92          93          94          95          96          97          98          99         100
 IAtWgt=          12          12           1          14          12          12          12          12          12          12
 AtmWgt=  12.0000000  12.0000000   1.0078250  14.0030740  12.0000000  12.0000000  12.0000000  12.0000000  12.0000000  12.0000000
 NucSpn=           0           0           1           2           0           0           0           0           0           0
 AtZEff=  -0.0000000  -0.0000000  -0.0000000  -0.0000000  -0.0000000  -0.0000000  -0.0000000  -0.0000000  -0.0000000  -0.0000000
 NQMom=    0.0000000   0.0000000   0.0000000   2.0440000   0.0000000   0.0000000   0.0000000   0.0000000   0.0000000   0.0000000
 NMagM=    0.0000000   0.0000000   2.7928460   0.4037610   0.0000000   0.0000000   0.0000000   0.0000000   0.0000000   0.0000000
 AtZNuc=   6.0000000   6.0000000   1.0000000   7.0000000   6.0000000   6.0000000   6.0000000   6.0000000   6.0000000   6.0000000

  Atom       101         102         103         104         105         106         107         108         109         110
 IAtWgt=          16          12          14          12          12          12          12          12          12          12
 AtmWgt=  15.9949146  12.0000000  14.0030740  12.0000000  12.0000000  12.0000000  12.0000000  12.0000000  12.0000000  12.0000000
 NucSpn=           0           0           2           0           0           0           0           0           0           0
 AtZEff=  -0.0000000  -0.0000000  -0.0000000  -0.0000000  -0.0000000  -0.0000000  -0.0000000  -0.0000000  -0.0000000  -0.0000000
 NQMom=    0.0000000   0.0000000   2.0440000   0.0000000   0.0000000   0.0000000   0.0000000   0.0000000   0.0000000   0.0000000
 NMagM=    0.0000000   0.0000000   0.4037610   0.0000000   0.0000000   0.0000000   0.0000000   0.0000000   0.0000000   0.0000000
 AtZNuc=   8.0000000   6.0000000   7.0000000   6.0000000   6.0000000   6.0000000   6.0000000   6.0000000   6.0000000   6.0000000

  Atom       111         112         113         114         115         116         117         118         119         120
 IAtWgt=          14          12          12          12          12          12          12          16          12          12
 AtmWgt=  14.0030740  12.0000000  12.0000000  12.0000000  12.0000000  12.0000000  12.0000000  15.9949146  12.0000000  12.0000000
 NucSpn=           2           0           0           0           0           0           0           0           0           0
 AtZEff=  -0.0000000  -0.0000000  -0.0000000  -0.0000000  -0.0000000  -0.0000000  -0.0000000  -0.0000000  -0.0000000  -0.0000000
 NQMom=    2.0440000   0.0000000   0.0000000   0.0000000   0.0000000   0.0000000   0.0000000   0.0000000   0.0000000   0.0000000
 NMagM=    0.4037610   0.0000000   0.0000000   0.0000000   0.0000000   0.0000000   0.0000000   0.0000000   0.0000000   0.0000000
 AtZNuc=   7.0000000   6.0000000   6.0000000   6.0000000   6.0000000   6.0000000   6.0000000   8.0000000   6.0000000   6.0000000

  Atom       121         122         123         124         125         126         127         128         129         130
 IAtWgt=          16          16          12           1           1           1           1           1           1           1
 AtmWgt=  15.9949146  15.9949146  12.0000000   1.0078250   1.0078250   1.0078250   1.0078250   1.0078250   1.0078250   1.0078250
 NucSpn=           0           0           0           1           1           1           1           1           1           1
 AtZEff=  -0.0000000  -0.0000000  -0.0000000  -0.0000000  -0.0000000  -0.0000000  -0.0000000  -0.0000000  -0.0000000  -0.0000000
 NQMom=    0.0000000   0.0000000   0.0000000   0.0000000   0.0000000   0.0000000   0.0000000   0.0000000   0.0000000   0.0000000
 NMagM=    0.0000000   0.0000000   0.0000000   2.7928460   2.7928460   2.7928460   2.7928460   2.7928460   2.7928460   2.7928460
 AtZNuc=   8.0000000   8.0000000   6.0000000   1.0000000   1.0000000   1.0000000   1.0000000   1.0000000   1.0000000   1.0000000

  Atom       131         132         133         134         135         136         137         138         139         140
 IAtWgt=           1           1           1           1           1           1           1           1           1           1
 AtmWgt=   1.0078250   1.0078250   1.0078250   1.0078250   1.0078250   1.0078250   1.0078250   1.0078250   1.0078250   1.0078250
 NucSpn=           1           1           1           1           1           1           1           1           1           1
 AtZEff=  -0.0000000  -0.0000000  -0.0000000  -0.0000000  -0.0000000  -0.0000000  -0.0000000  -0.0000000  -0.0000000  -0.0000000
 NQMom=    0.0000000   0.0000000   0.0000000   0.0000000   0.0000000   0.0000000   0.0000000   0.0000000   0.0000000   0.0000000
 NMagM=    2.7928460   2.7928460   2.7928460   2.7928460   2.7928460   2.7928460   2.7928460   2.7928460   2.7928460   2.7928460
 AtZNuc=   1.0000000   1.0000000   1.0000000   1.0000000   1.0000000   1.0000000   1.0000000   1.0000000   1.0000000   1.0000000

  Atom       141         142         143         144         145         146         147         148         149         150
 IAtWgt=           1           1           1           1           1           1           1           1           1           1
 AtmWgt=   1.0078250   1.0078250   1.0078250   1.0078250   1.0078250   1.0078250   1.0078250   1.0078250   1.0078250   1.0078250
 NucSpn=           1           1           1           1           1           1           1           1           1           1
 AtZEff=  -0.0000000  -0.0000000  -0.0000000  -0.0000000  -0.0000000  -0.0000000  -0.0000000  -0.0000000  -0.0000000  -0.0000000
 NQMom=    0.0000000   0.0000000   0.0000000   0.0000000   0.0000000   0.0000000   0.0000000   0.0000000   0.0000000   0.0000000
 NMagM=    2.7928460   2.7928460   2.7928460   2.7928460   2.7928460   2.7928460   2.7928460   2.7928460   2.7928460   2.7928460
 AtZNuc=   1.0000000   1.0000000   1.0000000   1.0000000   1.0000000   1.0000000   1.0000000   1.0000000   1.0000000   1.0000000

  Atom       151         152         153         154         155         156         157         158
 IAtWgt=           1           1           1           1           1           1           1           1
 AtmWgt=   1.0078250   1.0078250   1.0078250   1.0078250   1.0078250   1.0078250   1.0078250   1.0078250
 NucSpn=           1           1           1           1           1           1           1           1
 AtZEff=  -0.0000000  -0.0000000  -0.0000000  -0.0000000  -0.0000000  -0.0000000  -0.0000000  -0.0000000
 NQMom=    0.0000000   0.0000000   0.0000000   0.0000000   0.0000000   0.0000000   0.0000000   0.0000000
 NMagM=    2.7928460   2.7928460   2.7928460   2.7928460   2.7928460   2.7928460   2.7928460   2.7928460
 AtZNuc=   1.0000000   1.0000000   1.0000000   1.0000000   1.0000000   1.0000000   1.0000000   1.0000000
 Leave Link  101 at Sun Sep 12 19:49:00 2021, MaxMem= 23488102400 cpu:               5.3 elap:               0.2
 (Enter /sw/apps/gaussian-16.0/g16/l202.exe)
 Stoichiometry    C68H72Mg2N8O8
 Framework group  C1[X(C68H72Mg2N8O8)]
 Deg. of freedom   468
 Full point group                 C1      NOp   1
 Largest Abelian subgroup         C1      NOp   1
 Largest concise Abelian subgroup C1      NOp   1
                         Standard orientation:                         
 ---------------------------------------------------------------------
 Center     Atomic      Atomic             Coordinates (Angstroms)
 Number     Number       Type             X           Y           Z
 ---------------------------------------------------------------------
      1         12           0       15.792167   -0.697701   -0.335463
      2          6           0       15.999791    2.759928    0.566706
      3          6           0       16.722720   -1.434760    2.863581
      4          6           0       16.057426   -3.729538   -1.226656
      5          6           0       15.995199    0.311108   -3.665139
      6          7           0       16.270601    0.586745    1.402912
      7          6           0       16.254369    1.895760    1.633968
      8          6           0       16.458973    2.260814    3.134716
      9          6           0       17.223656    0.945620    3.611712
     10          6           0       16.680898   -0.035738    2.587859
     11          6           0       18.738493    1.031053    3.455281
     12          6           0       15.101065    2.440902    3.893257
     13          6           0       15.203519    3.111713    5.266163
     14          1           0       14.132275    3.998775    5.693838
     15          7           0       15.834698   -2.351476    0.744385
     16          6           0       16.225873   -2.465198    2.036412
     17          6           0       16.076089   -3.894859    2.383279
     18          6           0       15.746958   -4.634336    1.133102
     19          6           0       15.894213   -3.591873    0.149758
     20          6           0       16.195302   -4.419213    3.781345
     21          6           0       15.371198   -6.057516    0.865716
     22          8           0       15.353564   -6.545881   -0.315707
     23          6           0       15.106596   -6.899980    2.046090
     24          7           0       16.217631   -1.607937   -2.165240
     25          6           0       16.213958   -2.939544   -2.290918
     26          6           0       16.262756   -3.352088   -3.732225
     27          6           0       16.054741   -2.016110   -4.581722
     28          6           0       16.001243   -1.000031   -3.414250
     29          6           0       17.552866   -4.049373   -4.185459
     30          6           0       14.901041   -2.012823   -5.615833
     31          6           0       13.570100   -2.070537   -4.900038
     32          7           0       15.788907    1.192320   -1.402635
     33          6           0       15.906011    1.378764   -2.787625
     34          6           0       15.962131    2.832998   -3.024527
     35          6           0       15.889993    3.394731   -1.751304
     36          6           0       15.821288    2.356563   -0.778792
     37          6           0       16.124672    3.465780   -4.288489
     38          6           0       15.879797    4.630006   -0.984592
     39          8           0       15.822263    5.827067   -1.269597
     40          6           0       16.073302    4.266570    0.553685
     41          6           0       15.036910    5.027903    1.334437
     42          8           0       13.822979    4.766213    1.210917
     43          8           0       15.644229    5.772863    2.270780
     44          6           0       14.670303    6.531289    3.100486
     45          1           0       17.233498   -1.780127    3.764563
     46          1           0       16.042324   -4.760459   -1.586394
     47          1           0       15.973430    0.702060   -4.684029
     48          1           0       17.082883    3.137782    3.308170
     49          1           0       16.929184    0.645765    4.617244
     50          1           0       19.033514    1.933834    2.920614
     51          1           0       19.023223    0.143523    2.889848
     52          1           0       19.233459    0.941603    4.422641
     53          1           0       14.723963    1.462928    4.192291
     54          1           0       14.384843    2.986552    3.277937
     55          1           0       16.173614    3.589853    5.404748
     56          1           0       15.173313    2.334033    6.029380
     57          1           0       16.605234   -3.669317    4.456739
     58          1           0       16.947196   -5.207891    3.762572
     59          1           0       15.251398   -4.819911    4.151235
     60          1           0       15.993713   -6.920925    2.679442
     61          1           0       14.766019   -7.860089    1.660023
     62          1           0       14.317006   -6.438220    2.639617
     63          1           0       15.461810   -4.052312   -3.965889
     64          1           0       16.938191   -1.762593   -5.168168
     65          1           0       17.388209   -5.036125   -4.618950
     66          1           0       18.224318   -4.105515   -3.329135
     67          1           0       18.154015   -3.481870   -4.895373
     68          1           0       14.960824   -2.894226   -6.253406
     69          1           0       14.904946   -1.135066   -6.262191
     70          1           0       13.439380   -3.136087   -4.714704
     71          1           0       12.776395   -1.685515   -5.541132
     72          1           0       13.617747   -1.574580   -3.930377
     73          1           0       15.423444    4.300044   -4.304370
     74          1           0       15.933018    2.771600   -5.106405
     75          1           0       17.171093    3.765108   -4.231377
     76          1           0       17.086983    4.563559    0.820837
     77          1           0       14.946477    7.583923    3.037847
     78          1           0       14.673557    6.065108    4.085914
     79          1           0       13.645076    6.565132    2.730210
     80         12           0      -15.961053   -0.783590    0.197734
     81          6           0      -15.786422    2.546792   -1.127829
     82          6           0      -15.037572    0.526694    3.208539
     83          6           0      -15.667332   -3.749435    1.286278
     84          6           0      -15.744829   -1.950095   -3.079191
     85          7           0      -15.500550    1.284482    0.832755
     86          6           0      -15.527404    2.476963    0.256902
     87          6           0      -15.340996    3.667866    1.234949
     88          6           0      -14.559473    2.896584    2.406791
     89          6           0      -15.087170    1.484047    2.163975
     90          6           0      -13.051826    2.882455    2.216751
     91          6           0      -16.709293    4.245794    1.740693
     92          6           0      -16.613205    5.598030    2.450607
     93          1           0      -17.700636    6.556327    2.272768
     94          7           0      -15.912041   -1.469372    2.059416
     95          6           0      -15.532759   -0.795139    3.165233
     96          6           0      -15.656209   -1.747792    4.279408
     97          6           0      -15.981548   -3.086951    3.717695
     98          6           0      -15.842736   -2.819074    2.300280
     99          6           0      -15.547738   -1.335138    5.718638
    100          6           0      -16.343578   -4.395743    4.351883
    101          8           0      -16.352464   -5.488718    3.682454
    102          6           0      -16.596425   -4.374812    5.800032
    103          7           0      -15.525980   -2.590726   -0.733572
    104          6           0      -15.511408   -3.741162   -0.037713
    105          6           0      -15.448925   -4.935541   -0.959626
    106          6           0      -15.669479   -4.353259   -2.432681
    107          6           0      -15.735199   -2.846074   -2.101802
    108          6           0      -14.149477   -5.739441   -0.919726
    109          6           0      -16.818815   -4.976738   -3.271117
    110          6           0      -18.154860   -4.624696   -2.657576
    111          7           0      -15.980860    0.101881   -1.772950
    112          6           0      -15.851812   -0.566931   -3.009935
    113          6           0      -15.808035    0.468834   -4.062406
    114          6           0      -15.892162    1.678888   -3.357291
    115          6           0      -15.961684    1.416494   -1.962370
    116          6           0      -15.655363    0.231256   -5.457529
    117          6           0      -15.927264    3.118886   -3.475140
    118          8           0      -15.987080    3.912480   -4.413411
    119          6           0      -15.732915    3.749159   -2.028985
    120          6           0      -16.779981    4.812594   -1.841231
    121          8           0      -17.985770    4.511458   -1.796456
    122          8           0      -16.177131    5.974356   -1.529345
    123          6           0      -17.175138    7.057418   -1.322546
    124          1           0      -14.534334    0.797586    4.137112
    125          1           0      -15.671105   -4.795715    1.600532
    126          1           0      -15.777076   -2.235837   -4.132744
    127          1           0      -14.732114    4.478454    0.852859
    128          1           0      -14.864344    3.254284    3.386822
    129          1           0      -12.762401    3.292699    1.260678
    130          1           0      -12.756062    1.843949    2.287999
    131          1           0      -12.561958    3.393228    3.050698
    132          1           0      -17.076328    3.624892    2.568042
    133          1           0      -17.416580    4.309178    0.936734
    134          1           0      -15.643193    6.082426    2.285159
    135          1           0      -16.646768    5.426807    3.529293
    136          1           0      -15.140854   -0.321128    5.816793
    137          1           0      -14.789641   -1.977762    6.179268
    138          1           0      -16.487677   -1.451890    6.262289
    139          1           0      -15.713918   -4.003245    6.315376
    140          1           0      -16.927184   -5.383876    6.053539
    141          1           0      -17.403372   -3.662185    6.004014
    142          1           0      -16.242736   -5.637936   -0.736895
    143          1           0      -14.781236   -4.497702   -3.065136
    144          1           0      -14.304455   -6.807834   -0.677674
    145          1           0      -13.485240   -5.279050   -0.200438
    146          1           0      -13.558456   -5.707516   -1.833436
    147          1           0      -16.748830   -6.067188   -3.257760
    148          1           0      -16.812609   -4.666343   -4.310634
    149          1           0      -18.271143   -5.376584   -1.871295
    150          1           0      -18.948598   -4.701778   -3.397897
    151          1           0      -18.118345   -3.642686   -2.171799
    152          1           0      -16.356916    0.881717   -5.962723
    153          1           0      -15.831872   -0.813531   -5.704566
    154          1           0      -14.607308    0.512937   -5.589789
    155          1           0      -14.722379    4.156856   -1.982421
    156          1           0      -16.904886    7.874288   -1.998840
    157          1           0      -17.159284    7.275181   -0.238071
    158          1           0      -18.197161    6.861662   -1.625165
 ---------------------------------------------------------------------
 Rotational constants (GHZ):           0.0202699           0.0016446           0.0016143
 Leave Link  202 at Sun Sep 12 19:49:00 2021, MaxMem= 23488102400 cpu:               0.1 elap:               0.0
 (Enter /sw/apps/gaussian-16.0/g16/l301.exe)
 Standard basis: def2SVP (5D, 7F)
 Ernie: Thresh=  0.10000D-02 Tol=  0.10000D-05 Strict=F.
 There are  1658 symmetry adapted cartesian basis functions of A   symmetry.
 There are  1572 symmetry adapted basis functions of A   symmetry.
  1572 basis functions,  2678 primitive gaussians,  1658 cartesian basis functions
   312 alpha electrons      312 beta electrons
       nuclear repulsion energy     12306.7258159421 Hartrees.
 IExCor=20419 DFT=T Ex+Corr=CAM-B3LYP ExCW=0 ScaHFX=  1.000000
 ScaDFX=  1.000000  1.000000  1.000000  0.810000 ScalE2=  1.000000  1.000000
 IRadAn=      5 IRanWt=     -1 IRanGd=            0 ICorTp=0 IEmpDi=  4
 HFx  wShort=  0.000000 wLong=  0.330000 cFull=  0.190000 cShort=  0.000000 cLong=  0.460000
 DFx  wShort=  0.000000 wLong=  0.330000 cFull=  0.190000 cShort=  0.000000 cLong=  0.460000
 NAtoms=  158 NActive=  158 NUniq=  158 SFac= 1.00D+00 NAtFMM=   60 NAOKFM=T Big=T
 Integral buffers will be    131072 words long.
 Raffenetti 1 integral format.
 Two-electron integral symmetry is turned on.
 Leave Link  301 at Sun Sep 12 19:49:00 2021, MaxMem= 23488102400 cpu:               1.6 elap:               0.1
 (Enter /sw/apps/gaussian-16.0/g16/l302.exe)
 NPDir=0 NMtPBC=     1 NCelOv=     1 NCel=       1 NClECP=     1 NCelD=      1
         NCelK=      1 NCelE2=     1 NClLst=     1 CellRange=     0.0.
 One-electron integrals computed using PRISM.
 One-electron integral symmetry used in STVInt
   1 Symmetry operations used in ECPInt.
 ECPInt:  NShTT=  271216 NPrTT=  987664 LenC2=  103957 LenP2D=  239865.
 LDataN:  DoStor=T MaxTD1= 4 Len=   56
 NBasis=  1572 RedAO= T EigKep=  3.36D-04  NBF=  1572
 NBsUse=  1572 1.00D-06 EigRej= -1.00D+00 NBFU=  1572
 Precomputing XC quadrature grid using
 IXCGrd= 4 IRadAn=           5 IRanWt=          -1 IRanGd=           0 AccXCQ= 0.00D+00.
 Generated NRdTot=       0 NPtTot=           0 NUsed=           0 NTot=          32
 NSgBfM=   812   812   812   812   812 MxSgAt=   158 MxSgA2=    79.
 Leave Link  302 at Sun Sep 12 19:49:04 2021, MaxMem= 23488102400 cpu:             102.4 elap:               4.3
 (Enter /sw/apps/gaussian-16.0/g16/l303.exe)
 DipDrv:  MaxL=1.
 Leave Link  303 at Sun Sep 12 19:49:05 2021, MaxMem= 23488102400 cpu:               8.6 elap:               0.4
 (Enter /sw/apps/gaussian-16.0/g16/l308.exe)
 Leave Link  308 at Sun Sep 12 19:49:06 2021, MaxMem= 23488102400 cpu:              13.8 elap:               0.6
 (Enter /sw/apps/gaussian-16.0/g16/l401.exe)
 ExpMin= 3.36D-02 ExpMax= 4.95D+03 ExpMxC= 7.45D+02 IAcc=3 IRadAn=         5 AccDes= 0.00D+00
 Harris functional with IExCor=20419 and IRadAn=       5 diagonalized for initial guess.
 HarFok:  IExCor=20419 AccDes= 0.00D+00 IRadAn=         5 IDoV= 1 UseB2=F ITyADJ=14
 ICtDFT=  3500011 ScaDFX=  1.000000  1.000000  1.000000  1.000000
 FoFCou: FMM=F IPFlag=           0 FMFlag=      100000 FMFlg1=        2001
         NFxFlg=           0 DoJE=T BraDBF=F KetDBF=T FulRan=T
         wScrn=  0.000000 ICntrl=       500 IOpCl=  0 I1Cent=   200000004 NGrid=           0
         NMat0=    1 NMatS0=      1 NMatT0=    0 NMatD0=    1 NMtDS0=    0 NMtDT0=    0
 Petite list used in FoFCou.
 Harris En= -3918.65801979772    
 JPrj=0 DoOrth=F DoCkMO=F.
 Leave Link  401 at Sun Sep 12 19:49:12 2021, MaxMem= 23488102400 cpu:             154.2 elap:               6.5
 (Enter /sw/apps/gaussian-16.0/g16/l502.exe)
 Integral symmetry usage will be decided dynamically.
 Closed shell SCF:
 Using DIIS extrapolation, IDIIS=  1040.
 NGot= 23488102400 LenX= 23482547354 LenY= 23479796732
 Requested convergence on RMS density matrix=1.00D-08 within 128 cycles.
 Requested convergence on MAX density matrix=1.00D-06.
 Requested convergence on             energy=1.00D-06.
 No special actions if energy rises.
 Fock matrices will be formed incrementally for  20 cycles.

 Cycle   1  Pass 1  IDiag  1:
 FoFJK:  IHMeth= 1 ICntrl=       0 DoSepK=T KAlg= 0 I1Cent=           0 FoldK=F
 IRaf=         1 NMat=       1 IRICut=       1 DoRegI=T DoRafI=F ISym2E= 0 IDoP0=0 IntGTp=1.
 FoFCou: FMM=T IPFlag=           0 FMFlag=      100000 FMFlg1=        2001
         NFxFlg=           0 DoJE=T BraDBF=F KetDBF=F FulRan=T
         wScrn=  0.000000 ICntrl=       500 IOpCl=  0 I1Cent=           0 NGrid=           0
         NMat0=    1 NMatS0=      1 NMatT0=    0 NMatD0=    1 NMtDS0=    0 NMtDT0=    0
 Symmetry not used in FoFCou.
 FMM levels:  10  Number of levels for PrismC:   9
 E= -4068.94928642404    
 DIIS: error= 2.04D-02 at cycle   1 NSaved=   1.
 NSaved= 1 IEnMin= 1 EnMin= -4068.94928642404     IErMin= 1 ErrMin= 2.04D-02
 ErrMax= 2.04D-02  0.00D+00 EMaxC= 1.00D-01 BMatC= 1.69D+00 BMatP= 1.69D+00
 IDIUse=3 WtCom= 7.96D-01 WtEn= 2.04D-01
 Coeff-Com:  0.100D+01
 Coeff-En:   0.100D+01
 Coeff:      0.100D+01
 Gap=     0.120 Goal=   None    Shift=    0.000
 GapD=    0.120 DampG=1.000 DampE=0.500 DampFc=0.5000 IDamp=-1.
 Damping current iteration by 5.00D-01
 RMSDP=1.57D-03 MaxDP=1.35D-01              OVMax= 2.03D-01

 Cycle   2  Pass 1  IDiag  1:
 RMSU=  7.69D-04    CP:  9.82D-01
 E= -4069.33820031703     Delta-E=       -0.388913892984 Rises=F Damp=T
 DIIS: error= 1.27D-02 at cycle   2 NSaved=   2.
 NSaved= 2 IEnMin= 2 EnMin= -4069.33820031703     IErMin= 2 ErrMin= 1.27D-02
 ErrMax= 1.27D-02  0.00D+00 EMaxC= 1.00D-01 BMatC= 3.07D-01 BMatP= 1.69D+00
 IDIUse=3 WtCom= 8.73D-01 WtEn= 1.27D-01
 Coeff-Com: -0.213D+00 0.121D+01
 Coeff-En:   0.000D+00 0.100D+01
 Coeff:     -0.186D+00 0.119D+01
 Gap=     0.138 Goal=   None    Shift=    0.000
 RMSDP=7.65D-04 MaxDP=9.44D-02 DE=-3.89D-01 OVMax= 1.88D-01

 Cycle   3  Pass 1  IDiag  1:
 RMSU=  7.32D-04    CP:  9.68D-01  1.24D+00
 E= -4069.62797040888     Delta-E=       -0.289770091853 Rises=F Damp=F
 DIIS: error= 1.58D-02 at cycle   3 NSaved=   3.
 NSaved= 3 IEnMin= 3 EnMin= -4069.62797040888     IErMin= 2 ErrMin= 1.27D-02
 ErrMax= 1.58D-02  0.00D+00 EMaxC= 1.00D-01 BMatC= 2.02D-01 BMatP= 3.07D-01
 IDIUse=3 WtCom= 8.42D-01 WtEn= 1.58D-01
 Coeff-Com: -0.267D+00 0.652D+00 0.616D+00
 Coeff-En:   0.000D+00 0.000D+00 0.100D+01
 Coeff:     -0.225D+00 0.549D+00 0.676D+00
 Gap=     0.125 Goal=   None    Shift=    0.000
 RMSDP=5.08D-04 MaxDP=4.84D-02 DE=-2.90D-01 OVMax= 1.42D-01

 Cycle   4  Pass 1  IDiag  1:
 RMSU=  2.65D-04    CP:  9.65D-01  1.55D+00  5.06D-01
 E= -4069.76508873981     Delta-E=       -0.137118330931 Rises=F Damp=F
 DIIS: error= 7.31D-03 at cycle   4 NSaved=   4.
 NSaved= 4 IEnMin= 4 EnMin= -4069.76508873981     IErMin= 4 ErrMin= 7.31D-03
 ErrMax= 7.31D-03  0.00D+00 EMaxC= 1.00D-01 BMatC= 5.04D-02 BMatP= 2.02D-01
 IDIUse=3 WtCom= 9.27D-01 WtEn= 7.31D-02
 Coeff-Com: -0.109D+00 0.226D+00 0.409D+00 0.474D+00
 Coeff-En:   0.000D+00 0.000D+00 0.221D+00 0.779D+00
 Coeff:     -0.101D+00 0.209D+00 0.395D+00 0.497D+00
 Gap=     0.123 Goal=   None    Shift=    0.000
 RMSDP=2.00D-04 MaxDP=2.04D-02 DE=-1.37D-01 OVMax= 6.16D-02

 Cycle   5  Pass 1  IDiag  1:
 RMSU=  7.58D-05    CP:  9.64D-01  1.49D+00  6.89D-01  5.50D-01
 E= -4069.81054448748     Delta-E=       -0.045455747668 Rises=F Damp=F
 DIIS: error= 7.85D-04 at cycle   5 NSaved=   5.
 NSaved= 5 IEnMin= 5 EnMin= -4069.81054448748     IErMin= 5 ErrMin= 7.85D-04
 ErrMax= 7.85D-04  0.00D+00 EMaxC= 1.00D-01 BMatC= 1.16D-03 BMatP= 5.04D-02
 IDIUse=3 WtCom= 9.92D-01 WtEn= 7.85D-03
 Coeff-Com: -0.357D-01 0.702D-01 0.165D+00 0.249D+00 0.551D+00
 Coeff-En:   0.000D+00 0.000D+00 0.000D+00 0.000D+00 0.100D+01
 Coeff:     -0.355D-01 0.696D-01 0.164D+00 0.247D+00 0.555D+00
 Gap=     0.123 Goal=   None    Shift=    0.000
 RMSDP=4.07D-05 MaxDP=4.16D-03 DE=-4.55D-02 OVMax= 1.63D-02

 Cycle   6  Pass 1  IDiag  1:
 RMSU=  3.02D-05    CP:  9.64D-01  1.49D+00  6.81D-01  6.21D-01  7.59D-01
 E= -4069.81155109078     Delta-E=       -0.001006603296 Rises=F Damp=F
 DIIS: error= 2.19D-04 at cycle   6 NSaved=   6.
 NSaved= 6 IEnMin= 6 EnMin= -4069.81155109078     IErMin= 6 ErrMin= 2.19D-04
 ErrMax= 2.19D-04  0.00D+00 EMaxC= 1.00D-01 BMatC= 1.76D-04 BMatP= 1.16D-03
 IDIUse=3 WtCom= 9.98D-01 WtEn= 2.19D-03
 Coeff-Com:  0.231D-02-0.677D-02 0.109D-01 0.398D-01 0.306D+00 0.648D+00
 Coeff-En:   0.000D+00 0.000D+00 0.000D+00 0.000D+00 0.103D+00 0.897D+00
 Coeff:      0.230D-02-0.676D-02 0.108D-01 0.397D-01 0.306D+00 0.648D+00
 Gap=     0.123 Goal=   None    Shift=    0.000
 RMSDP=1.58D-05 MaxDP=1.23D-03 DE=-1.01D-03 OVMax= 7.21D-03

 Cycle   7  Pass 1  IDiag  1:
 RMSU=  1.07D-05    CP:  9.64D-01  1.50D+00  6.87D-01  6.21D-01  8.60D-01
                    CP:  7.49D-01
 E= -4069.81173976833     Delta-E=       -0.000188677552 Rises=F Damp=F
 DIIS: error= 8.29D-05 at cycle   7 NSaved=   7.
 NSaved= 7 IEnMin= 7 EnMin= -4069.81173976833     IErMin= 7 ErrMin= 8.29D-05
 ErrMax= 8.29D-05  0.00D+00 EMaxC= 1.00D-01 BMatC= 2.07D-05 BMatP= 1.76D-04
 IDIUse=1 WtCom= 1.00D+00 WtEn= 0.00D+00
 Coeff-Com:  0.445D-02-0.974D-02-0.898D-02-0.383D-02 0.102D+00 0.329D+00
 Coeff-Com:  0.587D+00
 Coeff:      0.445D-02-0.974D-02-0.898D-02-0.383D-02 0.102D+00 0.329D+00
 Coeff:      0.587D+00
 Gap=     0.123 Goal=   None    Shift=    0.000
 RMSDP=6.50D-06 MaxDP=1.10D-03 DE=-1.89D-04 OVMax= 3.39D-03

 Cycle   8  Pass 1  IDiag  1:
 RMSU=  4.67D-06    CP:  9.64D-01  1.50D+00  6.88D-01  6.26D-01  8.64D-01
                    CP:  8.75D-01  8.23D-01
 E= -4069.81176547346     Delta-E=       -0.000025705131 Rises=F Damp=F
 DIIS: error= 5.00D-05 at cycle   8 NSaved=   8.
 NSaved= 8 IEnMin= 8 EnMin= -4069.81176547346     IErMin= 8 ErrMin= 5.00D-05
 ErrMax= 5.00D-05  0.00D+00 EMaxC= 1.00D-01 BMatC= 4.82D-06 BMatP= 2.07D-05
 IDIUse=1 WtCom= 1.00D+00 WtEn= 0.00D+00
 Coeff-Com:  0.215D-02-0.426D-02-0.775D-02-0.121D-01-0.117D-01 0.335D-01
 Coeff-Com:  0.344D+00 0.656D+00
 Coeff:      0.215D-02-0.426D-02-0.775D-02-0.121D-01-0.117D-01 0.335D-01
 Coeff:      0.344D+00 0.656D+00
 Gap=     0.123 Goal=   None    Shift=    0.000
 RMSDP=3.27D-06 MaxDP=3.52D-04 DE=-2.57D-05 OVMax= 1.11D-03

 Cycle   9  Pass 1  IDiag  1:
 RMSU=  1.91D-06    CP:  9.64D-01  1.50D+00  6.88D-01  6.27D-01  8.81D-01
                    CP:  9.01D-01  1.02D+00  9.40D-01
 E= -4069.81177316787     Delta-E=       -0.000007694414 Rises=F Damp=F
 DIIS: error= 1.95D-05 at cycle   9 NSaved=   9.
 NSaved= 9 IEnMin= 9 EnMin= -4069.81177316787     IErMin= 9 ErrMin= 1.95D-05
 ErrMax= 1.95D-05  0.00D+00 EMaxC= 1.00D-01 BMatC= 6.87D-07 BMatP= 4.82D-06
 IDIUse=1 WtCom= 1.00D+00 WtEn= 0.00D+00
 Coeff-Com:  0.462D-03-0.767D-03-0.266D-02-0.598D-02-0.212D-01-0.386D-01
 Coeff-Com:  0.104D+00 0.326D+00 0.639D+00
 Coeff:      0.462D-03-0.767D-03-0.266D-02-0.598D-02-0.212D-01-0.386D-01
 Coeff:      0.104D+00 0.326D+00 0.639D+00
 Gap=     0.123 Goal=   None    Shift=    0.000
 RMSDP=1.41D-06 MaxDP=1.49D-04 DE=-7.69D-06 OVMax= 7.42D-04

 Cycle  10  Pass 1  IDiag  1:
 RMSU=  9.37D-07    CP:  9.64D-01  1.50D+00  6.88D-01  6.28D-01  8.84D-01
                    CP:  9.15D-01  1.07D+00  1.11D+00  1.05D+00
 E= -4069.81177475097     Delta-E=       -0.000001583101 Rises=F Damp=F
 DIIS: error= 1.02D-05 at cycle  10 NSaved=  10.
 NSaved=10 IEnMin=10 EnMin= -4069.81177475097     IErMin=10 ErrMin= 1.02D-05
 ErrMax= 1.02D-05  0.00D+00 EMaxC= 1.00D-01 BMatC= 1.71D-07 BMatP= 6.87D-07
 IDIUse=1 WtCom= 1.00D+00 WtEn= 0.00D+00
 Coeff-Com: -0.427D-03 0.894D-03 0.123D-02 0.112D-02-0.376D-02-0.310D-01
 Coeff-Com: -0.464D-01-0.765D-01 0.255D+00 0.900D+00
 Coeff:     -0.427D-03 0.894D-03 0.123D-02 0.112D-02-0.376D-02-0.310D-01
 Coeff:     -0.464D-01-0.765D-01 0.255D+00 0.900D+00
 Gap=     0.123 Goal=   None    Shift=    0.000
 RMSDP=1.22D-06 MaxDP=1.24D-04 DE=-1.58D-06 OVMax= 6.09D-04

 Cycle  11  Pass 1  IDiag  1:
 RMSU=  5.15D-07    CP:  9.64D-01  1.50D+00  6.88D-01  6.28D-01  8.86D-01
                    CP:  9.25D-01  1.11D+00  1.22D+00  1.39D+00  1.37D+00
 E= -4069.81177553762     Delta-E=       -0.000000786651 Rises=F Damp=F
 DIIS: error= 3.96D-06 at cycle  11 NSaved=  11.
 NSaved=11 IEnMin=11 EnMin= -4069.81177553762     IErMin=11 ErrMin= 3.96D-06
 ErrMax= 3.96D-06  0.00D+00 EMaxC= 1.00D-01 BMatC= 6.11D-08 BMatP= 1.71D-07
 IDIUse=1 WtCom= 1.00D+00 WtEn= 0.00D+00
 Coeff-Com: -0.327D-03 0.635D-03 0.133D-02 0.212D-02 0.441D-02-0.836D-02
 Coeff-Com: -0.435D-01-0.132D+00-0.232D-01 0.465D+00 0.734D+00
 Coeff:     -0.327D-03 0.635D-03 0.133D-02 0.212D-02 0.441D-02-0.836D-02
 Coeff:     -0.435D-01-0.132D+00-0.232D-01 0.465D+00 0.734D+00
 Gap=     0.123 Goal=   None    Shift=    0.000
 RMSDP=6.86D-07 MaxDP=5.85D-05 DE=-7.87D-07 OVMax= 3.72D-04

 Cycle  12  Pass 1  IDiag  1:
 RMSU=  2.63D-07    CP:  9.64D-01  1.50D+00  6.88D-01  6.28D-01  8.87D-01
                    CP:  9.28D-01  1.14D+00  1.28D+00  1.56D+00  1.76D+00
                    CP:  1.20D+00
 E= -4069.81177579990     Delta-E=       -0.000000262280 Rises=F Damp=F
 DIIS: error= 2.34D-06 at cycle  12 NSaved=  12.
 NSaved=12 IEnMin=12 EnMin= -4069.81177579990     IErMin=12 ErrMin= 2.34D-06
 ErrMax= 2.34D-06  0.00D+00 EMaxC= 1.00D-01 BMatC= 1.48D-08 BMatP= 6.11D-08
 IDIUse=1 WtCom= 1.00D+00 WtEn= 0.00D+00
 Coeff-Com:  0.126D-06-0.168D-04 0.179D-03 0.510D-03 0.330D-02 0.405D-02
 Coeff-Com:  0.282D-02-0.349D-01-0.679D-01-0.756D-01 0.251D+00 0.917D+00
 Coeff:      0.126D-06-0.168D-04 0.179D-03 0.510D-03 0.330D-02 0.405D-02
 Coeff:      0.282D-02-0.349D-01-0.679D-01-0.756D-01 0.251D+00 0.917D+00
 Gap=     0.123 Goal=   None    Shift=    0.000
 RMSDP=4.37D-07 MaxDP=3.09D-05 DE=-2.62D-07 OVMax= 2.49D-04

 Cycle  13  Pass 1  IDiag  1:
 RMSU=  1.65D-07    CP:  9.64D-01  1.50D+00  6.88D-01  6.28D-01  8.88D-01
                    CP:  9.28D-01  1.14D+00  1.31D+00  1.67D+00  1.99D+00
                    CP:  1.61D+00  1.27D+00
 E= -4069.81177589177     Delta-E=       -0.000000091864 Rises=F Damp=F
 DIIS: error= 1.24D-06 at cycle  13 NSaved=  13.
 NSaved=13 IEnMin=13 EnMin= -4069.81177589177     IErMin=13 ErrMin= 1.24D-06
 ErrMax= 1.24D-06  0.00D+00 EMaxC= 1.00D-01 BMatC= 8.12D-09 BMatP= 1.48D-08
 IDIUse=1 WtCom= 1.00D+00 WtEn= 0.00D+00
 Coeff-Com:  0.120D-03-0.245D-03-0.370D-03-0.457D-03 0.572D-03 0.508D-02
 Coeff-Com:  0.197D-01 0.228D-01-0.339D-01-0.241D+00-0.156D+00 0.598D+00
 Coeff-Com:  0.786D+00
 Coeff:      0.120D-03-0.245D-03-0.370D-03-0.457D-03 0.572D-03 0.508D-02
 Coeff:      0.197D-01 0.228D-01-0.339D-01-0.241D+00-0.156D+00 0.598D+00
 Coeff:      0.786D+00
 Gap=     0.123 Goal=   None    Shift=    0.000
 RMSDP=3.39D-07 MaxDP=2.27D-05 DE=-9.19D-08 OVMax= 1.97D-04

 Cycle  14  Pass 1  IDiag  1:
 RMSU=  7.60D-08    CP:  9.64D-01  1.50D+00  6.88D-01  6.28D-01  8.88D-01
                    CP:  9.29D-01  1.15D+00  1.33D+00  1.74D+00  2.18D+00
                    CP:  1.88D+00  1.79D+00  1.09D+00
 E= -4069.81177592769     Delta-E=       -0.000000035920 Rises=F Damp=F
 DIIS: error= 6.38D-07 at cycle  14 NSaved=  14.
 NSaved=14 IEnMin=14 EnMin= -4069.81177592769     IErMin=14 ErrMin= 6.38D-07
 ErrMax= 6.38D-07  0.00D+00 EMaxC= 1.00D-01 BMatC= 1.25D-09 BMatP= 8.12D-09
 IDIUse=1 WtCom= 1.00D+00 WtEn= 0.00D+00
 Coeff-Com:  0.663D-04-0.131D-03-0.246D-03-0.387D-03-0.483D-03 0.129D-02
 Coeff-Com:  0.108D-01 0.192D-01 0.368D-02-0.996D-01-0.142D+00 0.934D-01
 Coeff-Com:  0.404D+00 0.710D+00
 Coeff:      0.663D-04-0.131D-03-0.246D-03-0.387D-03-0.483D-03 0.129D-02
 Coeff:      0.108D-01 0.192D-01 0.368D-02-0.996D-01-0.142D+00 0.934D-01
 Coeff:      0.404D+00 0.710D+00
 Gap=     0.123 Goal=   None    Shift=    0.000
 RMSDP=1.01D-07 MaxDP=6.63D-06 DE=-3.59D-08 OVMax= 5.43D-05

 Cycle  15  Pass 1  IDiag  1:
 RMSU=  3.82D-08    CP:  9.64D-01  1.50D+00  6.88D-01  6.28D-01  8.88D-01
                    CP:  9.28D-01  1.15D+00  1.34D+00  1.76D+00  2.22D+00
                    CP:  1.98D+00  1.92D+00  1.33D+00  1.03D+00
 E= -4069.81177593180     Delta-E=       -0.000000004109 Rises=F Damp=F
 DIIS: error= 3.38D-07 at cycle  15 NSaved=  15.
 NSaved=15 IEnMin=15 EnMin= -4069.81177593180     IErMin=15 ErrMin= 3.38D-07
 ErrMax= 3.38D-07  0.00D+00 EMaxC= 1.00D-01 BMatC= 2.25D-10 BMatP= 1.25D-09
 IDIUse=1 WtCom= 1.00D+00 WtEn= 0.00D+00
 Coeff-Com:  0.518D-05-0.856D-05-0.320D-04-0.808D-04-0.299D-03-0.515D-03
 Coeff-Com:  0.112D-02 0.249D-02 0.876D-02 0.186D-02-0.306D-01-0.731D-01
 Coeff-Com:  0.288D-01 0.297D+00 0.765D+00
 Coeff:      0.518D-05-0.856D-05-0.320D-04-0.808D-04-0.299D-03-0.515D-03
 Coeff:      0.112D-02 0.249D-02 0.876D-02 0.186D-02-0.306D-01-0.731D-01
 Coeff:      0.288D-01 0.297D+00 0.765D+00
 Gap=     0.123 Goal=   None    Shift=    0.000
 RMSDP=4.06D-08 MaxDP=2.68D-06 DE=-4.11D-09 OVMax= 2.69D-05

 Cycle  16  Pass 1  IDiag  1:
 RMSU=  1.87D-08    CP:  9.64D-01  1.50D+00  6.88D-01  6.28D-01  8.88D-01
                    CP:  9.28D-01  1.15D+00  1.34D+00  1.76D+00  2.24D+00
                    CP:  2.01D+00  1.98D+00  1.40D+00  1.24D+00  1.15D+00
 E= -4069.81177593250     Delta-E=       -0.000000000700 Rises=F Damp=F
 DIIS: error= 1.64D-07 at cycle  16 NSaved=  16.
 NSaved=16 IEnMin=16 EnMin= -4069.81177593250     IErMin=16 ErrMin= 1.64D-07
 ErrMax= 1.64D-07  0.00D+00 EMaxC= 1.00D-01 BMatC= 8.16D-11 BMatP= 2.25D-10
 IDIUse=1 WtCom= 1.00D+00 WtEn= 0.00D+00
 Coeff-Com: -0.142D-04 0.288D-04 0.470D-04 0.538D-04-0.266D-04-0.633D-03
 Coeff-Com: -0.198D-02-0.426D-02 0.454D-02 0.256D-01 0.207D-01-0.646D-01
 Coeff-Com: -0.831D-01-0.377D-01 0.398D+00 0.743D+00
 Coeff:     -0.142D-04 0.288D-04 0.470D-04 0.538D-04-0.266D-04-0.633D-03
 Coeff:     -0.198D-02-0.426D-02 0.454D-02 0.256D-01 0.207D-01-0.646D-01
 Coeff:     -0.831D-01-0.377D-01 0.398D+00 0.743D+00
 Gap=     0.123 Goal=   None    Shift=    0.000
 RMSDP=2.29D-08 MaxDP=1.59D-06 DE=-7.00D-10 OVMax= 1.30D-05

 Cycle  17  Pass 1  IDiag  1:
 RMSU=  1.04D-08    CP:  9.64D-01  1.50D+00  6.88D-01  6.28D-01  8.88D-01
                    CP:  9.28D-01  1.15D+00  1.34D+00  1.77D+00  2.24D+00
                    CP:  2.02D+00  2.01D+00  1.45D+00  1.34D+00  1.44D+00
                    CP:  1.25D+00
 E= -4069.81177593290     Delta-E=       -0.000000000400 Rises=F Damp=F
 DIIS: error= 9.41D-08 at cycle  17 NSaved=  17.
 NSaved=17 IEnMin=17 EnMin= -4069.81177593290     IErMin=17 ErrMin= 9.41D-08
 ErrMax= 9.41D-08  0.00D+00 EMaxC= 1.00D-01 BMatC= 1.77D-11 BMatP= 8.16D-11
 IDIUse=1 WtCom= 1.00D+00 WtEn= 0.00D+00
 Coeff-Com: -0.718D-05 0.140D-04 0.285D-04 0.425D-04 0.840D-04-0.122D-03
 Coeff-Com: -0.960D-03-0.280D-02 0.139D-03 0.918D-02 0.174D-01-0.719D-02
 Coeff-Com: -0.367D-01-0.102D+00-0.315D-01 0.293D+00 0.861D+00
 Coeff:     -0.718D-05 0.140D-04 0.285D-04 0.425D-04 0.840D-04-0.122D-03
 Coeff:     -0.960D-03-0.280D-02 0.139D-03 0.918D-02 0.174D-01-0.719D-02
 Coeff:     -0.367D-01-0.102D+00-0.315D-01 0.293D+00 0.861D+00
 Gap=     0.123 Goal=   None    Shift=    0.000
 RMSDP=1.37D-08 MaxDP=1.06D-06 DE=-4.00D-10 OVMax= 8.91D-06

 Cycle  18  Pass 1  IDiag  1:
 RMSU=  4.86D-09    CP:  9.64D-01  1.50D+00  6.88D-01  6.28D-01  8.88D-01
                    CP:  9.28D-01  1.15D+00  1.34D+00  1.77D+00  2.24D+00
                    CP:  2.02D+00  2.02D+00  1.47D+00  1.41D+00  1.61D+00
                    CP:  1.66D+00  1.39D+00
 E= -4069.81177593272     Delta-E=        0.000000000175 Rises=F Damp=F
 DIIS: error= 5.11D-08 at cycle  18 NSaved=  18.
 NSaved=18 IEnMin=17 EnMin= -4069.81177593290     IErMin=18 ErrMin= 5.11D-08
 ErrMax= 5.11D-08  0.00D+00 EMaxC= 1.00D-01 BMatC= 6.91D-12 BMatP= 1.77D-11
 IDIUse=1 WtCom= 1.00D+00 WtEn= 0.00D+00
 Coeff-Com:  0.207D-05-0.445D-05-0.466D-05-0.184D-05 0.590D-04 0.184D-03
 Coeff-Com:  0.407D-03 0.233D-03-0.129D-02-0.623D-02-0.164D-03 0.203D-01
 Coeff-Com:  0.186D-01-0.324D-01-0.163D+00-0.193D+00 0.349D+00 0.101D+01
 Coeff:      0.207D-05-0.445D-05-0.466D-05-0.184D-05 0.590D-04 0.184D-03
 Coeff:      0.407D-03 0.233D-03-0.129D-02-0.623D-02-0.164D-03 0.203D-01
 Coeff:      0.186D-01-0.324D-01-0.163D+00-0.193D+00 0.349D+00 0.101D+01
 Gap=     0.123 Goal=   None    Shift=    0.000
 RMSDP=1.18D-08 MaxDP=7.99D-07 DE= 1.75D-10 OVMax= 6.82D-06

 Cycle  19  Pass 1  IDiag  1:
 RMSU=  2.78D-09    CP:  9.64D-01  1.50D+00  6.88D-01  6.28D-01  8.88D-01
                    CP:  9.28D-01  1.15D+00  1.34D+00  1.77D+00  2.24D+00
                    CP:  2.03D+00  2.02D+00  1.48D+00  1.46D+00  1.77D+00
                    CP:  1.99D+00  1.94D+00  1.38D+00
 E= -4069.81177593305     Delta-E=       -0.000000000331 Rises=F Damp=F
 DIIS: error= 3.39D-08 at cycle  19 NSaved=  19.
 NSaved=19 IEnMin=19 EnMin= -4069.81177593305     IErMin=19 ErrMin= 3.39D-08
 ErrMax= 3.39D-08  0.00D+00 EMaxC= 1.00D-01 BMatC= 1.40D-12 BMatP= 6.91D-12
 IDIUse=1 WtCom= 1.00D+00 WtEn= 0.00D+00
 Coeff-Com:  0.286D-05-0.577D-05-0.981D-05-0.123D-04 0.107D-04 0.118D-03
 Coeff-Com:  0.472D-03 0.789D-03-0.588D-03-0.590D-02-0.479D-02 0.119D-01
 Coeff-Com:  0.200D-01 0.114D-01-0.678D-01-0.176D+00-0.338D-01 0.487D+00
 Coeff-Com:  0.757D+00
 Coeff:      0.286D-05-0.577D-05-0.981D-05-0.123D-04 0.107D-04 0.118D-03
 Coeff:      0.472D-03 0.789D-03-0.588D-03-0.590D-02-0.479D-02 0.119D-01
 Coeff:      0.200D-01 0.114D-01-0.678D-01-0.176D+00-0.338D-01 0.487D+00
 Coeff:      0.757D+00
 Gap=     0.123 Goal=   None    Shift=    0.000
 RMSDP=4.49D-09 MaxDP=3.22D-07 DE=-3.31D-10 OVMax= 2.92D-06

 SCF Done:  E(RCAM-B3LYP) =  -4069.81177593     A.U. after   19 cycles
            NFock= 19  Conv=0.45D-08     -V/T= 2.0102
 KE= 4.028802067732D+03 PE=-3.409427996084D+04 EE= 1.368894030123D+04
 Leave Link  502 at Sun Sep 12 19:57:33 2021, MaxMem= 23488102400 cpu:           11406.2 elap:             500.3
 (Enter /sw/apps/gaussian-16.0/g16/l801.exe)
 DoSCS=F DFT=T ScalE2(SS,OS)=  1.000000  1.000000
 ExpMin= 3.36D-02 ExpMax= 4.95D+03 ExpMxC= 7.45D+02 IAcc=3 IRadAn=         5 AccDes= 0.00D+00
 HarFok:  IExCor=  205 AccDes= 0.00D+00 IRadAn=         5 IDoV=-2 UseB2=F ITyADJ=14
 ICtDFT= 12500011 ScaDFX=  1.000000  1.000000  1.000000  1.000000
 GSVD:  LWork=       -9588 too small for GESVD, short by       45590 words or       45590 for optimal perf.
 Largest valence mixing into a core orbital is  2.03D-04
 Largest core mixing into a valence orbital is  5.24D-05
 Range of M.O.s used for correlation:    95  1572
 NBasis=  1572 NAE=   312 NBE=   312 NFC=    94 NFV=     0
 NROrb=   1478 NOA=   218 NOB=   218 NVA=  1260 NVB=  1260
 Leave Link  801 at Sun Sep 12 19:57:33 2021, MaxMem= 23488102400 cpu:               8.9 elap:               0.4
 (Enter /sw/apps/gaussian-16.0/g16/l914.exe)
 RHF ground state
 Two-electron integrals replicated using symmetry.
 MDV= 23488102400 DFT=T DoStab=F Mixed=T DoRPA=T DoScal=F NonHer=T
 Making orbital integer symmetry assigments:
 Orbital symmetries:
       Occupied  (A) (A) (A) (A) (A) (A) (A) (A) (A) (A) (A) (A)
                 (A) (A) (A) (A) (A) (A) (A) (A) (A) (A) (A) (A)
                 (A) (A) (A) (A) (A) (A) (A) (A) (A) (A) (A) (A)
                 (A) (A) (A) (A) (A) (A) (A) (A) (A) (A) (A) (A)
                 (A) (A) (A) (A) (A) (A) (A) (A) (A) (A) (A) (A)
                 (A) (A) (A) (A) (A) (A) (A) (A) (A) (A) (A) (A)
                 (A) (A) (A) (A) (A) (A) (A) (A) (A) (A) (A) (A)
                 (A) (A) (A) (A) (A) (A) (A) (A) (A) (A) (A) (A)
                 (A) (A) (A) (A) (A) (A) (A) (A) (A) (A) (A) (A)
                 (A) (A) (A) (A) (A) (A) (A) (A) (A) (A) (A) (A)
                 (A) (A) (A) (A) (A) (A) (A) (A) (A) (A) (A) (A)
                 (A) (A) (A) (A) (A) (A) (A) (A) (A) (A) (A) (A)
                 (A) (A) (A) (A) (A) (A) (A) (A) (A) (A) (A) (A)
                 (A) (A) (A) (A) (A) (A) (A) (A) (A) (A) (A) (A)
                 (A) (A) (A) (A) (A) (A) (A) (A) (A) (A) (A) (A)
                 (A) (A) (A) (A) (A) (A) (A) (A) (A) (A) (A) (A)
                 (A) (A) (A) (A) (A) (A) (A) (A) (A) (A) (A) (A)
                 (A) (A) (A) (A) (A) (A) (A) (A) (A) (A) (A) (A)
                 (A) (A) (A) (A) (A) (A) (A) (A) (A) (A) (A) (A)
                 (A) (A) (A) (A) (A) (A) (A) (A) (A) (A) (A) (A)
                 (A) (A) (A) (A) (A) (A) (A) (A) (A) (A) (A) (A)
                 (A) (A) (A) (A) (A) (A) (A) (A) (A) (A) (A) (A)
                 (A) (A) (A) (A) (A) (A) (A) (A) (A) (A) (A) (A)
                 (A) (A) (A) (A) (A) (A) (A) (A) (A) (A) (A) (A)
                 (A) (A) (A) (A) (A) (A) (A) (A) (A) (A) (A) (A)
                 (A) (A) (A) (A) (A) (A) (A) (A) (A) (A) (A) (A)
       Virtual   (A) (A) (A) (A) (A) (A) (A) (A) (A) (A) (A) (A)
                 (A) (A) (A) (A) (A) (A) (A) (A) (A) (A) (A) (A)
                 (A) (A) (A) (A) (A) (A) (A) (A) (A) (A) (A) (A)
                 (A) (A) (A) (A) (A) (A) (A) (A) (A) (A) (A) (A)
                 (A) (A) (A) (A) (A) (A) (A) (A) (A) (A) (A) (A)
                 (A) (A) (A) (A) (A) (A) (A) (A) (A) (A) (A) (A)
                 (A) (A) (A) (A) (A) (A) (A) (A) (A) (A) (A) (A)
                 (A) (A) (A) (A) (A) (A) (A) (A) (A) (A) (A) (A)
                 (A) (A) (A) (A) (A) (A) (A) (A) (A) (A) (A) (A)
                 (A) (A) (A) (A) (A) (A) (A) (A) (A) (A) (A) (A)
                 (A) (A) (A) (A) (A) (A) (A) (A) (A) (A) (A) (A)
                 (A) (A) (A) (A) (A) (A) (A) (A) (A) (A) (A) (A)
                 (A) (A) (A) (A) (A) (A) (A) (A) (A) (A) (A) (A)
                 (A) (A) (A) (A) (A) (A) (A) (A) (A) (A) (A) (A)
                 (A) (A) (A) (A) (A) (A) (A) (A) (A) (A) (A) (A)
                 (A) (A) (A) (A) (A) (A) (A) (A) (A) (A) (A) (A)
                 (A) (A) (A) (A) (A) (A) (A) (A) (A) (A) (A) (A)
                 (A) (A) (A) (A) (A) (A) (A) (A) (A) (A) (A) (A)
                 (A) (A) (A) (A) (A) (A) (A) (A) (A) (A) (A) (A)
                 (A) (A) (A) (A) (A) (A) (A) (A) (A) (A) (A) (A)
                 (A) (A) (A) (A) (A) (A) (A) (A) (A) (A) (A) (A)
                 (A) (A) (A) (A) (A) (A) (A) (A) (A) (A) (A) (A)
                 (A) (A) (A) (A) (A) (A) (A) (A) (A) (A) (A) (A)
                 (A) (A) (A) (A) (A) (A) (A) (A) (A) (A) (A) (A)
                 (A) (A) (A) (A) (A) (A) (A) (A) (A) (A) (A) (A)
                 (A) (A) (A) (A) (A) (A) (A) (A) (A) (A) (A) (A)
                 (A) (A) (A) (A) (A) (A) (A) (A) (A) (A) (A) (A)
                 (A) (A) (A) (A) (A) (A) (A) (A) (A) (A) (A) (A)
                 (A) (A) (A) (A) (A) (A) (A) (A) (A) (A) (A) (A)
                 (A) (A) (A) (A) (A) (A) (A) (A) (A) (A) (A) (A)
                 (A) (A) (A) (A) (A) (A) (A) (A) (A) (A) (A) (A)
                 (A) (A) (A) (A) (A) (A) (A) (A) (A) (A) (A) (A)
                 (A) (A) (A) (A) (A) (A) (A) (A) (A) (A) (A) (A)
                 (A) (A) (A) (A) (A) (A) (A) (A) (A) (A) (A) (A)
                 (A) (A) (A) (A) (A) (A) (A) (A) (A) (A) (A) (A)
                 (A) (A) (A) (A) (A) (A) (A) (A) (A) (A) (A) (A)
                 (A) (A) (A) (A) (A) (A) (A) (A) (A) (A) (A) (A)
                 (A) (A) (A) (A) (A) (A) (A) (A) (A) (A) (A) (A)
                 (A) (A) (A) (A) (A) (A) (A) (A) (A) (A) (A) (A)
                 (A) (A) (A) (A) (A) (A) (A) (A) (A) (A) (A) (A)
                 (A) (A) (A) (A) (A) (A) (A) (A) (A) (A) (A) (A)
                 (A) (A) (A) (A) (A) (A) (A) (A) (A) (A) (A) (A)
                 (A) (A) (A) (A) (A) (A) (A) (A) (A) (A) (A) (A)
                 (A) (A) (A) (A) (A) (A) (A) (A) (A) (A) (A) (A)
                 (A) (A) (A) (A) (A) (A) (A) (A) (A) (A) (A) (A)
                 (A) (A) (A) (A) (A) (A) (A) (A) (A) (A) (A) (A)
                 (A) (A) (A) (A) (A) (A) (A) (A) (A) (A) (A) (A)
                 (A) (A) (A) (A) (A) (A) (A) (A) (A) (A) (A) (A)
                 (A) (A) (A) (A) (A) (A) (A) (A) (A) (A) (A) (A)
                 (A) (A) (A) (A) (A) (A) (A) (A) (A) (A) (A) (A)
                 (A) (A) (A) (A) (A) (A) (A) (A) (A) (A) (A) (A)
                 (A) (A) (A) (A) (A) (A) (A) (A) (A) (A) (A) (A)
                 (A) (A) (A) (A) (A) (A) (A) (A) (A) (A) (A) (A)
                 (A) (A) (A) (A) (A) (A) (A) (A) (A) (A) (A) (A)
                 (A) (A) (A) (A) (A) (A) (A) (A) (A) (A) (A) (A)
                 (A) (A) (A) (A) (A) (A) (A) (A) (A) (A) (A) (A)
                 (A) (A) (A) (A) (A) (A) (A) (A) (A) (A) (A) (A)
                 (A) (A) (A) (A) (A) (A) (A) (A) (A) (A) (A) (A)
                 (A) (A) (A) (A) (A) (A) (A) (A) (A) (A) (A) (A)
                 (A) (A) (A) (A) (A) (A) (A) (A) (A) (A) (A) (A)
                 (A) (A) (A) (A) (A) (A) (A) (A) (A) (A) (A) (A)
                 (A) (A) (A) (A) (A) (A) (A) (A) (A) (A) (A) (A)
                 (A) (A) (A) (A) (A) (A) (A) (A) (A) (A) (A) (A)
                 (A) (A) (A) (A) (A) (A) (A) (A) (A) (A) (A) (A)
                 (A) (A) (A) (A) (A) (A) (A) (A) (A) (A) (A) (A)
                 (A) (A) (A) (A) (A) (A) (A) (A) (A) (A) (A) (A)
                 (A) (A) (A) (A) (A) (A) (A) (A) (A) (A) (A) (A)
                 (A) (A) (A) (A) (A) (A) (A) (A) (A) (A) (A) (A)
                 (A) (A) (A) (A) (A) (A) (A) (A) (A) (A) (A) (A)
                 (A) (A) (A) (A) (A) (A) (A) (A) (A) (A) (A) (A)
                 (A) (A) (A) (A) (A) (A) (A) (A) (A) (A) (A) (A)
                 (A) (A) (A) (A) (A) (A) (A) (A) (A) (A) (A) (A)
                 (A) (A) (A) (A) (A) (A) (A) (A) (A) (A) (A) (A)
                 (A) (A) (A) (A) (A) (A) (A) (A) (A) (A) (A) (A)
                 (A) (A) (A) (A) (A) (A) (A) (A) (A) (A) (A) (A)
                 (A) (A) (A) (A) (A) (A) (A) (A) (A) (A) (A) (A)
                 (A) (A) (A) (A) (A) (A) (A) (A) (A) (A) (A) (A)
                 (A) (A) (A) (A) (A) (A) (A) (A) (A) (A) (A) (A)
                 (A) (A) (A) (A) (A) (A) (A) (A) (A) (A) (A) (A)
                 (A) (A) (A) (A) (A) (A) (A) (A) (A) (A) (A) (A)
                 (A) (A) (A) (A) (A) (A) (A) (A) (A) (A) (A) (A)
                 (A) (A) (A) (A) (A) (A) (A) (A) (A) (A) (A) (A)
                 (A) (A) (A) (A) (A) (A) (A) (A) (A) (A) (A) (A)
                 (A) (A) (A) (A) (A) (A) (A) (A) (A) (A) (A) (A)
                 (A) (A) (A) (A) (A) (A) (A) (A) (A) (A) (A) (A)
                 (A) (A) (A) (A) (A) (A) (A) (A) (A) (A) (A) (A)
                 (A) (A) (A) (A) (A) (A) (A) (A) (A) (A) (A) (A)
                 (A) (A) (A) (A) (A) (A) (A) (A) (A) (A) (A) (A)
                 (A) (A) (A) (A) (A) (A) (A) (A) (A) (A) (A) (A)
                 (A) (A) (A) (A) (A) (A) (A) (A) (A) (A) (A) (A)
                 (A) (A) (A) (A) (A) (A) (A) (A) (A) (A) (A) (A)
                 (A) (A) (A) (A) (A) (A) (A) (A) (A) (A) (A) (A)
                 (A) (A) (A) (A) (A) (A) (A) (A) (A) (A) (A) (A)
                 (A) (A) (A) (A) (A) (A) (A) (A) (A) (A) (A) (A)
                 (A) (A) (A) (A) (A) (A) (A) (A) (A) (A) (A) (A)
                 (A) (A) (A) (A) (A) (A) (A) (A) (A) (A) (A) (A)
                 (A) (A) (A) (A) (A) (A) (A) (A) (A) (A) (A) (A)
                 (A) (A) (A) (A) (A) (A) (A) (A) (A) (A) (A) (A)
                 (A) (A) (A) (A) (A) (A) (A) (A) (A) (A) (A) (A)
                 (A) (A) (A) (A) (A) (A) (A) (A) (A) (A) (A) (A)
                 (A) (A) (A) (A) (A) (A) (A) (A) (A) (A) (A) (A)
                 (A) (A) (A) (A) (A) (A) (A) (A) (A) (A) (A) (A)
                 (A) (A) (A) (A) (A) (A) (A) (A) (A) (A) (A) (A)
                 (A) (A) (A) (A) (A) (A) (A) (A) (A) (A) (A) (A)
                 (A) (A) (A) (A) (A) (A) (A) (A) (A) (A) (A) (A)
    20 initial guesses have been made.
 Convergence on wavefunction:    0.001000000000000
 Davidson Disk Diagonalization:  ConvIn= 1.00D-03 SkipCon=T Conv= 1.00D-03.
 Max sub-space:  2000 roots to seek:    20 dimension of matrix:       549360
 Iteration     1 Dimension    20 NMult     0 NNew     20
 CISAX will form    20 AO SS matrices at one time.
 NMat=    20 NSing=    20 JSym2X= 0.
 FoFJK:  IHMeth= 1 ICntrl=       0 DoSepK=T KAlg= 0 I1Cent=           0 FoldK=F
 IRaf=         1 NMat=      40 IRICut=       1 DoRegI=T DoRafI=F ISym2E= 0 IDoP0=3 IntGTp=3.
 FoFCou: FMM=T IPFlag=           0 FMFlag=      100000 FMFlg1=        2001
         NFxFlg=           0 DoJE=F BraDBF=F KetDBF=F FulRan=T
         wScrn=  0.000000 ICntrl=       500 IOpCl=  0 I1Cent=           0 NGrid=           0
         NMat0=   20 NMatS0=     20 NMatT0=    0 NMatD0=   20 NMtDS0=    0 NMtDT0=    0
 Symmetry not used in FoFCou.
 FMM levels:  10  Number of levels for PrismC:   9
 New state      1 was old state      8
 New state      2 was old state      5
 New state      3 was old state      1
 New state      5 was old state      2
 Excitation Energies [eV] at current iteration:
 Root      1 :     2.614338760179149
 Root      2 :     2.619374774087600
 Root      3 :     2.680506902399996
 Root      4 :     2.690095803110751
 Root      5 :     3.065962856190282
 Root      6 :     3.067143072554587
 Root      7 :     3.628581046316772
 Root      8 :     3.669205765381668
 Root      9 :     3.735954749747598
 Root     10 :     3.759248476760303
 Root     11 :     3.860953511907252
 Root     12 :     3.869303959414308
 Root     13 :     4.303365298422992
 Root     14 :     4.306541648919627
 Root     15 :     4.978061565829739
 Root     16 :     5.000193737370727
 Root     17 :     5.272016949664826
 Root     18 :     5.294458826200446
 Root     19 :     5.304218781173945
 Root     20 :     5.328678713479274
 Iteration     2 Dimension    30 NMult    20 NNew     10
 CISAX will form    10 AO SS matrices at one time.
 NMat=    10 NSing=    10 JSym2X= 0.
 New state      1 was old state      3
 Root      1 not converged, maximum delta is    0.188435303403677
 New state      2 was old state      4
 Root      2 not converged, maximum delta is    0.189802184485253
 New state      3 was old state      2
 Root      3 not converged, maximum delta is    0.067001700480107
 New state      4 was old state      1
 Root      4 not converged, maximum delta is    0.089513938029282
 Root      5 has converged.
 Excitation Energies [eV] at current iteration:
 Root      1 :     1.801404533542549   Change is   -0.879102368857448
 Root      2 :     1.807340308391287   Change is   -0.882755494719464
 Root      3 :     2.235864767037852   Change is   -0.383510007049748
 Root      4 :     2.239086744108543   Change is   -0.375252016070606
 Root      5 :     3.065956650742891   Change is   -0.000006205447391
 Iteration     3 Dimension    38 NMult    30 NNew      8
 CISAX will form     8 AO SS matrices at one time.
 NMat=     8 NSing=     8 JSym2X= 0.
 Root      1 not converged, maximum delta is    0.070235900847865
 Root      2 not converged, maximum delta is    0.071415454579995
 Root      3 not converged, maximum delta is    0.044064447097234
 Root      4 not converged, maximum delta is    0.042528284235208
 Root      5 has converged.
 Excitation Energies [eV] at current iteration:
 Root      1 :     1.694159993988041   Change is   -0.107244539554508
 Root      2 :     1.698952106817958   Change is   -0.108388201573329
 Root      3 :     2.194364561211963   Change is   -0.041500205825889
 Root      4 :     2.200234409693677   Change is   -0.038852334414866
 Root      5 :     3.065956650742864   Change is   -0.000000000000027
 Iteration     4 Dimension    46 NMult    38 NNew      8
 CISAX will form     8 AO SS matrices at one time.
 NMat=     8 NSing=     8 JSym2X= 0.
 Root      1 not converged, maximum delta is    0.013153876828685
 Root      2 not converged, maximum delta is    0.013418792099546
 Root      3 not converged, maximum delta is    0.009750539647857
 Root      4 not converged, maximum delta is    0.008888866937439
 Root      5 has converged.
 Excitation Energies [eV] at current iteration:
 Root      1 :     1.677449439789681   Change is   -0.016710554198360
 Root      2 :     1.682070418711719   Change is   -0.016881688106239
 Root      3 :     2.187056627508136   Change is   -0.007307933703827
 Root      4 :     2.193462638897615   Change is   -0.006771770796062
 Root      5 :     3.065956650742891   Change is    0.000000000000027
 Iteration     5 Dimension    54 NMult    46 NNew      8
 CISAX will form     8 AO SS matrices at one time.
 NMat=     8 NSing=     8 JSym2X= 0.
 Root      1 not converged, maximum delta is    0.002184188756583
 Root      2 not converged, maximum delta is    0.002188149463442
 Root      3 not converged, maximum delta is    0.002502414296887
 Root      4 not converged, maximum delta is    0.002384851456284
 Root      5 has converged.
 Excitation Energies [eV] at current iteration:
 Root      1 :     1.675670840583575   Change is   -0.001778599206107
 Root      2 :     1.680297949964810   Change is   -0.001772468746909
 Root      3 :     2.186209787022542   Change is   -0.000846840485594
 Root      4 :     2.192687220882822   Change is   -0.000775418014794
 Root      5 :     3.065956650742837   Change is   -0.000000000000054
 Iteration     6 Dimension    62 NMult    54 NNew      8
 CISAX will form     8 AO SS matrices at one time.
 NMat=     8 NSing=     8 JSym2X= 0.
 Root      1 not converged, maximum delta is    0.001370774261941
 Root      2 not converged, maximum delta is    0.001392720534814
 Root      3 not converged, maximum delta is    0.001071075582425
 Root      4 not converged, maximum delta is    0.001013517344403
 Root      5 has converged.
 Excitation Energies [eV] at current iteration:
 Root      1 :     1.675417026134606   Change is   -0.000253814448969
 Root      2 :     1.680042835993569   Change is   -0.000255113971241
 Root      3 :     2.186081456562914   Change is   -0.000128330459628
 Root      4 :     2.192569547824879   Change is   -0.000117673057942
 Root      5 :     3.065956650742891   Change is    0.000000000000054
 Iteration     7 Dimension    70 NMult    62 NNew      8
 CISAX will form     8 AO SS matrices at one time.
 NMat=     8 NSing=     8 JSym2X= 0.
 Root      1 has converged.
 Root      2 has converged.
 Root      3 has converged.
 Root      4 has converged.
 Root      5 has converged.
 Excitation Energies [eV] at current iteration:
 Root      1 :     1.675392807818033   Change is   -0.000024218316573
 Root      2 :     1.680019092602276   Change is   -0.000023743391292
[...]
 Alpha virt. eigenvalues --    1.83476   1.83796   1.83847   1.84061   1.84159
 Alpha virt. eigenvalues --    1.84481   1.84487   1.84743   1.84848   1.85080
 Alpha virt. eigenvalues --    1.85140   1.85301   1.85311   1.85443   1.85521
 Alpha virt. eigenvalues --    1.85855   1.85905   1.86337   1.86398   1.86593
 Alpha virt. eigenvalues --    1.86607   1.86779   1.86820   1.86998   1.87075
 Alpha virt. eigenvalues --    1.87437   1.87482   1.87717   1.87727   1.87905
 Alpha virt. eigenvalues --    1.87968   1.88077   1.88133   1.88528   1.88573
 Alpha virt. eigenvalues --    1.88859   1.88893   1.89027   1.89164   1.89614
 Alpha virt. eigenvalues --    1.89663   1.89784   1.89831   1.90144   1.90155
 Alpha virt. eigenvalues --    1.90788   1.90849   1.91379   1.91385   1.91477
 Alpha virt. eigenvalues --    1.91546   1.92137   1.92191   1.92616   1.92661
 Alpha virt. eigenvalues --    1.93019   1.93104   1.93375   1.93455   1.94262
 Alpha virt. eigenvalues --    1.94320   1.94726   1.94768   1.95513   1.95544
 Alpha virt. eigenvalues --    1.95763   1.95767   1.96002   1.96031   1.96127
 Alpha virt. eigenvalues --    1.96190   1.96436   1.96631   1.96889   1.96936
 Alpha virt. eigenvalues --    1.97487   1.97495   1.97755   1.97872   1.98121
 Alpha virt. eigenvalues --    1.98206   1.98304   1.98709   1.99025   1.99172
 Alpha virt. eigenvalues --    1.99857   1.99885   2.00678   2.00697   2.01032
 Alpha virt. eigenvalues --    2.01049   2.01458   2.01515   2.01561   2.01710
 Alpha virt. eigenvalues --    2.01755   2.01778   2.02663   2.02822   2.03093
 Alpha virt. eigenvalues --    2.03272   2.03332   2.03440   2.03473   2.03519
 Alpha virt. eigenvalues --    2.03978   2.04072   2.04928   2.04995   2.05551
 Alpha virt. eigenvalues --    2.05581   2.06116   2.06238   2.06938   2.06986
 Alpha virt. eigenvalues --    2.07220   2.07299   2.08503   2.08623   2.08956
 Alpha virt. eigenvalues --    2.09017   2.09564   2.09625   2.10816   2.10984
 Alpha virt. eigenvalues --    2.11219   2.11358   2.11484   2.11573   2.11763
 Alpha virt. eigenvalues --    2.11816   2.12417   2.12500   2.12751   2.12820
 Alpha virt. eigenvalues --    2.12841   2.12871   2.13582   2.13800   2.14174
 Alpha virt. eigenvalues --    2.14202   2.15356   2.15372   2.15961   2.16032
 Alpha virt. eigenvalues --    2.16542   2.16559   2.16790   2.17123   2.17452
 Alpha virt. eigenvalues --    2.17598   2.17740   2.17884   2.17953   2.18106
 Alpha virt. eigenvalues --    2.18359   2.18623   2.18902   2.19185   2.19676
 Alpha virt. eigenvalues --    2.19769   2.20073   2.20192   2.20247   2.20388
 Alpha virt. eigenvalues --    2.21121   2.21188   2.21705   2.21713   2.21779
 Alpha virt. eigenvalues --    2.21825   2.22650   2.22716   2.23290   2.23349
 Alpha virt. eigenvalues --    2.24367   2.24430   2.24953   2.24996   2.26333
 Alpha virt. eigenvalues --    2.26389   2.26815   2.26957   2.27136   2.27152
 Alpha virt. eigenvalues --    2.28172   2.28263   2.29303   2.29385   2.29769
 Alpha virt. eigenvalues --    2.29827   2.30488   2.30571   2.30775   2.31117
 Alpha virt. eigenvalues --    2.31148   2.31214   2.32156   2.32186   2.33168
 Alpha virt. eigenvalues --    2.33182   2.33430   2.33496   2.34088   2.34174
 Alpha virt. eigenvalues --    2.35247   2.35403   2.35830   2.35857   2.36279
 Alpha virt. eigenvalues --    2.36388   2.36394   2.36658   2.37623   2.37694
 Alpha virt. eigenvalues --    2.38293   2.38327   2.38730   2.38889   2.39614
 Alpha virt. eigenvalues --    2.39644   2.40212   2.40216   2.40518   2.40775
 Alpha virt. eigenvalues --    2.41159   2.41301   2.41639   2.41721   2.42071
 Alpha virt. eigenvalues --    2.42074   2.42766   2.42978   2.43018   2.43563
 Alpha virt. eigenvalues --    2.43921   2.44201   2.44749   2.44764   2.44932
 Alpha virt. eigenvalues --    2.44937   2.45514   2.45580   2.46228   2.46335
 Alpha virt. eigenvalues --    2.46438   2.46511   2.46742   2.46832   2.47287
 Alpha virt. eigenvalues --    2.47319   2.47747   2.47827   2.49334   2.49344
 Alpha virt. eigenvalues --    2.49833   2.50102   2.50396   2.50583   2.51152
 Alpha virt. eigenvalues --    2.51208   2.51551   2.51918   2.52338   2.52470
 Alpha virt. eigenvalues --    2.52841   2.53103   2.53908   2.53951   2.54183
 Alpha virt. eigenvalues --    2.54221   2.54745   2.54821   2.55552   2.55604
 Alpha virt. eigenvalues --    2.57897   2.58015   2.58676   2.58840   2.60237
 Alpha virt. eigenvalues --    2.60238   2.60643   2.60860   2.61743   2.61756
 Alpha virt. eigenvalues --    2.62366   2.62564   2.62987   2.63061   2.63967
 Alpha virt. eigenvalues --    2.64154   2.64277   2.64359   2.65032   2.65111
 Alpha virt. eigenvalues --    2.65795   2.65817   2.66753   2.66810   2.66941
 Alpha virt. eigenvalues --    2.66989   2.67913   2.67940   2.68751   2.68888
 Alpha virt. eigenvalues --    2.68965   2.69053   2.69422   2.69525   2.70029
 Alpha virt. eigenvalues --    2.70069   2.70999   2.71011   2.71825   2.72084
 Alpha virt. eigenvalues --    2.72424   2.72667   2.72683   2.72856   2.73215
 Alpha virt. eigenvalues --    2.73308   2.73400   2.73560   2.74436   2.74541
 Alpha virt. eigenvalues --    2.74984   2.75005   2.76448   2.76622   2.76993
 Alpha virt. eigenvalues --    2.77262   2.77487   2.77532   2.78222   2.78222
 Alpha virt. eigenvalues --    2.78616   2.78760   2.79083   2.79165   2.80190
 Alpha virt. eigenvalues --    2.80375   2.80616   2.80618   2.81076   2.81145
 Alpha virt. eigenvalues --    2.81915   2.81964   2.82259   2.82372   2.83771
 Alpha virt. eigenvalues --    2.83781   2.83798   2.83830   2.84451   2.84576
 Alpha virt. eigenvalues --    2.84808   2.84914   2.85616   2.85698   2.86583
 Alpha virt. eigenvalues --    2.87026   2.87100   2.87635   2.88161   2.88186
 Alpha virt. eigenvalues --    2.88538   2.88540   2.88794   2.88965   2.90527
 Alpha virt. eigenvalues --    2.90582   2.90990   2.91219   2.93184   2.93244
 Alpha virt. eigenvalues --    2.93692   2.94230   2.94494   2.94589   2.95396
 Alpha virt. eigenvalues --    2.95396   2.95765   2.96230   2.96296   2.96471
 Alpha virt. eigenvalues --    2.96796   2.97205   2.97845   2.97952   2.98238
 Alpha virt. eigenvalues --    2.98280   2.98396   2.98494   2.98631   2.98701
 Alpha virt. eigenvalues --    2.98843   2.98914   2.99617   2.99720   2.99939
 Alpha virt. eigenvalues --    3.00060   3.00249   3.00257   3.00491   3.00914
 Alpha virt. eigenvalues --    3.01822   3.02020   3.02037   3.02063   3.02744
 Alpha virt. eigenvalues --    3.02761   3.03007   3.03237   3.03358   3.03630
 Alpha virt. eigenvalues --    3.03973   3.04201   3.04351   3.04481   3.04578
 Alpha virt. eigenvalues --    3.04647   3.05271   3.05328   3.06083   3.06144
 Alpha virt. eigenvalues --    3.06833   3.06856   3.07841   3.08177   3.09275
 Alpha virt. eigenvalues --    3.09431   3.09723   3.10354   3.10472   3.10659
 Alpha virt. eigenvalues --    3.11363   3.11398   3.11817   3.11972   3.12209
 Alpha virt. eigenvalues --    3.12224   3.13313   3.13569   3.13606   3.13672
 Alpha virt. eigenvalues --    3.14120   3.14396   3.15906   3.15954   3.17295
 Alpha virt. eigenvalues --    3.17437   3.17797   3.18111   3.18950   3.19160
 Alpha virt. eigenvalues --    3.22334   3.22517   3.23979   3.24357   3.24705
 Alpha virt. eigenvalues --    3.25112   3.26537   3.26574   3.27312   3.27653
 Alpha virt. eigenvalues --    3.29130   3.29142   3.31296   3.31557   3.33102
 Alpha virt. eigenvalues --    3.33451   3.40183   3.40659   3.42736   3.42850
 Alpha virt. eigenvalues --    3.48615   3.48692   3.50055   3.50199   3.50754
 Alpha virt. eigenvalues --    3.51508   3.56584   3.56923   3.59133   3.59257
 Alpha virt. eigenvalues --    3.62433   3.62871   3.66033   3.66220   3.67216
 Alpha virt. eigenvalues --    3.67464   3.73302   3.73941   3.76088   3.76599
          Condensed to atoms (all electrons):
 Mulliken charges:
               1
     1  Mg   0.838756
     2  C   -0.002966
     3  C   -0.094121
     4  C   -0.045857
     5  C   -0.063932
     6  N   -0.256776
     7  C   -0.052480
     8  C   -0.014032
     9  C   -0.086993
    10  C    0.046312
    11  C    0.104813
    12  C    0.053486
    13  C   -0.071793
    14  H    0.036075
    15  N   -0.433139
    16  C    0.168398
    17  C   -0.177151
    18  C   -0.004010
    19  C    0.148715
    20  C    0.110180
    21  C    0.012293
    22  O   -0.249609
    23  C    0.062474
    24  N   -0.341124
    25  C    0.041225
    26  C   -0.028179
    27  C   -0.023984
    28  C    0.074825
    29  C    0.076172
    30  C    0.035134
    31  C   -0.004512
    32  N   -0.310482
    33  C    0.080411
    34  C   -0.169698
    35  C    0.008352
    36  C    0.082989
    37  C    0.127308
    38  C    0.046113
    39  O   -0.188444
    40  C   -0.005330
    41  C    0.212868
    42  O   -0.257114
    43  O   -0.304792
    44  C    0.157709
    45  H   -0.017610
    46  H   -0.016823
    47  H   -0.041471
    48  H    0.000934
    49  H   -0.004049
    50  H    0.025475
    51  H    0.016457
    52  H    0.016650
    53  H    0.011200
    54  H    0.044116
    55  H    0.017877
    56  H    0.017942
    57  H    0.005862
    58  H    0.026830
    59  H    0.039543
    60  H    0.037346
    61  H    0.035663
    62  H    0.031492
    63  H    0.016567
    64  H    0.009472
    65  H    0.023226
    66  H    0.012540
    67  H    0.004762
    68  H    0.006384
    69  H    0.004745
    70  H    0.008784
    71  H    0.018171
    72  H    0.028965
    73  H    0.047579
    74  H    0.009133
    75  H    0.046012
    76  H    0.035149
    77  H    0.042938
    78  H    0.046383
    79  H    0.053668
    80  Mg   0.837866
    81  C   -0.016827
    82  C   -0.087784
    83  C   -0.045504
    84  C   -0.064869
    85  N   -0.254584
    86  C   -0.049816
    87  C   -0.015109
    88  C   -0.090485
    89  C    0.045765
    90  C    0.114366
    91  C    0.062519
    92  C   -0.077903
    93  H    0.034910
    94  N   -0.423491
    95  C    0.162906
    96  C   -0.174612
    97  C   -0.007825
    98  C    0.152120
    99  C    0.099357
   100  C    0.015556
   101  O   -0.253190
   102  C    0.061202
   103  N   -0.350067
   104  C    0.037503
   105  C   -0.019840
   106  C   -0.034830
   107  C    0.088929
   108  C    0.073655
   109  C    0.034748
   110  C   -0.007682
   111  N   -0.324116
   112  C    0.078454
   113  C   -0.163123
   114  C    0.002261
   115  C    0.096204
   116  C    0.131494
   117  C    0.042395
   118  O   -0.187813
   119  C    0.000931
   120  C    0.211249
   121  O   -0.251033
   122  O   -0.305609
   123  C    0.152029
   124  H   -0.019642
   125  H   -0.015587
   126  H   -0.040450
   127  H   -0.000593
   128  H   -0.004323
   129  H    0.022513
   130  H    0.014428
   131  H    0.016326
   132  H    0.013901
   133  H    0.037670
   134  H    0.020833
   135  H    0.019586
   136  H    0.008778
   137  H    0.026134
   138  H    0.039785
   139  H    0.038247
   140  H    0.036375
   141  H    0.033897
   142  H    0.014386
   143  H    0.012446
   144  H    0.025123
   145  H    0.011654
   146  H    0.005698
   147  H    0.006257
   148  H    0.003659
   149  H    0.010923
   150  H    0.017930
   151  H    0.030107
   152  H    0.046015
   153  H    0.008506
   154  H    0.046999
   155  H    0.035096
   156  H    0.043954
   157  H    0.049500
   158  H    0.053563
 Sum of Mulliken charges =  -0.00000
 Mulliken charges with hydrogens summed into heavy atoms:
               1
     1  Mg   0.838756
     2  C   -0.002966
     3  C   -0.111731
     4  C   -0.062680
     5  C   -0.105403
     6  N   -0.256776
     7  C   -0.052480
     8  C   -0.013098
     9  C   -0.091042
    10  C    0.046312
    11  C    0.163395
    12  C    0.108802
    13  C    0.000101
    15  N   -0.433139
    16  C    0.168398
    17  C   -0.177151
    18  C   -0.004010
    19  C    0.148715
    20  C    0.182414
    21  C    0.012293
    22  O   -0.249609
    23  C    0.166975
    24  N   -0.341124
    25  C    0.041225
    26  C   -0.011612
    27  C   -0.014511
    28  C    0.074825
    29  C    0.116700
    30  C    0.046263
    31  C    0.051408
    32  N   -0.310482
    33  C    0.080411
    34  C   -0.169698
    35  C    0.008352
    36  C    0.082989
    37  C    0.230032
    38  C    0.046113
    39  O   -0.188444
    40  C    0.029819
    41  C    0.212868
    42  O   -0.257114
    43  O   -0.304792
    44  C    0.300698
    80  Mg   0.837866
    81  C   -0.016827
    82  C   -0.107426
    83  C   -0.061092
    84  C   -0.105318
    85  N   -0.254584
    86  C   -0.049816
    87  C   -0.015702
    88  C   -0.094808
    89  C    0.045765
    90  C    0.167633
    91  C    0.114091
    92  C   -0.002573
    94  N   -0.423491
    95  C    0.162906
    96  C   -0.174612
    97  C   -0.007825
    98  C    0.152120
    99  C    0.174054
   100  C    0.015556
   101  O   -0.253190
   102  C    0.169720
   103  N   -0.350067
   104  C    0.037503
   105  C   -0.005454
   106  C   -0.022384
   107  C    0.088929
   108  C    0.116129
   109  C    0.044664
   110  C    0.051278
   111  N   -0.324116
   112  C    0.078454
   113  C   -0.163123
   114  C    0.002261
   115  C    0.096204
   116  C    0.233013
   117  C    0.042395
   118  O   -0.187813
   119  C    0.036026
   120  C    0.211249
   121  O   -0.251033
   122  O   -0.305609
   123  C    0.299047
 Electronic spatial extent (au):  <R**2>=         614166.9044
 Charge=             -0.0000 electrons
 Dipole moment (field-independent basis, Debye):
    X=              4.1292    Y=             -2.3403    Z=              7.2644  Tot=              8.6775
 Quadrupole moment (field-independent basis, Debye-Ang):
   XX=           -516.3466   YY=           -541.6051   ZZ=           -457.3481
   XY=            -34.5875   XZ=             -9.9901   YZ=             39.3057
 Traceless Quadrupole moment (field-independent basis, Debye-Ang):
   XX=            -11.2466   YY=            -36.5051   ZZ=             47.7518
   XY=            -34.5875   XZ=             -9.9901   YZ=             39.3057
 Octapole moment (field-independent basis, Debye-Ang**2):
  XXX=           3132.3213  YYY=            293.3042  ZZZ=            127.1692  XYY=           -465.3589
  XXY=           -590.1258  XXZ=           1922.9086  XZZ=            463.8151  YZZ=           -111.6460
  YYZ=            151.5515  XYZ=           -500.3951
 Hexadecapole moment (field-independent basis, Debye-Ang**3):
 XXXX=        -786620.5788 YYYY=         -40908.6707 ZZZZ=         -25485.0445 XXXY=          -5733.6807
 XXXZ=          -2221.1397 YYYX=          -3646.6367 YYYZ=            882.4218 ZZZX=          -2745.1290
 ZZZY=            278.0109 XXYY=        -143495.9901 XXZZ=        -120625.8568 YYZZ=         -10996.8358
 XXYZ=           9650.6006 YYXZ=           3700.6126 ZZXY=           1376.2857
 N-N= 1.230672581594D+04 E-N=-3.409427995226D+04  KE= 4.028802067732D+03
 Leave Link  601 at Sun Sep 12 20:15:56 2021, MaxMem= 23488102400 cpu:              19.4 elap:               0.9
 (Enter /sw/apps/gaussian-16.0/g16/l9999.exe)
 1\1\GINC-BP1-COMPUTE00099\SP\RCAM-B3LYP TD-FC\def2SVP\C68H72Mg2N8O8\OF
 15641\12-Sep-2021\0\\#p cam-b3lyp/Def2SVP td=(nstates=5)\\TDDFT excite
 d states in gaussian\\0,1\Mg,0,0.,0.,0.\C,0,-0.217,-2.218,2.801\C,0,-1
 .255,2.442,2.026\C,0,-0.245,1.85,-2.564\C,0,0.146,-2.824,-2.037\N,0,-0
 .617,-0.009,2.126\C,0,-0.594,-0.908,3.105\C,0,-0.936,-0.309,4.502\C,0,
 -1.773,0.964,4.032\C,0,-1.155,1.168,2.66\C,0,-3.263,0.685,3.863\C,0,0.
 345,0.11,5.299\C,0,0.124,0.397,6.787\H,0,1.168,0.033,7.733\N,0,-0.185,
 1.961,-0.152\C,0,-0.703,2.8,0.777\C,0,-0.62,4.156,0.193\C,0,-0.187,4.0
 15,-1.225\C,0,-0.214,2.583,-1.38\C,0,-0.887,5.406,0.974\C,0,0.181,5.01
 3,-2.277\O,0,0.303,4.69,-3.508\C,0,0.31,6.414,-1.837\N,0,-0.265,-0.413
 ,-2.029\C,0,-0.279,0.569,-2.937\C,0,-0.196,0.024,-4.332\C,0,0.124,-1.5
 33,-4.18\C,0,0.086,-1.632,-2.635\C,0,-1.451,0.205,-5.197\C,0,1.373,-2.
 07,-4.923\C,0,2.626,-1.49,-4.306\N,0,0.15,-2.144,0.303\C,0,0.173,-3.13
 6,-0.688\C,0,0.173,-4.438,0.004\C,0,0.133,-4.111,1.358\C,0,0.083,-2.69
 5,1.502\C,0,0.149,-5.715,-0.623\C,0,0.096,-4.629,2.716\O,0,0.208,-5.74
 7,3.221\C,0,-0.255,-3.428,3.701\C,0,0.717,-3.482,4.848\O,0,1.931,-3.25
 5,4.669\O,0,0.038,-3.556,6.003\C,0,0.943,-3.583,7.183\H,0,-1.859,3.22,
 2.497\H,0,-0.218,2.453,-3.474\H,0,0.276,-3.747,-2.605\H,0,-1.554,-0.94
 9,5.132\H,0,-1.585,1.831,4.665\H,0,-3.484,-0.377,3.969\H,0,-3.511,1.02
 7,2.858\H,0,-3.852,1.301,4.543\H,0,0.669,1.096,4.966\H,0,1.13,-0.639,5
 .189\H,0,-0.844,0.026,7.125\H,0,0.062,1.477,6.921\H,0,-1.344,5.186,1.9
 38\H,0,-1.651,5.963,0.432\H,0,0.007,6.02,1.084\H,0,-0.635,6.744,-1.405
 \H,0,0.665,6.97,-2.704\H,0,1.048,6.466,-1.036\H,0,0.608,0.501,-4.891\H
 ,0,-0.692,-2.156,-4.547\H,0,-1.267,0.74,-6.129\H,0,-2.204,0.714,-4.596
 \H,0,-1.967,-0.72,-5.453\H,0,1.356,-1.759,-5.967\H,0,1.452,-3.157,-4.9
 02\H,0,2.714,-0.522,-4.798\H,0,3.487,-2.121,-4.529\H,0,2.495,-1.303,-3
 .24\H,0,0.867,-6.333,-0.084\H,0,0.404,-5.642,-1.68\H,0,-0.891,-5.999,-
 0.463\H,0,-1.283,-3.581,4.028\H,0,0.698,-4.478,7.755\H,0,0.833,-2.619,
 7.68\H,0,2.,-3.754,6.976\Mg,0,31.5392,2.83908,2.40358\C,0,31.56983,-0.
 61825,3.36534\C,0,30.35565,3.54228,5.52437\C,0,31.07393,5.82791,1.4455
 3\C,0,31.61802,1.77336,-0.91361\N,0,31.06546,1.54403,4.13293\C,0,31.17
 525,0.25197,4.40287\C,0,30.92099,-0.11856,5.88868\C,0,30.01157,1.14007
 ,6.29816\C,0,30.52858,2.15615,5.28181\C,0,28.52977,0.92043,6.04254\C,0
 ,32.24597,-0.16709,6.72778\C,0,32.1114,-0.82041,8.10503\H,0,33.23227,-
 1.60475,8.61584\N,0,31.29312,4.50217,3.45816\C,0,30.82286,4.60409,4.71
 901\C,0,30.81541,6.0418,5.03063\C,0,31.16389,6.79176,3.79336\C,0,31.17
 029,5.71387,2.82475\C,0,30.57614,6.57333,6.41398\C,0,31.43271,8.24135,
 3.52388\O,0,31.48239,8.70646,2.33056\C,0,31.54326,9.11721,4.69953\N,0,
 31.15669,3.67922,0.54073\C,0,31.04834,5.01118,0.39214\C,0,31.0494,5.39
 911,-1.06727\C,0,31.42586,4.06572,-1.86598\C,0,31.4928,3.07334,-0.6844
 1\C,0,29.73453,5.96133,-1.60712\C,0,32.63731,4.14408,-2.83496\C,0,33.9
 1459,4.33743,-2.04975\N,0,31.77136,0.94945,1.38209\C,0,31.74879,0.7249
 4,-0.01189\C,0,31.83135,-0.73543,-0.21907\C,0,31.87336,-1.26483,1.0795
 7\C,0,31.80034,-0.2102,2.02926\C,0,31.81042,-1.39955,-1.47789\C,0,31.9
 5217,-2.47672,1.86304\O,0,32.1212,-3.66794,1.60585\C,0,31.63167,-2.120
 46,3.37854\C,0,32.67902,-2.77102,4.24012\O,0,33.86759,-2.41187,4.16991
 \O,0,32.07485,-3.55211,5.15405\C,0,33.07197,-4.21056,6.03949\H,0,29.77
 031,3.8481,6.39197\H,0,31.02346,6.84853,1.05919\H,0,31.74662,1.36766,-
 1.91936\H,0,30.37073,-1.03958,6.03941\H,0,30.22719,1.47031,7.31098\H,0
 ,28.34444,-0.00403,5.51607\H,0,28.20519,1.76528,5.44931\H,0,27.97237,0
 .97974,6.98175\H,0,32.51636,0.85305,7.02935\H,0,33.02967,-0.64751,6.17
 494\H,0,31.17333,-1.37965,8.20608\H,0,32.03555,-0.03159,8.85737\H,0,30
 .18451,5.79585,7.08148\H,0,29.76241,7.30286,6.33991\H,0,31.4556,7.0662
 8,6.83377\H,0,30.6232,9.06472,5.27676\H,0,31.8249,10.09688,4.30863\H,0
 ,32.34223,8.7365,5.34553\H,0,31.80166,6.15241,-1.26664\H,0,30.60064,3.
 73065,-2.51141\H,0,29.84106,6.96765,-2.05438\H,0,29.01371,5.97808,-0.8
 0047\H,0,29.23648,5.33958,-2.34912\H,0,32.54186,5.0127,-3.49112\H,0,32
 .73968,3.27046,-3.47001\H,0,33.93656,5.41749,-1.87631\H,0,34.77493,4.0
 1359,-2.63197\H,0,33.85287,3.8476,-1.07102\H,0,32.57242,-2.16653,-1.43
 797\H,0,31.98669,-0.70515,-2.29673\H,0,30.7869,-1.78382,-1.47867\H,0,3
 0.63084,-2.49411,3.5983\H,0,32.88752,-5.2878,5.98275\H,0,32.95513,-3.7
 3097,7.02949\H,0,34.11401,-4.15869,5.74642\\Version=ES64L-G16RevA.03\S
 tate=1-A\HF=-4069.8117759\RMSD=4.494e-09\PG=C01 [X(C68H72Mg2N8O8)]\\@


 HONESTY IN A LAWYER IS LIKE A HEN'S HIND LEGS.
  -- MAGNUS OLESON, LAKE WOBEGON PATRIARCH, C.1875
 Job cpu time:       0 days 10 hours 30 minutes 45.5 seconds.
 Elapsed time:       0 days  0 hours 26 minutes 53.6 seconds.
 File lengths (MBytes):  RWF=  13225 Int=      0 D2E=      0 Chk=    574 Scr=      1
 Normal termination of Gaussian 16 at Sun Sep 12 20:15:57 2021.
