 Entering Gaussian System, Link 0=g16
 Initial command:
 /sw/apps/gaussian-16.0/g16/l1.exe "/tmp/Gau-124324.inp" -scrdir="/tmp/"
 Entering Link 1 = /sw/apps/gaussian-16.0/g16/l1.exe PID=    124325.
  
 Copyright (c) 1988,1990,1992,1993,1995,1998,2003,2009,2016,
            Gaussian, Inc.  All Rights Reserved.
  
 This is part of the Gaussian(R) 16 program.  It is based on
 the Gaussian(R) 09 system (copyright 2009, Gaussian, Inc.),
 the Gaussian(R) 03 system (copyright 2003, Gaussian, Inc.),
 the Gaussian(R) 98 system (copyright 1998, Gaussian, Inc.),
 the Gaussian(R) 94 system (copyright 1995, Gaussian, Inc.),
 the Gaussian 92(TM) system (copyright 1992, Gaussian, Inc.),
 the Gaussian 90(TM) system (copyright 1990, Gaussian, Inc.),
 the Gaussian 88(TM) system (copyright 1988, Gaussian, Inc.),
 the Gaussian 86(TM) system (copyright 1986, Carnegie Mellon
 University), and the Gaussian 82(TM) system (copyright 1983,
 Carnegie Mellon University). Gaussian is a federally registered
 trademark of Gaussian, Inc.
  
 This software contains proprietary and confidential information,
 including trade secrets, belonging to Gaussian, Inc.
  
 This software is provided under written license and may be
 used, copied, transmitted, or stored only in accord with that
 written license.
  
 The following legend is applicable only to US Government
 contracts under FAR:
  
                    RESTRICTED RIGHTS LEGEND
  
 Use, reproduction and disclosure by the US Government is
 subject to restrictions as set forth in subparagraphs (a)
 and (c) of the Commercial Computer Software - Restricted
 Rights clause in FAR 52.227-19.
  
 Gaussian, Inc.
 340 Quinnipiac St., Bldg. 40, Wallingford CT 06492
  
  
 ---------------------------------------------------------------
 Warning -- This program may not be used in any manner that
 competes with the business of Gaussian, Inc. or will provide
 assistance to any competitor of Gaussian, Inc.  The licensee
 of this program is prohibited from giving any competitor of
 Gaussian, Inc. access to this program.  By using this program,
 the user acknowledges that Gaussian, Inc. is engaged in the
 business of creating and licensing software in the field of
 computational chemistry and represents and warrants to the
 licensee that it is not a competitor of Gaussian, Inc. and that
 it will not use this program in any manner prohibited above.
 ---------------------------------------------------------------
  

 Cite this work as:
 Gaussian 16, Revision A.03,
 M. J. Frisch, G. W. Trucks, H. B. Schlegel, G. E. Scuseria, 
 M. A. Robb, J. R. Cheeseman, G. Scalmani, V. Barone, 
 G. A. Petersson, H. Nakatsuji, X. Li, M. Caricato, A. V. Marenich, 
 J. Bloino, B. G. Janesko, R. Gomperts, B. Mennucci, H. P. Hratchian, 
 J. V. Ortiz, A. F. Izmaylov, J. L. Sonnenberg, D. Williams-Young, 
 F. Ding, F. Lipparini, F. Egidi, J. Goings, B. Peng, A. Petrone, 
 T. Henderson, D. Ranasinghe, V. G. Zakrzewski, J. Gao, N. Rega, 
 G. Zheng, W. Liang, M. Hada, M. Ehara, K. Toyota, R. Fukuda, 
 J. Hasegawa, M. Ishida, T. Nakajima, Y. Honda, O. Kitao, H. Nakai, 
 T. Vreven, K. Throssell, J. A. Montgomery, Jr., J. E. Peralta, 
 F. Ogliaro, M. J. Bearpark, J. J. Heyd, E. N. Brothers, K. N. Kudin, 
 V. N. Staroverov, T. A. Keith, R. Kobayashi, J. Normand, 
 K. Raghavachari, A. P. Rendell, J. C. Burant, S. S. Iyengar, 
 J. Tomasi, M. Cossi, J. M. Millam, M. Klene, C. Adamo, R. Cammi, 
 J. W. Ochterski, R. L. Martin, K. Morokuma, O. Farkas, 
 J. B. Foresman, and D. J. Fox, Gaussian, Inc., Wallingford CT, 2016.
 
 ******************************************
 Gaussian 16:  ES64L-G16RevA.03 25-Dec-2016
                 4-Sep-2021 
 ******************************************
 %nproc=24
 Will use up to   24 processors via shared memory.
 %mem=175gb
 -----------------------------------
 #p cam-b3lyp/Def2SVP td=(nstates=5)
 -----------------------------------
 1/38=1,172=1/1;
 2/12=2,17=6,18=5,40=1/2;
 3/5=43,7=101,11=9,25=1,30=1,74=-40/1,2,3,8;
 4//1;
 5/5=2,38=5/2;
 8/6=1,10=1,108=5/1;
 9/41=5,42=1,70=2/14;
 6/7=2,8=2,9=2,10=2/1;
 99/5=1,9=1/99;
 Leave Link    1 at Sat Sep  4 10:57:57 2021, MaxMem= 23488102400 cpu:               0.9 elap:               0.0
 (Enter /sw/apps/gaussian-16.0/g16/l101.exe)
 --------------------------------
 TDDFT excited states in gaussian
 --------------------------------
 Symbolic Z-matrix:
 Charge =  0 Multiplicity = 1
 Mg                    0.        0.        0. 
 C                    -0.217    -2.218     2.801 
 C                    -1.255     2.442     2.026 
 C                    -0.245     1.85     -2.564 
 C                     0.146    -2.824    -2.037 
 N                    -0.617    -0.009     2.126 
 C                    -0.594    -0.908     3.105 
 C                    -0.936    -0.309     4.502 
 C                    -1.773     0.964     4.032 
 C                    -1.155     1.168     2.66 
 C                    -3.263     0.685     3.863 
 C                     0.345     0.11      5.299 
 C                     0.124     0.397     6.787 
 H                     1.168     0.033     7.733 
 N                    -0.185     1.961    -0.152 
 C                    -0.703     2.8       0.777 
 C                    -0.62      4.156     0.193 
 C                    -0.187     4.015    -1.225 
 C                    -0.214     2.583    -1.38 
 C                    -0.887     5.406     0.974 
 C                     0.181     5.013    -2.277 
 O                     0.303     4.69     -3.508 
 C                     0.31      6.414    -1.837 
 N                    -0.265    -0.413    -2.029 
 C                    -0.279     0.569    -2.937 
 C                    -0.196     0.024    -4.332 
 C                     0.124    -1.533    -4.18 
 C                     0.086    -1.632    -2.635 
 C                    -1.451     0.205    -5.197 
 C                     1.373    -2.07     -4.923 
 C                     2.626    -1.49     -4.306 
 N                     0.15     -2.144     0.303 
 C                     0.173    -3.136    -0.688 
 C                     0.173    -4.438     0.004 
 C                     0.133    -4.111     1.358 
 C                     0.083    -2.695     1.502 
 C                     0.149    -5.715    -0.623 
 C                     0.096    -4.629     2.716 
 O                     0.208    -5.747     3.221 
 C                    -0.255    -3.428     3.701 
 C                     0.717    -3.482     4.848 
 O                     1.931    -3.255     4.669 
 O                     0.038    -3.556     6.003 
 C                     0.943    -3.583     7.183 
 H                    -1.859     3.22      2.497 
 H                    -0.218     2.453    -3.474 
 H                     0.276    -3.747    -2.605 
 H                    -1.554    -0.949     5.132 
 H                    -1.585     1.831     4.665 
 H                    -3.484    -0.377     3.969 
 H                    -3.511     1.027     2.858 
 H                    -3.852     1.301     4.543 
 H                     0.669     1.096     4.966 
 H                     1.13     -0.639     5.189 
 H                    -0.844     0.026     7.125 
 H                     0.062     1.477     6.921 
 H                    -1.344     5.186     1.938 
 H                    -1.651     5.963     0.432 
 H                     0.007     6.02      1.084 
 H                    -0.635     6.744    -1.405 
 H                     0.665     6.97     -2.704 
 H                     1.048     6.466    -1.036 
 H                     0.608     0.501    -4.891 
 H                    -0.692    -2.156    -4.547 
 H                    -1.267     0.74     -6.129 
 H                    -2.204     0.714    -4.596 
 H                    -1.967    -0.72     -5.453 
 H                     1.356    -1.759    -5.967 
 H                     1.452    -3.157    -4.902 
 H                     2.714    -0.522    -4.798 
 H                     3.487    -2.121    -4.529 
 H                     2.495    -1.303    -3.24 
 H                     0.867    -6.333    -0.084 
 H                     0.404    -5.642    -1.68 
 H                    -0.891    -5.999    -0.463 
 H                    -1.283    -3.581     4.028 
 H                     0.698    -4.478     7.755 
 H                     0.833    -2.619     7.68 
 H                     2.       -3.754     6.976 
 Mg                    13.14575   1.17862   1.00461 
 C                     13.33617  -2.17401  -0.26136 
 C                     12.15702  -0.16096   3.98162 
 C                     12.53494   4.12411   2.0138 
 C                     13.02935   2.27259  -2.30226 
 N                     12.8257  -0.91168   1.65306 
 C                     12.9889  -2.10593   1.104 
 C                     12.84593  -3.2936    2.09322 
 C                     11.93208  -2.57508   3.20114 
 C                     12.35113  -1.12609   2.96135 
 C                     10.44297  -2.69402   2.92233 
 C                     14.22543  -3.74356   2.69031 
 C                     14.20226  -5.08819   3.42051 
 H                     15.3762  -5.95162   3.32647 
 N                     12.92597   1.8856    2.84593 
 C                     12.53941   1.19789   3.94088 
 C                     12.5136   2.17432   5.04091 
 C                     12.75693   3.52794   4.4724 
 C                     12.7274   3.22775   3.05498 
 C                     12.35389   1.77558   6.47929 
 C                     12.96703   4.87251   5.10025 
 O                     12.92315   5.95197   4.41055 
 C                     13.13274   4.89532   6.5609 
 N                     12.61527   2.92721   0.01297 
 C                     12.46061   4.08245   0.68336 
 C                     12.35236   5.25295  -0.26458 
 C                     12.71042   4.66974  -1.71 
 C                     12.88428   3.17902  -1.34544 
 C                     10.98908   5.94218  -0.31759 
 C                     13.85098   5.3774   -2.49167 
 C                     15.17264   5.15129  -1.79347 
 N                     13.36008   0.26856  -0.94318 
 C                     13.24949   0.90502  -2.19888 
 C                     13.3579  -0.1464   -3.23095 
 C                     13.50212  -1.33391  -2.4978 
 C                     13.46455  -1.04551  -1.10679 
 C                     13.27015   0.05605  -4.63716 
 C                     13.66693  -2.76711  -2.58425 
 O                     13.85081  -3.56664  -3.50114 
 C                     13.43996  -3.38994  -1.13962 
 C                     14.56061  -4.35608  -0.86903 
 O                     15.73141  -3.95134  -0.75936 
 O                     14.04127  -5.5607   -0.56981 
 C                     15.11365  -6.55034  -0.2827 
 H                     11.6235  -0.46026   4.8842 
 H                     12.43047   5.17143   2.30652 
 H                     13.10075   2.54413  -3.35764 
 H                     12.3326  -4.15939   1.69237 
 H                     12.20653  -2.89032   4.20447 
 H                     10.24792  -3.14208   1.95935 
 H                     10.05598  -1.68397   2.95502 
 H                     9.94892  -3.23254   3.73611 
 H                     14.48751  -3.0809    3.52514 
 H                     14.98286  -3.75778   1.93088 
 H                     13.28886  -5.65696   3.208 
 H                     14.15582  -4.89848   4.49562 
 H                     12.02977   0.73183   6.57376 
 H                     11.51731   2.35724   6.88136 
 H                     13.24586   1.98122   7.07492 
 H                     12.25559   4.45676   7.03075 
 H                     13.36032   5.93287   6.81303 
 H                     13.9837   4.25816   6.82645 
 H                     13.06848   6.02452  -0.00969 
 H                     11.85296   4.72743  -2.3965 
 H                     11.03748   7.0235   -0.08847 
 H                     10.32426   5.43707   0.37046 
 H                     10.45925   5.8456   -1.26372 
 H                     13.6876   6.45782  -2.5045 
 H                     13.93412   5.052    -3.52327 
 H                     15.17663   5.92217  -1.01706 
 H                     16.00021   5.28543  -2.48713 
 H                     15.19069   4.17722  -1.29094 
 H                     14.05387  -0.53896  -5.08689 
 H                     13.37154   1.10834  -4.89444 
 H                     12.25984  -0.317    -4.82525 
 H                     12.4669  -3.88261  -1.14447 
 H                     14.95541  -7.39759  -0.9571 
 H                     15.05089  -6.75228   0.80313 
 H                     16.13169  -6.27167  -0.52845 
 
 ITRead=  0  0  0  0  0  0  0  0  0  0  0  0  0  0  0  0  0  0  0  0
 ITRead=  0  0  0  0  0  0  0  0  0  0  0  0  0  0  0  0  0  0  0  0
 ITRead=  0  0  0  0  0  0  0  0  0  0  0  0  0  0  0  0  0  0  0  0
 ITRead=  0  0  0  0  0  0  0  0  0  0  0  0  0  0  0  0  0  0  0  0
 ITRead=  0  0  0  0  0  0  0  0  0  0  0  0  0  0  0  0  0  0  0  0
 ITRead=  0  0  0  0  0  0  0  0  0  0  0  0  0  0  0  0  0  0  0  0
 ITRead=  0  0  0  0  0  0  0  0  0  0  0  0  0  0  0  0  0  0  0  0
 ITRead=  0  0  0  0  0  0  0  0  0  0  0  0  0  0  0  0  0  0
 MicOpt= -1 -1 -1 -1 -1 -1 -1 -1 -1 -1 -1 -1 -1 -1 -1 -1 -1 -1 -1 -1
 MicOpt= -1 -1 -1 -1 -1 -1 -1 -1 -1 -1 -1 -1 -1 -1 -1 -1 -1 -1 -1 -1
 MicOpt= -1 -1 -1 -1 -1 -1 -1 -1 -1 -1 -1 -1 -1 -1 -1 -1 -1 -1 -1 -1
 MicOpt= -1 -1 -1 -1 -1 -1 -1 -1 -1 -1 -1 -1 -1 -1 -1 -1 -1 -1 -1 -1
 MicOpt= -1 -1 -1 -1 -1 -1 -1 -1 -1 -1 -1 -1 -1 -1 -1 -1 -1 -1 -1 -1
 MicOpt= -1 -1 -1 -1 -1 -1 -1 -1 -1 -1 -1 -1 -1 -1 -1 -1 -1 -1 -1 -1
 MicOpt= -1 -1 -1 -1 -1 -1 -1 -1 -1 -1 -1 -1 -1 -1 -1 -1 -1 -1 -1 -1
 MicOpt= -1 -1 -1 -1 -1 -1 -1 -1 -1 -1 -1 -1 -1 -1 -1 -1 -1 -1
 NAtoms=    158 NQM=      158 NQMF=       0 NMMI=      0 NMMIF=      0
                NMic=       0 NMicF=      0.
                    Isotopes and Nuclear Properties:
 (Nuclear quadrupole moments (NQMom) in fm**2, nuclear magnetic moments (NMagM)
  in nuclear magnetons)

  Atom         1           2           3           4           5           6           7           8           9          10
 IAtWgt=          24          12          12          12          12          14          12          12          12          12
 AtmWgt=  23.9850450  12.0000000  12.0000000  12.0000000  12.0000000  14.0030740  12.0000000  12.0000000  12.0000000  12.0000000
 NucSpn=           0           0           0           0           0           2           0           0           0           0
 AtZEff=  -0.0000000  -0.0000000  -0.0000000  -0.0000000  -0.0000000  -0.0000000  -0.0000000  -0.0000000  -0.0000000  -0.0000000
 NQMom=    0.0000000   0.0000000   0.0000000   0.0000000   0.0000000   2.0440000   0.0000000   0.0000000   0.0000000   0.0000000
 NMagM=    0.0000000   0.0000000   0.0000000   0.0000000   0.0000000   0.4037610   0.0000000   0.0000000   0.0000000   0.0000000
 AtZNuc=  12.0000000   6.0000000   6.0000000   6.0000000   6.0000000   7.0000000   6.0000000   6.0000000   6.0000000   6.0000000

  Atom        11          12          13          14          15          16          17          18          19          20
 IAtWgt=          12          12          12           1          14          12          12          12          12          12
 AtmWgt=  12.0000000  12.0000000  12.0000000   1.0078250  14.0030740  12.0000000  12.0000000  12.0000000  12.0000000  12.0000000
 NucSpn=           0           0           0           1           2           0           0           0           0           0
 AtZEff=  -0.0000000  -0.0000000  -0.0000000  -0.0000000  -0.0000000  -0.0000000  -0.0000000  -0.0000000  -0.0000000  -0.0000000
 NQMom=    0.0000000   0.0000000   0.0000000   0.0000000   2.0440000   0.0000000   0.0000000   0.0000000   0.0000000   0.0000000
 NMagM=    0.0000000   0.0000000   0.0000000   2.7928460   0.4037610   0.0000000   0.0000000   0.0000000   0.0000000   0.0000000
 AtZNuc=   6.0000000   6.0000000   6.0000000   1.0000000   7.0000000   6.0000000   6.0000000   6.0000000   6.0000000   6.0000000

  Atom        21          22          23          24          25          26          27          28          29          30
 IAtWgt=          12          16          12          14          12          12          12          12          12          12
 AtmWgt=  12.0000000  15.9949146  12.0000000  14.0030740  12.0000000  12.0000000  12.0000000  12.0000000  12.0000000  12.0000000
 NucSpn=           0           0           0           2           0           0           0           0           0           0
 AtZEff=  -0.0000000  -0.0000000  -0.0000000  -0.0000000  -0.0000000  -0.0000000  -0.0000000  -0.0000000  -0.0000000  -0.0000000
 NQMom=    0.0000000   0.0000000   0.0000000   2.0440000   0.0000000   0.0000000   0.0000000   0.0000000   0.0000000   0.0000000
 NMagM=    0.0000000   0.0000000   0.0000000   0.4037610   0.0000000   0.0000000   0.0000000   0.0000000   0.0000000   0.0000000
 AtZNuc=   6.0000000   8.0000000   6.0000000   7.0000000   6.0000000   6.0000000   6.0000000   6.0000000   6.0000000   6.0000000

  Atom        31          32          33          34          35          36          37          38          39          40
 IAtWgt=          12          14          12          12          12          12          12          12          16          12
 AtmWgt=  12.0000000  14.0030740  12.0000000  12.0000000  12.0000000  12.0000000  12.0000000  12.0000000  15.9949146  12.0000000
 NucSpn=           0           2           0           0           0           0           0           0           0           0
 AtZEff=  -0.0000000  -0.0000000  -0.0000000  -0.0000000  -0.0000000  -0.0000000  -0.0000000  -0.0000000  -0.0000000  -0.0000000
 NQMom=    0.0000000   2.0440000   0.0000000   0.0000000   0.0000000   0.0000000   0.0000000   0.0000000   0.0000000   0.0000000
 NMagM=    0.0000000   0.4037610   0.0000000   0.0000000   0.0000000   0.0000000   0.0000000   0.0000000   0.0000000   0.0000000
 AtZNuc=   6.0000000   7.0000000   6.0000000   6.0000000   6.0000000   6.0000000   6.0000000   6.0000000   8.0000000   6.0000000

  Atom        41          42          43          44          45          46          47          48          49          50
 IAtWgt=          12          16          16          12           1           1           1           1           1           1
 AtmWgt=  12.0000000  15.9949146  15.9949146  12.0000000   1.0078250   1.0078250   1.0078250   1.0078250   1.0078250   1.0078250
 NucSpn=           0           0           0           0           1           1           1           1           1           1
 AtZEff=  -0.0000000  -0.0000000  -0.0000000  -0.0000000  -0.0000000  -0.0000000  -0.0000000  -0.0000000  -0.0000000  -0.0000000
 NQMom=    0.0000000   0.0000000   0.0000000   0.0000000   0.0000000   0.0000000   0.0000000   0.0000000   0.0000000   0.0000000
 NMagM=    0.0000000   0.0000000   0.0000000   0.0000000   2.7928460   2.7928460   2.7928460   2.7928460   2.7928460   2.7928460
 AtZNuc=   6.0000000   8.0000000   8.0000000   6.0000000   1.0000000   1.0000000   1.0000000   1.0000000   1.0000000   1.0000000

  Atom        51          52          53          54          55          56          57          58          59          60
 IAtWgt=           1           1           1           1           1           1           1           1           1           1
 AtmWgt=   1.0078250   1.0078250   1.0078250   1.0078250   1.0078250   1.0078250   1.0078250   1.0078250   1.0078250   1.0078250
 NucSpn=           1           1           1           1           1           1           1           1           1           1
 AtZEff=  -0.0000000  -0.0000000  -0.0000000  -0.0000000  -0.0000000  -0.0000000  -0.0000000  -0.0000000  -0.0000000  -0.0000000
 NQMom=    0.0000000   0.0000000   0.0000000   0.0000000   0.0000000   0.0000000   0.0000000   0.0000000   0.0000000   0.0000000
 NMagM=    2.7928460   2.7928460   2.7928460   2.7928460   2.7928460   2.7928460   2.7928460   2.7928460   2.7928460   2.7928460
 AtZNuc=   1.0000000   1.0000000   1.0000000   1.0000000   1.0000000   1.0000000   1.0000000   1.0000000   1.0000000   1.0000000

  Atom        61          62          63          64          65          66          67          68          69          70
 IAtWgt=           1           1           1           1           1           1           1           1           1           1
 AtmWgt=   1.0078250   1.0078250   1.0078250   1.0078250   1.0078250   1.0078250   1.0078250   1.0078250   1.0078250   1.0078250
 NucSpn=           1           1           1           1           1           1           1           1           1           1
 AtZEff=  -0.0000000  -0.0000000  -0.0000000  -0.0000000  -0.0000000  -0.0000000  -0.0000000  -0.0000000  -0.0000000  -0.0000000
 NQMom=    0.0000000   0.0000000   0.0000000   0.0000000   0.0000000   0.0000000   0.0000000   0.0000000   0.0000000   0.0000000
 NMagM=    2.7928460   2.7928460   2.7928460   2.7928460   2.7928460   2.7928460   2.7928460   2.7928460   2.7928460   2.7928460
 AtZNuc=   1.0000000   1.0000000   1.0000000   1.0000000   1.0000000   1.0000000   1.0000000   1.0000000   1.0000000   1.0000000

  Atom        71          72          73          74          75          76          77          78          79          80
 IAtWgt=           1           1           1           1           1           1           1           1           1          24
 AtmWgt=   1.0078250   1.0078250   1.0078250   1.0078250   1.0078250   1.0078250   1.0078250   1.0078250   1.0078250  23.9850450
 NucSpn=           1           1           1           1           1           1           1           1           1           0
 AtZEff=  -0.0000000  -0.0000000  -0.0000000  -0.0000000  -0.0000000  -0.0000000  -0.0000000  -0.0000000  -0.0000000  -0.0000000
 NQMom=    0.0000000   0.0000000   0.0000000   0.0000000   0.0000000   0.0000000   0.0000000   0.0000000   0.0000000   0.0000000
 NMagM=    2.7928460   2.7928460   2.7928460   2.7928460   2.7928460   2.7928460   2.7928460   2.7928460   2.7928460   0.0000000
 AtZNuc=   1.0000000   1.0000000   1.0000000   1.0000000   1.0000000   1.0000000   1.0000000   1.0000000   1.0000000  12.0000000

  Atom        81          82          83          84          85          86          87          88          89          90
 IAtWgt=          12          12          12          12          14          12          12          12          12          12
 AtmWgt=  12.0000000  12.0000000  12.0000000  12.0000000  14.0030740  12.0000000  12.0000000  12.0000000  12.0000000  12.0000000
 NucSpn=           0           0           0           0           2           0           0           0           0           0
 AtZEff=  -0.0000000  -0.0000000  -0.0000000  -0.0000000  -0.0000000  -0.0000000  -0.0000000  -0.0000000  -0.0000000  -0.0000000
 NQMom=    0.0000000   0.0000000   0.0000000   0.0000000   2.0440000   0.0000000   0.0000000   0.0000000   0.0000000   0.0000000
 NMagM=    0.0000000   0.0000000   0.0000000   0.0000000   0.4037610   0.0000000   0.0000000   0.0000000   0.0000000   0.0000000
 AtZNuc=   6.0000000   6.0000000   6.0000000   6.0000000   7.0000000   6.0000000   6.0000000   6.0000000   6.0000000   6.0000000

  Atom        91          92          93          94          95          96          97          98          99         100
 IAtWgt=          12          12           1          14          12          12          12          12          12          12
 AtmWgt=  12.0000000  12.0000000   1.0078250  14.0030740  12.0000000  12.0000000  12.0000000  12.0000000  12.0000000  12.0000000
 NucSpn=           0           0           1           2           0           0           0           0           0           0
 AtZEff=  -0.0000000  -0.0000000  -0.0000000  -0.0000000  -0.0000000  -0.0000000  -0.0000000  -0.0000000  -0.0000000  -0.0000000
 NQMom=    0.0000000   0.0000000   0.0000000   2.0440000   0.0000000   0.0000000   0.0000000   0.0000000   0.0000000   0.0000000
 NMagM=    0.0000000   0.0000000   2.7928460   0.4037610   0.0000000   0.0000000   0.0000000   0.0000000   0.0000000   0.0000000
 AtZNuc=   6.0000000   6.0000000   1.0000000   7.0000000   6.0000000   6.0000000   6.0000000   6.0000000   6.0000000   6.0000000

  Atom       101         102         103         104         105         106         107         108         109         110
 IAtWgt=          16          12          14          12          12          12          12          12          12          12
 AtmWgt=  15.9949146  12.0000000  14.0030740  12.0000000  12.0000000  12.0000000  12.0000000  12.0000000  12.0000000  12.0000000
 NucSpn=           0           0           2           0           0           0           0           0           0           0
 AtZEff=  -0.0000000  -0.0000000  -0.0000000  -0.0000000  -0.0000000  -0.0000000  -0.0000000  -0.0000000  -0.0000000  -0.0000000
 NQMom=    0.0000000   0.0000000   2.0440000   0.0000000   0.0000000   0.0000000   0.0000000   0.0000000   0.0000000   0.0000000
 NMagM=    0.0000000   0.0000000   0.4037610   0.0000000   0.0000000   0.0000000   0.0000000   0.0000000   0.0000000   0.0000000
 AtZNuc=   8.0000000   6.0000000   7.0000000   6.0000000   6.0000000   6.0000000   6.0000000   6.0000000   6.0000000   6.0000000

  Atom       111         112         113         114         115         116         117         118         119         120
 IAtWgt=          14          12          12          12          12          12          12          16          12          12
 AtmWgt=  14.0030740  12.0000000  12.0000000  12.0000000  12.0000000  12.0000000  12.0000000  15.9949146  12.0000000  12.0000000
 NucSpn=           2           0           0           0           0           0           0           0           0           0
 AtZEff=  -0.0000000  -0.0000000  -0.0000000  -0.0000000  -0.0000000  -0.0000000  -0.0000000  -0.0000000  -0.0000000  -0.0000000
 NQMom=    2.0440000   0.0000000   0.0000000   0.0000000   0.0000000   0.0000000   0.0000000   0.0000000   0.0000000   0.0000000
 NMagM=    0.4037610   0.0000000   0.0000000   0.0000000   0.0000000   0.0000000   0.0000000   0.0000000   0.0000000   0.0000000
 AtZNuc=   7.0000000   6.0000000   6.0000000   6.0000000   6.0000000   6.0000000   6.0000000   8.0000000   6.0000000   6.0000000

  Atom       121         122         123         124         125         126         127         128         129         130
 IAtWgt=          16          16          12           1           1           1           1           1           1           1
 AtmWgt=  15.9949146  15.9949146  12.0000000   1.0078250   1.0078250   1.0078250   1.0078250   1.0078250   1.0078250   1.0078250
 NucSpn=           0           0           0           1           1           1           1           1           1           1
 AtZEff=  -0.0000000  -0.0000000  -0.0000000  -0.0000000  -0.0000000  -0.0000000  -0.0000000  -0.0000000  -0.0000000  -0.0000000
 NQMom=    0.0000000   0.0000000   0.0000000   0.0000000   0.0000000   0.0000000   0.0000000   0.0000000   0.0000000   0.0000000
 NMagM=    0.0000000   0.0000000   0.0000000   2.7928460   2.7928460   2.7928460   2.7928460   2.7928460   2.7928460   2.7928460
 AtZNuc=   8.0000000   8.0000000   6.0000000   1.0000000   1.0000000   1.0000000   1.0000000   1.0000000   1.0000000   1.0000000

  Atom       131         132         133         134         135         136         137         138         139         140
 IAtWgt=           1           1           1           1           1           1           1           1           1           1
 AtmWgt=   1.0078250   1.0078250   1.0078250   1.0078250   1.0078250   1.0078250   1.0078250   1.0078250   1.0078250   1.0078250
 NucSpn=           1           1           1           1           1           1           1           1           1           1
 AtZEff=  -0.0000000  -0.0000000  -0.0000000  -0.0000000  -0.0000000  -0.0000000  -0.0000000  -0.0000000  -0.0000000  -0.0000000
 NQMom=    0.0000000   0.0000000   0.0000000   0.0000000   0.0000000   0.0000000   0.0000000   0.0000000   0.0000000   0.0000000
 NMagM=    2.7928460   2.7928460   2.7928460   2.7928460   2.7928460   2.7928460   2.7928460   2.7928460   2.7928460   2.7928460
 AtZNuc=   1.0000000   1.0000000   1.0000000   1.0000000   1.0000000   1.0000000   1.0000000   1.0000000   1.0000000   1.0000000

  Atom       141         142         143         144         145         146         147         148         149         150
 IAtWgt=           1           1           1           1           1           1           1           1           1           1
 AtmWgt=   1.0078250   1.0078250   1.0078250   1.0078250   1.0078250   1.0078250   1.0078250   1.0078250   1.0078250   1.0078250
 NucSpn=           1           1           1           1           1           1           1           1           1           1
 AtZEff=  -0.0000000  -0.0000000  -0.0000000  -0.0000000  -0.0000000  -0.0000000  -0.0000000  -0.0000000  -0.0000000  -0.0000000
 NQMom=    0.0000000   0.0000000   0.0000000   0.0000000   0.0000000   0.0000000   0.0000000   0.0000000   0.0000000   0.0000000
 NMagM=    2.7928460   2.7928460   2.7928460   2.7928460   2.7928460   2.7928460   2.7928460   2.7928460   2.7928460   2.7928460
 AtZNuc=   1.0000000   1.0000000   1.0000000   1.0000000   1.0000000   1.0000000   1.0000000   1.0000000   1.0000000   1.0000000

  Atom       151         152         153         154         155         156         157         158
 IAtWgt=           1           1           1           1           1           1           1           1
 AtmWgt=   1.0078250   1.0078250   1.0078250   1.0078250   1.0078250   1.0078250   1.0078250   1.0078250
 NucSpn=           1           1           1           1           1           1           1           1
 AtZEff=  -0.0000000  -0.0000000  -0.0000000  -0.0000000  -0.0000000  -0.0000000  -0.0000000  -0.0000000
 NQMom=    0.0000000   0.0000000   0.0000000   0.0000000   0.0000000   0.0000000   0.0000000   0.0000000
 NMagM=    2.7928460   2.7928460   2.7928460   2.7928460   2.7928460   2.7928460   2.7928460   2.7928460
 AtZNuc=   1.0000000   1.0000000   1.0000000   1.0000000   1.0000000   1.0000000   1.0000000   1.0000000
 Leave Link  101 at Sat Sep  4 10:57:57 2021, MaxMem= 23488102400 cpu:               4.0 elap:               0.2
 (Enter /sw/apps/gaussian-16.0/g16/l202.exe)
 Stoichiometry    C68H72Mg2N8O8
 Framework group  C1[X(C68H72Mg2N8O8)]
 Deg. of freedom   468
 Full point group                 C1      NOp   1
 Largest Abelian subgroup         C1      NOp   1
 Largest concise Abelian subgroup C1      NOp   1
                         Standard orientation:                         
 ---------------------------------------------------------------------
 Center     Atomic      Atomic             Coordinates (Angstroms)
 Number     Number       Type             X           Y           Z
 ---------------------------------------------------------------------
      1         12           0       -6.508076    0.533059   -0.664989
      2          6           0       -6.841167   -2.502704    1.201936
      3          6           0       -7.671794    2.179003    2.088135
      4          6           0       -6.654148    3.161913   -2.432589
      5          6           0       -6.468663   -1.419670   -3.551329
      6          7           0       -7.140668   -0.181378    1.332523
      7          6           0       -7.163667   -1.362748    1.941626
      8          6           0       -7.489930   -1.267654    3.462114
      9          6           0       -8.267833    0.124053    3.466091
     10          6           0       -7.631448    0.761525    2.243565
     11          6           0       -9.767167   -0.015328    3.223039
     12          6           0       -6.198034   -1.204378    4.344573
     13          6           0       -6.417521   -1.438427    5.842038
     14          1           0       -5.397217   -2.150589    6.596459
     15          7           0       -6.607345    2.432375   -0.130580
     16          6           0       -7.095630    2.921350    1.034653
     17          6           0       -6.949992    4.390635    0.952972
     18          6           0       -6.512942    4.728371   -0.430146
     19          6           0       -6.600416    3.440030   -1.068819
     20          6           0       -7.168724    5.305247    2.118902
     21          6           0       -6.094512    6.010931   -1.076744
     22          8           0       -5.977390    6.126924   -2.344577
     23          6           0       -5.908588    7.167621   -0.182013
     24          7           0       -6.775531    0.856233   -2.709900
     25          6           0       -6.740495    2.090590   -3.223827
     26          6           0       -6.670675    2.056577   -4.721794
     27          6           0       -6.419142    0.530324   -5.118072
     28          6           0       -6.472845   -0.093213   -3.701531
     29          6           0       -7.910258    2.578284   -5.461569
     30          6           0       -5.188934    0.229059   -6.010399
     31          6           0       -3.916743    0.506540   -5.241221
     32          7           0       -6.452774   -1.588395   -1.120424
     33          6           0       -6.465143   -2.178216   -2.392679
     34          6           0       -6.526337   -3.637639   -2.191662
     35          6           0       -6.562279   -3.795785   -0.807631
     36          6           0       -6.552339   -2.515349   -0.184191
     37          6           0       -6.600634   -4.618126   -3.220040
     38          6           0       -6.631633   -4.747865    0.288996
     39          8           0       -6.571624   -5.975118    0.376983
     40          6           0       -6.937910   -3.945884    1.630207
     41          6           0       -5.977683   -4.433493    2.680689
     42          8           0       -4.753740   -4.211113    2.581314
     43          8           0       -6.667801   -4.871664    3.744778
     44          6           0       -5.773593   -5.342445    4.836067
     45          1           0       -8.245222    2.772273    2.803085
     46          1           0       -6.594453    4.039776   -3.079297
     47          1           0       -6.374305   -2.095128   -4.403565
     48          1           0       -8.139573   -2.058344    3.837876
     49          1           0       -8.047389    0.710933    4.357549
     50          1           0      -10.034465   -1.038280    2.958383
     51          1           0       -9.992740    0.662324    2.399390
     52          1           0      -10.334136    0.353365    4.078252
     53          1           0       -5.829420   -0.178912    4.369140
     54          1           0       -5.445213   -1.902613    3.977076
     55          1           0       -7.403080   -1.861203    6.039123
     56          1           0       -6.433961   -0.469125    6.340420
     57          1           0       -7.641920    4.786428    2.951643
     58          1           0       -7.903988    6.047171    1.808025
     59          1           0       -6.249960    5.804726    2.426678
     60          1           0       -6.841687    7.368855    0.344654
     61          1           0       -5.523549    7.972497   -0.807129
     62          1           0       -5.175004    6.908687    0.582027
     63          1           0       -5.842754    2.661952   -5.088529
     64          1           0       -7.258458    0.107601   -5.670818
     65          1           0       -7.696477    3.393211   -6.153592
     66          1           0       -8.645090    2.880901   -4.716092
     67          1           0       -8.463687    1.821213   -6.016525
     68          1           0       -5.184773    0.881150   -6.883156
     69          1           0       -5.156963   -0.800943   -6.365821
     70          1           0       -3.783498    1.580051   -5.370259
     71          1           0       -3.082075   -0.045368   -5.674738
     72          1           0       -4.047487    0.320245   -4.175066
     73          1           0       -5.913930   -5.414244   -2.932634
     74          1           0       -6.334883   -4.196437   -4.189141
     75          1           0       -7.653057   -4.894891   -3.159509
     76          1           0       -7.973944   -4.157855    1.892548
     77          1           0       -6.061141   -6.368315    5.066590
     78          1           0       -5.845678   -4.604935    5.635622
     79          1           0       -4.723427   -5.476908    4.574516
     80         12           0        6.668402    0.727281    0.580739
     81          6           0        6.723706   -1.988755   -1.764288
     82          6           0        5.600828   -1.512192    2.921614
     83          6           0        6.177488    3.168048    2.547749
     84          6           0        6.623777    2.897571   -2.145716
     85          7           0        6.253848   -1.442638    0.471791
     86          6           0        6.369556   -2.380421   -0.456383
     87          6           0        6.168241   -3.828890    0.064161
     88          6           0        5.277968   -3.497535    1.358957
     89          6           0        5.760781   -2.074084    1.629794
     90          6           0        3.787230   -3.449018    1.067962
     91          6           0        7.522617   -4.515866    0.458791
     92          6           0        7.436155   -6.027433    0.681162
     93          1           0        8.572500   -6.855192    0.286161
     94          7           0        6.465590    0.765295    2.554569
     95          6           0        6.041658   -0.240281    3.348539
     96          6           0        6.049738    0.297494    4.717802
     97          6           0        6.355336    1.752320    4.648581
     98          6           0        6.323439    1.960447    3.214799
     99          6           0        5.862329   -0.565167    5.931940
    100          6           0        6.618458    2.787882    5.699573
    101          8           0        6.626217    4.039704    5.424387
    102          6           0        6.774141    2.298886    7.077297
    103          7           0        6.221076    2.731547    0.256480
    104          6           0        6.111319    3.590577    1.285044
    105          6           0        6.060607    5.019517    0.799311
    106          6           0        6.403954    4.955223   -0.761316
    107          6           0        6.510761    3.424169   -0.934070
    108          6           0        4.728696    5.742717    0.997741
    109          6           0        7.579699    5.839165   -1.260256
    110          6           0        8.885175    5.329760   -0.693130
    111          7           0        6.857816    0.535741   -1.562965
    112          6           0        6.784061    1.570006   -2.521583
    113          6           0        6.854769    0.934942   -3.853536
    114          6           0        6.942280   -0.437491   -3.575579
    115          6           0        6.906828   -0.644691   -2.170123
    116          6           0        6.786265    1.613076   -5.103158
    117          6           0        7.045872   -1.758819   -4.151824
    118          8           0        7.201966   -2.200594   -5.289460
    119          6           0        6.781572   -2.830892   -3.008498
    120          6           0        7.857548   -3.878313   -3.096174
    121          8           0        9.043840   -3.586856   -2.862984
    122          8           0        7.284619   -5.088764   -3.226238
    123          6           0        8.311236   -6.161841   -3.306124
    124          1           0        5.048227   -2.080927    3.669977
    125          1           0        6.116033    4.053841    3.184201
    126          1           0        6.714639    3.512779   -3.043448
    127          1           0        5.621105   -4.480642   -0.606393
    128          1           0        5.531130   -4.150653    2.190050
    129          1           0        3.580230   -3.529025    0.011136
    130          1           0        3.443852   -2.496441    1.449697
    131          1           0        3.264422   -4.213189    1.650234
    132          1           0        7.806774   -4.193337    1.468729
    133          1           0        8.284353   -4.300090   -0.264974
    134          1           0        6.500719   -6.448343    0.292892
    135          1           0        7.389940   -6.217959    1.756137
    136          1           0        5.492880   -1.562600    5.663559
    137          1           0        5.048602   -0.122277    6.516365
    138          1           0        6.757875   -0.615877    6.554915
    139          1           0        5.875457    1.763420    7.374163
    140          1           0        7.044300    3.175232    7.669668
    141          1           0        7.594884    1.573303    7.100358
    142          1           0        6.807368    5.624486    1.298789
    143          1           0        5.554897    5.282706   -1.379138
    144          1           0        4.821901    6.675738    1.585002
    145          1           0        4.037653    5.060536    1.474840
    146          1           0        4.202242    6.000903    0.080465
    147          1           0        7.463085    6.863807   -0.898767
    148          1           0        7.656413    5.885874   -2.341426
    149          1           0        8.916582    5.784996    0.301283
    150          1           0        9.722883    5.658991   -1.304590
    151          1           0        8.857539    4.242371   -0.557134
    152          1           0        7.546961    1.176359   -5.736507
    153          1           0        6.934773    2.684185   -4.982918
    154          1           0        5.762256    1.371459   -5.400307
    155          1           0        5.788267   -3.249422   -3.175140
    156          1           0        8.121681   -6.717214   -4.229876
    157          1           0        8.231776   -6.722642   -2.355896
    158          1           0        9.342127   -5.859586   -3.448815
 ---------------------------------------------------------------------
 Rotational constants (GHZ):           0.0203551           0.0078740           0.0076108
 Leave Link  202 at Sat Sep  4 10:57:57 2021, MaxMem= 23488102400 cpu:               0.2 elap:               0.0
 (Enter /sw/apps/gaussian-16.0/g16/l301.exe)
 Standard basis: def2SVP (5D, 7F)
 Ernie: Thresh=  0.10000D-02 Tol=  0.10000D-05 Strict=F.
 There are  1658 symmetry adapted cartesian basis functions of A   symmetry.
 There are  1572 symmetry adapted basis functions of A   symmetry.
  1572 basis functions,  2678 primitive gaussians,  1658 cartesian basis functions
   312 alpha electrons      312 beta electrons
       nuclear repulsion energy     14245.9430506388 Hartrees.
 IExCor=20419 DFT=T Ex+Corr=CAM-B3LYP ExCW=0 ScaHFX=  1.000000
 ScaDFX=  1.000000  1.000000  1.000000  0.810000 ScalE2=  1.000000  1.000000
 IRadAn=      5 IRanWt=     -1 IRanGd=            0 ICorTp=0 IEmpDi=  4
 HFx  wShort=  0.000000 wLong=  0.330000 cFull=  0.190000 cShort=  0.000000 cLong=  0.460000
 DFx  wShort=  0.000000 wLong=  0.330000 cFull=  0.190000 cShort=  0.000000 cLong=  0.460000
 NAtoms=  158 NActive=  158 NUniq=  158 SFac= 1.00D+00 NAtFMM=   60 NAOKFM=T Big=T
 Integral buffers will be    131072 words long.
 Raffenetti 1 integral format.
 Two-electron integral symmetry is turned on.
 Leave Link  301 at Sat Sep  4 10:57:57 2021, MaxMem= 23488102400 cpu:               1.7 elap:               0.1
 (Enter /sw/apps/gaussian-16.0/g16/l302.exe)
 NPDir=0 NMtPBC=     1 NCelOv=     1 NCel=       1 NClECP=     1 NCelD=      1
         NCelK=      1 NCelE2=     1 NClLst=     1 CellRange=     0.0.
 One-electron integrals computed using PRISM.
 One-electron integral symmetry used in STVInt
   1 Symmetry operations used in ECPInt.
 ECPInt:  NShTT=  271216 NPrTT=  987664 LenC2=  116756 LenP2D=  255476.
 LDataN:  DoStor=T MaxTD1= 4 Len=   56
 NBasis=  1572 RedAO= T EigKep=  3.36D-04  NBF=  1572
 NBsUse=  1572 1.00D-06 EigRej= -1.00D+00 NBFU=  1572
 Precomputing XC quadrature grid using
 IXCGrd= 4 IRadAn=           5 IRanWt=          -1 IRanGd=           0 AccXCQ= 0.00D+00.
 Generated NRdTot=       0 NPtTot=           0 NUsed=           0 NTot=          32
 NSgBfM=  1007   986   997   998  1007 MxSgAt=   158 MxSgA2=   157.
 Leave Link  302 at Sat Sep  4 10:58:02 2021, MaxMem= 23488102400 cpu:             113.6 elap:               4.8
 (Enter /sw/apps/gaussian-16.0/g16/l303.exe)
 DipDrv:  MaxL=1.
 Leave Link  303 at Sat Sep  4 10:58:02 2021, MaxMem= 23488102400 cpu:               8.6 elap:               0.4
 (Enter /sw/apps/gaussian-16.0/g16/l308.exe)
 Leave Link  308 at Sat Sep  4 10:58:03 2021, MaxMem= 23488102400 cpu:              12.1 elap:               0.6
 (Enter /sw/apps/gaussian-16.0/g16/l401.exe)
 ExpMin= 3.36D-02 ExpMax= 4.95D+03 ExpMxC= 7.45D+02 IAcc=3 IRadAn=         5 AccDes= 0.00D+00
 Harris functional with IExCor=20419 and IRadAn=       5 diagonalized for initial guess.
 HarFok:  IExCor=20419 AccDes= 0.00D+00 IRadAn=         5 IDoV= 1 UseB2=F ITyADJ=14
 ICtDFT=  3500011 ScaDFX=  1.000000  1.000000  1.000000  1.000000
 FoFCou: FMM=F IPFlag=           0 FMFlag=      100000 FMFlg1=        2001
         NFxFlg=           0 DoJE=T BraDBF=F KetDBF=T FulRan=T
         wScrn=  0.000000 ICntrl=       500 IOpCl=  0 I1Cent=   200000004 NGrid=           0
         NMat0=    1 NMatS0=      1 NMatT0=    0 NMatD0=    1 NMtDS0=    0 NMtDT0=    0
 Petite list used in FoFCou.
 Harris En= -3918.65802066924    
 JPrj=0 DoOrth=F DoCkMO=F.
 Leave Link  401 at Sat Sep  4 10:58:10 2021, MaxMem= 23488102400 cpu:             166.3 elap:               7.0
 (Enter /sw/apps/gaussian-16.0/g16/l502.exe)
 Integral symmetry usage will be decided dynamically.
 Closed shell SCF:
 Using DIIS extrapolation, IDIIS=  1040.
 NGot= 23488102400 LenX= 23482547354 LenY= 23479796732
 Requested convergence on RMS density matrix=1.00D-08 within 128 cycles.
 Requested convergence on MAX density matrix=1.00D-06.
 Requested convergence on             energy=1.00D-06.
 No special actions if energy rises.
 Fock matrices will be formed incrementally for  20 cycles.

 Cycle   1  Pass 1  IDiag  1:
 FoFJK:  IHMeth= 1 ICntrl=       0 DoSepK=T KAlg= 0 I1Cent=           0 FoldK=F
 IRaf=         1 NMat=       1 IRICut=       1 DoRegI=T DoRafI=F ISym2E= 0 IDoP0=0 IntGTp=1.
 FoFCou: FMM=T IPFlag=           0 FMFlag=      100000 FMFlg1=        2001
         NFxFlg=           0 DoJE=T BraDBF=F KetDBF=F FulRan=T
         wScrn=  0.000000 ICntrl=       500 IOpCl=  0 I1Cent=           0 NGrid=           0
         NMat0=    1 NMatS0=      1 NMatT0=    0 NMatD0=    1 NMtDS0=    0 NMtDT0=    0
 Symmetry not used in FoFCou.
 FMM levels:  10  Number of levels for PrismC:   9
 E= -4068.94986824733    
 DIIS: error= 2.04D-02 at cycle   1 NSaved=   1.
 NSaved= 1 IEnMin= 1 EnMin= -4068.94986824733     IErMin= 1 ErrMin= 2.04D-02
 ErrMax= 2.04D-02  0.00D+00 EMaxC= 1.00D-01 BMatC= 1.69D+00 BMatP= 1.69D+00
 IDIUse=3 WtCom= 7.96D-01 WtEn= 2.04D-01
 Coeff-Com:  0.100D+01
 Coeff-En:   0.100D+01
 Coeff:      0.100D+01
 Gap=     0.120 Goal=   None    Shift=    0.000
 GapD=    0.120 DampG=1.000 DampE=0.500 DampFc=0.5000 IDamp=-1.
 Damping current iteration by 5.00D-01
 RMSDP=1.57D-03 MaxDP=1.35D-01              OVMax= 2.01D-01

 Cycle   2  Pass 1  IDiag  1:
 RMSU=  7.69D-04    CP:  9.82D-01
 E= -4069.33877943520     Delta-E=       -0.388911187874 Rises=F Damp=T
 DIIS: error= 1.27D-02 at cycle   2 NSaved=   2.
 NSaved= 2 IEnMin= 2 EnMin= -4069.33877943520     IErMin= 2 ErrMin= 1.27D-02
 ErrMax= 1.27D-02  0.00D+00 EMaxC= 1.00D-01 BMatC= 3.06D-01 BMatP= 1.69D+00
 IDIUse=3 WtCom= 8.73D-01 WtEn= 1.27D-01
 Coeff-Com: -0.214D+00 0.121D+01
 Coeff-En:   0.000D+00 0.100D+01
 Coeff:     -0.186D+00 0.119D+01
 Gap=     0.135 Goal=   None    Shift=    0.000
 RMSDP=7.64D-04 MaxDP=9.45D-02 DE=-3.89D-01 OVMax= 1.86D-01

 Cycle   3  Pass 1  IDiag  1:
 RMSU=  7.31D-04    CP:  9.68D-01  1.24D+00
 E= -4069.62888667670     Delta-E=       -0.290107241497 Rises=F Damp=F
 DIIS: error= 1.56D-02 at cycle   3 NSaved=   3.
 NSaved= 3 IEnMin= 3 EnMin= -4069.62888667670     IErMin= 2 ErrMin= 1.27D-02
 ErrMax= 1.56D-02  0.00D+00 EMaxC= 1.00D-01 BMatC= 2.01D-01 BMatP= 3.06D-01
 IDIUse=3 WtCom= 8.44D-01 WtEn= 1.56D-01
 Coeff-Com: -0.267D+00 0.651D+00 0.616D+00
 Coeff-En:   0.000D+00 0.000D+00 0.100D+01
 Coeff:     -0.225D+00 0.549D+00 0.676D+00
 Gap=     0.122 Goal=   None    Shift=    0.000
 RMSDP=5.07D-04 MaxDP=4.76D-02 DE=-2.90D-01 OVMax= 1.40D-01

 Cycle   4  Pass 1  IDiag  1:
 RMSU=  2.65D-04    CP:  9.65D-01  1.55D+00  5.07D-01
 E= -4069.76591124648     Delta-E=       -0.137024569784 Rises=F Damp=F
 DIIS: error= 7.18D-03 at cycle   4 NSaved=   4.
 NSaved= 4 IEnMin= 4 EnMin= -4069.76591124648     IErMin= 4 ErrMin= 7.18D-03
 ErrMax= 7.18D-03  0.00D+00 EMaxC= 1.00D-01 BMatC= 4.97D-02 BMatP= 2.01D-01
 IDIUse=3 WtCom= 9.28D-01 WtEn= 7.18D-02
 Coeff-Com: -0.109D+00 0.226D+00 0.408D+00 0.475D+00
 Coeff-En:   0.000D+00 0.000D+00 0.219D+00 0.781D+00
 Coeff:     -0.101D+00 0.209D+00 0.394D+00 0.497D+00
 Gap=     0.121 Goal=   None    Shift=    0.000
 RMSDP=1.99D-04 MaxDP=2.00D-02 DE=-1.37D-01 OVMax= 6.00D-02

 Cycle   5  Pass 1  IDiag  1:
 RMSU=  7.54D-05    CP:  9.64D-01  1.49D+00  6.89D-01  5.51D-01
 E= -4069.81080420584     Delta-E=       -0.044892959359 Rises=F Damp=F
 DIIS: error= 7.69D-04 at cycle   5 NSaved=   5.
 NSaved= 5 IEnMin= 5 EnMin= -4069.81080420584     IErMin= 5 ErrMin= 7.69D-04
 ErrMax= 7.69D-04  0.00D+00 EMaxC= 1.00D-01 BMatC= 1.14D-03 BMatP= 4.97D-02
 IDIUse=3 WtCom= 9.92D-01 WtEn= 7.69D-03
 Coeff-Com: -0.358D-01 0.703D-01 0.165D+00 0.249D+00 0.552D+00
 Coeff-En:   0.000D+00 0.000D+00 0.000D+00 0.000D+00 0.100D+01
 Coeff:     -0.355D-01 0.697D-01 0.163D+00 0.247D+00 0.555D+00
 Gap=     0.121 Goal=   None    Shift=    0.000
 RMSDP=4.08D-05 MaxDP=4.10D-03 DE=-4.49D-02 OVMax= 1.55D-02

 Cycle   6  Pass 1  IDiag  1:
 RMSU=  3.03D-05    CP:  9.64D-01  1.49D+00  6.81D-01  6.23D-01  7.58D-01
 E= -4069.81179359884     Delta-E=       -0.000989393004 Rises=F Damp=F
 DIIS: error= 2.15D-04 at cycle   6 NSaved=   6.
 NSaved= 6 IEnMin= 6 EnMin= -4069.81179359884     IErMin= 6 ErrMin= 2.15D-04
 ErrMax= 2.15D-04  0.00D+00 EMaxC= 1.00D-01 BMatC= 1.77D-04 BMatP= 1.14D-03
 IDIUse=3 WtCom= 9.98D-01 WtEn= 2.15D-03
 Coeff-Com:  0.221D-02-0.657D-02 0.111D-01 0.401D-01 0.309D+00 0.644D+00
 Coeff-En:   0.000D+00 0.000D+00 0.000D+00 0.000D+00 0.109D+00 0.891D+00
 Coeff:      0.220D-02-0.655D-02 0.111D-01 0.400D-01 0.308D+00 0.645D+00
 Gap=     0.121 Goal=   None    Shift=    0.000
 RMSDP=1.60D-05 MaxDP=1.16D-03 DE=-9.89D-04 OVMax= 6.91D-03

 Cycle   7  Pass 1  IDiag  1:
 RMSU=  1.07D-05    CP:  9.64D-01  1.50D+00  6.87D-01  6.22D-01  8.60D-01
                    CP:  7.44D-01
 E= -4069.81198485878     Delta-E=       -0.000191259933 Rises=F Damp=F
 DIIS: error= 8.01D-05 at cycle   7 NSaved=   7.
 NSaved= 7 IEnMin= 7 EnMin= -4069.81198485878     IErMin= 7 ErrMin= 8.01D-05
 ErrMax= 8.01D-05  0.00D+00 EMaxC= 1.00D-01 BMatC= 2.12D-05 BMatP= 1.77D-04
 IDIUse=1 WtCom= 1.00D+00 WtEn= 0.00D+00
 Coeff-Com:  0.445D-02-0.974D-02-0.889D-02-0.367D-02 0.104D+00 0.331D+00
 Coeff-Com:  0.583D+00
 Coeff:      0.445D-02-0.974D-02-0.889D-02-0.367D-02 0.104D+00 0.331D+00
 Coeff:      0.583D+00
 Gap=     0.122 Goal=   None    Shift=    0.000
 RMSDP=6.55D-06 MaxDP=1.11D-03 DE=-1.91D-04 OVMax= 3.16D-03

 Cycle   8  Pass 1  IDiag  1:
 RMSU=  4.68D-06    CP:  9.64D-01  1.50D+00  6.88D-01  6.27D-01  8.64D-01
                    CP:  8.71D-01  8.19D-01
 E= -4069.81201116468     Delta-E=       -0.000026305905 Rises=F Damp=F
 DIIS: error= 4.89D-05 at cycle   8 NSaved=   8.
 NSaved= 8 IEnMin= 8 EnMin= -4069.81201116468     IErMin= 8 ErrMin= 4.89D-05
 ErrMax= 4.89D-05  0.00D+00 EMaxC= 1.00D-01 BMatC= 4.83D-06 BMatP= 2.12D-05
 IDIUse=1 WtCom= 1.00D+00 WtEn= 0.00D+00
 Coeff-Com:  0.217D-02-0.429D-02-0.777D-02-0.122D-01-0.116D-01 0.338D-01
 Coeff-Com:  0.342D+00 0.658D+00
 Coeff:      0.217D-02-0.429D-02-0.777D-02-0.122D-01-0.116D-01 0.338D-01
 Coeff:      0.342D+00 0.658D+00
 Gap=     0.122 Goal=   None    Shift=    0.000
 RMSDP=3.28D-06 MaxDP=3.35D-04 DE=-2.63D-05 OVMax= 1.09D-03

 Cycle   9  Pass 1  IDiag  1:
 RMSU=  1.91D-06    CP:  9.64D-01  1.50D+00  6.88D-01  6.28D-01  8.81D-01
                    CP:  8.97D-01  1.02D+00  9.41D-01
 E= -4069.81201887464     Delta-E=       -0.000007709954 Rises=F Damp=F
 DIIS: error= 2.05D-05 at cycle   9 NSaved=   9.
 NSaved= 9 IEnMin= 9 EnMin= -4069.81201887464     IErMin= 9 ErrMin= 2.05D-05
 ErrMax= 2.05D-05  0.00D+00 EMaxC= 1.00D-01 BMatC= 6.93D-07 BMatP= 4.83D-06
 IDIUse=1 WtCom= 1.00D+00 WtEn= 0.00D+00
 Coeff-Com:  0.475D-03-0.792D-03-0.270D-02-0.604D-02-0.214D-01-0.384D-01
 Coeff-Com:  0.104D+00 0.328D+00 0.637D+00
 Coeff:      0.475D-03-0.792D-03-0.270D-02-0.604D-02-0.214D-01-0.384D-01
 Coeff:      0.104D+00 0.328D+00 0.637D+00
 Gap=     0.122 Goal=   None    Shift=    0.000
 RMSDP=1.41D-06 MaxDP=1.49D-04 DE=-7.71D-06 OVMax= 7.59D-04

 Cycle  10  Pass 1  IDiag  1:
 RMSU=  9.36D-07    CP:  9.64D-01  1.50D+00  6.88D-01  6.29D-01  8.84D-01
                    CP:  9.10D-01  1.06D+00  1.11D+00  1.05D+00
 E= -4069.81202045356     Delta-E=       -0.000001578923 Rises=F Damp=F
 DIIS: error= 1.05D-05 at cycle  10 NSaved=  10.
 NSaved=10 IEnMin=10 EnMin= -4069.81202045356     IErMin=10 ErrMin= 1.05D-05
 ErrMax= 1.05D-05  0.00D+00 EMaxC= 1.00D-01 BMatC= 1.70D-07 BMatP= 6.93D-07
 IDIUse=1 WtCom= 1.00D+00 WtEn= 0.00D+00
 Coeff-Com: -0.424D-03 0.889D-03 0.122D-02 0.111D-02-0.381D-02-0.309D-01
 Coeff-Com: -0.456D-01-0.755D-01 0.251D+00 0.902D+00
 Coeff:     -0.424D-03 0.889D-03 0.122D-02 0.111D-02-0.381D-02-0.309D-01
 Coeff:     -0.456D-01-0.755D-01 0.251D+00 0.902D+00
 Gap=     0.122 Goal=   None    Shift=    0.000
 RMSDP=1.21D-06 MaxDP=1.19D-04 DE=-1.58D-06 OVMax= 6.16D-04

 Cycle  11  Pass 1  IDiag  1:
 RMSU=  5.14D-07    CP:  9.64D-01  1.50D+00  6.88D-01  6.29D-01  8.87D-01
                    CP:  9.20D-01  1.11D+00  1.22D+00  1.39D+00  1.37D+00
 E= -4069.81202123104     Delta-E=       -0.000000777483 Rises=F Damp=F
 DIIS: error= 4.03D-06 at cycle  11 NSaved=  11.
 NSaved=11 IEnMin=11 EnMin= -4069.81202123104     IErMin=11 ErrMin= 4.03D-06
 ErrMax= 4.03D-06  0.00D+00 EMaxC= 1.00D-01 BMatC= 6.13D-08 BMatP= 1.70D-07
 IDIUse=1 WtCom= 1.00D+00 WtEn= 0.00D+00
 Coeff-Com: -0.329D-03 0.640D-03 0.133D-02 0.212D-02 0.442D-02-0.847D-02
 Coeff-Com: -0.429D-01-0.132D+00-0.247D-01 0.468D+00 0.732D+00
 Coeff:     -0.329D-03 0.640D-03 0.133D-02 0.212D-02 0.442D-02-0.847D-02
 Coeff:     -0.429D-01-0.132D+00-0.247D-01 0.468D+00 0.732D+00
 Gap=     0.122 Goal=   None    Shift=    0.000
 RMSDP=6.81D-07 MaxDP=6.05D-05 DE=-7.77D-07 OVMax= 3.73D-04

 Cycle  12  Pass 1  IDiag  1:
 RMSU=  2.62D-07    CP:  9.64D-01  1.50D+00  6.88D-01  6.29D-01  8.88D-01
                    CP:  9.23D-01  1.13D+00  1.28D+00  1.55D+00  1.75D+00
                    CP:  1.20D+00
 E= -4069.81202149005     Delta-E=       -0.000000259006 Rises=F Damp=F
 DIIS: error= 2.47D-06 at cycle  12 NSaved=  12.
 NSaved=12 IEnMin=12 EnMin= -4069.81202149005     IErMin=12 ErrMin= 2.47D-06
 ErrMax= 2.47D-06  0.00D+00 EMaxC= 1.00D-01 BMatC= 1.49D-08 BMatP= 6.13D-08
 IDIUse=1 WtCom= 1.00D+00 WtEn= 0.00D+00
 Coeff-Com: -0.333D-05-0.983D-05 0.189D-03 0.523D-03 0.334D-02 0.384D-02
 Coeff-Com:  0.259D-02-0.355D-01-0.676D-01-0.704D-01 0.252D+00 0.911D+00
 Coeff:     -0.333D-05-0.983D-05 0.189D-03 0.523D-03 0.334D-02 0.384D-02
 Coeff:      0.259D-02-0.355D-01-0.676D-01-0.704D-01 0.252D+00 0.911D+00
 Gap=     0.122 Goal=   None    Shift=    0.000
 RMSDP=4.31D-07 MaxDP=3.06D-05 DE=-2.59D-07 OVMax= 2.50D-04

 Cycle  13  Pass 1  IDiag  1:
 RMSU=  1.65D-07    CP:  9.64D-01  1.50D+00  6.88D-01  6.29D-01  8.88D-01
                    CP:  9.23D-01  1.14D+00  1.31D+00  1.66D+00  1.98D+00
                    CP:  1.61D+00  1.26D+00
 E= -4069.81202158045     Delta-E=       -0.000000090404 Rises=F Damp=F
 DIIS: error= 1.26D-06 at cycle  13 NSaved=  13.
 NSaved=13 IEnMin=13 EnMin= -4069.81202158045     IErMin=13 ErrMin= 1.26D-06
 ErrMax= 1.26D-06  0.00D+00 EMaxC= 1.00D-01 BMatC= 8.22D-09 BMatP= 1.49D-08
 IDIUse=1 WtCom= 1.00D+00 WtEn= 0.00D+00
 Coeff-Com:  0.119D-03-0.244D-03-0.368D-03-0.455D-03 0.595D-03 0.499D-02
 Coeff-Com:  0.196D-01 0.226D-01-0.333D-01-0.240D+00-0.157D+00 0.597D+00
 Coeff-Com:  0.786D+00
 Coeff:      0.119D-03-0.244D-03-0.368D-03-0.455D-03 0.595D-03 0.499D-02
 Coeff:      0.196D-01 0.226D-01-0.333D-01-0.240D+00-0.157D+00 0.597D+00
 Coeff:      0.786D+00
 Gap=     0.122 Goal=   None    Shift=    0.000
 RMSDP=3.38D-07 MaxDP=2.21D-05 DE=-9.04D-08 OVMax= 1.98D-04

 Cycle  14  Pass 1  IDiag  1:
 RMSU=  7.58D-08    CP:  9.64D-01  1.50D+00  6.88D-01  6.29D-01  8.88D-01
                    CP:  9.24D-01  1.15D+00  1.33D+00  1.74D+00  2.17D+00
                    CP:  1.87D+00  1.78D+00  1.09D+00
 E= -4069.81202161658     Delta-E=       -0.000000036125 Rises=F Damp=F
 DIIS: error= 6.86D-07 at cycle  14 NSaved=  14.
 NSaved=14 IEnMin=14 EnMin= -4069.81202161658     IErMin=14 ErrMin= 6.86D-07
 ErrMax= 6.86D-07  0.00D+00 EMaxC= 1.00D-01 BMatC= 1.26D-09 BMatP= 8.22D-09
 IDIUse=1 WtCom= 1.00D+00 WtEn= 0.00D+00
 Coeff-Com:  0.668D-04-0.132D-03-0.247D-03-0.389D-03-0.480D-03 0.127D-02
 Coeff-Com:  0.107D-01 0.192D-01 0.390D-02-0.100D+00-0.143D+00 0.927D-01
 Coeff-Com:  0.404D+00 0.712D+00
 Coeff:      0.668D-04-0.132D-03-0.247D-03-0.389D-03-0.480D-03 0.127D-02
 Coeff:      0.107D-01 0.192D-01 0.390D-02-0.100D+00-0.143D+00 0.927D-01
 Coeff:      0.404D+00 0.712D+00
 Gap=     0.122 Goal=   None    Shift=    0.000
 RMSDP=1.02D-07 MaxDP=6.80D-06 DE=-3.61D-08 OVMax= 5.58D-05

 Cycle  15  Pass 1  IDiag  1:
 RMSU=  3.81D-08    CP:  9.64D-01  1.50D+00  6.88D-01  6.29D-01  8.88D-01
                    CP:  9.23D-01  1.15D+00  1.34D+00  1.75D+00  2.21D+00
                    CP:  1.98D+00  1.92D+00  1.33D+00  1.03D+00
 E= -4069.81202162037     Delta-E=       -0.000000003794 Rises=F Damp=F
 DIIS: error= 3.19D-07 at cycle  15 NSaved=  15.
 NSaved=15 IEnMin=15 EnMin= -4069.81202162037     IErMin=15 ErrMin= 3.19D-07
 ErrMax= 3.19D-07  0.00D+00 EMaxC= 1.00D-01 BMatC= 2.26D-10 BMatP= 1.26D-09
 IDIUse=1 WtCom= 1.00D+00 WtEn= 0.00D+00
 Coeff-Com:  0.554D-05-0.930D-05-0.330D-04-0.822D-04-0.298D-03-0.510D-03
 Coeff-Com:  0.117D-02 0.254D-02 0.871D-02 0.139D-02-0.308D-01-0.728D-01
 Coeff-Com:  0.294D-01 0.296D+00 0.765D+00
 Coeff:      0.554D-05-0.930D-05-0.330D-04-0.822D-04-0.298D-03-0.510D-03
 Coeff:      0.117D-02 0.254D-02 0.871D-02 0.139D-02-0.308D-01-0.728D-01
 Coeff:      0.294D-01 0.296D+00 0.765D+00
 Gap=     0.122 Goal=   None    Shift=    0.000
 RMSDP=4.02D-08 MaxDP=2.61D-06 DE=-3.79D-09 OVMax= 2.73D-05

 Cycle  16  Pass 1  IDiag  1:
 RMSU=  1.85D-08    CP:  9.64D-01  1.50D+00  6.88D-01  6.29D-01  8.88D-01
                    CP:  9.23D-01  1.15D+00  1.34D+00  1.76D+00  2.23D+00
                    CP:  2.00D+00  1.98D+00  1.40D+00  1.24D+00  1.15D+00
 E= -4069.81202162143     Delta-E=       -0.000000001055 Rises=F Damp=F
 DIIS: error= 1.76D-07 at cycle  16 NSaved=  16.
 NSaved=16 IEnMin=16 EnMin= -4069.81202162143     IErMin=16 ErrMin= 1.76D-07
 ErrMax= 1.76D-07  0.00D+00 EMaxC= 1.00D-01 BMatC= 8.21D-11 BMatP= 2.26D-10
 IDIUse=1 WtCom= 1.00D+00 WtEn= 0.00D+00
 Coeff-Com: -0.141D-04 0.286D-04 0.466D-04 0.533D-04-0.262D-04-0.628D-03
 Coeff-Com: -0.193D-02-0.424D-02 0.445D-02 0.253D-01 0.207D-01-0.642D-01
 Coeff-Com: -0.823D-01-0.379D-01 0.397D+00 0.743D+00
 Coeff:     -0.141D-04 0.286D-04 0.466D-04 0.533D-04-0.262D-04-0.628D-03
 Coeff:     -0.193D-02-0.424D-02 0.445D-02 0.253D-01 0.207D-01-0.642D-01
 Coeff:     -0.823D-01-0.379D-01 0.397D+00 0.743D+00
 Gap=     0.122 Goal=   None    Shift=    0.000
 RMSDP=2.28D-08 MaxDP=1.60D-06 DE=-1.06D-09 OVMax= 1.27D-05

 Cycle  17  Pass 1  IDiag  1:
 RMSU=  1.03D-08    CP:  9.64D-01  1.50D+00  6.88D-01  6.29D-01  8.88D-01
                    CP:  9.23D-01  1.15D+00  1.34D+00  1.76D+00  2.23D+00
                    CP:  2.02D+00  2.00D+00  1.45D+00  1.34D+00  1.44D+00
                    CP:  1.25D+00
 E= -4069.81202162204     Delta-E=       -0.000000000611 Rises=F Damp=F
 DIIS: error= 9.72D-08 at cycle  17 NSaved=  17.
 NSaved=17 IEnMin=17 EnMin= -4069.81202162204     IErMin=17 ErrMin= 9.72D-08
 ErrMax= 9.72D-08  0.00D+00 EMaxC= 1.00D-01 BMatC= 1.80D-11 BMatP= 8.21D-11
 IDIUse=1 WtCom= 1.00D+00 WtEn= 0.00D+00
 Coeff-Com: -0.721D-05 0.140D-04 0.285D-04 0.424D-04 0.843D-04-0.124D-03
 Coeff-Com: -0.943D-03-0.280D-02 0.130D-03 0.919D-02 0.175D-01-0.727D-02
 Coeff-Com: -0.362D-01-0.101D+00-0.314D-01 0.293D+00 0.860D+00
 Coeff:     -0.721D-05 0.140D-04 0.285D-04 0.424D-04 0.843D-04-0.124D-03
 Coeff:     -0.943D-03-0.280D-02 0.130D-03 0.919D-02 0.175D-01-0.727D-02
 Coeff:     -0.362D-01-0.101D+00-0.314D-01 0.293D+00 0.860D+00
 Gap=     0.122 Goal=   None    Shift=    0.000
 RMSDP=1.36D-08 MaxDP=1.02D-06 DE=-6.11D-10 OVMax= 8.91D-06

 Cycle  18  Pass 1  IDiag  1:
 RMSU=  4.81D-09    CP:  9.64D-01  1.50D+00  6.88D-01  6.29D-01  8.88D-01
                    CP:  9.23D-01  1.15D+00  1.34D+00  1.76D+00  2.23D+00
                    CP:  2.02D+00  2.01D+00  1.47D+00  1.41D+00  1.61D+00
                    CP:  1.66D+00  1.39D+00
 E= -4069.81202162166     Delta-E=        0.000000000375 Rises=F Damp=F
 DIIS: error= 5.43D-08 at cycle  18 NSaved=  18.
 NSaved=18 IEnMin=17 EnMin= -4069.81202162204     IErMin=18 ErrMin= 5.43D-08
 ErrMax= 5.43D-08  0.00D+00 EMaxC= 1.00D-01 BMatC= 6.93D-12 BMatP= 1.80D-11
 IDIUse=1 WtCom= 1.00D+00 WtEn= 0.00D+00
 Coeff-Com:  0.202D-05-0.435D-05-0.450D-05-0.174D-05 0.591D-04 0.179D-03
 Coeff-Com:  0.400D-03 0.215D-03-0.124D-02-0.613D-02-0.149D-03 0.200D-01
 Coeff-Com:  0.186D-01-0.321D-01-0.162D+00-0.191D+00 0.346D+00 0.101D+01
 Coeff:      0.202D-05-0.435D-05-0.450D-05-0.174D-05 0.591D-04 0.179D-03
 Coeff:      0.400D-03 0.215D-03-0.124D-02-0.613D-02-0.149D-03 0.200D-01
 Coeff:      0.186D-01-0.321D-01-0.162D+00-0.191D+00 0.346D+00 0.101D+01
 Gap=     0.122 Goal=   None    Shift=    0.000
 RMSDP=1.17D-08 MaxDP=7.63D-07 DE= 3.75D-10 OVMax= 6.67D-06

 Cycle  19  Pass 1  IDiag  1:
 RMSU=  2.77D-09    CP:  9.64D-01  1.50D+00  6.88D-01  6.29D-01  8.88D-01
                    CP:  9.23D-01  1.15D+00  1.34D+00  1.76D+00  2.23D+00
                    CP:  2.02D+00  2.02D+00  1.48D+00  1.45D+00  1.76D+00
                    CP:  1.99D+00  1.94D+00  1.38D+00
 E= -4069.81202162197     Delta-E=       -0.000000000309 Rises=F Damp=F
 DIIS: error= 3.40D-08 at cycle  19 NSaved=  19.
 NSaved=19 IEnMin=17 EnMin= -4069.81202162204     IErMin=19 ErrMin= 3.40D-08
 ErrMax= 3.40D-08  0.00D+00 EMaxC= 1.00D-01 BMatC= 1.42D-12 BMatP= 6.93D-12
 IDIUse=1 WtCom= 1.00D+00 WtEn= 0.00D+00
 Coeff-Com:  0.288D-05-0.580D-05-0.984D-05-0.124D-04 0.107D-04 0.116D-03
 Coeff-Com:  0.470D-03 0.791D-03-0.566D-03-0.591D-02-0.486D-02 0.118D-01
 Coeff-Com:  0.200D-01 0.117D-01-0.678D-01-0.177D+00-0.382D-01 0.489D+00
 Coeff-Com:  0.760D+00
 Coeff:      0.288D-05-0.580D-05-0.984D-05-0.124D-04 0.107D-04 0.116D-03
 Coeff:      0.470D-03 0.791D-03-0.566D-03-0.591D-02-0.486D-02 0.118D-01
 Coeff:      0.200D-01 0.117D-01-0.678D-01-0.177D+00-0.382D-01 0.489D+00
 Coeff:      0.760D+00
 Gap=     0.122 Goal=   None    Shift=    0.000
 RMSDP=4.56D-09 MaxDP=3.18D-07 DE=-3.09D-10 OVMax= 2.98D-06

 SCF Done:  E(RCAM-B3LYP) =  -4069.81202162     A.U. after   19 cycles
            NFock= 19  Conv=0.46D-08     -V/T= 2.0102
 KE= 4.028801931124D+03 PE=-3.797285279935D+04 EE= 1.562829579597D+04
 Leave Link  502 at Sat Sep  4 11:07:01 2021, MaxMem= 23488102400 cpu:           12150.9 elap:             531.1
 (Enter /sw/apps/gaussian-16.0/g16/l801.exe)
 DoSCS=F DFT=T ScalE2(SS,OS)=  1.000000  1.000000
 ExpMin= 3.36D-02 ExpMax= 4.95D+03 ExpMxC= 7.45D+02 IAcc=3 IRadAn=         5 AccDes= 0.00D+00
 HarFok:  IExCor=  205 AccDes= 0.00D+00 IRadAn=         5 IDoV=-2 UseB2=F ITyADJ=14
 ICtDFT= 12500011 ScaDFX=  1.000000  1.000000  1.000000  1.000000
 GSVD:  LWork=       -9588 too small for GESVD, short by       45590 words or       45590 for optimal perf.
 Largest valence mixing into a core orbital is  2.03D-04
 Largest core mixing into a valence orbital is  5.24D-05
 Range of M.O.s used for correlation:    95  1572
 NBasis=  1572 NAE=   312 NBE=   312 NFC=    94 NFV=     0
 NROrb=   1478 NOA=   218 NOB=   218 NVA=  1260 NVB=  1260
 Leave Link  801 at Sat Sep  4 11:07:01 2021, MaxMem= 23488102400 cpu:               9.2 elap:               0.4
 (Enter /sw/apps/gaussian-16.0/g16/l914.exe)
 RHF ground state
 Two-electron integrals replicated using symmetry.
 MDV= 23488102400 DFT=T DoStab=F Mixed=T DoRPA=T DoScal=F NonHer=T
 Making orbital integer symmetry assigments:
 Orbital symmetries:
       Occupied  (A) (A) (A) (A) (A) (A) (A) (A) (A) (A) (A) (A)
                 (A) (A) (A) (A) (A) (A) (A) (A) (A) (A) (A) (A)
                 (A) (A) (A) (A) (A) (A) (A) (A) (A) (A) (A) (A)
                 (A) (A) (A) (A) (A) (A) (A) (A) (A) (A) (A) (A)
                 (A) (A) (A) (A) (A) (A) (A) (A) (A) (A) (A) (A)
                 (A) (A) (A) (A) (A) (A) (A) (A) (A) (A) (A) (A)
                 (A) (A) (A) (A) (A) (A) (A) (A) (A) (A) (A) (A)
                 (A) (A) (A) (A) (A) (A) (A) (A) (A) (A) (A) (A)
                 (A) (A) (A) (A) (A) (A) (A) (A) (A) (A) (A) (A)
                 (A) (A) (A) (A) (A) (A) (A) (A) (A) (A) (A) (A)
                 (A) (A) (A) (A) (A) (A) (A) (A) (A) (A) (A) (A)
                 (A) (A) (A) (A) (A) (A) (A) (A) (A) (A) (A) (A)
                 (A) (A) (A) (A) (A) (A) (A) (A) (A) (A) (A) (A)
                 (A) (A) (A) (A) (A) (A) (A) (A) (A) (A) (A) (A)
                 (A) (A) (A) (A) (A) (A) (A) (A) (A) (A) (A) (A)
                 (A) (A) (A) (A) (A) (A) (A) (A) (A) (A) (A) (A)
                 (A) (A) (A) (A) (A) (A) (A) (A) (A) (A) (A) (A)
                 (A) (A) (A) (A) (A) (A) (A) (A) (A) (A) (A) (A)
                 (A) (A) (A) (A) (A) (A) (A) (A) (A) (A) (A) (A)
                 (A) (A) (A) (A) (A) (A) (A) (A) (A) (A) (A) (A)
                 (A) (A) (A) (A) (A) (A) (A) (A) (A) (A) (A) (A)
                 (A) (A) (A) (A) (A) (A) (A) (A) (A) (A) (A) (A)
                 (A) (A) (A) (A) (A) (A) (A) (A) (A) (A) (A) (A)
                 (A) (A) (A) (A) (A) (A) (A) (A) (A) (A) (A) (A)
                 (A) (A) (A) (A) (A) (A) (A) (A) (A) (A) (A) (A)
                 (A) (A) (A) (A) (A) (A) (A) (A) (A) (A) (A) (A)
       Virtual   (A) (A) (A) (A) (A) (A) (A) (A) (A) (A) (A) (A)
                 (A) (A) (A) (A) (A) (A) (A) (A) (A) (A) (A) (A)
                 (A) (A) (A) (A) (A) (A) (A) (A) (A) (A) (A) (A)
                 (A) (A) (A) (A) (A) (A) (A) (A) (A) (A) (A) (A)
                 (A) (A) (A) (A) (A) (A) (A) (A) (A) (A) (A) (A)
                 (A) (A) (A) (A) (A) (A) (A) (A) (A) (A) (A) (A)
                 (A) (A) (A) (A) (A) (A) (A) (A) (A) (A) (A) (A)
                 (A) (A) (A) (A) (A) (A) (A) (A) (A) (A) (A) (A)
                 (A) (A) (A) (A) (A) (A) (A) (A) (A) (A) (A) (A)
                 (A) (A) (A) (A) (A) (A) (A) (A) (A) (A) (A) (A)
                 (A) (A) (A) (A) (A) (A) (A) (A) (A) (A) (A) (A)
                 (A) (A) (A) (A) (A) (A) (A) (A) (A) (A) (A) (A)
                 (A) (A) (A) (A) (A) (A) (A) (A) (A) (A) (A) (A)
                 (A) (A) (A) (A) (A) (A) (A) (A) (A) (A) (A) (A)
                 (A) (A) (A) (A) (A) (A) (A) (A) (A) (A) (A) (A)
                 (A) (A) (A) (A) (A) (A) (A) (A) (A) (A) (A) (A)
                 (A) (A) (A) (A) (A) (A) (A) (A) (A) (A) (A) (A)
                 (A) (A) (A) (A) (A) (A) (A) (A) (A) (A) (A) (A)
                 (A) (A) (A) (A) (A) (A) (A) (A) (A) (A) (A) (A)
                 (A) (A) (A) (A) (A) (A) (A) (A) (A) (A) (A) (A)
                 (A) (A) (A) (A) (A) (A) (A) (A) (A) (A) (A) (A)
                 (A) (A) (A) (A) (A) (A) (A) (A) (A) (A) (A) (A)
                 (A) (A) (A) (A) (A) (A) (A) (A) (A) (A) (A) (A)
                 (A) (A) (A) (A) (A) (A) (A) (A) (A) (A) (A) (A)
                 (A) (A) (A) (A) (A) (A) (A) (A) (A) (A) (A) (A)
                 (A) (A) (A) (A) (A) (A) (A) (A) (A) (A) (A) (A)
                 (A) (A) (A) (A) (A) (A) (A) (A) (A) (A) (A) (A)
                 (A) (A) (A) (A) (A) (A) (A) (A) (A) (A) (A) (A)
                 (A) (A) (A) (A) (A) (A) (A) (A) (A) (A) (A) (A)
                 (A) (A) (A) (A) (A) (A) (A) (A) (A) (A) (A) (A)
                 (A) (A) (A) (A) (A) (A) (A) (A) (A) (A) (A) (A)
                 (A) (A) (A) (A) (A) (A) (A) (A) (A) (A) (A) (A)
                 (A) (A) (A) (A) (A) (A) (A) (A) (A) (A) (A) (A)
                 (A) (A) (A) (A) (A) (A) (A) (A) (A) (A) (A) (A)
                 (A) (A) (A) (A) (A) (A) (A) (A) (A) (A) (A) (A)
                 (A) (A) (A) (A) (A) (A) (A) (A) (A) (A) (A) (A)
                 (A) (A) (A) (A) (A) (A) (A) (A) (A) (A) (A) (A)
                 (A) (A) (A) (A) (A) (A) (A) (A) (A) (A) (A) (A)
                 (A) (A) (A) (A) (A) (A) (A) (A) (A) (A) (A) (A)
                 (A) (A) (A) (A) (A) (A) (A) (A) (A) (A) (A) (A)
                 (A) (A) (A) (A) (A) (A) (A) (A) (A) (A) (A) (A)
                 (A) (A) (A) (A) (A) (A) (A) (A) (A) (A) (A) (A)
                 (A) (A) (A) (A) (A) (A) (A) (A) (A) (A) (A) (A)
                 (A) (A) (A) (A) (A) (A) (A) (A) (A) (A) (A) (A)
                 (A) (A) (A) (A) (A) (A) (A) (A) (A) (A) (A) (A)
                 (A) (A) (A) (A) (A) (A) (A) (A) (A) (A) (A) (A)
                 (A) (A) (A) (A) (A) (A) (A) (A) (A) (A) (A) (A)
                 (A) (A) (A) (A) (A) (A) (A) (A) (A) (A) (A) (A)
                 (A) (A) (A) (A) (A) (A) (A) (A) (A) (A) (A) (A)
                 (A) (A) (A) (A) (A) (A) (A) (A) (A) (A) (A) (A)
                 (A) (A) (A) (A) (A) (A) (A) (A) (A) (A) (A) (A)
                 (A) (A) (A) (A) (A) (A) (A) (A) (A) (A) (A) (A)
                 (A) (A) (A) (A) (A) (A) (A) (A) (A) (A) (A) (A)
                 (A) (A) (A) (A) (A) (A) (A) (A) (A) (A) (A) (A)
                 (A) (A) (A) (A) (A) (A) (A) (A) (A) (A) (A) (A)
                 (A) (A) (A) (A) (A) (A) (A) (A) (A) (A) (A) (A)
                 (A) (A) (A) (A) (A) (A) (A) (A) (A) (A) (A) (A)
                 (A) (A) (A) (A) (A) (A) (A) (A) (A) (A) (A) (A)
                 (A) (A) (A) (A) (A) (A) (A) (A) (A) (A) (A) (A)
                 (A) (A) (A) (A) (A) (A) (A) (A) (A) (A) (A) (A)
                 (A) (A) (A) (A) (A) (A) (A) (A) (A) (A) (A) (A)
                 (A) (A) (A) (A) (A) (A) (A) (A) (A) (A) (A) (A)
                 (A) (A) (A) (A) (A) (A) (A) (A) (A) (A) (A) (A)
                 (A) (A) (A) (A) (A) (A) (A) (A) (A) (A) (A) (A)
                 (A) (A) (A) (A) (A) (A) (A) (A) (A) (A) (A) (A)
                 (A) (A) (A) (A) (A) (A) (A) (A) (A) (A) (A) (A)
                 (A) (A) (A) (A) (A) (A) (A) (A) (A) (A) (A) (A)
                 (A) (A) (A) (A) (A) (A) (A) (A) (A) (A) (A) (A)
                 (A) (A) (A) (A) (A) (A) (A) (A) (A) (A) (A) (A)
                 (A) (A) (A) (A) (A) (A) (A) (A) (A) (A) (A) (A)
                 (A) (A) (A) (A) (A) (A) (A) (A) (A) (A) (A) (A)
                 (A) (A) (A) (A) (A) (A) (A) (A) (A) (A) (A) (A)
                 (A) (A) (A) (A) (A) (A) (A) (A) (A) (A) (A) (A)
                 (A) (A) (A) (A) (A) (A) (A) (A) (A) (A) (A) (A)
                 (A) (A) (A) (A) (A) (A) (A) (A) (A) (A) (A) (A)
                 (A) (A) (A) (A) (A) (A) (A) (A) (A) (A) (A) (A)
                 (A) (A) (A) (A) (A) (A) (A) (A) (A) (A) (A) (A)
                 (A) (A) (A) (A) (A) (A) (A) (A) (A) (A) (A) (A)
                 (A) (A) (A) (A) (A) (A) (A) (A) (A) (A) (A) (A)
                 (A) (A) (A) (A) (A) (A) (A) (A) (A) (A) (A) (A)
                 (A) (A) (A) (A) (A) (A) (A) (A) (A) (A) (A) (A)
                 (A) (A) (A) (A) (A) (A) (A) (A) (A) (A) (A) (A)
                 (A) (A) (A) (A) (A) (A) (A) (A) (A) (A) (A) (A)
                 (A) (A) (A) (A) (A) (A) (A) (A) (A) (A) (A) (A)
                 (A) (A) (A) (A) (A) (A) (A) (A) (A) (A) (A) (A)
                 (A) (A) (A) (A) (A) (A) (A) (A) (A) (A) (A) (A)
                 (A) (A) (A) (A) (A) (A) (A) (A) (A) (A) (A) (A)
                 (A) (A) (A) (A) (A) (A) (A) (A) (A) (A) (A) (A)
                 (A) (A) (A) (A) (A) (A) (A) (A) (A) (A) (A) (A)
                 (A) (A) (A) (A) (A) (A) (A) (A) (A) (A) (A) (A)
                 (A) (A) (A) (A) (A) (A) (A) (A) (A) (A) (A) (A)
                 (A) (A) (A) (A) (A) (A) (A) (A) (A) (A) (A) (A)
                 (A) (A) (A) (A) (A) (A) (A) (A) (A) (A) (A) (A)
                 (A) (A) (A) (A) (A) (A) (A) (A) (A) (A) (A) (A)
                 (A) (A) (A) (A) (A) (A) (A) (A) (A) (A) (A) (A)
                 (A) (A) (A) (A) (A) (A) (A) (A) (A) (A) (A) (A)
                 (A) (A) (A) (A) (A) (A) (A) (A) (A) (A) (A) (A)
                 (A) (A) (A) (A) (A) (A) (A) (A) (A) (A) (A) (A)
                 (A) (A) (A) (A) (A) (A) (A) (A) (A) (A) (A) (A)
                 (A) (A) (A) (A) (A) (A) (A) (A) (A) (A) (A) (A)
                 (A) (A) (A) (A) (A) (A) (A) (A) (A) (A) (A) (A)
                 (A) (A) (A) (A) (A) (A) (A) (A) (A) (A) (A) (A)
                 (A) (A) (A) (A) (A) (A) (A) (A) (A) (A) (A) (A)
                 (A) (A) (A) (A) (A) (A) (A) (A) (A) (A) (A) (A)
                 (A) (A) (A) (A) (A) (A) (A) (A) (A) (A) (A) (A)
    20 initial guesses have been made.
 Convergence on wavefunction:    0.001000000000000
 Davidson Disk Diagonalization:  ConvIn= 1.00D-03 SkipCon=T Conv= 1.00D-03.
 Max sub-space:  2000 roots to seek:    20 dimension of matrix:       549360
 Iteration     1 Dimension    20 NMult     0 NNew     20
 CISAX will form    20 AO SS matrices at one time.
 NMat=    20 NSing=    20 JSym2X= 0.
 FoFJK:  IHMeth= 1 ICntrl=       0 DoSepK=T KAlg= 0 I1Cent=           0 FoldK=F
 IRaf=         1 NMat=      40 IRICut=       1 DoRegI=T DoRafI=F ISym2E= 0 IDoP0=3 IntGTp=3.
 FoFCou: FMM=T IPFlag=           0 FMFlag=      100000 FMFlg1=        2001
         NFxFlg=           0 DoJE=F BraDBF=F KetDBF=F FulRan=T
         wScrn=  0.000000 ICntrl=       500 IOpCl=  0 I1Cent=           0 NGrid=           0
         NMat0=   20 NMatS0=     20 NMatT0=    0 NMatD0=   20 NMtDS0=    0 NMtDT0=    0
 Symmetry not used in FoFCou.
 FMM levels:  10  Number of levels for PrismC:   9
 New state      1 was old state      7
 New state      2 was old state      6
 New state      3 was old state      1
 New state      4 was old state      2
 New state      5 was old state      3
 Excitation Energies [eV] at current iteration:
 Root      1 :     2.613146569671994
 Root      2 :     2.620336976219319
 Root      3 :     2.645972940851470
 Root      4 :     2.675517234077470
 Root      5 :     2.694700609729614
 Root      6 :     2.742152916157586
 Root      7 :     3.435071532759679
 Root      8 :     3.543203196792941
 Root      9 :     3.628706515605768
 Root     10 :     3.670911064647832
 Root     11 :     3.737489757504805
 Root     12 :     3.758880741139180
 Root     13 :     4.295543376953241
 Root     14 :     4.312137070012437
 Root     15 :     4.553474425497100
 Root     16 :     4.675646872332195
 Root     17 :     4.865665322207937
 Root     18 :     4.900542265903279
 Root     19 :     4.969328852212465
 Root     20 :     5.002932355989023
 Iteration     2 Dimension    30 NMult    20 NNew     10
 CISAX will form    10 AO SS matrices at one time.
 NMat=    10 NSing=    10 JSym2X= 0.
 New state      1 was old state      4
 Root      1 not converged, maximum delta is    0.171223791273506
 New state      2 was old state      5
 Root      2 not converged, maximum delta is    0.174066485593688
 New state      3 was old state      2
 Root      3 not converged, maximum delta is    0.322851125024162
 New state      4 was old state      1
 Root      4 not converged, maximum delta is    0.316802439849786
 New state      5 was old state      3
 Root      5 not converged, maximum delta is    0.001219151245852
 Excitation Energies [eV] at current iteration:
 Root      1 :     1.798781000394875   Change is   -0.876736233682595
 Root      2 :     1.808095448073592   Change is   -0.886605161656022
 Root      3 :     2.235514874796637   Change is   -0.384822101422682
 Root      4 :     2.239559565363487   Change is   -0.373587004308507
 Root      5 :     2.645798219150947   Change is   -0.000174721700523
 Iteration     3 Dimension    40 NMult    30 NNew     10
 CISAX will form    10 AO SS matrices at one time.
 NMat=    10 NSing=    10 JSym2X= 0.
 Root      1 not converged, maximum delta is    0.061773278868421
 Root      2 not converged, maximum delta is    0.062993963005340
 Root      3 not converged, maximum delta is    0.101042931299641
 Root      4 not converged, maximum delta is    0.100669196850320
 Root      5 has converged.
 Excitation Energies [eV] at current iteration:
 Root      1 :     1.691670104403108   Change is   -0.107110895991767
 Root      2 :     1.699838189087177   Change is   -0.108257258986415
 Root      3 :     2.193371754842924   Change is   -0.042143119953713
 Root      4 :     2.200698987566549   Change is   -0.038860577796938
 Root      5 :     2.645797421958146   Change is   -0.000000797192801
 Iteration     4 Dimension    48 NMult    40 NNew      8
 CISAX will form     8 AO SS matrices at one time.
 NMat=     8 NSing=     8 JSym2X= 0.
 Root      1 not converged, maximum delta is    0.011977207455634
 Root      2 not converged, maximum delta is    0.012116305300037
 Root      3 not converged, maximum delta is    0.010039689312898
 Root      4 not converged, maximum delta is    0.008861236063045
 Root      5 has converged.
 Excitation Energies [eV] at current iteration:
 Root      1 :     1.674938560929161   Change is   -0.016731543473947
 Root      2 :     1.682973935301855   Change is   -0.016864253785322
 Root      3 :     2.185985110180520   Change is   -0.007386644662404
 Root      4 :     2.193943113782494   Change is   -0.006755873784055
 Root      5 :     2.645797421955939   Change is   -0.000000000002206
 Iteration     5 Dimension    56 NMult    48 NNew      8
 CISAX will form     8 AO SS matrices at one time.
 NMat=     8 NSing=     8 JSym2X= 0.
 Root      1 not converged, maximum delta is    0.001940867552250
 Root      2 not converged, maximum delta is    0.001984482485553
 Root      3 not converged, maximum delta is    0.002549949974907
 Root      4 not converged, maximum delta is    0.002358248188066
 Root      5 has converged.
 Excitation Energies [eV] at current iteration:
 Root      1 :     1.673164535603006   Change is   -0.001774025326155
 Root      2 :     1.681200052805266   Change is   -0.001773882496589
 Root      3 :     2.185120556380002   Change is   -0.000864553800517
 Root      4 :     2.193171748261197   Change is   -0.000771365521296
 Root      5 :     2.645797421955132   Change is   -0.000000000000808
 Iteration     6 Dimension    64 NMult    56 NNew      8
 CISAX will form     8 AO SS matrices at one time.
 NMat=     8 NSing=     8 JSym2X= 0.
 Root      1 not converged, maximum delta is    0.001221832652774
 Root      2 not converged, maximum delta is    0.001236856572725
 Root      3 not converged, maximum delta is    0.001094765323472
 Root      4 has converged.
 Root      5 has converged.
 Excitation Energies [eV] at current iteration:
 Root      1 :     1.672911448747730   Change is   -0.000253086855276
 Root      2 :     1.680945386557463   Change is   -0.000254666247804
 Root      3 :     2.184989445421926   Change is   -0.000131110958077
 Root      4 :     2.193054305015891   Change is   -0.000117443245306
 Root      5 :     2.645797421954852   Change is   -0.000000000000280
 Iteration     7 Dimension    70 NMult    64 NNew      6
 CISAX will form     6 AO SS matrices at one time.
 NMat=     6 NSing=     6 JSym2X= 0.
 Root      1 has converged.
 Root      2 has converged.
 Root      3 has converged.
 Root      4 has converged.
 Root      5 has converged.
 Excitation Energies [eV] at current iteration:
 Root      1 :     1.672887080683847   Change is   -0.000024368063883
[...]
 Alpha virt. eigenvalues --    1.83612   1.83736   1.83956   1.84004   1.84313
 Alpha virt. eigenvalues --    1.84423   1.84576   1.84786   1.84873   1.85078
 Alpha virt. eigenvalues --    1.85181   1.85248   1.85388   1.85474   1.85554
 Alpha virt. eigenvalues --    1.85843   1.85972   1.86344   1.86441   1.86535
 Alpha virt. eigenvalues --    1.86714   1.86760   1.86869   1.87003   1.87100
 Alpha virt. eigenvalues --    1.87417   1.87557   1.87640   1.87840   1.87845
 Alpha virt. eigenvalues --    1.88016   1.88069   1.88248   1.88512   1.88655
 Alpha virt. eigenvalues --    1.88789   1.89031   1.89112   1.89157   1.89607
 Alpha virt. eigenvalues --    1.89725   1.89726   1.89926   1.90091   1.90263
 Alpha virt. eigenvalues --    1.90717   1.90971   1.91315   1.91417   1.91472
 Alpha virt. eigenvalues --    1.91711   1.92125   1.92274   1.92577   1.92746
 Alpha virt. eigenvalues --    1.92960   1.93218   1.93324   1.93551   1.94264
 Alpha virt. eigenvalues --    1.94360   1.94671   1.94866   1.95468   1.95632
 Alpha virt. eigenvalues --    1.95689   1.95897   1.95952   1.96120   1.96139
 Alpha virt. eigenvalues --    1.96251   1.96548   1.96569   1.96875   1.97014
 Alpha virt. eigenvalues --    1.97425   1.97601   1.97814   1.97874   1.98134
 Alpha virt. eigenvalues --    1.98255   1.98429   1.98606   1.99098   1.99143
 Alpha virt. eigenvalues --    1.99777   2.00026   2.00639   2.00791   2.00956
 Alpha virt. eigenvalues --    2.01167   2.01423   2.01551   2.01654   2.01673
 Alpha virt. eigenvalues --    2.01684   2.01911   2.02753   2.02779   2.03192
 Alpha virt. eigenvalues --    2.03215   2.03362   2.03436   2.03453   2.03592
 Alpha virt. eigenvalues --    2.04001   2.04093   2.04937   2.05031   2.05492
 Alpha virt. eigenvalues --    2.05680   2.06051   2.06341   2.06844   2.07112
 Alpha virt. eigenvalues --    2.07153   2.07410   2.08573   2.08581   2.08950
 Alpha virt. eigenvalues --    2.09080   2.09548   2.09680   2.10774   2.11072
 Alpha virt. eigenvalues --    2.11152   2.11469   2.11490   2.11619   2.11699
 Alpha virt. eigenvalues --    2.11945   2.12427   2.12551   2.12780   2.12808
 Alpha virt. eigenvalues --    2.12863   2.12950   2.13714   2.13749   2.14126
 Alpha virt. eigenvalues --    2.14293   2.15308   2.15461   2.15888   2.16167
 Alpha virt. eigenvalues --    2.16505   2.16660   2.16722   2.17233   2.17387
 Alpha virt. eigenvalues --    2.17679   2.17687   2.18024   2.18051   2.18055
 Alpha virt. eigenvalues --    2.18274   2.18749   2.18818   2.19325   2.19601
 Alpha virt. eigenvalues --    2.19902   2.20001   2.20175   2.20308   2.20519
 Alpha virt. eigenvalues --    2.21147   2.21205   2.21640   2.21699   2.21827
 Alpha virt. eigenvalues --    2.21933   2.22655   2.22778   2.23291   2.23391
 Alpha virt. eigenvalues --    2.24373   2.24462   2.24957   2.25040   2.26251
 Alpha virt. eigenvalues --    2.26515   2.26754   2.27057   2.27070   2.27274
 Alpha virt. eigenvalues --    2.28103   2.28417   2.29243   2.29511   2.29695
 Alpha virt. eigenvalues --    2.29957   2.30410   2.30710   2.30913   2.31038
 Alpha virt. eigenvalues --    2.31123   2.31258   2.32101   2.32285   2.33093
 Alpha virt. eigenvalues --    2.33315   2.33428   2.33538   2.34118   2.34201
 Alpha virt. eigenvalues --    2.35309   2.35369   2.35759   2.35999   2.36343
 Alpha virt. eigenvalues --    2.36392   2.36483   2.36592   2.37645   2.37720
 Alpha virt. eigenvalues --    2.38241   2.38419   2.38807   2.38881   2.39577
 Alpha virt. eigenvalues --    2.39731   2.40160   2.40307   2.40442   2.40918
 Alpha virt. eigenvalues --    2.41218   2.41300   2.41669   2.41737   2.41983
 Alpha virt. eigenvalues --    2.42194   2.42852   2.42934   2.43138   2.43436
 Alpha virt. eigenvalues --    2.44033   2.44121   2.44697   2.44864   2.44868
 Alpha virt. eigenvalues --    2.45060   2.45520   2.45625   2.46277   2.46339
 Alpha virt. eigenvalues --    2.46442   2.46542   2.46757   2.46860   2.47223
 Alpha virt. eigenvalues --    2.47419   2.47684   2.47931   2.49294   2.49421
 Alpha virt. eigenvalues --    2.49926   2.50058   2.50498   2.50537   2.51071
 Alpha virt. eigenvalues --    2.51338   2.51659   2.51843   2.52386   2.52474
 Alpha virt. eigenvalues --    2.52771   2.53248   2.53893   2.54017   2.54132
 Alpha virt. eigenvalues --    2.54302   2.54758   2.54848   2.55492   2.55709
 Alpha virt. eigenvalues --    2.57837   2.58126   2.58620   2.58960   2.60152
 Alpha virt. eigenvalues --    2.60373   2.60567   2.61006   2.61685   2.61869
 Alpha virt. eigenvalues --    2.62487   2.62492   2.62919   2.63178   2.63900
 Alpha virt. eigenvalues --    2.64235   2.64300   2.64446   2.65048   2.65149
 Alpha virt. eigenvalues --    2.65740   2.65938   2.66759   2.66854   2.66882
 Alpha virt. eigenvalues --    2.67130   2.67882   2.68036   2.68819   2.68857
 Alpha virt. eigenvalues --    2.68974   2.69095   2.69369   2.69652   2.69966
 Alpha virt. eigenvalues --    2.70181   2.70941   2.71133   2.71938   2.72001
 Alpha virt. eigenvalues --    2.72539   2.72601   2.72746   2.72804   2.73263
 Alpha virt. eigenvalues --    2.73308   2.73440   2.73518   2.74472   2.74547
 Alpha virt. eigenvalues --    2.74932   2.75102   2.76558   2.76566   2.77107
 Alpha virt. eigenvalues --    2.77186   2.77423   2.77645   2.78165   2.78315
 Alpha virt. eigenvalues --    2.78680   2.78723   2.79097   2.79207   2.80284
 Alpha virt. eigenvalues --    2.80305   2.80527   2.80738   2.81069   2.81183
 Alpha virt. eigenvalues --    2.81891   2.82036   2.82313   2.82372   2.83696
 Alpha virt. eigenvalues --    2.83740   2.83867   2.83946   2.84515   2.84549
 Alpha virt. eigenvalues --    2.84861   2.84903   2.85642   2.85712   2.86686
 Alpha virt. eigenvalues --    2.86951   2.87222   2.87529   2.88127   2.88254
 Alpha virt. eigenvalues --    2.88477   2.88651   2.88896   2.88901   2.90457
 Alpha virt. eigenvalues --    2.90713   2.91101   2.91170   2.93111   2.93375
 Alpha virt. eigenvalues --    2.93812   2.94167   2.94540   2.94582   2.95313
 Alpha virt. eigenvalues --    2.95554   2.95894   2.96118   2.96400   2.96411
 Alpha virt. eigenvalues --    2.96919   2.97102   2.97751   2.98045   2.98173
 Alpha virt. eigenvalues --    2.98336   2.98425   2.98563   2.98624   2.98820
 Alpha virt. eigenvalues --    2.98855   2.98949   2.99574   2.99808   2.99966
 Alpha virt. eigenvalues --    3.00065   3.00178   3.00358   3.00413   3.01061
 Alpha virt. eigenvalues --    3.01940   3.01972   3.01995   3.02179   3.02654
 Alpha virt. eigenvalues --    3.02853   3.02926   3.03303   3.03366   3.03796
 Alpha virt. eigenvalues --    3.04111   3.04153   3.04416   3.04465   3.04526
 Alpha virt. eigenvalues --    3.04749   3.05285   3.05369   3.06082   3.06191
 Alpha virt. eigenvalues --    3.06754   3.06996   3.07938   3.08129   3.09352
 Alpha virt. eigenvalues --    3.09359   3.09651   3.10402   3.10514   3.10805
 Alpha virt. eigenvalues --    3.11320   3.11480   3.11885   3.11899   3.12179
 Alpha virt. eigenvalues --    3.12374   3.13234   3.13624   3.13694   3.13710
 Alpha virt. eigenvalues --    3.14006   3.14522   3.15921   3.15984   3.17226
 Alpha virt. eigenvalues --    3.17546   3.17877   3.18060   3.19046   3.19103
 Alpha virt. eigenvalues --    3.22216   3.22637   3.23909   3.24468   3.24617
 Alpha virt. eigenvalues --    3.25221   3.26470   3.26686   3.27428   3.27584
 Alpha virt. eigenvalues --    3.29005   3.29261   3.31408   3.31487   3.33216
 Alpha virt. eigenvalues --    3.33387   3.40305   3.40523   3.42792   3.42828
 Alpha virt. eigenvalues --    3.48615   3.48724   3.49991   3.50315   3.50872
 Alpha virt. eigenvalues --    3.51443   3.56521   3.57027   3.59076   3.59360
 Alpha virt. eigenvalues --    3.62540   3.62797   3.66108   3.66165   3.67089
 Alpha virt. eigenvalues --    3.67584   3.73185   3.74055   3.75981   3.76711
          Condensed to atoms (all electrons):
 Mulliken charges:
               1
     1  Mg   0.838614
     2  C   -0.003297
     3  C   -0.094161
     4  C   -0.045774
     5  C   -0.063758
     6  N   -0.256804
     7  C   -0.052583
     8  C   -0.014018
     9  C   -0.087008
    10  C    0.046267
    11  C    0.104770
    12  C    0.053500
    13  C   -0.071542
    14  H    0.035059
    15  N   -0.433169
    16  C    0.168451
    17  C   -0.177052
    18  C   -0.003882
    19  C    0.148727
    20  C    0.110114
    21  C    0.012302
    22  O   -0.249486
    23  C    0.062450
    24  N   -0.341124
    25  C    0.041313
    26  C   -0.028227
    27  C   -0.024024
    28  C    0.074809
    29  C    0.076118
    30  C    0.035050
    31  C   -0.004604
    32  N   -0.310401
    33  C    0.080282
    34  C   -0.169720
    35  C    0.008195
    36  C    0.082828
    37  C    0.127347
    38  C    0.045863
    39  O   -0.188811
    40  C   -0.005241
    41  C    0.212902
    42  O   -0.257927
    43  O   -0.304499
    44  C    0.157986
    45  H   -0.017499
    46  H   -0.016646
    47  H   -0.041194
    48  H    0.000889
    49  H   -0.004042
    50  H    0.025488
    51  H    0.016629
    52  H    0.016757
    53  H    0.011287
    54  H    0.043511
    55  H    0.018116
    56  H    0.018190
    57  H    0.005895
    58  H    0.026995
    59  H    0.039776
    60  H    0.037458
    61  H    0.035739
    62  H    0.031587
    63  H    0.016692
    64  H    0.009613
    65  H    0.023393
    66  H    0.012502
    67  H    0.004926
    68  H    0.006679
    69  H    0.005011
    70  H    0.008738
    71  H    0.018832
    72  H    0.028559
    73  H    0.047328
    74  H    0.009466
    75  H    0.046099
    76  H    0.035275
    77  H    0.042990
    78  H    0.046446
    79  H    0.052683
    80  Mg   0.837941
    81  C   -0.016783
    82  C   -0.087485
    83  C   -0.045786
    84  C   -0.064973
    85  N   -0.254671
    86  C   -0.049383
    87  C   -0.015216
    88  C   -0.090536
    89  C    0.045807
    90  C    0.114209
    91  C    0.062469
    92  C   -0.077870
    93  H    0.034318
    94  N   -0.423520
    95  C    0.162879
    96  C   -0.174505
    97  C   -0.008182
    98  C    0.152258
    99  C    0.099386
   100  C    0.015314
   101  O   -0.253693
   102  C    0.061284
   103  N   -0.350049
   104  C    0.037615
   105  C   -0.019787
   106  C   -0.034839
   107  C    0.088943
   108  C    0.073737
   109  C    0.034806
   110  C   -0.007611
   111  N   -0.324095
   112  C    0.078508
   113  C   -0.163268
   114  C    0.002283
   115  C    0.096181
   116  C    0.131490
   117  C    0.042276
   118  O   -0.188107
   119  C    0.001018
   120  C    0.211187
   121  O   -0.251272
   122  O   -0.305350
   123  C    0.152131
   124  H   -0.018875
   125  H   -0.016109
   126  H   -0.040698
   127  H    0.000007
   128  H   -0.004388
   129  H    0.023065
   130  H    0.014842
   131  H    0.018436
   132  H    0.013611
   133  H    0.037306
   134  H    0.021591
   135  H    0.019607
   136  H    0.009205
   137  H    0.025826
   138  H    0.039459
   139  H    0.038052
   140  H    0.035895
   141  H    0.033936
   142  H    0.014092
   143  H    0.012487
   144  H    0.024512
   145  H    0.011539
   146  H    0.005774
   147  H    0.005945
   148  H    0.003603
   149  H    0.010728
   150  H    0.017723
   151  H    0.030282
   152  H    0.045780
   153  H    0.008328
   154  H    0.046902
   155  H    0.035636
   156  H    0.043820
   157  H    0.049752
   158  H    0.053272
 Sum of Mulliken charges =  -0.00000
 Mulliken charges with hydrogens summed into heavy atoms:
               1
     1  Mg   0.838614
     2  C   -0.003297
     3  C   -0.111660
     4  C   -0.062420
     5  C   -0.104952
     6  N   -0.256804
     7  C   -0.052583
     8  C   -0.013129
     9  C   -0.091051
    10  C    0.046267
    11  C    0.163645
    12  C    0.108298
    13  C   -0.000177
    15  N   -0.433169
    16  C    0.168451
    17  C   -0.177052
    18  C   -0.003882
    19  C    0.148727
    20  C    0.182780
    21  C    0.012302
    22  O   -0.249486
    23  C    0.167234
    24  N   -0.341124
    25  C    0.041313
    26  C   -0.011536
    27  C   -0.014412
    28  C    0.074809
    29  C    0.116939
    30  C    0.046740
    31  C    0.051525
    32  N   -0.310401
    33  C    0.080282
    34  C   -0.169720
    35  C    0.008195
    36  C    0.082828
    37  C    0.230241
    38  C    0.045863
    39  O   -0.188811
    40  C    0.030034
    41  C    0.212902
    42  O   -0.257927
    43  O   -0.304499
    44  C    0.300105
    80  Mg   0.837941
    81  C   -0.016783
    82  C   -0.106360
    83  C   -0.061895
    84  C   -0.105671
    85  N   -0.254671
    86  C   -0.049383
    87  C   -0.015209
    88  C   -0.094924
    89  C    0.045807
    90  C    0.170552
    91  C    0.113387
    92  C   -0.002354
    94  N   -0.423520
    95  C    0.162879
    96  C   -0.174505
    97  C   -0.008182
    98  C    0.152258
    99  C    0.173875
   100  C    0.015314
   101  O   -0.253693
   102  C    0.169167
   103  N   -0.350049
   104  C    0.037615
   105  C   -0.005694
   106  C   -0.022352
   107  C    0.088943
   108  C    0.115562
   109  C    0.044354
   110  C    0.051122
   111  N   -0.324095
   112  C    0.078508
   113  C   -0.163268
   114  C    0.002283
   115  C    0.096181
   116  C    0.232500
   117  C    0.042276
   118  O   -0.188107
   119  C    0.036654
   120  C    0.211187
   121  O   -0.251272
   122  O   -0.305350
   123  C    0.298976
 Electronic spatial extent (au):  <R**2>=         150231.2056
 Charge=             -0.0000 electrons
 Dipole moment (field-independent basis, Debye):
    X=             -4.6972    Y=              1.8082    Z=              5.6988  Tot=              7.6032
 Quadrupole moment (field-independent basis, Debye-Ang):
   XX=           -518.4296   YY=           -515.0602   ZZ=           -484.4794
   XY=            -26.5765   XZ=              6.1623   YZ=            -15.4429
 Traceless Quadrupole moment (field-independent basis, Debye-Ang):
   XX=            -12.4398   YY=             -9.0705   ZZ=             21.5103
   XY=            -26.5765   XZ=              6.1623   YZ=            -15.4429
 Octapole moment (field-independent basis, Debye-Ang**2):
  XXX=           -651.8633  YYY=            -17.5389  ZZZ=            187.2529  XYY=            320.4904
  XXY=            119.7095  XXZ=            371.8718  XZZ=           -319.3522  YZZ=           -148.3520
  YYZ=             20.1532  XYZ=           -307.5014
 Hexadecapole moment (field-independent basis, Debye-Ang**3):
 XXXX=        -140555.5192 YYYY=         -35975.9992 ZZZZ=         -29830.2033 XXXY=           -852.6758
 XXXZ=             45.4047 YYYX=          -2118.3419 YYYZ=            430.4874 ZZZX=           1220.3620
 ZZZY=          -1020.2502 XXYY=         -28691.1857 XXZZ=         -27416.9214 YYZZ=         -11185.4988
 XXYZ=           -490.2001 YYXZ=          -2009.0889 ZZXY=            329.6553
 N-N= 1.424594305064D+04 E-N=-3.797285279121D+04  KE= 4.028801931124D+03
 Leave Link  601 at Sat Sep  4 11:27:40 2021, MaxMem= 23488102400 cpu:              16.3 elap:               0.8
 (Enter /sw/apps/gaussian-16.0/g16/l9999.exe)
 1\1\GINC-BP1-COMPUTE00084\SP\RCAM-B3LYP TD-FC\def2SVP\C68H72Mg2N8O8\OF
 15641\04-Sep-2021\0\\#p cam-b3lyp/Def2SVP td=(nstates=5)\\TDDFT excite
 d states in gaussian\\0,1\Mg,0,0.,0.,0.\C,0,-0.217,-2.218,2.801\C,0,-1
 .255,2.442,2.026\C,0,-0.245,1.85,-2.564\C,0,0.146,-2.824,-2.037\N,0,-0
 .617,-0.009,2.126\C,0,-0.594,-0.908,3.105\C,0,-0.936,-0.309,4.502\C,0,
 -1.773,0.964,4.032\C,0,-1.155,1.168,2.66\C,0,-3.263,0.685,3.863\C,0,0.
 345,0.11,5.299\C,0,0.124,0.397,6.787\H,0,1.168,0.033,7.733\N,0,-0.185,
 1.961,-0.152\C,0,-0.703,2.8,0.777\C,0,-0.62,4.156,0.193\C,0,-0.187,4.0
 15,-1.225\C,0,-0.214,2.583,-1.38\C,0,-0.887,5.406,0.974\C,0,0.181,5.01
 3,-2.277\O,0,0.303,4.69,-3.508\C,0,0.31,6.414,-1.837\N,0,-0.265,-0.413
 ,-2.029\C,0,-0.279,0.569,-2.937\C,0,-0.196,0.024,-4.332\C,0,0.124,-1.5
 33,-4.18\C,0,0.086,-1.632,-2.635\C,0,-1.451,0.205,-5.197\C,0,1.373,-2.
 07,-4.923\C,0,2.626,-1.49,-4.306\N,0,0.15,-2.144,0.303\C,0,0.173,-3.13
 6,-0.688\C,0,0.173,-4.438,0.004\C,0,0.133,-4.111,1.358\C,0,0.083,-2.69
 5,1.502\C,0,0.149,-5.715,-0.623\C,0,0.096,-4.629,2.716\O,0,0.208,-5.74
 7,3.221\C,0,-0.255,-3.428,3.701\C,0,0.717,-3.482,4.848\O,0,1.931,-3.25
 5,4.669\O,0,0.038,-3.556,6.003\C,0,0.943,-3.583,7.183\H,0,-1.859,3.22,
 2.497\H,0,-0.218,2.453,-3.474\H,0,0.276,-3.747,-2.605\H,0,-1.554,-0.94
 9,5.132\H,0,-1.585,1.831,4.665\H,0,-3.484,-0.377,3.969\H,0,-3.511,1.02
 7,2.858\H,0,-3.852,1.301,4.543\H,0,0.669,1.096,4.966\H,0,1.13,-0.639,5
 .189\H,0,-0.844,0.026,7.125\H,0,0.062,1.477,6.921\H,0,-1.344,5.186,1.9
 38\H,0,-1.651,5.963,0.432\H,0,0.007,6.02,1.084\H,0,-0.635,6.744,-1.405
 \H,0,0.665,6.97,-2.704\H,0,1.048,6.466,-1.036\H,0,0.608,0.501,-4.891\H
 ,0,-0.692,-2.156,-4.547\H,0,-1.267,0.74,-6.129\H,0,-2.204,0.714,-4.596
 \H,0,-1.967,-0.72,-5.453\H,0,1.356,-1.759,-5.967\H,0,1.452,-3.157,-4.9
 02\H,0,2.714,-0.522,-4.798\H,0,3.487,-2.121,-4.529\H,0,2.495,-1.303,-3
 .24\H,0,0.867,-6.333,-0.084\H,0,0.404,-5.642,-1.68\H,0,-0.891,-5.999,-
 0.463\H,0,-1.283,-3.581,4.028\H,0,0.698,-4.478,7.755\H,0,0.833,-2.619,
 7.68\H,0,2.,-3.754,6.976\Mg,0,13.14575,1.17862,1.00461\C,0,13.33617,-2
 .17401,-0.26136\C,0,12.15702,-0.16096,3.98162\C,0,12.53494,4.12411,2.0
 138\C,0,13.02935,2.27259,-2.30226\N,0,12.8257,-0.91168,1.65306\C,0,12.
 9889,-2.10593,1.104\C,0,12.84593,-3.2936,2.09322\C,0,11.93208,-2.57508
 ,3.20114\C,0,12.35113,-1.12609,2.96135\C,0,10.44297,-2.69402,2.92233\C
 ,0,14.22543,-3.74356,2.69031\C,0,14.20226,-5.08819,3.42051\H,0,15.3762
 ,-5.95162,3.32647\N,0,12.92597,1.8856,2.84593\C,0,12.53941,1.19789,3.9
 4088\C,0,12.5136,2.17432,5.04091\C,0,12.75693,3.52794,4.4724\C,0,12.72
 74,3.22775,3.05498\C,0,12.35389,1.77558,6.47929\C,0,12.96703,4.87251,5
 .10025\O,0,12.92315,5.95197,4.41055\C,0,13.13274,4.89532,6.5609\N,0,12
 .61527,2.92721,0.01297\C,0,12.46061,4.08245,0.68336\C,0,12.35236,5.252
 95,-0.26458\C,0,12.71042,4.66974,-1.71\C,0,12.88428,3.17902,-1.34544\C
 ,0,10.98908,5.94218,-0.31759\C,0,13.85098,5.3774,-2.49167\C,0,15.17264
 ,5.15129,-1.79347\N,0,13.36008,0.26856,-0.94318\C,0,13.24949,0.90502,-
 2.19888\C,0,13.3579,-0.1464,-3.23095\C,0,13.50212,-1.33391,-2.4978\C,0
 ,13.46455,-1.04551,-1.10679\C,0,13.27015,0.05605,-4.63716\C,0,13.66693
 ,-2.76711,-2.58425\O,0,13.85081,-3.56664,-3.50114\C,0,13.43996,-3.3899
 4,-1.13962\C,0,14.56061,-4.35608,-0.86903\O,0,15.73141,-3.95134,-0.759
 36\O,0,14.04127,-5.5607,-0.56981\C,0,15.11365,-6.55034,-0.2827\H,0,11.
 6235,-0.46026,4.8842\H,0,12.43047,5.17143,2.30652\H,0,13.10075,2.54413
 ,-3.35764\H,0,12.3326,-4.15939,1.69237\H,0,12.20653,-2.89032,4.20447\H
 ,0,10.24792,-3.14208,1.95935\H,0,10.05598,-1.68397,2.95502\H,0,9.94892
 ,-3.23254,3.73611\H,0,14.48751,-3.0809,3.52514\H,0,14.98286,-3.75778,1
 .93088\H,0,13.28886,-5.65696,3.208\H,0,14.15582,-4.89848,4.49562\H,0,1
 2.02977,0.73183,6.57376\H,0,11.51731,2.35724,6.88136\H,0,13.24586,1.98
 122,7.07492\H,0,12.25559,4.45676,7.03075\H,0,13.36032,5.93287,6.81303\
 H,0,13.9837,4.25816,6.82645\H,0,13.06848,6.02452,-0.00969\H,0,11.85296
 ,4.72743,-2.3965\H,0,11.03748,7.0235,-0.08847\H,0,10.32426,5.43707,0.3
 7046\H,0,10.45925,5.8456,-1.26372\H,0,13.6876,6.45782,-2.5045\H,0,13.9
 3412,5.052,-3.52327\H,0,15.17663,5.92217,-1.01706\H,0,16.00021,5.28543
 ,-2.48713\H,0,15.19069,4.17722,-1.29094\H,0,14.05387,-0.53896,-5.08689
 \H,0,13.37154,1.10834,-4.89444\H,0,12.25984,-0.317,-4.82525\H,0,12.466
 9,-3.88261,-1.14447\H,0,14.95541,-7.39759,-0.9571\H,0,15.05089,-6.7522
 8,0.80313\H,0,16.13169,-6.27167,-0.52845\\Version=ES64L-G16RevA.03\Sta
 te=1-A\HF=-4069.8120216\RMSD=4.565e-09\PG=C01 [X(C68H72Mg2N8O8)]\\@


 FAULTILY FAULTLESS, ICILY REGULAR, SPLENDIDLY NULL...
           MAUDE BY TENNYSON
 Job cpu time:       0 days 11 hours 38 minutes 54.2 seconds.
 Elapsed time:       0 days  0 hours 29 minutes 44.0 seconds.
 File lengths (MBytes):  RWF=  13225 Int=      0 D2E=      0 Chk=    574 Scr=      1
 Normal termination of Gaussian 16 at Sat Sep  4 11:27:41 2021.
