 Entering Gaussian System, Link 0=g16
 Initial command:
 /sw/apps/gaussian-16.0/g16/l1.exe "/tmp/Gau-214320.inp" -scrdir="/tmp/"
 Entering Link 1 = /sw/apps/gaussian-16.0/g16/l1.exe PID=    214322.
  
 Copyright (c) 1988,1990,1992,1993,1995,1998,2003,2009,2016,
            Gaussian, Inc.  All Rights Reserved.
  
 This is part of the Gaussian(R) 16 program.  It is based on
 the Gaussian(R) 09 system (copyright 2009, Gaussian, Inc.),
 the Gaussian(R) 03 system (copyright 2003, Gaussian, Inc.),
 the Gaussian(R) 98 system (copyright 1998, Gaussian, Inc.),
 the Gaussian(R) 94 system (copyright 1995, Gaussian, Inc.),
 the Gaussian 92(TM) system (copyright 1992, Gaussian, Inc.),
 the Gaussian 90(TM) system (copyright 1990, Gaussian, Inc.),
 the Gaussian 88(TM) system (copyright 1988, Gaussian, Inc.),
 the Gaussian 86(TM) system (copyright 1986, Carnegie Mellon
 University), and the Gaussian 82(TM) system (copyright 1983,
 Carnegie Mellon University). Gaussian is a federally registered
 trademark of Gaussian, Inc.
  
 This software contains proprietary and confidential information,
 including trade secrets, belonging to Gaussian, Inc.
  
 This software is provided under written license and may be
 used, copied, transmitted, or stored only in accord with that
 written license.
  
 The following legend is applicable only to US Government
 contracts under FAR:
  
                    RESTRICTED RIGHTS LEGEND
  
 Use, reproduction and disclosure by the US Government is
 subject to restrictions as set forth in subparagraphs (a)
 and (c) of the Commercial Computer Software - Restricted
 Rights clause in FAR 52.227-19.
  
 Gaussian, Inc.
 340 Quinnipiac St., Bldg. 40, Wallingford CT 06492
  
  
 ---------------------------------------------------------------
 Warning -- This program may not be used in any manner that
 competes with the business of Gaussian, Inc. or will provide
 assistance to any competitor of Gaussian, Inc.  The licensee
 of this program is prohibited from giving any competitor of
 Gaussian, Inc. access to this program.  By using this program,
 the user acknowledges that Gaussian, Inc. is engaged in the
 business of creating and licensing software in the field of
 computational chemistry and represents and warrants to the
 licensee that it is not a competitor of Gaussian, Inc. and that
 it will not use this program in any manner prohibited above.
 ---------------------------------------------------------------
  

 Cite this work as:
 Gaussian 16, Revision A.03,
 M. J. Frisch, G. W. Trucks, H. B. Schlegel, G. E. Scuseria, 
 M. A. Robb, J. R. Cheeseman, G. Scalmani, V. Barone, 
 G. A. Petersson, H. Nakatsuji, X. Li, M. Caricato, A. V. Marenich, 
 J. Bloino, B. G. Janesko, R. Gomperts, B. Mennucci, H. P. Hratchian, 
 J. V. Ortiz, A. F. Izmaylov, J. L. Sonnenberg, D. Williams-Young, 
 F. Ding, F. Lipparini, F. Egidi, J. Goings, B. Peng, A. Petrone, 
 T. Henderson, D. Ranasinghe, V. G. Zakrzewski, J. Gao, N. Rega, 
 G. Zheng, W. Liang, M. Hada, M. Ehara, K. Toyota, R. Fukuda, 
 J. Hasegawa, M. Ishida, T. Nakajima, Y. Honda, O. Kitao, H. Nakai, 
 T. Vreven, K. Throssell, J. A. Montgomery, Jr., J. E. Peralta, 
 F. Ogliaro, M. J. Bearpark, J. J. Heyd, E. N. Brothers, K. N. Kudin, 
 V. N. Staroverov, T. A. Keith, R. Kobayashi, J. Normand, 
 K. Raghavachari, A. P. Rendell, J. C. Burant, S. S. Iyengar, 
 J. Tomasi, M. Cossi, J. M. Millam, M. Klene, C. Adamo, R. Cammi, 
 J. W. Ochterski, R. L. Martin, K. Morokuma, O. Farkas, 
 J. B. Foresman, and D. J. Fox, Gaussian, Inc., Wallingford CT, 2016.
 
 ******************************************
 Gaussian 16:  ES64L-G16RevA.03 25-Dec-2016
                 3-Sep-2021 
 ******************************************
 %nproc=24
 Will use up to   24 processors via shared memory.
 %mem=175gb
 -----------------------------------
 #p cam-b3lyp/Def2SVP td=(nstates=5)
 -----------------------------------
 1/38=1,172=1/1;
 2/12=2,17=6,18=5,40=1/2;
 3/5=43,7=101,11=9,25=1,30=1,74=-40/1,2,3,8;
 4//1;
 5/5=2,38=5/2;
 8/6=1,10=1,108=5/1;
 9/41=5,42=1,70=2/14;
 6/7=2,8=2,9=2,10=2/1;
 99/5=1,9=1/99;
 Leave Link    1 at Fri Sep  3 12:49:25 2021, MaxMem= 23488102400 cpu:               0.7 elap:               0.0
 (Enter /sw/apps/gaussian-16.0/g16/l101.exe)
 --------------------------------
 TDDFT excited states in gaussian
 --------------------------------
 Symbolic Z-matrix:
 Charge =  0 Multiplicity = 1
 Mg                    0.        0.        0. 
 C                    -0.217    -2.218     2.801 
 C                    -1.255     2.442     2.026 
 C                    -0.245     1.85     -2.564 
 C                     0.146    -2.824    -2.037 
 N                    -0.617    -0.009     2.126 
 C                    -0.594    -0.908     3.105 
 C                    -0.936    -0.309     4.502 
 C                    -1.773     0.964     4.032 
 C                    -1.155     1.168     2.66 
 C                    -3.263     0.685     3.863 
 C                     0.345     0.11      5.299 
 C                     0.124     0.397     6.787 
 H                     1.168     0.033     7.733 
 N                    -0.185     1.961    -0.152 
 C                    -0.703     2.8       0.777 
 C                    -0.62      4.156     0.193 
 C                    -0.187     4.015    -1.225 
 C                    -0.214     2.583    -1.38 
 C                    -0.887     5.406     0.974 
 C                     0.181     5.013    -2.277 
 O                     0.303     4.69     -3.508 
 C                     0.31      6.414    -1.837 
 N                    -0.265    -0.413    -2.029 
 C                    -0.279     0.569    -2.937 
 C                    -0.196     0.024    -4.332 
 C                     0.124    -1.533    -4.18 
 C                     0.086    -1.632    -2.635 
 C                    -1.451     0.205    -5.197 
 C                     1.373    -2.07     -4.923 
 C                     2.626    -1.49     -4.306 
 N                     0.15     -2.144     0.303 
 C                     0.173    -3.136    -0.688 
 C                     0.173    -4.438     0.004 
 C                     0.133    -4.111     1.358 
 C                     0.083    -2.695     1.502 
 C                     0.149    -5.715    -0.623 
 C                     0.096    -4.629     2.716 
 O                     0.208    -5.747     3.221 
 C                    -0.255    -3.428     3.701 
 C                     0.717    -3.482     4.848 
 O                     1.931    -3.255     4.669 
 O                     0.038    -3.556     6.003 
 C                     0.943    -3.583     7.183 
 H                    -1.859     3.22      2.497 
 H                    -0.218     2.453    -3.474 
 H                     0.276    -3.747    -2.605 
 H                    -1.554    -0.949     5.132 
 H                    -1.585     1.831     4.665 
 H                    -3.484    -0.377     3.969 
 H                    -3.511     1.027     2.858 
 H                    -3.852     1.301     4.543 
 H                     0.669     1.096     4.966 
 H                     1.13     -0.639     5.189 
 H                    -0.844     0.026     7.125 
 H                     0.062     1.477     6.921 
 H                    -1.344     5.186     1.938 
 H                    -1.651     5.963     0.432 
 H                     0.007     6.02      1.084 
 H                    -0.635     6.744    -1.405 
 H                     0.665     6.97     -2.704 
 H                     1.048     6.466    -1.036 
 H                     0.608     0.501    -4.891 
 H                    -0.692    -2.156    -4.547 
 H                    -1.267     0.74     -6.129 
 H                    -2.204     0.714    -4.596 
 H                    -1.967    -0.72     -5.453 
 H                     1.356    -1.759    -5.967 
 H                     1.452    -3.157    -4.902 
 H                     2.714    -0.522    -4.798 
 H                     3.487    -2.121    -4.529 
 H                     2.495    -1.303    -3.24 
 H                     0.867    -6.333    -0.084 
 H                     0.404    -5.642    -1.68 
 H                    -0.891    -5.999    -0.463 
 H                    -1.283    -3.581     4.028 
 H                     0.698    -4.478     7.755 
 H                     0.833    -2.619     7.68 
 H                     2.       -3.754     6.976 
 Mg                    7.89124   0.70445   0.59446 
 C                     7.81996   2.01041  -2.74747 
 C                     7.38921  -2.38473  -0.76182 
 C                     7.49947  -0.41475   3.53747 
 C                     7.2453    3.93779   1.72317 
 N                     7.6521    0.02816  -1.49784 
 C                     7.70451   0.6059   -2.68856 
 C                     7.70971  -0.38411  -3.88414 
 C                     7.00256  -1.63362  -3.16475 
 C                     7.39749  -1.33897  -1.71911 
 C                     5.48624  -1.6044   -3.26108 
 C                     9.16221  -0.74095  -4.35839 
 C                     9.24035  -1.45446  -5.70988 
 H                     10.36965  -1.16059  -6.58784 
 N                     7.98973  -1.15325   1.28569 
 C                     7.7796   -2.29174   0.59217 
 C                     7.95064  -3.38839   1.55771 
 C                     8.11649  -2.79793   2.91365 
 C                     7.84834  -1.40269   2.62818 
 C                     8.02534  -4.83022   1.14665 
 C                     8.44746  -3.3927    4.24891 
 O                     8.30598  -2.72818   5.33575 
 C                     8.85294  -4.80586   4.25478 
 N                     7.22985   1.58096   2.35986 
 C                     7.20536   0.88528   3.51023 
 C                     6.95901   1.79311   4.69156 
 C                     7.06424   3.28234   4.11825 
 C                     7.274     2.96317   2.62175 
 C                     5.61609   1.61423   5.39934 
 C                     8.07003   4.23663   4.81854 
 C                     9.48553   3.76876   4.56786 
 N                     7.76677   2.66783  -0.29868 
 C                     7.45929   3.8829    0.35182 
 C                     7.37984   4.92679  -0.69049 
 C                     7.62586   4.23687  -1.88714 
 C                     7.8233    2.85666  -1.61231 
 C                     7.06356   6.29743  -0.47271 
 C                     7.7529    4.36052  -3.32146 
 O                     7.77066   5.30137  -4.11407 
 C                     7.75898   2.90312  -3.95575 
 C                     8.89457   2.82938  -4.93938 
 O                     10.07322   2.91202  -4.55135 
 O                     8.41418   2.45761  -6.13995 
 C                     9.50455   2.35976  -7.14659 
 H                     7.00807  -3.36088  -1.06309 
 H                     7.46037  -0.72883   4.58308 
 H                     7.14504   4.98829   2.00437 
 H                     7.12439  -0.06713  -4.73895 
 H                     7.43459  -2.57516  -3.49371 
 H                     5.1279   -0.68359  -3.69677 
 H                     5.12496  -1.70856  -2.24635 
 H                     5.1258   -2.48458  -3.80117 
 H                     9.5686   -1.52595  -3.70772 
 H                     9.7832    0.13353  -4.375 
 H                     8.29608  -1.39178  -6.26429 
 H                     9.3753   -2.52386  -5.53042 
 H                     7.70594  -4.96899   0.10639 
 H                     7.27552  -5.36979   1.73528 
 H                     9.00653  -5.27145   1.3344 
 H                     8.05928  -5.41109   3.8232 
 H                     9.13442  -5.02483   5.28662 
 H                     9.72661  -4.92185   3.60373 
 H                     7.71875   1.65439   5.45094 
 H                     6.10593   3.81686   4.19424 
 H                     5.71771   1.38792   6.47755 
 H                     5.06692   0.82951   4.8962 
 H                     4.93561   2.46025   5.31935 
 H                     7.92275   4.21385   5.90111 
 H                     7.97646   5.27023   4.50248 
 H                     9.62936   2.99779   5.33075 
 H                     10.18877   4.58885   4.69799 
 H                     9.57211   3.28372   3.58862 
 H                     7.75316   6.87534  -1.07352 
 H                     7.1365    6.55978   0.58067 
 H                     6.03066   6.31846  -0.8304 
 H                     6.79138   2.75054  -4.43538 
 H                     9.22438   3.00518  -7.98482 
 H                     9.6194    1.28013  -7.35862 
 H                     10.47188   2.76858  -6.87901 
 
 ITRead=  0  0  0  0  0  0  0  0  0  0  0  0  0  0  0  0  0  0  0  0
 ITRead=  0  0  0  0  0  0  0  0  0  0  0  0  0  0  0  0  0  0  0  0
 ITRead=  0  0  0  0  0  0  0  0  0  0  0  0  0  0  0  0  0  0  0  0
 ITRead=  0  0  0  0  0  0  0  0  0  0  0  0  0  0  0  0  0  0  0  0
 ITRead=  0  0  0  0  0  0  0  0  0  0  0  0  0  0  0  0  0  0  0  0
 ITRead=  0  0  0  0  0  0  0  0  0  0  0  0  0  0  0  0  0  0  0  0
 ITRead=  0  0  0  0  0  0  0  0  0  0  0  0  0  0  0  0  0  0  0  0
 ITRead=  0  0  0  0  0  0  0  0  0  0  0  0  0  0  0  0  0  0
 MicOpt= -1 -1 -1 -1 -1 -1 -1 -1 -1 -1 -1 -1 -1 -1 -1 -1 -1 -1 -1 -1
 MicOpt= -1 -1 -1 -1 -1 -1 -1 -1 -1 -1 -1 -1 -1 -1 -1 -1 -1 -1 -1 -1
 MicOpt= -1 -1 -1 -1 -1 -1 -1 -1 -1 -1 -1 -1 -1 -1 -1 -1 -1 -1 -1 -1
 MicOpt= -1 -1 -1 -1 -1 -1 -1 -1 -1 -1 -1 -1 -1 -1 -1 -1 -1 -1 -1 -1
 MicOpt= -1 -1 -1 -1 -1 -1 -1 -1 -1 -1 -1 -1 -1 -1 -1 -1 -1 -1 -1 -1
 MicOpt= -1 -1 -1 -1 -1 -1 -1 -1 -1 -1 -1 -1 -1 -1 -1 -1 -1 -1 -1 -1
 MicOpt= -1 -1 -1 -1 -1 -1 -1 -1 -1 -1 -1 -1 -1 -1 -1 -1 -1 -1 -1 -1
 MicOpt= -1 -1 -1 -1 -1 -1 -1 -1 -1 -1 -1 -1 -1 -1 -1 -1 -1 -1
 NAtoms=    158 NQM=      158 NQMF=       0 NMMI=      0 NMMIF=      0
                NMic=       0 NMicF=      0.
                    Isotopes and Nuclear Properties:
 (Nuclear quadrupole moments (NQMom) in fm**2, nuclear magnetic moments (NMagM)
  in nuclear magnetons)

  Atom         1           2           3           4           5           6           7           8           9          10
 IAtWgt=          24          12          12          12          12          14          12          12          12          12
 AtmWgt=  23.9850450  12.0000000  12.0000000  12.0000000  12.0000000  14.0030740  12.0000000  12.0000000  12.0000000  12.0000000
 NucSpn=           0           0           0           0           0           2           0           0           0           0
 AtZEff=  -0.0000000  -0.0000000  -0.0000000  -0.0000000  -0.0000000  -0.0000000  -0.0000000  -0.0000000  -0.0000000  -0.0000000
 NQMom=    0.0000000   0.0000000   0.0000000   0.0000000   0.0000000   2.0440000   0.0000000   0.0000000   0.0000000   0.0000000
 NMagM=    0.0000000   0.0000000   0.0000000   0.0000000   0.0000000   0.4037610   0.0000000   0.0000000   0.0000000   0.0000000
 AtZNuc=  12.0000000   6.0000000   6.0000000   6.0000000   6.0000000   7.0000000   6.0000000   6.0000000   6.0000000   6.0000000

  Atom        11          12          13          14          15          16          17          18          19          20
 IAtWgt=          12          12          12           1          14          12          12          12          12          12
 AtmWgt=  12.0000000  12.0000000  12.0000000   1.0078250  14.0030740  12.0000000  12.0000000  12.0000000  12.0000000  12.0000000
 NucSpn=           0           0           0           1           2           0           0           0           0           0
 AtZEff=  -0.0000000  -0.0000000  -0.0000000  -0.0000000  -0.0000000  -0.0000000  -0.0000000  -0.0000000  -0.0000000  -0.0000000
 NQMom=    0.0000000   0.0000000   0.0000000   0.0000000   2.0440000   0.0000000   0.0000000   0.0000000   0.0000000   0.0000000
 NMagM=    0.0000000   0.0000000   0.0000000   2.7928460   0.4037610   0.0000000   0.0000000   0.0000000   0.0000000   0.0000000
 AtZNuc=   6.0000000   6.0000000   6.0000000   1.0000000   7.0000000   6.0000000   6.0000000   6.0000000   6.0000000   6.0000000

  Atom        21          22          23          24          25          26          27          28          29          30
 IAtWgt=          12          16          12          14          12          12          12          12          12          12
 AtmWgt=  12.0000000  15.9949146  12.0000000  14.0030740  12.0000000  12.0000000  12.0000000  12.0000000  12.0000000  12.0000000
 NucSpn=           0           0           0           2           0           0           0           0           0           0
 AtZEff=  -0.0000000  -0.0000000  -0.0000000  -0.0000000  -0.0000000  -0.0000000  -0.0000000  -0.0000000  -0.0000000  -0.0000000
 NQMom=    0.0000000   0.0000000   0.0000000   2.0440000   0.0000000   0.0000000   0.0000000   0.0000000   0.0000000   0.0000000
 NMagM=    0.0000000   0.0000000   0.0000000   0.4037610   0.0000000   0.0000000   0.0000000   0.0000000   0.0000000   0.0000000
 AtZNuc=   6.0000000   8.0000000   6.0000000   7.0000000   6.0000000   6.0000000   6.0000000   6.0000000   6.0000000   6.0000000

  Atom        31          32          33          34          35          36          37          38          39          40
 IAtWgt=          12          14          12          12          12          12          12          12          16          12
 AtmWgt=  12.0000000  14.0030740  12.0000000  12.0000000  12.0000000  12.0000000  12.0000000  12.0000000  15.9949146  12.0000000
 NucSpn=           0           2           0           0           0           0           0           0           0           0
 AtZEff=  -0.0000000  -0.0000000  -0.0000000  -0.0000000  -0.0000000  -0.0000000  -0.0000000  -0.0000000  -0.0000000  -0.0000000
 NQMom=    0.0000000   2.0440000   0.0000000   0.0000000   0.0000000   0.0000000   0.0000000   0.0000000   0.0000000   0.0000000
 NMagM=    0.0000000   0.4037610   0.0000000   0.0000000   0.0000000   0.0000000   0.0000000   0.0000000   0.0000000   0.0000000
 AtZNuc=   6.0000000   7.0000000   6.0000000   6.0000000   6.0000000   6.0000000   6.0000000   6.0000000   8.0000000   6.0000000

  Atom        41          42          43          44          45          46          47          48          49          50
 IAtWgt=          12          16          16          12           1           1           1           1           1           1
 AtmWgt=  12.0000000  15.9949146  15.9949146  12.0000000   1.0078250   1.0078250   1.0078250   1.0078250   1.0078250   1.0078250
 NucSpn=           0           0           0           0           1           1           1           1           1           1
 AtZEff=  -0.0000000  -0.0000000  -0.0000000  -0.0000000  -0.0000000  -0.0000000  -0.0000000  -0.0000000  -0.0000000  -0.0000000
 NQMom=    0.0000000   0.0000000   0.0000000   0.0000000   0.0000000   0.0000000   0.0000000   0.0000000   0.0000000   0.0000000
 NMagM=    0.0000000   0.0000000   0.0000000   0.0000000   2.7928460   2.7928460   2.7928460   2.7928460   2.7928460   2.7928460
 AtZNuc=   6.0000000   8.0000000   8.0000000   6.0000000   1.0000000   1.0000000   1.0000000   1.0000000   1.0000000   1.0000000

  Atom        51          52          53          54          55          56          57          58          59          60
 IAtWgt=           1           1           1           1           1           1           1           1           1           1
 AtmWgt=   1.0078250   1.0078250   1.0078250   1.0078250   1.0078250   1.0078250   1.0078250   1.0078250   1.0078250   1.0078250
 NucSpn=           1           1           1           1           1           1           1           1           1           1
 AtZEff=  -0.0000000  -0.0000000  -0.0000000  -0.0000000  -0.0000000  -0.0000000  -0.0000000  -0.0000000  -0.0000000  -0.0000000
 NQMom=    0.0000000   0.0000000   0.0000000   0.0000000   0.0000000   0.0000000   0.0000000   0.0000000   0.0000000   0.0000000
 NMagM=    2.7928460   2.7928460   2.7928460   2.7928460   2.7928460   2.7928460   2.7928460   2.7928460   2.7928460   2.7928460
 AtZNuc=   1.0000000   1.0000000   1.0000000   1.0000000   1.0000000   1.0000000   1.0000000   1.0000000   1.0000000   1.0000000

  Atom        61          62          63          64          65          66          67          68          69          70
 IAtWgt=           1           1           1           1           1           1           1           1           1           1
 AtmWgt=   1.0078250   1.0078250   1.0078250   1.0078250   1.0078250   1.0078250   1.0078250   1.0078250   1.0078250   1.0078250
 NucSpn=           1           1           1           1           1           1           1           1           1           1
 AtZEff=  -0.0000000  -0.0000000  -0.0000000  -0.0000000  -0.0000000  -0.0000000  -0.0000000  -0.0000000  -0.0000000  -0.0000000
 NQMom=    0.0000000   0.0000000   0.0000000   0.0000000   0.0000000   0.0000000   0.0000000   0.0000000   0.0000000   0.0000000
 NMagM=    2.7928460   2.7928460   2.7928460   2.7928460   2.7928460   2.7928460   2.7928460   2.7928460   2.7928460   2.7928460
 AtZNuc=   1.0000000   1.0000000   1.0000000   1.0000000   1.0000000   1.0000000   1.0000000   1.0000000   1.0000000   1.0000000

  Atom        71          72          73          74          75          76          77          78          79          80
 IAtWgt=           1           1           1           1           1           1           1           1           1          24
 AtmWgt=   1.0078250   1.0078250   1.0078250   1.0078250   1.0078250   1.0078250   1.0078250   1.0078250   1.0078250  23.9850450
 NucSpn=           1           1           1           1           1           1           1           1           1           0
 AtZEff=  -0.0000000  -0.0000000  -0.0000000  -0.0000000  -0.0000000  -0.0000000  -0.0000000  -0.0000000  -0.0000000  -0.0000000
 NQMom=    0.0000000   0.0000000   0.0000000   0.0000000   0.0000000   0.0000000   0.0000000   0.0000000   0.0000000   0.0000000
 NMagM=    2.7928460   2.7928460   2.7928460   2.7928460   2.7928460   2.7928460   2.7928460   2.7928460   2.7928460   0.0000000
 AtZNuc=   1.0000000   1.0000000   1.0000000   1.0000000   1.0000000   1.0000000   1.0000000   1.0000000   1.0000000  12.0000000

  Atom        81          82          83          84          85          86          87          88          89          90
 IAtWgt=          12          12          12          12          14          12          12          12          12          12
 AtmWgt=  12.0000000  12.0000000  12.0000000  12.0000000  14.0030740  12.0000000  12.0000000  12.0000000  12.0000000  12.0000000
 NucSpn=           0           0           0           0           2           0           0           0           0           0
 AtZEff=  -0.0000000  -0.0000000  -0.0000000  -0.0000000  -0.0000000  -0.0000000  -0.0000000  -0.0000000  -0.0000000  -0.0000000
 NQMom=    0.0000000   0.0000000   0.0000000   0.0000000   2.0440000   0.0000000   0.0000000   0.0000000   0.0000000   0.0000000
 NMagM=    0.0000000   0.0000000   0.0000000   0.0000000   0.4037610   0.0000000   0.0000000   0.0000000   0.0000000   0.0000000
 AtZNuc=   6.0000000   6.0000000   6.0000000   6.0000000   7.0000000   6.0000000   6.0000000   6.0000000   6.0000000   6.0000000

  Atom        91          92          93          94          95          96          97          98          99         100
 IAtWgt=          12          12           1          14          12          12          12          12          12          12
 AtmWgt=  12.0000000  12.0000000   1.0078250  14.0030740  12.0000000  12.0000000  12.0000000  12.0000000  12.0000000  12.0000000
 NucSpn=           0           0           1           2           0           0           0           0           0           0
 AtZEff=  -0.0000000  -0.0000000  -0.0000000  -0.0000000  -0.0000000  -0.0000000  -0.0000000  -0.0000000  -0.0000000  -0.0000000
 NQMom=    0.0000000   0.0000000   0.0000000   2.0440000   0.0000000   0.0000000   0.0000000   0.0000000   0.0000000   0.0000000
 NMagM=    0.0000000   0.0000000   2.7928460   0.4037610   0.0000000   0.0000000   0.0000000   0.0000000   0.0000000   0.0000000
 AtZNuc=   6.0000000   6.0000000   1.0000000   7.0000000   6.0000000   6.0000000   6.0000000   6.0000000   6.0000000   6.0000000

  Atom       101         102         103         104         105         106         107         108         109         110
 IAtWgt=          16          12          14          12          12          12          12          12          12          12
 AtmWgt=  15.9949146  12.0000000  14.0030740  12.0000000  12.0000000  12.0000000  12.0000000  12.0000000  12.0000000  12.0000000
 NucSpn=           0           0           2           0           0           0           0           0           0           0
 AtZEff=  -0.0000000  -0.0000000  -0.0000000  -0.0000000  -0.0000000  -0.0000000  -0.0000000  -0.0000000  -0.0000000  -0.0000000
 NQMom=    0.0000000   0.0000000   2.0440000   0.0000000   0.0000000   0.0000000   0.0000000   0.0000000   0.0000000   0.0000000
 NMagM=    0.0000000   0.0000000   0.4037610   0.0000000   0.0000000   0.0000000   0.0000000   0.0000000   0.0000000   0.0000000
 AtZNuc=   8.0000000   6.0000000   7.0000000   6.0000000   6.0000000   6.0000000   6.0000000   6.0000000   6.0000000   6.0000000

  Atom       111         112         113         114         115         116         117         118         119         120
 IAtWgt=          14          12          12          12          12          12          12          16          12          12
 AtmWgt=  14.0030740  12.0000000  12.0000000  12.0000000  12.0000000  12.0000000  12.0000000  15.9949146  12.0000000  12.0000000
 NucSpn=           2           0           0           0           0           0           0           0           0           0
 AtZEff=  -0.0000000  -0.0000000  -0.0000000  -0.0000000  -0.0000000  -0.0000000  -0.0000000  -0.0000000  -0.0000000  -0.0000000
 NQMom=    2.0440000   0.0000000   0.0000000   0.0000000   0.0000000   0.0000000   0.0000000   0.0000000   0.0000000   0.0000000
 NMagM=    0.4037610   0.0000000   0.0000000   0.0000000   0.0000000   0.0000000   0.0000000   0.0000000   0.0000000   0.0000000
 AtZNuc=   7.0000000   6.0000000   6.0000000   6.0000000   6.0000000   6.0000000   6.0000000   8.0000000   6.0000000   6.0000000

  Atom       121         122         123         124         125         126         127         128         129         130
 IAtWgt=          16          16          12           1           1           1           1           1           1           1
 AtmWgt=  15.9949146  15.9949146  12.0000000   1.0078250   1.0078250   1.0078250   1.0078250   1.0078250   1.0078250   1.0078250
 NucSpn=           0           0           0           1           1           1           1           1           1           1
 AtZEff=  -0.0000000  -0.0000000  -0.0000000  -0.0000000  -0.0000000  -0.0000000  -0.0000000  -0.0000000  -0.0000000  -0.0000000
 NQMom=    0.0000000   0.0000000   0.0000000   0.0000000   0.0000000   0.0000000   0.0000000   0.0000000   0.0000000   0.0000000
 NMagM=    0.0000000   0.0000000   0.0000000   2.7928460   2.7928460   2.7928460   2.7928460   2.7928460   2.7928460   2.7928460
 AtZNuc=   8.0000000   8.0000000   6.0000000   1.0000000   1.0000000   1.0000000   1.0000000   1.0000000   1.0000000   1.0000000

  Atom       131         132         133         134         135         136         137         138         139         140
 IAtWgt=           1           1           1           1           1           1           1           1           1           1
 AtmWgt=   1.0078250   1.0078250   1.0078250   1.0078250   1.0078250   1.0078250   1.0078250   1.0078250   1.0078250   1.0078250
 NucSpn=           1           1           1           1           1           1           1           1           1           1
 AtZEff=  -0.0000000  -0.0000000  -0.0000000  -0.0000000  -0.0000000  -0.0000000  -0.0000000  -0.0000000  -0.0000000  -0.0000000
 NQMom=    0.0000000   0.0000000   0.0000000   0.0000000   0.0000000   0.0000000   0.0000000   0.0000000   0.0000000   0.0000000
 NMagM=    2.7928460   2.7928460   2.7928460   2.7928460   2.7928460   2.7928460   2.7928460   2.7928460   2.7928460   2.7928460
 AtZNuc=   1.0000000   1.0000000   1.0000000   1.0000000   1.0000000   1.0000000   1.0000000   1.0000000   1.0000000   1.0000000

  Atom       141         142         143         144         145         146         147         148         149         150
 IAtWgt=           1           1           1           1           1           1           1           1           1           1
 AtmWgt=   1.0078250   1.0078250   1.0078250   1.0078250   1.0078250   1.0078250   1.0078250   1.0078250   1.0078250   1.0078250
 NucSpn=           1           1           1           1           1           1           1           1           1           1
 AtZEff=  -0.0000000  -0.0000000  -0.0000000  -0.0000000  -0.0000000  -0.0000000  -0.0000000  -0.0000000  -0.0000000  -0.0000000
 NQMom=    0.0000000   0.0000000   0.0000000   0.0000000   0.0000000   0.0000000   0.0000000   0.0000000   0.0000000   0.0000000
 NMagM=    2.7928460   2.7928460   2.7928460   2.7928460   2.7928460   2.7928460   2.7928460   2.7928460   2.7928460   2.7928460
 AtZNuc=   1.0000000   1.0000000   1.0000000   1.0000000   1.0000000   1.0000000   1.0000000   1.0000000   1.0000000   1.0000000

  Atom       151         152         153         154         155         156         157         158
 IAtWgt=           1           1           1           1           1           1           1           1
 AtmWgt=   1.0078250   1.0078250   1.0078250   1.0078250   1.0078250   1.0078250   1.0078250   1.0078250
 NucSpn=           1           1           1           1           1           1           1           1
 AtZEff=  -0.0000000  -0.0000000  -0.0000000  -0.0000000  -0.0000000  -0.0000000  -0.0000000  -0.0000000
 NQMom=    0.0000000   0.0000000   0.0000000   0.0000000   0.0000000   0.0000000   0.0000000   0.0000000
 NMagM=    2.7928460   2.7928460   2.7928460   2.7928460   2.7928460   2.7928460   2.7928460   2.7928460
 AtZNuc=   1.0000000   1.0000000   1.0000000   1.0000000   1.0000000   1.0000000   1.0000000   1.0000000
 Leave Link  101 at Fri Sep  3 12:49:26 2021, MaxMem= 23488102400 cpu:               3.4 elap:               0.2
 (Enter /sw/apps/gaussian-16.0/g16/l202.exe)
 Stoichiometry    C68H72Mg2N8O8
 Framework group  C1[X(C68H72Mg2N8O8)]
 Deg. of freedom   468
 Full point group                 C1      NOp   1
 Largest Abelian subgroup         C1      NOp   1
 Largest concise Abelian subgroup C1      NOp   1
                         Standard orientation:                         
 ---------------------------------------------------------------------
 Center     Atomic      Atomic             Coordinates (Angstroms)
 Number     Number       Type             X           Y           Z
 ---------------------------------------------------------------------
      1         12           0        3.185715   -2.229370   -0.061376
      2          6           0        5.330070    0.553956   -0.744790
      3          6           0        4.434876   -2.221389    3.113935
      4          6           0        1.647007   -4.957586    0.434442
      5          6           0        2.971192   -2.720537   -3.504978
      6          7           0        4.686624   -0.945460    0.938372
      7          6           0        5.390930    0.124438    0.582785
      8          6           0        6.142268    0.792959    1.772720
      9          6           0        6.239725   -0.464950    2.747484
     10          6           0        5.028180   -1.241889    2.263287
     11          6           0        7.487977   -1.312828    2.525061
     12          6           0        5.316746    1.955948    2.419017
     13          6           0        6.103168    2.868271    3.364830
     14          1           0        5.779823    4.286577    3.399497
     15          7           0        2.679595   -3.126795    1.624246
     16          6           0        3.288941   -2.994255    2.826916
     17          6           0        2.541497   -3.863916    3.760564
     18          6           0        1.566747   -4.657495    2.961696
     19          6           0        1.948430   -4.293455    1.621110
     20          6           0        2.749388   -3.849198    5.243910
     21          6           0        0.472824   -5.603190    3.345267
     22          8           0       -0.101299   -6.361565    2.490970
     23          6           0        0.147280   -5.683620    4.780744
     24          7           0        2.592159   -3.776041   -1.331467
     25          6           0        1.888224   -4.815750   -0.870527
     26          6           0        1.337541   -5.643326   -1.993827
     27          6           0        1.609523   -4.812138   -3.329830
     28          6           0        2.385864   -3.622271   -2.713565
     29          6           0        1.929380   -7.052024   -2.139805
     30          6           0        0.385793   -4.507506   -4.229888
     31          6           0       -0.548109   -3.552759   -3.520394
     32          7           0        3.845953   -1.172651   -1.838587
     33          6           0        3.666733   -1.570401   -3.171384
     34          6           0        4.378687   -0.591792   -4.013710
     35          6           0        4.940138    0.303754   -3.105626
     36          6           0        4.622390   -0.105280   -1.778969
     37          6           0        4.492837   -0.639257   -5.431155
     38          6           0        5.755197    1.497165   -2.946548
     39          8           0        6.231866    2.330894   -3.718024
     40          6           0        6.142270    1.638202   -1.408331
     41          6           0        5.878688    3.062558   -1.002077
     42          8           0        4.715218    3.512365   -0.964953
     43          8           0        7.001579    3.595767   -0.496759
     44          6           0        6.801012    4.999188   -0.046942
     45          1           0        4.922377   -2.463495    4.060332
     46          1           0        1.021998   -5.844867    0.554997
     47          1           0        2.877704   -2.761565   -4.591730
     48          1           0        7.141685    1.156228    1.532667
     49          1           0        6.114961   -0.180849    3.792206
     50          1           0        8.040866   -0.984686    1.644971
     51          1           0        7.126866   -2.332490    2.389483
     52          1           0        8.108418   -1.331384    3.421434
     53          1           0        4.595802    1.537751    3.121451
     54          1           0        4.836617    2.561975    1.649904
     55          1           0        7.178399    2.724207    3.255127
     56          1           0        5.891901    2.561629    4.389299
     57          1           0        3.642712   -3.289178    5.517579
     58          1           0        2.968100   -4.873527    5.544948
     59          1           0        1.870035   -3.488874    5.777985
     60          1           0        1.035895   -5.986734    5.334852
     61          1           0       -0.717207   -6.342225    4.856587
     62          1           0       -0.113159   -4.687629    5.140080
     63          1           0        0.264918   -5.794120   -1.879079
     64          1           0        2.307628   -5.322296   -3.993955
     65          1           0        1.183732   -7.846481   -2.100409
     66          1           0        2.682223   -7.183420   -1.363110
     67          1           0        2.519548   -7.208592   -3.042359
     68          1           0       -0.176663   -5.419598   -4.426552
     69          1           0        0.656708   -4.071112   -5.191353
     70          1           0       -1.140407   -4.215016   -2.889973
     71          1           0       -1.179404   -3.032087   -4.241212
     72          1           0       -0.001905   -2.877753   -2.861217
     73          1           0        4.329451    0.378760   -5.784589
     74          1           0        3.769161   -1.329710   -5.863788
     75          1           0        5.519570   -0.988462   -5.539471
     76          1           0        7.196848    1.377268   -1.325265
     77          1           0        7.539280    5.611046   -0.565424
     78          1           0        6.832634    4.982886    1.042618
     79          1           0        5.875265    5.479783   -0.365313
     80         12           0       -3.331630    2.300499    0.293298
     81          6           0       -5.211446   -0.736119   -0.059333
     82          6           0       -2.611009    2.064727   -3.032311
     83          6           0       -1.306456    4.715000    0.662423
     84          6           0       -3.243643    1.684298    3.722331
     85          7           0       -3.896817    0.811145   -1.241193
     86          6           0       -4.665302   -0.267191   -1.272297
     87          6           0       -4.924935   -0.831142   -2.695008
     88          6           0       -3.626417   -0.237164   -3.429785
     89          6           0       -3.375514    0.977569   -2.538643
     90          6           0       -2.415335   -1.151065   -3.343611
     91          6           0       -6.248222   -0.272950   -3.326939
     92          6           0       -6.724017   -1.011595   -4.579836
     93          1           0       -8.160382   -1.163548   -4.794909
     94          7           0       -2.534954    3.525264   -1.049760
     95          6           0       -2.338048    3.277160   -2.361612
     96          6           0       -1.703946    4.486461   -2.909035
     97          6           0       -1.392528    5.404809   -1.780151
     98          6           0       -1.720830    4.556518   -0.652005
     99          6           0       -1.522590    4.714649   -4.381605
    100          6           0       -0.871738    6.809062   -1.724823
    101          8           0       -0.450836    7.328517   -0.631282
    102          6           0       -0.781931    7.525898   -3.005273
    103          7           0       -2.227001    2.978313    1.918939
    104          6           0       -1.464980    4.082137    1.825039
    105          6           0       -0.986119    4.531685    3.184812
    106          6           0       -1.787243    3.636112    4.240139
    107          6           0       -2.558546    2.722324    3.262660
    108          6           0        0.515040    4.397180    3.439397
    109          6           0       -2.589085    4.389027    5.336887
    110          6           0       -3.744665    5.135700    4.710391
    111          7           0       -4.231864    0.871110    1.640324
    112          6           0       -4.040088    0.776419    3.036155
    113          6           0       -4.770211   -0.422868    3.495569
    114          6           0       -5.321454   -0.959865    2.322431
    115          6           0       -4.943633   -0.163615    1.207653
    116          6           0       -4.818125   -0.905818    4.833694
    117          6           0       -6.128250   -2.025252    1.772219
    118          8           0       -6.792897   -2.945434    2.246829
    119          6           0       -5.988275   -1.999204    0.189152
    120          6           0       -7.368165   -2.100622   -0.400888
    121          8           0       -8.196357   -1.188364   -0.232081
    122          8           0       -7.411206   -3.148810   -1.243388
    123          6           0       -8.756780   -3.284148   -1.862193
    124          1           0       -2.138855    1.965294   -4.010107
    125          1           0       -0.695546    5.598663    0.860928
    126          1           0       -3.346020    1.479012    4.790063
    127          1           0       -4.927737   -1.912507   -2.761482
    128          1           0       -3.855583    0.075649   -4.445163
    129          1           0       -2.595180   -1.998516   -2.698936
    130          1           0       -1.613215   -0.540190   -2.950566
    131          1           0       -2.099820   -1.454291   -4.346026
    132          1           0       -6.049841    0.717377   -3.756644
    133          1           0       -7.036875   -0.248914   -2.600255
    134          1           0       -6.211982   -1.972591   -4.711180
    135          1           0       -6.431735   -0.430018   -5.457545
    136          1           0       -1.695813    3.795844   -4.955370
    137          1           0       -0.462610    4.939384   -4.542194
    138          1           0       -2.121159    5.548038   -4.755565
    139          1           0       -0.137683    6.972639   -3.684470
    140          1           0       -0.473340    8.541645   -2.750513
    141          1           0       -1.776813    7.548916   -3.463857
    142          1           0       -1.226558    5.574065    3.354340
    143          1           0       -1.113793    2.983692    4.815166
    144          1           0        0.997279    5.352278    3.721025
    145          1           0        0.976308    3.985608    2.551498
    146          1           0        0.790910    3.670078    4.201250
    147          1           0       -1.958516    5.140517    5.818357
    148          1           0       -2.968306    3.738529    6.117927
    149          1           0       -3.279635    6.062809    4.362111
    150          1           0       -4.517643    5.335376    5.449757
    151          1           0       -4.124005    4.605831    3.828908
    152          1           0       -5.845060   -1.186108    5.026938
    153          1           0       -4.470496   -0.154875    5.540091
    154          1           0       -4.128629   -1.751124    4.760762
    155          1           0       -5.357414   -2.841355   -0.097850
    156          1           0       -9.105199   -4.299726   -1.650304
    157          1           0       -8.625799   -3.008101   -2.925391
    158          1           0       -9.562632   -2.692498   -1.443848
 ---------------------------------------------------------------------
 Rotational constants (GHZ):           0.0218479           0.0162434           0.0139710
 Leave Link  202 at Fri Sep  3 12:49:26 2021, MaxMem= 23488102400 cpu:               0.2 elap:               0.0
 (Enter /sw/apps/gaussian-16.0/g16/l301.exe)
 Standard basis: def2SVP (5D, 7F)
 Ernie: Thresh=  0.10000D-02 Tol=  0.10000D-05 Strict=F.
 There are  1658 symmetry adapted cartesian basis functions of A   symmetry.
 There are  1572 symmetry adapted basis functions of A   symmetry.
  1572 basis functions,  2678 primitive gaussians,  1658 cartesian basis functions
   312 alpha electrons      312 beta electrons
       nuclear repulsion energy     15917.2937244541 Hartrees.
 IExCor=20419 DFT=T Ex+Corr=CAM-B3LYP ExCW=0 ScaHFX=  1.000000
 ScaDFX=  1.000000  1.000000  1.000000  0.810000 ScalE2=  1.000000  1.000000
 IRadAn=      5 IRanWt=     -1 IRanGd=            0 ICorTp=0 IEmpDi=  4
 HFx  wShort=  0.000000 wLong=  0.330000 cFull=  0.190000 cShort=  0.000000 cLong=  0.460000
 DFx  wShort=  0.000000 wLong=  0.330000 cFull=  0.190000 cShort=  0.000000 cLong=  0.460000
 NAtoms=  158 NActive=  158 NUniq=  158 SFac= 1.00D+00 NAtFMM=   60 NAOKFM=T Big=T
 Integral buffers will be    131072 words long.
 Raffenetti 1 integral format.
 Two-electron integral symmetry is turned on.
 Leave Link  301 at Fri Sep  3 12:49:26 2021, MaxMem= 23488102400 cpu:               1.7 elap:               0.1
 (Enter /sw/apps/gaussian-16.0/g16/l302.exe)
 NPDir=0 NMtPBC=     1 NCelOv=     1 NCel=       1 NClECP=     1 NCelD=      1
         NCelK=      1 NCelE2=     1 NClLst=     1 CellRange=     0.0.
 One-electron integrals computed using PRISM.
 One-electron integral symmetry used in STVInt
   1 Symmetry operations used in ECPInt.
 ECPInt:  NShTT=  271216 NPrTT=  987664 LenC2=  163845 LenP2D=  343970.
 LDataN:  DoStor=T MaxTD1= 4 Len=   56
 NBasis=  1572 RedAO= T EigKep=  3.36D-04  NBF=  1572
 NBsUse=  1572 1.00D-06 EigRej= -1.00D+00 NBFU=  1572
 Precomputing XC quadrature grid using
 IXCGrd= 4 IRadAn=           5 IRanWt=          -1 IRanGd=           0 AccXCQ= 0.00D+00.
 Generated NRdTot=       0 NPtTot=           0 NUsed=           0 NTot=          32
 NSgBfM=  1261  1237  1243  1251  1261 MxSgAt=   158 MxSgA2=   158.
 Leave Link  302 at Fri Sep  3 12:49:31 2021, MaxMem= 23488102400 cpu:             125.0 elap:               5.2
 (Enter /sw/apps/gaussian-16.0/g16/l303.exe)
 DipDrv:  MaxL=1.
 Leave Link  303 at Fri Sep  3 12:49:32 2021, MaxMem= 23488102400 cpu:               8.9 elap:               0.4
 (Enter /sw/apps/gaussian-16.0/g16/l308.exe)
 Leave Link  308 at Fri Sep  3 12:49:32 2021, MaxMem= 23488102400 cpu:              13.0 elap:               0.6
 (Enter /sw/apps/gaussian-16.0/g16/l401.exe)
 ExpMin= 3.36D-02 ExpMax= 4.95D+03 ExpMxC= 7.45D+02 IAcc=3 IRadAn=         5 AccDes= 0.00D+00
 Harris functional with IExCor=20419 and IRadAn=       5 diagonalized for initial guess.
 HarFok:  IExCor=20419 AccDes= 0.00D+00 IRadAn=         5 IDoV= 1 UseB2=F ITyADJ=14
 ICtDFT=  3500011 ScaDFX=  1.000000  1.000000  1.000000  1.000000
 FoFCou: FMM=F IPFlag=           0 FMFlag=      100000 FMFlg1=        2001
         NFxFlg=           0 DoJE=T BraDBF=F KetDBF=T FulRan=T
         wScrn=  0.000000 ICntrl=       500 IOpCl=  0 I1Cent=   200000004 NGrid=           0
         NMat0=    1 NMatS0=      1 NMatT0=    0 NMatD0=    1 NMtDS0=    0 NMtDT0=    0
 Petite list used in FoFCou.
 Harris En= -3918.65022724205    
 JPrj=0 DoOrth=F DoCkMO=F.
 Leave Link  401 at Fri Sep  3 12:49:41 2021, MaxMem= 23488102400 cpu:             194.1 elap:               8.1
 (Enter /sw/apps/gaussian-16.0/g16/l502.exe)
 Integral symmetry usage will be decided dynamically.
 Closed shell SCF:
 Using DIIS extrapolation, IDIIS=  1040.
 NGot= 23488102400 LenX= 23482547354 LenY= 23479796732
 Requested convergence on RMS density matrix=1.00D-08 within 128 cycles.
 Requested convergence on MAX density matrix=1.00D-06.
 Requested convergence on             energy=1.00D-06.
 No special actions if energy rises.
 Fock matrices will be formed incrementally for  20 cycles.

 Cycle   1  Pass 1  IDiag  1:
 FoFJK:  IHMeth= 1 ICntrl=       0 DoSepK=T KAlg= 0 I1Cent=           0 FoldK=F
 IRaf=         1 NMat=       1 IRICut=       1 DoRegI=T DoRafI=F ISym2E= 0 IDoP0=0 IntGTp=1.
 FoFCou: FMM=T IPFlag=           0 FMFlag=      100000 FMFlg1=        2001
         NFxFlg=           0 DoJE=T BraDBF=F KetDBF=F FulRan=T
         wScrn=  0.000000 ICntrl=       500 IOpCl=  0 I1Cent=           0 NGrid=           0
         NMat0=    1 NMatS0=      1 NMatT0=    0 NMatD0=    1 NMtDS0=    0 NMtDT0=    0
 Symmetry not used in FoFCou.
 FMM levels:  10  Number of levels for PrismC:   9
 E= -4068.94305681630    
 DIIS: error= 2.02D-02 at cycle   1 NSaved=   1.
 NSaved= 1 IEnMin= 1 EnMin= -4068.94305681630     IErMin= 1 ErrMin= 2.02D-02
 ErrMax= 2.02D-02  0.00D+00 EMaxC= 1.00D-01 BMatC= 1.69D+00 BMatP= 1.69D+00
 IDIUse=3 WtCom= 7.98D-01 WtEn= 2.02D-01
 Coeff-Com:  0.100D+01
 Coeff-En:   0.100D+01
 Coeff:      0.100D+01
 Gap=     0.122 Goal=   None    Shift=    0.000
 GapD=    0.122 DampG=1.000 DampE=0.500 DampFc=0.5000 IDamp=-1.
 Damping current iteration by 5.00D-01
 RMSDP=1.57D-03 MaxDP=1.35D-01              OVMax= 1.93D-01

 Cycle   2  Pass 1  IDiag  1:
 RMSU=  7.70D-04    CP:  9.82D-01
 E= -4069.33234010185     Delta-E=       -0.389283285556 Rises=F Damp=T
 DIIS: error= 1.26D-02 at cycle   2 NSaved=   2.
 NSaved= 2 IEnMin= 2 EnMin= -4069.33234010185     IErMin= 2 ErrMin= 1.26D-02
 ErrMax= 1.26D-02  0.00D+00 EMaxC= 1.00D-01 BMatC= 3.07D-01 BMatP= 1.69D+00
 IDIUse=3 WtCom= 8.74D-01 WtEn= 1.26D-01
 Coeff-Com: -0.213D+00 0.121D+01
 Coeff-En:   0.000D+00 0.100D+01
 Coeff:     -0.187D+00 0.119D+01
 Gap=     0.133 Goal=   None    Shift=    0.000
 RMSDP=7.65D-04 MaxDP=9.55D-02 DE=-3.89D-01 OVMax= 1.80D-01

 Cycle   3  Pass 1  IDiag  1:
 RMSU=  7.32D-04    CP:  9.68D-01  1.24D+00
 E= -4069.62357846758     Delta-E=       -0.291238365724 Rises=F Damp=F
 DIIS: error= 1.57D-02 at cycle   3 NSaved=   3.
 NSaved= 3 IEnMin= 3 EnMin= -4069.62357846758     IErMin= 2 ErrMin= 1.26D-02
 ErrMax= 1.57D-02  0.00D+00 EMaxC= 1.00D-01 BMatC= 2.01D-01 BMatP= 3.07D-01
 IDIUse=3 WtCom= 8.43D-01 WtEn= 1.57D-01
 Coeff-Com: -0.268D+00 0.652D+00 0.616D+00
 Coeff-En:   0.000D+00 0.000D+00 0.100D+01
 Coeff:     -0.226D+00 0.549D+00 0.676D+00
 Gap=     0.120 Goal=   None    Shift=    0.000
 RMSDP=5.02D-04 MaxDP=4.52D-02 DE=-2.91D-01 OVMax= 1.28D-01

 Cycle   4  Pass 1  IDiag  1:
 RMSU=  2.61D-04    CP:  9.65D-01  1.54D+00  5.12D-01
 E= -4069.76114363358     Delta-E=       -0.137565166006 Rises=F Damp=F
 DIIS: error= 7.24D-03 at cycle   4 NSaved=   4.
 NSaved= 4 IEnMin= 4 EnMin= -4069.76114363358     IErMin= 4 ErrMin= 7.24D-03
 ErrMax= 7.24D-03  0.00D+00 EMaxC= 1.00D-01 BMatC= 4.90D-02 BMatP= 2.01D-01
 IDIUse=3 WtCom= 9.28D-01 WtEn= 7.24D-02
 Coeff-Com: -0.107D+00 0.223D+00 0.406D+00 0.479D+00
 Coeff-En:   0.000D+00 0.000D+00 0.212D+00 0.788D+00
 Coeff:     -0.996D-01 0.206D+00 0.392D+00 0.501D+00
 Gap=     0.120 Goal=   None    Shift=    0.000
 RMSDP=1.91D-04 MaxDP=2.03D-02 DE=-1.38D-01 OVMax= 5.07D-02

 Cycle   5  Pass 1  IDiag  1:
 RMSU=  7.20D-05    CP:  9.64D-01  1.49D+00  6.89D-01  5.66D-01
 E= -4069.80445738093     Delta-E=       -0.043313747345 Rises=F Damp=F
 DIIS: error= 8.34D-04 at cycle   5 NSaved=   5.
 NSaved= 5 IEnMin= 5 EnMin= -4069.80445738093     IErMin= 5 ErrMin= 8.34D-04
 ErrMax= 8.34D-04  0.00D+00 EMaxC= 1.00D-01 BMatC= 9.71D-04 BMatP= 4.90D-02
 IDIUse=3 WtCom= 9.92D-01 WtEn= 8.34D-03
 Coeff-Com: -0.327D-01 0.638D-01 0.154D+00 0.239D+00 0.576D+00
 Coeff-En:   0.000D+00 0.000D+00 0.000D+00 0.000D+00 0.100D+01
 Coeff:     -0.324D-01 0.633D-01 0.153D+00 0.237D+00 0.579D+00
 Gap=     0.119 Goal=   None    Shift=    0.000
 RMSDP=3.50D-05 MaxDP=4.00D-03 DE=-4.33D-02 OVMax= 1.17D-02

 Cycle   6  Pass 1  IDiag  1:
 RMSU=  2.75D-05    CP:  9.64D-01  1.49D+00  6.84D-01  6.28D-01  8.07D-01
 E= -4069.80523424391     Delta-E=       -0.000776862988 Rises=F Damp=F
 DIIS: error= 2.71D-04 at cycle   6 NSaved=   6.
 NSaved= 6 IEnMin= 6 EnMin= -4069.80523424391     IErMin= 6 ErrMin= 2.71D-04
 ErrMax= 2.71D-04  0.00D+00 EMaxC= 1.00D-01 BMatC= 1.48D-04 BMatP= 9.71D-04
 IDIUse=3 WtCom= 9.97D-01 WtEn= 2.71D-03
 Coeff-Com:  0.280D-02-0.765D-02 0.803D-02 0.358D-01 0.310D+00 0.651D+00
 Coeff-En:   0.000D+00 0.000D+00 0.000D+00 0.000D+00 0.774D-01 0.923D+00
 Coeff:      0.279D-02-0.762D-02 0.801D-02 0.357D-01 0.310D+00 0.652D+00
 Gap=     0.119 Goal=   None    Shift=    0.000
 RMSDP=1.34D-05 MaxDP=1.15D-03 DE=-7.77D-04 OVMax= 5.76D-03

 Cycle   7  Pass 1  IDiag  1:
 RMSU=  9.44D-06    CP:  9.64D-01  1.50D+00  6.89D-01  6.30D-01  8.88D-01
                    CP:  7.71D-01
 E= -4069.80538133636     Delta-E=       -0.000147092451 Rises=F Damp=F
 DIIS: error= 6.74D-05 at cycle   7 NSaved=   7.
 NSaved= 7 IEnMin= 7 EnMin= -4069.80538133636     IErMin= 7 ErrMin= 6.74D-05
 ErrMax= 6.74D-05  0.00D+00 EMaxC= 1.00D-01 BMatC= 1.55D-05 BMatP= 1.48D-04
 IDIUse=1 WtCom= 1.00D+00 WtEn= 0.00D+00
 Coeff-Com:  0.426D-02-0.926D-02-0.924D-02-0.533D-02 0.924D-01 0.313D+00
 Coeff-Com:  0.614D+00
 Coeff:      0.426D-02-0.926D-02-0.924D-02-0.533D-02 0.924D-01 0.313D+00
 Coeff:      0.614D+00
 Gap=     0.120 Goal=   None    Shift=    0.000
 RMSDP=6.01D-06 MaxDP=1.18D-03 DE=-1.47D-04 OVMax= 3.25D-03

 Cycle   8  Pass 1  IDiag  1:
 RMSU=  4.43D-06    CP:  9.64D-01  1.50D+00  6.90D-01  6.34D-01  9.01D-01
                    CP:  8.97D-01  8.64D-01
 E= -4069.80539972686     Delta-E=       -0.000018390499 Rises=F Damp=F
 DIIS: error= 3.01D-05 at cycle   8 NSaved=   8.
 NSaved= 8 IEnMin= 8 EnMin= -4069.80539972686     IErMin= 8 ErrMin= 3.01D-05
 ErrMax= 3.01D-05  0.00D+00 EMaxC= 1.00D-01 BMatC= 3.98D-06 BMatP= 1.55D-05
 IDIUse=1 WtCom= 1.00D+00 WtEn= 0.00D+00
 Coeff-Com:  0.202D-02-0.399D-02-0.745D-02-0.120D-01-0.161D-01 0.382D-01
 Coeff-Com:  0.362D+00 0.638D+00
 Coeff:      0.202D-02-0.399D-02-0.745D-02-0.120D-01-0.161D-01 0.382D-01
 Coeff:      0.362D+00 0.638D+00
 Gap=     0.120 Goal=   None    Shift=    0.000
 RMSDP=3.16D-06 MaxDP=4.76D-04 DE=-1.84D-05 OVMax= 1.38D-03

 Cycle   9  Pass 1  IDiag  1:
 RMSU=  1.97D-06    CP:  9.64D-01  1.50D+00  6.90D-01  6.35D-01  9.16D-01
                    CP:  9.22D-01  1.07D+00  8.43D-01
 E= -4069.80540602120     Delta-E=       -0.000006294336 Rises=F Damp=F
 DIIS: error= 1.76D-05 at cycle   9 NSaved=   9.
 NSaved= 9 IEnMin= 9 EnMin= -4069.80540602120     IErMin= 9 ErrMin= 1.76D-05
 ErrMax= 1.76D-05  0.00D+00 EMaxC= 1.00D-01 BMatC= 7.61D-07 BMatP= 3.98D-06
 IDIUse=1 WtCom= 1.00D+00 WtEn= 0.00D+00
 Coeff-Com:  0.511D-03-0.869D-03-0.283D-02-0.626D-02-0.240D-01-0.302D-01
 Coeff-Com:  0.118D+00 0.366D+00 0.579D+00
 Coeff:      0.511D-03-0.869D-03-0.283D-02-0.626D-02-0.240D-01-0.302D-01
 Coeff:      0.118D+00 0.366D+00 0.579D+00
 Gap=     0.120 Goal=   None    Shift=    0.000
 RMSDP=1.38D-06 MaxDP=1.61D-04 DE=-6.29D-06 OVMax= 8.26D-04

 Cycle  10  Pass 1  IDiag  1:
 RMSU=  9.31D-07    CP:  9.64D-01  1.50D+00  6.90D-01  6.36D-01  9.19D-01
                    CP:  9.37D-01  1.10D+00  1.03D+00  9.29D-01
 E= -4069.80540755272     Delta-E=       -0.000001531520 Rises=F Damp=F
 DIIS: error= 7.35D-06 at cycle  10 NSaved=  10.
 NSaved=10 IEnMin=10 EnMin= -4069.80540755272     IErMin=10 ErrMin= 7.35D-06
 ErrMax= 7.35D-06  0.00D+00 EMaxC= 1.00D-01 BMatC= 1.36D-07 BMatP= 7.61D-07
 IDIUse=1 WtCom= 1.00D+00 WtEn= 0.00D+00
 Coeff-Com: -0.387D-03 0.819D-03 0.107D-02 0.885D-03-0.551D-02-0.296D-01
 Coeff-Com: -0.539D-01-0.337D-01 0.250D+00 0.870D+00
 Coeff:     -0.387D-03 0.819D-03 0.107D-02 0.885D-03-0.551D-02-0.296D-01
 Coeff:     -0.539D-01-0.337D-01 0.250D+00 0.870D+00
 Gap=     0.120 Goal=   None    Shift=    0.000
 RMSDP=1.14D-06 MaxDP=1.57D-04 DE=-1.53D-06 OVMax= 5.87D-04

 Cycle  11  Pass 1  IDiag  1:
 RMSU=  5.10D-07    CP:  9.64D-01  1.50D+00  6.90D-01  6.36D-01  9.21D-01
                    CP:  9.48D-01  1.16D+00  1.12D+00  1.25D+00  1.28D+00
 E= -4069.80540821405     Delta-E=       -0.000000661326 Rises=F Damp=F
 DIIS: error= 3.82D-06 at cycle  11 NSaved=  11.
 NSaved=11 IEnMin=11 EnMin= -4069.80540821405     IErMin=11 ErrMin= 3.82D-06
 ErrMax= 3.82D-06  0.00D+00 EMaxC= 1.00D-01 BMatC= 5.06D-08 BMatP= 1.36D-07
 IDIUse=1 WtCom= 1.00D+00 WtEn= 0.00D+00
 Coeff-Com: -0.325D-03 0.635D-03 0.129D-02 0.209D-02 0.365D-02-0.929D-02
 Coeff-Com: -0.550D-01-0.113D+00-0.217D-01 0.471D+00 0.720D+00
 Coeff:     -0.325D-03 0.635D-03 0.129D-02 0.209D-02 0.365D-02-0.929D-02
 Coeff:     -0.550D-01-0.113D+00-0.217D-01 0.471D+00 0.720D+00
 Gap=     0.120 Goal=   None    Shift=    0.000
 RMSDP=6.18D-07 MaxDP=4.13D-05 DE=-6.61D-07 OVMax= 3.08D-04

 Cycle  12  Pass 1  IDiag  1:
 RMSU=  2.50D-07    CP:  9.64D-01  1.50D+00  6.90D-01  6.36D-01  9.22D-01
                    CP:  9.51D-01  1.18D+00  1.18D+00  1.38D+00  1.64D+00
                    CP:  1.17D+00
 E= -4069.80540843442     Delta-E=       -0.000000220371 Rises=F Damp=F
 DIIS: error= 2.49D-06 at cycle  12 NSaved=  12.
 NSaved=12 IEnMin=12 EnMin= -4069.80540843442     IErMin=12 ErrMin= 2.49D-06
 ErrMax= 2.49D-06  0.00D+00 EMaxC= 1.00D-01 BMatC= 9.08D-09 BMatP= 5.06D-08
 IDIUse=1 WtCom= 1.00D+00 WtEn= 0.00D+00
 Coeff-Com: -0.103D-04 0.489D-05 0.205D-03 0.563D-03 0.308D-02 0.398D-02
 Coeff-Com: -0.198D-02-0.333D-01-0.737D-01-0.416D-01 0.222D+00 0.921D+00
 Coeff:     -0.103D-04 0.489D-05 0.205D-03 0.563D-03 0.308D-02 0.398D-02
 Coeff:     -0.198D-02-0.333D-01-0.737D-01-0.416D-01 0.222D+00 0.921D+00
 Gap=     0.120 Goal=   None    Shift=    0.000
 RMSDP=4.01D-07 MaxDP=2.23D-05 DE=-2.20D-07 OVMax= 2.48D-04

 Cycle  13  Pass 1  IDiag  1:
 RMSU=  1.61D-07    CP:  9.64D-01  1.50D+00  6.90D-01  6.36D-01  9.22D-01
                    CP:  9.51D-01  1.19D+00  1.21D+00  1.47D+00  1.85D+00
                    CP:  1.56D+00  1.26D+00
 E= -4069.80540850850     Delta-E=       -0.000000074084 Rises=F Damp=F
 DIIS: error= 1.78D-06 at cycle  13 NSaved=  13.
 NSaved=13 IEnMin=13 EnMin= -4069.80540850850     IErMin=13 ErrMin= 1.78D-06
 ErrMax= 1.78D-06  0.00D+00 EMaxC= 1.00D-01 BMatC= 7.55D-09 BMatP= 9.08D-09
 IDIUse=1 WtCom= 1.00D+00 WtEn= 0.00D+00
 Coeff-Com:  0.109D-03-0.224D-03-0.326D-03-0.381D-03 0.631D-03 0.550D-02
 Coeff-Com:  0.196D-01 0.178D-01-0.434D-01-0.209D+00-0.172D+00 0.649D+00
 Coeff-Com:  0.733D+00
 Coeff:      0.109D-03-0.224D-03-0.326D-03-0.381D-03 0.631D-03 0.550D-02
 Coeff:      0.196D-01 0.178D-01-0.434D-01-0.209D+00-0.172D+00 0.649D+00
 Coeff:      0.733D+00
 Gap=     0.120 Goal=   None    Shift=    0.000
 RMSDP=2.90D-07 MaxDP=1.38D-05 DE=-7.41D-08 OVMax= 1.49D-04

 Cycle  14  Pass 1  IDiag  1:
 RMSU=  7.63D-08    CP:  9.64D-01  1.50D+00  6.90D-01  6.36D-01  9.22D-01
                    CP:  9.52D-01  1.20D+00  1.23D+00  1.53D+00  2.01D+00
                    CP:  1.78D+00  1.78D+00  1.06D+00
 E= -4069.80540853930     Delta-E=       -0.000000030795 Rises=F Damp=F
 DIIS: error= 1.14D-06 at cycle  14 NSaved=  14.
 NSaved=14 IEnMin=14 EnMin= -4069.80540853930     IErMin=14 ErrMin= 1.14D-06
 ErrMax= 1.14D-06  0.00D+00 EMaxC= 1.00D-01 BMatC= 9.65D-10 BMatP= 7.55D-09
 IDIUse=1 WtCom= 1.00D+00 WtEn= 0.00D+00
 Coeff-Com:  0.678D-04-0.134D-03-0.248D-03-0.387D-03-0.508D-03 0.182D-02
 Coeff-Com:  0.123D-01 0.187D-01-0.202D-02-0.948D-01-0.165D+00 0.137D+00
 Coeff-Com:  0.354D+00 0.739D+00
 Coeff:      0.678D-04-0.134D-03-0.248D-03-0.387D-03-0.508D-03 0.182D-02
 Coeff:      0.123D-01 0.187D-01-0.202D-02-0.948D-01-0.165D+00 0.137D+00
 Coeff:      0.354D+00 0.739D+00
 Gap=     0.120 Goal=   None    Shift=    0.000
 RMSDP=1.08D-07 MaxDP=5.61D-06 DE=-3.08D-08 OVMax= 6.87D-05

 Cycle  15  Pass 1  IDiag  1:
 RMSU=  3.76D-08    CP:  9.64D-01  1.50D+00  6.90D-01  6.36D-01  9.22D-01
                    CP:  9.52D-01  1.20D+00  1.23D+00  1.55D+00  2.06D+00
                    CP:  1.89D+00  1.95D+00  1.29D+00  1.01D+00
 E= -4069.80540854349     Delta-E=       -0.000000004191 Rises=F Damp=F
 DIIS: error= 4.52D-07 at cycle  15 NSaved=  15.
 NSaved=15 IEnMin=15 EnMin= -4069.80540854349     IErMin=15 ErrMin= 4.52D-07
 ErrMax= 4.52D-07  0.00D+00 EMaxC= 1.00D-01 BMatC= 2.99D-10 BMatP= 9.65D-10
 IDIUse=1 WtCom= 1.00D+00 WtEn= 0.00D+00
 Coeff-Com:  0.121D-04-0.223D-04-0.564D-04-0.118D-03-0.377D-03-0.234D-03
 Coeff-Com:  0.237D-02 0.504D-02 0.730D-02-0.393D-02-0.509D-01-0.418D-01
 Coeff-Com:  0.372D-02 0.389D+00 0.690D+00
 Coeff:      0.121D-04-0.223D-04-0.564D-04-0.118D-03-0.377D-03-0.234D-03
 Coeff:      0.237D-02 0.504D-02 0.730D-02-0.393D-02-0.509D-01-0.418D-01
 Coeff:      0.372D-02 0.389D+00 0.690D+00
 Gap=     0.120 Goal=   None    Shift=    0.000
 RMSDP=3.82D-08 MaxDP=2.65D-06 DE=-4.19D-09 OVMax= 1.88D-05

 Cycle  16  Pass 1  IDiag  1:
 RMSU=  1.75D-08    CP:  9.64D-01  1.50D+00  6.90D-01  6.36D-01  9.22D-01
                    CP:  9.52D-01  1.20D+00  1.23D+00  1.55D+00  2.07D+00
                    CP:  1.92D+00  2.01D+00  1.36D+00  1.23D+00  1.14D+00
 E= -4069.80540854448     Delta-E=       -0.000000000990 Rises=F Damp=F
 DIIS: error= 1.28D-07 at cycle  16 NSaved=  16.
 NSaved=16 IEnMin=16 EnMin= -4069.80540854448     IErMin=16 ErrMin= 1.28D-07
 ErrMax= 1.28D-07  0.00D+00 EMaxC= 1.00D-01 BMatC= 6.70D-11 BMatP= 2.99D-10
 IDIUse=1 WtCom= 1.00D+00 WtEn= 0.00D+00
 Coeff-Com: -0.124D-04 0.253D-04 0.407D-04 0.446D-04-0.518D-04-0.610D-03
 Coeff-Com: -0.210D-02-0.308D-02 0.417D-02 0.239D-01 0.155D-01-0.501D-01
 Coeff-Com: -0.113D+00 0.268D-01 0.309D+00 0.789D+00
 Coeff:     -0.124D-04 0.253D-04 0.407D-04 0.446D-04-0.518D-04-0.610D-03
 Coeff:     -0.210D-02-0.308D-02 0.417D-02 0.239D-01 0.155D-01-0.501D-01
 Coeff:     -0.113D+00 0.268D-01 0.309D+00 0.789D+00
 Gap=     0.120 Goal=   None    Shift=    0.000
 RMSDP=2.46D-08 MaxDP=1.88D-06 DE=-9.90D-10 OVMax= 1.52D-05

 Cycle  17  Pass 1  IDiag  1:
 RMSU=  1.14D-08    CP:  9.64D-01  1.50D+00  6.90D-01  6.36D-01  9.22D-01
                    CP:  9.52D-01  1.20D+00  1.23D+00  1.56D+00  2.08D+00
                    CP:  1.93D+00  2.05D+00  1.41D+00  1.33D+00  1.44D+00
                    CP:  1.24D+00
 E= -4069.80540854459     Delta-E=       -0.000000000113 Rises=F Damp=F
 DIIS: error= 8.13D-08 at cycle  17 NSaved=  17.
 NSaved=17 IEnMin=17 EnMin= -4069.80540854459     IErMin=17 ErrMin= 8.13D-08
 ErrMax= 8.13D-08  0.00D+00 EMaxC= 1.00D-01 BMatC= 2.21D-11 BMatP= 6.70D-11
 IDIUse=1 WtCom= 1.00D+00 WtEn= 0.00D+00
 Coeff-Com: -0.834D-05 0.164D-04 0.323D-04 0.472D-04 0.744D-04-0.201D-03
 Coeff-Com: -0.144D-02-0.275D-02 0.409D-03 0.123D-01 0.184D-01-0.637D-02
 Coeff-Com: -0.603D-01-0.708D-01-0.714D-01 0.381D+00 0.801D+00
 Coeff:     -0.834D-05 0.164D-04 0.323D-04 0.472D-04 0.744D-04-0.201D-03
 Coeff:     -0.144D-02-0.275D-02 0.409D-03 0.123D-01 0.184D-01-0.637D-02
 Coeff:     -0.603D-01-0.708D-01-0.714D-01 0.381D+00 0.801D+00
 Gap=     0.120 Goal=   None    Shift=    0.000
 RMSDP=1.37D-08 MaxDP=7.32D-07 DE=-1.13D-10 OVMax= 7.82D-06

 Cycle  18  Pass 1  IDiag  1:
 RMSU=  5.24D-09    CP:  9.64D-01  1.50D+00  6.90D-01  6.36D-01  9.22D-01
                    CP:  9.52D-01  1.20D+00  1.23D+00  1.56D+00  2.08D+00
                    CP:  1.93D+00  2.06D+00  1.42D+00  1.40D+00  1.62D+00
                    CP:  1.66D+00  1.34D+00
 E= -4069.80540854468     Delta-E=       -0.000000000091 Rises=F Damp=F
 DIIS: error= 6.36D-08 at cycle  18 NSaved=  18.
 NSaved=18 IEnMin=18 EnMin= -4069.80540854468     IErMin=18 ErrMin= 6.36D-08
 ErrMax= 6.36D-08  0.00D+00 EMaxC= 1.00D-01 BMatC= 6.98D-12 BMatP= 2.21D-11
 IDIUse=1 WtCom= 1.00D+00 WtEn= 0.00D+00
 Coeff-Com:  0.433D-06-0.121D-05 0.139D-05 0.651D-05 0.656D-04 0.142D-03
 Coeff-Com:  0.121D-03-0.307D-03-0.131D-02-0.315D-02 0.180D-02 0.193D-01
 Coeff-Com:  0.721D-02-0.319D-01-0.165D+00-0.915D-01 0.346D+00 0.919D+00
 Coeff:      0.433D-06-0.121D-05 0.139D-05 0.651D-05 0.656D-04 0.142D-03
 Coeff:      0.121D-03-0.307D-03-0.131D-02-0.315D-02 0.180D-02 0.193D-01
 Coeff:      0.721D-02-0.319D-01-0.165D+00-0.915D-01 0.346D+00 0.919D+00
 Gap=     0.120 Goal=   None    Shift=    0.000
 RMSDP=1.08D-08 MaxDP=9.54D-07 DE=-9.09D-11 OVMax= 6.31D-06

 Cycle  19  Pass 1  IDiag  1:
 RMSU=  3.18D-09    CP:  9.64D-01  1.50D+00  6.90D-01  6.36D-01  9.22D-01
                    CP:  9.52D-01  1.20D+00  1.23D+00  1.56D+00  2.08D+00
                    CP:  1.94D+00  2.06D+00  1.43D+00  1.44D+00  1.75D+00
                    CP:  1.95D+00  1.86D+00  1.26D+00
 E= -4069.80540854434     Delta-E=        0.000000000342 Rises=F Damp=F
 DIIS: error= 2.86D-08 at cycle  19 NSaved=  19.
 NSaved=19 IEnMin=18 EnMin= -4069.80540854468     IErMin=19 ErrMin= 2.86D-08
 ErrMax= 2.86D-08  0.00D+00 EMaxC= 1.00D-01 BMatC= 2.74D-12 BMatP= 6.98D-12
 IDIUse=1 WtCom= 1.00D+00 WtEn= 0.00D+00
 Coeff-Com:  0.344D-05-0.697D-05-0.115D-04-0.141D-04 0.171D-04 0.167D-03
 Coeff-Com:  0.641D-03 0.847D-03-0.917D-03-0.672D-02-0.632D-02 0.160D-01
 Coeff-Com:  0.256D-01 0.105D-01-0.879D-01-0.207D+00-0.986D-01 0.580D+00
 Coeff-Com:  0.773D+00
 Coeff:      0.344D-05-0.697D-05-0.115D-04-0.141D-04 0.171D-04 0.167D-03
 Coeff:      0.641D-03 0.847D-03-0.917D-03-0.672D-02-0.632D-02 0.160D-01
 Coeff:      0.256D-01 0.105D-01-0.879D-01-0.207D+00-0.986D-01 0.580D+00
 Coeff:      0.773D+00
 Gap=     0.120 Goal=   None    Shift=    0.000
 RMSDP=7.10D-09 MaxDP=3.28D-07 DE= 3.42D-10 OVMax= 4.08D-06

 SCF Done:  E(RCAM-B3LYP) =  -4069.80540854     A.U. after   19 cycles
            NFock= 19  Conv=0.71D-08     -V/T= 2.0102
 KE= 4.028849911749D+03 PE=-4.131589193704D+04 EE= 1.729994289229D+04
 Leave Link  502 at Fri Sep  3 13:01:09 2021, MaxMem= 23488102400 cpu:           15933.1 elap:             688.7
 (Enter /sw/apps/gaussian-16.0/g16/l801.exe)
 DoSCS=F DFT=T ScalE2(SS,OS)=  1.000000  1.000000
 ExpMin= 3.36D-02 ExpMax= 4.95D+03 ExpMxC= 7.45D+02 IAcc=3 IRadAn=         5 AccDes= 0.00D+00
 HarFok:  IExCor=  205 AccDes= 0.00D+00 IRadAn=         5 IDoV=-2 UseB2=F ITyADJ=14
 ICtDFT= 12500011 ScaDFX=  1.000000  1.000000  1.000000  1.000000
 GSVD:  LWork=       -9588 too small for GESVD, short by       45590 words or       45590 for optimal perf.
 Largest valence mixing into a core orbital is  2.03D-04
 Largest core mixing into a valence orbital is  5.23D-05
 Range of M.O.s used for correlation:    95  1572
 NBasis=  1572 NAE=   312 NBE=   312 NFC=    94 NFV=     0
 NROrb=   1478 NOA=   218 NOB=   218 NVA=  1260 NVB=  1260
 Leave Link  801 at Fri Sep  3 13:01:10 2021, MaxMem= 23488102400 cpu:               7.7 elap:               0.4
 (Enter /sw/apps/gaussian-16.0/g16/l914.exe)
 RHF ground state
 Two-electron integrals replicated using symmetry.
 MDV= 23488102400 DFT=T DoStab=F Mixed=T DoRPA=T DoScal=F NonHer=T
 Making orbital integer symmetry assigments:
 Orbital symmetries:
       Occupied  (A) (A) (A) (A) (A) (A) (A) (A) (A) (A) (A) (A)
                 (A) (A) (A) (A) (A) (A) (A) (A) (A) (A) (A) (A)
                 (A) (A) (A) (A) (A) (A) (A) (A) (A) (A) (A) (A)
                 (A) (A) (A) (A) (A) (A) (A) (A) (A) (A) (A) (A)
                 (A) (A) (A) (A) (A) (A) (A) (A) (A) (A) (A) (A)
                 (A) (A) (A) (A) (A) (A) (A) (A) (A) (A) (A) (A)
                 (A) (A) (A) (A) (A) (A) (A) (A) (A) (A) (A) (A)
                 (A) (A) (A) (A) (A) (A) (A) (A) (A) (A) (A) (A)
                 (A) (A) (A) (A) (A) (A) (A) (A) (A) (A) (A) (A)
                 (A) (A) (A) (A) (A) (A) (A) (A) (A) (A) (A) (A)
                 (A) (A) (A) (A) (A) (A) (A) (A) (A) (A) (A) (A)
                 (A) (A) (A) (A) (A) (A) (A) (A) (A) (A) (A) (A)
                 (A) (A) (A) (A) (A) (A) (A) (A) (A) (A) (A) (A)
                 (A) (A) (A) (A) (A) (A) (A) (A) (A) (A) (A) (A)
                 (A) (A) (A) (A) (A) (A) (A) (A) (A) (A) (A) (A)
                 (A) (A) (A) (A) (A) (A) (A) (A) (A) (A) (A) (A)
                 (A) (A) (A) (A) (A) (A) (A) (A) (A) (A) (A) (A)
                 (A) (A) (A) (A) (A) (A) (A) (A) (A) (A) (A) (A)
                 (A) (A) (A) (A) (A) (A) (A) (A) (A) (A) (A) (A)
                 (A) (A) (A) (A) (A) (A) (A) (A) (A) (A) (A) (A)
                 (A) (A) (A) (A) (A) (A) (A) (A) (A) (A) (A) (A)
                 (A) (A) (A) (A) (A) (A) (A) (A) (A) (A) (A) (A)
                 (A) (A) (A) (A) (A) (A) (A) (A) (A) (A) (A) (A)
                 (A) (A) (A) (A) (A) (A) (A) (A) (A) (A) (A) (A)
                 (A) (A) (A) (A) (A) (A) (A) (A) (A) (A) (A) (A)
                 (A) (A) (A) (A) (A) (A) (A) (A) (A) (A) (A) (A)
       Virtual   (A) (A) (A) (A) (A) (A) (A) (A) (A) (A) (A) (A)
                 (A) (A) (A) (A) (A) (A) (A) (A) (A) (A) (A) (A)
                 (A) (A) (A) (A) (A) (A) (A) (A) (A) (A) (A) (A)
                 (A) (A) (A) (A) (A) (A) (A) (A) (A) (A) (A) (A)
                 (A) (A) (A) (A) (A) (A) (A) (A) (A) (A) (A) (A)
                 (A) (A) (A) (A) (A) (A) (A) (A) (A) (A) (A) (A)
                 (A) (A) (A) (A) (A) (A) (A) (A) (A) (A) (A) (A)
                 (A) (A) (A) (A) (A) (A) (A) (A) (A) (A) (A) (A)
                 (A) (A) (A) (A) (A) (A) (A) (A) (A) (A) (A) (A)
                 (A) (A) (A) (A) (A) (A) (A) (A) (A) (A) (A) (A)
                 (A) (A) (A) (A) (A) (A) (A) (A) (A) (A) (A) (A)
                 (A) (A) (A) (A) (A) (A) (A) (A) (A) (A) (A) (A)
                 (A) (A) (A) (A) (A) (A) (A) (A) (A) (A) (A) (A)
                 (A) (A) (A) (A) (A) (A) (A) (A) (A) (A) (A) (A)
                 (A) (A) (A) (A) (A) (A) (A) (A) (A) (A) (A) (A)
                 (A) (A) (A) (A) (A) (A) (A) (A) (A) (A) (A) (A)
                 (A) (A) (A) (A) (A) (A) (A) (A) (A) (A) (A) (A)
                 (A) (A) (A) (A) (A) (A) (A) (A) (A) (A) (A) (A)
                 (A) (A) (A) (A) (A) (A) (A) (A) (A) (A) (A) (A)
                 (A) (A) (A) (A) (A) (A) (A) (A) (A) (A) (A) (A)
                 (A) (A) (A) (A) (A) (A) (A) (A) (A) (A) (A) (A)
                 (A) (A) (A) (A) (A) (A) (A) (A) (A) (A) (A) (A)
                 (A) (A) (A) (A) (A) (A) (A) (A) (A) (A) (A) (A)
                 (A) (A) (A) (A) (A) (A) (A) (A) (A) (A) (A) (A)
                 (A) (A) (A) (A) (A) (A) (A) (A) (A) (A) (A) (A)
                 (A) (A) (A) (A) (A) (A) (A) (A) (A) (A) (A) (A)
                 (A) (A) (A) (A) (A) (A) (A) (A) (A) (A) (A) (A)
                 (A) (A) (A) (A) (A) (A) (A) (A) (A) (A) (A) (A)
                 (A) (A) (A) (A) (A) (A) (A) (A) (A) (A) (A) (A)
                 (A) (A) (A) (A) (A) (A) (A) (A) (A) (A) (A) (A)
                 (A) (A) (A) (A) (A) (A) (A) (A) (A) (A) (A) (A)
                 (A) (A) (A) (A) (A) (A) (A) (A) (A) (A) (A) (A)
                 (A) (A) (A) (A) (A) (A) (A) (A) (A) (A) (A) (A)
                 (A) (A) (A) (A) (A) (A) (A) (A) (A) (A) (A) (A)
                 (A) (A) (A) (A) (A) (A) (A) (A) (A) (A) (A) (A)
                 (A) (A) (A) (A) (A) (A) (A) (A) (A) (A) (A) (A)
                 (A) (A) (A) (A) (A) (A) (A) (A) (A) (A) (A) (A)
                 (A) (A) (A) (A) (A) (A) (A) (A) (A) (A) (A) (A)
                 (A) (A) (A) (A) (A) (A) (A) (A) (A) (A) (A) (A)
                 (A) (A) (A) (A) (A) (A) (A) (A) (A) (A) (A) (A)
                 (A) (A) (A) (A) (A) (A) (A) (A) (A) (A) (A) (A)
                 (A) (A) (A) (A) (A) (A) (A) (A) (A) (A) (A) (A)
                 (A) (A) (A) (A) (A) (A) (A) (A) (A) (A) (A) (A)
                 (A) (A) (A) (A) (A) (A) (A) (A) (A) (A) (A) (A)
                 (A) (A) (A) (A) (A) (A) (A) (A) (A) (A) (A) (A)
                 (A) (A) (A) (A) (A) (A) (A) (A) (A) (A) (A) (A)
                 (A) (A) (A) (A) (A) (A) (A) (A) (A) (A) (A) (A)
                 (A) (A) (A) (A) (A) (A) (A) (A) (A) (A) (A) (A)
                 (A) (A) (A) (A) (A) (A) (A) (A) (A) (A) (A) (A)
                 (A) (A) (A) (A) (A) (A) (A) (A) (A) (A) (A) (A)
                 (A) (A) (A) (A) (A) (A) (A) (A) (A) (A) (A) (A)
                 (A) (A) (A) (A) (A) (A) (A) (A) (A) (A) (A) (A)
                 (A) (A) (A) (A) (A) (A) (A) (A) (A) (A) (A) (A)
                 (A) (A) (A) (A) (A) (A) (A) (A) (A) (A) (A) (A)
                 (A) (A) (A) (A) (A) (A) (A) (A) (A) (A) (A) (A)
                 (A) (A) (A) (A) (A) (A) (A) (A) (A) (A) (A) (A)
                 (A) (A) (A) (A) (A) (A) (A) (A) (A) (A) (A) (A)
                 (A) (A) (A) (A) (A) (A) (A) (A) (A) (A) (A) (A)
                 (A) (A) (A) (A) (A) (A) (A) (A) (A) (A) (A) (A)
                 (A) (A) (A) (A) (A) (A) (A) (A) (A) (A) (A) (A)
                 (A) (A) (A) (A) (A) (A) (A) (A) (A) (A) (A) (A)
                 (A) (A) (A) (A) (A) (A) (A) (A) (A) (A) (A) (A)
                 (A) (A) (A) (A) (A) (A) (A) (A) (A) (A) (A) (A)
                 (A) (A) (A) (A) (A) (A) (A) (A) (A) (A) (A) (A)
                 (A) (A) (A) (A) (A) (A) (A) (A) (A) (A) (A) (A)
                 (A) (A) (A) (A) (A) (A) (A) (A) (A) (A) (A) (A)
                 (A) (A) (A) (A) (A) (A) (A) (A) (A) (A) (A) (A)
                 (A) (A) (A) (A) (A) (A) (A) (A) (A) (A) (A) (A)
                 (A) (A) (A) (A) (A) (A) (A) (A) (A) (A) (A) (A)
                 (A) (A) (A) (A) (A) (A) (A) (A) (A) (A) (A) (A)
                 (A) (A) (A) (A) (A) (A) (A) (A) (A) (A) (A) (A)
                 (A) (A) (A) (A) (A) (A) (A) (A) (A) (A) (A) (A)
                 (A) (A) (A) (A) (A) (A) (A) (A) (A) (A) (A) (A)
                 (A) (A) (A) (A) (A) (A) (A) (A) (A) (A) (A) (A)
                 (A) (A) (A) (A) (A) (A) (A) (A) (A) (A) (A) (A)
                 (A) (A) (A) (A) (A) (A) (A) (A) (A) (A) (A) (A)
                 (A) (A) (A) (A) (A) (A) (A) (A) (A) (A) (A) (A)
                 (A) (A) (A) (A) (A) (A) (A) (A) (A) (A) (A) (A)
                 (A) (A) (A) (A) (A) (A) (A) (A) (A) (A) (A) (A)
                 (A) (A) (A) (A) (A) (A) (A) (A) (A) (A) (A) (A)
                 (A) (A) (A) (A) (A) (A) (A) (A) (A) (A) (A) (A)
                 (A) (A) (A) (A) (A) (A) (A) (A) (A) (A) (A) (A)
                 (A) (A) (A) (A) (A) (A) (A) (A) (A) (A) (A) (A)
                 (A) (A) (A) (A) (A) (A) (A) (A) (A) (A) (A) (A)
                 (A) (A) (A) (A) (A) (A) (A) (A) (A) (A) (A) (A)
                 (A) (A) (A) (A) (A) (A) (A) (A) (A) (A) (A) (A)
                 (A) (A) (A) (A) (A) (A) (A) (A) (A) (A) (A) (A)
                 (A) (A) (A) (A) (A) (A) (A) (A) (A) (A) (A) (A)
                 (A) (A) (A) (A) (A) (A) (A) (A) (A) (A) (A) (A)
                 (A) (A) (A) (A) (A) (A) (A) (A) (A) (A) (A) (A)
                 (A) (A) (A) (A) (A) (A) (A) (A) (A) (A) (A) (A)
                 (A) (A) (A) (A) (A) (A) (A) (A) (A) (A) (A) (A)
                 (A) (A) (A) (A) (A) (A) (A) (A) (A) (A) (A) (A)
                 (A) (A) (A) (A) (A) (A) (A) (A) (A) (A) (A) (A)
                 (A) (A) (A) (A) (A) (A) (A) (A) (A) (A) (A) (A)
                 (A) (A) (A) (A) (A) (A) (A) (A) (A) (A) (A) (A)
                 (A) (A) (A) (A) (A) (A) (A) (A) (A) (A) (A) (A)
                 (A) (A) (A) (A) (A) (A) (A) (A) (A) (A) (A) (A)
                 (A) (A) (A) (A) (A) (A) (A) (A) (A) (A) (A) (A)
                 (A) (A) (A) (A) (A) (A) (A) (A) (A) (A) (A) (A)
                 (A) (A) (A) (A) (A) (A) (A) (A) (A) (A) (A) (A)
                 (A) (A) (A) (A) (A) (A) (A) (A) (A) (A) (A) (A)
                 (A) (A) (A) (A) (A) (A) (A) (A) (A) (A) (A) (A)
                 (A) (A) (A) (A) (A) (A) (A) (A) (A) (A) (A) (A)
                 (A) (A) (A) (A) (A) (A) (A) (A) (A) (A) (A) (A)
    20 initial guesses have been made.
 Convergence on wavefunction:    0.001000000000000
 Davidson Disk Diagonalization:  ConvIn= 1.00D-03 SkipCon=T Conv= 1.00D-03.
 Max sub-space:  2000 roots to seek:    20 dimension of matrix:       549360
 Iteration     1 Dimension    20 NMult     0 NNew     20
 CISAX will form    20 AO SS matrices at one time.
 NMat=    20 NSing=    20 JSym2X= 0.
 FoFJK:  IHMeth= 1 ICntrl=       0 DoSepK=T KAlg= 0 I1Cent=           0 FoldK=F
 IRaf=         1 NMat=      40 IRICut=       1 DoRegI=T DoRafI=F ISym2E= 0 IDoP0=3 IntGTp=3.
 FoFCou: FMM=T IPFlag=           0 FMFlag=      100000 FMFlg1=        2001
         NFxFlg=           0 DoJE=F BraDBF=F KetDBF=F FulRan=T
         wScrn=  0.000000 ICntrl=       500 IOpCl=  0 I1Cent=           0 NGrid=           0
         NMat0=   20 NMatS0=     20 NMatT0=    0 NMatD0=   20 NMtDS0=    0 NMtDT0=    0
 Symmetry not used in FoFCou.
 FMM levels:  10  Number of levels for PrismC:   9
 New state      2 was old state      4
 New state      3 was old state      2
 New state      4 was old state      6
 New state      5 was old state      7
 Excitation Energies [eV] at current iteration:
 Root      1 :     2.238999872551440
 Root      2 :     2.455296737742668
 Root      3 :     2.582611891845402
 Root      4 :     2.615636295976972
 Root      5 :     2.628574146624904
 Root      6 :     2.776124000908018
 Root      7 :     3.023628383178737
 Root      8 :     3.247900998414596
 Root      9 :     3.639232732014049
 Root     10 :     3.673735171518600
 Root     11 :     3.720920270849855
 Root     12 :     3.753530759735745
 Root     13 :     4.135752889905692
 Root     14 :     4.237791730407046
 Root     15 :     4.380178332048172
 Root     16 :     4.382652290761162
 Root     17 :     4.470038917483742
 Root     18 :     4.501198115101395
 Root     19 :     4.638906448375836
 Root     20 :     4.758750535525847
 Iteration     2 Dimension    30 NMult    20 NNew     10
 CISAX will form    10 AO SS matrices at one time.
 NMat=    10 NSing=    10 JSym2X= 0.
 New state      1 was old state      3
 Root      1 not converged, maximum delta is    0.254697447175728
 New state      2 was old state      4
 Root      2 not converged, maximum delta is    0.129978038826073
 New state      3 was old state      1
 Root      3 not converged, maximum delta is    0.048441831609245
 New state      4 was old state      5
 Root      4 not converged, maximum delta is    0.140450335382175
 New state      5 was old state      2
 Root      5 not converged, maximum delta is    0.016142063165457
 Excitation Energies [eV] at current iteration:
 Root      1 :     1.759584780465239   Change is   -0.823027111380162
 Root      2 :     2.226376597087111   Change is   -0.389259698889860
 Root      3 :     2.237694754555942   Change is   -0.001305117995499
 Root      4 :     2.245818517548979   Change is   -0.382755629075925
 Root      5 :     2.453583815504141   Change is   -0.001712922238528
 Iteration     3 Dimension    40 NMult    30 NNew     10
 CISAX will form    10 AO SS matrices at one time.
 NMat=    10 NSing=    10 JSym2X= 0.
 Root      1 not converged, maximum delta is    0.054034030295396
 No map to state      2
 New state      3 was old state      2
 Root      3 not converged, maximum delta is    0.053161313498302
 Root      4 not converged, maximum delta is    0.072454335660753
 New state      5 was old state      3
 Root      5 not converged, maximum delta is    0.058197606150064
 Excitation Energies [eV] at current iteration:
 Root      1 :     1.657199042869350   Change is   -0.102385737595889
 Root      2 :     1.808790179630334
 Root      3 :     2.189209706549320   Change is   -0.037166890537791
 Root      4 :     2.207490593115747   Change is   -0.038327924433232
 Root      5 :     2.237780216744194   Change is    0.000085462188253
 Iteration     4 Dimension    50 NMult    40 NNew     10
 CISAX will form    10 AO SS matrices at one time.
 NMat=    10 NSing=    10 JSym2X= 0.
 Root      1 not converged, maximum delta is    0.009900156231918
 Root      2 not converged, maximum delta is    0.028231461120702
 Root      3 not converged, maximum delta is    0.010399053053290
 Root      4 not converged, maximum delta is    0.010854414062890
 Root      5 not converged, maximum delta is    0.003124594550450
 Excitation Energies [eV] at current iteration:
 Root      1 :     1.640911932724774   Change is   -0.016287110144576
 Root      2 :     1.726713023946539   Change is   -0.082077155683795
 Root      3 :     2.182606474999598   Change is   -0.006603231549723
 Root      4 :     2.199865835086249   Change is   -0.007624758029498
 Root      5 :     2.237768197729420   Change is   -0.000012019014775
 Iteration     5 Dimension    60 NMult    50 NNew     10
 CISAX will form    10 AO SS matrices at one time.
 NMat=    10 NSing=    10 JSym2X= 0.
 Root      1 not converged, maximum delta is    0.001390287994139
 Root      2 not converged, maximum delta is    0.013968968166721
 Root      3 not converged, maximum delta is    0.002888733633520
 Root      4 not converged, maximum delta is    0.002826857288475
 Root      5 has converged.
 Excitation Energies [eV] at current iteration:
 Root      1 :     1.639259686512079   Change is   -0.001652246212694
 Root      2 :     1.712410304593651   Change is   -0.014302719352888
 Root      3 :     2.181769925170556   Change is   -0.000836549829042
 Root      4 :     2.199005699078862   Change is   -0.000860136007387
 Root      5 :     2.237766801865607   Change is   -0.000001395863813
 Iteration     6 Dimension    68 NMult    60 NNew      8
 CISAX will form     8 AO SS matrices at one time.
 NMat=     8 NSing=     8 JSym2X= 0.
 Root      1 has converged.
 Root      2 not converged, maximum delta is    0.001463760683320
 Root      3 has converged.
 Root      4 has converged.
 Root      5 has converged.
 Excitation Energies [eV] at current iteration:
 Root      1 :     1.639026746412005   Change is   -0.000232940100075
 Root      2 :     1.711325112277298   Change is   -0.001085192316353
 Root      3 :     2.181654733332647   Change is   -0.000115191837908
 Root      4 :     2.198880057801698   Change is   -0.000125641277164
 Root      5 :     2.237766673226309   Change is   -0.000000128639298
 Iteration     7 Dimension    70 NMult    68 NNew      2
 CISAX will form     2 AO SS matrices at one time.
 NMat=     2 NSing=     2 JSym2X= 0.
 Root      1 has converged.
 Root      2 has converged.
 Root      3 has converged.
 Root      4 has converged.
 Root      5 has converged.
 Excitation Energies [eV] at current iteration:
 Root      1 :     1.639026703214892   Change is   -0.000000043197113
 Root      2 :     1.711191440485638   Change is   -0.000133671791659
[...]
 Alpha virt. eigenvalues --    1.84706   1.84826   1.84891   1.85130   1.85323
 Alpha virt. eigenvalues --    1.85353   1.85596   1.85674   1.85753   1.85839
 Alpha virt. eigenvalues --    1.86068   1.86157   1.86436   1.86638   1.86643
 Alpha virt. eigenvalues --    1.86957   1.87084   1.87140   1.87250   1.87291
 Alpha virt. eigenvalues --    1.87584   1.87678   1.87874   1.87971   1.87992
 Alpha virt. eigenvalues --    1.88219   1.88423   1.88525   1.88587   1.88777
 Alpha virt. eigenvalues --    1.89189   1.89373   1.89501   1.89675   1.89921
 Alpha virt. eigenvalues --    1.89963   1.90120   1.90314   1.90606   1.90874
 Alpha virt. eigenvalues --    1.91231   1.91351   1.91549   1.91754   1.92004
 Alpha virt. eigenvalues --    1.92202   1.92510   1.92737   1.92859   1.93040
 Alpha virt. eigenvalues --    1.93399   1.93552   1.93763   1.94234   1.94505
 Alpha virt. eigenvalues --    1.94625   1.95029   1.95104   1.95642   1.95692
 Alpha virt. eigenvalues --    1.95812   1.95939   1.96248   1.96319   1.96381
 Alpha virt. eigenvalues --    1.96521   1.96876   1.96978   1.97360   1.97546
 Alpha virt. eigenvalues --    1.97737   1.97780   1.98051   1.98140   1.98428
 Alpha virt. eigenvalues --    1.98654   1.98911   1.99073   1.99150   1.99731
 Alpha virt. eigenvalues --    1.99933   2.00606   2.00888   2.01057   2.01109
 Alpha virt. eigenvalues --    2.01461   2.01581   2.01719   2.01781   2.01950
 Alpha virt. eigenvalues --    2.02663   2.02702   2.02833   2.03126   2.03329
 Alpha virt. eigenvalues --    2.03412   2.03430   2.03796   2.03977   2.04211
 Alpha virt. eigenvalues --    2.04647   2.04916   2.05218   2.05583   2.05869
 Alpha virt. eigenvalues --    2.06084   2.06439   2.06915   2.07137   2.07173
 Alpha virt. eigenvalues --    2.07632   2.07716   2.08808   2.08902   2.08923
 Alpha virt. eigenvalues --    2.09243   2.09570   2.09858   2.10910   2.11136
 Alpha virt. eigenvalues --    2.11228   2.11546   2.11660   2.11763   2.11852
 Alpha virt. eigenvalues --    2.12348   2.12494   2.12704   2.12837   2.12944
 Alpha virt. eigenvalues --    2.13212   2.13651   2.13755   2.14463   2.14689
 Alpha virt. eigenvalues --    2.14876   2.15627   2.15712   2.15885   2.16372
 Alpha virt. eigenvalues --    2.16630   2.16804   2.17238   2.17428   2.17656
 Alpha virt. eigenvalues --    2.17861   2.17890   2.18087   2.18338   2.18452
 Alpha virt. eigenvalues --    2.18767   2.19013   2.19270   2.19783   2.19975
 Alpha virt. eigenvalues --    2.20071   2.20393   2.20634   2.20785   2.21026
 Alpha virt. eigenvalues --    2.21403   2.21682   2.21787   2.22082   2.22087
 Alpha virt. eigenvalues --    2.22368   2.23100   2.23249   2.23628   2.24308
 Alpha virt. eigenvalues --    2.24559   2.24936   2.25207   2.25911   2.26276
 Alpha virt. eigenvalues --    2.26749   2.27053   2.27184   2.27489   2.28089
 Alpha virt. eigenvalues --    2.28553   2.28834   2.29304   2.29697   2.29866
 Alpha virt. eigenvalues --    2.30381   2.30646   2.31074   2.31158   2.31204
 Alpha virt. eigenvalues --    2.31323   2.31877   2.32485   2.33106   2.33229
 Alpha virt. eigenvalues --    2.33528   2.33586   2.33775   2.34303   2.34376
 Alpha virt. eigenvalues --    2.35467   2.35532   2.35751   2.36431   2.36562
 Alpha virt. eigenvalues --    2.36582   2.36634   2.37318   2.37845   2.38235
 Alpha virt. eigenvalues --    2.38284   2.38674   2.38830   2.39300   2.39590
 Alpha virt. eigenvalues --    2.40018   2.40362   2.40413   2.40456   2.41007
 Alpha virt. eigenvalues --    2.41317   2.41680   2.41889   2.42001   2.42333
 Alpha virt. eigenvalues --    2.42370   2.42960   2.43025   2.43214   2.43602
 Alpha virt. eigenvalues --    2.44179   2.44325   2.44700   2.44896   2.45122
 Alpha virt. eigenvalues --    2.45364   2.45588   2.45928   2.46274   2.46424
 Alpha virt. eigenvalues --    2.46583   2.46735   2.46765   2.47022   2.47252
 Alpha virt. eigenvalues --    2.47549   2.47865   2.48107   2.49444   2.49630
 Alpha virt. eigenvalues --    2.50046   2.50146   2.50705   2.50815   2.51116
 Alpha virt. eigenvalues --    2.51535   2.51876   2.51967   2.52457   2.52654
 Alpha virt. eigenvalues --    2.52908   2.53522   2.53964   2.54185   2.54211
 Alpha virt. eigenvalues --    2.54534   2.54949   2.55014   2.55501   2.55952
 Alpha virt. eigenvalues --    2.57833   2.58324   2.58596   2.59257   2.60159
 Alpha virt. eigenvalues --    2.60540   2.60583   2.61212   2.61712   2.62137
 Alpha virt. eigenvalues --    2.62483   2.62696   2.62923   2.63360   2.63819
 Alpha virt. eigenvalues --    2.63888   2.64572   2.64763   2.65176   2.65328
 Alpha virt. eigenvalues --    2.65787   2.66065   2.66782   2.66859   2.67087
 Alpha virt. eigenvalues --    2.67342   2.67914   2.68238   2.68881   2.69009
 Alpha virt. eigenvalues --    2.69052   2.69253   2.69394   2.69869   2.70022
 Alpha virt. eigenvalues --    2.70349   2.70947   2.71284   2.72056   2.72098
 Alpha virt. eigenvalues --    2.72591   2.72658   2.72851   2.72996   2.73231
 Alpha virt. eigenvalues --    2.73461   2.73542   2.73612   2.74493   2.74699
 Alpha virt. eigenvalues --    2.74925   2.75237   2.76512   2.76810   2.77169
 Alpha virt. eigenvalues --    2.77272   2.77439   2.77872   2.78213   2.78569
 Alpha virt. eigenvalues --    2.78696   2.78871   2.79111   2.79380   2.80330
 Alpha virt. eigenvalues --    2.80520   2.80562   2.80863   2.81043   2.81344
 Alpha virt. eigenvalues --    2.81877   2.82174   2.82278   2.82505   2.83695
 Alpha virt. eigenvalues --    2.83746   2.84073   2.84096   2.84488   2.84705
 Alpha virt. eigenvalues --    2.84907   2.85057   2.85679   2.85908   2.86824
 Alpha virt. eigenvalues --    2.87018   2.87368   2.87639   2.88143   2.88431
 Alpha virt. eigenvalues --    2.88508   2.88768   2.88977   2.89081   2.90475
 Alpha virt. eigenvalues --    2.90879   2.91176   2.91651   2.93110   2.93553
 Alpha virt. eigenvalues --    2.93965   2.94195   2.94662   2.94834   2.95388
 Alpha virt. eigenvalues --    2.95805   2.96070   2.96289   2.96663   2.96999
 Alpha virt. eigenvalues --    2.97051   2.97524   2.97831   2.98184   2.98253
 Alpha virt. eigenvalues --    2.98356   2.98561   2.98711   2.98778   2.98847
 Alpha virt. eigenvalues --    2.99046   2.99366   2.99862   2.99972   3.00122
 Alpha virt. eigenvalues --    3.00197   3.00420   3.00525   3.00811   3.01246
 Alpha virt. eigenvalues --    3.01865   3.02036   3.02230   3.02510   3.02760
 Alpha virt. eigenvalues --    3.02970   3.03072   3.03365   3.03664   3.04044
 Alpha virt. eigenvalues --    3.04269   3.04437   3.04557   3.04752   3.05171
 Alpha virt. eigenvalues --    3.05244   3.05617   3.05889   3.06397   3.06659
 Alpha virt. eigenvalues --    3.07227   3.07694   3.08137   3.08286   3.09375
 Alpha virt. eigenvalues --    3.09588   3.09771   3.10409   3.10941   3.11142
 Alpha virt. eigenvalues --    3.11427   3.11673   3.11911   3.11987   3.12489
 Alpha virt. eigenvalues --    3.12817   3.13271   3.13690   3.13882   3.14087
 Alpha virt. eigenvalues --    3.14138   3.14609   3.16078   3.16154   3.17226
 Alpha virt. eigenvalues --    3.17700   3.18118   3.18136   3.19118   3.19249
 Alpha virt. eigenvalues --    3.22298   3.22741   3.23874   3.24608   3.24628
 Alpha virt. eigenvalues --    3.25368   3.26429   3.26844   3.27558   3.27597
 Alpha virt. eigenvalues --    3.29110   3.29354   3.31468   3.31590   3.33357
 Alpha virt. eigenvalues --    3.33379   3.40371   3.40650   3.42801   3.43060
 Alpha virt. eigenvalues --    3.48581   3.48882   3.49951   3.50495   3.51058
 Alpha virt. eigenvalues --    3.51419   3.56497   3.57207   3.59030   3.59520
 Alpha virt. eigenvalues --    3.62700   3.62777   3.66207   3.66382   3.67193
 Alpha virt. eigenvalues --    3.67667   3.73254   3.74167   3.76021   3.76835
          Condensed to atoms (all electrons):
 Mulliken charges:
               1
     1  Mg   0.838558
     2  C   -0.002152
     3  C   -0.094265
     4  C   -0.045869
     5  C   -0.065809
     6  N   -0.256681
     7  C   -0.052661
     8  C   -0.013987
     9  C   -0.087004
    10  C    0.046531
    11  C    0.104759
    12  C    0.052843
    13  C   -0.072265
    14  H    0.037417
    15  N   -0.433416
    16  C    0.169047
    17  C   -0.176940
    18  C   -0.003188
    19  C    0.149417
    20  C    0.110229
    21  C    0.013391
    22  O   -0.248078
    23  C    0.062109
    24  N   -0.341108
    25  C    0.041139
    26  C   -0.029539
    27  C   -0.024737
    28  C    0.074668
    29  C    0.076482
    30  C    0.064082
    31  C   -0.038626
    32  N   -0.310215
    33  C    0.079564
    34  C   -0.171900
    35  C    0.008094
    36  C    0.082761
    37  C    0.127781
    38  C    0.045576
    39  O   -0.189085
    40  C   -0.005104
    41  C    0.212188
    42  O   -0.255926
    43  O   -0.305162
    44  C    0.157051
    45  H   -0.017239
    46  H   -0.016106
    47  H   -0.043089
    48  H    0.001210
    49  H   -0.004055
    50  H    0.025635
    51  H    0.016489
    52  H    0.016940
    53  H    0.010292
    54  H    0.045531
    55  H    0.018067
    56  H    0.017320
    57  H    0.005759
    58  H    0.027520
    59  H    0.039661
    60  H    0.036978
    61  H    0.038178
    62  H    0.031134
    63  H    0.016858
    64  H    0.009428
    65  H    0.023739
    66  H    0.013013
    67  H    0.004670
    68  H    0.003421
    69  H    0.000315
    70  H    0.012162
    71  H    0.016822
    72  H    0.034622
    73  H    0.045617
    74  H    0.007553
    75  H    0.046594
    76  H    0.035231
    77  H    0.042758
    78  H    0.046447
    79  H    0.055749
    80  Mg   0.836693
    81  C   -0.016624
    82  C   -0.087508
    83  C   -0.041144
    84  C   -0.065953
    85  N   -0.254528
    86  C   -0.051203
    87  C   -0.014474
    88  C   -0.075052
    89  C    0.045182
    90  C    0.079929
    91  C    0.063740
    92  C   -0.077437
    93  H    0.034380
    94  N   -0.424502
    95  C    0.163348
    96  C   -0.170400
    97  C   -0.004503
    98  C    0.152681
    99  C    0.097557
   100  C    0.018472
   101  O   -0.253141
   102  C    0.060433
   103  N   -0.350046
   104  C    0.037375
   105  C   -0.020120
   106  C   -0.033997
   107  C    0.088352
   108  C    0.072321
   109  C    0.035105
   110  C   -0.007482
   111  N   -0.323850
   112  C    0.077799
   113  C   -0.164433
   114  C    0.002440
   115  C    0.095365
   116  C    0.131526
   117  C    0.042598
   118  O   -0.188684
   119  C    0.000704
   120  C    0.211019
   121  O   -0.251469
   122  O   -0.305507
   123  C    0.152237
   124  H   -0.018846
   125  H   -0.014601
   126  H   -0.042671
   127  H   -0.001561
   128  H   -0.005364
   129  H    0.035827
   130  H    0.018079
   131  H    0.025100
   132  H    0.013867
   133  H    0.037350
   134  H    0.019556
   135  H    0.019186
   136  H    0.008011
   137  H    0.031869
   138  H    0.038816
   139  H    0.041819
   140  H    0.035447
   141  H    0.032356
   142  H    0.013843
   143  H    0.009870
   144  H    0.023524
   145  H    0.018644
   146  H    0.001958
   147  H    0.005029
   148  H    0.002398
   149  H    0.010844
   150  H    0.017162
   151  H    0.030874
   152  H    0.045510
   153  H    0.007012
   154  H    0.044806
   155  H    0.036035
   156  H    0.043639
   157  H    0.048956
   158  H    0.053259
 Sum of Mulliken charges =  -0.00000
 Mulliken charges with hydrogens summed into heavy atoms:
               1
     1  Mg   0.838558
     2  C   -0.002152
     3  C   -0.111505
     4  C   -0.061976
     5  C   -0.108897
     6  N   -0.256681
     7  C   -0.052661
     8  C   -0.012777
     9  C   -0.091059
    10  C    0.046531
    11  C    0.163822
    12  C    0.108666
    13  C    0.000538
    15  N   -0.433416
    16  C    0.169047
    17  C   -0.176940
    18  C   -0.003188
    19  C    0.149417
    20  C    0.183170
    21  C    0.013391
    22  O   -0.248078
    23  C    0.168399
    24  N   -0.341108
    25  C    0.041139
    26  C   -0.012680
    27  C   -0.015309
    28  C    0.074668
    29  C    0.117905
    30  C    0.067819
    31  C    0.024979
    32  N   -0.310215
    33  C    0.079564
    34  C   -0.171900
    35  C    0.008094
    36  C    0.082761
    37  C    0.227545
    38  C    0.045576
    39  O   -0.189085
    40  C    0.030127
    41  C    0.212188
    42  O   -0.255926
    43  O   -0.305162
    44  C    0.302006
    80  Mg   0.836693
    81  C   -0.016624
    82  C   -0.106354
    83  C   -0.055745
    84  C   -0.108624
    85  N   -0.254528
    86  C   -0.051203
    87  C   -0.016035
    88  C   -0.080416
    89  C    0.045182
    90  C    0.158936
    91  C    0.114957
    92  C   -0.004315
    94  N   -0.424502
    95  C    0.163348
    96  C   -0.170400
    97  C   -0.004503
    98  C    0.152681
    99  C    0.176252
   100  C    0.018472
   101  O   -0.253141
   102  C    0.170055
   103  N   -0.350046
   104  C    0.037375
   105  C   -0.006278
   106  C   -0.024127
   107  C    0.088352
   108  C    0.116447
   109  C    0.042533
   110  C    0.051399
   111  N   -0.323850
   112  C    0.077799
   113  C   -0.164433
   114  C    0.002440
   115  C    0.095365
   116  C    0.228853
   117  C    0.042598
   118  O   -0.188684
   119  C    0.036739
   120  C    0.211019
   121  O   -0.251469
   122  O   -0.305507
   123  C    0.298091
 Electronic spatial extent (au):  <R**2>=          88647.3817
 Charge=             -0.0000 electrons
 Dipole moment (field-independent basis, Debye):
    X=              4.1592    Y=             -1.2521    Z=              0.1904  Tot=              4.3477
 Quadrupole moment (field-independent basis, Debye-Ang):
   XX=           -536.9941   YY=           -532.3140   ZZ=           -451.6656
   XY=            -21.1380   XZ=             57.8423   YZ=             21.0500
 Traceless Quadrupole moment (field-independent basis, Debye-Ang):
   XX=            -30.0029   YY=            -25.3228   ZZ=             55.3257
   XY=            -21.1380   XZ=             57.8423   YZ=             21.0500
 Octapole moment (field-independent basis, Debye-Ang**2):
  XXX=            296.2801  YYY=             49.5473  ZZZ=             95.7537  XYY=             52.0254
  XXY=             -6.8151  XXZ=              8.3436  XZZ=            -63.4271  YZZ=            -33.0269
  YYZ=           -106.7468  XYZ=            -26.7548
 Hexadecapole moment (field-independent basis, Debye-Ang**3):
 XXXX=         -58541.3703 YYYY=         -39349.7251 ZZZZ=         -24224.7400 XXXY=            834.1604
 XXXZ=           2770.0212 YYYX=            473.2168 YYYZ=             36.4267 ZZZX=            261.4833
 ZZZY=           -244.0633 XXYY=         -15370.5670 XXZZ=         -13748.3400 YYZZ=          -9606.8876
 XXYZ=            988.6245 YYXZ=            556.6144 ZZXY=           -600.1505
 N-N= 1.591729372445D+04 E-N=-4.131589193424D+04  KE= 4.028849911749D+03
 Leave Link  601 at Fri Sep  3 13:24:59 2021, MaxMem= 23488102400 cpu:              17.5 elap:               0.9
 (Enter /sw/apps/gaussian-16.0/g16/l9999.exe)
 1\1\GINC-BP1-COMPUTE00129\SP\RCAM-B3LYP TD-FC\def2SVP\C68H72Mg2N8O8\OF
 15641\03-Sep-2021\0\\#p cam-b3lyp/Def2SVP td=(nstates=5)\\TDDFT excite
 d states in gaussian\\0,1\Mg,0,0.,0.,0.\C,0,-0.217,-2.218,2.801\C,0,-1
 .255,2.442,2.026\C,0,-0.245,1.85,-2.564\C,0,0.146,-2.824,-2.037\N,0,-0
 .617,-0.009,2.126\C,0,-0.594,-0.908,3.105\C,0,-0.936,-0.309,4.502\C,0,
 -1.773,0.964,4.032\C,0,-1.155,1.168,2.66\C,0,-3.263,0.685,3.863\C,0,0.
 345,0.11,5.299\C,0,0.124,0.397,6.787\H,0,1.168,0.033,7.733\N,0,-0.185,
 1.961,-0.152\C,0,-0.703,2.8,0.777\C,0,-0.62,4.156,0.193\C,0,-0.187,4.0
 15,-1.225\C,0,-0.214,2.583,-1.38\C,0,-0.887,5.406,0.974\C,0,0.181,5.01
 3,-2.277\O,0,0.303,4.69,-3.508\C,0,0.31,6.414,-1.837\N,0,-0.265,-0.413
 ,-2.029\C,0,-0.279,0.569,-2.937\C,0,-0.196,0.024,-4.332\C,0,0.124,-1.5
 33,-4.18\C,0,0.086,-1.632,-2.635\C,0,-1.451,0.205,-5.197\C,0,1.373,-2.
 07,-4.923\C,0,2.626,-1.49,-4.306\N,0,0.15,-2.144,0.303\C,0,0.173,-3.13
 6,-0.688\C,0,0.173,-4.438,0.004\C,0,0.133,-4.111,1.358\C,0,0.083,-2.69
 5,1.502\C,0,0.149,-5.715,-0.623\C,0,0.096,-4.629,2.716\O,0,0.208,-5.74
 7,3.221\C,0,-0.255,-3.428,3.701\C,0,0.717,-3.482,4.848\O,0,1.931,-3.25
 5,4.669\O,0,0.038,-3.556,6.003\C,0,0.943,-3.583,7.183\H,0,-1.859,3.22,
 2.497\H,0,-0.218,2.453,-3.474\H,0,0.276,-3.747,-2.605\H,0,-1.554,-0.94
 9,5.132\H,0,-1.585,1.831,4.665\H,0,-3.484,-0.377,3.969\H,0,-3.511,1.02
 7,2.858\H,0,-3.852,1.301,4.543\H,0,0.669,1.096,4.966\H,0,1.13,-0.639,5
 .189\H,0,-0.844,0.026,7.125\H,0,0.062,1.477,6.921\H,0,-1.344,5.186,1.9
 38\H,0,-1.651,5.963,0.432\H,0,0.007,6.02,1.084\H,0,-0.635,6.744,-1.405
 \H,0,0.665,6.97,-2.704\H,0,1.048,6.466,-1.036\H,0,0.608,0.501,-4.891\H
 ,0,-0.692,-2.156,-4.547\H,0,-1.267,0.74,-6.129\H,0,-2.204,0.714,-4.596
 \H,0,-1.967,-0.72,-5.453\H,0,1.356,-1.759,-5.967\H,0,1.452,-3.157,-4.9
 02\H,0,2.714,-0.522,-4.798\H,0,3.487,-2.121,-4.529\H,0,2.495,-1.303,-3
 .24\H,0,0.867,-6.333,-0.084\H,0,0.404,-5.642,-1.68\H,0,-0.891,-5.999,-
 0.463\H,0,-1.283,-3.581,4.028\H,0,0.698,-4.478,7.755\H,0,0.833,-2.619,
 7.68\H,0,2.,-3.754,6.976\Mg,0,7.89124,0.70445,0.59446\C,0,7.81996,2.01
 041,-2.74747\C,0,7.38921,-2.38473,-0.76182\C,0,7.49947,-0.41475,3.5374
 7\C,0,7.2453,3.93779,1.72317\N,0,7.6521,0.02816,-1.49784\C,0,7.70451,0
 .6059,-2.68856\C,0,7.70971,-0.38411,-3.88414\C,0,7.00256,-1.63362,-3.1
 6475\C,0,7.39749,-1.33897,-1.71911\C,0,5.48624,-1.6044,-3.26108\C,0,9.
 16221,-0.74095,-4.35839\C,0,9.24035,-1.45446,-5.70988\H,0,10.36965,-1.
 16059,-6.58784\N,0,7.98973,-1.15325,1.28569\C,0,7.7796,-2.29174,0.5921
 7\C,0,7.95064,-3.38839,1.55771\C,0,8.11649,-2.79793,2.91365\C,0,7.8483
 4,-1.40269,2.62818\C,0,8.02534,-4.83022,1.14665\C,0,8.44746,-3.3927,4.
 24891\O,0,8.30598,-2.72818,5.33575\C,0,8.85294,-4.80586,4.25478\N,0,7.
 22985,1.58096,2.35986\C,0,7.20536,0.88528,3.51023\C,0,6.95901,1.79311,
 4.69156\C,0,7.06424,3.28234,4.11825\C,0,7.274,2.96317,2.62175\C,0,5.61
 609,1.61423,5.39934\C,0,8.07003,4.23663,4.81854\C,0,9.48553,3.76876,4.
 56786\N,0,7.76677,2.66783,-0.29868\C,0,7.45929,3.8829,0.35182\C,0,7.37
 984,4.92679,-0.69049\C,0,7.62586,4.23687,-1.88714\C,0,7.8233,2.85666,-
 1.61231\C,0,7.06356,6.29743,-0.47271\C,0,7.7529,4.36052,-3.32146\O,0,7
 .77066,5.30137,-4.11407\C,0,7.75898,2.90312,-3.95575\C,0,8.89457,2.829
 38,-4.93938\O,0,10.07322,2.91202,-4.55135\O,0,8.41418,2.45761,-6.13995
 \C,0,9.50455,2.35976,-7.14659\H,0,7.00807,-3.36088,-1.06309\H,0,7.4603
 7,-0.72883,4.58308\H,0,7.14504,4.98829,2.00437\H,0,7.12439,-0.06713,-4
 .73895\H,0,7.43459,-2.57516,-3.49371\H,0,5.1279,-0.68359,-3.69677\H,0,
 5.12496,-1.70856,-2.24635\H,0,5.1258,-2.48458,-3.80117\H,0,9.5686,-1.5
 2595,-3.70772\H,0,9.7832,0.13353,-4.375\H,0,8.29608,-1.39178,-6.26429\
 H,0,9.3753,-2.52386,-5.53042\H,0,7.70594,-4.96899,0.10639\H,0,7.27552,
 -5.36979,1.73528\H,0,9.00653,-5.27145,1.3344\H,0,8.05928,-5.41109,3.82
 32\H,0,9.13442,-5.02483,5.28662\H,0,9.72661,-4.92185,3.60373\H,0,7.718
 75,1.65439,5.45094\H,0,6.10593,3.81686,4.19424\H,0,5.71771,1.38792,6.4
 7755\H,0,5.06692,0.82951,4.8962\H,0,4.93561,2.46025,5.31935\H,0,7.9227
 5,4.21385,5.90111\H,0,7.97646,5.27023,4.50248\H,0,9.62936,2.99779,5.33
 075\H,0,10.18877,4.58885,4.69799\H,0,9.57211,3.28372,3.58862\H,0,7.753
 16,6.87534,-1.07352\H,0,7.1365,6.55978,0.58067\H,0,6.03066,6.31846,-0.
 8304\H,0,6.79138,2.75054,-4.43538\H,0,9.22438,3.00518,-7.98482\H,0,9.6
 194,1.28013,-7.35862\H,0,10.47188,2.76858,-6.87901\\Version=ES64L-G16R
 evA.03\State=1-A\HF=-4069.8054085\RMSD=7.095e-09\PG=C01 [X(C68H72Mg2N8
 O8)]\\@


 AND THIS OUR LIFE, EXEMPT FROM PUBLIC HAUNT,
 FINDS TONGUES IN TREES, BOOKS IN THE RUNNING BROOKS,
 SERMONS IN STONES, AND GOOD IN EVERYTHING.
 I WOULD NOT CHANGE IT. -- W. SHAKESPEARE
 AS YOU LIKE IT, ACT II, SCENE 1.
 Job cpu time:       0 days 13 hours 58 minutes  1.7 seconds.
 Elapsed time:       0 days  0 hours 35 minutes 33.0 seconds.
 File lengths (MBytes):  RWF=  13225 Int=      0 D2E=      0 Chk=    574 Scr=      1
 Normal termination of Gaussian 16 at Fri Sep  3 13:25:00 2021.
