 Entering Gaussian System, Link 0=g16
 Initial command:
 /sw/apps/gaussian-16.0/g16/l1.exe "/tmp/Gau-221004.inp" -scrdir="/tmp/"
 Entering Link 1 = /sw/apps/gaussian-16.0/g16/l1.exe PID=    221005.
  
 Copyright (c) 1988,1990,1992,1993,1995,1998,2003,2009,2016,
            Gaussian, Inc.  All Rights Reserved.
  
 This is part of the Gaussian(R) 16 program.  It is based on
 the Gaussian(R) 09 system (copyright 2009, Gaussian, Inc.),
 the Gaussian(R) 03 system (copyright 2003, Gaussian, Inc.),
 the Gaussian(R) 98 system (copyright 1998, Gaussian, Inc.),
 the Gaussian(R) 94 system (copyright 1995, Gaussian, Inc.),
 the Gaussian 92(TM) system (copyright 1992, Gaussian, Inc.),
 the Gaussian 90(TM) system (copyright 1990, Gaussian, Inc.),
 the Gaussian 88(TM) system (copyright 1988, Gaussian, Inc.),
 the Gaussian 86(TM) system (copyright 1986, Carnegie Mellon
 University), and the Gaussian 82(TM) system (copyright 1983,
 Carnegie Mellon University). Gaussian is a federally registered
 trademark of Gaussian, Inc.
  
 This software contains proprietary and confidential information,
 including trade secrets, belonging to Gaussian, Inc.
  
 This software is provided under written license and may be
 used, copied, transmitted, or stored only in accord with that
 written license.
  
 The following legend is applicable only to US Government
 contracts under FAR:
  
                    RESTRICTED RIGHTS LEGEND
  
 Use, reproduction and disclosure by the US Government is
 subject to restrictions as set forth in subparagraphs (a)
 and (c) of the Commercial Computer Software - Restricted
 Rights clause in FAR 52.227-19.
  
 Gaussian, Inc.
 340 Quinnipiac St., Bldg. 40, Wallingford CT 06492
  
  
 ---------------------------------------------------------------
 Warning -- This program may not be used in any manner that
 competes with the business of Gaussian, Inc. or will provide
 assistance to any competitor of Gaussian, Inc.  The licensee
 of this program is prohibited from giving any competitor of
 Gaussian, Inc. access to this program.  By using this program,
 the user acknowledges that Gaussian, Inc. is engaged in the
 business of creating and licensing software in the field of
 computational chemistry and represents and warrants to the
 licensee that it is not a competitor of Gaussian, Inc. and that
 it will not use this program in any manner prohibited above.
 ---------------------------------------------------------------
  

 Cite this work as:
 Gaussian 16, Revision A.03,
 M. J. Frisch, G. W. Trucks, H. B. Schlegel, G. E. Scuseria, 
 M. A. Robb, J. R. Cheeseman, G. Scalmani, V. Barone, 
 G. A. Petersson, H. Nakatsuji, X. Li, M. Caricato, A. V. Marenich, 
 J. Bloino, B. G. Janesko, R. Gomperts, B. Mennucci, H. P. Hratchian, 
 J. V. Ortiz, A. F. Izmaylov, J. L. Sonnenberg, D. Williams-Young, 
 F. Ding, F. Lipparini, F. Egidi, J. Goings, B. Peng, A. Petrone, 
 T. Henderson, D. Ranasinghe, V. G. Zakrzewski, J. Gao, N. Rega, 
 G. Zheng, W. Liang, M. Hada, M. Ehara, K. Toyota, R. Fukuda, 
 J. Hasegawa, M. Ishida, T. Nakajima, Y. Honda, O. Kitao, H. Nakai, 
 T. Vreven, K. Throssell, J. A. Montgomery, Jr., J. E. Peralta, 
 F. Ogliaro, M. J. Bearpark, J. J. Heyd, E. N. Brothers, K. N. Kudin, 
 V. N. Staroverov, T. A. Keith, R. Kobayashi, J. Normand, 
 K. Raghavachari, A. P. Rendell, J. C. Burant, S. S. Iyengar, 
 J. Tomasi, M. Cossi, J. M. Millam, M. Klene, C. Adamo, R. Cammi, 
 J. W. Ochterski, R. L. Martin, K. Morokuma, O. Farkas, 
 J. B. Foresman, and D. J. Fox, Gaussian, Inc., Wallingford CT, 2016.
 
 ******************************************
 Gaussian 16:  ES64L-G16RevA.03 25-Dec-2016
                12-Sep-2021 
 ******************************************
 %nproc=24
 Will use up to   24 processors via shared memory.
 %mem=175gb
 -----------------------------------
 #p cam-b3lyp/Def2SVP td=(nstates=5)
 -----------------------------------
 1/38=1,172=1/1;
 2/12=2,17=6,18=5,40=1/2;
 3/5=43,7=101,11=9,25=1,30=1,74=-40/1,2,3,8;
 4//1;
 5/5=2,38=5/2;
 8/6=1,10=1,108=5/1;
 9/41=5,42=1,70=2/14;
 6/7=2,8=2,9=2,10=2/1;
 99/5=1,9=1/99;
 Leave Link    1 at Sun Sep 12 01:48:43 2021, MaxMem= 23488102400 cpu:               0.9 elap:               0.0
 (Enter /sw/apps/gaussian-16.0/g16/l101.exe)
 --------------------------------
 TDDFT excited states in gaussian
 --------------------------------
 Symbolic Z-matrix:
 Charge =  0 Multiplicity = 1
 Mg                    0.        0.        0. 
 C                    -0.217    -2.218     2.801 
 C                    -1.255     2.442     2.026 
 C                    -0.245     1.85     -2.564 
 C                     0.146    -2.824    -2.037 
 N                    -0.617    -0.009     2.126 
 C                    -0.594    -0.908     3.105 
 C                    -0.936    -0.309     4.502 
 C                    -1.773     0.964     4.032 
 C                    -1.155     1.168     2.66 
 C                    -3.263     0.685     3.863 
 C                     0.345     0.11      5.299 
 C                     0.124     0.397     6.787 
 H                     1.168     0.033     7.733 
 N                    -0.185     1.961    -0.152 
 C                    -0.703     2.8       0.777 
 C                    -0.62      4.156     0.193 
 C                    -0.187     4.015    -1.225 
 C                    -0.214     2.583    -1.38 
 C                    -0.887     5.406     0.974 
 C                     0.181     5.013    -2.277 
 O                     0.303     4.69     -3.508 
 C                     0.31      6.414    -1.837 
 N                    -0.265    -0.413    -2.029 
 C                    -0.279     0.569    -2.937 
 C                    -0.196     0.024    -4.332 
 C                     0.124    -1.533    -4.18 
 C                     0.086    -1.632    -2.635 
 C                    -1.451     0.205    -5.197 
 C                     1.373    -2.07     -4.923 
 C                     2.626    -1.49     -4.306 
 N                     0.15     -2.144     0.303 
 C                     0.173    -3.136    -0.688 
 C                     0.173    -4.438     0.004 
 C                     0.133    -4.111     1.358 
 C                     0.083    -2.695     1.502 
 C                     0.149    -5.715    -0.623 
 C                     0.096    -4.629     2.716 
 O                     0.208    -5.747     3.221 
 C                    -0.255    -3.428     3.701 
 C                     0.717    -3.482     4.848 
 O                     1.931    -3.255     4.669 
 O                     0.038    -3.556     6.003 
 C                     0.943    -3.583     7.183 
 H                    -1.859     3.22      2.497 
 H                    -0.218     2.453    -3.474 
 H                     0.276    -3.747    -2.605 
 H                    -1.554    -0.949     5.132 
 H                    -1.585     1.831     4.665 
 H                    -3.484    -0.377     3.969 
 H                    -3.511     1.027     2.858 
 H                    -3.852     1.301     4.543 
 H                     0.669     1.096     4.966 
 H                     1.13     -0.639     5.189 
 H                    -0.844     0.026     7.125 
 H                     0.062     1.477     6.921 
 H                    -1.344     5.186     1.938 
 H                    -1.651     5.963     0.432 
 H                     0.007     6.02      1.084 
 H                    -0.635     6.744    -1.405 
 H                     0.665     6.97     -2.704 
 H                     1.048     6.466    -1.036 
 H                     0.608     0.501    -4.891 
 H                    -0.692    -2.156    -4.547 
 H                    -1.267     0.74     -6.129 
 H                    -2.204     0.714    -4.596 
 H                    -1.967    -0.72     -5.453 
 H                     1.356    -1.759    -5.967 
 H                     1.452    -3.157    -4.902 
 H                     2.714    -0.522    -4.798 
 H                     3.487    -2.121    -4.529 
 H                     2.495    -1.303    -3.24 
 H                     0.867    -6.333    -0.084 
 H                     0.404    -5.642    -1.68 
 H                    -0.891    -5.999    -0.463 
 H                    -1.283    -3.581     4.028 
 H                     0.698    -4.478     7.755 
 H                     0.833    -2.619     7.68 
 H                     2.       -3.754     6.976 
 Mg                    15.75847   1.42307   1.20382 
 C                     13.42842  -1.3014    1.03887 
 C                     13.31737   3.39564  -0.13207 
 C                     17.91807   3.72976   0.91619 
 C                     18.30184  -0.94835   1.43477 
 N                     13.68223   0.98809   0.5775 
 C                     12.88543  -0.06913   0.61921 
 C                     11.40393   0.22759   0.2633 
 C                     11.6287   1.55155  -0.61732 
 C                     12.93971   2.03539  -0.001 
 C                     11.87129   1.26136  -2.08915 
 C                     10.53182   0.52386   1.5336 
 C                     9.02073   0.51708   1.2921 
 H                     8.1493    0.01014   2.34856 
 N                     15.52411   3.37901   0.96314 
 C                     14.46045   4.01086   0.42399 
 C                     14.7858   5.44518   0.456 
 C                     16.19609   5.59634   0.90652 
 C                     16.61647   4.20963   0.92657 
 C                     13.77641   6.51539   0.15731 
 C                     17.03231   6.79208   1.24875 
 O                     18.30372   6.70728   1.3872 
 C                     16.33133   8.08216   1.32505 
 N                     17.82367   1.39931   0.96563 
 C                     18.52751   2.54406   0.91981 
 C                     20.0103   2.27718   1.02231 
 C                     20.14329   0.72677   1.39124 
 C                     18.65188   0.32767   1.34861 
 C                     20.8279   2.57286  -0.23486 
 C                     20.96706   0.37334   2.65976 
 C                     20.24905   0.8664    3.89537 
 N                     15.86833  -0.72389   1.41956 
 C                     17.03527  -1.51749   1.47003 
 C                     16.60065  -2.92896   1.50589 
 C                     15.20049  -2.85884   1.45013 
 C                     14.79208  -1.50044   1.36379 
 C                     17.45984  -4.06352   1.53239 
 C                     13.9755  -3.62554   1.43395 
 O                     13.69356  -4.81541   1.56981 
 C                     12.77842  -2.65717   1.03941 
 C                     11.65152  -2.8935    2.00728 
 O                     11.78293  -2.6116    3.21138 
 O                     10.53837  -3.20688   1.31949 
 C                     9.3901   -3.43966   2.23552 
 H                     12.70329   4.04691  -0.75468 
 H                     18.70141   4.49112   0.92957 
 H                     19.03077  -1.74336   1.60591 
 H                     10.91782  -0.53645  -0.33143 
 H                     10.83734   2.27724  -0.44857 
 H                     11.97021   0.20312  -2.28017 
 H                     12.78676   1.77903  -2.34405 
 H                     11.08652   1.71936  -2.698 
 H                     10.67056   1.57251   1.82656 
 H                     10.77376  -0.1545    2.32853 
 H                     8.75942   0.06413   0.328 
 H                     8.67877   1.55115   1.20387 
 H                     12.87258   6.09844  -0.30383 
 H                     14.20835   7.15416  -0.62068 
 H                     13.54308   7.1296    1.02964 
 H                     15.8521   8.28972   0.37126 
 H                     17.07816   8.80068   1.66834 
 H                     15.53061   8.0018    2.06869 
 H                     20.45541   2.86639   1.81466 
 H                     20.64338   0.15935   0.59262 
 H                     21.64924   3.29365  -0.06186 
 H                     20.1565   2.93803  -1.00063 
 H                     21.27135   1.7011   -0.71298 
 H                     21.93333   0.88324   2.63806 
 H                     21.16536  -0.68816   2.76413 
 H                     20.54637   1.9179    3.95047 
 H                     20.57823   0.31654   4.77476 
 H                     19.16204   0.83804   3.75655 
 H                     17.04662  -4.75008   2.25929 
 H                     18.48057  -3.78346   1.78429 
 H                     17.3704  -4.40014   0.49607 
 H                     12.4925  -2.89101   0.01319 
 H                     8.99991  -4.4373    2.0116 
 H                     8.70575  -2.58453   2.08001 
 H                     9.60363  -3.52881   3.29425 
 
 ITRead=  0  0  0  0  0  0  0  0  0  0  0  0  0  0  0  0  0  0  0  0
 ITRead=  0  0  0  0  0  0  0  0  0  0  0  0  0  0  0  0  0  0  0  0
 ITRead=  0  0  0  0  0  0  0  0  0  0  0  0  0  0  0  0  0  0  0  0
 ITRead=  0  0  0  0  0  0  0  0  0  0  0  0  0  0  0  0  0  0  0  0
 ITRead=  0  0  0  0  0  0  0  0  0  0  0  0  0  0  0  0  0  0  0  0
 ITRead=  0  0  0  0  0  0  0  0  0  0  0  0  0  0  0  0  0  0  0  0
 ITRead=  0  0  0  0  0  0  0  0  0  0  0  0  0  0  0  0  0  0  0  0
 ITRead=  0  0  0  0  0  0  0  0  0  0  0  0  0  0  0  0  0  0
 MicOpt= -1 -1 -1 -1 -1 -1 -1 -1 -1 -1 -1 -1 -1 -1 -1 -1 -1 -1 -1 -1
 MicOpt= -1 -1 -1 -1 -1 -1 -1 -1 -1 -1 -1 -1 -1 -1 -1 -1 -1 -1 -1 -1
 MicOpt= -1 -1 -1 -1 -1 -1 -1 -1 -1 -1 -1 -1 -1 -1 -1 -1 -1 -1 -1 -1
 MicOpt= -1 -1 -1 -1 -1 -1 -1 -1 -1 -1 -1 -1 -1 -1 -1 -1 -1 -1 -1 -1
 MicOpt= -1 -1 -1 -1 -1 -1 -1 -1 -1 -1 -1 -1 -1 -1 -1 -1 -1 -1 -1 -1
 MicOpt= -1 -1 -1 -1 -1 -1 -1 -1 -1 -1 -1 -1 -1 -1 -1 -1 -1 -1 -1 -1
 MicOpt= -1 -1 -1 -1 -1 -1 -1 -1 -1 -1 -1 -1 -1 -1 -1 -1 -1 -1 -1 -1
 MicOpt= -1 -1 -1 -1 -1 -1 -1 -1 -1 -1 -1 -1 -1 -1 -1 -1 -1 -1
 NAtoms=    158 NQM=      158 NQMF=       0 NMMI=      0 NMMIF=      0
                NMic=       0 NMicF=      0.
                    Isotopes and Nuclear Properties:
 (Nuclear quadrupole moments (NQMom) in fm**2, nuclear magnetic moments (NMagM)
  in nuclear magnetons)

  Atom         1           2           3           4           5           6           7           8           9          10
 IAtWgt=          24          12          12          12          12          14          12          12          12          12
 AtmWgt=  23.9850450  12.0000000  12.0000000  12.0000000  12.0000000  14.0030740  12.0000000  12.0000000  12.0000000  12.0000000
 NucSpn=           0           0           0           0           0           2           0           0           0           0
 AtZEff=  -0.0000000  -0.0000000  -0.0000000  -0.0000000  -0.0000000  -0.0000000  -0.0000000  -0.0000000  -0.0000000  -0.0000000
 NQMom=    0.0000000   0.0000000   0.0000000   0.0000000   0.0000000   2.0440000   0.0000000   0.0000000   0.0000000   0.0000000
 NMagM=    0.0000000   0.0000000   0.0000000   0.0000000   0.0000000   0.4037610   0.0000000   0.0000000   0.0000000   0.0000000
 AtZNuc=  12.0000000   6.0000000   6.0000000   6.0000000   6.0000000   7.0000000   6.0000000   6.0000000   6.0000000   6.0000000

  Atom        11          12          13          14          15          16          17          18          19          20
 IAtWgt=          12          12          12           1          14          12          12          12          12          12
 AtmWgt=  12.0000000  12.0000000  12.0000000   1.0078250  14.0030740  12.0000000  12.0000000  12.0000000  12.0000000  12.0000000
 NucSpn=           0           0           0           1           2           0           0           0           0           0
 AtZEff=  -0.0000000  -0.0000000  -0.0000000  -0.0000000  -0.0000000  -0.0000000  -0.0000000  -0.0000000  -0.0000000  -0.0000000
 NQMom=    0.0000000   0.0000000   0.0000000   0.0000000   2.0440000   0.0000000   0.0000000   0.0000000   0.0000000   0.0000000
 NMagM=    0.0000000   0.0000000   0.0000000   2.7928460   0.4037610   0.0000000   0.0000000   0.0000000   0.0000000   0.0000000
 AtZNuc=   6.0000000   6.0000000   6.0000000   1.0000000   7.0000000   6.0000000   6.0000000   6.0000000   6.0000000   6.0000000

  Atom        21          22          23          24          25          26          27          28          29          30
 IAtWgt=          12          16          12          14          12          12          12          12          12          12
 AtmWgt=  12.0000000  15.9949146  12.0000000  14.0030740  12.0000000  12.0000000  12.0000000  12.0000000  12.0000000  12.0000000
 NucSpn=           0           0           0           2           0           0           0           0           0           0
 AtZEff=  -0.0000000  -0.0000000  -0.0000000  -0.0000000  -0.0000000  -0.0000000  -0.0000000  -0.0000000  -0.0000000  -0.0000000
 NQMom=    0.0000000   0.0000000   0.0000000   2.0440000   0.0000000   0.0000000   0.0000000   0.0000000   0.0000000   0.0000000
 NMagM=    0.0000000   0.0000000   0.0000000   0.4037610   0.0000000   0.0000000   0.0000000   0.0000000   0.0000000   0.0000000
 AtZNuc=   6.0000000   8.0000000   6.0000000   7.0000000   6.0000000   6.0000000   6.0000000   6.0000000   6.0000000   6.0000000

  Atom        31          32          33          34          35          36          37          38          39          40
 IAtWgt=          12          14          12          12          12          12          12          12          16          12
 AtmWgt=  12.0000000  14.0030740  12.0000000  12.0000000  12.0000000  12.0000000  12.0000000  12.0000000  15.9949146  12.0000000
 NucSpn=           0           2           0           0           0           0           0           0           0           0
 AtZEff=  -0.0000000  -0.0000000  -0.0000000  -0.0000000  -0.0000000  -0.0000000  -0.0000000  -0.0000000  -0.0000000  -0.0000000
 NQMom=    0.0000000   2.0440000   0.0000000   0.0000000   0.0000000   0.0000000   0.0000000   0.0000000   0.0000000   0.0000000
 NMagM=    0.0000000   0.4037610   0.0000000   0.0000000   0.0000000   0.0000000   0.0000000   0.0000000   0.0000000   0.0000000
 AtZNuc=   6.0000000   7.0000000   6.0000000   6.0000000   6.0000000   6.0000000   6.0000000   6.0000000   8.0000000   6.0000000

  Atom        41          42          43          44          45          46          47          48          49          50
 IAtWgt=          12          16          16          12           1           1           1           1           1           1
 AtmWgt=  12.0000000  15.9949146  15.9949146  12.0000000   1.0078250   1.0078250   1.0078250   1.0078250   1.0078250   1.0078250
 NucSpn=           0           0           0           0           1           1           1           1           1           1
 AtZEff=  -0.0000000  -0.0000000  -0.0000000  -0.0000000  -0.0000000  -0.0000000  -0.0000000  -0.0000000  -0.0000000  -0.0000000
 NQMom=    0.0000000   0.0000000   0.0000000   0.0000000   0.0000000   0.0000000   0.0000000   0.0000000   0.0000000   0.0000000
 NMagM=    0.0000000   0.0000000   0.0000000   0.0000000   2.7928460   2.7928460   2.7928460   2.7928460   2.7928460   2.7928460
 AtZNuc=   6.0000000   8.0000000   8.0000000   6.0000000   1.0000000   1.0000000   1.0000000   1.0000000   1.0000000   1.0000000

  Atom        51          52          53          54          55          56          57          58          59          60
 IAtWgt=           1           1           1           1           1           1           1           1           1           1
 AtmWgt=   1.0078250   1.0078250   1.0078250   1.0078250   1.0078250   1.0078250   1.0078250   1.0078250   1.0078250   1.0078250
 NucSpn=           1           1           1           1           1           1           1           1           1           1
 AtZEff=  -0.0000000  -0.0000000  -0.0000000  -0.0000000  -0.0000000  -0.0000000  -0.0000000  -0.0000000  -0.0000000  -0.0000000
 NQMom=    0.0000000   0.0000000   0.0000000   0.0000000   0.0000000   0.0000000   0.0000000   0.0000000   0.0000000   0.0000000
 NMagM=    2.7928460   2.7928460   2.7928460   2.7928460   2.7928460   2.7928460   2.7928460   2.7928460   2.7928460   2.7928460
 AtZNuc=   1.0000000   1.0000000   1.0000000   1.0000000   1.0000000   1.0000000   1.0000000   1.0000000   1.0000000   1.0000000

  Atom        61          62          63          64          65          66          67          68          69          70
 IAtWgt=           1           1           1           1           1           1           1           1           1           1
 AtmWgt=   1.0078250   1.0078250   1.0078250   1.0078250   1.0078250   1.0078250   1.0078250   1.0078250   1.0078250   1.0078250
 NucSpn=           1           1           1           1           1           1           1           1           1           1
 AtZEff=  -0.0000000  -0.0000000  -0.0000000  -0.0000000  -0.0000000  -0.0000000  -0.0000000  -0.0000000  -0.0000000  -0.0000000
 NQMom=    0.0000000   0.0000000   0.0000000   0.0000000   0.0000000   0.0000000   0.0000000   0.0000000   0.0000000   0.0000000
 NMagM=    2.7928460   2.7928460   2.7928460   2.7928460   2.7928460   2.7928460   2.7928460   2.7928460   2.7928460   2.7928460
 AtZNuc=   1.0000000   1.0000000   1.0000000   1.0000000   1.0000000   1.0000000   1.0000000   1.0000000   1.0000000   1.0000000

  Atom        71          72          73          74          75          76          77          78          79          80
 IAtWgt=           1           1           1           1           1           1           1           1           1          24
 AtmWgt=   1.0078250   1.0078250   1.0078250   1.0078250   1.0078250   1.0078250   1.0078250   1.0078250   1.0078250  23.9850450
 NucSpn=           1           1           1           1           1           1           1           1           1           0
 AtZEff=  -0.0000000  -0.0000000  -0.0000000  -0.0000000  -0.0000000  -0.0000000  -0.0000000  -0.0000000  -0.0000000  -0.0000000
 NQMom=    0.0000000   0.0000000   0.0000000   0.0000000   0.0000000   0.0000000   0.0000000   0.0000000   0.0000000   0.0000000
 NMagM=    2.7928460   2.7928460   2.7928460   2.7928460   2.7928460   2.7928460   2.7928460   2.7928460   2.7928460   0.0000000
 AtZNuc=   1.0000000   1.0000000   1.0000000   1.0000000   1.0000000   1.0000000   1.0000000   1.0000000   1.0000000  12.0000000

  Atom        81          82          83          84          85          86          87          88          89          90
 IAtWgt=          12          12          12          12          14          12          12          12          12          12
 AtmWgt=  12.0000000  12.0000000  12.0000000  12.0000000  14.0030740  12.0000000  12.0000000  12.0000000  12.0000000  12.0000000
 NucSpn=           0           0           0           0           2           0           0           0           0           0
 AtZEff=  -0.0000000  -0.0000000  -0.0000000  -0.0000000  -0.0000000  -0.0000000  -0.0000000  -0.0000000  -0.0000000  -0.0000000
 NQMom=    0.0000000   0.0000000   0.0000000   0.0000000   2.0440000   0.0000000   0.0000000   0.0000000   0.0000000   0.0000000
 NMagM=    0.0000000   0.0000000   0.0000000   0.0000000   0.4037610   0.0000000   0.0000000   0.0000000   0.0000000   0.0000000
 AtZNuc=   6.0000000   6.0000000   6.0000000   6.0000000   7.0000000   6.0000000   6.0000000   6.0000000   6.0000000   6.0000000

  Atom        91          92          93          94          95          96          97          98          99         100
 IAtWgt=          12          12           1          14          12          12          12          12          12          12
 AtmWgt=  12.0000000  12.0000000   1.0078250  14.0030740  12.0000000  12.0000000  12.0000000  12.0000000  12.0000000  12.0000000
 NucSpn=           0           0           1           2           0           0           0           0           0           0
 AtZEff=  -0.0000000  -0.0000000  -0.0000000  -0.0000000  -0.0000000  -0.0000000  -0.0000000  -0.0000000  -0.0000000  -0.0000000
 NQMom=    0.0000000   0.0000000   0.0000000   2.0440000   0.0000000   0.0000000   0.0000000   0.0000000   0.0000000   0.0000000
 NMagM=    0.0000000   0.0000000   2.7928460   0.4037610   0.0000000   0.0000000   0.0000000   0.0000000   0.0000000   0.0000000
 AtZNuc=   6.0000000   6.0000000   1.0000000   7.0000000   6.0000000   6.0000000   6.0000000   6.0000000   6.0000000   6.0000000

  Atom       101         102         103         104         105         106         107         108         109         110
 IAtWgt=          16          12          14          12          12          12          12          12          12          12
 AtmWgt=  15.9949146  12.0000000  14.0030740  12.0000000  12.0000000  12.0000000  12.0000000  12.0000000  12.0000000  12.0000000
 NucSpn=           0           0           2           0           0           0           0           0           0           0
 AtZEff=  -0.0000000  -0.0000000  -0.0000000  -0.0000000  -0.0000000  -0.0000000  -0.0000000  -0.0000000  -0.0000000  -0.0000000
 NQMom=    0.0000000   0.0000000   2.0440000   0.0000000   0.0000000   0.0000000   0.0000000   0.0000000   0.0000000   0.0000000
 NMagM=    0.0000000   0.0000000   0.4037610   0.0000000   0.0000000   0.0000000   0.0000000   0.0000000   0.0000000   0.0000000
 AtZNuc=   8.0000000   6.0000000   7.0000000   6.0000000   6.0000000   6.0000000   6.0000000   6.0000000   6.0000000   6.0000000

  Atom       111         112         113         114         115         116         117         118         119         120
 IAtWgt=          14          12          12          12          12          12          12          16          12          12
 AtmWgt=  14.0030740  12.0000000  12.0000000  12.0000000  12.0000000  12.0000000  12.0000000  15.9949146  12.0000000  12.0000000
 NucSpn=           2           0           0           0           0           0           0           0           0           0
 AtZEff=  -0.0000000  -0.0000000  -0.0000000  -0.0000000  -0.0000000  -0.0000000  -0.0000000  -0.0000000  -0.0000000  -0.0000000
 NQMom=    2.0440000   0.0000000   0.0000000   0.0000000   0.0000000   0.0000000   0.0000000   0.0000000   0.0000000   0.0000000
 NMagM=    0.4037610   0.0000000   0.0000000   0.0000000   0.0000000   0.0000000   0.0000000   0.0000000   0.0000000   0.0000000
 AtZNuc=   7.0000000   6.0000000   6.0000000   6.0000000   6.0000000   6.0000000   6.0000000   8.0000000   6.0000000   6.0000000

  Atom       121         122         123         124         125         126         127         128         129         130
 IAtWgt=          16          16          12           1           1           1           1           1           1           1
 AtmWgt=  15.9949146  15.9949146  12.0000000   1.0078250   1.0078250   1.0078250   1.0078250   1.0078250   1.0078250   1.0078250
 NucSpn=           0           0           0           1           1           1           1           1           1           1
 AtZEff=  -0.0000000  -0.0000000  -0.0000000  -0.0000000  -0.0000000  -0.0000000  -0.0000000  -0.0000000  -0.0000000  -0.0000000
 NQMom=    0.0000000   0.0000000   0.0000000   0.0000000   0.0000000   0.0000000   0.0000000   0.0000000   0.0000000   0.0000000
 NMagM=    0.0000000   0.0000000   0.0000000   2.7928460   2.7928460   2.7928460   2.7928460   2.7928460   2.7928460   2.7928460
 AtZNuc=   8.0000000   8.0000000   6.0000000   1.0000000   1.0000000   1.0000000   1.0000000   1.0000000   1.0000000   1.0000000

  Atom       131         132         133         134         135         136         137         138         139         140
 IAtWgt=           1           1           1           1           1           1           1           1           1           1
 AtmWgt=   1.0078250   1.0078250   1.0078250   1.0078250   1.0078250   1.0078250   1.0078250   1.0078250   1.0078250   1.0078250
 NucSpn=           1           1           1           1           1           1           1           1           1           1
 AtZEff=  -0.0000000  -0.0000000  -0.0000000  -0.0000000  -0.0000000  -0.0000000  -0.0000000  -0.0000000  -0.0000000  -0.0000000
 NQMom=    0.0000000   0.0000000   0.0000000   0.0000000   0.0000000   0.0000000   0.0000000   0.0000000   0.0000000   0.0000000
 NMagM=    2.7928460   2.7928460   2.7928460   2.7928460   2.7928460   2.7928460   2.7928460   2.7928460   2.7928460   2.7928460
 AtZNuc=   1.0000000   1.0000000   1.0000000   1.0000000   1.0000000   1.0000000   1.0000000   1.0000000   1.0000000   1.0000000

  Atom       141         142         143         144         145         146         147         148         149         150
 IAtWgt=           1           1           1           1           1           1           1           1           1           1
 AtmWgt=   1.0078250   1.0078250   1.0078250   1.0078250   1.0078250   1.0078250   1.0078250   1.0078250   1.0078250   1.0078250
 NucSpn=           1           1           1           1           1           1           1           1           1           1
 AtZEff=  -0.0000000  -0.0000000  -0.0000000  -0.0000000  -0.0000000  -0.0000000  -0.0000000  -0.0000000  -0.0000000  -0.0000000
 NQMom=    0.0000000   0.0000000   0.0000000   0.0000000   0.0000000   0.0000000   0.0000000   0.0000000   0.0000000   0.0000000
 NMagM=    2.7928460   2.7928460   2.7928460   2.7928460   2.7928460   2.7928460   2.7928460   2.7928460   2.7928460   2.7928460
 AtZNuc=   1.0000000   1.0000000   1.0000000   1.0000000   1.0000000   1.0000000   1.0000000   1.0000000   1.0000000   1.0000000

  Atom       151         152         153         154         155         156         157         158
 IAtWgt=           1           1           1           1           1           1           1           1
 AtmWgt=   1.0078250   1.0078250   1.0078250   1.0078250   1.0078250   1.0078250   1.0078250   1.0078250
 NucSpn=           1           1           1           1           1           1           1           1
 AtZEff=  -0.0000000  -0.0000000  -0.0000000  -0.0000000  -0.0000000  -0.0000000  -0.0000000  -0.0000000
 NQMom=    0.0000000   0.0000000   0.0000000   0.0000000   0.0000000   0.0000000   0.0000000   0.0000000
 NMagM=    2.7928460   2.7928460   2.7928460   2.7928460   2.7928460   2.7928460   2.7928460   2.7928460
 AtZNuc=   1.0000000   1.0000000   1.0000000   1.0000000   1.0000000   1.0000000   1.0000000   1.0000000
 Leave Link  101 at Sun Sep 12 01:48:43 2021, MaxMem= 23488102400 cpu:               4.0 elap:               0.2
 (Enter /sw/apps/gaussian-16.0/g16/l202.exe)
 Stoichiometry    C68H72Mg2N8O8
 Framework group  C1[X(C68H72Mg2N8O8)]
 Deg. of freedom   468
 Full point group                 C1      NOp   1
 Largest Abelian subgroup         C1      NOp   1
 Largest concise Abelian subgroup C1      NOp   1
                         Standard orientation:                         
 ---------------------------------------------------------------------
 Center     Atomic      Atomic             Coordinates (Angstroms)
 Number     Number       Type             X           Y           Z
 ---------------------------------------------------------------------
      1         12           0        7.537091    0.801158    0.398544
      2          6           0        7.920937   -2.348982   -1.257203
      3          6           0        8.463889    2.285312   -2.530859
      4          6           0        7.646248    3.560685    1.957298
      5          6           0        7.754282   -0.926279    3.417558
      6          7           0        8.094980   -0.032907   -1.574713
      7          6           0        8.144440   -1.254810   -2.095940
      8          6           0        8.381932   -1.260516   -3.635726
      9          6           0        9.087018    0.161449   -3.786949
     10          6           0        8.486911    0.859779   -2.579418
     11          6           0       10.602519    0.110650   -3.622093
     12          6           0        7.042220   -1.324492   -4.443692
     13          6           0        7.191149   -1.661237   -5.930223
     14          1           0        6.168516   -2.475240   -6.569729
     15          7           0        7.510760    2.656920   -0.278439
     16          6           0        7.909294    3.078046   -1.502820
     17          6           0        7.694154    4.540947   -1.520648
     18          6           0        7.316771    4.962184   -0.142883
     19          6           0        7.504096    3.731557    0.582270
     20          6           0        7.802300    5.373461   -2.761202
     21          6           0        6.869904    6.269380    0.431296
     22          8           0        6.816487    6.475835    1.691890
     23          6           0        6.577078    7.344850   -0.533411
     24          7           0        7.899143    1.290871    2.395225
     25          6           0        7.829799    2.557758    2.818513
     26          6           0        7.843715    2.634488    4.316464
     27          6           0        7.691777    1.132745    4.837461
     28          6           0        7.699518    0.406519    3.469687
     29          6           0        9.093858    3.267852    4.942565
     30          6           0        6.528974    0.843424    5.819602
     31          6           0        5.204258    1.002326    5.107581
     32          7           0        7.614197   -1.279821    1.010610
     33          6           0        7.725877   -1.770034    2.319767
     34          6           0        7.849791   -3.236099    2.222979
     35          6           0        7.818040   -3.497136    0.854514
     36          6           0        7.709265   -2.269629    0.140591
     37          6           0        8.029681   -4.131086    3.314341
     38          6           0        7.875491   -4.525562   -0.171593
     39          8           0        7.872960   -5.757411   -0.165795
     40          6           0        8.067065   -3.814490   -1.583508
     41          6           0        7.076806   -4.424547   -2.537724
     42          8           0        5.850433   -4.252278   -2.383780
     43          8           0        7.729063   -4.909833   -3.605244
     44          6           0        6.801559   -5.503166   -4.605167
     45          1           0        8.966644    2.848490   -3.319534
     46          1           0        7.577610    4.481443    2.540335
     47          1           0        7.740925   -1.538661    4.321031
     48          1           0        9.049268   -2.046485   -3.989758
     49          1           0        8.788787    0.668020   -4.704646
     50          1           0       10.935307   -0.875724   -3.299232
     51          1           0       10.838156    0.858673   -2.864841
     52          1           0       11.102539    0.439185   -4.533587
     53          1           0        6.621383   -0.322067   -4.521800
     54          1           0        6.346903   -2.026948   -3.982805
     55          1           0        8.184606   -2.051591   -6.152883
     56          1           0        7.131260   -0.732900   -6.498382
     57          1           0        8.254956    4.815366   -3.579845
     58          1           0        8.514950    6.170175   -2.548870
     59          1           0        6.843995    5.804943   -3.050697
     60          1           0        7.468634    7.548545   -1.126863
     61          1           0        6.186515    8.176176    0.052428
     62          1           0        5.816904    6.994844   -1.232396
     63          1           0        7.007484    3.226922    4.685469
     64          1           0        8.580351    0.792648    5.369856
     65          1           0        8.877223    4.122219    5.584306
     66          1           0        9.770614    3.546701    4.135387
     67          1           0        9.714383    2.581640    5.518308
     68          1           0        6.539491    1.559062    6.641001
     69          1           0        6.568640   -0.156958    6.250780
     70          1           0        5.024095    2.075199    5.165173
     71          1           0        4.423521    0.446836    5.628246
     72          1           0        5.285832    0.741808    4.052137
     73          1           0        7.369480   -4.977743    3.126519
     74          1           0        7.796258   -3.649749    4.263778
     75          1           0        9.089883   -4.362529    3.213046
     76          1           0        9.096623   -3.997494   -1.889520
     77          1           0        7.127641   -6.529142   -4.776277
     78          1           0        6.792441   -4.826008   -5.459438
     79          1           0        5.775401   -5.665936   -4.273740
     80         12           0       -8.308811    0.196226   -0.188932
     81          6           0       -5.691598   -1.997156    0.914858
     82          6           0       -6.063307    2.752598    0.050398
     83          6           0      -10.699064    2.213694   -0.721787
     84          6           0      -10.583174   -2.272866    0.747316
     85          7           0       -6.181661    0.245455    0.415275
     86          6           0       -5.275542   -0.658973    0.754840
     87          6           0       -3.826427   -0.111579    0.854742
     88          6           0       -4.171100    1.432598    1.129701
     89          6           0       -5.542939    1.499535    0.461662
     90          6           0       -4.341562    1.757843    2.604320
     91          6           0       -3.025770   -0.292101   -0.482559
     92          6           0       -1.517127   -0.064407   -0.364597
     93          1           0       -0.623770   -0.884030   -1.178610
     94          7           0       -8.283199    2.088504   -0.786576
     95          6           0       -7.281036    2.978378   -0.628196
     96          6           0       -7.761825    4.235627   -1.221761
     97          6           0       -9.191599    4.061077   -1.595947
     98          6           0       -9.458392    2.759359   -1.017642
     99          6           0       -6.867820    5.418201   -1.457785
    100          6           0      -10.162163    4.928475   -2.338783
    101          8           0      -11.419918    4.681726   -2.342092
    102          6           0       -9.608539    6.127600   -2.984616
    103          7           0      -10.352041    0.090476    0.180363
    104          6           0      -11.175240    1.084129   -0.197712
    105          6           0      -12.622199    0.668610   -0.079181
    106          6           0      -12.594764   -0.900451    0.228817
    107          6           0      -11.068084   -1.112261    0.327750
    108          6           0      -13.433690    1.384755    1.000167
    109          6           0      -13.408240   -1.818959   -0.723681
    110          6           0      -12.781284   -1.820492   -2.099290
    111          7           0       -8.189190   -1.847739    0.500959
    112          6           0       -9.263397   -2.690882    0.860521
    113          6           0       -8.678320   -3.945866    1.375428
    114          6           0       -7.293213   -3.735263    1.300606
    115          6           0       -7.033469   -2.432793    0.795026
    116          6           0       -9.408854   -5.060697    1.875036
    117          6           0       -5.991816   -4.314620    1.544334
    118          8           0       -5.585297   -5.423800    1.888139
    119          6           0       -4.897654   -3.167981    1.424206
    120          6           0       -3.777659   -3.683150    0.562383
    121          8           0       -3.970847   -3.938135   -0.639388
    122          8           0       -2.619156   -3.583591    1.239378
    123          6           0       -1.476943   -4.072180    0.421789
    124          1           0       -5.507792    3.654820    0.307864
    125          1           0      -11.560950    2.828484   -0.991333
    126          1           0      -11.225181   -3.128479    0.967368
    127          1           0       -3.244231   -0.514332    1.674865
    128          1           0       -3.468471    2.090167    0.624462
    129          1           0       -4.319228    0.869566    3.218006
    130          1           0       -5.301036    2.251296    2.687721
    131          1           0       -3.595694    2.494403    2.916549
    132          1           0       -3.285905    0.524222   -1.168625
    133          1           0       -3.213097   -1.257281   -0.911461
    134          1           0       -1.182523   -0.052272    0.679830
    135          1           0       -1.287941    0.939158   -0.731140
    136          1           0       -5.911989    5.311528   -0.930135
    137          1           0       -7.346229    6.280827   -0.981477
    138          1           0       -6.726105    5.633959   -2.518926
    139          1           0       -9.129807    6.753103   -2.234936
    140          1           0      -10.438187    6.570172   -3.539313
    141          1           0       -8.823767    5.817708   -3.683694
    142          1           0      -13.149782    0.834769   -1.010394
    143          1           0      -13.008608   -1.127974    1.222203
    144          1           0      -14.333123    1.893316    0.604627
    145          1           0      -12.786187    2.092176    1.500993
    146          1           0      -13.766483    0.753807    1.822581
    147          1           0      -14.423507   -1.433631   -0.845754
    148          1           0      -13.492108   -2.841335   -0.370535
    149          1           0      -13.193020   -0.917112   -2.559145
    150          1           0      -13.071565   -2.711974   -2.651585
    151          1           0      -11.694392   -1.692428   -2.036581
    152          1           0       -8.942477   -5.947112    1.466062
    153          1           0      -10.460364   -5.001718    1.601860
    154          1           0       -9.255827   -4.928488    2.949455
    155          1           0       -4.560885   -2.929451    2.433785
    156          1           0       -0.974347   -4.848623    1.006773
    157          1           0       -0.886214   -3.172528    0.165998
    158          1           0       -1.707364   -4.610354   -0.490202
 ---------------------------------------------------------------------
 Rotational constants (GHZ):           0.0265831           0.0061432           0.0056922
 Leave Link  202 at Sun Sep 12 01:48:43 2021, MaxMem= 23488102400 cpu:               0.2 elap:               0.0
 (Enter /sw/apps/gaussian-16.0/g16/l301.exe)
 Standard basis: def2SVP (5D, 7F)
 Ernie: Thresh=  0.10000D-02 Tol=  0.10000D-05 Strict=F.
 There are  1658 symmetry adapted cartesian basis functions of A   symmetry.
 There are  1572 symmetry adapted basis functions of A   symmetry.
  1572 basis functions,  2678 primitive gaussians,  1658 cartesian basis functions
   312 alpha electrons      312 beta electrons
       nuclear repulsion energy     14003.4087926296 Hartrees.
 IExCor=20419 DFT=T Ex+Corr=CAM-B3LYP ExCW=0 ScaHFX=  1.000000
 ScaDFX=  1.000000  1.000000  1.000000  0.810000 ScalE2=  1.000000  1.000000
 IRadAn=      5 IRanWt=     -1 IRanGd=            0 ICorTp=0 IEmpDi=  4
 HFx  wShort=  0.000000 wLong=  0.330000 cFull=  0.190000 cShort=  0.000000 cLong=  0.460000
 DFx  wShort=  0.000000 wLong=  0.330000 cFull=  0.190000 cShort=  0.000000 cLong=  0.460000
 NAtoms=  158 NActive=  158 NUniq=  158 SFac= 1.00D+00 NAtFMM=   60 NAOKFM=T Big=T
 Integral buffers will be    131072 words long.
 Raffenetti 1 integral format.
 Two-electron integral symmetry is turned on.
 Leave Link  301 at Sun Sep 12 01:48:43 2021, MaxMem= 23488102400 cpu:               1.4 elap:               0.1
 (Enter /sw/apps/gaussian-16.0/g16/l302.exe)
 NPDir=0 NMtPBC=     1 NCelOv=     1 NCel=       1 NClECP=     1 NCelD=      1
         NCelK=      1 NCelE2=     1 NClLst=     1 CellRange=     0.0.
 One-electron integrals computed using PRISM.
 One-electron integral symmetry used in STVInt
   1 Symmetry operations used in ECPInt.
 ECPInt:  NShTT=  271216 NPrTT=  987664 LenC2=  117002 LenP2D=  258248.
 LDataN:  DoStor=T MaxTD1= 4 Len=   56
 NBasis=  1572 RedAO= T EigKep=  3.36D-04  NBF=  1572
 NBsUse=  1572 1.00D-06 EigRej= -1.00D+00 NBFU=  1572
 Precomputing XC quadrature grid using
 IXCGrd= 4 IRadAn=           5 IRanWt=          -1 IRanGd=           0 AccXCQ= 0.00D+00.
 Generated NRdTot=       0 NPtTot=           0 NUsed=           0 NTot=          32
 NSgBfM=  1364  1364  1364  1364  1364 MxSgAt=   158 MxSgA2=   158.
 Leave Link  302 at Sun Sep 12 01:48:48 2021, MaxMem= 23488102400 cpu:             120.9 elap:               5.1
 (Enter /sw/apps/gaussian-16.0/g16/l303.exe)
 DipDrv:  MaxL=1.
 Leave Link  303 at Sun Sep 12 01:48:48 2021, MaxMem= 23488102400 cpu:               9.2 elap:               0.4
 (Enter /sw/apps/gaussian-16.0/g16/l308.exe)
 Leave Link  308 at Sun Sep 12 01:48:49 2021, MaxMem= 23488102400 cpu:              14.3 elap:               0.7
 (Enter /sw/apps/gaussian-16.0/g16/l401.exe)
 ExpMin= 3.36D-02 ExpMax= 4.95D+03 ExpMxC= 7.45D+02 IAcc=3 IRadAn=         5 AccDes= 0.00D+00
 Harris functional with IExCor=20419 and IRadAn=       5 diagonalized for initial guess.
 HarFok:  IExCor=20419 AccDes= 0.00D+00 IRadAn=         5 IDoV= 1 UseB2=F ITyADJ=14
 ICtDFT=  3500011 ScaDFX=  1.000000  1.000000  1.000000  1.000000
 FoFCou: FMM=F IPFlag=           0 FMFlag=      100000 FMFlg1=        2001
         NFxFlg=           0 DoJE=T BraDBF=F KetDBF=T FulRan=T
         wScrn=  0.000000 ICntrl=       500 IOpCl=  0 I1Cent=   200000004 NGrid=           0
         NMat0=    1 NMatS0=      1 NMatT0=    0 NMatD0=    1 NMtDS0=    0 NMtDT0=    0
 Petite list used in FoFCou.
 Harris En= -3918.65801397462    
 JPrj=0 DoOrth=F DoCkMO=F.
 Leave Link  401 at Sun Sep 12 01:48:56 2021, MaxMem= 23488102400 cpu:             173.8 elap:               7.3
 (Enter /sw/apps/gaussian-16.0/g16/l502.exe)
 Integral symmetry usage will be decided dynamically.
 Closed shell SCF:
 Using DIIS extrapolation, IDIIS=  1040.
 NGot= 23488102400 LenX= 23482547354 LenY= 23479796732
 Requested convergence on RMS density matrix=1.00D-08 within 128 cycles.
 Requested convergence on MAX density matrix=1.00D-06.
 Requested convergence on             energy=1.00D-06.
 No special actions if energy rises.
 Fock matrices will be formed incrementally for  20 cycles.

 Cycle   1  Pass 1  IDiag  1:
 FoFJK:  IHMeth= 1 ICntrl=       0 DoSepK=T KAlg= 0 I1Cent=           0 FoldK=F
 IRaf=         1 NMat=       1 IRICut=       1 DoRegI=T DoRafI=F ISym2E= 0 IDoP0=0 IntGTp=1.
 FoFCou: FMM=T IPFlag=           0 FMFlag=      100000 FMFlg1=        2001
         NFxFlg=           0 DoJE=T BraDBF=F KetDBF=F FulRan=T
         wScrn=  0.000000 ICntrl=       500 IOpCl=  0 I1Cent=           0 NGrid=           0
         NMat0=    1 NMatS0=      1 NMatT0=    0 NMatD0=    1 NMtDS0=    0 NMtDT0=    0
 Symmetry not used in FoFCou.
 FMM levels:  10  Number of levels for PrismC:   9
 E= -4068.94944685181    
 DIIS: error= 2.04D-02 at cycle   1 NSaved=   1.
 NSaved= 1 IEnMin= 1 EnMin= -4068.94944685181     IErMin= 1 ErrMin= 2.04D-02
 ErrMax= 2.04D-02  0.00D+00 EMaxC= 1.00D-01 BMatC= 1.69D+00 BMatP= 1.69D+00
 IDIUse=3 WtCom= 7.96D-01 WtEn= 2.04D-01
 Coeff-Com:  0.100D+01
 Coeff-En:   0.100D+01
 Coeff:      0.100D+01
 Gap=     0.120 Goal=   None    Shift=    0.000
 GapD=    0.120 DampG=1.000 DampE=0.500 DampFc=0.5000 IDamp=-1.
 Damping current iteration by 5.00D-01
 RMSDP=1.57D-03 MaxDP=1.35D-01              OVMax= 2.04D-01

 Cycle   2  Pass 1  IDiag  1:
 RMSU=  7.69D-04    CP:  9.82D-01
 E= -4069.33838444463     Delta-E=       -0.388937592823 Rises=F Damp=T
 DIIS: error= 1.27D-02 at cycle   2 NSaved=   2.
 NSaved= 2 IEnMin= 2 EnMin= -4069.33838444463     IErMin= 2 ErrMin= 1.27D-02
 ErrMax= 1.27D-02  0.00D+00 EMaxC= 1.00D-01 BMatC= 3.07D-01 BMatP= 1.69D+00
 IDIUse=3 WtCom= 8.73D-01 WtEn= 1.27D-01
 Coeff-Com: -0.213D+00 0.121D+01
 Coeff-En:   0.000D+00 0.100D+01
 Coeff:     -0.186D+00 0.119D+01
 Gap=     0.134 Goal=   None    Shift=    0.000
 RMSDP=7.65D-04 MaxDP=9.46D-02 DE=-3.89D-01 OVMax= 1.88D-01

 Cycle   3  Pass 1  IDiag  1:
 RMSU=  7.32D-04    CP:  9.68D-01  1.24D+00
 E= -4069.62824059254     Delta-E=       -0.289856147905 Rises=F Damp=F
 DIIS: error= 1.57D-02 at cycle   3 NSaved=   3.
 NSaved= 3 IEnMin= 3 EnMin= -4069.62824059254     IErMin= 2 ErrMin= 1.27D-02
 ErrMax= 1.57D-02  0.00D+00 EMaxC= 1.00D-01 BMatC= 2.01D-01 BMatP= 3.07D-01
 IDIUse=3 WtCom= 8.43D-01 WtEn= 1.57D-01
 Coeff-Com: -0.267D+00 0.651D+00 0.616D+00
 Coeff-En:   0.000D+00 0.000D+00 0.100D+01
 Coeff:     -0.225D+00 0.549D+00 0.676D+00
 Gap=     0.122 Goal=   None    Shift=    0.000
 RMSDP=5.08D-04 MaxDP=4.84D-02 DE=-2.90D-01 OVMax= 1.43D-01

 Cycle   4  Pass 1  IDiag  1:
 RMSU=  2.65D-04    CP:  9.65D-01  1.54D+00  5.06D-01
 E= -4069.76543487191     Delta-E=       -0.137194279370 Rises=F Damp=F
 DIIS: error= 7.24D-03 at cycle   4 NSaved=   4.
 NSaved= 4 IEnMin= 4 EnMin= -4069.76543487191     IErMin= 4 ErrMin= 7.24D-03
 ErrMax= 7.24D-03  0.00D+00 EMaxC= 1.00D-01 BMatC= 5.00D-02 BMatP= 2.01D-01
 IDIUse=3 WtCom= 9.28D-01 WtEn= 7.24D-02
 Coeff-Com: -0.109D+00 0.226D+00 0.408D+00 0.475D+00
 Coeff-En:   0.000D+00 0.000D+00 0.220D+00 0.780D+00
 Coeff:     -0.101D+00 0.209D+00 0.395D+00 0.497D+00
 Gap=     0.121 Goal=   None    Shift=    0.000
 RMSDP=2.00D-04 MaxDP=2.00D-02 DE=-1.37D-01 OVMax= 6.22D-02

 Cycle   5  Pass 1  IDiag  1:
 RMSU=  7.59D-05    CP:  9.65D-01  1.49D+00  6.89D-01  5.49D-01
 E= -4069.81070487044     Delta-E=       -0.045269998533 Rises=F Damp=F
 DIIS: error= 7.64D-04 at cycle   5 NSaved=   5.
 NSaved= 5 IEnMin= 5 EnMin= -4069.81070487044     IErMin= 5 ErrMin= 7.64D-04
 ErrMax= 7.64D-04  0.00D+00 EMaxC= 1.00D-01 BMatC= 1.16D-03 BMatP= 5.00D-02
 IDIUse=3 WtCom= 9.92D-01 WtEn= 7.64D-03
 Coeff-Com: -0.359D-01 0.705D-01 0.165D+00 0.249D+00 0.551D+00
 Coeff-En:   0.000D+00 0.000D+00 0.000D+00 0.000D+00 0.100D+01
 Coeff:     -0.356D-01 0.700D-01 0.164D+00 0.248D+00 0.554D+00
 Gap=     0.120 Goal=   None    Shift=    0.000
 RMSDP=4.11D-05 MaxDP=4.16D-03 DE=-4.53D-02 OVMax= 1.68D-02

 Cycle   6  Pass 1  IDiag  1:
 RMSU=  3.05D-05    CP:  9.64D-01  1.49D+00  6.81D-01  6.22D-01  7.57D-01
 E= -4069.81171543568     Delta-E=       -0.001010565233 Rises=F Damp=F
 DIIS: error= 2.12D-04 at cycle   6 NSaved=   6.
 NSaved= 6 IEnMin= 6 EnMin= -4069.81171543568     IErMin= 6 ErrMin= 2.12D-04
 ErrMax= 2.12D-04  0.00D+00 EMaxC= 1.00D-01 BMatC= 1.80D-04 BMatP= 1.16D-03
 IDIUse=3 WtCom= 9.98D-01 WtEn= 2.12D-03
 Coeff-Com:  0.218D-02-0.653D-02 0.114D-01 0.405D-01 0.309D+00 0.644D+00
 Coeff-En:   0.000D+00 0.000D+00 0.000D+00 0.000D+00 0.110D+00 0.890D+00
 Coeff:      0.218D-02-0.652D-02 0.114D-01 0.405D-01 0.308D+00 0.644D+00
 Gap=     0.121 Goal=   None    Shift=    0.000
 RMSDP=1.62D-05 MaxDP=1.22D-03 DE=-1.01D-03 OVMax= 7.31D-03

 Cycle   7  Pass 1  IDiag  1:
 RMSU=  1.08D-05    CP:  9.64D-01  1.50D+00  6.87D-01  6.21D-01  8.59D-01
                    CP:  7.42D-01
 E= -4069.81191007603     Delta-E=       -0.000194640350 Rises=F Damp=F
 DIIS: error= 8.61D-05 at cycle   7 NSaved=   7.
 NSaved= 7 IEnMin= 7 EnMin= -4069.81191007603     IErMin= 7 ErrMin= 8.61D-05
 ErrMax= 8.61D-05  0.00D+00 EMaxC= 1.00D-01 BMatC= 2.19D-05 BMatP= 1.80D-04
 IDIUse=1 WtCom= 1.00D+00 WtEn= 0.00D+00
 Coeff-Com:  0.447D-02-0.979D-02-0.889D-02-0.355D-02 0.105D+00 0.332D+00
 Coeff-Com:  0.581D+00
 Coeff:      0.447D-02-0.979D-02-0.889D-02-0.355D-02 0.105D+00 0.332D+00
 Coeff:      0.581D+00
 Gap=     0.121 Goal=   None    Shift=    0.000
 RMSDP=6.63D-06 MaxDP=1.11D-03 DE=-1.95D-04 OVMax= 3.41D-03

 Cycle   8  Pass 1  IDiag  1:
 RMSU=  4.73D-06    CP:  9.64D-01  1.50D+00  6.88D-01  6.26D-01  8.63D-01
                    CP:  8.70D-01  8.16D-01
 E= -4069.81193723020     Delta-E=       -0.000027154179 Rises=F Damp=F
 DIIS: error= 4.97D-05 at cycle   8 NSaved=   8.
 NSaved= 8 IEnMin= 8 EnMin= -4069.81193723020     IErMin= 8 ErrMin= 4.97D-05
 ErrMax= 4.97D-05  0.00D+00 EMaxC= 1.00D-01 BMatC= 4.92D-06 BMatP= 2.19D-05
 IDIUse=1 WtCom= 1.00D+00 WtEn= 0.00D+00
 Coeff-Com:  0.218D-02-0.432D-02-0.780D-02-0.122D-01-0.110D-01 0.338D-01
 Coeff-Com:  0.340D+00 0.660D+00
 Coeff:      0.218D-02-0.432D-02-0.780D-02-0.122D-01-0.110D-01 0.338D-01
 Coeff:      0.340D+00 0.660D+00
 Gap=     0.121 Goal=   None    Shift=    0.000
 RMSDP=3.30D-06 MaxDP=3.45D-04 DE=-2.72D-05 OVMax= 1.06D-03

 Cycle   9  Pass 1  IDiag  1:
 RMSU=  1.93D-06    CP:  9.64D-01  1.50D+00  6.88D-01  6.27D-01  8.80D-01
                    CP:  8.96D-01  1.01D+00  9.47D-01
 E= -4069.81194513489     Delta-E=       -0.000007904684 Rises=F Damp=F
 DIIS: error= 2.00D-05 at cycle   9 NSaved=   9.
 NSaved= 9 IEnMin= 9 EnMin= -4069.81194513489     IErMin= 9 ErrMin= 2.00D-05
 ErrMax= 2.00D-05  0.00D+00 EMaxC= 1.00D-01 BMatC= 7.08D-07 BMatP= 4.92D-06
 IDIUse=1 WtCom= 1.00D+00 WtEn= 0.00D+00
 Coeff-Com:  0.469D-03-0.779D-03-0.268D-02-0.605D-02-0.213D-01-0.393D-01
 Coeff-Com:  0.102D+00 0.327D+00 0.640D+00
 Coeff:      0.469D-03-0.779D-03-0.268D-02-0.605D-02-0.213D-01-0.393D-01
 Coeff:      0.102D+00 0.327D+00 0.640D+00
 Gap=     0.121 Goal=   None    Shift=    0.000
 RMSDP=1.44D-06 MaxDP=1.46D-04 DE=-7.90D-06 OVMax= 7.59D-04

 Cycle  10  Pass 1  IDiag  1:
 RMSU=  9.47D-07    CP:  9.64D-01  1.50D+00  6.88D-01  6.28D-01  8.83D-01
                    CP:  9.10D-01  1.06D+00  1.11D+00  1.06D+00
 E= -4069.81194677736     Delta-E=       -0.000001642471 Rises=F Damp=F
 DIIS: error= 1.03D-05 at cycle  10 NSaved=  10.
 NSaved=10 IEnMin=10 EnMin= -4069.81194677736     IErMin=10 ErrMin= 1.03D-05
 ErrMax= 1.03D-05  0.00D+00 EMaxC= 1.00D-01 BMatC= 1.75D-07 BMatP= 7.08D-07
 IDIUse=1 WtCom= 1.00D+00 WtEn= 0.00D+00
 Coeff-Com: -0.434D-03 0.909D-03 0.126D-02 0.114D-02-0.369D-02-0.313D-01
 Coeff-Com: -0.462D-01-0.780D-01 0.249D+00 0.908D+00
 Coeff:     -0.434D-03 0.909D-03 0.126D-02 0.114D-02-0.369D-02-0.313D-01
 Coeff:     -0.462D-01-0.780D-01 0.249D+00 0.908D+00
 Gap=     0.121 Goal=   None    Shift=    0.000
 RMSDP=1.25D-06 MaxDP=1.25D-04 DE=-1.64D-06 OVMax= 6.27D-04

 Cycle  11  Pass 1  IDiag  1:
 RMSU=  5.23D-07    CP:  9.64D-01  1.50D+00  6.88D-01  6.28D-01  8.86D-01
                    CP:  9.20D-01  1.11D+00  1.23D+00  1.40D+00  1.38D+00
 E= -4069.81194759812     Delta-E=       -0.000000820757 Rises=F Damp=F
 DIIS: error= 4.28D-06 at cycle  11 NSaved=  11.
 NSaved=11 IEnMin=11 EnMin= -4069.81194759812     IErMin=11 ErrMin= 4.28D-06
 ErrMax= 4.28D-06  0.00D+00 EMaxC= 1.00D-01 BMatC= 6.42D-08 BMatP= 1.75D-07
 IDIUse=1 WtCom= 1.00D+00 WtEn= 0.00D+00
 Coeff-Com: -0.333D-03 0.647D-03 0.135D-02 0.215D-02 0.456D-02-0.843D-02
 Coeff-Com: -0.429D-01-0.134D+00-0.293D-01 0.470D+00 0.736D+00
 Coeff:     -0.333D-03 0.647D-03 0.135D-02 0.215D-02 0.456D-02-0.843D-02
 Coeff:     -0.429D-01-0.134D+00-0.293D-01 0.470D+00 0.736D+00
 Gap=     0.121 Goal=   None    Shift=    0.000
 RMSDP=7.03D-07 MaxDP=6.03D-05 DE=-8.21D-07 OVMax= 3.87D-04

 Cycle  12  Pass 1  IDiag  1:
 RMSU=  2.66D-07    CP:  9.64D-01  1.50D+00  6.88D-01  6.28D-01  8.87D-01
                    CP:  9.22D-01  1.13D+00  1.29D+00  1.57D+00  1.77D+00
                    CP:  1.21D+00
 E= -4069.81194787420     Delta-E=       -0.000000276086 Rises=F Damp=F
 DIIS: error= 2.48D-06 at cycle  12 NSaved=  12.
 NSaved=12 IEnMin=12 EnMin= -4069.81194787420     IErMin=12 ErrMin= 2.48D-06
 ErrMax= 2.48D-06  0.00D+00 EMaxC= 1.00D-01 BMatC= 1.56D-08 BMatP= 6.42D-08
 IDIUse=1 WtCom= 1.00D+00 WtEn= 0.00D+00
 Coeff-Com:  0.824D-06-0.186D-04 0.179D-03 0.512D-03 0.340D-02 0.411D-02
 Coeff-Com:  0.323D-02-0.346D-01-0.697D-01-0.767D-01 0.246D+00 0.924D+00
 Coeff:      0.824D-06-0.186D-04 0.179D-03 0.512D-03 0.340D-02 0.411D-02
 Coeff:      0.323D-02-0.346D-01-0.697D-01-0.767D-01 0.246D+00 0.924D+00
 Gap=     0.121 Goal=   None    Shift=    0.000
 RMSDP=4.52D-07 MaxDP=3.13D-05 DE=-2.76D-07 OVMax= 2.58D-04

 Cycle  13  Pass 1  IDiag  1:
 RMSU=  1.68D-07    CP:  9.64D-01  1.50D+00  6.88D-01  6.28D-01  8.87D-01
                    CP:  9.23D-01  1.14D+00  1.32D+00  1.68D+00  2.01D+00
                    CP:  1.62D+00  1.28D+00
 E= -4069.81194797157     Delta-E=       -0.000000097367 Rises=F Damp=F
 DIIS: error= 1.37D-06 at cycle  13 NSaved=  13.
 NSaved=13 IEnMin=13 EnMin= -4069.81194797157     IErMin=13 ErrMin= 1.37D-06
 ErrMax= 1.37D-06  0.00D+00 EMaxC= 1.00D-01 BMatC= 8.57D-09 BMatP= 1.56D-08
 IDIUse=1 WtCom= 1.00D+00 WtEn= 0.00D+00
 Coeff-Com:  0.122D-03-0.249D-03-0.376D-03-0.467D-03 0.597D-03 0.508D-02
 Coeff-Com:  0.197D-01 0.232D-01-0.328D-01-0.242D+00-0.160D+00 0.604D+00
 Coeff-Com:  0.784D+00
 Coeff:      0.122D-03-0.249D-03-0.376D-03-0.467D-03 0.597D-03 0.508D-02
 Coeff:      0.197D-01 0.232D-01-0.328D-01-0.242D+00-0.160D+00 0.604D+00
 Coeff:      0.784D+00
 Gap=     0.121 Goal=   None    Shift=    0.000
 RMSDP=3.48D-07 MaxDP=2.29D-05 DE=-9.74D-08 OVMax= 2.05D-04

 Cycle  14  Pass 1  IDiag  1:
 RMSU=  7.74D-08    CP:  9.64D-01  1.50D+00  6.88D-01  6.28D-01  8.87D-01
                    CP:  9.23D-01  1.14D+00  1.35D+00  1.76D+00  2.20D+00
                    CP:  1.89D+00  1.80D+00  1.08D+00
 E= -4069.81194800848     Delta-E=       -0.000000036911 Rises=F Damp=F
 DIIS: error= 6.80D-07 at cycle  14 NSaved=  14.
 NSaved=14 IEnMin=14 EnMin= -4069.81194800848     IErMin=14 ErrMin= 6.80D-07
 ErrMax= 6.80D-07  0.00D+00 EMaxC= 1.00D-01 BMatC= 1.32D-09 BMatP= 8.57D-09
 IDIUse=1 WtCom= 1.00D+00 WtEn= 0.00D+00
 Coeff-Com:  0.674D-04-0.133D-03-0.250D-03-0.394D-03-0.484D-03 0.127D-02
 Coeff-Com:  0.107D-01 0.194D-01 0.447D-02-0.100D+00-0.144D+00 0.971D-01
 Coeff-Com:  0.406D+00 0.707D+00
 Coeff:      0.674D-04-0.133D-03-0.250D-03-0.394D-03-0.484D-03 0.127D-02
 Coeff:      0.107D-01 0.194D-01 0.447D-02-0.100D+00-0.144D+00 0.971D-01
 Coeff:      0.406D+00 0.707D+00
 Gap=     0.121 Goal=   None    Shift=    0.000
 RMSDP=1.03D-07 MaxDP=6.98D-06 DE=-3.69D-08 OVMax= 5.56D-05

 Cycle  15  Pass 1  IDiag  1:
 RMSU=  3.88D-08    CP:  9.64D-01  1.50D+00  6.88D-01  6.28D-01  8.87D-01
                    CP:  9.23D-01  1.15D+00  1.35D+00  1.78D+00  2.25D+00
                    CP:  1.99D+00  1.93D+00  1.32D+00  1.02D+00
 E= -4069.81194801277     Delta-E=       -0.000000004286 Rises=F Damp=F
 DIIS: error= 3.20D-07 at cycle  15 NSaved=  15.
 NSaved=15 IEnMin=15 EnMin= -4069.81194801277     IErMin=15 ErrMin= 3.20D-07
 ErrMax= 3.20D-07  0.00D+00 EMaxC= 1.00D-01 BMatC= 2.33D-10 BMatP= 1.32D-09
 IDIUse=1 WtCom= 1.00D+00 WtEn= 0.00D+00
 Coeff-Com:  0.538D-05-0.895D-05-0.330D-04-0.828D-04-0.301D-03-0.527D-03
 Coeff-Com:  0.114D-02 0.253D-02 0.883D-02 0.175D-02-0.311D-01-0.718D-01
 Coeff-Com:  0.307D-01 0.296D+00 0.763D+00
 Coeff:      0.538D-05-0.895D-05-0.330D-04-0.828D-04-0.301D-03-0.527D-03
 Coeff:      0.114D-02 0.253D-02 0.883D-02 0.175D-02-0.311D-01-0.718D-01
 Coeff:      0.307D-01 0.296D+00 0.763D+00
 Gap=     0.121 Goal=   None    Shift=    0.000
 RMSDP=4.07D-08 MaxDP=2.74D-06 DE=-4.29D-09 OVMax= 2.81D-05

 Cycle  16  Pass 1  IDiag  1:
 RMSU=  1.89D-08    CP:  9.64D-01  1.50D+00  6.88D-01  6.28D-01  8.87D-01
                    CP:  9.23D-01  1.15D+00  1.35D+00  1.78D+00  2.26D+00
                    CP:  2.02D+00  1.99D+00  1.39D+00  1.24D+00  1.14D+00
 E= -4069.81194801362     Delta-E=       -0.000000000851 Rises=F Damp=F
 DIIS: error= 1.81D-07 at cycle  16 NSaved=  16.
 NSaved=16 IEnMin=16 EnMin= -4069.81194801362     IErMin=16 ErrMin= 1.81D-07
 ErrMax= 1.81D-07  0.00D+00 EMaxC= 1.00D-01 BMatC= 8.48D-11 BMatP= 2.33D-10
 IDIUse=1 WtCom= 1.00D+00 WtEn= 0.00D+00
 Coeff-Com: -0.143D-04 0.290D-04 0.472D-04 0.539D-04-0.280D-04-0.637D-03
 Coeff-Com: -0.194D-02-0.427D-02 0.435D-02 0.256D-01 0.206D-01-0.648D-01
 Coeff-Com: -0.819D-01-0.364D-01 0.399D+00 0.740D+00
 Coeff:     -0.143D-04 0.290D-04 0.472D-04 0.539D-04-0.280D-04-0.637D-03
 Coeff:     -0.194D-02-0.427D-02 0.435D-02 0.256D-01 0.206D-01-0.648D-01
 Coeff:     -0.819D-01-0.364D-01 0.399D+00 0.740D+00
 Gap=     0.121 Goal=   None    Shift=    0.000
 RMSDP=2.31D-08 MaxDP=1.56D-06 DE=-8.51D-10 OVMax= 1.23D-05

 Cycle  17  Pass 1  IDiag  1:
 RMSU=  1.06D-08    CP:  9.64D-01  1.50D+00  6.88D-01  6.28D-01  8.87D-01
                    CP:  9.23D-01  1.15D+00  1.35D+00  1.78D+00  2.27D+00
                    CP:  2.03D+00  2.02D+00  1.44D+00  1.33D+00  1.44D+00
                    CP:  1.24D+00
 E= -4069.81194801385     Delta-E=       -0.000000000233 Rises=F Damp=F
 DIIS: error= 9.64D-08 at cycle  17 NSaved=  17.
 NSaved=17 IEnMin=17 EnMin= -4069.81194801385     IErMin=17 ErrMin= 9.64D-08
 ErrMax= 9.64D-08  0.00D+00 EMaxC= 1.00D-01 BMatC= 1.82D-11 BMatP= 8.48D-11
 IDIUse=1 WtCom= 1.00D+00 WtEn= 0.00D+00
 Coeff-Com: -0.729D-05 0.142D-04 0.288D-04 0.429D-04 0.842D-04-0.126D-03
 Coeff-Com: -0.943D-03-0.281D-02 0.623D-04 0.938D-02 0.175D-01-0.785D-02
 Coeff-Com: -0.367D-01-0.100D+00-0.276D-01 0.294D+00 0.855D+00
 Coeff:     -0.729D-05 0.142D-04 0.288D-04 0.429D-04 0.842D-04-0.126D-03
 Coeff:     -0.943D-03-0.281D-02 0.623D-04 0.938D-02 0.175D-01-0.785D-02
 Coeff:     -0.367D-01-0.100D+00-0.276D-01 0.294D+00 0.855D+00
 Gap=     0.121 Goal=   None    Shift=    0.000
 RMSDP=1.37D-08 MaxDP=1.04D-06 DE=-2.33D-10 OVMax= 9.27D-06

 Cycle  18  Pass 1  IDiag  1:
 RMSU=  5.03D-09    CP:  9.64D-01  1.50D+00  6.88D-01  6.28D-01  8.87D-01
                    CP:  9.23D-01  1.15D+00  1.35D+00  1.79D+00  2.27D+00
                    CP:  2.03D+00  2.02D+00  1.46D+00  1.40D+00  1.60D+00
                    CP:  1.64D+00  1.37D+00
 E= -4069.81194801398     Delta-E=       -0.000000000131 Rises=F Damp=F
 DIIS: error= 5.97D-08 at cycle  18 NSaved=  18.
 NSaved=18 IEnMin=18 EnMin= -4069.81194801398     IErMin=18 ErrMin= 5.97D-08
 ErrMax= 5.97D-08  0.00D+00 EMaxC= 1.00D-01 BMatC= 7.38D-12 BMatP= 1.82D-11
 IDIUse=1 WtCom= 1.00D+00 WtEn= 0.00D+00
 Coeff-Com:  0.176D-05-0.385D-05-0.351D-05-0.165D-06 0.614D-04 0.175D-03
 Coeff-Com:  0.358D-03 0.131D-03-0.126D-02-0.570D-02 0.404D-03 0.193D-01
 Coeff-Com:  0.163D-01-0.356D-01-0.160D+00-0.177D+00 0.372D+00 0.971D+00
 Coeff:      0.176D-05-0.385D-05-0.351D-05-0.165D-06 0.614D-04 0.175D-03
 Coeff:      0.358D-03 0.131D-03-0.126D-02-0.570D-02 0.404D-03 0.193D-01
 Coeff:      0.163D-01-0.356D-01-0.160D+00-0.177D+00 0.372D+00 0.971D+00
 Gap=     0.121 Goal=   None    Shift=    0.000
 RMSDP=1.16D-08 MaxDP=7.74D-07 DE=-1.31D-10 OVMax= 6.09D-06

 Cycle  19  Pass 1  IDiag  1:
 RMSU=  2.96D-09    CP:  9.64D-01  1.50D+00  6.88D-01  6.28D-01  8.87D-01
                    CP:  9.23D-01  1.15D+00  1.35D+00  1.79D+00  2.27D+00
                    CP:  2.04D+00  2.03D+00  1.47D+00  1.44D+00  1.75D+00
                    CP:  1.95D+00  1.90D+00  1.31D+00
 E= -4069.81194801403     Delta-E=       -0.000000000051 Rises=F Damp=F
 DIIS: error= 3.06D-08 at cycle  19 NSaved=  19.
 NSaved=19 IEnMin=19 EnMin= -4069.81194801403     IErMin=19 ErrMin= 3.06D-08
 ErrMax= 3.06D-08  0.00D+00 EMaxC= 1.00D-01 BMatC= 1.67D-12 BMatP= 7.38D-12
 IDIUse=1 WtCom= 1.00D+00 WtEn= 0.00D+00
 Coeff-Com:  0.296D-05-0.599D-05-0.100D-04-0.124D-04 0.138D-04 0.125D-03
 Coeff-Com:  0.482D-03 0.799D-03-0.608D-03-0.608D-02-0.477D-02 0.128D-01
 Coeff-Com:  0.205D-01 0.949D-02-0.749D-01-0.183D+00-0.159D-01 0.514D+00
 Coeff-Com:  0.727D+00
 Coeff:      0.296D-05-0.599D-05-0.100D-04-0.124D-04 0.138D-04 0.125D-03
 Coeff:      0.482D-03 0.799D-03-0.608D-03-0.608D-02-0.477D-02 0.128D-01
 Coeff:      0.205D-01 0.949D-02-0.749D-01-0.183D+00-0.159D-01 0.514D+00
 Coeff:      0.727D+00
 Gap=     0.121 Goal=   None    Shift=    0.000
 RMSDP=4.65D-09 MaxDP=3.27D-07 DE=-5.09D-11 OVMax= 3.34D-06

 SCF Done:  E(RCAM-B3LYP) =  -4069.81194801     A.U. after   19 cycles
            NFock= 19  Conv=0.46D-08     -V/T= 2.0102
 KE= 4.028802240191D+03 PE=-3.748762885944D+04 EE= 1.538560587860D+04
 Leave Link  502 at Sun Sep 12 01:58:07 2021, MaxMem= 23488102400 cpu:           12618.4 elap:             551.0
 (Enter /sw/apps/gaussian-16.0/g16/l801.exe)
 DoSCS=F DFT=T ScalE2(SS,OS)=  1.000000  1.000000
 ExpMin= 3.36D-02 ExpMax= 4.95D+03 ExpMxC= 7.45D+02 IAcc=3 IRadAn=         5 AccDes= 0.00D+00
 HarFok:  IExCor=  205 AccDes= 0.00D+00 IRadAn=         5 IDoV=-2 UseB2=F ITyADJ=14
 ICtDFT= 12500011 ScaDFX=  1.000000  1.000000  1.000000  1.000000
 GSVD:  LWork=       -9588 too small for GESVD, short by       45590 words or       45590 for optimal perf.
 Largest valence mixing into a core orbital is  2.03D-04
 Largest core mixing into a valence orbital is  5.24D-05
 Range of M.O.s used for correlation:    95  1572
 NBasis=  1572 NAE=   312 NBE=   312 NFC=    94 NFV=     0
 NROrb=   1478 NOA=   218 NOB=   218 NVA=  1260 NVB=  1260
 Leave Link  801 at Sun Sep 12 01:58:08 2021, MaxMem= 23488102400 cpu:               7.8 elap:               0.4
 (Enter /sw/apps/gaussian-16.0/g16/l914.exe)
 RHF ground state
 Two-electron integrals replicated using symmetry.
 MDV= 23488102400 DFT=T DoStab=F Mixed=T DoRPA=T DoScal=F NonHer=T
 Making orbital integer symmetry assigments:
 Orbital symmetries:
       Occupied  (A) (A) (A) (A) (A) (A) (A) (A) (A) (A) (A) (A)
                 (A) (A) (A) (A) (A) (A) (A) (A) (A) (A) (A) (A)
                 (A) (A) (A) (A) (A) (A) (A) (A) (A) (A) (A) (A)
                 (A) (A) (A) (A) (A) (A) (A) (A) (A) (A) (A) (A)
                 (A) (A) (A) (A) (A) (A) (A) (A) (A) (A) (A) (A)
                 (A) (A) (A) (A) (A) (A) (A) (A) (A) (A) (A) (A)
                 (A) (A) (A) (A) (A) (A) (A) (A) (A) (A) (A) (A)
                 (A) (A) (A) (A) (A) (A) (A) (A) (A) (A) (A) (A)
                 (A) (A) (A) (A) (A) (A) (A) (A) (A) (A) (A) (A)
                 (A) (A) (A) (A) (A) (A) (A) (A) (A) (A) (A) (A)
                 (A) (A) (A) (A) (A) (A) (A) (A) (A) (A) (A) (A)
                 (A) (A) (A) (A) (A) (A) (A) (A) (A) (A) (A) (A)
                 (A) (A) (A) (A) (A) (A) (A) (A) (A) (A) (A) (A)
                 (A) (A) (A) (A) (A) (A) (A) (A) (A) (A) (A) (A)
                 (A) (A) (A) (A) (A) (A) (A) (A) (A) (A) (A) (A)
                 (A) (A) (A) (A) (A) (A) (A) (A) (A) (A) (A) (A)
                 (A) (A) (A) (A) (A) (A) (A) (A) (A) (A) (A) (A)
                 (A) (A) (A) (A) (A) (A) (A) (A) (A) (A) (A) (A)
                 (A) (A) (A) (A) (A) (A) (A) (A) (A) (A) (A) (A)
                 (A) (A) (A) (A) (A) (A) (A) (A) (A) (A) (A) (A)
                 (A) (A) (A) (A) (A) (A) (A) (A) (A) (A) (A) (A)
                 (A) (A) (A) (A) (A) (A) (A) (A) (A) (A) (A) (A)
                 (A) (A) (A) (A) (A) (A) (A) (A) (A) (A) (A) (A)
                 (A) (A) (A) (A) (A) (A) (A) (A) (A) (A) (A) (A)
                 (A) (A) (A) (A) (A) (A) (A) (A) (A) (A) (A) (A)
                 (A) (A) (A) (A) (A) (A) (A) (A) (A) (A) (A) (A)
       Virtual   (A) (A) (A) (A) (A) (A) (A) (A) (A) (A) (A) (A)
                 (A) (A) (A) (A) (A) (A) (A) (A) (A) (A) (A) (A)
                 (A) (A) (A) (A) (A) (A) (A) (A) (A) (A) (A) (A)
                 (A) (A) (A) (A) (A) (A) (A) (A) (A) (A) (A) (A)
                 (A) (A) (A) (A) (A) (A) (A) (A) (A) (A) (A) (A)
                 (A) (A) (A) (A) (A) (A) (A) (A) (A) (A) (A) (A)
                 (A) (A) (A) (A) (A) (A) (A) (A) (A) (A) (A) (A)
                 (A) (A) (A) (A) (A) (A) (A) (A) (A) (A) (A) (A)
                 (A) (A) (A) (A) (A) (A) (A) (A) (A) (A) (A) (A)
                 (A) (A) (A) (A) (A) (A) (A) (A) (A) (A) (A) (A)
                 (A) (A) (A) (A) (A) (A) (A) (A) (A) (A) (A) (A)
                 (A) (A) (A) (A) (A) (A) (A) (A) (A) (A) (A) (A)
                 (A) (A) (A) (A) (A) (A) (A) (A) (A) (A) (A) (A)
                 (A) (A) (A) (A) (A) (A) (A) (A) (A) (A) (A) (A)
                 (A) (A) (A) (A) (A) (A) (A) (A) (A) (A) (A) (A)
                 (A) (A) (A) (A) (A) (A) (A) (A) (A) (A) (A) (A)
                 (A) (A) (A) (A) (A) (A) (A) (A) (A) (A) (A) (A)
                 (A) (A) (A) (A) (A) (A) (A) (A) (A) (A) (A) (A)
                 (A) (A) (A) (A) (A) (A) (A) (A) (A) (A) (A) (A)
                 (A) (A) (A) (A) (A) (A) (A) (A) (A) (A) (A) (A)
                 (A) (A) (A) (A) (A) (A) (A) (A) (A) (A) (A) (A)
                 (A) (A) (A) (A) (A) (A) (A) (A) (A) (A) (A) (A)
                 (A) (A) (A) (A) (A) (A) (A) (A) (A) (A) (A) (A)
                 (A) (A) (A) (A) (A) (A) (A) (A) (A) (A) (A) (A)
                 (A) (A) (A) (A) (A) (A) (A) (A) (A) (A) (A) (A)
                 (A) (A) (A) (A) (A) (A) (A) (A) (A) (A) (A) (A)
                 (A) (A) (A) (A) (A) (A) (A) (A) (A) (A) (A) (A)
                 (A) (A) (A) (A) (A) (A) (A) (A) (A) (A) (A) (A)
                 (A) (A) (A) (A) (A) (A) (A) (A) (A) (A) (A) (A)
                 (A) (A) (A) (A) (A) (A) (A) (A) (A) (A) (A) (A)
                 (A) (A) (A) (A) (A) (A) (A) (A) (A) (A) (A) (A)
                 (A) (A) (A) (A) (A) (A) (A) (A) (A) (A) (A) (A)
                 (A) (A) (A) (A) (A) (A) (A) (A) (A) (A) (A) (A)
                 (A) (A) (A) (A) (A) (A) (A) (A) (A) (A) (A) (A)
                 (A) (A) (A) (A) (A) (A) (A) (A) (A) (A) (A) (A)
                 (A) (A) (A) (A) (A) (A) (A) (A) (A) (A) (A) (A)
                 (A) (A) (A) (A) (A) (A) (A) (A) (A) (A) (A) (A)
                 (A) (A) (A) (A) (A) (A) (A) (A) (A) (A) (A) (A)
                 (A) (A) (A) (A) (A) (A) (A) (A) (A) (A) (A) (A)
                 (A) (A) (A) (A) (A) (A) (A) (A) (A) (A) (A) (A)
                 (A) (A) (A) (A) (A) (A) (A) (A) (A) (A) (A) (A)
                 (A) (A) (A) (A) (A) (A) (A) (A) (A) (A) (A) (A)
                 (A) (A) (A) (A) (A) (A) (A) (A) (A) (A) (A) (A)
                 (A) (A) (A) (A) (A) (A) (A) (A) (A) (A) (A) (A)
                 (A) (A) (A) (A) (A) (A) (A) (A) (A) (A) (A) (A)
                 (A) (A) (A) (A) (A) (A) (A) (A) (A) (A) (A) (A)
                 (A) (A) (A) (A) (A) (A) (A) (A) (A) (A) (A) (A)
                 (A) (A) (A) (A) (A) (A) (A) (A) (A) (A) (A) (A)
                 (A) (A) (A) (A) (A) (A) (A) (A) (A) (A) (A) (A)
                 (A) (A) (A) (A) (A) (A) (A) (A) (A) (A) (A) (A)
                 (A) (A) (A) (A) (A) (A) (A) (A) (A) (A) (A) (A)
                 (A) (A) (A) (A) (A) (A) (A) (A) (A) (A) (A) (A)
                 (A) (A) (A) (A) (A) (A) (A) (A) (A) (A) (A) (A)
                 (A) (A) (A) (A) (A) (A) (A) (A) (A) (A) (A) (A)
                 (A) (A) (A) (A) (A) (A) (A) (A) (A) (A) (A) (A)
                 (A) (A) (A) (A) (A) (A) (A) (A) (A) (A) (A) (A)
                 (A) (A) (A) (A) (A) (A) (A) (A) (A) (A) (A) (A)
                 (A) (A) (A) (A) (A) (A) (A) (A) (A) (A) (A) (A)
                 (A) (A) (A) (A) (A) (A) (A) (A) (A) (A) (A) (A)
                 (A) (A) (A) (A) (A) (A) (A) (A) (A) (A) (A) (A)
                 (A) (A) (A) (A) (A) (A) (A) (A) (A) (A) (A) (A)
                 (A) (A) (A) (A) (A) (A) (A) (A) (A) (A) (A) (A)
                 (A) (A) (A) (A) (A) (A) (A) (A) (A) (A) (A) (A)
                 (A) (A) (A) (A) (A) (A) (A) (A) (A) (A) (A) (A)
                 (A) (A) (A) (A) (A) (A) (A) (A) (A) (A) (A) (A)
                 (A) (A) (A) (A) (A) (A) (A) (A) (A) (A) (A) (A)
                 (A) (A) (A) (A) (A) (A) (A) (A) (A) (A) (A) (A)
                 (A) (A) (A) (A) (A) (A) (A) (A) (A) (A) (A) (A)
                 (A) (A) (A) (A) (A) (A) (A) (A) (A) (A) (A) (A)
                 (A) (A) (A) (A) (A) (A) (A) (A) (A) (A) (A) (A)
                 (A) (A) (A) (A) (A) (A) (A) (A) (A) (A) (A) (A)
                 (A) (A) (A) (A) (A) (A) (A) (A) (A) (A) (A) (A)
                 (A) (A) (A) (A) (A) (A) (A) (A) (A) (A) (A) (A)
                 (A) (A) (A) (A) (A) (A) (A) (A) (A) (A) (A) (A)
                 (A) (A) (A) (A) (A) (A) (A) (A) (A) (A) (A) (A)
                 (A) (A) (A) (A) (A) (A) (A) (A) (A) (A) (A) (A)
                 (A) (A) (A) (A) (A) (A) (A) (A) (A) (A) (A) (A)
                 (A) (A) (A) (A) (A) (A) (A) (A) (A) (A) (A) (A)
                 (A) (A) (A) (A) (A) (A) (A) (A) (A) (A) (A) (A)
                 (A) (A) (A) (A) (A) (A) (A) (A) (A) (A) (A) (A)
                 (A) (A) (A) (A) (A) (A) (A) (A) (A) (A) (A) (A)
                 (A) (A) (A) (A) (A) (A) (A) (A) (A) (A) (A) (A)
                 (A) (A) (A) (A) (A) (A) (A) (A) (A) (A) (A) (A)
                 (A) (A) (A) (A) (A) (A) (A) (A) (A) (A) (A) (A)
                 (A) (A) (A) (A) (A) (A) (A) (A) (A) (A) (A) (A)
                 (A) (A) (A) (A) (A) (A) (A) (A) (A) (A) (A) (A)
                 (A) (A) (A) (A) (A) (A) (A) (A) (A) (A) (A) (A)
                 (A) (A) (A) (A) (A) (A) (A) (A) (A) (A) (A) (A)
                 (A) (A) (A) (A) (A) (A) (A) (A) (A) (A) (A) (A)
                 (A) (A) (A) (A) (A) (A) (A) (A) (A) (A) (A) (A)
                 (A) (A) (A) (A) (A) (A) (A) (A) (A) (A) (A) (A)
                 (A) (A) (A) (A) (A) (A) (A) (A) (A) (A) (A) (A)
                 (A) (A) (A) (A) (A) (A) (A) (A) (A) (A) (A) (A)
                 (A) (A) (A) (A) (A) (A) (A) (A) (A) (A) (A) (A)
                 (A) (A) (A) (A) (A) (A) (A) (A) (A) (A) (A) (A)
                 (A) (A) (A) (A) (A) (A) (A) (A) (A) (A) (A) (A)
                 (A) (A) (A) (A) (A) (A) (A) (A) (A) (A) (A) (A)
                 (A) (A) (A) (A) (A) (A) (A) (A) (A) (A) (A) (A)
                 (A) (A) (A) (A) (A) (A) (A) (A) (A) (A) (A) (A)
                 (A) (A) (A) (A) (A) (A) (A) (A) (A) (A) (A) (A)
                 (A) (A) (A) (A) (A) (A) (A) (A) (A) (A) (A) (A)
                 (A) (A) (A) (A) (A) (A) (A) (A) (A) (A) (A) (A)
                 (A) (A) (A) (A) (A) (A) (A) (A) (A) (A) (A) (A)
                 (A) (A) (A) (A) (A) (A) (A) (A) (A) (A) (A) (A)
                 (A) (A) (A) (A) (A) (A) (A) (A) (A) (A) (A) (A)
    20 initial guesses have been made.
 Convergence on wavefunction:    0.001000000000000
 Davidson Disk Diagonalization:  ConvIn= 1.00D-03 SkipCon=T Conv= 1.00D-03.
 Max sub-space:  2000 roots to seek:    20 dimension of matrix:       549360
 Iteration     1 Dimension    20 NMult     0 NNew     20
 CISAX will form    20 AO SS matrices at one time.
 NMat=    20 NSing=    20 JSym2X= 0.
 FoFJK:  IHMeth= 1 ICntrl=       0 DoSepK=T KAlg= 0 I1Cent=           0 FoldK=F
 IRaf=         1 NMat=      40 IRICut=       1 DoRegI=T DoRafI=F ISym2E= 0 IDoP0=3 IntGTp=3.
 FoFCou: FMM=T IPFlag=           0 FMFlag=      100000 FMFlg1=        2001
         NFxFlg=           0 DoJE=F BraDBF=F KetDBF=F FulRan=T
         wScrn=  0.000000 ICntrl=       500 IOpCl=  0 I1Cent=           0 NGrid=           0
         NMat0=   20 NMatS0=     20 NMatT0=    0 NMatD0=   20 NMtDS0=    0 NMtDT0=    0
 Symmetry not used in FoFCou.
 FMM levels:  10  Number of levels for PrismC:   9
 New state      1 was old state      7
 New state      2 was old state      6
 New state      3 was old state      2
 New state      4 was old state      3
 New state      5 was old state      1
 Excitation Energies [eV] at current iteration:
 Root      1 :     2.614704868629740
 Root      2 :     2.620342808159538
 Root      3 :     2.667651635192047
 Root      4 :     2.703289105689634
 Root      5 :     2.721480589283817
 Root      6 :     2.855256364701782
 Root      7 :     3.508405336750022
 Root      8 :     3.625852389258047
 Root      9 :     3.656959709257232
 Root     10 :     3.667785779134905
 Root     11 :     3.738174038827506
 Root     12 :     3.760708669902748
 Root     13 :     4.299894240726774
 Root     14 :     4.305828918340634
 Root     15 :     4.628335931846302
 Root     16 :     4.804288462185551
 Root     17 :     4.929787720594988
 Root     18 :     4.978538264727040
 Root     19 :     5.080874241961869
 Root     20 :     5.093961148064060
 Iteration     2 Dimension    30 NMult    20 NNew     10
 CISAX will form    10 AO SS matrices at one time.
 NMat=    10 NSing=    10 JSym2X= 0.
 New state      1 was old state      3
 Root      1 not converged, maximum delta is    0.150090244321208
 New state      2 was old state      4
 Root      2 not converged, maximum delta is    0.154417920998372
 New state      3 was old state      2
 Root      3 not converged, maximum delta is    0.074806091806009
 New state      4 was old state      1
 Root      4 not converged, maximum delta is    0.103336880768046
 Root      5 not converged, maximum delta is    0.013292313867138
 Excitation Energies [eV] at current iteration:
 Root      1 :     1.794402644532946   Change is   -0.873248990659100
 Root      2 :     1.813439671823381   Change is   -0.889849433866253
 Root      3 :     2.235727925934416   Change is   -0.384614882225123
 Root      4 :     2.239311032398473   Change is   -0.375393836231266
 Root      5 :     2.720199465517800   Change is   -0.001281123766016
 Iteration     3 Dimension    40 NMult    30 NNew     10
 CISAX will form    10 AO SS matrices at one time.
 NMat=    10 NSing=    10 JSym2X= 0.
 Root      1 not converged, maximum delta is    0.054654671431167
 Root      2 not converged, maximum delta is    0.055633442633837
 Root      3 not converged, maximum delta is    0.044715906167349
 Root      4 not converged, maximum delta is    0.043009445753196
 Root      5 has converged.
 Excitation Energies [eV] at current iteration:
 Root      1 :     1.687683413851549   Change is   -0.106719230681397
 Root      2 :     1.704667706425118   Change is   -0.108771965398263
 Root      3 :     2.193677414377066   Change is   -0.042050511557350
 Root      4 :     2.200136671935430   Change is   -0.039174360463043
 Root      5 :     2.720197717832616   Change is   -0.000001747685184
 Iteration     4 Dimension    48 NMult    40 NNew      8
 CISAX will form     8 AO SS matrices at one time.
 NMat=     8 NSing=     8 JSym2X= 0.
 Root      1 not converged, maximum delta is    0.010564528025052
 Root      2 not converged, maximum delta is    0.010486018558586
 Root      3 not converged, maximum delta is    0.009953063493669
 Root      4 not converged, maximum delta is    0.009028764059744
 Root      5 has converged.
 Excitation Energies [eV] at current iteration:
 Root      1 :     1.670923321743200   Change is   -0.016760092108349
 Root      2 :     1.687841281668964   Change is   -0.016826424756155
 Root      3 :     2.186297183022885   Change is   -0.007380231354181
 Root      4 :     2.193326347169361   Change is   -0.006810324766070
 Root      5 :     2.720197717829322   Change is   -0.000000000003294
 Iteration     5 Dimension    56 NMult    48 NNew      8
 CISAX will form     8 AO SS matrices at one time.
 NMat=     8 NSing=     8 JSym2X= 0.
 Root      1 not converged, maximum delta is    0.001708773077910
 Root      2 not converged, maximum delta is    0.001735701674572
 Root      3 not converged, maximum delta is    0.002526691726168
 Root      4 not converged, maximum delta is    0.002392615685054
 Root      5 has converged.
 Excitation Energies [eV] at current iteration:
 Root      1 :     1.669156664030867   Change is   -0.001766657712333
 Root      2 :     1.686054486995812   Change is   -0.001786794673152
 Root      3 :     2.185438217626213   Change is   -0.000858965396672
 Root      4 :     2.192543472957615   Change is   -0.000782874211747
 Root      5 :     2.720197717826603   Change is   -0.000000000002720
 Iteration     6 Dimension    64 NMult    56 NNew      8
 CISAX will form     8 AO SS matrices at one time.
 NMat=     8 NSing=     8 JSym2X= 0.
 Root      1 not converged, maximum delta is    0.001081149042648
 Root      2 not converged, maximum delta is    0.001085891300928
 Root      3 not converged, maximum delta is    0.001090955957526
 Root      4 not converged, maximum delta is    0.001024402645090
 Root      5 has converged.
 Excitation Energies [eV] at current iteration:
 Root      1 :     1.668905591742999   Change is   -0.000251072287869
 Root      2 :     1.685797438432533   Change is   -0.000257048563279
 Root      3 :     2.185308162314732   Change is   -0.000130055311481
 Root      4 :     2.192424690962979   Change is   -0.000118781994635
 Root      5 :     2.720197717824608   Change is   -0.000000000001995
 Iteration     7 Dimension    72 NMult    64 NNew      8
 CISAX will form     8 AO SS matrices at one time.
 NMat=     8 NSing=     8 JSym2X= 0.
 Root      1 has converged.
 Root      2 has converged.
 Root      3 has converged.
 Root      4 has converged.
 Root      5 has converged.
 Excitation Energies [eV] at current iteration:
 Root      1 :     1.668881228545487   Change is   -0.000024363197511
[...]
 Alpha virt. eigenvalues --    1.84349   1.84583   1.84710   1.84852   1.84996
 Alpha virt. eigenvalues --    1.85175   1.85196   1.85357   1.85400   1.85560
 Alpha virt. eigenvalues --    1.85767   1.85967   1.86255   1.86435   1.86448
 Alpha virt. eigenvalues --    1.86685   1.86725   1.86872   1.86947   1.87167
 Alpha virt. eigenvalues --    1.87349   1.87561   1.87590   1.87768   1.87893
 Alpha virt. eigenvalues --    1.87940   1.88073   1.88268   1.88438   1.88641
 Alpha virt. eigenvalues --    1.88739   1.89003   1.89025   1.89151   1.89520
 Alpha virt. eigenvalues --    1.89638   1.89719   1.89932   1.90023   1.90269
 Alpha virt. eigenvalues --    1.90661   1.90986   1.91259   1.91350   1.91490
 Alpha virt. eigenvalues --    1.91690   1.92061   1.92268   1.92544   1.92768
 Alpha virt. eigenvalues --    1.92883   1.93215   1.93233   1.93552   1.94179
 Alpha virt. eigenvalues --    1.94371   1.94586   1.94872   1.95368   1.95632
 Alpha virt. eigenvalues --    1.95639   1.95907   1.95916   1.96046   1.96115
 Alpha virt. eigenvalues --    1.96283   1.96498   1.96564   1.96800   1.97001
 Alpha virt. eigenvalues --    1.97353   1.97647   1.97740   1.97899   1.98079
 Alpha virt. eigenvalues --    1.98258   1.98514   1.98606   1.99050   1.99141
 Alpha virt. eigenvalues --    1.99737   2.00029   2.00560   2.00793   2.00905
 Alpha virt. eigenvalues --    2.01193   2.01396   2.01549   2.01571   2.01630
 Alpha virt. eigenvalues --    2.01727   2.01931   2.02691   2.02794   2.03140
 Alpha virt. eigenvalues --    2.03204   2.03313   2.03398   2.03477   2.03619
 Alpha virt. eigenvalues --    2.03943   2.04118   2.04854   2.05029   2.05410
 Alpha virt. eigenvalues --    2.05683   2.05976   2.06360   2.06822   2.07096
 Alpha virt. eigenvalues --    2.07175   2.07422   2.08470   2.08585   2.08884
 Alpha virt. eigenvalues --    2.09086   2.09497   2.09696   2.10665   2.11071
 Alpha virt. eigenvalues --    2.11085   2.11454   2.11469   2.11628   2.11642
 Alpha virt. eigenvalues --    2.11928   2.12374   2.12559   2.12701   2.12741
 Alpha virt. eigenvalues --    2.12855   2.12941   2.13688   2.13734   2.14035
 Alpha virt. eigenvalues --    2.14294   2.15234   2.15461   2.15839   2.16162
 Alpha virt. eigenvalues --    2.16418   2.16648   2.16667   2.17237   2.17319
 Alpha virt. eigenvalues --    2.17606   2.17693   2.17966   2.18016   2.18055
 Alpha virt. eigenvalues --    2.18237   2.18783   2.18791   2.19347   2.19550
 Alpha virt. eigenvalues --    2.19903   2.19945   2.20123   2.20335   2.20523
 Alpha virt. eigenvalues --    2.21037   2.21203   2.21568   2.21659   2.21838
 Alpha virt. eigenvalues --    2.21983   2.22579   2.22763   2.23213   2.23399
 Alpha virt. eigenvalues --    2.24288   2.24469   2.24840   2.25042   2.26208
 Alpha virt. eigenvalues --    2.26527   2.26676   2.27013   2.27084   2.27299
 Alpha virt. eigenvalues --    2.28043   2.28387   2.29167   2.29487   2.29640
 Alpha virt. eigenvalues --    2.29952   2.30365   2.30736   2.30987   2.31002
 Alpha virt. eigenvalues --    2.31110   2.31259   2.32010   2.32281   2.33039
 Alpha virt. eigenvalues --    2.33314   2.33361   2.33551   2.34038   2.34206
 Alpha virt. eigenvalues --    2.35291   2.35437   2.35704   2.35979   2.36239
 Alpha virt. eigenvalues --    2.36393   2.36484   2.36520   2.37552   2.37720
 Alpha virt. eigenvalues --    2.38141   2.38414   2.38771   2.38883   2.39511
 Alpha virt. eigenvalues --    2.39733   2.40075   2.40315   2.40394   2.40922
 Alpha virt. eigenvalues --    2.41184   2.41318   2.41574   2.41752   2.41957
 Alpha virt. eigenvalues --    2.42238   2.42828   2.42851   2.43347   2.43476
 Alpha virt. eigenvalues --    2.44054   2.44081   2.44633   2.44807   2.44867
 Alpha virt. eigenvalues --    2.45058   2.45449   2.45621   2.46189   2.46334
 Alpha virt. eigenvalues --    2.46382   2.46551   2.46704   2.46878   2.47157
 Alpha virt. eigenvalues --    2.47442   2.47609   2.47937   2.49199   2.49419
 Alpha virt. eigenvalues --    2.49922   2.49951   2.50430   2.50491   2.51029
 Alpha virt. eigenvalues --    2.51357   2.51664   2.51786   2.52350   2.52521
 Alpha virt. eigenvalues --    2.52715   2.53229   2.53812   2.54009   2.54030
 Alpha virt. eigenvalues --    2.54304   2.54685   2.54859   2.55408   2.55710
 Alpha virt. eigenvalues --    2.57755   2.58115   2.58541   2.58942   2.60115
 Alpha virt. eigenvalues --    2.60393   2.60521   2.60992   2.61601   2.61855
 Alpha virt. eigenvalues --    2.62437   2.62492   2.62857   2.63180   2.63838
 Alpha virt. eigenvalues --    2.64131   2.64272   2.64446   2.64977   2.65148
 Alpha virt. eigenvalues --    2.65694   2.65939   2.66662   2.66808   2.66847
 Alpha virt. eigenvalues --    2.67095   2.67801   2.68024   2.68750   2.68856
 Alpha virt. eigenvalues --    2.68931   2.69144   2.69278   2.69643   2.69894
 Alpha virt. eigenvalues --    2.70173   2.70880   2.71145   2.71955   2.71982
 Alpha virt. eigenvalues --    2.72562   2.72602   2.72759   2.72876   2.73158
 Alpha virt. eigenvalues --    2.73303   2.73448   2.73622   2.74409   2.74559
 Alpha virt. eigenvalues --    2.74876   2.75115   2.76483   2.76555   2.77116
 Alpha virt. eigenvalues --    2.77134   2.77344   2.77639   2.78064   2.78315
 Alpha virt. eigenvalues --    2.78630   2.78733   2.79029   2.79224   2.80230
 Alpha virt. eigenvalues --    2.80291   2.80494   2.80791   2.81019   2.81193
 Alpha virt. eigenvalues --    2.81835   2.82060   2.82234   2.82370   2.83642
 Alpha virt. eigenvalues --    2.83669   2.83864   2.83986   2.84440   2.84552
 Alpha virt. eigenvalues --    2.84771   2.84905   2.85550   2.85722   2.86731
 Alpha virt. eigenvalues --    2.86895   2.87352   2.87532   2.88033   2.88256
 Alpha virt. eigenvalues --    2.88414   2.88648   2.88826   2.88903   2.90401
 Alpha virt. eigenvalues --    2.90710   2.91078   2.91099   2.93058   2.93368
 Alpha virt. eigenvalues --    2.93809   2.94093   2.94435   2.94579   2.95281
 Alpha virt. eigenvalues --    2.95551   2.96034   2.96123   2.96334   2.96416
 Alpha virt. eigenvalues --    2.97033   2.97096   2.97731   2.98046   2.98098
 Alpha virt. eigenvalues --    2.98270   2.98460   2.98516   2.98617   2.98776
 Alpha virt. eigenvalues --    2.98809   2.98950   2.99461   2.99807   2.99937
 Alpha virt. eigenvalues --    3.00130   3.00150   3.00360   3.00368   3.01048
 Alpha virt. eigenvalues --    3.01875   3.01923   3.01928   3.02181   3.02655
 Alpha virt. eigenvalues --    3.02894   3.02945   3.03214   3.03340   3.03758
 Alpha virt. eigenvalues --    3.04056   3.04101   3.04362   3.04438   3.04480
 Alpha virt. eigenvalues --    3.04755   3.05190   3.05362   3.06011   3.06196
 Alpha virt. eigenvalues --    3.06715   3.06975   3.07926   3.08028   3.09302
 Alpha virt. eigenvalues --    3.09359   3.09598   3.10347   3.10532   3.10788
 Alpha virt. eigenvalues --    3.11219   3.11481   3.11857   3.11899   3.12051
 Alpha virt. eigenvalues --    3.12379   3.13185   3.13522   3.13691   3.13721
 Alpha virt. eigenvalues --    3.14019   3.14639   3.15795   3.15983   3.17163
 Alpha virt. eigenvalues --    3.17555   3.17880   3.17952   3.19011   3.19046
 Alpha virt. eigenvalues --    3.22224   3.22728   3.23843   3.24480   3.24585
 Alpha virt. eigenvalues --    3.25259   3.26400   3.26686   3.27434   3.27517
 Alpha virt. eigenvalues --    3.29019   3.29369   3.31414   3.31421   3.33209
 Alpha virt. eigenvalues --    3.33310   3.40461   3.40563   3.42696   3.42827
 Alpha virt. eigenvalues --    3.48563   3.48737   3.49917   3.50306   3.50865
 Alpha virt. eigenvalues --    3.51366   3.56440   3.57026   3.58989   3.59356
 Alpha virt. eigenvalues --    3.62551   3.62736   3.66058   3.66116   3.67109
 Alpha virt. eigenvalues --    3.67710   3.73191   3.74144   3.75973   3.76786
          Condensed to atoms (all electrons):
 Mulliken charges:
               1
     1  Mg   0.837813
     2  C   -0.003149
     3  C   -0.094049
     4  C   -0.046191
     5  C   -0.063952
     6  N   -0.256816
     7  C   -0.052411
     8  C   -0.013934
     9  C   -0.086979
    10  C    0.046192
    11  C    0.104741
    12  C    0.053472
    13  C   -0.072112
    14  H    0.036787
    15  N   -0.433159
    16  C    0.168141
    17  C   -0.177202
    18  C   -0.004260
    19  C    0.148493
    20  C    0.110112
    21  C    0.011773
    22  O   -0.249833
    23  C    0.062691
    24  N   -0.341104
    25  C    0.041234
    26  C   -0.028174
    27  C   -0.024017
    28  C    0.074657
    29  C    0.076091
    30  C    0.035157
    31  C   -0.004550
    32  N   -0.310486
    33  C    0.080235
    34  C   -0.169711
    35  C    0.008516
    36  C    0.082669
    37  C    0.127319
    38  C    0.045995
    39  O   -0.187742
    40  C   -0.005251
    41  C    0.213196
    42  O   -0.257856
    43  O   -0.304646
    44  C    0.157480
    45  H   -0.017345
    46  H   -0.016943
    47  H   -0.041196
    48  H    0.001301
    49  H   -0.003896
    50  H    0.025669
    51  H    0.016452
    52  H    0.016956
    53  H    0.010869
    54  H    0.043823
    55  H    0.018169
    56  H    0.018005
    57  H    0.006139
    58  H    0.027040
    59  H    0.039113
    60  H    0.037777
    61  H    0.035381
    62  H    0.030838
    63  H    0.016138
    64  H    0.009868
    65  H    0.023228
    66  H    0.012738
    67  H    0.005066
    68  H    0.006573
    69  H    0.005223
    70  H    0.008260
    71  H    0.018079
    72  H    0.028485
    73  H    0.047837
    74  H    0.009280
    75  H    0.046416
    76  H    0.035559
    77  H    0.043546
    78  H    0.046576
    79  H    0.053792
    80  Mg   0.837632
    81  C   -0.016618
    82  C   -0.087849
    83  C   -0.045724
    84  C   -0.065176
    85  N   -0.254551
    86  C   -0.049783
    87  C   -0.014866
    88  C   -0.090454
    89  C    0.045764
    90  C    0.114413
    91  C    0.062734
    92  C   -0.079078
    93  H    0.038388
    94  N   -0.423446
    95  C    0.162776
    96  C   -0.174797
    97  C   -0.008064
    98  C    0.152050
    99  C    0.099437
   100  C    0.015386
   101  O   -0.253470
   102  C    0.061288
   103  N   -0.350125
   104  C    0.037436
   105  C   -0.019755
   106  C   -0.034823
   107  C    0.089036
   108  C    0.073760
   109  C    0.034795
   110  C   -0.007639
   111  N   -0.324175
   112  C    0.078582
   113  C   -0.163261
   114  C    0.002444
   115  C    0.096166
   116  C    0.131489
   117  C    0.042310
   118  O   -0.187226
   119  C    0.001097
   120  C    0.211460
   121  O   -0.251256
   122  O   -0.306015
   123  C    0.151412
   124  H   -0.019776
   125  H   -0.015881
   126  H   -0.040642
   127  H   -0.000224
   128  H   -0.004314
   129  H    0.022425
   130  H    0.014060
   131  H    0.016341
   132  H    0.013139
   133  H    0.037995
   134  H    0.020977
   135  H    0.018489
   136  H    0.008705
   137  H    0.025885
   138  H    0.039302
   139  H    0.038139
   140  H    0.036069
   141  H    0.033678
   142  H    0.014202
   143  H    0.012282
   144  H    0.024894
   145  H    0.011599
   146  H    0.005506
   147  H    0.006045
   148  H    0.003599
   149  H    0.010791
   150  H    0.017802
   151  H    0.030267
   152  H    0.046168
   153  H    0.008306
   154  H    0.046874
   155  H    0.034992
   156  H    0.045555
   157  H    0.051139
   158  H    0.053909
 Sum of Mulliken charges =  -0.00000
 Mulliken charges with hydrogens summed into heavy atoms:
               1
     1  Mg   0.837813
     2  C   -0.003149
     3  C   -0.111394
     4  C   -0.063134
     5  C   -0.105148
     6  N   -0.256816
     7  C   -0.052411
     8  C   -0.012633
     9  C   -0.090874
    10  C    0.046192
    11  C    0.163818
    12  C    0.108163
    13  C    0.000849
    15  N   -0.433159
    16  C    0.168141
    17  C   -0.177202
    18  C   -0.004260
    19  C    0.148493
    20  C    0.182404
    21  C    0.011773
    22  O   -0.249833
    23  C    0.166687
    24  N   -0.341104
    25  C    0.041234
    26  C   -0.012036
    27  C   -0.014149
    28  C    0.074657
    29  C    0.117123
    30  C    0.046954
    31  C    0.050274
    32  N   -0.310486
    33  C    0.080235
    34  C   -0.169711
    35  C    0.008516
    36  C    0.082669
    37  C    0.230853
    38  C    0.045995
    39  O   -0.187742
    40  C    0.030308
    41  C    0.213196
    42  O   -0.257856
    43  O   -0.304646
    44  C    0.301394
    80  Mg   0.837632
    81  C   -0.016618
    82  C   -0.107625
    83  C   -0.061605
    84  C   -0.105818
    85  N   -0.254551
    86  C   -0.049783
    87  C   -0.015090
    88  C   -0.094768
    89  C    0.045764
    90  C    0.167240
    91  C    0.113868
    92  C   -0.001224
    94  N   -0.423446
    95  C    0.162776
    96  C   -0.174797
    97  C   -0.008064
    98  C    0.152050
    99  C    0.173329
   100  C    0.015386
   101  O   -0.253470
   102  C    0.169174
   103  N   -0.350125
   104  C    0.037436
   105  C   -0.005552
   106  C   -0.022540
   107  C    0.089036
   108  C    0.115759
   109  C    0.044440
   110  C    0.051221
   111  N   -0.324175
   112  C    0.078582
   113  C   -0.163261
   114  C    0.002444
   115  C    0.096166
   116  C    0.232837
   117  C    0.042310
   118  O   -0.187226
   119  C    0.036089
   120  C    0.211460
   121  O   -0.251256
   122  O   -0.306015
   123  C    0.302014
 Electronic spatial extent (au):  <R**2>=         183093.6186
 Charge=             -0.0000 electrons
 Dipole moment (field-independent basis, Debye):
    X=              3.6847    Y=              7.1168    Z=             -1.8073  Tot=              8.2154
 Quadrupole moment (field-independent basis, Debye-Ang):
   XX=           -482.4736   YY=           -551.2125   ZZ=           -475.0110
   XY=             21.9513   XZ=            -35.1688   YZ=             -9.6508
 Traceless Quadrupole moment (field-independent basis, Debye-Ang):
   XX=             20.4255   YY=            -48.3135   ZZ=             27.8880
   XY=             21.9513   XZ=            -35.1688   YZ=             -9.6508
 Octapole moment (field-independent basis, Debye-Ang**2):
  XXX=            146.1566  YYY=            236.3919  ZZZ=            -14.6255  XYY=            -65.8524
  XXY=           -188.8919  XXZ=            -20.7373  XZZ=            349.0708  YZZ=            -53.5738
  YYZ=           -226.0874  XYZ=           -130.8605
 Hexadecapole moment (field-independent basis, Debye-Ang**3):
 XXXX=        -193876.3626 YYYY=         -34742.3787 ZZZZ=         -16902.6549 XXXY=           7596.0192
 XXXZ=          -4316.3280 YYYX=           -316.5569 YYYZ=           -298.3089 ZZZX=            -57.6174
 ZZZY=            381.7736 XXYY=         -41535.3647 XXZZ=         -34380.6589 YYZZ=          -8161.8866
 XXYZ=           -213.2667 YYXZ=          -1061.9368 ZZXY=           -452.3538
 N-N= 1.400340879263D+04 E-N=-3.748762885095D+04  KE= 4.028802240191D+03
 Leave Link  601 at Sun Sep 12 02:20:14 2021, MaxMem= 23488102400 cpu:              15.9 elap:               0.8
 (Enter /sw/apps/gaussian-16.0/g16/l9999.exe)
 1\1\GINC-BP1-COMPUTE00090\SP\RCAM-B3LYP TD-FC\def2SVP\C68H72Mg2N8O8\OF
 15641\12-Sep-2021\0\\#p cam-b3lyp/Def2SVP td=(nstates=5)\\TDDFT excite
 d states in gaussian\\0,1\Mg,0,0.,0.,0.\C,0,-0.217,-2.218,2.801\C,0,-1
 .255,2.442,2.026\C,0,-0.245,1.85,-2.564\C,0,0.146,-2.824,-2.037\N,0,-0
 .617,-0.009,2.126\C,0,-0.594,-0.908,3.105\C,0,-0.936,-0.309,4.502\C,0,
 -1.773,0.964,4.032\C,0,-1.155,1.168,2.66\C,0,-3.263,0.685,3.863\C,0,0.
 345,0.11,5.299\C,0,0.124,0.397,6.787\H,0,1.168,0.033,7.733\N,0,-0.185,
 1.961,-0.152\C,0,-0.703,2.8,0.777\C,0,-0.62,4.156,0.193\C,0,-0.187,4.0
 15,-1.225\C,0,-0.214,2.583,-1.38\C,0,-0.887,5.406,0.974\C,0,0.181,5.01
 3,-2.277\O,0,0.303,4.69,-3.508\C,0,0.31,6.414,-1.837\N,0,-0.265,-0.413
 ,-2.029\C,0,-0.279,0.569,-2.937\C,0,-0.196,0.024,-4.332\C,0,0.124,-1.5
 33,-4.18\C,0,0.086,-1.632,-2.635\C,0,-1.451,0.205,-5.197\C,0,1.373,-2.
 07,-4.923\C,0,2.626,-1.49,-4.306\N,0,0.15,-2.144,0.303\C,0,0.173,-3.13
 6,-0.688\C,0,0.173,-4.438,0.004\C,0,0.133,-4.111,1.358\C,0,0.083,-2.69
 5,1.502\C,0,0.149,-5.715,-0.623\C,0,0.096,-4.629,2.716\O,0,0.208,-5.74
 7,3.221\C,0,-0.255,-3.428,3.701\C,0,0.717,-3.482,4.848\O,0,1.931,-3.25
 5,4.669\O,0,0.038,-3.556,6.003\C,0,0.943,-3.583,7.183\H,0,-1.859,3.22,
 2.497\H,0,-0.218,2.453,-3.474\H,0,0.276,-3.747,-2.605\H,0,-1.554,-0.94
 9,5.132\H,0,-1.585,1.831,4.665\H,0,-3.484,-0.377,3.969\H,0,-3.511,1.02
 7,2.858\H,0,-3.852,1.301,4.543\H,0,0.669,1.096,4.966\H,0,1.13,-0.639,5
 .189\H,0,-0.844,0.026,7.125\H,0,0.062,1.477,6.921\H,0,-1.344,5.186,1.9
 38\H,0,-1.651,5.963,0.432\H,0,0.007,6.02,1.084\H,0,-0.635,6.744,-1.405
 \H,0,0.665,6.97,-2.704\H,0,1.048,6.466,-1.036\H,0,0.608,0.501,-4.891\H
 ,0,-0.692,-2.156,-4.547\H,0,-1.267,0.74,-6.129\H,0,-2.204,0.714,-4.596
 \H,0,-1.967,-0.72,-5.453\H,0,1.356,-1.759,-5.967\H,0,1.452,-3.157,-4.9
 02\H,0,2.714,-0.522,-4.798\H,0,3.487,-2.121,-4.529\H,0,2.495,-1.303,-3
 .24\H,0,0.867,-6.333,-0.084\H,0,0.404,-5.642,-1.68\H,0,-0.891,-5.999,-
 0.463\H,0,-1.283,-3.581,4.028\H,0,0.698,-4.478,7.755\H,0,0.833,-2.619,
 7.68\H,0,2.,-3.754,6.976\Mg,0,15.75847,1.42307,1.20382\C,0,13.42842,-1
 .3014,1.03887\C,0,13.31737,3.39564,-0.13207\C,0,17.91807,3.72976,0.916
 19\C,0,18.30184,-0.94835,1.43477\N,0,13.68223,0.98809,0.5775\C,0,12.88
 543,-0.06913,0.61921\C,0,11.40393,0.22759,0.2633\C,0,11.6287,1.55155,-
 0.61732\C,0,12.93971,2.03539,-0.001\C,0,11.87129,1.26136,-2.08915\C,0,
 10.53182,0.52386,1.5336\C,0,9.02073,0.51708,1.2921\H,0,8.1493,0.01014,
 2.34856\N,0,15.52411,3.37901,0.96314\C,0,14.46045,4.01086,0.42399\C,0,
 14.7858,5.44518,0.456\C,0,16.19609,5.59634,0.90652\C,0,16.61647,4.2096
 3,0.92657\C,0,13.77641,6.51539,0.15731\C,0,17.03231,6.79208,1.24875\O,
 0,18.30372,6.70728,1.3872\C,0,16.33133,8.08216,1.32505\N,0,17.82367,1.
 39931,0.96563\C,0,18.52751,2.54406,0.91981\C,0,20.0103,2.27718,1.02231
 \C,0,20.14329,0.72677,1.39124\C,0,18.65188,0.32767,1.34861\C,0,20.8279
 ,2.57286,-0.23486\C,0,20.96706,0.37334,2.65976\C,0,20.24905,0.8664,3.8
 9537\N,0,15.86833,-0.72389,1.41956\C,0,17.03527,-1.51749,1.47003\C,0,1
 6.60065,-2.92896,1.50589\C,0,15.20049,-2.85884,1.45013\C,0,14.79208,-1
 .50044,1.36379\C,0,17.45984,-4.06352,1.53239\C,0,13.9755,-3.62554,1.43
 395\O,0,13.69356,-4.81541,1.56981\C,0,12.77842,-2.65717,1.03941\C,0,11
 .65152,-2.8935,2.00728\O,0,11.78293,-2.6116,3.21138\O,0,10.53837,-3.20
 688,1.31949\C,0,9.3901,-3.43966,2.23552\H,0,12.70329,4.04691,-0.75468\
 H,0,18.70141,4.49112,0.92957\H,0,19.03077,-1.74336,1.60591\H,0,10.9178
 2,-0.53645,-0.33143\H,0,10.83734,2.27724,-0.44857\H,0,11.97021,0.20312
 ,-2.28017\H,0,12.78676,1.77903,-2.34405\H,0,11.08652,1.71936,-2.698\H,
 0,10.67056,1.57251,1.82656\H,0,10.77376,-0.1545,2.32853\H,0,8.75942,0.
 06413,0.328\H,0,8.67877,1.55115,1.20387\H,0,12.87258,6.09844,-0.30383\
 H,0,14.20835,7.15416,-0.62068\H,0,13.54308,7.1296,1.02964\H,0,15.8521,
 8.28972,0.37126\H,0,17.07816,8.80068,1.66834\H,0,15.53061,8.0018,2.068
 69\H,0,20.45541,2.86639,1.81466\H,0,20.64338,0.15935,0.59262\H,0,21.64
 924,3.29365,-0.06186\H,0,20.1565,2.93803,-1.00063\H,0,21.27135,1.7011,
 -0.71298\H,0,21.93333,0.88324,2.63806\H,0,21.16536,-0.68816,2.76413\H,
 0,20.54637,1.9179,3.95047\H,0,20.57823,0.31654,4.77476\H,0,19.16204,0.
 83804,3.75655\H,0,17.04662,-4.75008,2.25929\H,0,18.48057,-3.78346,1.78
 429\H,0,17.3704,-4.40014,0.49607\H,0,12.4925,-2.89101,0.01319\H,0,8.99
 991,-4.4373,2.0116\H,0,8.70575,-2.58453,2.08001\H,0,9.60363,-3.52881,3
 .29425\\Version=ES64L-G16RevA.03\State=1-A\HF=-4069.811948\RMSD=4.648e
 -09\PG=C01 [X(C68H72Mg2N8O8)]\\@


 READER, WHETHER YOU BE DILETTANTE OR PROFESSOR ... SHOW YOURSELF TO BE
 MORE HUMAN THAN CRITICAL, AND THEN YOUR PLEASURE WILL INCREASE.
                                           -- DOMENICO SCARLATTI (1738)
 Job cpu time:       0 days 12 hours 21 minutes 18.7 seconds.
 Elapsed time:       0 days  0 hours 31 minutes 30.5 seconds.
 File lengths (MBytes):  RWF=  13225 Int=      0 D2E=      0 Chk=    574 Scr=      1
 Normal termination of Gaussian 16 at Sun Sep 12 02:20:14 2021.
