 Entering Gaussian System, Link 0=g16
 Initial command:
 /sw/apps/gaussian-16.0/g16/l1.exe "/tmp/Gau-122459.inp" -scrdir="/tmp/"
 Entering Link 1 = /sw/apps/gaussian-16.0/g16/l1.exe PID=    122460.
  
 Copyright (c) 1988,1990,1992,1993,1995,1998,2003,2009,2016,
            Gaussian, Inc.  All Rights Reserved.
  
 This is part of the Gaussian(R) 16 program.  It is based on
 the Gaussian(R) 09 system (copyright 2009, Gaussian, Inc.),
 the Gaussian(R) 03 system (copyright 2003, Gaussian, Inc.),
 the Gaussian(R) 98 system (copyright 1998, Gaussian, Inc.),
 the Gaussian(R) 94 system (copyright 1995, Gaussian, Inc.),
 the Gaussian 92(TM) system (copyright 1992, Gaussian, Inc.),
 the Gaussian 90(TM) system (copyright 1990, Gaussian, Inc.),
 the Gaussian 88(TM) system (copyright 1988, Gaussian, Inc.),
 the Gaussian 86(TM) system (copyright 1986, Carnegie Mellon
 University), and the Gaussian 82(TM) system (copyright 1983,
 Carnegie Mellon University). Gaussian is a federally registered
 trademark of Gaussian, Inc.
  
 This software contains proprietary and confidential information,
 including trade secrets, belonging to Gaussian, Inc.
  
 This software is provided under written license and may be
 used, copied, transmitted, or stored only in accord with that
 written license.
  
 The following legend is applicable only to US Government
 contracts under FAR:
  
                    RESTRICTED RIGHTS LEGEND
  
 Use, reproduction and disclosure by the US Government is
 subject to restrictions as set forth in subparagraphs (a)
 and (c) of the Commercial Computer Software - Restricted
 Rights clause in FAR 52.227-19.
  
 Gaussian, Inc.
 340 Quinnipiac St., Bldg. 40, Wallingford CT 06492
  
  
 ---------------------------------------------------------------
 Warning -- This program may not be used in any manner that
 competes with the business of Gaussian, Inc. or will provide
 assistance to any competitor of Gaussian, Inc.  The licensee
 of this program is prohibited from giving any competitor of
 Gaussian, Inc. access to this program.  By using this program,
 the user acknowledges that Gaussian, Inc. is engaged in the
 business of creating and licensing software in the field of
 computational chemistry and represents and warrants to the
 licensee that it is not a competitor of Gaussian, Inc. and that
 it will not use this program in any manner prohibited above.
 ---------------------------------------------------------------
  

 Cite this work as:
 Gaussian 16, Revision A.03,
 M. J. Frisch, G. W. Trucks, H. B. Schlegel, G. E. Scuseria, 
 M. A. Robb, J. R. Cheeseman, G. Scalmani, V. Barone, 
 G. A. Petersson, H. Nakatsuji, X. Li, M. Caricato, A. V. Marenich, 
 J. Bloino, B. G. Janesko, R. Gomperts, B. Mennucci, H. P. Hratchian, 
 J. V. Ortiz, A. F. Izmaylov, J. L. Sonnenberg, D. Williams-Young, 
 F. Ding, F. Lipparini, F. Egidi, J. Goings, B. Peng, A. Petrone, 
 T. Henderson, D. Ranasinghe, V. G. Zakrzewski, J. Gao, N. Rega, 
 G. Zheng, W. Liang, M. Hada, M. Ehara, K. Toyota, R. Fukuda, 
 J. Hasegawa, M. Ishida, T. Nakajima, Y. Honda, O. Kitao, H. Nakai, 
 T. Vreven, K. Throssell, J. A. Montgomery, Jr., J. E. Peralta, 
 F. Ogliaro, M. J. Bearpark, J. J. Heyd, E. N. Brothers, K. N. Kudin, 
 V. N. Staroverov, T. A. Keith, R. Kobayashi, J. Normand, 
 K. Raghavachari, A. P. Rendell, J. C. Burant, S. S. Iyengar, 
 J. Tomasi, M. Cossi, J. M. Millam, M. Klene, C. Adamo, R. Cammi, 
 J. W. Ochterski, R. L. Martin, K. Morokuma, O. Farkas, 
 J. B. Foresman, and D. J. Fox, Gaussian, Inc., Wallingford CT, 2016.
 
 ******************************************
 Gaussian 16:  ES64L-G16RevA.03 25-Dec-2016
                 9-Sep-2021 
 ******************************************
 %nproc=24
 Will use up to   24 processors via shared memory.
 %mem=175gb
 -----------------------------------
 #p cam-b3lyp/Def2SVP td=(nstates=5)
 -----------------------------------
 1/38=1,172=1/1;
 2/12=2,17=6,18=5,40=1/2;
 3/5=43,7=101,11=9,25=1,30=1,74=-40/1,2,3,8;
 4//1;
 5/5=2,38=5/2;
 8/6=1,10=1,108=5/1;
 9/41=5,42=1,70=2/14;
 6/7=2,8=2,9=2,10=2/1;
 99/5=1,9=1/99;
 Leave Link    1 at Thu Sep  9 15:36:57 2021, MaxMem= 23488102400 cpu:               0.9 elap:               0.0
 (Enter /sw/apps/gaussian-16.0/g16/l101.exe)
 --------------------------------
 TDDFT excited states in gaussian
 --------------------------------
 Symbolic Z-matrix:
 Charge =  0 Multiplicity = 1
 Mg                    0.        0.        0. 
 C                    -0.217    -2.218     2.801 
 C                    -1.255     2.442     2.026 
 C                    -0.245     1.85     -2.564 
 C                     0.146    -2.824    -2.037 
 N                    -0.617    -0.009     2.126 
 C                    -0.594    -0.908     3.105 
 C                    -0.936    -0.309     4.502 
 C                    -1.773     0.964     4.032 
 C                    -1.155     1.168     2.66 
 C                    -3.263     0.685     3.863 
 C                     0.345     0.11      5.299 
 C                     0.124     0.397     6.787 
 H                     1.168     0.033     7.733 
 N                    -0.185     1.961    -0.152 
 C                    -0.703     2.8       0.777 
 C                    -0.62      4.156     0.193 
 C                    -0.187     4.015    -1.225 
 C                    -0.214     2.583    -1.38 
 C                    -0.887     5.406     0.974 
 C                     0.181     5.013    -2.277 
 O                     0.303     4.69     -3.508 
 C                     0.31      6.414    -1.837 
 N                    -0.265    -0.413    -2.029 
 C                    -0.279     0.569    -2.937 
 C                    -0.196     0.024    -4.332 
 C                     0.124    -1.533    -4.18 
 C                     0.086    -1.632    -2.635 
 C                    -1.451     0.205    -5.197 
 C                     1.373    -2.07     -4.923 
 C                     2.626    -1.49     -4.306 
 N                     0.15     -2.144     0.303 
 C                     0.173    -3.136    -0.688 
 C                     0.173    -4.438     0.004 
 C                     0.133    -4.111     1.358 
 C                     0.083    -2.695     1.502 
 C                     0.149    -5.715    -0.623 
 C                     0.096    -4.629     2.716 
 O                     0.208    -5.747     3.221 
 C                    -0.255    -3.428     3.701 
 C                     0.717    -3.482     4.848 
 O                     1.931    -3.255     4.669 
 O                     0.038    -3.556     6.003 
 C                     0.943    -3.583     7.183 
 H                    -1.859     3.22      2.497 
 H                    -0.218     2.453    -3.474 
 H                     0.276    -3.747    -2.605 
 H                    -1.554    -0.949     5.132 
 H                    -1.585     1.831     4.665 
 H                    -3.484    -0.377     3.969 
 H                    -3.511     1.027     2.858 
 H                    -3.852     1.301     4.543 
 H                     0.669     1.096     4.966 
 H                     1.13     -0.639     5.189 
 H                    -0.844     0.026     7.125 
 H                     0.062     1.477     6.921 
 H                    -1.344     5.186     1.938 
 H                    -1.651     5.963     0.432 
 H                     0.007     6.02      1.084 
 H                    -0.635     6.744    -1.405 
 H                     0.665     6.97     -2.704 
 H                     1.048     6.466    -1.036 
 H                     0.608     0.501    -4.891 
 H                    -0.692    -2.156    -4.547 
 H                    -1.267     0.74     -6.129 
 H                    -2.204     0.714    -4.596 
 H                    -1.967    -0.72     -5.453 
 H                     1.356    -1.759    -5.967 
 H                     1.452    -3.157    -4.902 
 H                     2.714    -0.522    -4.798 
 H                     3.487    -2.121    -4.529 
 H                     2.495    -1.303    -3.24 
 H                     0.867    -6.333    -0.084 
 H                     0.404    -5.642    -1.68 
 H                    -0.891    -5.999    -0.463 
 H                    -1.283    -3.581     4.028 
 H                     0.698    -4.478     7.755 
 H                     0.833    -2.619     7.68 
 H                     2.       -3.754     6.976 
 Mg                    8.94232   0.7985    0.67509 
 C                     8.92026   1.67432  -2.80507 
 C                     8.42316  -2.43219  -0.28811 
 C                     8.50756   0.06186   3.73055 
 C                     8.31754   4.15371   1.38074 
 N                     8.71868  -0.13344  -1.31833 
 C                     8.78978   0.28945  -2.5715 
 C                     8.79762  -0.84308  -3.63304 
 C                     8.07001  -1.98589  -2.77081 
 C                     8.45244  -1.51524  -1.36906 
 C                     6.5552   -1.95561  -2.88812 
 C                     10.25139  -1.26955  -4.04134 
 C                     10.33668  -2.14805  -5.29143 
 H                     11.47827  -1.97693  -6.18582 
 N                     9.01432  -0.95831   1.59542 
 C                     8.79996  -2.17308   1.04802 
 C                     8.94938  -3.14105   2.14569 
 C                     9.10674  -2.38622   3.41856 
 C                     8.856    -1.03565   2.95684 
 C                     9.01367  -4.62373   1.92 
 C                     9.41725  -2.81122   4.82182 
 O                     9.27097  -2.01405   5.81478 
 C                     9.80813  -4.21595   5.01007 
 N                     8.27107   1.89591   2.30833 
 C                     8.22712   1.35068   3.53664 
 C                     7.97746   2.40203   4.5915 
 C                     8.10411   3.80634   3.83688 
 C                     8.32661   3.29963   2.39496 
 C                     6.62527   2.32547   5.30009 
 C                     9.11208   4.8322    4.42364 
 C                     10.5253   4.32402   4.25063 
 N                     8.84759   2.63497  -0.45912 
 C                     8.54564   3.92488   0.02982 
 C                     8.48809   4.83004  -1.13629 
 C                     8.73982   3.99294  -2.23373 
 C                     8.92012   2.65657  -1.78529 
 C                     8.18357   6.21993  -1.09627 
 C                     8.88348   3.93408  -3.6706 
 O                     8.91939   4.76756  -4.5749 
 C                     8.8814    2.40847  -4.1166 
 C                     10.02665   2.20157  -5.06955 
 O                     11.20186   2.32194  -4.68096 
 O                     9.55536   1.68601  -6.21953 
 C                     10.6554   1.45269  -7.19282 
 H                     8.03527  -3.43506  -0.46884 
 H                     8.45405  -0.11786   4.8068 
 H                     8.22506   5.23208   1.52648 
 H                     8.22478  -0.63097  -4.52782 
 H                     8.49587  -2.9651   -2.97367 
 H                     6.21101  -1.09378  -3.44032 
 H                     6.18201  -1.92812  -1.87273 
 H                     6.19155  -2.89352  -3.31757 
 H                     10.6427  -1.97004  -3.29238 
 H                     10.88146  -0.40963  -4.16031 
 H                     9.39909  -2.14726  -5.86053 
 H                     10.45871  -3.18753  -4.9774 
 H                     8.70403  -4.88941   0.9017 
 H                     8.25209  -5.07834   2.5628 
 H                     9.98821  -5.0465    2.17339 
 H                     9.01297  -4.86362   4.64855 
 H                     10.07627  -4.30588   6.06453 
 H                     10.68749  -4.42062   4.38922 
 H                     8.72756   2.35321   5.37129 
 H                     7.15058   4.35462   3.83367 
 H                     6.713     2.23568   6.39932 
 H                     6.0735    1.48857   4.89304 
 H                     5.9544    3.16069   5.10631 
 H                     8.95298   4.94707   5.49865 
 H                     9.03251   5.81863   3.97909 
 H                     10.65303   3.65389   5.10602 
 H                     11.23549   5.14773   4.28504 
 H                     10.61739   3.71893   3.34121 
 H                     8.88547   6.71157  -1.75668 
 H                     8.24792   6.61204  -0.08342 
 H                     7.15483   6.20492  -1.46605 
 H                     7.91748   2.20534  -4.58475 
 H                     10.39086   1.99001  -8.10879 
 H                     10.76142   0.354    -7.26611 
 H                     11.62394   1.88336  -6.96722 
 
 ITRead=  0  0  0  0  0  0  0  0  0  0  0  0  0  0  0  0  0  0  0  0
 ITRead=  0  0  0  0  0  0  0  0  0  0  0  0  0  0  0  0  0  0  0  0
 ITRead=  0  0  0  0  0  0  0  0  0  0  0  0  0  0  0  0  0  0  0  0
 ITRead=  0  0  0  0  0  0  0  0  0  0  0  0  0  0  0  0  0  0  0  0
 ITRead=  0  0  0  0  0  0  0  0  0  0  0  0  0  0  0  0  0  0  0  0
 ITRead=  0  0  0  0  0  0  0  0  0  0  0  0  0  0  0  0  0  0  0  0
 ITRead=  0  0  0  0  0  0  0  0  0  0  0  0  0  0  0  0  0  0  0  0
 ITRead=  0  0  0  0  0  0  0  0  0  0  0  0  0  0  0  0  0  0
 MicOpt= -1 -1 -1 -1 -1 -1 -1 -1 -1 -1 -1 -1 -1 -1 -1 -1 -1 -1 -1 -1
 MicOpt= -1 -1 -1 -1 -1 -1 -1 -1 -1 -1 -1 -1 -1 -1 -1 -1 -1 -1 -1 -1
 MicOpt= -1 -1 -1 -1 -1 -1 -1 -1 -1 -1 -1 -1 -1 -1 -1 -1 -1 -1 -1 -1
 MicOpt= -1 -1 -1 -1 -1 -1 -1 -1 -1 -1 -1 -1 -1 -1 -1 -1 -1 -1 -1 -1
 MicOpt= -1 -1 -1 -1 -1 -1 -1 -1 -1 -1 -1 -1 -1 -1 -1 -1 -1 -1 -1 -1
 MicOpt= -1 -1 -1 -1 -1 -1 -1 -1 -1 -1 -1 -1 -1 -1 -1 -1 -1 -1 -1 -1
 MicOpt= -1 -1 -1 -1 -1 -1 -1 -1 -1 -1 -1 -1 -1 -1 -1 -1 -1 -1 -1 -1
 MicOpt= -1 -1 -1 -1 -1 -1 -1 -1 -1 -1 -1 -1 -1 -1 -1 -1 -1 -1
 NAtoms=    158 NQM=      158 NQMF=       0 NMMI=      0 NMMIF=      0
                NMic=       0 NMicF=      0.
                    Isotopes and Nuclear Properties:
 (Nuclear quadrupole moments (NQMom) in fm**2, nuclear magnetic moments (NMagM)
  in nuclear magnetons)

  Atom         1           2           3           4           5           6           7           8           9          10
 IAtWgt=          24          12          12          12          12          14          12          12          12          12
 AtmWgt=  23.9850450  12.0000000  12.0000000  12.0000000  12.0000000  14.0030740  12.0000000  12.0000000  12.0000000  12.0000000
 NucSpn=           0           0           0           0           0           2           0           0           0           0
 AtZEff=  -0.0000000  -0.0000000  -0.0000000  -0.0000000  -0.0000000  -0.0000000  -0.0000000  -0.0000000  -0.0000000  -0.0000000
 NQMom=    0.0000000   0.0000000   0.0000000   0.0000000   0.0000000   2.0440000   0.0000000   0.0000000   0.0000000   0.0000000
 NMagM=    0.0000000   0.0000000   0.0000000   0.0000000   0.0000000   0.4037610   0.0000000   0.0000000   0.0000000   0.0000000
 AtZNuc=  12.0000000   6.0000000   6.0000000   6.0000000   6.0000000   7.0000000   6.0000000   6.0000000   6.0000000   6.0000000

  Atom        11          12          13          14          15          16          17          18          19          20
 IAtWgt=          12          12          12           1          14          12          12          12          12          12
 AtmWgt=  12.0000000  12.0000000  12.0000000   1.0078250  14.0030740  12.0000000  12.0000000  12.0000000  12.0000000  12.0000000
 NucSpn=           0           0           0           1           2           0           0           0           0           0
 AtZEff=  -0.0000000  -0.0000000  -0.0000000  -0.0000000  -0.0000000  -0.0000000  -0.0000000  -0.0000000  -0.0000000  -0.0000000
 NQMom=    0.0000000   0.0000000   0.0000000   0.0000000   2.0440000   0.0000000   0.0000000   0.0000000   0.0000000   0.0000000
 NMagM=    0.0000000   0.0000000   0.0000000   2.7928460   0.4037610   0.0000000   0.0000000   0.0000000   0.0000000   0.0000000
 AtZNuc=   6.0000000   6.0000000   6.0000000   1.0000000   7.0000000   6.0000000   6.0000000   6.0000000   6.0000000   6.0000000

  Atom        21          22          23          24          25          26          27          28          29          30
 IAtWgt=          12          16          12          14          12          12          12          12          12          12
 AtmWgt=  12.0000000  15.9949146  12.0000000  14.0030740  12.0000000  12.0000000  12.0000000  12.0000000  12.0000000  12.0000000
 NucSpn=           0           0           0           2           0           0           0           0           0           0
 AtZEff=  -0.0000000  -0.0000000  -0.0000000  -0.0000000  -0.0000000  -0.0000000  -0.0000000  -0.0000000  -0.0000000  -0.0000000
 NQMom=    0.0000000   0.0000000   0.0000000   2.0440000   0.0000000   0.0000000   0.0000000   0.0000000   0.0000000   0.0000000
 NMagM=    0.0000000   0.0000000   0.0000000   0.4037610   0.0000000   0.0000000   0.0000000   0.0000000   0.0000000   0.0000000
 AtZNuc=   6.0000000   8.0000000   6.0000000   7.0000000   6.0000000   6.0000000   6.0000000   6.0000000   6.0000000   6.0000000

  Atom        31          32          33          34          35          36          37          38          39          40
 IAtWgt=          12          14          12          12          12          12          12          12          16          12
 AtmWgt=  12.0000000  14.0030740  12.0000000  12.0000000  12.0000000  12.0000000  12.0000000  12.0000000  15.9949146  12.0000000
 NucSpn=           0           2           0           0           0           0           0           0           0           0
 AtZEff=  -0.0000000  -0.0000000  -0.0000000  -0.0000000  -0.0000000  -0.0000000  -0.0000000  -0.0000000  -0.0000000  -0.0000000
 NQMom=    0.0000000   2.0440000   0.0000000   0.0000000   0.0000000   0.0000000   0.0000000   0.0000000   0.0000000   0.0000000
 NMagM=    0.0000000   0.4037610   0.0000000   0.0000000   0.0000000   0.0000000   0.0000000   0.0000000   0.0000000   0.0000000
 AtZNuc=   6.0000000   7.0000000   6.0000000   6.0000000   6.0000000   6.0000000   6.0000000   6.0000000   8.0000000   6.0000000

  Atom        41          42          43          44          45          46          47          48          49          50
 IAtWgt=          12          16          16          12           1           1           1           1           1           1
 AtmWgt=  12.0000000  15.9949146  15.9949146  12.0000000   1.0078250   1.0078250   1.0078250   1.0078250   1.0078250   1.0078250
 NucSpn=           0           0           0           0           1           1           1           1           1           1
 AtZEff=  -0.0000000  -0.0000000  -0.0000000  -0.0000000  -0.0000000  -0.0000000  -0.0000000  -0.0000000  -0.0000000  -0.0000000
 NQMom=    0.0000000   0.0000000   0.0000000   0.0000000   0.0000000   0.0000000   0.0000000   0.0000000   0.0000000   0.0000000
 NMagM=    0.0000000   0.0000000   0.0000000   0.0000000   2.7928460   2.7928460   2.7928460   2.7928460   2.7928460   2.7928460
 AtZNuc=   6.0000000   8.0000000   8.0000000   6.0000000   1.0000000   1.0000000   1.0000000   1.0000000   1.0000000   1.0000000

  Atom        51          52          53          54          55          56          57          58          59          60
 IAtWgt=           1           1           1           1           1           1           1           1           1           1
 AtmWgt=   1.0078250   1.0078250   1.0078250   1.0078250   1.0078250   1.0078250   1.0078250   1.0078250   1.0078250   1.0078250
 NucSpn=           1           1           1           1           1           1           1           1           1           1
 AtZEff=  -0.0000000  -0.0000000  -0.0000000  -0.0000000  -0.0000000  -0.0000000  -0.0000000  -0.0000000  -0.0000000  -0.0000000
 NQMom=    0.0000000   0.0000000   0.0000000   0.0000000   0.0000000   0.0000000   0.0000000   0.0000000   0.0000000   0.0000000
 NMagM=    2.7928460   2.7928460   2.7928460   2.7928460   2.7928460   2.7928460   2.7928460   2.7928460   2.7928460   2.7928460
 AtZNuc=   1.0000000   1.0000000   1.0000000   1.0000000   1.0000000   1.0000000   1.0000000   1.0000000   1.0000000   1.0000000

  Atom        61          62          63          64          65          66          67          68          69          70
 IAtWgt=           1           1           1           1           1           1           1           1           1           1
 AtmWgt=   1.0078250   1.0078250   1.0078250   1.0078250   1.0078250   1.0078250   1.0078250   1.0078250   1.0078250   1.0078250
 NucSpn=           1           1           1           1           1           1           1           1           1           1
 AtZEff=  -0.0000000  -0.0000000  -0.0000000  -0.0000000  -0.0000000  -0.0000000  -0.0000000  -0.0000000  -0.0000000  -0.0000000
 NQMom=    0.0000000   0.0000000   0.0000000   0.0000000   0.0000000   0.0000000   0.0000000   0.0000000   0.0000000   0.0000000
 NMagM=    2.7928460   2.7928460   2.7928460   2.7928460   2.7928460   2.7928460   2.7928460   2.7928460   2.7928460   2.7928460
 AtZNuc=   1.0000000   1.0000000   1.0000000   1.0000000   1.0000000   1.0000000   1.0000000   1.0000000   1.0000000   1.0000000

  Atom        71          72          73          74          75          76          77          78          79          80
 IAtWgt=           1           1           1           1           1           1           1           1           1          24
 AtmWgt=   1.0078250   1.0078250   1.0078250   1.0078250   1.0078250   1.0078250   1.0078250   1.0078250   1.0078250  23.9850450
 NucSpn=           1           1           1           1           1           1           1           1           1           0
 AtZEff=  -0.0000000  -0.0000000  -0.0000000  -0.0000000  -0.0000000  -0.0000000  -0.0000000  -0.0000000  -0.0000000  -0.0000000
 NQMom=    0.0000000   0.0000000   0.0000000   0.0000000   0.0000000   0.0000000   0.0000000   0.0000000   0.0000000   0.0000000
 NMagM=    2.7928460   2.7928460   2.7928460   2.7928460   2.7928460   2.7928460   2.7928460   2.7928460   2.7928460   0.0000000
 AtZNuc=   1.0000000   1.0000000   1.0000000   1.0000000   1.0000000   1.0000000   1.0000000   1.0000000   1.0000000  12.0000000

  Atom        81          82          83          84          85          86          87          88          89          90
 IAtWgt=          12          12          12          12          14          12          12          12          12          12
 AtmWgt=  12.0000000  12.0000000  12.0000000  12.0000000  14.0030740  12.0000000  12.0000000  12.0000000  12.0000000  12.0000000
 NucSpn=           0           0           0           0           2           0           0           0           0           0
 AtZEff=  -0.0000000  -0.0000000  -0.0000000  -0.0000000  -0.0000000  -0.0000000  -0.0000000  -0.0000000  -0.0000000  -0.0000000
 NQMom=    0.0000000   0.0000000   0.0000000   0.0000000   2.0440000   0.0000000   0.0000000   0.0000000   0.0000000   0.0000000
 NMagM=    0.0000000   0.0000000   0.0000000   0.0000000   0.4037610   0.0000000   0.0000000   0.0000000   0.0000000   0.0000000
 AtZNuc=   6.0000000   6.0000000   6.0000000   6.0000000   7.0000000   6.0000000   6.0000000   6.0000000   6.0000000   6.0000000

  Atom        91          92          93          94          95          96          97          98          99         100
 IAtWgt=          12          12           1          14          12          12          12          12          12          12
 AtmWgt=  12.0000000  12.0000000   1.0078250  14.0030740  12.0000000  12.0000000  12.0000000  12.0000000  12.0000000  12.0000000
 NucSpn=           0           0           1           2           0           0           0           0           0           0
 AtZEff=  -0.0000000  -0.0000000  -0.0000000  -0.0000000  -0.0000000  -0.0000000  -0.0000000  -0.0000000  -0.0000000  -0.0000000
 NQMom=    0.0000000   0.0000000   0.0000000   2.0440000   0.0000000   0.0000000   0.0000000   0.0000000   0.0000000   0.0000000
 NMagM=    0.0000000   0.0000000   2.7928460   0.4037610   0.0000000   0.0000000   0.0000000   0.0000000   0.0000000   0.0000000
 AtZNuc=   6.0000000   6.0000000   1.0000000   7.0000000   6.0000000   6.0000000   6.0000000   6.0000000   6.0000000   6.0000000

  Atom       101         102         103         104         105         106         107         108         109         110
 IAtWgt=          16          12          14          12          12          12          12          12          12          12
 AtmWgt=  15.9949146  12.0000000  14.0030740  12.0000000  12.0000000  12.0000000  12.0000000  12.0000000  12.0000000  12.0000000
 NucSpn=           0           0           2           0           0           0           0           0           0           0
 AtZEff=  -0.0000000  -0.0000000  -0.0000000  -0.0000000  -0.0000000  -0.0000000  -0.0000000  -0.0000000  -0.0000000  -0.0000000
 NQMom=    0.0000000   0.0000000   2.0440000   0.0000000   0.0000000   0.0000000   0.0000000   0.0000000   0.0000000   0.0000000
 NMagM=    0.0000000   0.0000000   0.4037610   0.0000000   0.0000000   0.0000000   0.0000000   0.0000000   0.0000000   0.0000000
 AtZNuc=   8.0000000   6.0000000   7.0000000   6.0000000   6.0000000   6.0000000   6.0000000   6.0000000   6.0000000   6.0000000

  Atom       111         112         113         114         115         116         117         118         119         120
 IAtWgt=          14          12          12          12          12          12          12          16          12          12
 AtmWgt=  14.0030740  12.0000000  12.0000000  12.0000000  12.0000000  12.0000000  12.0000000  15.9949146  12.0000000  12.0000000
 NucSpn=           2           0           0           0           0           0           0           0           0           0
 AtZEff=  -0.0000000  -0.0000000  -0.0000000  -0.0000000  -0.0000000  -0.0000000  -0.0000000  -0.0000000  -0.0000000  -0.0000000
 NQMom=    2.0440000   0.0000000   0.0000000   0.0000000   0.0000000   0.0000000   0.0000000   0.0000000   0.0000000   0.0000000
 NMagM=    0.4037610   0.0000000   0.0000000   0.0000000   0.0000000   0.0000000   0.0000000   0.0000000   0.0000000   0.0000000
 AtZNuc=   7.0000000   6.0000000   6.0000000   6.0000000   6.0000000   6.0000000   6.0000000   8.0000000   6.0000000   6.0000000

  Atom       121         122         123         124         125         126         127         128         129         130
 IAtWgt=          16          16          12           1           1           1           1           1           1           1
 AtmWgt=  15.9949146  15.9949146  12.0000000   1.0078250   1.0078250   1.0078250   1.0078250   1.0078250   1.0078250   1.0078250
 NucSpn=           0           0           0           1           1           1           1           1           1           1
 AtZEff=  -0.0000000  -0.0000000  -0.0000000  -0.0000000  -0.0000000  -0.0000000  -0.0000000  -0.0000000  -0.0000000  -0.0000000
 NQMom=    0.0000000   0.0000000   0.0000000   0.0000000   0.0000000   0.0000000   0.0000000   0.0000000   0.0000000   0.0000000
 NMagM=    0.0000000   0.0000000   0.0000000   2.7928460   2.7928460   2.7928460   2.7928460   2.7928460   2.7928460   2.7928460
 AtZNuc=   8.0000000   8.0000000   6.0000000   1.0000000   1.0000000   1.0000000   1.0000000   1.0000000   1.0000000   1.0000000

  Atom       131         132         133         134         135         136         137         138         139         140
 IAtWgt=           1           1           1           1           1           1           1           1           1           1
 AtmWgt=   1.0078250   1.0078250   1.0078250   1.0078250   1.0078250   1.0078250   1.0078250   1.0078250   1.0078250   1.0078250
 NucSpn=           1           1           1           1           1           1           1           1           1           1
 AtZEff=  -0.0000000  -0.0000000  -0.0000000  -0.0000000  -0.0000000  -0.0000000  -0.0000000  -0.0000000  -0.0000000  -0.0000000
 NQMom=    0.0000000   0.0000000   0.0000000   0.0000000   0.0000000   0.0000000   0.0000000   0.0000000   0.0000000   0.0000000
 NMagM=    2.7928460   2.7928460   2.7928460   2.7928460   2.7928460   2.7928460   2.7928460   2.7928460   2.7928460   2.7928460
 AtZNuc=   1.0000000   1.0000000   1.0000000   1.0000000   1.0000000   1.0000000   1.0000000   1.0000000   1.0000000   1.0000000

  Atom       141         142         143         144         145         146         147         148         149         150
 IAtWgt=           1           1           1           1           1           1           1           1           1           1
 AtmWgt=   1.0078250   1.0078250   1.0078250   1.0078250   1.0078250   1.0078250   1.0078250   1.0078250   1.0078250   1.0078250
 NucSpn=           1           1           1           1           1           1           1           1           1           1
 AtZEff=  -0.0000000  -0.0000000  -0.0000000  -0.0000000  -0.0000000  -0.0000000  -0.0000000  -0.0000000  -0.0000000  -0.0000000
 NQMom=    0.0000000   0.0000000   0.0000000   0.0000000   0.0000000   0.0000000   0.0000000   0.0000000   0.0000000   0.0000000
 NMagM=    2.7928460   2.7928460   2.7928460   2.7928460   2.7928460   2.7928460   2.7928460   2.7928460   2.7928460   2.7928460
 AtZNuc=   1.0000000   1.0000000   1.0000000   1.0000000   1.0000000   1.0000000   1.0000000   1.0000000   1.0000000   1.0000000

  Atom       151         152         153         154         155         156         157         158
 IAtWgt=           1           1           1           1           1           1           1           1
 AtmWgt=   1.0078250   1.0078250   1.0078250   1.0078250   1.0078250   1.0078250   1.0078250   1.0078250
 NucSpn=           1           1           1           1           1           1           1           1
 AtZEff=  -0.0000000  -0.0000000  -0.0000000  -0.0000000  -0.0000000  -0.0000000  -0.0000000  -0.0000000
 NQMom=    0.0000000   0.0000000   0.0000000   0.0000000   0.0000000   0.0000000   0.0000000   0.0000000
 NMagM=    2.7928460   2.7928460   2.7928460   2.7928460   2.7928460   2.7928460   2.7928460   2.7928460
 AtZNuc=   1.0000000   1.0000000   1.0000000   1.0000000   1.0000000   1.0000000   1.0000000   1.0000000
 Leave Link  101 at Thu Sep  9 15:36:57 2021, MaxMem= 23488102400 cpu:               3.5 elap:               0.2
 (Enter /sw/apps/gaussian-16.0/g16/l202.exe)
 Stoichiometry    C68H72Mg2N8O8
 Framework group  C1[X(C68H72Mg2N8O8)]
 Deg. of freedom   468
 Full point group                 C1      NOp   1
 Largest Abelian subgroup         C1      NOp   1
 Largest concise Abelian subgroup C1      NOp   1
                         Standard orientation:                         
 ---------------------------------------------------------------------
 Center     Atomic      Atomic             Coordinates (Angstroms)
 Number     Number       Type             X           Y           Z
 ---------------------------------------------------------------------
      1         12           0        4.073556   -1.713558    0.013537
      2          6           0        5.560169    1.412033   -0.899085
      3          6           0        5.338963   -1.231118    3.145479
      4          6           0        3.163790   -4.668591    0.718327
      5          6           0        3.918273   -2.463989   -3.386228
      6          7           0        5.278625   -0.076382    0.889954
      7          6           0        5.731527    1.093405    0.449899
      8          6           0        6.339483    1.983346    1.574963
      9          6           0        6.719127    0.841866    2.621334
     10          6           0        5.695502   -0.205595    2.220160
     11          6           0        8.116817    0.266935    2.415379
     12          6           0        5.293295    2.983394    2.172565
     13          6           0        5.879559    4.102459    3.038211
     14          1           0        5.259898    5.418346    2.995674
     15          7           0        3.796957   -2.585710    1.764449
     16          6           0        4.381469   -2.247684    2.938915
     17          6           0        3.852058   -3.193558    3.944761
     18          6           0        3.058577   -4.227390    3.223877
     19          6           0        3.333259   -3.879080    1.853254
     20          6           0        4.073977   -3.037575    5.417911
     21          6           0        2.198941   -5.357347    3.695422
     22          8           0        1.788326   -6.275073    2.905644
     23          6           0        1.919625   -5.411000    5.141847
     24          7           0        3.806967   -3.431132   -1.142537
     25          6           0        3.349515   -4.564500   -0.599215
     26          6           0        2.972643   -5.562331   -1.653844
     27          6           0        3.040000   -4.781737   -3.045206
     28          6           0        3.551951   -3.415891   -2.524974
     29          6           0        3.850793   -6.818901   -1.730620
     30          6           0        1.766163   -4.804765   -3.926811
     31          6           0        0.659766   -4.026676   -3.250378
     32          7           0        4.465113   -0.659273   -1.842861
     33          6           0        4.355641   -1.172645   -3.143299
     34          6           0        4.828367   -0.122145   -4.063650
     35          6           0        5.197967    0.930120   -3.228198
     36          6           0        4.995172    0.550670   -1.870559
     37          6           0        4.928957   -0.237058   -5.478256
     38          6           0        5.740172    2.277685   -3.165439
     39          8           0        6.015271    3.141434   -3.999556
     40          6           0        6.110780    2.598610   -1.650353
     41          6           0        5.553710    3.957514   -1.324222
     42          8           0        4.321497    4.150331   -1.281329
     43          8           0        6.543381    4.749870   -0.884601
     44          6           0        6.052991    6.104661   -0.515531
     45          1           0        5.881081   -1.301087    4.090547
     46          1           0        2.745640   -5.658873    0.910496
     47          1           0        3.819622   -2.595208   -4.465350
     48          1           0        7.233962    2.534820    1.284778
     49          1           0        6.551843    1.160737    3.649954
     50          1           0        8.573248    0.646966    1.501503
     51          1           0        7.980990   -0.812923    2.352516
     52          1           0        8.740040    0.439946    3.293125
     53          1           0        4.689432    2.468088    2.919473
     54          1           0        4.682907    3.421314    1.382010
     55          1           0        6.958900    4.184103    2.906808
     56          1           0        5.754283    3.825701    4.085069
     57          1           0        4.830258   -2.283231    5.631334
     58          1           0        4.511888   -3.969703    5.774393
     59          1           0        3.145822   -2.838803    5.953961
     60          1           0        2.860725   -5.480644    5.687767
     61          1           0        1.217860   -6.232367    5.282323
     62          1           0        1.456863   -4.472073    5.447161
     63          1           0        1.959207   -5.930514   -1.499525
     64          1           0        3.821376   -5.173746   -3.696708
     65          1           0        3.293700   -7.749747   -1.621632
     66          1           0        4.625755   -6.735504   -0.969194
     67          1           0        4.447325   -6.904888   -2.638459
     68          1           0        1.409709   -5.826704   -4.051418
     69          1           0        1.922779   -4.384673   -4.920413
     70          1           0        0.232847   -4.757184   -2.564134
     71          1           0       -0.079212   -3.701024   -3.983231
     72          1           0        1.058109   -3.208973   -2.649404
     73          1           0        4.545652    0.697278   -5.888212
     74          1           0        4.363981   -1.092800   -5.847188
     75          1           0        6.004984   -0.365635   -5.594399
     76          1           0        7.197902    2.574572   -1.581718
     77          1           0        6.634944    6.824509   -1.091191
     78          1           0        6.103571    6.166988    0.571650
     79          1           0        5.041041    6.354859   -0.835995
     80         12           0       -4.234287    1.743038    0.313753
     81          6           0       -5.421635   -1.596052   -0.251703
     82          6           0       -3.368186    1.833611   -2.984171
     83          6           0       -2.774830    4.503885    0.875181
     84          6           0       -4.134883    0.983243    3.713541
     85          7           0       -4.421963    0.249549   -1.306900
     86          6           0       -4.945424   -0.962033   -1.418188
     87          6           0       -5.032603   -1.493792   -2.873930
     88          6           0       -3.863642   -0.605646   -3.524773
     89          6           0       -3.903658    0.587264   -2.571865
     90          6           0       -2.491314   -1.250719   -3.425149
     91          6           0       -6.421460   -1.191466   -3.538540
     92          6           0       -6.688930   -1.947569   -4.841817
     93          1           0       -8.053253   -2.383827   -5.125973
     94          7           0       -3.667555    3.174143   -0.938974
     95          6           0       -3.378706    3.040200   -2.250420
     96          6           0       -2.994493    4.381481   -2.716808
     97          6           0       -2.921174    5.285274   -1.536761
     98          6           0       -3.102014    4.330406   -0.461764
     99          6           0       -2.815396    4.717776   -4.168785
    100          6           0       -2.708983    6.762408   -1.398084
    101          8           0       -2.443752    7.301189   -0.265735
    102          6           0       -2.728445    7.547084   -2.641224
    103          7           0       -3.352190    2.551412    2.013987
    104          6           0       -2.836172    3.792990    2.001312
    105          6           0       -2.508629    4.261859    3.398908
    106          6           0       -3.139089    3.166157    4.378466
    107          6           0       -3.667850    2.163340    3.329578
    108          6           0       -1.022177    4.429778    3.712983
    109          6           0       -4.117747    3.678359    5.470510
    110          6           0       -5.382468    4.199400    4.826798
    111          7           0       -4.859376    0.090320    1.557061
    112          6           0       -4.699297   -0.033995    2.954567
    113          6           0       -5.176472   -1.380953    3.329330
    114          6           0       -5.562690   -1.959889    2.111074
    115          6           0       -5.322983   -1.046232    1.049347
    116          6           0       -5.167131   -1.931422    4.641970
    117          6           0       -6.108746   -3.140129    1.480554
    118          8           0       -6.581045   -4.201625    1.885395
    119          6           0       -5.923916   -3.004204   -0.092268
    120          6           0       -7.231000   -3.360083   -0.746025
    121          8           0       -8.237486   -2.650045   -0.574438
    122          8           0       -7.024502   -4.349575   -1.634075
    123          6           0       -8.289966   -4.729965   -2.316514
    124          1           0       -2.852895    1.884988   -3.943705
    125          1           0       -2.370143    5.483942    1.138228
    126          1           0       -4.227921    0.706553    4.765901
    127          1           0       -4.806061   -2.547188   -2.987088
    128          1           0       -4.118928   -0.295610   -4.534757
    129          1           0       -2.510914   -2.149039   -2.826167
    130          1           0       -1.849079   -0.507331   -2.971330
    131          1           0       -2.085453   -1.429719   -4.424939
    132          1           0       -6.421000   -0.160791   -3.915980
    133          1           0       -7.221685   -1.369448   -2.846755
    134          1           0       -5.982393   -2.772924   -4.991968
    135          1           0       -6.495752   -1.273579   -5.679936
    136          1           0       -2.772352    3.813773   -4.788723
    137          1           0       -1.821413    5.166128   -4.272924
    138          1           0       -3.562598    5.426454   -4.532286
    139          1           0       -1.959807    7.175661   -3.314791
    140          1           0       -2.648778    8.590346   -2.329568
    141          1           0       -3.689898    7.386105   -3.141537
    142          1           0       -2.968152    5.221265    3.602580
    143          1           0       -2.363511    2.639493    4.953744
    144          1           0       -0.761014    5.448549    4.056443
    145          1           0       -0.455028    4.169391    2.829194
    146          1           0       -0.625717    3.737828    4.454086
    147          1           0       -3.675657    4.518848    6.011147
    148          1           0       -4.378128    2.923913    6.205366
    149          1           0       -5.110950    5.219630    4.539590
    150          1           0       -6.204696    4.195582    5.539525
    151          1           0       -5.612087    3.648207    3.907493
    152          1           0       -6.118271   -2.428828    4.777751
    153          1           0       -5.009014   -1.161898    5.394690
    154          1           0       -4.313461   -2.609848    4.562882
    155          1           0       -5.120970   -3.680755   -0.387437
    156          1           0       -8.424352   -5.805333   -2.164139
    157          1           0       -8.183982   -4.378445   -3.360034
    158          1           0       -9.215737   -4.341260   -1.908718
 ---------------------------------------------------------------------
 Rotational constants (GHZ):           0.0211274           0.0141401           0.0122437
 Leave Link  202 at Thu Sep  9 15:36:57 2021, MaxMem= 23488102400 cpu:               0.2 elap:               0.0
 (Enter /sw/apps/gaussian-16.0/g16/l301.exe)
 Standard basis: def2SVP (5D, 7F)
 Ernie: Thresh=  0.10000D-02 Tol=  0.10000D-05 Strict=F.
 There are  1658 symmetry adapted cartesian basis functions of A   symmetry.
 There are  1572 symmetry adapted basis functions of A   symmetry.
  1572 basis functions,  2678 primitive gaussians,  1658 cartesian basis functions
   312 alpha electrons      312 beta electrons
       nuclear repulsion energy     15476.0235312044 Hartrees.
 IExCor=20419 DFT=T Ex+Corr=CAM-B3LYP ExCW=0 ScaHFX=  1.000000
 ScaDFX=  1.000000  1.000000  1.000000  0.810000 ScalE2=  1.000000  1.000000
 IRadAn=      5 IRanWt=     -1 IRanGd=            0 ICorTp=0 IEmpDi=  4
 HFx  wShort=  0.000000 wLong=  0.330000 cFull=  0.190000 cShort=  0.000000 cLong=  0.460000
 DFx  wShort=  0.000000 wLong=  0.330000 cFull=  0.190000 cShort=  0.000000 cLong=  0.460000
 NAtoms=  158 NActive=  158 NUniq=  158 SFac= 1.00D+00 NAtFMM=   60 NAOKFM=T Big=T
 Integral buffers will be    131072 words long.
 Raffenetti 1 integral format.
 Two-electron integral symmetry is turned on.
 Leave Link  301 at Thu Sep  9 15:36:57 2021, MaxMem= 23488102400 cpu:               1.4 elap:               0.1
 (Enter /sw/apps/gaussian-16.0/g16/l302.exe)
 NPDir=0 NMtPBC=     1 NCelOv=     1 NCel=       1 NClECP=     1 NCelD=      1
         NCelK=      1 NCelE2=     1 NClLst=     1 CellRange=     0.0.
 One-electron integrals computed using PRISM.
 One-electron integral symmetry used in STVInt
   1 Symmetry operations used in ECPInt.
 ECPInt:  NShTT=  271216 NPrTT=  987664 LenC2=  153715 LenP2D=  320625.
 LDataN:  DoStor=T MaxTD1= 4 Len=   56
 NBasis=  1572 RedAO= T EigKep=  3.36D-04  NBF=  1572
 NBsUse=  1572 1.00D-06 EigRej= -1.00D+00 NBFU=  1572
 Precomputing XC quadrature grid using
 IXCGrd= 4 IRadAn=           5 IRanWt=          -1 IRanGd=           0 AccXCQ= 0.00D+00.
 Generated NRdTot=       0 NPtTot=           0 NUsed=           0 NTot=          32
 NSgBfM=  1192  1182  1189  1192  1192 MxSgAt=   158 MxSgA2=   158.
 Leave Link  302 at Thu Sep  9 15:37:03 2021, MaxMem= 23488102400 cpu:             128.6 elap:               5.4
 (Enter /sw/apps/gaussian-16.0/g16/l303.exe)
 DipDrv:  MaxL=1.
 Leave Link  303 at Thu Sep  9 15:37:03 2021, MaxMem= 23488102400 cpu:              10.0 elap:               0.5
 (Enter /sw/apps/gaussian-16.0/g16/l308.exe)
 Leave Link  308 at Thu Sep  9 15:37:04 2021, MaxMem= 23488102400 cpu:              16.0 elap:               0.8
 (Enter /sw/apps/gaussian-16.0/g16/l401.exe)
 ExpMin= 3.36D-02 ExpMax= 4.95D+03 ExpMxC= 7.45D+02 IAcc=3 IRadAn=         5 AccDes= 0.00D+00
 Harris functional with IExCor=20419 and IRadAn=       5 diagonalized for initial guess.
 HarFok:  IExCor=20419 AccDes= 0.00D+00 IRadAn=         5 IDoV= 1 UseB2=F ITyADJ=14
 ICtDFT=  3500011 ScaDFX=  1.000000  1.000000  1.000000  1.000000
 FoFCou: FMM=F IPFlag=           0 FMFlag=      100000 FMFlg1=        2001
         NFxFlg=           0 DoJE=T BraDBF=F KetDBF=T FulRan=T
         wScrn=  0.000000 ICntrl=       500 IOpCl=  0 I1Cent=   200000004 NGrid=           0
         NMat0=    1 NMatS0=      1 NMatT0=    0 NMatD0=    1 NMtDS0=    0 NMtDT0=    0
 Petite list used in FoFCou.
 Harris En= -3918.65793483955    
 JPrj=0 DoOrth=F DoCkMO=F.
 Leave Link  401 at Thu Sep  9 15:37:12 2021, MaxMem= 23488102400 cpu:             193.6 elap:               8.1
 (Enter /sw/apps/gaussian-16.0/g16/l502.exe)
 Integral symmetry usage will be decided dynamically.
 Closed shell SCF:
 Using DIIS extrapolation, IDIIS=  1040.
 NGot= 23488102400 LenX= 23482547354 LenY= 23479796732
 Requested convergence on RMS density matrix=1.00D-08 within 128 cycles.
 Requested convergence on MAX density matrix=1.00D-06.
 Requested convergence on             energy=1.00D-06.
 No special actions if energy rises.
 Fock matrices will be formed incrementally for  20 cycles.

 Cycle   1  Pass 1  IDiag  1:
 FoFJK:  IHMeth= 1 ICntrl=       0 DoSepK=T KAlg= 0 I1Cent=           0 FoldK=F
 IRaf=         1 NMat=       1 IRICut=       1 DoRegI=T DoRafI=F ISym2E= 0 IDoP0=0 IntGTp=1.
 FoFCou: FMM=T IPFlag=           0 FMFlag=      100000 FMFlg1=        2001
         NFxFlg=           0 DoJE=T BraDBF=F KetDBF=F FulRan=T
         wScrn=  0.000000 ICntrl=       500 IOpCl=  0 I1Cent=           0 NGrid=           0
         NMat0=    1 NMatS0=      1 NMatT0=    0 NMatD0=    1 NMtDS0=    0 NMtDT0=    0
 Symmetry not used in FoFCou.
 FMM levels:  10  Number of levels for PrismC:   9
 E= -4068.95039275059    
 DIIS: error= 2.04D-02 at cycle   1 NSaved=   1.
 NSaved= 1 IEnMin= 1 EnMin= -4068.95039275059     IErMin= 1 ErrMin= 2.04D-02
 ErrMax= 2.04D-02  0.00D+00 EMaxC= 1.00D-01 BMatC= 1.69D+00 BMatP= 1.69D+00
 IDIUse=3 WtCom= 7.96D-01 WtEn= 2.04D-01
 Coeff-Com:  0.100D+01
 Coeff-En:   0.100D+01
 Coeff:      0.100D+01
 Gap=     0.121 Goal=   None    Shift=    0.000
 GapD=    0.121 DampG=1.000 DampE=0.500 DampFc=0.5000 IDamp=-1.
 Damping current iteration by 5.00D-01
 RMSDP=1.57D-03 MaxDP=1.35D-01              OVMax= 1.94D-01

 Cycle   2  Pass 1  IDiag  1:
 RMSU=  7.68D-04    CP:  9.82D-01
 E= -4069.33931858584     Delta-E=       -0.388925835250 Rises=F Damp=T
 DIIS: error= 1.27D-02 at cycle   2 NSaved=   2.
 NSaved= 2 IEnMin= 2 EnMin= -4069.33931858584     IErMin= 2 ErrMin= 1.27D-02
 ErrMax= 1.27D-02  0.00D+00 EMaxC= 1.00D-01 BMatC= 3.06D-01 BMatP= 1.69D+00
 IDIUse=3 WtCom= 8.73D-01 WtEn= 1.27D-01
 Coeff-Com: -0.214D+00 0.121D+01
 Coeff-En:   0.000D+00 0.100D+01
 Coeff:     -0.187D+00 0.119D+01
 Gap=     0.133 Goal=   None    Shift=    0.000
 RMSDP=7.63D-04 MaxDP=9.51D-02 DE=-3.89D-01 OVMax= 1.80D-01

 Cycle   3  Pass 1  IDiag  1:
 RMSU=  7.29D-04    CP:  9.68D-01  1.24D+00
 E= -4069.63085021737     Delta-E=       -0.291531631534 Rises=F Damp=F
 DIIS: error= 1.57D-02 at cycle   3 NSaved=   3.
 NSaved= 3 IEnMin= 3 EnMin= -4069.63085021737     IErMin= 2 ErrMin= 1.27D-02
 ErrMax= 1.57D-02  0.00D+00 EMaxC= 1.00D-01 BMatC= 2.00D-01 BMatP= 3.06D-01
 IDIUse=3 WtCom= 8.43D-01 WtEn= 1.57D-01
 Coeff-Com: -0.267D+00 0.651D+00 0.617D+00
 Coeff-En:   0.000D+00 0.000D+00 0.100D+01
 Coeff:     -0.225D+00 0.549D+00 0.677D+00
 Gap=     0.121 Goal=   None    Shift=    0.000
 RMSDP=5.00D-04 MaxDP=4.58D-02 DE=-2.92D-01 OVMax= 1.29D-01

 Cycle   4  Pass 1  IDiag  1:
 RMSU=  2.61D-04    CP:  9.65D-01  1.55D+00  5.12D-01
 E= -4069.76760179260     Delta-E=       -0.136751575224 Rises=F Damp=F
 DIIS: error= 7.22D-03 at cycle   4 NSaved=   4.
 NSaved= 4 IEnMin= 4 EnMin= -4069.76760179260     IErMin= 4 ErrMin= 7.22D-03
 ErrMax= 7.22D-03  0.00D+00 EMaxC= 1.00D-01 BMatC= 4.88D-02 BMatP= 2.00D-01
 IDIUse=3 WtCom= 9.28D-01 WtEn= 7.22D-02
 Coeff-Com: -0.108D+00 0.223D+00 0.407D+00 0.478D+00
 Coeff-En:   0.000D+00 0.000D+00 0.213D+00 0.787D+00
 Coeff:     -0.999D-01 0.207D+00 0.393D+00 0.500D+00
 Gap=     0.120 Goal=   None    Shift=    0.000
 RMSDP=1.92D-04 MaxDP=2.03D-02 DE=-1.37D-01 OVMax= 5.20D-02

 Cycle   5  Pass 1  IDiag  1:
 RMSU=  7.21D-05    CP:  9.64D-01  1.49D+00  6.90D-01  5.64D-01
 E= -4069.81086254481     Delta-E=       -0.043260752216 Rises=F Damp=F
 DIIS: error= 8.31D-04 at cycle   5 NSaved=   5.
 NSaved= 5 IEnMin= 5 EnMin= -4069.81086254481     IErMin= 5 ErrMin= 8.31D-04
 ErrMax= 8.31D-04  0.00D+00 EMaxC= 1.00D-01 BMatC= 9.88D-04 BMatP= 4.88D-02
 IDIUse=3 WtCom= 9.92D-01 WtEn= 8.31D-03
 Coeff-Com: -0.331D-01 0.647D-01 0.155D+00 0.240D+00 0.573D+00
 Coeff-En:   0.000D+00 0.000D+00 0.000D+00 0.000D+00 0.100D+01
 Coeff:     -0.328D-01 0.641D-01 0.154D+00 0.238D+00 0.577D+00
 Gap=     0.120 Goal=   None    Shift=    0.000
 RMSDP=3.57D-05 MaxDP=4.03D-03 DE=-4.33D-02 OVMax= 1.20D-02

 Cycle   6  Pass 1  IDiag  1:
 RMSU=  2.77D-05    CP:  9.64D-01  1.50D+00  6.84D-01  6.27D-01  8.02D-01
 E= -4069.81166359741     Delta-E=       -0.000801052596 Rises=F Damp=F
 DIIS: error= 2.67D-04 at cycle   6 NSaved=   6.
 NSaved= 6 IEnMin= 6 EnMin= -4069.81166359741     IErMin= 6 ErrMin= 2.67D-04
 ErrMax= 2.67D-04  0.00D+00 EMaxC= 1.00D-01 BMatC= 1.49D-04 BMatP= 9.88D-04
 IDIUse=3 WtCom= 9.97D-01 WtEn= 2.67D-03
 Coeff-Com:  0.282D-02-0.769D-02 0.800D-02 0.357D-01 0.309D+00 0.653D+00
 Coeff-En:   0.000D+00 0.000D+00 0.000D+00 0.000D+00 0.775D-01 0.922D+00
 Coeff:      0.281D-02-0.767D-02 0.798D-02 0.356D-01 0.308D+00 0.653D+00
 Gap=     0.120 Goal=   None    Shift=    0.000
 RMSDP=1.34D-05 MaxDP=1.25D-03 DE=-8.01D-04 OVMax= 5.83D-03

 Cycle   7  Pass 1  IDiag  1:
 RMSU=  9.39D-06    CP:  9.64D-01  1.50D+00  6.89D-01  6.29D-01  8.85D-01
                    CP:  7.75D-01
 E= -4069.81181428882     Delta-E=       -0.000150691416 Rises=F Damp=F
 DIIS: error= 6.88D-05 at cycle   7 NSaved=   7.
 NSaved= 7 IEnMin= 7 EnMin= -4069.81181428882     IErMin= 7 ErrMin= 6.88D-05
 ErrMax= 6.88D-05  0.00D+00 EMaxC= 1.00D-01 BMatC= 1.45D-05 BMatP= 1.49D-04
 IDIUse=1 WtCom= 1.00D+00 WtEn= 0.00D+00
 Coeff-Com:  0.426D-02-0.923D-02-0.944D-02-0.594D-02 0.879D-01 0.304D+00
 Coeff-Com:  0.628D+00
 Coeff:      0.426D-02-0.923D-02-0.944D-02-0.594D-02 0.879D-01 0.304D+00
 Coeff:      0.628D+00
 Gap=     0.120 Goal=   None    Shift=    0.000
 RMSDP=5.87D-06 MaxDP=1.18D-03 DE=-1.51D-04 OVMax= 3.14D-03

 Cycle   8  Pass 1  IDiag  1:
 RMSU=  4.30D-06    CP:  9.64D-01  1.50D+00  6.90D-01  6.33D-01  8.98D-01
                    CP:  9.00D-01  8.86D-01
 E= -4069.81183215806     Delta-E=       -0.000017869239 Rises=F Damp=F
 DIIS: error= 3.85D-05 at cycle   8 NSaved=   8.
 NSaved= 8 IEnMin= 8 EnMin= -4069.81183215806     IErMin= 8 ErrMin= 3.85D-05
 ErrMax= 3.85D-05  0.00D+00 EMaxC= 1.00D-01 BMatC= 3.81D-06 BMatP= 1.45D-05
 IDIUse=1 WtCom= 1.00D+00 WtEn= 0.00D+00
 Coeff-Com:  0.196D-02-0.385D-02-0.734D-02-0.120D-01-0.176D-01 0.301D-01
 Coeff-Com:  0.365D+00 0.644D+00
 Coeff:      0.196D-02-0.385D-02-0.734D-02-0.120D-01-0.176D-01 0.301D-01
 Coeff:      0.365D+00 0.644D+00
 Gap=     0.120 Goal=   None    Shift=    0.000
 RMSDP=3.00D-06 MaxDP=3.55D-04 DE=-1.79D-05 OVMax= 1.40D-03

 Cycle   9  Pass 1  IDiag  1:
 RMSU=  1.86D-06    CP:  9.64D-01  1.50D+00  6.90D-01  6.34D-01  9.12D-01
                    CP:  9.24D-01  1.09D+00  8.83D-01
 E= -4069.81183828993     Delta-E=       -0.000006131868 Rises=F Damp=F
 DIIS: error= 2.39D-05 at cycle   9 NSaved=   9.
 NSaved= 9 IEnMin= 9 EnMin= -4069.81183828993     IErMin= 9 ErrMin= 2.39D-05
 ErrMax= 2.39D-05  0.00D+00 EMaxC= 1.00D-01 BMatC= 6.33D-07 BMatP= 3.81D-06
 IDIUse=1 WtCom= 1.00D+00 WtEn= 0.00D+00
 Coeff-Com:  0.447D-03-0.744D-03-0.258D-02-0.585D-02-0.229D-01-0.331D-01
 Coeff-Com:  0.115D+00 0.343D+00 0.607D+00
 Coeff:      0.447D-03-0.744D-03-0.258D-02-0.585D-02-0.229D-01-0.331D-01
 Coeff:      0.115D+00 0.343D+00 0.607D+00
 Gap=     0.120 Goal=   None    Shift=    0.000
 RMSDP=1.36D-06 MaxDP=1.71D-04 DE=-6.13D-06 OVMax= 8.62D-04

 Cycle  10  Pass 1  IDiag  1:
 RMSU=  9.20D-07    CP:  9.64D-01  1.50D+00  6.90D-01  6.35D-01  9.15D-01
                    CP:  9.40D-01  1.12D+00  1.06D+00  9.70D-01
 E= -4069.81183967983     Delta-E=       -0.000001389897 Rises=F Damp=F
 DIIS: error= 1.24D-05 at cycle  10 NSaved=  10.
 NSaved=10 IEnMin=10 EnMin= -4069.81183967983     IErMin=10 ErrMin= 1.24D-05
 ErrMax= 1.24D-05  0.00D+00 EMaxC= 1.00D-01 BMatC= 1.56D-07 BMatP= 6.33D-07
 IDIUse=1 WtCom= 1.00D+00 WtEn= 0.00D+00
 Coeff-Com: -0.405D-03 0.850D-03 0.116D-02 0.105D-02-0.467D-02-0.297D-01
 Coeff-Com: -0.543D-01-0.546D-01 0.291D+00 0.850D+00
 Coeff:     -0.405D-03 0.850D-03 0.116D-02 0.105D-02-0.467D-02-0.297D-01
 Coeff:     -0.543D-01-0.546D-01 0.291D+00 0.850D+00
 Gap=     0.120 Goal=   None    Shift=    0.000
 RMSDP=1.13D-06 MaxDP=1.44D-04 DE=-1.39D-06 OVMax= 5.54D-04

 Cycle  11  Pass 1  IDiag  1:
 RMSU=  5.00D-07    CP:  9.64D-01  1.50D+00  6.90D-01  6.35D-01  9.18D-01
                    CP:  9.50D-01  1.18D+00  1.16D+00  1.31D+00  1.27D+00
 E= -4069.81184035809     Delta-E=       -0.000000678261 Rises=F Damp=F
 DIIS: error= 4.07D-06 at cycle  11 NSaved=  11.
 NSaved=11 IEnMin=11 EnMin= -4069.81184035809     IErMin=11 ErrMin= 4.07D-06
 ErrMax= 4.07D-06  0.00D+00 EMaxC= 1.00D-01 BMatC= 5.09D-08 BMatP= 1.56D-07
 IDIUse=1 WtCom= 1.00D+00 WtEn= 0.00D+00
 Coeff-Com: -0.321D-03 0.627D-03 0.129D-02 0.209D-02 0.396D-02-0.894D-02
 Coeff-Com: -0.535D-01-0.125D+00 0.863D-02 0.455D+00 0.716D+00
 Coeff:     -0.321D-03 0.627D-03 0.129D-02 0.209D-02 0.396D-02-0.894D-02
 Coeff:     -0.535D-01-0.125D+00 0.863D-02 0.455D+00 0.716D+00
 Gap=     0.120 Goal=   None    Shift=    0.000
 RMSDP=6.21D-07 MaxDP=4.68D-05 DE=-6.78D-07 OVMax= 3.33D-04

 Cycle  12  Pass 1  IDiag  1:
 RMSU=  2.54D-07    CP:  9.64D-01  1.50D+00  6.90D-01  6.35D-01  9.18D-01
                    CP:  9.53D-01  1.20D+00  1.22D+00  1.45D+00  1.64D+00
                    CP:  1.16D+00
 E= -4069.81184057779     Delta-E=       -0.000000219701 Rises=F Damp=F
 DIIS: error= 3.20D-06 at cycle  12 NSaved=  12.
 NSaved=12 IEnMin=12 EnMin= -4069.81184057779     IErMin=12 ErrMin= 3.20D-06
 ErrMax= 3.20D-06  0.00D+00 EMaxC= 1.00D-01 BMatC= 1.08D-08 BMatP= 5.09D-08
 IDIUse=1 WtCom= 1.00D+00 WtEn= 0.00D+00
 Coeff-Com: -0.940D-05 0.302D-05 0.203D-03 0.555D-03 0.315D-02 0.389D-02
 Coeff-Com: -0.944D-03-0.385D-01-0.640D-01-0.544D-01 0.248D+00 0.902D+00
 Coeff:     -0.940D-05 0.302D-05 0.203D-03 0.555D-03 0.315D-02 0.389D-02
 Coeff:     -0.944D-03-0.385D-01-0.640D-01-0.544D-01 0.248D+00 0.902D+00
 Gap=     0.120 Goal=   None    Shift=    0.000
 RMSDP=4.06D-07 MaxDP=2.64D-05 DE=-2.20D-07 OVMax= 2.69D-04

 Cycle  13  Pass 1  IDiag  1:
 RMSU=  1.66D-07    CP:  9.64D-01  1.50D+00  6.90D-01  6.35D-01  9.19D-01
                    CP:  9.53D-01  1.21D+00  1.25D+00  1.56D+00  1.84D+00
                    CP:  1.56D+00  1.22D+00
 E= -4069.81184065463     Delta-E=       -0.000000076845 Rises=F Damp=F
 DIIS: error= 1.65D-06 at cycle  13 NSaved=  13.
 NSaved=13 IEnMin=13 EnMin= -4069.81184065463     IErMin=13 ErrMin= 1.65D-06
 ErrMax= 1.65D-06  0.00D+00 EMaxC= 1.00D-01 BMatC= 8.35D-09 BMatP= 1.08D-08
 IDIUse=1 WtCom= 1.00D+00 WtEn= 0.00D+00
 Coeff-Com:  0.112D-03-0.230D-03-0.336D-03-0.397D-03 0.649D-03 0.549D-02
 Coeff-Com:  0.207D-01 0.174D-01-0.459D-01-0.225D+00-0.148D+00 0.654D+00
 Coeff-Com:  0.721D+00
 Coeff:      0.112D-03-0.230D-03-0.336D-03-0.397D-03 0.649D-03 0.549D-02
 Coeff:      0.207D-01 0.174D-01-0.459D-01-0.225D+00-0.148D+00 0.654D+00
 Coeff:      0.721D+00
 Gap=     0.120 Goal=   None    Shift=    0.000
 RMSDP=3.00D-07 MaxDP=1.70D-05 DE=-7.68D-08 OVMax= 1.57D-04

 Cycle  14  Pass 1  IDiag  1:
 RMSU=  7.85D-08    CP:  9.64D-01  1.50D+00  6.90D-01  6.35D-01  9.19D-01
                    CP:  9.54D-01  1.22D+00  1.27D+00  1.62D+00  2.01D+00
                    CP:  1.79D+00  1.74D+00  1.03D+00
 E= -4069.81184068738     Delta-E=       -0.000000032745 Rises=F Damp=F
 DIIS: error= 9.77D-07 at cycle  14 NSaved=  14.
 NSaved=14 IEnMin=14 EnMin= -4069.81184068738     IErMin=14 ErrMin= 9.77D-07
 ErrMax= 9.77D-07  0.00D+00 EMaxC= 1.00D-01 BMatC= 1.08D-09 BMatP= 8.35D-09
 IDIUse=1 WtCom= 1.00D+00 WtEn= 0.00D+00
 Coeff-Com:  0.694D-04-0.137D-03-0.254D-03-0.395D-03-0.504D-03 0.180D-02
 Coeff-Com:  0.129D-01 0.191D-01-0.364D-02-0.105D+00-0.157D+00 0.144D+00
 Coeff-Com:  0.358D+00 0.730D+00
 Coeff:      0.694D-04-0.137D-03-0.254D-03-0.395D-03-0.504D-03 0.180D-02
 Coeff:      0.129D-01 0.191D-01-0.364D-02-0.105D+00-0.157D+00 0.144D+00
 Coeff:      0.358D+00 0.730D+00
 Gap=     0.120 Goal=   None    Shift=    0.000
 RMSDP=1.11D-07 MaxDP=6.61D-06 DE=-3.27D-08 OVMax= 7.64D-05

 Cycle  15  Pass 1  IDiag  1:
 RMSU=  3.86D-08    CP:  9.64D-01  1.50D+00  6.90D-01  6.35D-01  9.19D-01
                    CP:  9.54D-01  1.22D+00  1.28D+00  1.64D+00  2.06D+00
                    CP:  1.91D+00  1.91D+00  1.26D+00  1.00D+00
 E= -4069.81184069192     Delta-E=       -0.000000004537 Rises=F Damp=F
 DIIS: error= 3.79D-07 at cycle  15 NSaved=  15.
 NSaved=15 IEnMin=15 EnMin= -4069.81184069192     IErMin=15 ErrMin= 3.79D-07
 ErrMax= 3.79D-07  0.00D+00 EMaxC= 1.00D-01 BMatC= 3.11D-10 BMatP= 1.08D-09
 IDIUse=1 WtCom= 1.00D+00 WtEn= 0.00D+00
 Coeff-Com:  0.124D-04-0.227D-04-0.577D-04-0.120D-03-0.376D-03-0.270D-03
 Coeff-Com:  0.256D-02 0.496D-02 0.846D-02-0.699D-02-0.494D-01-0.439D-01
 Coeff-Com:  0.126D-01 0.382D+00 0.690D+00
 Coeff:      0.124D-04-0.227D-04-0.577D-04-0.120D-03-0.376D-03-0.270D-03
 Coeff:      0.256D-02 0.496D-02 0.846D-02-0.699D-02-0.494D-01-0.439D-01
 Coeff:      0.126D-01 0.382D+00 0.690D+00
 Gap=     0.120 Goal=   None    Shift=    0.000
 RMSDP=3.88D-08 MaxDP=3.34D-06 DE=-4.54D-09 OVMax= 2.08D-05

 Cycle  16  Pass 1  IDiag  1:
 RMSU=  1.85D-08    CP:  9.64D-01  1.50D+00  6.90D-01  6.35D-01  9.19D-01
                    CP:  9.54D-01  1.22D+00  1.28D+00  1.65D+00  2.07D+00
                    CP:  1.93D+00  1.97D+00  1.33D+00  1.23D+00  1.13D+00
 E= -4069.81184069308     Delta-E=       -0.000000001164 Rises=F Damp=F
 DIIS: error= 1.51D-07 at cycle  16 NSaved=  16.
 NSaved=16 IEnMin=16 EnMin= -4069.81184069308     IErMin=16 ErrMin= 1.51D-07
 ErrMax= 1.51D-07  0.00D+00 EMaxC= 1.00D-01 BMatC= 7.45D-11 BMatP= 3.11D-10
 IDIUse=1 WtCom= 1.00D+00 WtEn= 0.00D+00
 Coeff-Com: -0.128D-04 0.261D-04 0.417D-04 0.453D-04-0.514D-04-0.635D-03
 Coeff-Com: -0.212D-02-0.347D-02 0.588D-02 0.237D-01 0.151D-01-0.558D-01
 Coeff-Com: -0.105D+00 0.211D-01 0.323D+00 0.779D+00
 Coeff:     -0.128D-04 0.261D-04 0.417D-04 0.453D-04-0.514D-04-0.635D-03
 Coeff:     -0.212D-02-0.347D-02 0.588D-02 0.237D-01 0.151D-01-0.558D-01
 Coeff:     -0.105D+00 0.211D-01 0.323D+00 0.779D+00
 Gap=     0.120 Goal=   None    Shift=    0.000
 RMSDP=2.56D-08 MaxDP=2.17D-06 DE=-1.16D-09 OVMax= 1.67D-05

 Cycle  17  Pass 1  IDiag  1:
 RMSU=  1.18D-08    CP:  9.64D-01  1.50D+00  6.90D-01  6.35D-01  9.19D-01
                    CP:  9.54D-01  1.22D+00  1.28D+00  1.65D+00  2.08D+00
                    CP:  1.95D+00  2.01D+00  1.38D+00  1.32D+00  1.43D+00
                    CP:  1.20D+00
 E= -4069.81184069312     Delta-E=       -0.000000000044 Rises=F Damp=F
 DIIS: error= 9.07D-08 at cycle  17 NSaved=  17.
 NSaved=17 IEnMin=17 EnMin= -4069.81184069312     IErMin=17 ErrMin= 9.07D-08
 ErrMax= 9.07D-08  0.00D+00 EMaxC= 1.00D-01 BMatC= 2.37D-11 BMatP= 7.45D-11
 IDIUse=1 WtCom= 1.00D+00 WtEn= 0.00D+00
 Coeff-Com: -0.889D-05 0.175D-04 0.342D-04 0.496D-04 0.774D-04-0.222D-03
 Coeff-Com: -0.151D-02-0.314D-02 0.143D-02 0.129D-01 0.194D-01-0.108D-01
 Coeff-Com: -0.587D-01-0.764D-01-0.578D-01 0.383D+00 0.792D+00
 Coeff:     -0.889D-05 0.175D-04 0.342D-04 0.496D-04 0.774D-04-0.222D-03
 Coeff:     -0.151D-02-0.314D-02 0.143D-02 0.129D-01 0.194D-01-0.108D-01
 Coeff:     -0.587D-01-0.764D-01-0.578D-01 0.383D+00 0.792D+00
 Gap=     0.120 Goal=   None    Shift=    0.000
 RMSDP=1.41D-08 MaxDP=8.30D-07 DE=-4.37D-11 OVMax= 7.87D-06

 Cycle  18  Pass 1  IDiag  1:
 RMSU=  5.50D-09    CP:  9.64D-01  1.50D+00  6.90D-01  6.35D-01  9.19D-01
                    CP:  9.54D-01  1.22D+00  1.28D+00  1.65D+00  2.08D+00
                    CP:  1.95D+00  2.02D+00  1.40D+00  1.39D+00  1.60D+00
                    CP:  1.61D+00  1.32D+00
 E= -4069.81184069318     Delta-E=       -0.000000000058 Rises=F Damp=F
 DIIS: error= 7.76D-08 at cycle  18 NSaved=  18.
 NSaved=18 IEnMin=18 EnMin= -4069.81184069318     IErMin=18 ErrMin= 7.76D-08
 ErrMax= 7.76D-08  0.00D+00 EMaxC= 1.00D-01 BMatC= 7.40D-12 BMatP= 2.37D-11
 IDIUse=1 WtCom= 1.00D+00 WtEn= 0.00D+00
 Coeff-Com:  0.147D-06-0.650D-06 0.247D-05 0.813D-05 0.686D-04 0.133D-03
 Coeff-Com:  0.855D-04-0.481D-03-0.118D-02-0.306D-02 0.333D-02 0.179D-01
 Coeff-Com:  0.576D-02-0.362D-01-0.160D+00-0.795D-01 0.357D+00 0.896D+00
 Coeff:      0.147D-06-0.650D-06 0.247D-05 0.813D-05 0.686D-04 0.133D-03
 Coeff:      0.855D-04-0.481D-03-0.118D-02-0.306D-02 0.333D-02 0.179D-01
 Coeff:      0.576D-02-0.362D-01-0.160D+00-0.795D-01 0.357D+00 0.896D+00
 Gap=     0.120 Goal=   None    Shift=    0.000
 RMSDP=1.08D-08 MaxDP=8.91D-07 DE=-5.82D-11 OVMax= 6.49D-06

 Cycle  19  Pass 1  IDiag  1:
 RMSU=  3.21D-09    CP:  9.64D-01  1.50D+00  6.90D-01  6.35D-01  9.19D-01
                    CP:  9.54D-01  1.22D+00  1.28D+00  1.65D+00  2.08D+00
                    CP:  1.95D+00  2.02D+00  1.41D+00  1.43D+00  1.74D+00
                    CP:  1.88D+00  1.82D+00  1.23D+00
 E= -4069.81184069332     Delta-E=       -0.000000000142 Rises=F Damp=F
 DIIS: error= 3.12D-08 at cycle  19 NSaved=  19.
 NSaved=19 IEnMin=19 EnMin= -4069.81184069332     IErMin=19 ErrMin= 3.12D-08
 ErrMax= 3.12D-08  0.00D+00 EMaxC= 1.00D-01 BMatC= 2.87D-12 BMatP= 7.40D-12
 IDIUse=1 WtCom= 1.00D+00 WtEn= 0.00D+00
 Coeff-Com:  0.346D-05-0.701D-05-0.115D-04-0.140D-04 0.181D-04 0.167D-03
 Coeff-Com:  0.654D-03 0.858D-03-0.113D-02-0.705D-02-0.556D-02 0.164D-01
 Coeff-Com:  0.248D-01 0.964D-02-0.873D-01-0.203D+00-0.986D-01 0.560D+00
 Coeff-Com:  0.790D+00
 Coeff:      0.346D-05-0.701D-05-0.115D-04-0.140D-04 0.181D-04 0.167D-03
 Coeff:      0.654D-03 0.858D-03-0.113D-02-0.705D-02-0.556D-02 0.164D-01
 Coeff:      0.248D-01 0.964D-02-0.873D-01-0.203D+00-0.986D-01 0.560D+00
 Coeff:      0.790D+00
 Gap=     0.120 Goal=   None    Shift=    0.000
 RMSDP=7.32D-09 MaxDP=4.09D-07 DE=-1.42D-10 OVMax= 4.19D-06

 SCF Done:  E(RCAM-B3LYP) =  -4069.81184069     A.U. after   19 cycles
            NFock= 19  Conv=0.73D-08     -V/T= 2.0102
 KE= 4.028799246379D+03 PE=-4.043318640755D+04 EE= 1.685855178928D+04
 Leave Link  502 at Thu Sep  9 15:48:16 2021, MaxMem= 23488102400 cpu:           15321.4 elap:             663.6
 (Enter /sw/apps/gaussian-16.0/g16/l801.exe)
 DoSCS=F DFT=T ScalE2(SS,OS)=  1.000000  1.000000
 ExpMin= 3.36D-02 ExpMax= 4.95D+03 ExpMxC= 7.45D+02 IAcc=3 IRadAn=         5 AccDes= 0.00D+00
 HarFok:  IExCor=  205 AccDes= 0.00D+00 IRadAn=         5 IDoV=-2 UseB2=F ITyADJ=14
 ICtDFT= 12500011 ScaDFX=  1.000000  1.000000  1.000000  1.000000
 GSVD:  LWork=       -9588 too small for GESVD, short by       45590 words or       45590 for optimal perf.
 Largest valence mixing into a core orbital is  2.03D-04
 Largest core mixing into a valence orbital is  5.23D-05
 Range of M.O.s used for correlation:    95  1572
 NBasis=  1572 NAE=   312 NBE=   312 NFC=    94 NFV=     0
 NROrb=   1478 NOA=   218 NOB=   218 NVA=  1260 NVB=  1260
 Leave Link  801 at Thu Sep  9 15:48:16 2021, MaxMem= 23488102400 cpu:               7.8 elap:               0.4
 (Enter /sw/apps/gaussian-16.0/g16/l914.exe)
 RHF ground state
 Two-electron integrals replicated using symmetry.
 MDV= 23488102400 DFT=T DoStab=F Mixed=T DoRPA=T DoScal=F NonHer=T
 Making orbital integer symmetry assigments:
 Orbital symmetries:
       Occupied  (A) (A) (A) (A) (A) (A) (A) (A) (A) (A) (A) (A)
                 (A) (A) (A) (A) (A) (A) (A) (A) (A) (A) (A) (A)
                 (A) (A) (A) (A) (A) (A) (A) (A) (A) (A) (A) (A)
                 (A) (A) (A) (A) (A) (A) (A) (A) (A) (A) (A) (A)
                 (A) (A) (A) (A) (A) (A) (A) (A) (A) (A) (A) (A)
                 (A) (A) (A) (A) (A) (A) (A) (A) (A) (A) (A) (A)
                 (A) (A) (A) (A) (A) (A) (A) (A) (A) (A) (A) (A)
                 (A) (A) (A) (A) (A) (A) (A) (A) (A) (A) (A) (A)
                 (A) (A) (A) (A) (A) (A) (A) (A) (A) (A) (A) (A)
                 (A) (A) (A) (A) (A) (A) (A) (A) (A) (A) (A) (A)
                 (A) (A) (A) (A) (A) (A) (A) (A) (A) (A) (A) (A)
                 (A) (A) (A) (A) (A) (A) (A) (A) (A) (A) (A) (A)
                 (A) (A) (A) (A) (A) (A) (A) (A) (A) (A) (A) (A)
                 (A) (A) (A) (A) (A) (A) (A) (A) (A) (A) (A) (A)
                 (A) (A) (A) (A) (A) (A) (A) (A) (A) (A) (A) (A)
                 (A) (A) (A) (A) (A) (A) (A) (A) (A) (A) (A) (A)
                 (A) (A) (A) (A) (A) (A) (A) (A) (A) (A) (A) (A)
                 (A) (A) (A) (A) (A) (A) (A) (A) (A) (A) (A) (A)
                 (A) (A) (A) (A) (A) (A) (A) (A) (A) (A) (A) (A)
                 (A) (A) (A) (A) (A) (A) (A) (A) (A) (A) (A) (A)
                 (A) (A) (A) (A) (A) (A) (A) (A) (A) (A) (A) (A)
                 (A) (A) (A) (A) (A) (A) (A) (A) (A) (A) (A) (A)
                 (A) (A) (A) (A) (A) (A) (A) (A) (A) (A) (A) (A)
                 (A) (A) (A) (A) (A) (A) (A) (A) (A) (A) (A) (A)
                 (A) (A) (A) (A) (A) (A) (A) (A) (A) (A) (A) (A)
                 (A) (A) (A) (A) (A) (A) (A) (A) (A) (A) (A) (A)
       Virtual   (A) (A) (A) (A) (A) (A) (A) (A) (A) (A) (A) (A)
                 (A) (A) (A) (A) (A) (A) (A) (A) (A) (A) (A) (A)
                 (A) (A) (A) (A) (A) (A) (A) (A) (A) (A) (A) (A)
                 (A) (A) (A) (A) (A) (A) (A) (A) (A) (A) (A) (A)
                 (A) (A) (A) (A) (A) (A) (A) (A) (A) (A) (A) (A)
                 (A) (A) (A) (A) (A) (A) (A) (A) (A) (A) (A) (A)
                 (A) (A) (A) (A) (A) (A) (A) (A) (A) (A) (A) (A)
                 (A) (A) (A) (A) (A) (A) (A) (A) (A) (A) (A) (A)
                 (A) (A) (A) (A) (A) (A) (A) (A) (A) (A) (A) (A)
                 (A) (A) (A) (A) (A) (A) (A) (A) (A) (A) (A) (A)
                 (A) (A) (A) (A) (A) (A) (A) (A) (A) (A) (A) (A)
                 (A) (A) (A) (A) (A) (A) (A) (A) (A) (A) (A) (A)
                 (A) (A) (A) (A) (A) (A) (A) (A) (A) (A) (A) (A)
                 (A) (A) (A) (A) (A) (A) (A) (A) (A) (A) (A) (A)
                 (A) (A) (A) (A) (A) (A) (A) (A) (A) (A) (A) (A)
                 (A) (A) (A) (A) (A) (A) (A) (A) (A) (A) (A) (A)
                 (A) (A) (A) (A) (A) (A) (A) (A) (A) (A) (A) (A)
                 (A) (A) (A) (A) (A) (A) (A) (A) (A) (A) (A) (A)
                 (A) (A) (A) (A) (A) (A) (A) (A) (A) (A) (A) (A)
                 (A) (A) (A) (A) (A) (A) (A) (A) (A) (A) (A) (A)
                 (A) (A) (A) (A) (A) (A) (A) (A) (A) (A) (A) (A)
                 (A) (A) (A) (A) (A) (A) (A) (A) (A) (A) (A) (A)
                 (A) (A) (A) (A) (A) (A) (A) (A) (A) (A) (A) (A)
                 (A) (A) (A) (A) (A) (A) (A) (A) (A) (A) (A) (A)
                 (A) (A) (A) (A) (A) (A) (A) (A) (A) (A) (A) (A)
                 (A) (A) (A) (A) (A) (A) (A) (A) (A) (A) (A) (A)
                 (A) (A) (A) (A) (A) (A) (A) (A) (A) (A) (A) (A)
                 (A) (A) (A) (A) (A) (A) (A) (A) (A) (A) (A) (A)
                 (A) (A) (A) (A) (A) (A) (A) (A) (A) (A) (A) (A)
                 (A) (A) (A) (A) (A) (A) (A) (A) (A) (A) (A) (A)
                 (A) (A) (A) (A) (A) (A) (A) (A) (A) (A) (A) (A)
                 (A) (A) (A) (A) (A) (A) (A) (A) (A) (A) (A) (A)
                 (A) (A) (A) (A) (A) (A) (A) (A) (A) (A) (A) (A)
                 (A) (A) (A) (A) (A) (A) (A) (A) (A) (A) (A) (A)
                 (A) (A) (A) (A) (A) (A) (A) (A) (A) (A) (A) (A)
                 (A) (A) (A) (A) (A) (A) (A) (A) (A) (A) (A) (A)
                 (A) (A) (A) (A) (A) (A) (A) (A) (A) (A) (A) (A)
                 (A) (A) (A) (A) (A) (A) (A) (A) (A) (A) (A) (A)
                 (A) (A) (A) (A) (A) (A) (A) (A) (A) (A) (A) (A)
                 (A) (A) (A) (A) (A) (A) (A) (A) (A) (A) (A) (A)
                 (A) (A) (A) (A) (A) (A) (A) (A) (A) (A) (A) (A)
                 (A) (A) (A) (A) (A) (A) (A) (A) (A) (A) (A) (A)
                 (A) (A) (A) (A) (A) (A) (A) (A) (A) (A) (A) (A)
                 (A) (A) (A) (A) (A) (A) (A) (A) (A) (A) (A) (A)
                 (A) (A) (A) (A) (A) (A) (A) (A) (A) (A) (A) (A)
                 (A) (A) (A) (A) (A) (A) (A) (A) (A) (A) (A) (A)
                 (A) (A) (A) (A) (A) (A) (A) (A) (A) (A) (A) (A)
                 (A) (A) (A) (A) (A) (A) (A) (A) (A) (A) (A) (A)
                 (A) (A) (A) (A) (A) (A) (A) (A) (A) (A) (A) (A)
                 (A) (A) (A) (A) (A) (A) (A) (A) (A) (A) (A) (A)
                 (A) (A) (A) (A) (A) (A) (A) (A) (A) (A) (A) (A)
                 (A) (A) (A) (A) (A) (A) (A) (A) (A) (A) (A) (A)
                 (A) (A) (A) (A) (A) (A) (A) (A) (A) (A) (A) (A)
                 (A) (A) (A) (A) (A) (A) (A) (A) (A) (A) (A) (A)
                 (A) (A) (A) (A) (A) (A) (A) (A) (A) (A) (A) (A)
                 (A) (A) (A) (A) (A) (A) (A) (A) (A) (A) (A) (A)
                 (A) (A) (A) (A) (A) (A) (A) (A) (A) (A) (A) (A)
                 (A) (A) (A) (A) (A) (A) (A) (A) (A) (A) (A) (A)
                 (A) (A) (A) (A) (A) (A) (A) (A) (A) (A) (A) (A)
                 (A) (A) (A) (A) (A) (A) (A) (A) (A) (A) (A) (A)
                 (A) (A) (A) (A) (A) (A) (A) (A) (A) (A) (A) (A)
                 (A) (A) (A) (A) (A) (A) (A) (A) (A) (A) (A) (A)
                 (A) (A) (A) (A) (A) (A) (A) (A) (A) (A) (A) (A)
                 (A) (A) (A) (A) (A) (A) (A) (A) (A) (A) (A) (A)
                 (A) (A) (A) (A) (A) (A) (A) (A) (A) (A) (A) (A)
                 (A) (A) (A) (A) (A) (A) (A) (A) (A) (A) (A) (A)
                 (A) (A) (A) (A) (A) (A) (A) (A) (A) (A) (A) (A)
                 (A) (A) (A) (A) (A) (A) (A) (A) (A) (A) (A) (A)
                 (A) (A) (A) (A) (A) (A) (A) (A) (A) (A) (A) (A)
                 (A) (A) (A) (A) (A) (A) (A) (A) (A) (A) (A) (A)
                 (A) (A) (A) (A) (A) (A) (A) (A) (A) (A) (A) (A)
                 (A) (A) (A) (A) (A) (A) (A) (A) (A) (A) (A) (A)
                 (A) (A) (A) (A) (A) (A) (A) (A) (A) (A) (A) (A)
                 (A) (A) (A) (A) (A) (A) (A) (A) (A) (A) (A) (A)
                 (A) (A) (A) (A) (A) (A) (A) (A) (A) (A) (A) (A)
                 (A) (A) (A) (A) (A) (A) (A) (A) (A) (A) (A) (A)
                 (A) (A) (A) (A) (A) (A) (A) (A) (A) (A) (A) (A)
                 (A) (A) (A) (A) (A) (A) (A) (A) (A) (A) (A) (A)
                 (A) (A) (A) (A) (A) (A) (A) (A) (A) (A) (A) (A)
                 (A) (A) (A) (A) (A) (A) (A) (A) (A) (A) (A) (A)
                 (A) (A) (A) (A) (A) (A) (A) (A) (A) (A) (A) (A)
                 (A) (A) (A) (A) (A) (A) (A) (A) (A) (A) (A) (A)
                 (A) (A) (A) (A) (A) (A) (A) (A) (A) (A) (A) (A)
                 (A) (A) (A) (A) (A) (A) (A) (A) (A) (A) (A) (A)
                 (A) (A) (A) (A) (A) (A) (A) (A) (A) (A) (A) (A)
                 (A) (A) (A) (A) (A) (A) (A) (A) (A) (A) (A) (A)
                 (A) (A) (A) (A) (A) (A) (A) (A) (A) (A) (A) (A)
                 (A) (A) (A) (A) (A) (A) (A) (A) (A) (A) (A) (A)
                 (A) (A) (A) (A) (A) (A) (A) (A) (A) (A) (A) (A)
                 (A) (A) (A) (A) (A) (A) (A) (A) (A) (A) (A) (A)
                 (A) (A) (A) (A) (A) (A) (A) (A) (A) (A) (A) (A)
                 (A) (A) (A) (A) (A) (A) (A) (A) (A) (A) (A) (A)
                 (A) (A) (A) (A) (A) (A) (A) (A) (A) (A) (A) (A)
                 (A) (A) (A) (A) (A) (A) (A) (A) (A) (A) (A) (A)
                 (A) (A) (A) (A) (A) (A) (A) (A) (A) (A) (A) (A)
                 (A) (A) (A) (A) (A) (A) (A) (A) (A) (A) (A) (A)
                 (A) (A) (A) (A) (A) (A) (A) (A) (A) (A) (A) (A)
                 (A) (A) (A) (A) (A) (A) (A) (A) (A) (A) (A) (A)
                 (A) (A) (A) (A) (A) (A) (A) (A) (A) (A) (A) (A)
                 (A) (A) (A) (A) (A) (A) (A) (A) (A) (A) (A) (A)
                 (A) (A) (A) (A) (A) (A) (A) (A) (A) (A) (A) (A)
                 (A) (A) (A) (A) (A) (A) (A) (A) (A) (A) (A) (A)
                 (A) (A) (A) (A) (A) (A) (A) (A) (A) (A) (A) (A)
                 (A) (A) (A) (A) (A) (A) (A) (A) (A) (A) (A) (A)
                 (A) (A) (A) (A) (A) (A) (A) (A) (A) (A) (A) (A)
    20 initial guesses have been made.
 Convergence on wavefunction:    0.001000000000000
 Davidson Disk Diagonalization:  ConvIn= 1.00D-03 SkipCon=T Conv= 1.00D-03.
 Max sub-space:  2000 roots to seek:    20 dimension of matrix:       549360
 Iteration     1 Dimension    20 NMult     0 NNew     20
 CISAX will form    20 AO SS matrices at one time.
 NMat=    20 NSing=    20 JSym2X= 0.
 FoFJK:  IHMeth= 1 ICntrl=       0 DoSepK=T KAlg= 0 I1Cent=           0 FoldK=F
 IRaf=         1 NMat=      40 IRICut=       1 DoRegI=T DoRafI=F ISym2E= 0 IDoP0=3 IntGTp=3.
 FoFCou: FMM=T IPFlag=           0 FMFlag=      100000 FMFlg1=        2001
         NFxFlg=           0 DoJE=F BraDBF=F KetDBF=F FulRan=T
         wScrn=  0.000000 ICntrl=       500 IOpCl=  0 I1Cent=           0 NGrid=           0
         NMat0=   20 NMatS0=     20 NMatT0=    0 NMatD0=   20 NMtDS0=    0 NMtDT0=    0
 Symmetry not used in FoFCou.
 FMM levels:  10  Number of levels for PrismC:   9
 New state      2 was old state      4
 New state      3 was old state      7
 New state      4 was old state      6
 New state      5 was old state     10
 Excitation Energies [eV] at current iteration:
 Root      1 :     2.349355714681336
 Root      2 :     2.534098571329169
 Root      3 :     2.600348789443048
 Root      4 :     2.619042604992560
 Root      5 :     2.634063750766734
 Root      6 :     2.751345264249709
 Root      7 :     3.134775665436257
 Root      8 :     3.328534486535099
 Root      9 :     3.636514426759853
 Root     10 :     3.673506590572155
 Root     11 :     3.724919677954137
 Root     12 :     3.755309145588360
 Root     13 :     4.249613295242312
 Root     14 :     4.258378904806352
 Root     15 :     4.358821555881219
 Root     16 :     4.460040296133563
 Root     17 :     4.575687126006057
 Root     18 :     4.606933509259298
 Root     19 :     4.741528428212763
 Root     20 :     4.848983224121188
 Iteration     2 Dimension    30 NMult    20 NNew     10
 CISAX will form    10 AO SS matrices at one time.
 NMat=    10 NSing=    10 JSym2X= 0.
 New state      1 was old state      3
 Root      1 not converged, maximum delta is    0.405018900318284
 New state      2 was old state      4
 Root      2 not converged, maximum delta is    0.268720229324304
 New state      3 was old state      5
 Root      3 not converged, maximum delta is    0.272270508039258
 New state      4 was old state      1
 Root      4 not converged, maximum delta is    0.003311315737137
 New state      5 was old state      2
 Root      5 not converged, maximum delta is    0.006115791086369
 Excitation Energies [eV] at current iteration:
 Root      1 :     1.772547622388487   Change is   -0.827801167054561
 Root      2 :     2.227998445804197   Change is   -0.391044159188363
 Root      3 :     2.242740928102048   Change is   -0.391322822664686
 Root      4 :     2.348576568260289   Change is   -0.000779146421047
 Root      5 :     2.533072788642941   Change is   -0.001025782686228
 Iteration     3 Dimension    40 NMult    30 NNew     10
 CISAX will form    10 AO SS matrices at one time.
 NMat=    10 NSing=    10 JSym2X= 0.
 Root      1 not converged, maximum delta is    0.053798796889117
 Root      2 not converged, maximum delta is    0.513537961732878
 Root      3 not converged, maximum delta is    0.791573964572724
 No map to state      4
 New state      5 was old state      4
 Root      5 not converged, maximum delta is    0.001824746562559
 Excitation Energies [eV] at current iteration:
 Root      1 :     1.668473390928117   Change is   -0.104074231460370
 Root      2 :     1.824186999437422   Change is   -0.403811446366775
 Root      3 :     2.192527905514279   Change is   -0.050213022587769
 Root      4 :     2.205962775280235
 Root      5 :     2.348576079035825   Change is   -0.000000489224463
 Iteration     4 Dimension    50 NMult    40 NNew     10
 CISAX will form    10 AO SS matrices at one time.
 NMat=    10 NSing=    10 JSym2X= 0.
 Root      1 not converged, maximum delta is    0.010346595860926
 Root      2 not converged, maximum delta is    0.030591199197963
 Root      3 not converged, maximum delta is    0.045991748530646
 Root      4 not converged, maximum delta is    0.045371672643167
 Root      5 has converged.
 Excitation Energies [eV] at current iteration:
 Root      1 :     1.651985537179389   Change is   -0.016487853748728
 Root      2 :     1.719917057835201   Change is   -0.104269941602221
 Root      3 :     2.184934353755511   Change is   -0.007593551758768
 Root      4 :     2.197517826743576   Change is   -0.008444948536658
 Root      5 :     2.348574902416768   Change is   -0.000001176619058
 Iteration     5 Dimension    58 NMult    50 NNew      8
 CISAX will form     8 AO SS matrices at one time.
 NMat=     8 NSing=     8 JSym2X= 0.
 Root      1 not converged, maximum delta is    0.001446991211305
 Root      2 not converged, maximum delta is    0.010118397328025
 Root      3 not converged, maximum delta is    0.006955145979143
 Root      4 not converged, maximum delta is    0.006881576531107
 Root      5 has converged.
 Excitation Energies [eV] at current iteration:
 Root      1 :     1.650297015792662   Change is   -0.001688521386727
 Root      2 :     1.704797705456854   Change is   -0.015119352378347
 Root      3 :     2.183999215571538   Change is   -0.000935138183973
 Root      4 :     2.196575173927356   Change is   -0.000942652816220
 Root      5 :     2.348574864239358   Change is   -0.000000038177409
 Iteration     6 Dimension    66 NMult    58 NNew      8
 CISAX will form     8 AO SS matrices at one time.
 NMat=     8 NSing=     8 JSym2X= 0.
 Root      1 has converged.
 Root      2 not converged, maximum delta is    0.001799825747517
 Root      3 has converged.
 Root      4 has converged.
 Root      5 has converged.
 Excitation Energies [eV] at current iteration:
 Root      1 :     1.650058413222022   Change is   -0.000238602570640
 Root      2 :     1.703302615105316   Change is   -0.001495090351538
 Root      3 :     2.183867084259301   Change is   -0.000132131312237
 Root      4 :     2.196440417978355   Change is   -0.000134755949000
 Root      5 :     2.348574858623909   Change is   -0.000000005615450
 Iteration     7 Dimension    68 NMult    66 NNew      2
 CISAX will form     2 AO SS matrices at one time.
 NMat=     2 NSing=     2 JSym2X= 0.
 Root      1 has converged.
 Root      2 has converged.
 Root      3 has converged.
 Root      4 has converged.
 Root      5 has converged.
 Excitation Energies [eV] at current iteration:
 Root      1 :     1.650058389928575   Change is   -0.000000023293447
 Root      2 :     1.703145339154691   Change is   -0.000157275950625
 Root      3 :     2.183866757482355   Change is   -0.000000326776946
[...]
 Alpha virt. eigenvalues --    1.83610   1.83801   1.83894   1.84236   1.84377
 Alpha virt. eigenvalues --    1.84479   1.84713   1.84755   1.84773   1.85089
 Alpha virt. eigenvalues --    1.85233   1.85323   1.85420   1.85592   1.85665
 Alpha virt. eigenvalues --    1.85973   1.86213   1.86291   1.86515   1.86557
 Alpha virt. eigenvalues --    1.86772   1.86875   1.86975   1.87058   1.87244
 Alpha virt. eigenvalues --    1.87487   1.87612   1.87677   1.87806   1.87921
 Alpha virt. eigenvalues --    1.87976   1.88161   1.88350   1.88489   1.88776
 Alpha virt. eigenvalues --    1.88805   1.89052   1.89150   1.89564   1.89593
 Alpha virt. eigenvalues --    1.89764   1.89992   1.90069   1.90263   1.90651
 Alpha virt. eigenvalues --    1.90841   1.91101   1.91346   1.91542   1.91706
 Alpha virt. eigenvalues --    1.92015   1.92180   1.92537   1.92645   1.92802
 Alpha virt. eigenvalues --    1.92938   1.93253   1.93388   1.93641   1.94287
 Alpha virt. eigenvalues --    1.94487   1.94656   1.94979   1.95437   1.95686
 Alpha virt. eigenvalues --    1.95716   1.95937   1.95945   1.96076   1.96303
 Alpha virt. eigenvalues --    1.96314   1.96565   1.96707   1.96868   1.97222
 Alpha virt. eigenvalues --    1.97404   1.97658   1.97730   1.97956   1.98106
 Alpha virt. eigenvalues --    1.98461   1.98558   1.98660   1.99096   1.99483
 Alpha virt. eigenvalues --    1.99780   2.00258   2.00605   2.00870   2.01015
 Alpha virt. eigenvalues --    2.01336   2.01457   2.01611   2.01670   2.01715
 Alpha virt. eigenvalues --    2.01804   2.02327   2.02730   2.02861   2.03201
 Alpha virt. eigenvalues --    2.03282   2.03362   2.03432   2.03630   2.03780
 Alpha virt. eigenvalues --    2.04073   2.04201   2.04905   2.05149   2.05527
 Alpha virt. eigenvalues --    2.05857   2.06079   2.06469   2.06874   2.07139
 Alpha virt. eigenvalues --    2.07199   2.07492   2.08604   2.08756   2.08931
 Alpha virt. eigenvalues --    2.09161   2.09546   2.09779   2.10720   2.11120
 Alpha virt. eigenvalues --    2.11161   2.11472   2.11574   2.11663   2.11680
 Alpha virt. eigenvalues --    2.12150   2.12414   2.12697   2.12750   2.12821
 Alpha virt. eigenvalues --    2.13065   2.13261   2.13727   2.13838   2.14094
 Alpha virt. eigenvalues --    2.14396   2.15294   2.15571   2.15868   2.16254
 Alpha virt. eigenvalues --    2.16493   2.16679   2.16817   2.17325   2.17424
 Alpha virt. eigenvalues --    2.17656   2.17791   2.17919   2.18150   2.18223
 Alpha virt. eigenvalues --    2.18310   2.18821   2.18878   2.19448   2.19584
 Alpha virt. eigenvalues --    2.19996   2.20021   2.20134   2.20403   2.20627
 Alpha virt. eigenvalues --    2.21291   2.21351   2.21633   2.21680   2.21957
 Alpha virt. eigenvalues --    2.22025   2.22693   2.22878   2.23317   2.23474
 Alpha virt. eigenvalues --    2.24361   2.24568   2.24899   2.25188   2.26248
 Alpha virt. eigenvalues --    2.26593   2.26761   2.27047   2.27166   2.27407
 Alpha virt. eigenvalues --    2.28084   2.28544   2.29210   2.29630   2.29704
 Alpha virt. eigenvalues --    2.30103   2.30407   2.30826   2.30965   2.31087
 Alpha virt. eigenvalues --    2.31147   2.31365   2.32108   2.32411   2.33087
 Alpha virt. eigenvalues --    2.33388   2.33418   2.33609   2.34119   2.34259
 Alpha virt. eigenvalues --    2.35337   2.35430   2.35743   2.36086   2.36427
 Alpha virt. eigenvalues --    2.36520   2.36570   2.36580   2.37714   2.37797
 Alpha virt. eigenvalues --    2.38217   2.38580   2.38820   2.38930   2.39555
 Alpha virt. eigenvalues --    2.39814   2.40267   2.40370   2.40434   2.40971
 Alpha virt. eigenvalues --    2.41255   2.41371   2.41794   2.41827   2.41987
 Alpha virt. eigenvalues --    2.42273   2.42947   2.42971   2.43163   2.43538
 Alpha virt. eigenvalues --    2.44148   2.44171   2.44680   2.44854   2.44982
 Alpha virt. eigenvalues --    2.45177   2.45497   2.45724   2.46256   2.46408
 Alpha virt. eigenvalues --    2.46473   2.46668   2.46746   2.46953   2.47208
 Alpha virt. eigenvalues --    2.47496   2.47684   2.48031   2.49268   2.49547
 Alpha virt. eigenvalues --    2.49982   2.50022   2.50509   2.50644   2.51067
 Alpha virt. eigenvalues --    2.51413   2.51789   2.51862   2.52400   2.52523
 Alpha virt. eigenvalues --    2.52757   2.53366   2.53863   2.54120   2.54130
 Alpha virt. eigenvalues --    2.54462   2.54758   2.54933   2.55467   2.55827
 Alpha virt. eigenvalues --    2.57812   2.58257   2.58575   2.59119   2.60151
 Alpha virt. eigenvalues --    2.60446   2.60565   2.61097   2.61655   2.62018
 Alpha virt. eigenvalues --    2.62474   2.62582   2.62887   2.63262   2.63877
 Alpha virt. eigenvalues --    2.64158   2.64376   2.64509   2.65005   2.65218
 Alpha virt. eigenvalues --    2.65742   2.65982   2.66685   2.66840   2.66940
 Alpha virt. eigenvalues --    2.67250   2.67839   2.68122   2.68792   2.68962
 Alpha virt. eigenvalues --    2.68968   2.69160   2.69286   2.69727   2.69924
 Alpha virt. eigenvalues --    2.70255   2.70912   2.71197   2.72000   2.72022
 Alpha virt. eigenvalues --    2.72587   2.72605   2.72797   2.72858   2.73205
 Alpha virt. eigenvalues --    2.73397   2.73495   2.73565   2.74443   2.74632
 Alpha virt. eigenvalues --    2.74909   2.75184   2.76520   2.76641   2.77157
 Alpha virt. eigenvalues --    2.77200   2.77412   2.77772   2.78172   2.78478
 Alpha virt. eigenvalues --    2.78670   2.78810   2.79079   2.79287   2.80306
 Alpha virt. eigenvalues --    2.80453   2.80541   2.80814   2.81035   2.81294
 Alpha virt. eigenvalues --    2.81868   2.82125   2.82258   2.82451   2.83686
 Alpha virt. eigenvalues --    2.83719   2.84020   2.84025   2.84463   2.84655
 Alpha virt. eigenvalues --    2.84806   2.84993   2.85614   2.85840   2.86760
 Alpha virt. eigenvalues --    2.86926   2.87264   2.87569   2.88121   2.88404
 Alpha virt. eigenvalues --    2.88422   2.88702   2.88866   2.89003   2.90422
 Alpha virt. eigenvalues --    2.90748   2.91111   2.91187   2.93096   2.93457
 Alpha virt. eigenvalues --    2.93893   2.94130   2.94489   2.94702   2.95324
 Alpha virt. eigenvalues --    2.95599   2.95918   2.96175   2.96408   2.96529
 Alpha virt. eigenvalues --    2.96951   2.97159   2.97780   2.98169   2.98190
 Alpha virt. eigenvalues --    2.98257   2.98506   2.98562   2.98702   2.98823
 Alpha virt. eigenvalues --    2.98880   2.99044   2.99611   2.99920   3.00001
 Alpha virt. eigenvalues --    3.00127   3.00179   3.00404   3.00514   3.01154
 Alpha virt. eigenvalues --    3.01853   3.01993   3.02013   3.02298   3.02718
 Alpha virt. eigenvalues --    3.02921   3.02961   3.03285   3.03520   3.03749
 Alpha virt. eigenvalues --    3.04039   3.04272   3.04428   3.04497   3.04678
 Alpha virt. eigenvalues --    3.04883   3.05236   3.05509   3.06072   3.06297
 Alpha virt. eigenvalues --    3.06761   3.07133   3.08072   3.08109   3.09363
 Alpha virt. eigenvalues --    3.09479   3.09658   3.10392   3.10526   3.10895
 Alpha virt. eigenvalues --    3.11277   3.11559   3.11900   3.11939   3.12150
 Alpha virt. eigenvalues --    3.12414   3.13232   3.13564   3.13783   3.13815
 Alpha virt. eigenvalues --    3.14060   3.14562   3.15872   3.16041   3.17186
 Alpha virt. eigenvalues --    3.17645   3.18043   3.18055   3.19074   3.19184
 Alpha virt. eigenvalues --    3.22268   3.22696   3.23874   3.24575   3.24600
 Alpha virt. eigenvalues --    3.25316   3.26427   3.26790   3.27523   3.27554
 Alpha virt. eigenvalues --    3.29066   3.29311   3.31459   3.31517   3.33322
 Alpha virt. eigenvalues --    3.33351   3.40333   3.40611   3.42787   3.42987
 Alpha virt. eigenvalues --    3.48581   3.48830   3.49952   3.50422   3.50980
 Alpha virt. eigenvalues --    3.51414   3.56489   3.57149   3.59025   3.59466
 Alpha virt. eigenvalues --    3.62650   3.62768   3.66183   3.66298   3.67157
 Alpha virt. eigenvalues --    3.67626   3.73223   3.74120   3.75996   3.76787
          Condensed to atoms (all electrons):
 Mulliken charges:
               1
     1  Mg   0.838860
     2  C   -0.002545
     3  C   -0.094195
     4  C   -0.045628
     5  C   -0.064751
     6  N   -0.256805
     7  C   -0.052457
     8  C   -0.014021
     9  C   -0.087011
    10  C    0.046564
    11  C    0.104758
    12  C    0.053451
    13  C   -0.072317
    14  H    0.037497
    15  N   -0.433320
    16  C    0.168797
    17  C   -0.176984
    18  C   -0.003436
    19  C    0.149117
    20  C    0.110180
    21  C    0.013001
    22  O   -0.248354
    23  C    0.062227
    24  N   -0.341040
    25  C    0.041148
    26  C   -0.028612
    27  C   -0.023844
    28  C    0.074450
    29  C    0.075989
    30  C    0.036579
    31  C   -0.009198
    32  N   -0.310197
    33  C    0.079765
    34  C   -0.171297
    35  C    0.008096
    36  C    0.082585
    37  C    0.127669
    38  C    0.045492
    39  O   -0.189097
    40  C   -0.005037
    41  C    0.212470
    42  O   -0.256795
    43  O   -0.304917
    44  C    0.157451
    45  H   -0.017261
    46  H   -0.016114
    47  H   -0.042552
    48  H    0.001084
    49  H   -0.003930
    50  H    0.025578
    51  H    0.016451
    52  H    0.016929
    53  H    0.010667
    54  H    0.044803
    55  H    0.017869
    56  H    0.017606
    57  H    0.005885
    58  H    0.027386
    59  H    0.039605
    60  H    0.037182
    61  H    0.037274
    62  H    0.031219
    63  H    0.017125
    64  H    0.009653
    65  H    0.023928
    66  H    0.012898
    67  H    0.004735
    68  H    0.006799
    69  H    0.003199
    70  H    0.010279
    71  H    0.016747
    72  H    0.029970
    73  H    0.045998
    74  H    0.008059
    75  H    0.046442
    76  H    0.035292
    77  H    0.042800
    78  H    0.046807
    79  H    0.054540
    80  Mg   0.837668
    81  C   -0.016643
    82  C   -0.086666
    83  C   -0.043358
    84  C   -0.065706
    85  N   -0.254475
    86  C   -0.050296
    87  C   -0.014981
    88  C   -0.090898
    89  C    0.045221
    90  C    0.110262
    91  C    0.062771
    92  C   -0.077526
    93  H    0.034352
    94  N   -0.424163
    95  C    0.163054
    96  C   -0.171075
    97  C   -0.006180
    98  C    0.152855
    99  C    0.097887
   100  C    0.017199
   101  O   -0.253593
   102  C    0.060673
   103  N   -0.349951
   104  C    0.037627
   105  C   -0.019909
   106  C   -0.034229
   107  C    0.088550
   108  C    0.073284
   109  C    0.035034
   110  C   -0.007523
   111  N   -0.323906
   112  C    0.077984
   113  C   -0.163915
   114  C    0.002408
   115  C    0.095610
   116  C    0.131391
   117  C    0.042434
   118  O   -0.188511
   119  C    0.000821
   120  C    0.211090
   121  O   -0.251326
   122  O   -0.305602
   123  C    0.152189
   124  H   -0.018002
   125  H   -0.015369
   126  H   -0.042085
   127  H   -0.001272
   128  H   -0.004767
   129  H    0.025178
   130  H    0.016783
   131  H    0.016766
   132  H    0.013947
   133  H    0.037511
   134  H    0.020053
   135  H    0.019476
   136  H    0.008818
   137  H    0.030988
   138  H    0.038943
   139  H    0.040983
   140  H    0.035569
   141  H    0.032935
   142  H    0.013957
   143  H    0.010483
   144  H    0.023985
   145  H    0.015392
   146  H    0.003083
   147  H    0.005228
   148  H    0.002732
   149  H    0.010829
   150  H    0.017340
   151  H    0.030737
   152  H    0.045526
   153  H    0.007248
   154  H    0.046255
   155  H    0.035465
   156  H    0.043600
   157  H    0.049174
   158  H    0.053345
 Sum of Mulliken charges =  -0.00000
 Mulliken charges with hydrogens summed into heavy atoms:
               1
     1  Mg   0.838860
     2  C   -0.002545
     3  C   -0.111456
     4  C   -0.061742
     5  C   -0.107304
     6  N   -0.256805
     7  C   -0.052457
     8  C   -0.012937
     9  C   -0.090941
    10  C    0.046564
    11  C    0.163716
    12  C    0.108922
    13  C    0.000654
    15  N   -0.433320
    16  C    0.168797
    17  C   -0.176984
    18  C   -0.003436
    19  C    0.149117
    20  C    0.183057
    21  C    0.013001
    22  O   -0.248354
    23  C    0.167901
    24  N   -0.341040
    25  C    0.041148
    26  C   -0.011487
    27  C   -0.014192
    28  C    0.074450
    29  C    0.117551
    30  C    0.046577
    31  C    0.047798
    32  N   -0.310197
    33  C    0.079765
    34  C   -0.171297
    35  C    0.008096
    36  C    0.082585
    37  C    0.228168
    38  C    0.045492
    39  O   -0.189097
    40  C    0.030254
    41  C    0.212470
    42  O   -0.256795
    43  O   -0.304917
    44  C    0.301597
    80  Mg   0.837668
    81  C   -0.016643
    82  C   -0.104668
    83  C   -0.058728
    84  C   -0.107791
    85  N   -0.254475
    86  C   -0.050296
    87  C   -0.016253
    88  C   -0.095664
    89  C    0.045221
    90  C    0.168989
    91  C    0.114229
    92  C   -0.003645
    94  N   -0.424163
    95  C    0.163054
    96  C   -0.171075
    97  C   -0.006180
    98  C    0.152855
    99  C    0.176637
   100  C    0.017199
   101  O   -0.253593
   102  C    0.170159
   103  N   -0.349951
   104  C    0.037627
   105  C   -0.005951
   106  C   -0.023746
   107  C    0.088550
   108  C    0.115743
   109  C    0.042995
   110  C    0.051383
   111  N   -0.323906
   112  C    0.077984
   113  C   -0.163915
   114  C    0.002408
   115  C    0.095610
   116  C    0.230420
   117  C    0.042434
   118  O   -0.188511
   119  C    0.036286
   120  C    0.211090
   121  O   -0.251326
   122  O   -0.305602
   123  C    0.298308
 Electronic spatial extent (au):  <R**2>=          98610.4777
 Charge=             -0.0000 electrons
 Dipole moment (field-independent basis, Debye):
    X=              4.4969    Y=             -0.0116    Z=              0.4443  Tot=              4.5188
 Quadrupole moment (field-independent basis, Debye-Ang):
   XX=           -528.7583   YY=           -538.2107   ZZ=           -453.1230
   XY=            -20.4897   XZ=             53.4403   YZ=             30.4018
 Traceless Quadrupole moment (field-independent basis, Debye-Ang):
   XX=            -22.0610   YY=            -31.5134   ZZ=             53.5744
   XY=            -20.4897   XZ=             53.4403   YZ=             30.4018
 Octapole moment (field-independent basis, Debye-Ang**2):
  XXX=            372.3207  YYY=             86.2679  ZZZ=            133.3316  XYY=             72.9791
  XXY=             59.5651  XXZ=             38.2081  XZZ=            -94.8196  YZZ=            -54.8376
  YYZ=           -172.4866  XYZ=             12.2889
 Hexadecapole moment (field-independent basis, Debye-Ang**3):
 XXXX=         -70971.2265 YYYY=         -40525.8093 ZZZZ=         -24585.2250 XXXY=            191.6297
 XXXZ=           2464.6891 YYYX=           1234.8170 YYYZ=            335.7575 ZZZX=            436.8856
 ZZZY=           -109.5269 XXYY=         -17718.6925 XXZZ=         -15191.0469 YYZZ=         -10235.0816
 XXYZ=           1266.9838 YYXZ=            851.7891 ZZXY=           -749.1660
 N-N= 1.547602353120D+04 E-N=-4.043318640423D+04  KE= 4.028799246379D+03
 Leave Link  601 at Thu Sep  9 16:12:16 2021, MaxMem= 23488102400 cpu:              18.7 elap:               0.9
 (Enter /sw/apps/gaussian-16.0/g16/l9999.exe)
 1\1\GINC-BP1-COMPUTE00115\SP\RCAM-B3LYP TD-FC\def2SVP\C68H72Mg2N8O8\OF
 15641\09-Sep-2021\0\\#p cam-b3lyp/Def2SVP td=(nstates=5)\\TDDFT excite
 d states in gaussian\\0,1\Mg,0,0.,0.,0.\C,0,-0.217,-2.218,2.801\C,0,-1
 .255,2.442,2.026\C,0,-0.245,1.85,-2.564\C,0,0.146,-2.824,-2.037\N,0,-0
 .617,-0.009,2.126\C,0,-0.594,-0.908,3.105\C,0,-0.936,-0.309,4.502\C,0,
 -1.773,0.964,4.032\C,0,-1.155,1.168,2.66\C,0,-3.263,0.685,3.863\C,0,0.
 345,0.11,5.299\C,0,0.124,0.397,6.787\H,0,1.168,0.033,7.733\N,0,-0.185,
 1.961,-0.152\C,0,-0.703,2.8,0.777\C,0,-0.62,4.156,0.193\C,0,-0.187,4.0
 15,-1.225\C,0,-0.214,2.583,-1.38\C,0,-0.887,5.406,0.974\C,0,0.181,5.01
 3,-2.277\O,0,0.303,4.69,-3.508\C,0,0.31,6.414,-1.837\N,0,-0.265,-0.413
 ,-2.029\C,0,-0.279,0.569,-2.937\C,0,-0.196,0.024,-4.332\C,0,0.124,-1.5
 33,-4.18\C,0,0.086,-1.632,-2.635\C,0,-1.451,0.205,-5.197\C,0,1.373,-2.
 07,-4.923\C,0,2.626,-1.49,-4.306\N,0,0.15,-2.144,0.303\C,0,0.173,-3.13
 6,-0.688\C,0,0.173,-4.438,0.004\C,0,0.133,-4.111,1.358\C,0,0.083,-2.69
 5,1.502\C,0,0.149,-5.715,-0.623\C,0,0.096,-4.629,2.716\O,0,0.208,-5.74
 7,3.221\C,0,-0.255,-3.428,3.701\C,0,0.717,-3.482,4.848\O,0,1.931,-3.25
 5,4.669\O,0,0.038,-3.556,6.003\C,0,0.943,-3.583,7.183\H,0,-1.859,3.22,
 2.497\H,0,-0.218,2.453,-3.474\H,0,0.276,-3.747,-2.605\H,0,-1.554,-0.94
 9,5.132\H,0,-1.585,1.831,4.665\H,0,-3.484,-0.377,3.969\H,0,-3.511,1.02
 7,2.858\H,0,-3.852,1.301,4.543\H,0,0.669,1.096,4.966\H,0,1.13,-0.639,5
 .189\H,0,-0.844,0.026,7.125\H,0,0.062,1.477,6.921\H,0,-1.344,5.186,1.9
 38\H,0,-1.651,5.963,0.432\H,0,0.007,6.02,1.084\H,0,-0.635,6.744,-1.405
 \H,0,0.665,6.97,-2.704\H,0,1.048,6.466,-1.036\H,0,0.608,0.501,-4.891\H
 ,0,-0.692,-2.156,-4.547\H,0,-1.267,0.74,-6.129\H,0,-2.204,0.714,-4.596
 \H,0,-1.967,-0.72,-5.453\H,0,1.356,-1.759,-5.967\H,0,1.452,-3.157,-4.9
 02\H,0,2.714,-0.522,-4.798\H,0,3.487,-2.121,-4.529\H,0,2.495,-1.303,-3
 .24\H,0,0.867,-6.333,-0.084\H,0,0.404,-5.642,-1.68\H,0,-0.891,-5.999,-
 0.463\H,0,-1.283,-3.581,4.028\H,0,0.698,-4.478,7.755\H,0,0.833,-2.619,
 7.68\H,0,2.,-3.754,6.976\Mg,0,8.94232,0.7985,0.67509\C,0,8.92026,1.674
 32,-2.80507\C,0,8.42316,-2.43219,-0.28811\C,0,8.50756,0.06186,3.73055\
 C,0,8.31754,4.15371,1.38074\N,0,8.71868,-0.13344,-1.31833\C,0,8.78978,
 0.28945,-2.5715\C,0,8.79762,-0.84308,-3.63304\C,0,8.07001,-1.98589,-2.
 77081\C,0,8.45244,-1.51524,-1.36906\C,0,6.5552,-1.95561,-2.88812\C,0,1
 0.25139,-1.26955,-4.04134\C,0,10.33668,-2.14805,-5.29143\H,0,11.47827,
 -1.97693,-6.18582\N,0,9.01432,-0.95831,1.59542\C,0,8.79996,-2.17308,1.
 04802\C,0,8.94938,-3.14105,2.14569\C,0,9.10674,-2.38622,3.41856\C,0,8.
 856,-1.03565,2.95684\C,0,9.01367,-4.62373,1.92\C,0,9.41725,-2.81122,4.
 82182\O,0,9.27097,-2.01405,5.81478\C,0,9.80813,-4.21595,5.01007\N,0,8.
 27107,1.89591,2.30833\C,0,8.22712,1.35068,3.53664\C,0,7.97746,2.40203,
 4.5915\C,0,8.10411,3.80634,3.83688\C,0,8.32661,3.29963,2.39496\C,0,6.6
 2527,2.32547,5.30009\C,0,9.11208,4.8322,4.42364\C,0,10.5253,4.32402,4.
 25063\N,0,8.84759,2.63497,-0.45912\C,0,8.54564,3.92488,0.02982\C,0,8.4
 8809,4.83004,-1.13629\C,0,8.73982,3.99294,-2.23373\C,0,8.92012,2.65657
 ,-1.78529\C,0,8.18357,6.21993,-1.09627\C,0,8.88348,3.93408,-3.6706\O,0
 ,8.91939,4.76756,-4.5749\C,0,8.8814,2.40847,-4.1166\C,0,10.02665,2.201
 57,-5.06955\O,0,11.20186,2.32194,-4.68096\O,0,9.55536,1.68601,-6.21953
 \C,0,10.6554,1.45269,-7.19282\H,0,8.03527,-3.43506,-0.46884\H,0,8.4540
 5,-0.11786,4.8068\H,0,8.22506,5.23208,1.52648\H,0,8.22478,-0.63097,-4.
 52782\H,0,8.49587,-2.9651,-2.97367\H,0,6.21101,-1.09378,-3.44032\H,0,6
 .18201,-1.92812,-1.87273\H,0,6.19155,-2.89352,-3.31757\H,0,10.6427,-1.
 97004,-3.29238\H,0,10.88146,-0.40963,-4.16031\H,0,9.39909,-2.14726,-5.
 86053\H,0,10.45871,-3.18753,-4.9774\H,0,8.70403,-4.88941,0.9017\H,0,8.
 25209,-5.07834,2.5628\H,0,9.98821,-5.0465,2.17339\H,0,9.01297,-4.86362
 ,4.64855\H,0,10.07627,-4.30588,6.06453\H,0,10.68749,-4.42062,4.38922\H
 ,0,8.72756,2.35321,5.37129\H,0,7.15058,4.35462,3.83367\H,0,6.713,2.235
 68,6.39932\H,0,6.0735,1.48857,4.89304\H,0,5.9544,3.16069,5.10631\H,0,8
 .95298,4.94707,5.49865\H,0,9.03251,5.81863,3.97909\H,0,10.65303,3.6538
 9,5.10602\H,0,11.23549,5.14773,4.28504\H,0,10.61739,3.71893,3.34121\H,
 0,8.88547,6.71157,-1.75668\H,0,8.24792,6.61204,-0.08342\H,0,7.15483,6.
 20492,-1.46605\H,0,7.91748,2.20534,-4.58475\H,0,10.39086,1.99001,-8.10
 879\H,0,10.76142,0.354,-7.26611\H,0,11.62394,1.88336,-6.96722\\Version
 =ES64L-G16RevA.03\State=1-A\HF=-4069.8118407\RMSD=7.317e-09\PG=C01 [X(
 C68H72Mg2N8O8)]\\@


 TIME IS NATURE'S WAY OF MAKING SURE EVERYTHING
 DOESN'T HAPPEN AT ONCE.
                     - WOODY ALLEN
 Job cpu time:       0 days 13 hours 52 minutes  2.0 seconds.
 Elapsed time:       0 days  0 hours 35 minutes 18.7 seconds.
 File lengths (MBytes):  RWF=  13225 Int=      0 D2E=      0 Chk=    574 Scr=      1
 Normal termination of Gaussian 16 at Thu Sep  9 16:12:17 2021.
