 Entering Gaussian System, Link 0=g16
 Initial command:
 /sw/apps/gaussian-16.0/g16/l1.exe "/tmp/Gau-26755.inp" -scrdir="/tmp/"
 Entering Link 1 = /sw/apps/gaussian-16.0/g16/l1.exe PID=     26756.
  
 Copyright (c) 1988,1990,1992,1993,1995,1998,2003,2009,2016,
            Gaussian, Inc.  All Rights Reserved.
  
 This is part of the Gaussian(R) 16 program.  It is based on
 the Gaussian(R) 09 system (copyright 2009, Gaussian, Inc.),
 the Gaussian(R) 03 system (copyright 2003, Gaussian, Inc.),
 the Gaussian(R) 98 system (copyright 1998, Gaussian, Inc.),
 the Gaussian(R) 94 system (copyright 1995, Gaussian, Inc.),
 the Gaussian 92(TM) system (copyright 1992, Gaussian, Inc.),
 the Gaussian 90(TM) system (copyright 1990, Gaussian, Inc.),
 the Gaussian 88(TM) system (copyright 1988, Gaussian, Inc.),
 the Gaussian 86(TM) system (copyright 1986, Carnegie Mellon
 University), and the Gaussian 82(TM) system (copyright 1983,
 Carnegie Mellon University). Gaussian is a federally registered
 trademark of Gaussian, Inc.
  
 This software contains proprietary and confidential information,
 including trade secrets, belonging to Gaussian, Inc.
  
 This software is provided under written license and may be
 used, copied, transmitted, or stored only in accord with that
 written license.
  
 The following legend is applicable only to US Government
 contracts under FAR:
  
                    RESTRICTED RIGHTS LEGEND
  
 Use, reproduction and disclosure by the US Government is
 subject to restrictions as set forth in subparagraphs (a)
 and (c) of the Commercial Computer Software - Restricted
 Rights clause in FAR 52.227-19.
  
 Gaussian, Inc.
 340 Quinnipiac St., Bldg. 40, Wallingford CT 06492
  
  
 ---------------------------------------------------------------
 Warning -- This program may not be used in any manner that
 competes with the business of Gaussian, Inc. or will provide
 assistance to any competitor of Gaussian, Inc.  The licensee
 of this program is prohibited from giving any competitor of
 Gaussian, Inc. access to this program.  By using this program,
 the user acknowledges that Gaussian, Inc. is engaged in the
 business of creating and licensing software in the field of
 computational chemistry and represents and warrants to the
 licensee that it is not a competitor of Gaussian, Inc. and that
 it will not use this program in any manner prohibited above.
 ---------------------------------------------------------------
  

 Cite this work as:
 Gaussian 16, Revision A.03,
 M. J. Frisch, G. W. Trucks, H. B. Schlegel, G. E. Scuseria, 
 M. A. Robb, J. R. Cheeseman, G. Scalmani, V. Barone, 
 G. A. Petersson, H. Nakatsuji, X. Li, M. Caricato, A. V. Marenich, 
 J. Bloino, B. G. Janesko, R. Gomperts, B. Mennucci, H. P. Hratchian, 
 J. V. Ortiz, A. F. Izmaylov, J. L. Sonnenberg, D. Williams-Young, 
 F. Ding, F. Lipparini, F. Egidi, J. Goings, B. Peng, A. Petrone, 
 T. Henderson, D. Ranasinghe, V. G. Zakrzewski, J. Gao, N. Rega, 
 G. Zheng, W. Liang, M. Hada, M. Ehara, K. Toyota, R. Fukuda, 
 J. Hasegawa, M. Ishida, T. Nakajima, Y. Honda, O. Kitao, H. Nakai, 
 T. Vreven, K. Throssell, J. A. Montgomery, Jr., J. E. Peralta, 
 F. Ogliaro, M. J. Bearpark, J. J. Heyd, E. N. Brothers, K. N. Kudin, 
 V. N. Staroverov, T. A. Keith, R. Kobayashi, J. Normand, 
 K. Raghavachari, A. P. Rendell, J. C. Burant, S. S. Iyengar, 
 J. Tomasi, M. Cossi, J. M. Millam, M. Klene, C. Adamo, R. Cammi, 
 J. W. Ochterski, R. L. Martin, K. Morokuma, O. Farkas, 
 J. B. Foresman, and D. J. Fox, Gaussian, Inc., Wallingford CT, 2016.
 
 ******************************************
 Gaussian 16:  ES64L-G16RevA.03 25-Dec-2016
                10-Sep-2021 
 ******************************************
 %nproc=24
 Will use up to   24 processors via shared memory.
 %mem=175gb
 -----------------------------------
 #p cam-b3lyp/Def2SVP td=(nstates=5)
 -----------------------------------
 1/38=1,172=1/1;
 2/12=2,17=6,18=5,40=1/2;
 3/5=43,7=101,11=9,25=1,30=1,74=-40/1,2,3,8;
 4//1;
 5/5=2,38=5/2;
 8/6=1,10=1,108=5/1;
 9/41=5,42=1,70=2/14;
 6/7=2,8=2,9=2,10=2/1;
 99/5=1,9=1/99;
 Leave Link    1 at Fri Sep 10 14:42:16 2021, MaxMem= 23488102400 cpu:               0.9 elap:               0.0
 (Enter /sw/apps/gaussian-16.0/g16/l101.exe)
 --------------------------------
 TDDFT excited states in gaussian
 --------------------------------
 Symbolic Z-matrix:
 Charge =  0 Multiplicity = 1
 Mg                    0.        0.        0. 
 C                    -0.217    -2.218     2.801 
 C                    -1.255     2.442     2.026 
 C                    -0.245     1.85     -2.564 
 C                     0.146    -2.824    -2.037 
 N                    -0.617    -0.009     2.126 
 C                    -0.594    -0.908     3.105 
 C                    -0.936    -0.309     4.502 
 C                    -1.773     0.964     4.032 
 C                    -1.155     1.168     2.66 
 C                    -3.263     0.685     3.863 
 C                     0.345     0.11      5.299 
 C                     0.124     0.397     6.787 
 H                     1.168     0.033     7.733 
 N                    -0.185     1.961    -0.152 
 C                    -0.703     2.8       0.777 
 C                    -0.62      4.156     0.193 
 C                    -0.187     4.015    -1.225 
 C                    -0.214     2.583    -1.38 
 C                    -0.887     5.406     0.974 
 C                     0.181     5.013    -2.277 
 O                     0.303     4.69     -3.508 
 C                     0.31      6.414    -1.837 
 N                    -0.265    -0.413    -2.029 
 C                    -0.279     0.569    -2.937 
 C                    -0.196     0.024    -4.332 
 C                     0.124    -1.533    -4.18 
 C                     0.086    -1.632    -2.635 
 C                    -1.451     0.205    -5.197 
 C                     1.373    -2.07     -4.923 
 C                     2.626    -1.49     -4.306 
 N                     0.15     -2.144     0.303 
 C                     0.173    -3.136    -0.688 
 C                     0.173    -4.438     0.004 
 C                     0.133    -4.111     1.358 
 C                     0.083    -2.695     1.502 
 C                     0.149    -5.715    -0.623 
 C                     0.096    -4.629     2.716 
 O                     0.208    -5.747     3.221 
 C                    -0.255    -3.428     3.701 
 C                     0.717    -3.482     4.848 
 O                     1.931    -3.255     4.669 
 O                     0.038    -3.556     6.003 
 C                     0.943    -3.583     7.183 
 H                    -1.859     3.22      2.497 
 H                    -0.218     2.453    -3.474 
 H                     0.276    -3.747    -2.605 
 H                    -1.554    -0.949     5.132 
 H                    -1.585     1.831     4.665 
 H                    -3.484    -0.377     3.969 
 H                    -3.511     1.027     2.858 
 H                    -3.852     1.301     4.543 
 H                     0.669     1.096     4.966 
 H                     1.13     -0.639     5.189 
 H                    -0.844     0.026     7.125 
 H                     0.062     1.477     6.921 
 H                    -1.344     5.186     1.938 
 H                    -1.651     5.963     0.432 
 H                     0.007     6.02      1.084 
 H                    -0.635     6.744    -1.405 
 H                     0.665     6.97     -2.704 
 H                     1.048     6.466    -1.036 
 H                     0.608     0.501    -4.891 
 H                    -0.692    -2.156    -4.547 
 H                    -1.267     0.74     -6.129 
 H                    -2.204     0.714    -4.596 
 H                    -1.967    -0.72     -5.453 
 H                     1.356    -1.759    -5.967 
 H                     1.452    -3.157    -4.902 
 H                     2.714    -0.522    -4.798 
 H                     3.487    -2.121    -4.529 
 H                     2.495    -1.303    -3.24 
 H                     0.867    -6.333    -0.084 
 H                     0.404    -5.642    -1.68 
 H                    -0.891    -5.999    -0.463 
 H                    -1.283    -3.581     4.028 
 H                     0.698    -4.478     7.755 
 H                     0.833    -2.619     7.68 
 H                     2.       -3.754     6.976 
 Mg                    10.51863   0.94704   0.79128 
 C                     10.08966   4.33555  -0.31013 
 C                     9.96701  -0.01378  -2.43473 
 C                     10.44334  -2.05896   1.80405 
 C                     9.90226   2.06915   4.03268 
 N                     10.09499   2.10432  -1.04543 
 C                     10.01667   3.38997  -1.35416 
 C                     9.93128   3.68187  -2.87635 
 C                     9.32971   2.27296  -3.35799 
 C                     9.8554    1.38499  -2.23201 
 C                     7.81096   2.22696  -3.33308 
 C                     11.33959   3.95288  -3.51293 
 C                     11.30451   4.5464   -4.92298 
 H                     12.3353   5.51029  -5.29828 
 N                     10.73155  -0.75192  -0.2121 
 C                     10.48447  -0.9595   -1.5225 
 C                     10.77662  -2.38046  -1.76682 
 C                     11.05805  -3.03305  -0.45929 
 C                     10.72762  -1.95433   0.45024 
 C                     10.84816  -2.97121  -3.14498 
 C                     11.53228  -4.40551  -0.08828 
 O                     11.47991  -4.83251   1.1191 
 C                     11.97267  -5.26823  -1.19429 
 N                     10.00938   0.08549   2.61357 
 C                     10.1146  -1.24132   2.8044 
 C                     9.9608   -1.59636   4.26409 
 C                     9.9715   -0.20282   5.04863 
 C                     10.04315   0.76394   3.84629 
 C                     8.69799  -2.37618   4.62957 
 C                     11.01561  -0.04444   6.18768 
 C                     12.41167  -0.01891   5.60822 
 N                     10.25753   2.86571   1.74972 
 C                     9.98346   3.10757   3.11372 
 C                     9.77636   4.56245   3.26485 
 C                     9.92272   5.06728   1.964 
 C                     10.18139   3.99979   1.06231 
 C                     9.44752   5.23455   4.47575 
 C                     9.9067    6.25925   1.1469 
 O                     9.8232    7.46588   1.37227 
 C                     9.88871   5.82387  -0.38167 
 C                     10.92497   6.63665  -1.10836 
 O                     12.1332   6.49855  -0.84813 
 O                     10.34003   7.27967  -2.13536 
 C                     11.32969   8.09073  -2.89337 
 H                     9.58368  -0.43552  -3.36429 
 H                     10.51404  -3.06488   2.22431 
 H                     9.80276   2.50944   5.02712 
 H                     9.25777   4.48597  -3.14761 
 H                     9.75187   1.96871  -4.31223 
 H                     7.38842   3.11232  -2.8817 
 H                     7.55269   1.34832  -2.75659 
 H                     7.42257   2.05139  -4.34038 
 H                     11.8273   2.99278  -3.72527 
 H                     11.93331   4.57637  -2.8731 
 H                     10.30958   4.9258   -5.18587 
 H                     11.48373   3.74337  -5.64205 
 H                     10.43296  -2.28905  -3.89709 
 H                     10.17317  -3.83381  -3.15856 
 H                     11.85397  -3.30535  -3.40834 
 H                     11.15671  -5.39256  -1.90225 
 H                     12.35853  -6.17402  -0.72257 
 H                     12.78171  -4.76167  -1.73232 
 H                     10.79399  -2.19828   4.60555 
 H                     9.01165  -0.01014   5.55003 
 H                     8.90958  -3.33867   5.13245 
 H                     8.12296  -2.5369    3.72732 
 H                     7.99139  -1.84093   5.26158 
 H                     10.97475  -0.90409   6.8611 
 H                     10.86522   0.84465   6.79092 
 H                     12.64868  -1.08034   5.48868 
 H                     13.10286   0.46489   6.2954 
 H                     12.41524   0.4341    4.61001 
 H                     10.06043   6.12528   4.51379 
 H                     9.6156    4.59807   5.34202 
 H                     8.38457   5.42832   4.30881 
 H                     8.88336   6.00732  -0.76273 
 H                     10.95295   9.11804  -2.91288 
 H                     11.45117   7.58017  -3.86719 
 H                     12.30757   8.2325   -2.44829 
 
 ITRead=  0  0  0  0  0  0  0  0  0  0  0  0  0  0  0  0  0  0  0  0
 ITRead=  0  0  0  0  0  0  0  0  0  0  0  0  0  0  0  0  0  0  0  0
 ITRead=  0  0  0  0  0  0  0  0  0  0  0  0  0  0  0  0  0  0  0  0
 ITRead=  0  0  0  0  0  0  0  0  0  0  0  0  0  0  0  0  0  0  0  0
 ITRead=  0  0  0  0  0  0  0  0  0  0  0  0  0  0  0  0  0  0  0  0
 ITRead=  0  0  0  0  0  0  0  0  0  0  0  0  0  0  0  0  0  0  0  0
 ITRead=  0  0  0  0  0  0  0  0  0  0  0  0  0  0  0  0  0  0  0  0
 ITRead=  0  0  0  0  0  0  0  0  0  0  0  0  0  0  0  0  0  0
 MicOpt= -1 -1 -1 -1 -1 -1 -1 -1 -1 -1 -1 -1 -1 -1 -1 -1 -1 -1 -1 -1
 MicOpt= -1 -1 -1 -1 -1 -1 -1 -1 -1 -1 -1 -1 -1 -1 -1 -1 -1 -1 -1 -1
 MicOpt= -1 -1 -1 -1 -1 -1 -1 -1 -1 -1 -1 -1 -1 -1 -1 -1 -1 -1 -1 -1
 MicOpt= -1 -1 -1 -1 -1 -1 -1 -1 -1 -1 -1 -1 -1 -1 -1 -1 -1 -1 -1 -1
 MicOpt= -1 -1 -1 -1 -1 -1 -1 -1 -1 -1 -1 -1 -1 -1 -1 -1 -1 -1 -1 -1
 MicOpt= -1 -1 -1 -1 -1 -1 -1 -1 -1 -1 -1 -1 -1 -1 -1 -1 -1 -1 -1 -1
 MicOpt= -1 -1 -1 -1 -1 -1 -1 -1 -1 -1 -1 -1 -1 -1 -1 -1 -1 -1 -1 -1
 MicOpt= -1 -1 -1 -1 -1 -1 -1 -1 -1 -1 -1 -1 -1 -1 -1 -1 -1 -1
 NAtoms=    158 NQM=      158 NQMF=       0 NMMI=      0 NMMIF=      0
                NMic=       0 NMicF=      0.
                    Isotopes and Nuclear Properties:
 (Nuclear quadrupole moments (NQMom) in fm**2, nuclear magnetic moments (NMagM)
  in nuclear magnetons)

  Atom         1           2           3           4           5           6           7           8           9          10
 IAtWgt=          24          12          12          12          12          14          12          12          12          12
 AtmWgt=  23.9850450  12.0000000  12.0000000  12.0000000  12.0000000  14.0030740  12.0000000  12.0000000  12.0000000  12.0000000
 NucSpn=           0           0           0           0           0           2           0           0           0           0
 AtZEff=  -0.0000000  -0.0000000  -0.0000000  -0.0000000  -0.0000000  -0.0000000  -0.0000000  -0.0000000  -0.0000000  -0.0000000
 NQMom=    0.0000000   0.0000000   0.0000000   0.0000000   0.0000000   2.0440000   0.0000000   0.0000000   0.0000000   0.0000000
 NMagM=    0.0000000   0.0000000   0.0000000   0.0000000   0.0000000   0.4037610   0.0000000   0.0000000   0.0000000   0.0000000
 AtZNuc=  12.0000000   6.0000000   6.0000000   6.0000000   6.0000000   7.0000000   6.0000000   6.0000000   6.0000000   6.0000000

  Atom        11          12          13          14          15          16          17          18          19          20
 IAtWgt=          12          12          12           1          14          12          12          12          12          12
 AtmWgt=  12.0000000  12.0000000  12.0000000   1.0078250  14.0030740  12.0000000  12.0000000  12.0000000  12.0000000  12.0000000
 NucSpn=           0           0           0           1           2           0           0           0           0           0
 AtZEff=  -0.0000000  -0.0000000  -0.0000000  -0.0000000  -0.0000000  -0.0000000  -0.0000000  -0.0000000  -0.0000000  -0.0000000
 NQMom=    0.0000000   0.0000000   0.0000000   0.0000000   2.0440000   0.0000000   0.0000000   0.0000000   0.0000000   0.0000000
 NMagM=    0.0000000   0.0000000   0.0000000   2.7928460   0.4037610   0.0000000   0.0000000   0.0000000   0.0000000   0.0000000
 AtZNuc=   6.0000000   6.0000000   6.0000000   1.0000000   7.0000000   6.0000000   6.0000000   6.0000000   6.0000000   6.0000000

  Atom        21          22          23          24          25          26          27          28          29          30
 IAtWgt=          12          16          12          14          12          12          12          12          12          12
 AtmWgt=  12.0000000  15.9949146  12.0000000  14.0030740  12.0000000  12.0000000  12.0000000  12.0000000  12.0000000  12.0000000
 NucSpn=           0           0           0           2           0           0           0           0           0           0
 AtZEff=  -0.0000000  -0.0000000  -0.0000000  -0.0000000  -0.0000000  -0.0000000  -0.0000000  -0.0000000  -0.0000000  -0.0000000
 NQMom=    0.0000000   0.0000000   0.0000000   2.0440000   0.0000000   0.0000000   0.0000000   0.0000000   0.0000000   0.0000000
 NMagM=    0.0000000   0.0000000   0.0000000   0.4037610   0.0000000   0.0000000   0.0000000   0.0000000   0.0000000   0.0000000
 AtZNuc=   6.0000000   8.0000000   6.0000000   7.0000000   6.0000000   6.0000000   6.0000000   6.0000000   6.0000000   6.0000000

  Atom        31          32          33          34          35          36          37          38          39          40
 IAtWgt=          12          14          12          12          12          12          12          12          16          12
 AtmWgt=  12.0000000  14.0030740  12.0000000  12.0000000  12.0000000  12.0000000  12.0000000  12.0000000  15.9949146  12.0000000
 NucSpn=           0           2           0           0           0           0           0           0           0           0
 AtZEff=  -0.0000000  -0.0000000  -0.0000000  -0.0000000  -0.0000000  -0.0000000  -0.0000000  -0.0000000  -0.0000000  -0.0000000
 NQMom=    0.0000000   2.0440000   0.0000000   0.0000000   0.0000000   0.0000000   0.0000000   0.0000000   0.0000000   0.0000000
 NMagM=    0.0000000   0.4037610   0.0000000   0.0000000   0.0000000   0.0000000   0.0000000   0.0000000   0.0000000   0.0000000
 AtZNuc=   6.0000000   7.0000000   6.0000000   6.0000000   6.0000000   6.0000000   6.0000000   6.0000000   8.0000000   6.0000000

  Atom        41          42          43          44          45          46          47          48          49          50
 IAtWgt=          12          16          16          12           1           1           1           1           1           1
 AtmWgt=  12.0000000  15.9949146  15.9949146  12.0000000   1.0078250   1.0078250   1.0078250   1.0078250   1.0078250   1.0078250
 NucSpn=           0           0           0           0           1           1           1           1           1           1
 AtZEff=  -0.0000000  -0.0000000  -0.0000000  -0.0000000  -0.0000000  -0.0000000  -0.0000000  -0.0000000  -0.0000000  -0.0000000
 NQMom=    0.0000000   0.0000000   0.0000000   0.0000000   0.0000000   0.0000000   0.0000000   0.0000000   0.0000000   0.0000000
 NMagM=    0.0000000   0.0000000   0.0000000   0.0000000   2.7928460   2.7928460   2.7928460   2.7928460   2.7928460   2.7928460
 AtZNuc=   6.0000000   8.0000000   8.0000000   6.0000000   1.0000000   1.0000000   1.0000000   1.0000000   1.0000000   1.0000000

  Atom        51          52          53          54          55          56          57          58          59          60
 IAtWgt=           1           1           1           1           1           1           1           1           1           1
 AtmWgt=   1.0078250   1.0078250   1.0078250   1.0078250   1.0078250   1.0078250   1.0078250   1.0078250   1.0078250   1.0078250
 NucSpn=           1           1           1           1           1           1           1           1           1           1
 AtZEff=  -0.0000000  -0.0000000  -0.0000000  -0.0000000  -0.0000000  -0.0000000  -0.0000000  -0.0000000  -0.0000000  -0.0000000
 NQMom=    0.0000000   0.0000000   0.0000000   0.0000000   0.0000000   0.0000000   0.0000000   0.0000000   0.0000000   0.0000000
 NMagM=    2.7928460   2.7928460   2.7928460   2.7928460   2.7928460   2.7928460   2.7928460   2.7928460   2.7928460   2.7928460
 AtZNuc=   1.0000000   1.0000000   1.0000000   1.0000000   1.0000000   1.0000000   1.0000000   1.0000000   1.0000000   1.0000000

  Atom        61          62          63          64          65          66          67          68          69          70
 IAtWgt=           1           1           1           1           1           1           1           1           1           1
 AtmWgt=   1.0078250   1.0078250   1.0078250   1.0078250   1.0078250   1.0078250   1.0078250   1.0078250   1.0078250   1.0078250
 NucSpn=           1           1           1           1           1           1           1           1           1           1
 AtZEff=  -0.0000000  -0.0000000  -0.0000000  -0.0000000  -0.0000000  -0.0000000  -0.0000000  -0.0000000  -0.0000000  -0.0000000
 NQMom=    0.0000000   0.0000000   0.0000000   0.0000000   0.0000000   0.0000000   0.0000000   0.0000000   0.0000000   0.0000000
 NMagM=    2.7928460   2.7928460   2.7928460   2.7928460   2.7928460   2.7928460   2.7928460   2.7928460   2.7928460   2.7928460
 AtZNuc=   1.0000000   1.0000000   1.0000000   1.0000000   1.0000000   1.0000000   1.0000000   1.0000000   1.0000000   1.0000000

  Atom        71          72          73          74          75          76          77          78          79          80
 IAtWgt=           1           1           1           1           1           1           1           1           1          24
 AtmWgt=   1.0078250   1.0078250   1.0078250   1.0078250   1.0078250   1.0078250   1.0078250   1.0078250   1.0078250  23.9850450
 NucSpn=           1           1           1           1           1           1           1           1           1           0
 AtZEff=  -0.0000000  -0.0000000  -0.0000000  -0.0000000  -0.0000000  -0.0000000  -0.0000000  -0.0000000  -0.0000000  -0.0000000
 NQMom=    0.0000000   0.0000000   0.0000000   0.0000000   0.0000000   0.0000000   0.0000000   0.0000000   0.0000000   0.0000000
 NMagM=    2.7928460   2.7928460   2.7928460   2.7928460   2.7928460   2.7928460   2.7928460   2.7928460   2.7928460   0.0000000
 AtZNuc=   1.0000000   1.0000000   1.0000000   1.0000000   1.0000000   1.0000000   1.0000000   1.0000000   1.0000000  12.0000000

  Atom        81          82          83          84          85          86          87          88          89          90
 IAtWgt=          12          12          12          12          14          12          12          12          12          12
 AtmWgt=  12.0000000  12.0000000  12.0000000  12.0000000  14.0030740  12.0000000  12.0000000  12.0000000  12.0000000  12.0000000
 NucSpn=           0           0           0           0           2           0           0           0           0           0
 AtZEff=  -0.0000000  -0.0000000  -0.0000000  -0.0000000  -0.0000000  -0.0000000  -0.0000000  -0.0000000  -0.0000000  -0.0000000
 NQMom=    0.0000000   0.0000000   0.0000000   0.0000000   2.0440000   0.0000000   0.0000000   0.0000000   0.0000000   0.0000000
 NMagM=    0.0000000   0.0000000   0.0000000   0.0000000   0.4037610   0.0000000   0.0000000   0.0000000   0.0000000   0.0000000
 AtZNuc=   6.0000000   6.0000000   6.0000000   6.0000000   7.0000000   6.0000000   6.0000000   6.0000000   6.0000000   6.0000000

  Atom        91          92          93          94          95          96          97          98          99         100
 IAtWgt=          12          12           1          14          12          12          12          12          12          12
 AtmWgt=  12.0000000  12.0000000   1.0078250  14.0030740  12.0000000  12.0000000  12.0000000  12.0000000  12.0000000  12.0000000
 NucSpn=           0           0           1           2           0           0           0           0           0           0
 AtZEff=  -0.0000000  -0.0000000  -0.0000000  -0.0000000  -0.0000000  -0.0000000  -0.0000000  -0.0000000  -0.0000000  -0.0000000
 NQMom=    0.0000000   0.0000000   0.0000000   2.0440000   0.0000000   0.0000000   0.0000000   0.0000000   0.0000000   0.0000000
 NMagM=    0.0000000   0.0000000   2.7928460   0.4037610   0.0000000   0.0000000   0.0000000   0.0000000   0.0000000   0.0000000
 AtZNuc=   6.0000000   6.0000000   1.0000000   7.0000000   6.0000000   6.0000000   6.0000000   6.0000000   6.0000000   6.0000000

  Atom       101         102         103         104         105         106         107         108         109         110
 IAtWgt=          16          12          14          12          12          12          12          12          12          12
 AtmWgt=  15.9949146  12.0000000  14.0030740  12.0000000  12.0000000  12.0000000  12.0000000  12.0000000  12.0000000  12.0000000
 NucSpn=           0           0           2           0           0           0           0           0           0           0
 AtZEff=  -0.0000000  -0.0000000  -0.0000000  -0.0000000  -0.0000000  -0.0000000  -0.0000000  -0.0000000  -0.0000000  -0.0000000
 NQMom=    0.0000000   0.0000000   2.0440000   0.0000000   0.0000000   0.0000000   0.0000000   0.0000000   0.0000000   0.0000000
 NMagM=    0.0000000   0.0000000   0.4037610   0.0000000   0.0000000   0.0000000   0.0000000   0.0000000   0.0000000   0.0000000
 AtZNuc=   8.0000000   6.0000000   7.0000000   6.0000000   6.0000000   6.0000000   6.0000000   6.0000000   6.0000000   6.0000000

  Atom       111         112         113         114         115         116         117         118         119         120
 IAtWgt=          14          12          12          12          12          12          12          16          12          12
 AtmWgt=  14.0030740  12.0000000  12.0000000  12.0000000  12.0000000  12.0000000  12.0000000  15.9949146  12.0000000  12.0000000
 NucSpn=           2           0           0           0           0           0           0           0           0           0
 AtZEff=  -0.0000000  -0.0000000  -0.0000000  -0.0000000  -0.0000000  -0.0000000  -0.0000000  -0.0000000  -0.0000000  -0.0000000
 NQMom=    2.0440000   0.0000000   0.0000000   0.0000000   0.0000000   0.0000000   0.0000000   0.0000000   0.0000000   0.0000000
 NMagM=    0.4037610   0.0000000   0.0000000   0.0000000   0.0000000   0.0000000   0.0000000   0.0000000   0.0000000   0.0000000
 AtZNuc=   7.0000000   6.0000000   6.0000000   6.0000000   6.0000000   6.0000000   6.0000000   8.0000000   6.0000000   6.0000000

  Atom       121         122         123         124         125         126         127         128         129         130
 IAtWgt=          16          16          12           1           1           1           1           1           1           1
 AtmWgt=  15.9949146  15.9949146  12.0000000   1.0078250   1.0078250   1.0078250   1.0078250   1.0078250   1.0078250   1.0078250
 NucSpn=           0           0           0           1           1           1           1           1           1           1
 AtZEff=  -0.0000000  -0.0000000  -0.0000000  -0.0000000  -0.0000000  -0.0000000  -0.0000000  -0.0000000  -0.0000000  -0.0000000
 NQMom=    0.0000000   0.0000000   0.0000000   0.0000000   0.0000000   0.0000000   0.0000000   0.0000000   0.0000000   0.0000000
 NMagM=    0.0000000   0.0000000   0.0000000   2.7928460   2.7928460   2.7928460   2.7928460   2.7928460   2.7928460   2.7928460
 AtZNuc=   8.0000000   8.0000000   6.0000000   1.0000000   1.0000000   1.0000000   1.0000000   1.0000000   1.0000000   1.0000000

  Atom       131         132         133         134         135         136         137         138         139         140
 IAtWgt=           1           1           1           1           1           1           1           1           1           1
 AtmWgt=   1.0078250   1.0078250   1.0078250   1.0078250   1.0078250   1.0078250   1.0078250   1.0078250   1.0078250   1.0078250
 NucSpn=           1           1           1           1           1           1           1           1           1           1
 AtZEff=  -0.0000000  -0.0000000  -0.0000000  -0.0000000  -0.0000000  -0.0000000  -0.0000000  -0.0000000  -0.0000000  -0.0000000
 NQMom=    0.0000000   0.0000000   0.0000000   0.0000000   0.0000000   0.0000000   0.0000000   0.0000000   0.0000000   0.0000000
 NMagM=    2.7928460   2.7928460   2.7928460   2.7928460   2.7928460   2.7928460   2.7928460   2.7928460   2.7928460   2.7928460
 AtZNuc=   1.0000000   1.0000000   1.0000000   1.0000000   1.0000000   1.0000000   1.0000000   1.0000000   1.0000000   1.0000000

  Atom       141         142         143         144         145         146         147         148         149         150
 IAtWgt=           1           1           1           1           1           1           1           1           1           1
 AtmWgt=   1.0078250   1.0078250   1.0078250   1.0078250   1.0078250   1.0078250   1.0078250   1.0078250   1.0078250   1.0078250
 NucSpn=           1           1           1           1           1           1           1           1           1           1
 AtZEff=  -0.0000000  -0.0000000  -0.0000000  -0.0000000  -0.0000000  -0.0000000  -0.0000000  -0.0000000  -0.0000000  -0.0000000
 NQMom=    0.0000000   0.0000000   0.0000000   0.0000000   0.0000000   0.0000000   0.0000000   0.0000000   0.0000000   0.0000000
 NMagM=    2.7928460   2.7928460   2.7928460   2.7928460   2.7928460   2.7928460   2.7928460   2.7928460   2.7928460   2.7928460
 AtZNuc=   1.0000000   1.0000000   1.0000000   1.0000000   1.0000000   1.0000000   1.0000000   1.0000000   1.0000000   1.0000000

  Atom       151         152         153         154         155         156         157         158
 IAtWgt=           1           1           1           1           1           1           1           1
 AtmWgt=   1.0078250   1.0078250   1.0078250   1.0078250   1.0078250   1.0078250   1.0078250   1.0078250
 NucSpn=           1           1           1           1           1           1           1           1
 AtZEff=  -0.0000000  -0.0000000  -0.0000000  -0.0000000  -0.0000000  -0.0000000  -0.0000000  -0.0000000
 NQMom=    0.0000000   0.0000000   0.0000000   0.0000000   0.0000000   0.0000000   0.0000000   0.0000000
 NMagM=    2.7928460   2.7928460   2.7928460   2.7928460   2.7928460   2.7928460   2.7928460   2.7928460
 AtZNuc=   1.0000000   1.0000000   1.0000000   1.0000000   1.0000000   1.0000000   1.0000000   1.0000000
 Leave Link  101 at Fri Sep 10 14:42:16 2021, MaxMem= 23488102400 cpu:               3.4 elap:               0.2
 (Enter /sw/apps/gaussian-16.0/g16/l202.exe)
 Stoichiometry    C68H72Mg2N8O8
 Framework group  C1[X(C68H72Mg2N8O8)]
 Deg. of freedom   468
 Full point group                 C1      NOp   1
 Largest Abelian subgroup         C1      NOp   1
 Largest concise Abelian subgroup C1      NOp   1
                         Standard orientation:                         
 ---------------------------------------------------------------------
 Center     Atomic      Atomic             Coordinates (Angstroms)
 Number     Number       Type             X           Y           Z
 ---------------------------------------------------------------------
      1         12           0        5.064796    1.204480    0.304865
      2          6           0        6.092563   -2.116413   -0.548117
      3          6           0        5.798549    2.096427   -2.905914
      4          6           0        4.597822    4.224515    1.152184
      5          6           0        5.496488    0.320829    3.648286
      6          7           0        5.838866    0.046491   -1.415752
      7          6           0        6.135666   -1.231794   -1.628042
      8          6           0        6.424139   -1.558915   -3.123752
      9          6           0        6.854010   -0.106264   -3.620758
     10          6           0        6.091040    0.731874   -2.610151
     11          6           0        8.345234    0.174236   -3.465611
     12          6           0        5.149724   -2.068423   -3.877409
     13          6           0        5.411672   -2.714982   -5.240750
     14          1           0        4.583634   -3.837914   -5.653939
     15          7           0        4.713703    2.805100   -0.798585
     16          6           0        5.068819    2.990363   -2.092747
     17          6           0        4.583073    4.337963   -2.459772
     18          6           0        4.084836    4.995394   -1.219756
     19          6           0        4.474642    4.032266   -0.221852
     20          6           0        4.576347    4.855604   -3.865386
     21          6           0        3.380063    6.291584   -0.972128
     22          8           0        3.244341    6.778472    0.202220
     23          6           0        2.924344    7.029709   -2.163990
     24          7           0        5.257614    2.215941    2.120740
     25          6           0        4.936288    3.509913    2.227373
     26          6           0        4.882689    3.942726    3.662552
     27          6           0        4.997708    2.607953    4.531403
     28          6           0        5.190162    1.591867    3.378667
     29          6           0        5.968486    4.933931    4.103651
     30          6           0        3.876199    2.344414    5.567349
     31          6           0        2.571189    2.072865    4.852990
     32          7           0        5.510383   -0.616362    1.398953
     33          6           0        5.666055   -0.749711    2.786274
     34          6           0        6.066899   -2.145078    3.043850
     35          6           0        6.133100   -2.725926    1.778908
     36          6           0        5.820584   -1.748083    0.791767
     37          6           0        6.373349   -2.702735    4.316461
     38          6           0        6.419150   -3.938815    1.029953
     39          8           0        6.648206   -5.110869    1.332138
     40          6           0        6.523199   -3.561719   -0.513679
     41          6           0        5.699667   -4.559292   -1.281762
     42          8           0        4.458131   -4.592887   -1.160002
     43          8           0        6.468805   -5.151231   -2.208355
     44          6           0        5.705333   -6.131786   -3.025532
     45          1           0        6.213871    2.540731   -3.812580
     46          1           0        4.336672    5.227123    1.497169
     47          1           0        5.566724   -0.049449    4.672695
     48          1           0        7.239484   -2.264193   -3.285675
     49          1           0        6.498354    0.100336   -4.629989
     50          1           0        8.846049   -0.624425   -2.918577
     51          1           0        8.409087    1.112038   -2.913394
     52          1           0        8.806346    0.365314   -4.434962
     53          1           0        4.550839   -1.212956   -4.189775
     54          1           0        4.583162   -2.760280   -3.253175
     55          1           0        6.468049   -2.949930   -5.374078
     56          1           0        5.198279   -1.977916   -6.014957
     57          1           0        5.154496    4.215529   -4.530662
     58          1           0        5.118450    5.801011   -3.859126
     59          1           0        3.564795    5.014339   -4.239415
     60          1           0        3.782023    7.252546   -2.799033
     61          1           0        2.363947    7.886319   -1.791130
     62          1           0        2.268720    6.384560   -2.749556
     63          1           0        3.937452    4.435020    3.887497
     64          1           0        5.915060    2.580814    5.119962
     65          1           0        5.572495    5.859039    4.523259
     66          1           0        6.608734    5.136336    3.245510
     67          1           0        6.686330    4.536343    4.820617
     68          1           0        3.722924    3.223657    6.192157
     69          1           0        4.088126    1.502229    6.226184
     70          1           0        2.190489    3.073747    4.652655
     71          1           0        1.891030    1.518877    5.500826
     72          1           0        2.737485    1.588785    3.890443
     73          1           0        5.891259   -3.679832    4.345419
     74          1           0        6.020208   -2.062678    5.124682
     75          1           0        7.461063   -2.744685    4.261915
     76          1           0        7.578941   -3.612202   -0.778222
     77          1           0        6.224435   -7.087193   -2.948303
     78          1           0        5.599116   -5.692394   -4.017529
     79          1           0        4.717081   -6.403836   -2.653126
     80         12           0       -5.227129   -1.289015    0.152029
     81          6           0       -5.799263    2.021883   -1.108819
     82          6           0       -4.715291    0.126384    3.212955
     83          6           0       -4.278487   -4.130697    1.197175
     84          6           0       -4.657596   -2.292896   -3.136370
     85          7           0       -5.278962    0.813329    0.837400
     86          6           0       -5.568012    1.980495    0.281958
     87          6           0       -5.690731    3.157865    1.286099
     88          6           0       -4.782255    2.561294    2.468329
     89          6           0       -4.959125    1.071092    2.184276
     90          6           0       -3.308422    2.903078    2.325721
     91          6           0       -7.169062    3.388961    1.758486
     92          6           0       -7.410088    4.708701    2.494645
     93          1           0       -8.685989    5.391653    2.299409
     94          7           0       -5.068960   -1.989755    2.002034
     95          6           0       -4.887021   -1.272935    3.130906
     96          6           0       -4.814357   -2.255040    4.223774
     97          6           0       -4.803162   -3.619034    3.628706
     98          6           0       -4.693044   -3.291720    2.221295
     99          6           0       -4.843485   -1.863697    5.672715
    100          6           0       -4.866528   -4.991206    4.228137
    101          8           0       -4.602319   -6.039588    3.539713
    102          6           0       -5.155692   -5.065027    5.667728
    103          7           0       -4.357763   -2.922010   -0.796590
    104          6           0       -4.093644   -4.054073   -0.120880
    105          6           0       -3.729682   -5.178271   -1.061153
    106          6           0       -4.040779   -4.627558   -2.529997
    107          6           0       -4.465153   -3.185592   -2.175004
    108          6           0       -2.280064   -5.658407   -0.994366
    109          6           0       -4.990179   -5.480772   -3.415068
    110          6           0       -6.387328   -5.464395   -2.837906
    111          7           0       -5.400595   -0.384667   -1.802488
    112          6           0       -5.086187   -0.974717   -3.046310
    113          6           0       -5.257352    0.068147   -4.078562
    114          6           0       -5.640234    1.207832   -3.355371
    115          6           0       -5.683682    0.902535   -1.968145
    116          6           0       -5.016409   -0.093271   -5.472127
    117          6           0       -6.007239    2.602550   -3.449033
    118          8           0       -6.225615    3.383074   -4.374675
    119          6           0       -6.003858    3.225281   -1.986638
    120          6           0       -7.274784    4.010943   -1.813411
    121          8           0       -8.377761    3.436443   -1.811976
    122          8           0       -6.968181    5.273132   -1.462367
    123          6           0       -8.196502    6.088825   -1.268205
    124          1           0       -4.314027    0.484231    4.161544
    125          1           0       -4.046359   -5.156478    1.492779
    126          1           0       -4.594253   -2.552506   -4.195265
    127          1           0       -5.277870    4.096970    0.937671
    128          1           0       -5.188124    2.814214    3.444374
    129          1           0       -3.097402    3.392606    1.386583
    130          1           0       -2.780495    1.960497    2.388066
    131          1           0       -2.973619    3.493328    3.183530
    132          1           0       -7.402950    2.679699    2.562839
    133          1           0       -7.849981    3.305594    0.933850
    134          1           0       -6.575839    5.409437    2.368394
    135          1           0       -7.431431    4.508122    3.568587
    136          1           0       -4.687209   -0.785541    5.801404
    137          1           0       -3.968884   -2.323288    6.145710
    138          1           0       -5.744341   -2.209220    6.184315
    139          1           0       -4.398285   -4.510955    6.217085
    140          1           0       -5.248484   -6.129227    5.892967
    141          1           0       -6.111790   -4.564959    5.858606
    142          1           0       -4.343317   -6.051339   -0.875915
    143          1           0       -3.126854   -4.545853   -3.136548
    144          1           0       -2.187827   -6.739096   -0.776078
    145          1           0       -1.760963   -5.073755   -0.246527
    146          1           0       -1.688712   -5.467537   -1.888281
    147          1           0       -4.668050   -6.524986   -3.418613
    148          1           0       -5.028932   -5.152193   -4.448282
    149          1           0       -6.345804   -6.241653   -2.068982
    150          1           0       -7.121178   -5.706011   -3.604136
    151          1           0       -6.593899   -4.512998   -2.334094
    152          1           0       -5.836694    0.388175   -5.987731
    153          1           0       -4.937611   -1.144112   -5.742875
    154          1           0       -4.059866    0.427722   -5.566311
    155          1           0       -5.117956    3.855717   -1.901090
    156          1           0       -8.106443    6.962399   -1.921227
    157          1           0       -8.260741    6.277771   -0.180121
    158          1           0       -9.136215    5.668022   -1.606299
 ---------------------------------------------------------------------
 Rotational constants (GHZ):           0.0206354           0.0113231           0.0100963
 Leave Link  202 at Fri Sep 10 14:42:16 2021, MaxMem= 23488102400 cpu:               0.2 elap:               0.0
 (Enter /sw/apps/gaussian-16.0/g16/l301.exe)
 Standard basis: def2SVP (5D, 7F)
 Ernie: Thresh=  0.10000D-02 Tol=  0.10000D-05 Strict=F.
 There are  1658 symmetry adapted cartesian basis functions of A   symmetry.
 There are  1572 symmetry adapted basis functions of A   symmetry.
  1572 basis functions,  2678 primitive gaussians,  1658 cartesian basis functions
   312 alpha electrons      312 beta electrons
       nuclear repulsion energy     14928.2765010002 Hartrees.
 IExCor=20419 DFT=T Ex+Corr=CAM-B3LYP ExCW=0 ScaHFX=  1.000000
 ScaDFX=  1.000000  1.000000  1.000000  0.810000 ScalE2=  1.000000  1.000000
 IRadAn=      5 IRanWt=     -1 IRanGd=            0 ICorTp=0 IEmpDi=  4
 HFx  wShort=  0.000000 wLong=  0.330000 cFull=  0.190000 cShort=  0.000000 cLong=  0.460000
 DFx  wShort=  0.000000 wLong=  0.330000 cFull=  0.190000 cShort=  0.000000 cLong=  0.460000
 NAtoms=  158 NActive=  158 NUniq=  158 SFac= 1.00D+00 NAtFMM=   60 NAOKFM=T Big=T
 Integral buffers will be    131072 words long.
 Raffenetti 1 integral format.
 Two-electron integral symmetry is turned on.
 Leave Link  301 at Fri Sep 10 14:42:16 2021, MaxMem= 23488102400 cpu:               1.4 elap:               0.1
 (Enter /sw/apps/gaussian-16.0/g16/l302.exe)
 NPDir=0 NMtPBC=     1 NCelOv=     1 NCel=       1 NClECP=     1 NCelD=      1
         NCelK=      1 NCelE2=     1 NClLst=     1 CellRange=     0.0.
 One-electron integrals computed using PRISM.
 One-electron integral symmetry used in STVInt
   1 Symmetry operations used in ECPInt.
 ECPInt:  NShTT=  271216 NPrTT=  987664 LenC2=  137415 LenP2D=  286451.
 LDataN:  DoStor=T MaxTD1= 4 Len=   56
 NBasis=  1572 RedAO= T EigKep=  3.36D-04  NBF=  1572
 NBsUse=  1572 1.00D-06 EigRej= -1.00D+00 NBFU=  1572
 Precomputing XC quadrature grid using
 IXCGrd= 4 IRadAn=           5 IRanWt=          -1 IRanGd=           0 AccXCQ= 0.00D+00.
 Generated NRdTot=       0 NPtTot=           0 NUsed=           0 NTot=          32
 NSgBfM=  1114  1087  1097  1101  1114 MxSgAt=   158 MxSgA2=   156.
 Leave Link  302 at Fri Sep 10 14:42:22 2021, MaxMem= 23488102400 cpu:             122.1 elap:               5.1
 (Enter /sw/apps/gaussian-16.0/g16/l303.exe)
 DipDrv:  MaxL=1.
 Leave Link  303 at Fri Sep 10 14:42:22 2021, MaxMem= 23488102400 cpu:               9.3 elap:               0.4
 (Enter /sw/apps/gaussian-16.0/g16/l308.exe)
 Leave Link  308 at Fri Sep 10 14:42:23 2021, MaxMem= 23488102400 cpu:              12.7 elap:               0.6
 (Enter /sw/apps/gaussian-16.0/g16/l401.exe)
 ExpMin= 3.36D-02 ExpMax= 4.95D+03 ExpMxC= 7.45D+02 IAcc=3 IRadAn=         5 AccDes= 0.00D+00
 Harris functional with IExCor=20419 and IRadAn=       5 diagonalized for initial guess.
 HarFok:  IExCor=20419 AccDes= 0.00D+00 IRadAn=         5 IDoV= 1 UseB2=F ITyADJ=14
 ICtDFT=  3500011 ScaDFX=  1.000000  1.000000  1.000000  1.000000
 FoFCou: FMM=F IPFlag=           0 FMFlag=      100000 FMFlg1=        2001
         NFxFlg=           0 DoJE=T BraDBF=F KetDBF=T FulRan=T
         wScrn=  0.000000 ICntrl=       500 IOpCl=  0 I1Cent=   200000004 NGrid=           0
         NMat0=    1 NMatS0=      1 NMatT0=    0 NMatD0=    1 NMtDS0=    0 NMtDT0=    0
 Petite list used in FoFCou.
 Harris En= -3918.65800788709    
 JPrj=0 DoOrth=F DoCkMO=F.
 Leave Link  401 at Fri Sep 10 14:42:30 2021, MaxMem= 23488102400 cpu:             173.9 elap:               7.3
 (Enter /sw/apps/gaussian-16.0/g16/l502.exe)
 Integral symmetry usage will be decided dynamically.
 Closed shell SCF:
 Using DIIS extrapolation, IDIIS=  1040.
 NGot= 23488102400 LenX= 23482547354 LenY= 23479796732
 Requested convergence on RMS density matrix=1.00D-08 within 128 cycles.
 Requested convergence on MAX density matrix=1.00D-06.
 Requested convergence on             energy=1.00D-06.
 No special actions if energy rises.
 Fock matrices will be formed incrementally for  20 cycles.

 Cycle   1  Pass 1  IDiag  1:
 FoFJK:  IHMeth= 1 ICntrl=       0 DoSepK=T KAlg= 0 I1Cent=           0 FoldK=F
 IRaf=         1 NMat=       1 IRICut=       1 DoRegI=T DoRafI=F ISym2E= 0 IDoP0=0 IntGTp=1.
 FoFCou: FMM=T IPFlag=           0 FMFlag=      100000 FMFlg1=        2001
         NFxFlg=           0 DoJE=T BraDBF=F KetDBF=F FulRan=T
         wScrn=  0.000000 ICntrl=       500 IOpCl=  0 I1Cent=           0 NGrid=           0
         NMat0=    1 NMatS0=      1 NMatT0=    0 NMatD0=    1 NMtDS0=    0 NMtDT0=    0
 Symmetry not used in FoFCou.
 FMM levels:  10  Number of levels for PrismC:   9
 E= -4068.94967645729    
 DIIS: error= 2.04D-02 at cycle   1 NSaved=   1.
 NSaved= 1 IEnMin= 1 EnMin= -4068.94967645729     IErMin= 1 ErrMin= 2.04D-02
 ErrMax= 2.04D-02  0.00D+00 EMaxC= 1.00D-01 BMatC= 1.69D+00 BMatP= 1.69D+00
 IDIUse=3 WtCom= 7.96D-01 WtEn= 2.04D-01
 Coeff-Com:  0.100D+01
 Coeff-En:   0.100D+01
 Coeff:      0.100D+01
 Gap=     0.120 Goal=   None    Shift=    0.000
 GapD=    0.120 DampG=1.000 DampE=0.500 DampFc=0.5000 IDamp=-1.
 Damping current iteration by 5.00D-01
 RMSDP=1.57D-03 MaxDP=1.35D-01              OVMax= 2.02D-01

 Cycle   2  Pass 1  IDiag  1:
 RMSU=  7.69D-04    CP:  9.82D-01
 E= -4069.33864857313     Delta-E=       -0.388972115838 Rises=F Damp=T
 DIIS: error= 1.27D-02 at cycle   2 NSaved=   2.
 NSaved= 2 IEnMin= 2 EnMin= -4069.33864857313     IErMin= 2 ErrMin= 1.27D-02
 ErrMax= 1.27D-02  0.00D+00 EMaxC= 1.00D-01 BMatC= 3.07D-01 BMatP= 1.69D+00
 IDIUse=3 WtCom= 8.73D-01 WtEn= 1.27D-01
 Coeff-Com: -0.213D+00 0.121D+01
 Coeff-En:   0.000D+00 0.100D+01
 Coeff:     -0.186D+00 0.119D+01
 Gap=     0.135 Goal=   None    Shift=    0.000
 RMSDP=7.64D-04 MaxDP=9.43D-02 DE=-3.89D-01 OVMax= 1.88D-01

 Cycle   3  Pass 1  IDiag  1:
 RMSU=  7.31D-04    CP:  9.68D-01  1.24D+00
 E= -4069.62921475257     Delta-E=       -0.290566179439 Rises=F Damp=F
 DIIS: error= 1.57D-02 at cycle   3 NSaved=   3.
 NSaved= 3 IEnMin= 3 EnMin= -4069.62921475257     IErMin= 2 ErrMin= 1.27D-02
 ErrMax= 1.57D-02  0.00D+00 EMaxC= 1.00D-01 BMatC= 2.01D-01 BMatP= 3.07D-01
 IDIUse=3 WtCom= 8.43D-01 WtEn= 1.57D-01
 Coeff-Com: -0.267D+00 0.651D+00 0.616D+00
 Coeff-En:   0.000D+00 0.000D+00 0.100D+01
 Coeff:     -0.225D+00 0.549D+00 0.676D+00
 Gap=     0.122 Goal=   None    Shift=    0.000
 RMSDP=5.05D-04 MaxDP=4.88D-02 DE=-2.91D-01 OVMax= 1.41D-01

 Cycle   4  Pass 1  IDiag  1:
 RMSU=  2.63D-04    CP:  9.65D-01  1.55D+00  5.08D-01
 E= -4069.76615963571     Delta-E=       -0.136944883146 Rises=F Damp=F
 DIIS: error= 7.28D-03 at cycle   4 NSaved=   4.
 NSaved= 4 IEnMin= 4 EnMin= -4069.76615963571     IErMin= 4 ErrMin= 7.28D-03
 ErrMax= 7.28D-03  0.00D+00 EMaxC= 1.00D-01 BMatC= 4.98D-02 BMatP= 2.01D-01
 IDIUse=3 WtCom= 9.27D-01 WtEn= 7.28D-02
 Coeff-Com: -0.108D+00 0.225D+00 0.408D+00 0.476D+00
 Coeff-En:   0.000D+00 0.000D+00 0.218D+00 0.782D+00
 Coeff:     -0.100D+00 0.208D+00 0.394D+00 0.498D+00
 Gap=     0.121 Goal=   None    Shift=    0.000
 RMSDP=1.96D-04 MaxDP=2.07D-02 DE=-1.37D-01 OVMax= 6.01D-02

 Cycle   5  Pass 1  IDiag  1:
 RMSU=  7.45D-05    CP:  9.64D-01  1.49D+00  6.89D-01  5.55D-01
 E= -4069.81072391796     Delta-E=       -0.044564282245 Rises=F Damp=F
 DIIS: error= 8.23D-04 at cycle   5 NSaved=   5.
 NSaved= 5 IEnMin= 5 EnMin= -4069.81072391796     IErMin= 5 ErrMin= 8.23D-04
 ErrMax= 8.23D-04  0.00D+00 EMaxC= 1.00D-01 BMatC= 1.10D-03 BMatP= 4.98D-02
 IDIUse=3 WtCom= 9.92D-01 WtEn= 8.23D-03
 Coeff-Com: -0.348D-01 0.683D-01 0.162D+00 0.246D+00 0.559D+00
 Coeff-En:   0.000D+00 0.000D+00 0.000D+00 0.000D+00 0.100D+01
 Coeff:     -0.346D-01 0.677D-01 0.160D+00 0.244D+00 0.562D+00
 Gap=     0.120 Goal=   None    Shift=    0.000
 RMSDP=3.89D-05 MaxDP=4.23D-03 DE=-4.46D-02 OVMax= 1.62D-02

 Cycle   6  Pass 1  IDiag  1:
 RMSU=  2.93D-05    CP:  9.64D-01  1.49D+00  6.82D-01  6.24D-01  7.72D-01
 E= -4069.81164993154     Delta-E=       -0.000926013585 Rises=F Damp=F
 DIIS: error= 2.44D-04 at cycle   6 NSaved=   6.
 NSaved= 6 IEnMin= 6 EnMin= -4069.81164993154     IErMin= 6 ErrMin= 2.44D-04
 ErrMax= 2.44D-04  0.00D+00 EMaxC= 1.00D-01 BMatC= 1.67D-04 BMatP= 1.10D-03
 IDIUse=3 WtCom= 9.98D-01 WtEn= 2.44D-03
 Coeff-Com:  0.247D-02-0.707D-02 0.989D-02 0.384D-01 0.308D+00 0.649D+00
 Coeff-En:   0.000D+00 0.000D+00 0.000D+00 0.000D+00 0.967D-01 0.903D+00
 Coeff:      0.247D-02-0.705D-02 0.987D-02 0.383D-01 0.307D+00 0.649D+00
 Gap=     0.121 Goal=   None    Shift=    0.000
 RMSDP=1.51D-05 MaxDP=1.33D-03 DE=-9.26D-04 OVMax= 7.36D-03

 Cycle   7  Pass 1  IDiag  1:
 RMSU=  1.03D-05    CP:  9.64D-01  1.50D+00  6.88D-01  6.24D-01  8.68D-01
                    CP:  7.55D-01
 E= -4069.81182519952     Delta-E=       -0.000175267975 Rises=F Damp=F
 DIIS: error= 9.19D-05 at cycle   7 NSaved=   7.
 NSaved= 7 IEnMin= 7 EnMin= -4069.81182519952     IErMin= 7 ErrMin= 9.19D-05
 ErrMax= 9.19D-05  0.00D+00 EMaxC= 1.00D-01 BMatC= 1.86D-05 BMatP= 1.67D-04
 IDIUse=1 WtCom= 1.00D+00 WtEn= 0.00D+00
 Coeff-Com:  0.438D-02-0.956D-02-0.907D-02-0.436D-02 0.984D-01 0.323D+00
 Coeff-Com:  0.598D+00
 Coeff:      0.438D-02-0.956D-02-0.907D-02-0.436D-02 0.984D-01 0.323D+00
 Coeff:      0.598D+00
 Gap=     0.121 Goal=   None    Shift=    0.000
 RMSDP=6.28D-06 MaxDP=1.23D-03 DE=-1.75D-04 OVMax= 3.70D-03

 Cycle   8  Pass 1  IDiag  1:
 RMSU=  4.56D-06    CP:  9.64D-01  1.50D+00  6.88D-01  6.29D-01  8.74D-01
                    CP:  8.81D-01  8.37D-01
 E= -4069.81184818749     Delta-E=       -0.000022987973 Rises=F Damp=F
 DIIS: error= 4.94D-05 at cycle   8 NSaved=   8.
 NSaved= 8 IEnMin= 8 EnMin= -4069.81184818749     IErMin= 8 ErrMin= 4.94D-05
 ErrMax= 4.94D-05  0.00D+00 EMaxC= 1.00D-01 BMatC= 4.49D-06 BMatP= 1.86D-05
 IDIUse=1 WtCom= 1.00D+00 WtEn= 0.00D+00
 Coeff-Com:  0.210D-02-0.414D-02-0.764D-02-0.121D-01-0.136D-01 0.335D-01
 Coeff-Com:  0.350D+00 0.651D+00
 Coeff:      0.210D-02-0.414D-02-0.764D-02-0.121D-01-0.136D-01 0.335D-01
 Coeff:      0.350D+00 0.651D+00
 Gap=     0.121 Goal=   None    Shift=    0.000
 RMSDP=3.23D-06 MaxDP=4.48D-04 DE=-2.30D-05 OVMax= 1.27D-03

 Cycle   9  Pass 1  IDiag  1:
 RMSU=  1.90D-06    CP:  9.64D-01  1.50D+00  6.89D-01  6.30D-01  8.91D-01
                    CP:  9.06D-01  1.04D+00  9.17D-01
 E= -4069.81185538463     Delta-E=       -0.000007197137 Rises=F Damp=F
 DIIS: error= 2.16D-05 at cycle   9 NSaved=   9.
 NSaved= 9 IEnMin= 9 EnMin= -4069.81185538463     IErMin= 9 ErrMin= 2.16D-05
 ErrMax= 2.16D-05  0.00D+00 EMaxC= 1.00D-01 BMatC= 6.73D-07 BMatP= 4.49D-06
 IDIUse=1 WtCom= 1.00D+00 WtEn= 0.00D+00
 Coeff-Com:  0.464D-03-0.773D-03-0.266D-02-0.598D-02-0.221D-01-0.363D-01
 Coeff-Com:  0.107D+00 0.334D+00 0.626D+00
 Coeff:      0.464D-03-0.773D-03-0.266D-02-0.598D-02-0.221D-01-0.363D-01
 Coeff:      0.107D+00 0.334D+00 0.626D+00
 Gap=     0.121 Goal=   None    Shift=    0.000
 RMSDP=1.38D-06 MaxDP=1.72D-04 DE=-7.20D-06 OVMax= 8.05D-04

 Cycle  10  Pass 1  IDiag  1:
 RMSU=  9.28D-07    CP:  9.64D-01  1.50D+00  6.89D-01  6.31D-01  8.94D-01
                    CP:  9.20D-01  1.08D+00  1.09D+00  1.03D+00
 E= -4069.81185689803     Delta-E=       -0.000001513399 Rises=F Damp=F
 DIIS: error= 1.10D-05 at cycle  10 NSaved=  10.
 NSaved=10 IEnMin=10 EnMin= -4069.81185689803     IErMin=10 ErrMin= 1.10D-05
 ErrMax= 1.10D-05  0.00D+00 EMaxC= 1.00D-01 BMatC= 1.57D-07 BMatP= 6.73D-07
 IDIUse=1 WtCom= 1.00D+00 WtEn= 0.00D+00
 Coeff-Com: -0.417D-03 0.874D-03 0.120D-02 0.109D-02-0.416D-02-0.302D-01
 Coeff-Com: -0.495D-01-0.671D-01 0.258D+00 0.890D+00
 Coeff:     -0.417D-03 0.874D-03 0.120D-02 0.109D-02-0.416D-02-0.302D-01
 Coeff:     -0.495D-01-0.671D-01 0.258D+00 0.890D+00
 Gap=     0.121 Goal=   None    Shift=    0.000
 RMSDP=1.20D-06 MaxDP=1.53D-04 DE=-1.51D-06 OVMax= 6.20D-04

 Cycle  11  Pass 1  IDiag  1:
 RMSU=  5.19D-07    CP:  9.64D-01  1.50D+00  6.89D-01  6.31D-01  8.96D-01
                    CP:  9.31D-01  1.13D+00  1.19D+00  1.36D+00  1.34D+00
 E= -4069.81185763872     Delta-E=       -0.000000740692 Rises=F Damp=F
 DIIS: error= 4.18D-06 at cycle  11 NSaved=  11.
 NSaved=11 IEnMin=11 EnMin= -4069.81185763872     IErMin=11 ErrMin= 4.18D-06
 ErrMax= 4.18D-06  0.00D+00 EMaxC= 1.00D-01 BMatC= 5.82D-08 BMatP= 1.57D-07
 IDIUse=1 WtCom= 1.00D+00 WtEn= 0.00D+00
 Coeff-Com: -0.330D-03 0.643D-03 0.133D-02 0.212D-02 0.412D-02-0.882D-02
 Coeff-Com: -0.479D-01-0.128D+00-0.172D-01 0.479D+00 0.715D+00
 Coeff:     -0.330D-03 0.643D-03 0.133D-02 0.212D-02 0.412D-02-0.882D-02
 Coeff:     -0.479D-01-0.128D+00-0.172D-01 0.479D+00 0.715D+00
 Gap=     0.121 Goal=   None    Shift=    0.000
 RMSDP=6.55D-07 MaxDP=5.51D-05 DE=-7.41D-07 OVMax= 3.36D-04

 Cycle  12  Pass 1  IDiag  1:
 RMSU=  2.63D-07    CP:  9.64D-01  1.50D+00  6.89D-01  6.31D-01  8.97D-01
                    CP:  9.33D-01  1.15D+00  1.26D+00  1.52D+00  1.72D+00
                    CP:  1.17D+00
 E= -4069.81185788473     Delta-E=       -0.000000246007 Rises=F Damp=F
 DIIS: error= 3.38D-06 at cycle  12 NSaved=  12.
 NSaved=12 IEnMin=12 EnMin= -4069.81185788473     IErMin=12 ErrMin= 3.38D-06
 ErrMax= 3.38D-06  0.00D+00 EMaxC= 1.00D-01 BMatC= 1.28D-08 BMatP= 5.82D-08
 IDIUse=1 WtCom= 1.00D+00 WtEn= 0.00D+00
 Coeff-Com: -0.117D-04 0.668D-05 0.219D-03 0.579D-03 0.331D-02 0.387D-02
 Coeff-Com: -0.933D-04-0.377D-01-0.708D-01-0.474D-01 0.250D+00 0.898D+00
 Coeff:     -0.117D-04 0.668D-05 0.219D-03 0.579D-03 0.331D-02 0.387D-02
 Coeff:     -0.933D-04-0.377D-01-0.708D-01-0.474D-01 0.250D+00 0.898D+00
 Gap=     0.121 Goal=   None    Shift=    0.000
 RMSDP=4.29D-07 MaxDP=2.82D-05 DE=-2.46D-07 OVMax= 2.93D-04

 Cycle  13  Pass 1  IDiag  1:
 RMSU=  1.72D-07    CP:  9.64D-01  1.50D+00  6.89D-01  6.31D-01  8.97D-01
                    CP:  9.34D-01  1.16D+00  1.28D+00  1.63D+00  1.93D+00
                    CP:  1.58D+00  1.22D+00
 E= -4069.81185797052     Delta-E=       -0.000000085787 Rises=F Damp=F
 DIIS: error= 2.34D-06 at cycle  13 NSaved=  13.
 NSaved=13 IEnMin=13 EnMin= -4069.81185797052     IErMin=13 ErrMin= 2.34D-06
 ErrMax= 2.34D-06  0.00D+00 EMaxC= 1.00D-01 BMatC= 9.15D-09 BMatP= 1.28D-08
 IDIUse=1 WtCom= 1.00D+00 WtEn= 0.00D+00
 Coeff-Com:  0.116D-03-0.237D-03-0.347D-03-0.411D-03 0.695D-03 0.534D-02
 Coeff-Com:  0.196D-01 0.204D-01-0.413D-01-0.229D+00-0.156D+00 0.647D+00
 Coeff-Com:  0.734D+00
 Coeff:      0.116D-03-0.237D-03-0.347D-03-0.411D-03 0.695D-03 0.534D-02
 Coeff:      0.196D-01 0.204D-01-0.413D-01-0.229D+00-0.156D+00 0.647D+00
 Coeff:      0.734D+00
 Gap=     0.121 Goal=   None    Shift=    0.000
 RMSDP=3.20D-07 MaxDP=2.03D-05 DE=-8.58D-08 OVMax= 1.67D-04

 Cycle  14  Pass 1  IDiag  1:
 RMSU=  8.16D-08    CP:  9.64D-01  1.50D+00  6.89D-01  6.31D-01  8.98D-01
                    CP:  9.34D-01  1.17D+00  1.31D+00  1.70D+00  2.12D+00
                    CP:  1.81D+00  1.74D+00  1.04D+00
 E= -4069.81185800697     Delta-E=       -0.000000036456 Rises=F Damp=F
 DIIS: error= 1.25D-06 at cycle  14 NSaved=  14.
 NSaved=14 IEnMin=14 EnMin= -4069.81185800697     IErMin=14 ErrMin= 1.25D-06
 ErrMax= 1.25D-06  0.00D+00 EMaxC= 1.00D-01 BMatC= 1.20D-09 BMatP= 9.15D-09
 IDIUse=1 WtCom= 1.00D+00 WtEn= 0.00D+00
 Coeff-Com:  0.707D-04-0.140D-03-0.259D-03-0.401D-03-0.475D-03 0.167D-02
 Coeff-Com:  0.119D-01 0.201D-01-0.910D-03-0.107D+00-0.160D+00 0.141D+00
 Coeff-Com:  0.365D+00 0.729D+00
 Coeff:      0.707D-04-0.140D-03-0.259D-03-0.401D-03-0.475D-03 0.167D-02
 Coeff:      0.119D-01 0.201D-01-0.910D-03-0.107D+00-0.160D+00 0.141D+00
 Coeff:      0.365D+00 0.729D+00
 Gap=     0.121 Goal=   None    Shift=    0.000
 RMSDP=1.17D-07 MaxDP=7.92D-06 DE=-3.65D-08 OVMax= 8.25D-05

 Cycle  15  Pass 1  IDiag  1:
 RMSU=  4.00D-08    CP:  9.64D-01  1.50D+00  6.89D-01  6.31D-01  8.98D-01
                    CP:  9.34D-01  1.17D+00  1.31D+00  1.72D+00  2.17D+00
                    CP:  1.92D+00  1.90D+00  1.27D+00  1.01D+00
 E= -4069.81185801197     Delta-E=       -0.000000004995 Rises=F Damp=F
 DIIS: error= 5.49D-07 at cycle  15 NSaved=  15.
 NSaved=15 IEnMin=15 EnMin= -4069.81185801197     IErMin=15 ErrMin= 5.49D-07
 ErrMax= 5.49D-07  0.00D+00 EMaxC= 1.00D-01 BMatC= 3.27D-10 BMatP= 1.20D-09
 IDIUse=1 WtCom= 1.00D+00 WtEn= 0.00D+00
 Coeff-Com:  0.123D-04-0.226D-04-0.584D-04-0.122D-03-0.367D-03-0.341D-03
 Coeff-Com:  0.229D-02 0.499D-02 0.861D-02-0.557D-02-0.501D-01-0.456D-01
 Coeff-Com:  0.188D-01 0.380D+00 0.687D+00
 Coeff:      0.123D-04-0.226D-04-0.584D-04-0.122D-03-0.367D-03-0.341D-03
 Coeff:      0.229D-02 0.499D-02 0.861D-02-0.557D-02-0.501D-01-0.456D-01
 Coeff:      0.188D-01 0.380D+00 0.687D+00
 Gap=     0.121 Goal=   None    Shift=    0.000
 RMSDP=3.91D-08 MaxDP=3.25D-06 DE=-4.99D-09 OVMax= 2.04D-05

 Cycle  16  Pass 1  IDiag  1:
 RMSU=  1.95D-08    CP:  9.64D-01  1.50D+00  6.89D-01  6.31D-01  8.98D-01
                    CP:  9.34D-01  1.17D+00  1.31D+00  1.72D+00  2.18D+00
                    CP:  1.95D+00  1.96D+00  1.34D+00  1.23D+00  1.12D+00
 E= -4069.81185801266     Delta-E=       -0.000000000695 Rises=F Damp=F
 DIIS: error= 1.82D-07 at cycle  16 NSaved=  16.
 NSaved=16 IEnMin=16 EnMin= -4069.81185801266     IErMin=16 ErrMin= 1.82D-07
 ErrMax= 1.82D-07  0.00D+00 EMaxC= 1.00D-01 BMatC= 7.99D-11 BMatP= 3.27D-10
 IDIUse=1 WtCom= 1.00D+00 WtEn= 0.00D+00
 Coeff-Com: -0.132D-04 0.269D-04 0.427D-04 0.460D-04-0.519D-04-0.642D-03
 Coeff-Com: -0.196D-02-0.369D-02 0.489D-02 0.251D-01 0.152D-01-0.567D-01
 Coeff-Com: -0.101D+00 0.175D-01 0.325D+00 0.777D+00
 Coeff:     -0.132D-04 0.269D-04 0.427D-04 0.460D-04-0.519D-04-0.642D-03
 Coeff:     -0.196D-02-0.369D-02 0.489D-02 0.251D-01 0.152D-01-0.567D-01
 Coeff:     -0.101D+00 0.175D-01 0.325D+00 0.777D+00
 Gap=     0.121 Goal=   None    Shift=    0.000
 RMSDP=2.68D-08 MaxDP=2.18D-06 DE=-6.95D-10 OVMax= 1.83D-05

 Cycle  17  Pass 1  IDiag  1:
 RMSU=  1.25D-08    CP:  9.64D-01  1.50D+00  6.89D-01  6.31D-01  8.98D-01
                    CP:  9.34D-01  1.17D+00  1.31D+00  1.72D+00  2.19D+00
                    CP:  1.96D+00  2.00D+00  1.39D+00  1.32D+00  1.43D+00
                    CP:  1.18D+00
 E= -4069.81185801320     Delta-E=       -0.000000000542 Rises=F Damp=F
 DIIS: error= 1.04D-07 at cycle  17 NSaved=  17.
 NSaved=17 IEnMin=17 EnMin= -4069.81185801320     IErMin=17 ErrMin= 1.04D-07
 ErrMax= 1.04D-07  0.00D+00 EMaxC= 1.00D-01 BMatC= 2.67D-11 BMatP= 7.99D-11
 IDIUse=1 WtCom= 1.00D+00 WtEn= 0.00D+00
 Coeff-Com: -0.943D-05 0.185D-04 0.360D-04 0.517D-04 0.775D-04-0.227D-03
 Coeff-Com: -0.141D-02-0.332D-02 0.839D-03 0.140D-01 0.199D-01-0.123D-01
 Coeff-Com: -0.588D-01-0.807D-01-0.557D-01 0.398D+00 0.779D+00
 Coeff:     -0.943D-05 0.185D-04 0.360D-04 0.517D-04 0.775D-04-0.227D-03
 Coeff:     -0.141D-02-0.332D-02 0.839D-03 0.140D-01 0.199D-01-0.123D-01
 Coeff:     -0.588D-01-0.807D-01-0.557D-01 0.398D+00 0.779D+00
 Gap=     0.121 Goal=   None    Shift=    0.000
 RMSDP=1.47D-08 MaxDP=9.55D-07 DE=-5.42D-10 OVMax= 8.17D-06

 Cycle  18  Pass 1  IDiag  1:
 RMSU=  5.69D-09    CP:  9.64D-01  1.50D+00  6.89D-01  6.31D-01  8.98D-01
                    CP:  9.34D-01  1.17D+00  1.31D+00  1.72D+00  2.19D+00
                    CP:  1.97D+00  2.01D+00  1.41D+00  1.40D+00  1.60D+00
                    CP:  1.58D+00  1.30D+00
 E= -4069.81185801331     Delta-E=       -0.000000000102 Rises=F Damp=F
 DIIS: error= 8.20D-08 at cycle  18 NSaved=  18.
 NSaved=18 IEnMin=18 EnMin= -4069.81185801331     IErMin=18 ErrMin= 8.20D-08
 ErrMax= 8.20D-08  0.00D+00 EMaxC= 1.00D-01 BMatC= 7.48D-12 BMatP= 2.67D-11
 IDIUse=1 WtCom= 1.00D+00 WtEn= 0.00D+00
 Coeff-Com:  0.555D-07-0.481D-06 0.289D-05 0.879D-05 0.703D-04 0.133D-03
 Coeff-Com:  0.917D-04-0.468D-03-0.122D-02-0.293D-02 0.336D-02 0.174D-01
 Coeff-Com:  0.544D-02-0.377D-01-0.160D+00-0.624D-01 0.341D+00 0.897D+00
 Coeff:      0.555D-07-0.481D-06 0.289D-05 0.879D-05 0.703D-04 0.133D-03
 Coeff:      0.917D-04-0.468D-03-0.122D-02-0.293D-02 0.336D-02 0.174D-01
 Coeff:      0.544D-02-0.377D-01-0.160D+00-0.624D-01 0.341D+00 0.897D+00
 Gap=     0.121 Goal=   None    Shift=    0.000
 RMSDP=1.10D-08 MaxDP=8.29D-07 DE=-1.02D-10 OVMax= 6.86D-06

 Cycle  19  Pass 1  IDiag  1:
 RMSU=  3.28D-09    CP:  9.64D-01  1.50D+00  6.89D-01  6.31D-01  8.98D-01
                    CP:  9.34D-01  1.17D+00  1.31D+00  1.72D+00  2.19D+00
                    CP:  1.97D+00  2.01D+00  1.42D+00  1.43D+00  1.73D+00
                    CP:  1.84D+00  1.80D+00  1.22D+00
 E= -4069.81185801332     Delta-E=       -0.000000000018 Rises=F Damp=F
 DIIS: error= 3.12D-08 at cycle  19 NSaved=  19.
 NSaved=19 IEnMin=19 EnMin= -4069.81185801332     IErMin=19 ErrMin= 3.12D-08
 ErrMax= 3.12D-08  0.00D+00 EMaxC= 1.00D-01 BMatC= 3.14D-12 BMatP= 7.48D-12
 IDIUse=1 WtCom= 1.00D+00 WtEn= 0.00D+00
 Coeff-Com:  0.344D-05-0.699D-05-0.114D-04-0.136D-04 0.198D-04 0.162D-03
 Coeff-Com:  0.594D-03 0.900D-03-0.949D-03-0.711D-02-0.552D-02 0.160D-01
 Coeff-Com:  0.242D-01 0.888D-02-0.878D-01-0.192D+00-0.110D+00 0.561D+00
 Coeff-Com:  0.792D+00
 Coeff:      0.344D-05-0.699D-05-0.114D-04-0.136D-04 0.198D-04 0.162D-03
 Coeff:      0.594D-03 0.900D-03-0.949D-03-0.711D-02-0.552D-02 0.160D-01
 Coeff:      0.242D-01 0.888D-02-0.878D-01-0.192D+00-0.110D+00 0.561D+00
 Coeff:      0.792D+00
 Gap=     0.121 Goal=   None    Shift=    0.000
 RMSDP=7.54D-09 MaxDP=5.01D-07 DE=-1.82D-11 OVMax= 4.33D-06

 SCF Done:  E(RCAM-B3LYP) =  -4069.81185801     A.U. after   19 cycles
            NFock= 19  Conv=0.75D-08     -V/T= 2.0102
 KE= 4.028801720058D+03 PE=-3.933759944509D+04 EE= 1.631070936602D+04
 Leave Link  502 at Fri Sep 10 14:52:19 2021, MaxMem= 23488102400 cpu:           13529.1 elap:             589.0
 (Enter /sw/apps/gaussian-16.0/g16/l801.exe)
 DoSCS=F DFT=T ScalE2(SS,OS)=  1.000000  1.000000
 ExpMin= 3.36D-02 ExpMax= 4.95D+03 ExpMxC= 7.45D+02 IAcc=3 IRadAn=         5 AccDes= 0.00D+00
 HarFok:  IExCor=  205 AccDes= 0.00D+00 IRadAn=         5 IDoV=-2 UseB2=F ITyADJ=14
 ICtDFT= 12500011 ScaDFX=  1.000000  1.000000  1.000000  1.000000
 GSVD:  LWork=       -9588 too small for GESVD, short by       45590 words or       45590 for optimal perf.
 Largest valence mixing into a core orbital is  2.03D-04
 Largest core mixing into a valence orbital is  5.25D-05
 Range of M.O.s used for correlation:    95  1572
 NBasis=  1572 NAE=   312 NBE=   312 NFC=    94 NFV=     0
 NROrb=   1478 NOA=   218 NOB=   218 NVA=  1260 NVB=  1260
 Leave Link  801 at Fri Sep 10 14:52:19 2021, MaxMem= 23488102400 cpu:               7.7 elap:               0.3
 (Enter /sw/apps/gaussian-16.0/g16/l914.exe)
 RHF ground state
 Two-electron integrals replicated using symmetry.
 MDV= 23488102400 DFT=T DoStab=F Mixed=T DoRPA=T DoScal=F NonHer=T
 Making orbital integer symmetry assigments:
 Orbital symmetries:
       Occupied  (A) (A) (A) (A) (A) (A) (A) (A) (A) (A) (A) (A)
                 (A) (A) (A) (A) (A) (A) (A) (A) (A) (A) (A) (A)
                 (A) (A) (A) (A) (A) (A) (A) (A) (A) (A) (A) (A)
                 (A) (A) (A) (A) (A) (A) (A) (A) (A) (A) (A) (A)
                 (A) (A) (A) (A) (A) (A) (A) (A) (A) (A) (A) (A)
                 (A) (A) (A) (A) (A) (A) (A) (A) (A) (A) (A) (A)
                 (A) (A) (A) (A) (A) (A) (A) (A) (A) (A) (A) (A)
                 (A) (A) (A) (A) (A) (A) (A) (A) (A) (A) (A) (A)
                 (A) (A) (A) (A) (A) (A) (A) (A) (A) (A) (A) (A)
                 (A) (A) (A) (A) (A) (A) (A) (A) (A) (A) (A) (A)
                 (A) (A) (A) (A) (A) (A) (A) (A) (A) (A) (A) (A)
                 (A) (A) (A) (A) (A) (A) (A) (A) (A) (A) (A) (A)
                 (A) (A) (A) (A) (A) (A) (A) (A) (A) (A) (A) (A)
                 (A) (A) (A) (A) (A) (A) (A) (A) (A) (A) (A) (A)
                 (A) (A) (A) (A) (A) (A) (A) (A) (A) (A) (A) (A)
                 (A) (A) (A) (A) (A) (A) (A) (A) (A) (A) (A) (A)
                 (A) (A) (A) (A) (A) (A) (A) (A) (A) (A) (A) (A)
                 (A) (A) (A) (A) (A) (A) (A) (A) (A) (A) (A) (A)
                 (A) (A) (A) (A) (A) (A) (A) (A) (A) (A) (A) (A)
                 (A) (A) (A) (A) (A) (A) (A) (A) (A) (A) (A) (A)
                 (A) (A) (A) (A) (A) (A) (A) (A) (A) (A) (A) (A)
                 (A) (A) (A) (A) (A) (A) (A) (A) (A) (A) (A) (A)
                 (A) (A) (A) (A) (A) (A) (A) (A) (A) (A) (A) (A)
                 (A) (A) (A) (A) (A) (A) (A) (A) (A) (A) (A) (A)
                 (A) (A) (A) (A) (A) (A) (A) (A) (A) (A) (A) (A)
                 (A) (A) (A) (A) (A) (A) (A) (A) (A) (A) (A) (A)
       Virtual   (A) (A) (A) (A) (A) (A) (A) (A) (A) (A) (A) (A)
                 (A) (A) (A) (A) (A) (A) (A) (A) (A) (A) (A) (A)
                 (A) (A) (A) (A) (A) (A) (A) (A) (A) (A) (A) (A)
                 (A) (A) (A) (A) (A) (A) (A) (A) (A) (A) (A) (A)
                 (A) (A) (A) (A) (A) (A) (A) (A) (A) (A) (A) (A)
                 (A) (A) (A) (A) (A) (A) (A) (A) (A) (A) (A) (A)
                 (A) (A) (A) (A) (A) (A) (A) (A) (A) (A) (A) (A)
                 (A) (A) (A) (A) (A) (A) (A) (A) (A) (A) (A) (A)
                 (A) (A) (A) (A) (A) (A) (A) (A) (A) (A) (A) (A)
                 (A) (A) (A) (A) (A) (A) (A) (A) (A) (A) (A) (A)
                 (A) (A) (A) (A) (A) (A) (A) (A) (A) (A) (A) (A)
                 (A) (A) (A) (A) (A) (A) (A) (A) (A) (A) (A) (A)
                 (A) (A) (A) (A) (A) (A) (A) (A) (A) (A) (A) (A)
                 (A) (A) (A) (A) (A) (A) (A) (A) (A) (A) (A) (A)
                 (A) (A) (A) (A) (A) (A) (A) (A) (A) (A) (A) (A)
                 (A) (A) (A) (A) (A) (A) (A) (A) (A) (A) (A) (A)
                 (A) (A) (A) (A) (A) (A) (A) (A) (A) (A) (A) (A)
                 (A) (A) (A) (A) (A) (A) (A) (A) (A) (A) (A) (A)
                 (A) (A) (A) (A) (A) (A) (A) (A) (A) (A) (A) (A)
                 (A) (A) (A) (A) (A) (A) (A) (A) (A) (A) (A) (A)
                 (A) (A) (A) (A) (A) (A) (A) (A) (A) (A) (A) (A)
                 (A) (A) (A) (A) (A) (A) (A) (A) (A) (A) (A) (A)
                 (A) (A) (A) (A) (A) (A) (A) (A) (A) (A) (A) (A)
                 (A) (A) (A) (A) (A) (A) (A) (A) (A) (A) (A) (A)
                 (A) (A) (A) (A) (A) (A) (A) (A) (A) (A) (A) (A)
                 (A) (A) (A) (A) (A) (A) (A) (A) (A) (A) (A) (A)
                 (A) (A) (A) (A) (A) (A) (A) (A) (A) (A) (A) (A)
                 (A) (A) (A) (A) (A) (A) (A) (A) (A) (A) (A) (A)
                 (A) (A) (A) (A) (A) (A) (A) (A) (A) (A) (A) (A)
                 (A) (A) (A) (A) (A) (A) (A) (A) (A) (A) (A) (A)
                 (A) (A) (A) (A) (A) (A) (A) (A) (A) (A) (A) (A)
                 (A) (A) (A) (A) (A) (A) (A) (A) (A) (A) (A) (A)
                 (A) (A) (A) (A) (A) (A) (A) (A) (A) (A) (A) (A)
                 (A) (A) (A) (A) (A) (A) (A) (A) (A) (A) (A) (A)
                 (A) (A) (A) (A) (A) (A) (A) (A) (A) (A) (A) (A)
                 (A) (A) (A) (A) (A) (A) (A) (A) (A) (A) (A) (A)
                 (A) (A) (A) (A) (A) (A) (A) (A) (A) (A) (A) (A)
                 (A) (A) (A) (A) (A) (A) (A) (A) (A) (A) (A) (A)
                 (A) (A) (A) (A) (A) (A) (A) (A) (A) (A) (A) (A)
                 (A) (A) (A) (A) (A) (A) (A) (A) (A) (A) (A) (A)
                 (A) (A) (A) (A) (A) (A) (A) (A) (A) (A) (A) (A)
                 (A) (A) (A) (A) (A) (A) (A) (A) (A) (A) (A) (A)
                 (A) (A) (A) (A) (A) (A) (A) (A) (A) (A) (A) (A)
                 (A) (A) (A) (A) (A) (A) (A) (A) (A) (A) (A) (A)
                 (A) (A) (A) (A) (A) (A) (A) (A) (A) (A) (A) (A)
                 (A) (A) (A) (A) (A) (A) (A) (A) (A) (A) (A) (A)
                 (A) (A) (A) (A) (A) (A) (A) (A) (A) (A) (A) (A)
                 (A) (A) (A) (A) (A) (A) (A) (A) (A) (A) (A) (A)
                 (A) (A) (A) (A) (A) (A) (A) (A) (A) (A) (A) (A)
                 (A) (A) (A) (A) (A) (A) (A) (A) (A) (A) (A) (A)
                 (A) (A) (A) (A) (A) (A) (A) (A) (A) (A) (A) (A)
                 (A) (A) (A) (A) (A) (A) (A) (A) (A) (A) (A) (A)
                 (A) (A) (A) (A) (A) (A) (A) (A) (A) (A) (A) (A)
                 (A) (A) (A) (A) (A) (A) (A) (A) (A) (A) (A) (A)
                 (A) (A) (A) (A) (A) (A) (A) (A) (A) (A) (A) (A)
                 (A) (A) (A) (A) (A) (A) (A) (A) (A) (A) (A) (A)
                 (A) (A) (A) (A) (A) (A) (A) (A) (A) (A) (A) (A)
                 (A) (A) (A) (A) (A) (A) (A) (A) (A) (A) (A) (A)
                 (A) (A) (A) (A) (A) (A) (A) (A) (A) (A) (A) (A)
                 (A) (A) (A) (A) (A) (A) (A) (A) (A) (A) (A) (A)
                 (A) (A) (A) (A) (A) (A) (A) (A) (A) (A) (A) (A)
                 (A) (A) (A) (A) (A) (A) (A) (A) (A) (A) (A) (A)
                 (A) (A) (A) (A) (A) (A) (A) (A) (A) (A) (A) (A)
                 (A) (A) (A) (A) (A) (A) (A) (A) (A) (A) (A) (A)
                 (A) (A) (A) (A) (A) (A) (A) (A) (A) (A) (A) (A)
                 (A) (A) (A) (A) (A) (A) (A) (A) (A) (A) (A) (A)
                 (A) (A) (A) (A) (A) (A) (A) (A) (A) (A) (A) (A)
                 (A) (A) (A) (A) (A) (A) (A) (A) (A) (A) (A) (A)
                 (A) (A) (A) (A) (A) (A) (A) (A) (A) (A) (A) (A)
                 (A) (A) (A) (A) (A) (A) (A) (A) (A) (A) (A) (A)
                 (A) (A) (A) (A) (A) (A) (A) (A) (A) (A) (A) (A)
                 (A) (A) (A) (A) (A) (A) (A) (A) (A) (A) (A) (A)
                 (A) (A) (A) (A) (A) (A) (A) (A) (A) (A) (A) (A)
                 (A) (A) (A) (A) (A) (A) (A) (A) (A) (A) (A) (A)
                 (A) (A) (A) (A) (A) (A) (A) (A) (A) (A) (A) (A)
                 (A) (A) (A) (A) (A) (A) (A) (A) (A) (A) (A) (A)
                 (A) (A) (A) (A) (A) (A) (A) (A) (A) (A) (A) (A)
                 (A) (A) (A) (A) (A) (A) (A) (A) (A) (A) (A) (A)
                 (A) (A) (A) (A) (A) (A) (A) (A) (A) (A) (A) (A)
                 (A) (A) (A) (A) (A) (A) (A) (A) (A) (A) (A) (A)
                 (A) (A) (A) (A) (A) (A) (A) (A) (A) (A) (A) (A)
                 (A) (A) (A) (A) (A) (A) (A) (A) (A) (A) (A) (A)
                 (A) (A) (A) (A) (A) (A) (A) (A) (A) (A) (A) (A)
                 (A) (A) (A) (A) (A) (A) (A) (A) (A) (A) (A) (A)
                 (A) (A) (A) (A) (A) (A) (A) (A) (A) (A) (A) (A)
                 (A) (A) (A) (A) (A) (A) (A) (A) (A) (A) (A) (A)
                 (A) (A) (A) (A) (A) (A) (A) (A) (A) (A) (A) (A)
                 (A) (A) (A) (A) (A) (A) (A) (A) (A) (A) (A) (A)
                 (A) (A) (A) (A) (A) (A) (A) (A) (A) (A) (A) (A)
                 (A) (A) (A) (A) (A) (A) (A) (A) (A) (A) (A) (A)
                 (A) (A) (A) (A) (A) (A) (A) (A) (A) (A) (A) (A)
                 (A) (A) (A) (A) (A) (A) (A) (A) (A) (A) (A) (A)
                 (A) (A) (A) (A) (A) (A) (A) (A) (A) (A) (A) (A)
                 (A) (A) (A) (A) (A) (A) (A) (A) (A) (A) (A) (A)
                 (A) (A) (A) (A) (A) (A) (A) (A) (A) (A) (A) (A)
                 (A) (A) (A) (A) (A) (A) (A) (A) (A) (A) (A) (A)
                 (A) (A) (A) (A) (A) (A) (A) (A) (A) (A) (A) (A)
                 (A) (A) (A) (A) (A) (A) (A) (A) (A) (A) (A) (A)
                 (A) (A) (A) (A) (A) (A) (A) (A) (A) (A) (A) (A)
                 (A) (A) (A) (A) (A) (A) (A) (A) (A) (A) (A) (A)
                 (A) (A) (A) (A) (A) (A) (A) (A) (A) (A) (A) (A)
                 (A) (A) (A) (A) (A) (A) (A) (A) (A) (A) (A) (A)
                 (A) (A) (A) (A) (A) (A) (A) (A) (A) (A) (A) (A)
                 (A) (A) (A) (A) (A) (A) (A) (A) (A) (A) (A) (A)
                 (A) (A) (A) (A) (A) (A) (A) (A) (A) (A) (A) (A)
    20 initial guesses have been made.
 Convergence on wavefunction:    0.001000000000000
 Davidson Disk Diagonalization:  ConvIn= 1.00D-03 SkipCon=T Conv= 1.00D-03.
 Max sub-space:  2000 roots to seek:    20 dimension of matrix:       549360
 Iteration     1 Dimension    20 NMult     0 NNew     20
 CISAX will form    20 AO SS matrices at one time.
 NMat=    20 NSing=    20 JSym2X= 0.
 FoFJK:  IHMeth= 1 ICntrl=       0 DoSepK=T KAlg= 0 I1Cent=           0 FoldK=F
 IRaf=         1 NMat=      40 IRICut=       1 DoRegI=T DoRafI=F ISym2E= 0 IDoP0=3 IntGTp=3.
 FoFCou: FMM=T IPFlag=           0 FMFlag=      100000 FMFlg1=        2001
         NFxFlg=           0 DoJE=F BraDBF=F KetDBF=F FulRan=T
         wScrn=  0.000000 ICntrl=       500 IOpCl=  0 I1Cent=           0 NGrid=           0
         NMat0=   20 NMatS0=     20 NMatT0=    0 NMatD0=   20 NMtDS0=    0 NMtDT0=    0
 Symmetry not used in FoFCou.
 FMM levels:  10  Number of levels for PrismC:   9
 New state      2 was old state      6
 New state      3 was old state      7
 New state      5 was old state      2
 Excitation Energies [eV] at current iteration:
 Root      1 :     2.486826831373261
 Root      2 :     2.610219834168553
 Root      3 :     2.620046314843883
 Root      4 :     2.620973065150382
 Root      5 :     2.646277809666526
 Root      6 :     2.725288569337756
 Root      7 :     3.272988179579381
 Root      8 :     3.420057432683057
 Root      9 :     3.635626745353048
 Root     10 :     3.669157194877609
 Root     11 :     3.735158433771600
 Root     12 :     3.756385002249552
 Root     13 :     4.273601621130781
 Root     14 :     4.339453910833175
 Root     15 :     4.386783113795232
 Root     16 :     4.556880940301725
 Root     17 :     4.714995632223310
 Root     18 :     4.749690770445979
 Root     19 :     4.845977471907353
 Root     20 :     4.868279206552479
 Iteration     2 Dimension    30 NMult    20 NNew     10
 CISAX will form    10 AO SS matrices at one time.
 NMat=    10 NSing=    10 JSym2X= 0.
 New state      1 was old state      5
 Root      1 not converged, maximum delta is    0.175701666573992
 Root      2 not converged, maximum delta is    0.173635777334285
 Root      3 not converged, maximum delta is    0.151877431857022
 New state      4 was old state      1
 Root      4 not converged, maximum delta is    0.002469062189538
 New state      5 was old state      4
 Root      5 not converged, maximum delta is    0.004450080721642
 Excitation Energies [eV] at current iteration:
 Root      1 :     1.784408450917813   Change is   -0.861869358748713
 Root      2 :     2.223484086329238   Change is   -0.386735747839315
 Root      3 :     2.238845211457838   Change is   -0.381201103386045
 Root      4 :     2.486410930287720   Change is   -0.000415901085541
 Root      5 :     2.620425904061008   Change is   -0.000547161089374
 Iteration     3 Dimension    40 NMult    30 NNew     10
 CISAX will form    10 AO SS matrices at one time.
 NMat=    10 NSing=    10 JSym2X= 0.
 Root      1 not converged, maximum delta is    0.055458813484372
 Root      2 not converged, maximum delta is    0.203717045369086
 Root      3 not converged, maximum delta is    0.199709648933620
 Root      4 not converged, maximum delta is    0.001568029385420
 No map to state      5
 Excitation Energies [eV] at current iteration:
 Root      1 :     1.678726845608060   Change is   -0.105681605309753
 Root      2 :     2.133964163266032   Change is   -0.089519923063207
 Root      3 :     2.195392368546830   Change is   -0.043452842911008
 Root      4 :     2.486408268194005   Change is   -0.000002662093714
 Root      5 :     2.493820486696056
 Iteration     4 Dimension    50 NMult    40 NNew     10
 CISAX will form    10 AO SS matrices at one time.
 NMat=    10 NSing=    10 JSym2X= 0.
 Root      1 not converged, maximum delta is    0.011303073754235
 New state      2 was old state      5
 Root      2 not converged, maximum delta is    0.332555856020075
 Root      3 not converged, maximum delta is    0.275739662486923
 New state      4 was old state      2
 Root      4 not converged, maximum delta is    0.284406684327349
 New state      5 was old state      4
 Root      5 not converged, maximum delta is    0.001600160736600
 Excitation Energies [eV] at current iteration:
 Root      1 :     1.662069801353265   Change is   -0.016657044254795
 Root      2 :     1.779971440403328   Change is   -0.713849046292728
 Root      3 :     2.185448889605421   Change is   -0.009943478941410
 Root      4 :     2.200927741260212   Change is    0.066963577994181
 Root      5 :     2.486408420180393   Change is    0.000000151986388
 Iteration     5 Dimension    60 NMult    50 NNew     10
 CISAX will form    10 AO SS matrices at one time.
 NMat=    10 NSing=    10 JSym2X= 0.
 Root      1 not converged, maximum delta is    0.003536653609729
 Root      2 not converged, maximum delta is    0.035064819888792
 Root      3 not converged, maximum delta is    0.091827804891958
 Root      4 not converged, maximum delta is    0.089792248631744
 Root      5 has converged.
 Excitation Energies [eV] at current iteration:
 Root      1 :     1.660322655701285   Change is   -0.001747145651980
 Root      2 :     1.704587959290377   Change is   -0.075383481112951
 Root      3 :     2.183678138287306   Change is   -0.001770751318115
 Root      4 :     2.195566278558641   Change is   -0.005361462701571
 Root      5 :     2.486408403018872   Change is   -0.000000017161521
 Iteration     6 Dimension    68 NMult    60 NNew      8
 CISAX will form     8 AO SS matrices at one time.
 NMat=     8 NSing=     8 JSym2X= 0.
 Root      1 not converged, maximum delta is    0.002273921349600
 Root      2 not converged, maximum delta is    0.005735343515622
 Root      3 not converged, maximum delta is    0.012556845009310
 Root      4 not converged, maximum delta is    0.012321964922261
 Root      5 has converged.
 Excitation Energies [eV] at current iteration:
 Root      1 :     1.660071843787468   Change is   -0.000250811913817
 Root      2 :     1.694268712325689   Change is   -0.010319246964688
 Root      3 :     2.183392961173305   Change is   -0.000285177114002
 Root      4 :     2.195034068838190   Change is   -0.000532209720451
 Root      5 :     2.486408402848499   Change is   -0.000000000170373
 Iteration     7 Dimension    76 NMult    68 NNew      8
 CISAX will form     8 AO SS matrices at one time.
 NMat=     8 NSing=     8 JSym2X= 0.
 Root      1 has converged.
 Root      2 not converged, maximum delta is    0.001919989798710
 Root      3 not converged, maximum delta is    0.001358177531484
 Root      4 not converged, maximum delta is    0.001384324546354
 Root      5 has converged.
[...]
 Alpha virt. eigenvalues --    1.84377   1.84645   1.84776   1.84900   1.84996
 Alpha virt. eigenvalues --    1.85223   1.85234   1.85456   1.85471   1.85604
 Alpha virt. eigenvalues --    1.85810   1.86011   1.86287   1.86506   1.86522
 Alpha virt. eigenvalues --    1.86715   1.86771   1.86948   1.86983   1.87139
 Alpha virt. eigenvalues --    1.87380   1.87584   1.87628   1.87807   1.87883
 Alpha virt. eigenvalues --    1.87981   1.88168   1.88292   1.88492   1.88700
 Alpha virt. eigenvalues --    1.88790   1.89034   1.89064   1.89235   1.89591
 Alpha virt. eigenvalues --    1.89711   1.89784   1.89985   1.90075   1.90303
 Alpha virt. eigenvalues --    1.90693   1.91020   1.91287   1.91381   1.91626
 Alpha virt. eigenvalues --    1.91699   1.92100   1.92280   1.92575   1.92767
 Alpha virt. eigenvalues --    1.92925   1.93259   1.93276   1.93650   1.94186
 Alpha virt. eigenvalues --    1.94436   1.94636   1.94971   1.95372   1.95675
 Alpha virt. eigenvalues --    1.95772   1.95915   1.95941   1.96060   1.96180
 Alpha virt. eigenvalues --    1.96271   1.96522   1.96602   1.96851   1.97060
 Alpha virt. eigenvalues --    1.97376   1.97652   1.97755   1.97901   1.98124
 Alpha virt. eigenvalues --    1.98277   1.98433   1.98628   1.99087   1.99210
 Alpha virt. eigenvalues --    1.99785   2.00033   2.00595   2.00840   2.00955
 Alpha virt. eigenvalues --    2.01203   2.01436   2.01591   2.01654   2.01676
 Alpha virt. eigenvalues --    2.01694   2.01918   2.02730   2.02826   2.03156
 Alpha virt. eigenvalues --    2.03327   2.03360   2.03441   2.03478   2.03615
 Alpha virt. eigenvalues --    2.03979   2.04142   2.04911   2.05095   2.05465
 Alpha virt. eigenvalues --    2.05750   2.06037   2.06394   2.06864   2.07108
 Alpha virt. eigenvalues --    2.07129   2.07449   2.08542   2.08689   2.08940
 Alpha virt. eigenvalues --    2.09097   2.09551   2.09707   2.10675   2.11134
 Alpha virt. eigenvalues --    2.11187   2.11491   2.11508   2.11624   2.11690
 Alpha virt. eigenvalues --    2.11970   2.12414   2.12567   2.12761   2.12779
 Alpha virt. eigenvalues --    2.12924   2.12980   2.13725   2.13734   2.14055
 Alpha virt. eigenvalues --    2.14455   2.15285   2.15521   2.15881   2.16200
 Alpha virt. eigenvalues --    2.16458   2.16716   2.16717   2.17256   2.17354
 Alpha virt. eigenvalues --    2.17648   2.17828   2.17984   2.18050   2.18144
 Alpha virt. eigenvalues --    2.18289   2.18760   2.18825   2.19320   2.19595
 Alpha virt. eigenvalues --    2.19905   2.20000   2.20158   2.20337   2.20537
 Alpha virt. eigenvalues --    2.21051   2.21338   2.21624   2.21702   2.21850
 Alpha virt. eigenvalues --    2.21960   2.22624   2.22814   2.23239   2.23467
 Alpha virt. eigenvalues --    2.24339   2.24534   2.24854   2.25143   2.26257
 Alpha virt. eigenvalues --    2.26536   2.26715   2.27060   2.27120   2.27295
 Alpha virt. eigenvalues --    2.28091   2.28422   2.29217   2.29558   2.29694
 Alpha virt. eigenvalues --    2.29979   2.30408   2.30705   2.30899   2.31017
 Alpha virt. eigenvalues --    2.31136   2.31325   2.32055   2.32382   2.33092
 Alpha virt. eigenvalues --    2.33331   2.33393   2.33599   2.34053   2.34289
 Alpha virt. eigenvalues --    2.35321   2.35377   2.35762   2.36008   2.36258
 Alpha virt. eigenvalues --    2.36433   2.36586   2.36587   2.37567   2.37794
 Alpha virt. eigenvalues --    2.38209   2.38502   2.38822   2.38869   2.39566
 Alpha virt. eigenvalues --    2.39768   2.40089   2.40414   2.40443   2.40915
 Alpha virt. eigenvalues --    2.41215   2.41301   2.41598   2.41799   2.41995
 Alpha virt. eigenvalues --    2.42202   2.42851   2.42973   2.43104   2.43485
 Alpha virt. eigenvalues --    2.44084   2.44127   2.44690   2.44850   2.44908
 Alpha virt. eigenvalues --    2.45096   2.45493   2.45666   2.46271   2.46379
 Alpha virt. eigenvalues --    2.46434   2.46582   2.46762   2.46873   2.47184
 Alpha virt. eigenvalues --    2.47486   2.47653   2.48017   2.49247   2.49542
 Alpha virt. eigenvalues --    2.49962   2.50003   2.50473   2.50554   2.51074
 Alpha virt. eigenvalues --    2.51353   2.51704   2.51841   2.52387   2.52474
 Alpha virt. eigenvalues --    2.52762   2.53259   2.53857   2.54088   2.54113
 Alpha virt. eigenvalues --    2.54419   2.54723   2.54911   2.55472   2.55777
 Alpha virt. eigenvalues --    2.57821   2.58191   2.58578   2.59046   2.60165
 Alpha virt. eigenvalues --    2.60369   2.60567   2.61024   2.61659   2.61943
 Alpha virt. eigenvalues --    2.62481   2.62533   2.62899   2.63227   2.63895
 Alpha virt. eigenvalues --    2.64133   2.64311   2.64610   2.65011   2.65225
 Alpha virt. eigenvalues --    2.65745   2.65948   2.66683   2.66855   2.66925
 Alpha virt. eigenvalues --    2.67169   2.67838   2.68099   2.68799   2.68913
 Alpha virt. eigenvalues --    2.68973   2.69097   2.69296   2.69686   2.69920
 Alpha virt. eigenvalues --    2.70238   2.70909   2.71152   2.71970   2.71996
 Alpha virt. eigenvalues --    2.72549   2.72608   2.72777   2.72799   2.73173
 Alpha virt. eigenvalues --    2.73413   2.73481   2.73507   2.74451   2.74588
 Alpha virt. eigenvalues --    2.74922   2.75135   2.76513   2.76621   2.77134
 Alpha virt. eigenvalues --    2.77187   2.77409   2.77697   2.78146   2.78398
 Alpha virt. eigenvalues --    2.78670   2.78797   2.79078   2.79235   2.80303
 Alpha virt. eigenvalues --    2.80348   2.80548   2.80745   2.81075   2.81216
 Alpha virt. eigenvalues --    2.81891   2.82044   2.82273   2.82432   2.83709
 Alpha virt. eigenvalues --    2.83734   2.83928   2.83953   2.84488   2.84612
 Alpha virt. eigenvalues --    2.84802   2.85013   2.85614   2.85784   2.86732
 Alpha virt. eigenvalues --    2.86922   2.87215   2.87552   2.88121   2.88321
 Alpha virt. eigenvalues --    2.88438   2.88682   2.88874   2.88949   2.90426
 Alpha virt. eigenvalues --    2.90740   2.91098   2.91199   2.93110   2.93403
 Alpha virt. eigenvalues --    2.93863   2.94138   2.94484   2.94687   2.95315
 Alpha virt. eigenvalues --    2.95547   2.95861   2.96135   2.96346   2.96452
 Alpha virt. eigenvalues --    2.96912   2.97118   2.97769   2.98130   2.98180
 Alpha virt. eigenvalues --    2.98297   2.98409   2.98557   2.98646   2.98807
 Alpha virt. eigenvalues --    2.98832   2.99007   2.99489   2.99882   2.99995
 Alpha virt. eigenvalues --    3.00060   3.00175   3.00412   3.00413   3.01075
 Alpha virt. eigenvalues --    3.01874   3.02004   3.02015   3.02192   3.02697
 Alpha virt. eigenvalues --    3.02875   3.02922   3.03283   3.03406   3.03784
 Alpha virt. eigenvalues --    3.04054   3.04145   3.04396   3.04454   3.04518
 Alpha virt. eigenvalues --    3.04756   3.05226   3.05477   3.06053   3.06335
 Alpha virt. eigenvalues --    3.06754   3.07062   3.08027   3.08089   3.09351
 Alpha virt. eigenvalues --    3.09506   3.09635   3.10391   3.10486   3.10821
 Alpha virt. eigenvalues --    3.11240   3.11681   3.11899   3.12012   3.12023
 Alpha virt. eigenvalues --    3.12383   3.13239   3.13558   3.13711   3.13789
 Alpha virt. eigenvalues --    3.14049   3.14497   3.15785   3.16083   3.17214
 Alpha virt. eigenvalues --    3.17577   3.17975   3.18023   3.19075   3.19111
 Alpha virt. eigenvalues --    3.22261   3.22626   3.23903   3.24491   3.24636
 Alpha virt. eigenvalues --    3.25230   3.26454   3.26725   3.27468   3.27569
 Alpha virt. eigenvalues --    3.29057   3.29241   3.31449   3.31477   3.33265
 Alpha virt. eigenvalues --    3.33368   3.40268   3.40588   3.42777   3.42904
 Alpha virt. eigenvalues --    3.48618   3.48749   3.49972   3.50360   3.50914
 Alpha virt. eigenvalues --    3.51426   3.56500   3.57086   3.59035   3.59439
 Alpha virt. eigenvalues --    3.62577   3.62792   3.66145   3.66212   3.67143
 Alpha virt. eigenvalues --    3.67557   3.73232   3.74036   3.76019   3.76696
          Condensed to atoms (all electrons):
 Mulliken charges:
               1
     1  Mg   0.838639
     2  C   -0.002886
     3  C   -0.093645
     4  C   -0.046288
     5  C   -0.064187
     6  N   -0.256718
     7  C   -0.052489
     8  C   -0.014016
     9  C   -0.087068
    10  C    0.046255
    11  C    0.104736
    12  C    0.053409
    13  C   -0.071722
    14  H    0.035523
    15  N   -0.433196
    16  C    0.168432
    17  C   -0.176640
    18  C   -0.003893
    19  C    0.148637
    20  C    0.109966
    21  C    0.012067
    22  O   -0.250332
    23  C    0.062367
    24  N   -0.341019
    25  C    0.041202
    26  C   -0.028142
    27  C   -0.023775
    28  C    0.074425
    29  C    0.076151
    30  C    0.035334
    31  C   -0.004324
    32  N   -0.310466
    33  C    0.080223
    34  C   -0.169727
    35  C    0.008555
    36  C    0.082919
    37  C    0.127310
    38  C    0.046250
    39  O   -0.188123
    40  C   -0.005405
    41  C    0.213039
    42  O   -0.257325
    43  O   -0.304669
    44  C    0.157733
    45  H   -0.017161
    46  H   -0.017190
    47  H   -0.041871
    48  H    0.001071
    49  H   -0.003708
    50  H    0.025525
    51  H    0.016475
    52  H    0.016968
    53  H    0.011411
    54  H    0.043750
    55  H    0.018113
    56  H    0.018312
    57  H    0.006121
    58  H    0.027058
    59  H    0.040728
    60  H    0.037648
    61  H    0.035755
    62  H    0.032537
    63  H    0.015608
    64  H    0.009678
    65  H    0.022957
    66  H    0.013030
    67  H    0.004866
    68  H    0.005883
    69  H    0.004818
    70  H    0.007636
    71  H    0.016073
    72  H    0.029936
    73  H    0.047856
    74  H    0.008634
    75  H    0.046120
    76  H    0.035333
    77  H    0.043228
    78  H    0.046357
    79  H    0.053329
    80  Mg   0.838034
    81  C   -0.017157
    82  C   -0.087947
    83  C   -0.044566
    84  C   -0.064624
    85  N   -0.254685
    86  C   -0.049975
    87  C   -0.015108
    88  C   -0.090554
    89  C    0.046064
    90  C    0.114454
    91  C    0.062551
    92  C   -0.077734
    93  H    0.034268
    94  N   -0.423717
    95  C    0.163437
    96  C   -0.174424
    97  C   -0.007124
    98  C    0.152273
    99  C    0.099322
   100  C    0.015890
   101  O   -0.252228
   102  C    0.061207
   103  N   -0.350008
   104  C    0.038465
   105  C   -0.020516
   106  C   -0.034244
   107  C    0.088930
   108  C    0.072588
   109  C    0.034706
   110  C   -0.007533
   111  N   -0.323885
   112  C    0.078245
   113  C   -0.163741
   114  C    0.001691
   115  C    0.096126
   116  C    0.131657
   117  C    0.041630
   118  O   -0.189272
   119  C    0.001171
   120  C    0.211113
   121  O   -0.251142
   122  O   -0.305634
   123  C    0.152191
   124  H   -0.019944
   125  H   -0.014429
   126  H   -0.041146
   127  H   -0.000625
   128  H   -0.004731
   129  H    0.022880
   130  H    0.014720
   131  H    0.016531
   132  H    0.013760
   133  H    0.037419
   134  H    0.021060
   135  H    0.019433
   136  H    0.008375
   137  H    0.026294
   138  H    0.039550
   139  H    0.038312
   140  H    0.036501
   141  H    0.033390
   142  H    0.013859
   143  H    0.012634
   144  H    0.025292
   145  H    0.015713
   146  H    0.007605
   147  H    0.006319
   148  H    0.002723
   149  H    0.011056
   150  H    0.017190
   151  H    0.029908
   152  H    0.045420
   153  H    0.008291
   154  H    0.045565
   155  H    0.034445
   156  H    0.043423
   157  H    0.049663
   158  H    0.053349
 Sum of Mulliken charges =  -0.00000
 Mulliken charges with hydrogens summed into heavy atoms:
               1
     1  Mg   0.838639
     2  C   -0.002886
     3  C   -0.110806
     4  C   -0.063478
     5  C   -0.106058
     6  N   -0.256718
     7  C   -0.052489
     8  C   -0.012945
     9  C   -0.090777
    10  C    0.046255
    11  C    0.163705
    12  C    0.108570
    13  C    0.000225
    15  N   -0.433196
    16  C    0.168432
    17  C   -0.176640
    18  C   -0.003893
    19  C    0.148637
    20  C    0.183873
    21  C    0.012067
    22  O   -0.250332
    23  C    0.168308
    24  N   -0.341019
    25  C    0.041202
    26  C   -0.012535
    27  C   -0.014097
    28  C    0.074425
    29  C    0.117004
    30  C    0.046035
    31  C    0.049321
    32  N   -0.310466
    33  C    0.080223
    34  C   -0.169727
    35  C    0.008555
    36  C    0.082919
    37  C    0.229920
    38  C    0.046250
    39  O   -0.188123
    40  C    0.029928
    41  C    0.213039
    42  O   -0.257325
    43  O   -0.304669
    44  C    0.300647
    80  Mg   0.838034
    81  C   -0.017157
    82  C   -0.107891
    83  C   -0.058995
    84  C   -0.105770
    85  N   -0.254685
    86  C   -0.049975
    87  C   -0.015733
    88  C   -0.095285
    89  C    0.046064
    90  C    0.168585
    91  C    0.113730
    92  C   -0.002973
    94  N   -0.423717
    95  C    0.163437
    96  C   -0.174424
    97  C   -0.007124
    98  C    0.152273
    99  C    0.173542
   100  C    0.015890
   101  O   -0.252228
   102  C    0.169409
   103  N   -0.350008
   104  C    0.038465
   105  C   -0.006657
   106  C   -0.021610
   107  C    0.088930
   108  C    0.121198
   109  C    0.043748
   110  C    0.050621
   111  N   -0.323885
   112  C    0.078245
   113  C   -0.163741
   114  C    0.001691
   115  C    0.096126
   116  C    0.230933
   117  C    0.041630
   118  O   -0.189272
   119  C    0.035616
   120  C    0.211113
   121  O   -0.251142
   122  O   -0.305634
   123  C    0.298626
 Electronic spatial extent (au):  <R**2>=         115887.1876
 Charge=             -0.0000 electrons
 Dipole moment (field-independent basis, Debye):
    X=              3.5188    Y=              3.0993    Z=              0.7090  Tot=              4.7424
 Quadrupole moment (field-independent basis, Debye-Ang):
   XX=           -524.1315   YY=           -538.4866   ZZ=           -457.2355
   XY=             17.9597   XZ=            -52.8565   YZ=             33.8791
 Traceless Quadrupole moment (field-independent basis, Debye-Ang):
   XX=            -17.5136   YY=            -31.8687   ZZ=             49.3824
   XY=             17.9597   XZ=            -52.8565   YZ=             33.8791
 Octapole moment (field-independent basis, Debye-Ang**2):
  XXX=            307.8486  YYY=            112.1148  ZZZ=            168.1070  XYY=           -169.5586
  XXY=            145.3713  XXZ=             85.2988  XZZ=            179.3000  YZZ=            -69.3891
  YYZ=           -251.2853  XYZ=           -104.8752
 Hexadecapole moment (field-independent basis, Debye-Ang**3):
 XXXX=         -93668.4565 YYYY=         -40678.0260 ZZZZ=         -25401.9105 XXXY=            190.9878
 XXXZ=          -2452.8776 YYYX=          -1724.6983 YYYZ=            788.2842 ZZZX=           -814.0566
 ZZZY=            152.9296 XXYY=         -21883.8209 XXZZ=         -18638.4476 YYZZ=         -10600.2012
 XXYZ=           1057.4730 YYXZ=           -614.9631 ZZXY=            821.7984
 N-N= 1.492827650100D+04 E-N=-3.933759944342D+04  KE= 4.028801720058D+03
 Leave Link  601 at Fri Sep 10 15:19:20 2021, MaxMem= 23488102400 cpu:              16.4 elap:               0.8
 (Enter /sw/apps/gaussian-16.0/g16/l9999.exe)
 1\1\GINC-BP1-COMPUTE00091\SP\RCAM-B3LYP TD-FC\def2SVP\C68H72Mg2N8O8\OF
 15641\10-Sep-2021\0\\#p cam-b3lyp/Def2SVP td=(nstates=5)\\TDDFT excite
 d states in gaussian\\0,1\Mg,0,0.,0.,0.\C,0,-0.217,-2.218,2.801\C,0,-1
 .255,2.442,2.026\C,0,-0.245,1.85,-2.564\C,0,0.146,-2.824,-2.037\N,0,-0
 .617,-0.009,2.126\C,0,-0.594,-0.908,3.105\C,0,-0.936,-0.309,4.502\C,0,
 -1.773,0.964,4.032\C,0,-1.155,1.168,2.66\C,0,-3.263,0.685,3.863\C,0,0.
 345,0.11,5.299\C,0,0.124,0.397,6.787\H,0,1.168,0.033,7.733\N,0,-0.185,
 1.961,-0.152\C,0,-0.703,2.8,0.777\C,0,-0.62,4.156,0.193\C,0,-0.187,4.0
 15,-1.225\C,0,-0.214,2.583,-1.38\C,0,-0.887,5.406,0.974\C,0,0.181,5.01
 3,-2.277\O,0,0.303,4.69,-3.508\C,0,0.31,6.414,-1.837\N,0,-0.265,-0.413
 ,-2.029\C,0,-0.279,0.569,-2.937\C,0,-0.196,0.024,-4.332\C,0,0.124,-1.5
 33,-4.18\C,0,0.086,-1.632,-2.635\C,0,-1.451,0.205,-5.197\C,0,1.373,-2.
 07,-4.923\C,0,2.626,-1.49,-4.306\N,0,0.15,-2.144,0.303\C,0,0.173,-3.13
 6,-0.688\C,0,0.173,-4.438,0.004\C,0,0.133,-4.111,1.358\C,0,0.083,-2.69
 5,1.502\C,0,0.149,-5.715,-0.623\C,0,0.096,-4.629,2.716\O,0,0.208,-5.74
 7,3.221\C,0,-0.255,-3.428,3.701\C,0,0.717,-3.482,4.848\O,0,1.931,-3.25
 5,4.669\O,0,0.038,-3.556,6.003\C,0,0.943,-3.583,7.183\H,0,-1.859,3.22,
 2.497\H,0,-0.218,2.453,-3.474\H,0,0.276,-3.747,-2.605\H,0,-1.554,-0.94
 9,5.132\H,0,-1.585,1.831,4.665\H,0,-3.484,-0.377,3.969\H,0,-3.511,1.02
 7,2.858\H,0,-3.852,1.301,4.543\H,0,0.669,1.096,4.966\H,0,1.13,-0.639,5
 .189\H,0,-0.844,0.026,7.125\H,0,0.062,1.477,6.921\H,0,-1.344,5.186,1.9
 38\H,0,-1.651,5.963,0.432\H,0,0.007,6.02,1.084\H,0,-0.635,6.744,-1.405
 \H,0,0.665,6.97,-2.704\H,0,1.048,6.466,-1.036\H,0,0.608,0.501,-4.891\H
 ,0,-0.692,-2.156,-4.547\H,0,-1.267,0.74,-6.129\H,0,-2.204,0.714,-4.596
 \H,0,-1.967,-0.72,-5.453\H,0,1.356,-1.759,-5.967\H,0,1.452,-3.157,-4.9
 02\H,0,2.714,-0.522,-4.798\H,0,3.487,-2.121,-4.529\H,0,2.495,-1.303,-3
 .24\H,0,0.867,-6.333,-0.084\H,0,0.404,-5.642,-1.68\H,0,-0.891,-5.999,-
 0.463\H,0,-1.283,-3.581,4.028\H,0,0.698,-4.478,7.755\H,0,0.833,-2.619,
 7.68\H,0,2.,-3.754,6.976\Mg,0,10.51863,0.94704,0.79128\C,0,10.08966,4.
 33555,-0.31013\C,0,9.96701,-0.01378,-2.43473\C,0,10.44334,-2.05896,1.8
 0405\C,0,9.90226,2.06915,4.03268\N,0,10.09499,2.10432,-1.04543\C,0,10.
 01667,3.38997,-1.35416\C,0,9.93128,3.68187,-2.87635\C,0,9.32971,2.2729
 6,-3.35799\C,0,9.8554,1.38499,-2.23201\C,0,7.81096,2.22696,-3.33308\C,
 0,11.33959,3.95288,-3.51293\C,0,11.30451,4.5464,-4.92298\H,0,12.3353,5
 .51029,-5.29828\N,0,10.73155,-0.75192,-0.2121\C,0,10.48447,-0.9595,-1.
 5225\C,0,10.77662,-2.38046,-1.76682\C,0,11.05805,-3.03305,-0.45929\C,0
 ,10.72762,-1.95433,0.45024\C,0,10.84816,-2.97121,-3.14498\C,0,11.53228
 ,-4.40551,-0.08828\O,0,11.47991,-4.83251,1.1191\C,0,11.97267,-5.26823,
 -1.19429\N,0,10.00938,0.08549,2.61357\C,0,10.1146,-1.24132,2.8044\C,0,
 9.9608,-1.59636,4.26409\C,0,9.9715,-0.20282,5.04863\C,0,10.04315,0.763
 94,3.84629\C,0,8.69799,-2.37618,4.62957\C,0,11.01561,-0.04444,6.18768\
 C,0,12.41167,-0.01891,5.60822\N,0,10.25753,2.86571,1.74972\C,0,9.98346
 ,3.10757,3.11372\C,0,9.77636,4.56245,3.26485\C,0,9.92272,5.06728,1.964
 \C,0,10.18139,3.99979,1.06231\C,0,9.44752,5.23455,4.47575\C,0,9.9067,6
 .25925,1.1469\O,0,9.8232,7.46588,1.37227\C,0,9.88871,5.82387,-0.38167\
 C,0,10.92497,6.63665,-1.10836\O,0,12.1332,6.49855,-0.84813\O,0,10.3400
 3,7.27967,-2.13536\C,0,11.32969,8.09073,-2.89337\H,0,9.58368,-0.43552,
 -3.36429\H,0,10.51404,-3.06488,2.22431\H,0,9.80276,2.50944,5.02712\H,0
 ,9.25777,4.48597,-3.14761\H,0,9.75187,1.96871,-4.31223\H,0,7.38842,3.1
 1232,-2.8817\H,0,7.55269,1.34832,-2.75659\H,0,7.42257,2.05139,-4.34038
 \H,0,11.8273,2.99278,-3.72527\H,0,11.93331,4.57637,-2.8731\H,0,10.3095
 8,4.9258,-5.18587\H,0,11.48373,3.74337,-5.64205\H,0,10.43296,-2.28905,
 -3.89709\H,0,10.17317,-3.83381,-3.15856\H,0,11.85397,-3.30535,-3.40834
 \H,0,11.15671,-5.39256,-1.90225\H,0,12.35853,-6.17402,-0.72257\H,0,12.
 78171,-4.76167,-1.73232\H,0,10.79399,-2.19828,4.60555\H,0,9.01165,-0.0
 1014,5.55003\H,0,8.90958,-3.33867,5.13245\H,0,8.12296,-2.5369,3.72732\
 H,0,7.99139,-1.84093,5.26158\H,0,10.97475,-0.90409,6.8611\H,0,10.86522
 ,0.84465,6.79092\H,0,12.64868,-1.08034,5.48868\H,0,13.10286,0.46489,6.
 2954\H,0,12.41524,0.4341,4.61001\H,0,10.06043,6.12528,4.51379\H,0,9.61
 56,4.59807,5.34202\H,0,8.38457,5.42832,4.30881\H,0,8.88336,6.00732,-0.
 76273\H,0,10.95295,9.11804,-2.91288\H,0,11.45117,7.58017,-3.86719\H,0,
 12.30757,8.2325,-2.44829\\Version=ES64L-G16RevA.03\State=1-A\HF=-4069.
 811858\RMSD=7.538e-09\PG=C01 [X(C68H72Mg2N8O8)]\\@


 IF AT FIRST YOU DON'T SUCCEED, TRY, TRY AGAIN.
 THEN GIVE UP;
 THERE'S NO USE BEING A DAMN FOOL ABOUT IT.

                                 -- W. C. FIELDS
 Job cpu time:       0 days 14 hours 33 minutes 42.9 seconds.
 Elapsed time:       0 days  0 hours 37 minutes  3.7 seconds.
 File lengths (MBytes):  RWF=  13225 Int=      0 D2E=      0 Chk=    574 Scr=      1
 Normal termination of Gaussian 16 at Fri Sep 10 15:19:21 2021.
