 Entering Gaussian System, Link 0=g16
 Initial command:
 /sw/apps/gaussian-16.0/g16/l1.exe "/tmp/Gau-21316.inp" -scrdir="/tmp/"
 Entering Link 1 = /sw/apps/gaussian-16.0/g16/l1.exe PID=     21317.
  
 Copyright (c) 1988,1990,1992,1993,1995,1998,2003,2009,2016,
            Gaussian, Inc.  All Rights Reserved.
  
 This is part of the Gaussian(R) 16 program.  It is based on
 the Gaussian(R) 09 system (copyright 2009, Gaussian, Inc.),
 the Gaussian(R) 03 system (copyright 2003, Gaussian, Inc.),
 the Gaussian(R) 98 system (copyright 1998, Gaussian, Inc.),
 the Gaussian(R) 94 system (copyright 1995, Gaussian, Inc.),
 the Gaussian 92(TM) system (copyright 1992, Gaussian, Inc.),
 the Gaussian 90(TM) system (copyright 1990, Gaussian, Inc.),
 the Gaussian 88(TM) system (copyright 1988, Gaussian, Inc.),
 the Gaussian 86(TM) system (copyright 1986, Carnegie Mellon
 University), and the Gaussian 82(TM) system (copyright 1983,
 Carnegie Mellon University). Gaussian is a federally registered
 trademark of Gaussian, Inc.
  
 This software contains proprietary and confidential information,
 including trade secrets, belonging to Gaussian, Inc.
  
 This software is provided under written license and may be
 used, copied, transmitted, or stored only in accord with that
 written license.
  
 The following legend is applicable only to US Government
 contracts under FAR:
  
                    RESTRICTED RIGHTS LEGEND
  
 Use, reproduction and disclosure by the US Government is
 subject to restrictions as set forth in subparagraphs (a)
 and (c) of the Commercial Computer Software - Restricted
 Rights clause in FAR 52.227-19.
  
 Gaussian, Inc.
 340 Quinnipiac St., Bldg. 40, Wallingford CT 06492
  
  
 ---------------------------------------------------------------
 Warning -- This program may not be used in any manner that
 competes with the business of Gaussian, Inc. or will provide
 assistance to any competitor of Gaussian, Inc.  The licensee
 of this program is prohibited from giving any competitor of
 Gaussian, Inc. access to this program.  By using this program,
 the user acknowledges that Gaussian, Inc. is engaged in the
 business of creating and licensing software in the field of
 computational chemistry and represents and warrants to the
 licensee that it is not a competitor of Gaussian, Inc. and that
 it will not use this program in any manner prohibited above.
 ---------------------------------------------------------------
  

 Cite this work as:
 Gaussian 16, Revision A.03,
 M. J. Frisch, G. W. Trucks, H. B. Schlegel, G. E. Scuseria, 
 M. A. Robb, J. R. Cheeseman, G. Scalmani, V. Barone, 
 G. A. Petersson, H. Nakatsuji, X. Li, M. Caricato, A. V. Marenich, 
 J. Bloino, B. G. Janesko, R. Gomperts, B. Mennucci, H. P. Hratchian, 
 J. V. Ortiz, A. F. Izmaylov, J. L. Sonnenberg, D. Williams-Young, 
 F. Ding, F. Lipparini, F. Egidi, J. Goings, B. Peng, A. Petrone, 
 T. Henderson, D. Ranasinghe, V. G. Zakrzewski, J. Gao, N. Rega, 
 G. Zheng, W. Liang, M. Hada, M. Ehara, K. Toyota, R. Fukuda, 
 J. Hasegawa, M. Ishida, T. Nakajima, Y. Honda, O. Kitao, H. Nakai, 
 T. Vreven, K. Throssell, J. A. Montgomery, Jr., J. E. Peralta, 
 F. Ogliaro, M. J. Bearpark, J. J. Heyd, E. N. Brothers, K. N. Kudin, 
 V. N. Staroverov, T. A. Keith, R. Kobayashi, J. Normand, 
 K. Raghavachari, A. P. Rendell, J. C. Burant, S. S. Iyengar, 
 J. Tomasi, M. Cossi, J. M. Millam, M. Klene, C. Adamo, R. Cammi, 
 J. W. Ochterski, R. L. Martin, K. Morokuma, O. Farkas, 
 J. B. Foresman, and D. J. Fox, Gaussian, Inc., Wallingford CT, 2016.
 
 ******************************************
 Gaussian 16:  ES64L-G16RevA.03 25-Dec-2016
                10-Sep-2021 
 ******************************************
 %nproc=24
 Will use up to   24 processors via shared memory.
 %mem=175gb
 -----------------------------------
 #p cam-b3lyp/Def2SVP td=(nstates=5)
 -----------------------------------
 1/38=1,172=1/1;
 2/12=2,17=6,18=5,40=1/2;
 3/5=43,7=101,11=9,25=1,30=1,74=-40/1,2,3,8;
 4//1;
 5/5=2,38=5/2;
 8/6=1,10=1,108=5/1;
 9/41=5,42=1,70=2/14;
 6/7=2,8=2,9=2,10=2/1;
 99/5=1,9=1/99;
 Leave Link    1 at Fri Sep 10 08:48:09 2021, MaxMem= 23488102400 cpu:               0.6 elap:               0.0
 (Enter /sw/apps/gaussian-16.0/g16/l101.exe)
 --------------------------------
 TDDFT excited states in gaussian
 --------------------------------
 Symbolic Z-matrix:
 Charge =  0 Multiplicity = 1
 Mg                    0.        0.        0. 
 C                    -0.217    -2.218     2.801 
 C                    -1.255     2.442     2.026 
 C                    -0.245     1.85     -2.564 
 C                     0.146    -2.824    -2.037 
 N                    -0.617    -0.009     2.126 
 C                    -0.594    -0.908     3.105 
 C                    -0.936    -0.309     4.502 
 C                    -1.773     0.964     4.032 
 C                    -1.155     1.168     2.66 
 C                    -3.263     0.685     3.863 
 C                     0.345     0.11      5.299 
 C                     0.124     0.397     6.787 
 H                     1.168     0.033     7.733 
 N                    -0.185     1.961    -0.152 
 C                    -0.703     2.8       0.777 
 C                    -0.62      4.156     0.193 
 C                    -0.187     4.015    -1.225 
 C                    -0.214     2.583    -1.38 
 C                    -0.887     5.406     0.974 
 C                     0.181     5.013    -2.277 
 O                     0.303     4.69     -3.508 
 C                     0.31      6.414    -1.837 
 N                    -0.265    -0.413    -2.029 
 C                    -0.279     0.569    -2.937 
 C                    -0.196     0.024    -4.332 
 C                     0.124    -1.533    -4.18 
 C                     0.086    -1.632    -2.635 
 C                    -1.451     0.205    -5.197 
 C                     1.373    -2.07     -4.923 
 C                     2.626    -1.49     -4.306 
 N                     0.15     -2.144     0.303 
 C                     0.173    -3.136    -0.688 
 C                     0.173    -4.438     0.004 
 C                     0.133    -4.111     1.358 
 C                     0.083    -2.695     1.502 
 C                     0.149    -5.715    -0.623 
 C                     0.096    -4.629     2.716 
 O                     0.208    -5.747     3.221 
 C                    -0.255    -3.428     3.701 
 C                     0.717    -3.482     4.848 
 O                     1.931    -3.255     4.669 
 O                     0.038    -3.556     6.003 
 C                     0.943    -3.583     7.183 
 H                    -1.859     3.22      2.497 
 H                    -0.218     2.453    -3.474 
 H                     0.276    -3.747    -2.605 
 H                    -1.554    -0.949     5.132 
 H                    -1.585     1.831     4.665 
 H                    -3.484    -0.377     3.969 
 H                    -3.511     1.027     2.858 
 H                    -3.852     1.301     4.543 
 H                     0.669     1.096     4.966 
 H                     1.13     -0.639     5.189 
 H                    -0.844     0.026     7.125 
 H                     0.062     1.477     6.921 
 H                    -1.344     5.186     1.938 
 H                    -1.651     5.963     0.432 
 H                     0.007     6.02      1.084 
 H                    -0.635     6.744    -1.405 
 H                     0.665     6.97     -2.704 
 H                     1.048     6.466    -1.036 
 H                     0.608     0.501    -4.891 
 H                    -0.692    -2.156    -4.547 
 H                    -1.267     0.74     -6.129 
 H                    -2.204     0.714    -4.596 
 H                    -1.967    -0.72     -5.453 
 H                     1.356    -1.759    -5.967 
 H                     1.452    -3.157    -4.902 
 H                     2.714    -0.522    -4.798 
 H                     3.487    -2.121    -4.529 
 H                     2.495    -1.303    -3.24 
 H                     0.867    -6.333    -0.084 
 H                     0.404    -5.642    -1.68 
 H                    -0.891    -5.999    -0.463 
 H                    -1.283    -3.581     4.028 
 H                     0.698    -4.478     7.755 
 H                     0.833    -2.619     7.68 
 H                     2.       -3.754     6.976 
 Mg                    10.51594   0.94933   0.78967 
 C                     13.27679  -1.34337   0.77187 
 C                     12.80592   3.47279   0.94058 
 C                     8.11339   2.96773   1.26003 
 C                     8.49325  -1.71064   1.77909 
 N                     12.72712   0.93958   0.84303 
 C                     13.66915   0.01143   0.76901 
 C                     15.10906   0.56799   0.60635 
 C                     14.878    2.02315   1.24509 
 C                     13.3847   2.17876   0.9649 
 C                     15.08806   2.06021   2.7497 
 C                     15.54657   0.66365  -0.89746 
 C                     17.04157   0.90449  -1.11819 
 H                     17.6853   0.27657  -2.26876 
 N                     10.43333   2.92033   0.57306 
 C                     11.46267   3.79038   0.64197 
 C                     10.87682   5.1239    0.43542 
 C                     9.39542   4.98556   0.40316 
 C                     9.25273   3.59167   0.77304 
 C                     11.7095   6.35277   0.21193 
 C                     8.28957   5.95163   0.10318 
 O                     7.06565   5.67705   0.36671 
 C                     8.69084   7.26503  -0.42167 
 N                     8.62765   0.72242   1.62942 
 C                     7.75826   1.74758   1.66306 
 C                     6.37784   1.27942   2.05758 
 C                     6.44667  -0.31831   2.04691 
 C                     7.9447   -0.50489   1.72058 
 C                     5.87728   1.7579    3.42025 
 C                     5.40123  -1.06194   1.17127 
 C                     5.66497  -0.78789  -0.29185 
 N                     10.75883  -1.18415   1.02907 
 C                     9.79     -2.10778   1.47891 
 C                     10.45723  -3.42153   1.58519 
 C                     11.78417  -3.16438   1.20889 
 C                     11.9382  -1.78364   0.90999 
 C                     9.85007  -4.62926   2.03113 
 C                     13.09213  -3.74498   1.00679 
 O                     13.54702  -4.88802   1.02256 
 C                     14.1467  -2.56797   0.83674 
 C                     15.00463  -2.88205  -0.35819 
 O                     14.51214  -2.91106  -1.49977 
 O                     16.29731  -2.88148   0.01511 
 C                     17.18836  -3.17722  -1.13832 
 H                     13.42785   4.3246    1.2172 
 H                     7.22527   3.5995    1.33481 
 H                     7.90775  -2.60891   1.9864 
 H                     15.86844   0.03334   1.16427 
 H                     15.44667   2.7823    0.71437 
 H                     15.24321   1.07313   3.15927 
 H                     14.19085   2.50381   3.16114 
 H                     15.90428   2.74406   2.99963 
 H                     15.14154   1.58749  -1.33013 
 H                     15.23693  -0.20803  -1.44053 
 H                     17.62636   0.72842  -0.20716 
 H                     17.19412   1.96478  -1.33387 
 H                     12.76416   6.17369   0.4549 
 H                     11.38419   7.09739   0.94649 
 H                     11.58671   6.76819  -0.79057 
 H                     9.35514   7.75044   0.28935 
 H                     7.75899   7.78228  -0.6583 
 H                     9.26935   7.11304  -1.33973 
 H                     5.6384    1.60413   1.33585 
 H                     6.28884  -0.73965   3.0506 
 H                     4.91904   2.30814   3.36465 
 H                     6.64469   2.37504   3.86832 
 H                     5.74638   0.97484   4.16515 
 H                     4.39636  -0.68725   1.381 
 H                     5.38562  -2.13438   1.33448 
 H                     5.17153   0.17484  -0.45545 
 H                     5.22649  -1.56667  -0.91256 
 H                     6.73568  -0.6455   -0.47882 
 H                     10.18002  -5.41023   1.35904 
 H                     8.76523  -4.54745   2.04472 
 H                     10.26919  -4.69785   3.03856 
 H                     14.72988  -2.51515   1.75689 
 H                     17.80378  -4.03652  -0.85452 
 H                     17.71626  -2.23033  -1.35848 
 H                     16.72588  -3.53981  -2.04886 
 
 ITRead=  0  0  0  0  0  0  0  0  0  0  0  0  0  0  0  0  0  0  0  0
 ITRead=  0  0  0  0  0  0  0  0  0  0  0  0  0  0  0  0  0  0  0  0
 ITRead=  0  0  0  0  0  0  0  0  0  0  0  0  0  0  0  0  0  0  0  0
 ITRead=  0  0  0  0  0  0  0  0  0  0  0  0  0  0  0  0  0  0  0  0
 ITRead=  0  0  0  0  0  0  0  0  0  0  0  0  0  0  0  0  0  0  0  0
 ITRead=  0  0  0  0  0  0  0  0  0  0  0  0  0  0  0  0  0  0  0  0
 ITRead=  0  0  0  0  0  0  0  0  0  0  0  0  0  0  0  0  0  0  0  0
 ITRead=  0  0  0  0  0  0  0  0  0  0  0  0  0  0  0  0  0  0
 MicOpt= -1 -1 -1 -1 -1 -1 -1 -1 -1 -1 -1 -1 -1 -1 -1 -1 -1 -1 -1 -1
 MicOpt= -1 -1 -1 -1 -1 -1 -1 -1 -1 -1 -1 -1 -1 -1 -1 -1 -1 -1 -1 -1
 MicOpt= -1 -1 -1 -1 -1 -1 -1 -1 -1 -1 -1 -1 -1 -1 -1 -1 -1 -1 -1 -1
 MicOpt= -1 -1 -1 -1 -1 -1 -1 -1 -1 -1 -1 -1 -1 -1 -1 -1 -1 -1 -1 -1
 MicOpt= -1 -1 -1 -1 -1 -1 -1 -1 -1 -1 -1 -1 -1 -1 -1 -1 -1 -1 -1 -1
 MicOpt= -1 -1 -1 -1 -1 -1 -1 -1 -1 -1 -1 -1 -1 -1 -1 -1 -1 -1 -1 -1
 MicOpt= -1 -1 -1 -1 -1 -1 -1 -1 -1 -1 -1 -1 -1 -1 -1 -1 -1 -1 -1 -1
 MicOpt= -1 -1 -1 -1 -1 -1 -1 -1 -1 -1 -1 -1 -1 -1 -1 -1 -1 -1
 NAtoms=    158 NQM=      158 NQMF=       0 NMMI=      0 NMMIF=      0
                NMic=       0 NMicF=      0.
                    Isotopes and Nuclear Properties:
 (Nuclear quadrupole moments (NQMom) in fm**2, nuclear magnetic moments (NMagM)
  in nuclear magnetons)

  Atom         1           2           3           4           5           6           7           8           9          10
 IAtWgt=          24          12          12          12          12          14          12          12          12          12
 AtmWgt=  23.9850450  12.0000000  12.0000000  12.0000000  12.0000000  14.0030740  12.0000000  12.0000000  12.0000000  12.0000000
 NucSpn=           0           0           0           0           0           2           0           0           0           0
 AtZEff=  -0.0000000  -0.0000000  -0.0000000  -0.0000000  -0.0000000  -0.0000000  -0.0000000  -0.0000000  -0.0000000  -0.0000000
 NQMom=    0.0000000   0.0000000   0.0000000   0.0000000   0.0000000   2.0440000   0.0000000   0.0000000   0.0000000   0.0000000
 NMagM=    0.0000000   0.0000000   0.0000000   0.0000000   0.0000000   0.4037610   0.0000000   0.0000000   0.0000000   0.0000000
 AtZNuc=  12.0000000   6.0000000   6.0000000   6.0000000   6.0000000   7.0000000   6.0000000   6.0000000   6.0000000   6.0000000

  Atom        11          12          13          14          15          16          17          18          19          20
 IAtWgt=          12          12          12           1          14          12          12          12          12          12
 AtmWgt=  12.0000000  12.0000000  12.0000000   1.0078250  14.0030740  12.0000000  12.0000000  12.0000000  12.0000000  12.0000000
 NucSpn=           0           0           0           1           2           0           0           0           0           0
 AtZEff=  -0.0000000  -0.0000000  -0.0000000  -0.0000000  -0.0000000  -0.0000000  -0.0000000  -0.0000000  -0.0000000  -0.0000000
 NQMom=    0.0000000   0.0000000   0.0000000   0.0000000   2.0440000   0.0000000   0.0000000   0.0000000   0.0000000   0.0000000
 NMagM=    0.0000000   0.0000000   0.0000000   2.7928460   0.4037610   0.0000000   0.0000000   0.0000000   0.0000000   0.0000000
 AtZNuc=   6.0000000   6.0000000   6.0000000   1.0000000   7.0000000   6.0000000   6.0000000   6.0000000   6.0000000   6.0000000

  Atom        21          22          23          24          25          26          27          28          29          30
 IAtWgt=          12          16          12          14          12          12          12          12          12          12
 AtmWgt=  12.0000000  15.9949146  12.0000000  14.0030740  12.0000000  12.0000000  12.0000000  12.0000000  12.0000000  12.0000000
 NucSpn=           0           0           0           2           0           0           0           0           0           0
 AtZEff=  -0.0000000  -0.0000000  -0.0000000  -0.0000000  -0.0000000  -0.0000000  -0.0000000  -0.0000000  -0.0000000  -0.0000000
 NQMom=    0.0000000   0.0000000   0.0000000   2.0440000   0.0000000   0.0000000   0.0000000   0.0000000   0.0000000   0.0000000
 NMagM=    0.0000000   0.0000000   0.0000000   0.4037610   0.0000000   0.0000000   0.0000000   0.0000000   0.0000000   0.0000000
 AtZNuc=   6.0000000   8.0000000   6.0000000   7.0000000   6.0000000   6.0000000   6.0000000   6.0000000   6.0000000   6.0000000

  Atom        31          32          33          34          35          36          37          38          39          40
 IAtWgt=          12          14          12          12          12          12          12          12          16          12
 AtmWgt=  12.0000000  14.0030740  12.0000000  12.0000000  12.0000000  12.0000000  12.0000000  12.0000000  15.9949146  12.0000000
 NucSpn=           0           2           0           0           0           0           0           0           0           0
 AtZEff=  -0.0000000  -0.0000000  -0.0000000  -0.0000000  -0.0000000  -0.0000000  -0.0000000  -0.0000000  -0.0000000  -0.0000000
 NQMom=    0.0000000   2.0440000   0.0000000   0.0000000   0.0000000   0.0000000   0.0000000   0.0000000   0.0000000   0.0000000
 NMagM=    0.0000000   0.4037610   0.0000000   0.0000000   0.0000000   0.0000000   0.0000000   0.0000000   0.0000000   0.0000000
 AtZNuc=   6.0000000   7.0000000   6.0000000   6.0000000   6.0000000   6.0000000   6.0000000   6.0000000   8.0000000   6.0000000

  Atom        41          42          43          44          45          46          47          48          49          50
 IAtWgt=          12          16          16          12           1           1           1           1           1           1
 AtmWgt=  12.0000000  15.9949146  15.9949146  12.0000000   1.0078250   1.0078250   1.0078250   1.0078250   1.0078250   1.0078250
 NucSpn=           0           0           0           0           1           1           1           1           1           1
 AtZEff=  -0.0000000  -0.0000000  -0.0000000  -0.0000000  -0.0000000  -0.0000000  -0.0000000  -0.0000000  -0.0000000  -0.0000000
 NQMom=    0.0000000   0.0000000   0.0000000   0.0000000   0.0000000   0.0000000   0.0000000   0.0000000   0.0000000   0.0000000
 NMagM=    0.0000000   0.0000000   0.0000000   0.0000000   2.7928460   2.7928460   2.7928460   2.7928460   2.7928460   2.7928460
 AtZNuc=   6.0000000   8.0000000   8.0000000   6.0000000   1.0000000   1.0000000   1.0000000   1.0000000   1.0000000   1.0000000

  Atom        51          52          53          54          55          56          57          58          59          60
 IAtWgt=           1           1           1           1           1           1           1           1           1           1
 AtmWgt=   1.0078250   1.0078250   1.0078250   1.0078250   1.0078250   1.0078250   1.0078250   1.0078250   1.0078250   1.0078250
 NucSpn=           1           1           1           1           1           1           1           1           1           1
 AtZEff=  -0.0000000  -0.0000000  -0.0000000  -0.0000000  -0.0000000  -0.0000000  -0.0000000  -0.0000000  -0.0000000  -0.0000000
 NQMom=    0.0000000   0.0000000   0.0000000   0.0000000   0.0000000   0.0000000   0.0000000   0.0000000   0.0000000   0.0000000
 NMagM=    2.7928460   2.7928460   2.7928460   2.7928460   2.7928460   2.7928460   2.7928460   2.7928460   2.7928460   2.7928460
 AtZNuc=   1.0000000   1.0000000   1.0000000   1.0000000   1.0000000   1.0000000   1.0000000   1.0000000   1.0000000   1.0000000

  Atom        61          62          63          64          65          66          67          68          69          70
 IAtWgt=           1           1           1           1           1           1           1           1           1           1
 AtmWgt=   1.0078250   1.0078250   1.0078250   1.0078250   1.0078250   1.0078250   1.0078250   1.0078250   1.0078250   1.0078250
 NucSpn=           1           1           1           1           1           1           1           1           1           1
 AtZEff=  -0.0000000  -0.0000000  -0.0000000  -0.0000000  -0.0000000  -0.0000000  -0.0000000  -0.0000000  -0.0000000  -0.0000000
 NQMom=    0.0000000   0.0000000   0.0000000   0.0000000   0.0000000   0.0000000   0.0000000   0.0000000   0.0000000   0.0000000
 NMagM=    2.7928460   2.7928460   2.7928460   2.7928460   2.7928460   2.7928460   2.7928460   2.7928460   2.7928460   2.7928460
 AtZNuc=   1.0000000   1.0000000   1.0000000   1.0000000   1.0000000   1.0000000   1.0000000   1.0000000   1.0000000   1.0000000

  Atom        71          72          73          74          75          76          77          78          79          80
 IAtWgt=           1           1           1           1           1           1           1           1           1          24
 AtmWgt=   1.0078250   1.0078250   1.0078250   1.0078250   1.0078250   1.0078250   1.0078250   1.0078250   1.0078250  23.9850450
 NucSpn=           1           1           1           1           1           1           1           1           1           0
 AtZEff=  -0.0000000  -0.0000000  -0.0000000  -0.0000000  -0.0000000  -0.0000000  -0.0000000  -0.0000000  -0.0000000  -0.0000000
 NQMom=    0.0000000   0.0000000   0.0000000   0.0000000   0.0000000   0.0000000   0.0000000   0.0000000   0.0000000   0.0000000
 NMagM=    2.7928460   2.7928460   2.7928460   2.7928460   2.7928460   2.7928460   2.7928460   2.7928460   2.7928460   0.0000000
 AtZNuc=   1.0000000   1.0000000   1.0000000   1.0000000   1.0000000   1.0000000   1.0000000   1.0000000   1.0000000  12.0000000

  Atom        81          82          83          84          85          86          87          88          89          90
 IAtWgt=          12          12          12          12          14          12          12          12          12          12
 AtmWgt=  12.0000000  12.0000000  12.0000000  12.0000000  14.0030740  12.0000000  12.0000000  12.0000000  12.0000000  12.0000000
 NucSpn=           0           0           0           0           2           0           0           0           0           0
 AtZEff=  -0.0000000  -0.0000000  -0.0000000  -0.0000000  -0.0000000  -0.0000000  -0.0000000  -0.0000000  -0.0000000  -0.0000000
 NQMom=    0.0000000   0.0000000   0.0000000   0.0000000   2.0440000   0.0000000   0.0000000   0.0000000   0.0000000   0.0000000
 NMagM=    0.0000000   0.0000000   0.0000000   0.0000000   0.4037610   0.0000000   0.0000000   0.0000000   0.0000000   0.0000000
 AtZNuc=   6.0000000   6.0000000   6.0000000   6.0000000   7.0000000   6.0000000   6.0000000   6.0000000   6.0000000   6.0000000

  Atom        91          92          93          94          95          96          97          98          99         100
 IAtWgt=          12          12           1          14          12          12          12          12          12          12
 AtmWgt=  12.0000000  12.0000000   1.0078250  14.0030740  12.0000000  12.0000000  12.0000000  12.0000000  12.0000000  12.0000000
 NucSpn=           0           0           1           2           0           0           0           0           0           0
 AtZEff=  -0.0000000  -0.0000000  -0.0000000  -0.0000000  -0.0000000  -0.0000000  -0.0000000  -0.0000000  -0.0000000  -0.0000000
 NQMom=    0.0000000   0.0000000   0.0000000   2.0440000   0.0000000   0.0000000   0.0000000   0.0000000   0.0000000   0.0000000
 NMagM=    0.0000000   0.0000000   2.7928460   0.4037610   0.0000000   0.0000000   0.0000000   0.0000000   0.0000000   0.0000000
 AtZNuc=   6.0000000   6.0000000   1.0000000   7.0000000   6.0000000   6.0000000   6.0000000   6.0000000   6.0000000   6.0000000

  Atom       101         102         103         104         105         106         107         108         109         110
 IAtWgt=          16          12          14          12          12          12          12          12          12          12
 AtmWgt=  15.9949146  12.0000000  14.0030740  12.0000000  12.0000000  12.0000000  12.0000000  12.0000000  12.0000000  12.0000000
 NucSpn=           0           0           2           0           0           0           0           0           0           0
 AtZEff=  -0.0000000  -0.0000000  -0.0000000  -0.0000000  -0.0000000  -0.0000000  -0.0000000  -0.0000000  -0.0000000  -0.0000000
 NQMom=    0.0000000   0.0000000   2.0440000   0.0000000   0.0000000   0.0000000   0.0000000   0.0000000   0.0000000   0.0000000
 NMagM=    0.0000000   0.0000000   0.4037610   0.0000000   0.0000000   0.0000000   0.0000000   0.0000000   0.0000000   0.0000000
 AtZNuc=   8.0000000   6.0000000   7.0000000   6.0000000   6.0000000   6.0000000   6.0000000   6.0000000   6.0000000   6.0000000

  Atom       111         112         113         114         115         116         117         118         119         120
 IAtWgt=          14          12          12          12          12          12          12          16          12          12
 AtmWgt=  14.0030740  12.0000000  12.0000000  12.0000000  12.0000000  12.0000000  12.0000000  15.9949146  12.0000000  12.0000000
 NucSpn=           2           0           0           0           0           0           0           0           0           0
 AtZEff=  -0.0000000  -0.0000000  -0.0000000  -0.0000000  -0.0000000  -0.0000000  -0.0000000  -0.0000000  -0.0000000  -0.0000000
 NQMom=    2.0440000   0.0000000   0.0000000   0.0000000   0.0000000   0.0000000   0.0000000   0.0000000   0.0000000   0.0000000
 NMagM=    0.4037610   0.0000000   0.0000000   0.0000000   0.0000000   0.0000000   0.0000000   0.0000000   0.0000000   0.0000000
 AtZNuc=   7.0000000   6.0000000   6.0000000   6.0000000   6.0000000   6.0000000   6.0000000   8.0000000   6.0000000   6.0000000

  Atom       121         122         123         124         125         126         127         128         129         130
 IAtWgt=          16          16          12           1           1           1           1           1           1           1
 AtmWgt=  15.9949146  15.9949146  12.0000000   1.0078250   1.0078250   1.0078250   1.0078250   1.0078250   1.0078250   1.0078250
 NucSpn=           0           0           0           1           1           1           1           1           1           1
 AtZEff=  -0.0000000  -0.0000000  -0.0000000  -0.0000000  -0.0000000  -0.0000000  -0.0000000  -0.0000000  -0.0000000  -0.0000000
 NQMom=    0.0000000   0.0000000   0.0000000   0.0000000   0.0000000   0.0000000   0.0000000   0.0000000   0.0000000   0.0000000
 NMagM=    0.0000000   0.0000000   0.0000000   2.7928460   2.7928460   2.7928460   2.7928460   2.7928460   2.7928460   2.7928460
 AtZNuc=   8.0000000   8.0000000   6.0000000   1.0000000   1.0000000   1.0000000   1.0000000   1.0000000   1.0000000   1.0000000

  Atom       131         132         133         134         135         136         137         138         139         140
 IAtWgt=           1           1           1           1           1           1           1           1           1           1
 AtmWgt=   1.0078250   1.0078250   1.0078250   1.0078250   1.0078250   1.0078250   1.0078250   1.0078250   1.0078250   1.0078250
 NucSpn=           1           1           1           1           1           1           1           1           1           1
 AtZEff=  -0.0000000  -0.0000000  -0.0000000  -0.0000000  -0.0000000  -0.0000000  -0.0000000  -0.0000000  -0.0000000  -0.0000000
 NQMom=    0.0000000   0.0000000   0.0000000   0.0000000   0.0000000   0.0000000   0.0000000   0.0000000   0.0000000   0.0000000
 NMagM=    2.7928460   2.7928460   2.7928460   2.7928460   2.7928460   2.7928460   2.7928460   2.7928460   2.7928460   2.7928460
 AtZNuc=   1.0000000   1.0000000   1.0000000   1.0000000   1.0000000   1.0000000   1.0000000   1.0000000   1.0000000   1.0000000

  Atom       141         142         143         144         145         146         147         148         149         150
 IAtWgt=           1           1           1           1           1           1           1           1           1           1
 AtmWgt=   1.0078250   1.0078250   1.0078250   1.0078250   1.0078250   1.0078250   1.0078250   1.0078250   1.0078250   1.0078250
 NucSpn=           1           1           1           1           1           1           1           1           1           1
 AtZEff=  -0.0000000  -0.0000000  -0.0000000  -0.0000000  -0.0000000  -0.0000000  -0.0000000  -0.0000000  -0.0000000  -0.0000000
 NQMom=    0.0000000   0.0000000   0.0000000   0.0000000   0.0000000   0.0000000   0.0000000   0.0000000   0.0000000   0.0000000
 NMagM=    2.7928460   2.7928460   2.7928460   2.7928460   2.7928460   2.7928460   2.7928460   2.7928460   2.7928460   2.7928460
 AtZNuc=   1.0000000   1.0000000   1.0000000   1.0000000   1.0000000   1.0000000   1.0000000   1.0000000   1.0000000   1.0000000

  Atom       151         152         153         154         155         156         157         158
 IAtWgt=           1           1           1           1           1           1           1           1
 AtmWgt=   1.0078250   1.0078250   1.0078250   1.0078250   1.0078250   1.0078250   1.0078250   1.0078250
 NucSpn=           1           1           1           1           1           1           1           1
 AtZEff=  -0.0000000  -0.0000000  -0.0000000  -0.0000000  -0.0000000  -0.0000000  -0.0000000  -0.0000000
 NQMom=    0.0000000   0.0000000   0.0000000   0.0000000   0.0000000   0.0000000   0.0000000   0.0000000
 NMagM=    2.7928460   2.7928460   2.7928460   2.7928460   2.7928460   2.7928460   2.7928460   2.7928460
 AtZNuc=   1.0000000   1.0000000   1.0000000   1.0000000   1.0000000   1.0000000   1.0000000   1.0000000
 Leave Link  101 at Fri Sep 10 08:48:10 2021, MaxMem= 23488102400 cpu:               3.6 elap:               0.2
 (Enter /sw/apps/gaussian-16.0/g16/l202.exe)
 Stoichiometry    C68H72Mg2N8O8
 Framework group  C1[X(C68H72Mg2N8O8)]
 Deg. of freedom   468
 Full point group                 C1      NOp   1
 Largest Abelian subgroup         C1      NOp   1
 Largest concise Abelian subgroup C1      NOp   1
                         Standard orientation:                         
 ---------------------------------------------------------------------
 Center     Atomic      Atomic             Coordinates (Angstroms)
 Number     Number       Type             X           Y           Z
 ---------------------------------------------------------------------
      1         12           0        5.525990    0.355786    0.802587
      2          6           0        5.870971   -2.666995   -1.083148
      3          6           0        6.766430    2.013697   -1.909554
      4          6           0        5.658289    2.967806    2.596039
      5          6           0        5.403594   -1.621147    3.670062
      6          7           0        6.195797   -0.347711   -1.186659
      7          6           0        6.220848   -1.523982   -1.805472
      8          6           0        6.581681   -1.419079   -3.317480
      9          6           0        7.372943   -0.035152   -3.292017
     10          6           0        6.715797    0.598072   -2.078300
     11          6           0        8.865091   -0.191436   -3.017114
     12          6           0        5.310363   -1.335460   -4.227693
     13          6           0        5.560748   -1.558813   -5.721940
     14          1           0        4.550578   -2.254350   -6.504968
     15          7           0        5.655511    2.258542    0.287229
     16          6           0        6.174255    2.752642   -0.862578
     17          6           0        6.041098    4.222541   -0.771217
     18          6           0        5.576757    4.552705    0.604818
     19          6           0        5.637535    3.258130    1.233913
     20          6           0        6.294511    5.144912   -1.923937
     21          6           0        5.156539    5.833747    1.253264
     22          8           0        5.012440    5.940013    2.519169
     23          6           0        5.001744    6.999853    0.364850
     24          7           0        5.751119    0.658745    2.855674
     25          6           0        5.716660    1.888933    3.379538
     26          6           0        5.613287    1.842763    4.875239
     27          6           0        5.338230    0.315730    5.252419
     28          6           0        5.417307   -0.296133    3.831982
     29          6           0        6.841149    2.345818    5.646796
     30          6           0        4.085658    0.019004    6.114647
     31          6           0        2.833602    0.315643    5.320003
     32          7           0        5.440022   -1.768845    1.238011
     33          6           0        5.418431   -2.369653    2.504991
     34          6           0        5.469914   -3.827832    2.292548
     35          6           0        5.535027   -3.974446    0.908311
     36          6           0        5.551344   -2.688674    0.296090
     37          6           0        5.511857   -4.817791    3.313652
     38          6           0        5.619463   -4.917723   -0.194846
     39          8           0        5.549521   -6.143523   -0.294929
     40          6           0        5.963193   -4.107334   -1.521852
     41          6           0        5.021832   -4.576392   -2.597553
     42          8           0        3.798199   -4.342777   -2.523309
     43          8           0        5.731112   -5.012224   -3.649939
     44          6           0        4.856819   -5.464757   -4.764829
     45          1           0        7.361310    2.607377   -2.606406
     46          1           0        5.592774    3.840637    3.248964
     47          1           0        5.283799   -2.302924    4.514031
     48          1           0        7.231804   -2.212903   -3.685728
     49          1           0        7.178039    0.561506   -4.182935
     50          1           0        9.116516   -1.219215   -2.755621
     51          1           0        9.078892    0.476860   -2.182751
     52          1           0        9.454449    0.178954   -3.856307
     53          1           0        4.952348   -0.306225   -4.251383
     54          1           0        4.542834   -2.029341   -3.883084
     55          1           0        6.546291   -1.989611   -5.900900
     56          1           0        5.597644   -0.585482   -6.211292
     57          1           0        6.781017    4.628601   -2.750544
     58          1           0        7.029856    5.876833   -1.590367
     59          1           0        5.387691    5.656077   -2.247543
     60          1           0        5.948210    7.196358   -0.139270
     61          1           0        4.610752    7.803106    0.988356
     62          1           0        4.282820    6.754751   -0.417469
     63          1           0        4.783341    2.453129    5.228891
     64          1           0        6.160934   -0.120001    5.819845
     65          1           0        6.619977    3.156854    6.341065
     66          1           0        7.595245    2.647537    4.920438
     67          1           0        7.374757    1.578577    6.207172
     68          1           0        4.068454    0.663593    6.992801
     69          1           0        4.035819   -1.013642    6.460202
     70          1           0        2.707944    1.389274    5.455500
     71          1           0        1.984205   -0.231680    5.730090
     72          1           0        2.986161    0.137218    4.255402
     73          1           0        4.824012   -5.604583    3.004144
     74          1           0        5.228767   -4.401824    4.280314
     75          1           0        6.562630   -5.104423    3.273971
     76          1           0        7.002690   -4.327284   -1.763079
     77          1           0        5.139448   -6.491406   -4.997953
     78          1           0        4.953779   -4.721164   -5.556077
     79          1           0        3.799852   -5.591065   -4.527751
     80         12           0       -4.988335    0.634762   -0.414349
     81          6           0       -7.687523   -1.608413    0.335074
     82          6           0       -7.339414    2.882838   -1.440612
     83          6           0       -2.628722    2.455613   -1.502536
     84          6           0       -2.872367   -2.134411   -0.419402
     85          7           0       -7.196478    0.534314   -0.493573
     86          6           0       -8.115325   -0.345478   -0.124727
     87          6           0       -9.572980    0.185292   -0.180272
     88          6           0       -9.364423    1.347421   -1.268770
     89          6           0       -7.883177    1.637671   -1.035679
     90          6           0       -9.537828    0.868971   -2.700680
     91          6           0      -10.050190    0.766903    1.196685
     92          6           0      -11.556042    1.018270    1.301442
     93          1           0      -12.211506    0.793213    2.586822
     94          7           0       -4.963010    2.565278   -0.873753
     95          6           0       -6.012838    3.326749   -1.246982
     96          6           0       -5.467588    4.670642   -1.493586
     97          6           0       -3.984327    4.600427   -1.394950
     98          6           0       -3.795857    3.168909   -1.271105
     99          6           0       -6.337608    5.874718   -1.709670
    100          6           0       -2.912083    5.647202   -1.422128
    101          8           0       -1.675179    5.340691   -1.559758
    102          6           0       -3.360708    7.046552   -1.376731
    103          7           0       -3.074393    0.201219   -1.100769
    104          6           0       -2.231695    1.183487   -1.465371
    105          6           0       -0.830039    0.655906   -1.658757
    106          6           0       -0.857073   -0.846385   -1.111051
    107          6           0       -2.357344   -0.961819   -0.762829
    108          6           0       -0.308436    0.664200   -3.095502
    109          6           0        0.185418   -1.216854   -0.020802
    110          6           0       -0.121813   -0.475295    1.260245
    111          7           0       -5.168994   -1.461646    0.076042
    112          6           0       -4.165302   -2.450127   -0.021868
    113          6           0       -4.794896   -3.744368    0.311270
    114          6           0       -6.137104   -3.419724    0.559426
    115          6           0       -6.334792   -2.024845    0.373034
    116          6           0       -4.145262   -5.010890    0.307534
    117          6           0       -7.433973   -3.941470    0.926322
    118          8           0       -7.858112   -5.037558    1.290207
    119          6           0       -8.523041   -2.811540    0.674177
    120          6           0       -9.401923   -2.733420    1.892378
    121          8           0       -8.937439   -2.360204    2.983962
    122          8           0      -10.684468   -2.901375    1.521911
    123          6           0      -11.595896   -2.821059    2.694379
    124          1           0       -7.976444    3.570749   -1.997269
    125          1           0       -1.755936    3.054442   -1.772962
    126          1           0       -2.258463   -3.030115   -0.303155
    127          1           0      -10.303899   -0.530800   -0.536296
    128          1           0       -9.965908    2.221600   -1.033429
    129          1           0       -9.656713   -0.202936   -2.755700
    130          1           0       -8.642621    1.177719   -3.224444
    131          1           0      -10.365269    1.401358   -3.178423
    132          1           0       -9.680502    1.795355    1.298419
    133          1           0       -9.731361    0.139609    2.006302
    134          1           0      -12.113117    0.526585    0.494678
    135          1           0      -11.741750    2.083620    1.144771
    136          1           0       -7.380812    5.589451   -1.893409
    137          1           0       -6.013790    6.339046   -2.647436
    138          1           0       -6.250803    6.607116   -0.904242
    139          1           0       -4.019620    7.242051   -2.219395
    140          1           0       -2.448968    7.643860   -1.314766
    141          1           0       -3.957717    7.193299   -0.469729
    142          1           0       -0.117608    1.228894   -1.078044
    143          1           0       -0.663256   -1.575451   -1.911506
    144          1           0        0.633319    1.232506   -3.214684
    145          1           0       -1.080407    1.068743   -3.736557
    146          1           0       -0.138468   -0.319075   -3.530789
    147          1           0        1.185001   -0.901503   -0.329884
    148          1           0        0.233288   -2.280520    0.187358
    149          1           0        0.341908    0.502134    1.096872
    150          1           0        0.321392   -0.984761    2.113508
    151          1           0       -1.200224   -0.313872    1.372610
    152          1           0       -4.471205   -5.530604    1.198682
    153          1           0       -3.062947   -4.902504    0.282997
    154          1           0       -4.537201   -5.428376   -0.623794
    155          1           0       -9.084299   -3.090836   -0.218318
    156          1           0      -12.181243   -3.745649    2.707951
    157          1           0      -12.153837   -1.873366    2.574677
    158          1           0      -11.146873   -2.840520    3.680503
 ---------------------------------------------------------------------
 Rotational constants (GHZ):           0.0264282           0.0098547           0.0088738
 Leave Link  202 at Fri Sep 10 08:48:10 2021, MaxMem= 23488102400 cpu:               0.2 elap:               0.0
 (Enter /sw/apps/gaussian-16.0/g16/l301.exe)
 Standard basis: def2SVP (5D, 7F)
 Ernie: Thresh=  0.10000D-02 Tol=  0.10000D-05 Strict=F.
 There are  1658 symmetry adapted cartesian basis functions of A   symmetry.
 There are  1572 symmetry adapted basis functions of A   symmetry.
  1572 basis functions,  2678 primitive gaussians,  1658 cartesian basis functions
   312 alpha electrons      312 beta electrons
       nuclear repulsion energy     15050.2213192439 Hartrees.
 IExCor=20419 DFT=T Ex+Corr=CAM-B3LYP ExCW=0 ScaHFX=  1.000000
 ScaDFX=  1.000000  1.000000  1.000000  0.810000 ScalE2=  1.000000  1.000000
 IRadAn=      5 IRanWt=     -1 IRanGd=            0 ICorTp=0 IEmpDi=  4
 HFx  wShort=  0.000000 wLong=  0.330000 cFull=  0.190000 cShort=  0.000000 cLong=  0.460000
 DFx  wShort=  0.000000 wLong=  0.330000 cFull=  0.190000 cShort=  0.000000 cLong=  0.460000
 NAtoms=  158 NActive=  158 NUniq=  158 SFac= 1.00D+00 NAtFMM=   60 NAOKFM=T Big=T
 Integral buffers will be    131072 words long.
 Raffenetti 1 integral format.
 Two-electron integral symmetry is turned on.
 Leave Link  301 at Fri Sep 10 08:48:10 2021, MaxMem= 23488102400 cpu:               1.4 elap:               0.1
 (Enter /sw/apps/gaussian-16.0/g16/l302.exe)
 NPDir=0 NMtPBC=     1 NCelOv=     1 NCel=       1 NClECP=     1 NCelD=      1
         NCelK=      1 NCelE2=     1 NClLst=     1 CellRange=     0.0.
 One-electron integrals computed using PRISM.
 One-electron integral symmetry used in STVInt
   1 Symmetry operations used in ECPInt.
 ECPInt:  NShTT=  271216 NPrTT=  987664 LenC2=  139698 LenP2D=  299931.
 LDataN:  DoStor=T MaxTD1= 4 Len=   56
 NBasis=  1572 RedAO= T EigKep=  3.33D-04  NBF=  1572
 NBsUse=  1572 1.00D-06 EigRej= -1.00D+00 NBFU=  1572
 Precomputing XC quadrature grid using
 IXCGrd= 4 IRadAn=           5 IRanWt=          -1 IRanGd=           0 AccXCQ= 0.00D+00.
 Generated NRdTot=       0 NPtTot=           0 NUsed=           0 NTot=          32
 NSgBfM=  1386  1373  1373  1379  1386 MxSgAt=   158 MxSgA2=   158.
 Leave Link  302 at Fri Sep 10 08:48:15 2021, MaxMem= 23488102400 cpu:             126.7 elap:               5.3
 (Enter /sw/apps/gaussian-16.0/g16/l303.exe)
 DipDrv:  MaxL=1.
 Leave Link  303 at Fri Sep 10 08:48:15 2021, MaxMem= 23488102400 cpu:               9.9 elap:               0.5
 (Enter /sw/apps/gaussian-16.0/g16/l308.exe)
 Leave Link  308 at Fri Sep 10 08:48:16 2021, MaxMem= 23488102400 cpu:              16.5 elap:               0.8
 (Enter /sw/apps/gaussian-16.0/g16/l401.exe)
 ExpMin= 3.36D-02 ExpMax= 4.95D+03 ExpMxC= 7.45D+02 IAcc=3 IRadAn=         5 AccDes= 0.00D+00
 Harris functional with IExCor=20419 and IRadAn=       5 diagonalized for initial guess.
 HarFok:  IExCor=20419 AccDes= 0.00D+00 IRadAn=         5 IDoV= 1 UseB2=F ITyADJ=14
 ICtDFT=  3500011 ScaDFX=  1.000000  1.000000  1.000000  1.000000
 FoFCou: FMM=F IPFlag=           0 FMFlag=      100000 FMFlg1=        2001
         NFxFlg=           0 DoJE=T BraDBF=F KetDBF=T FulRan=T
         wScrn=  0.000000 ICntrl=       500 IOpCl=  0 I1Cent=   200000004 NGrid=           0
         NMat0=    1 NMatS0=      1 NMatT0=    0 NMatD0=    1 NMtDS0=    0 NMtDT0=    0
 Petite list used in FoFCou.
 Harris En= -3918.65856658989    
 JPrj=0 DoOrth=F DoCkMO=F.
 Leave Link  401 at Fri Sep 10 08:48:24 2021, MaxMem= 23488102400 cpu:             182.3 elap:               7.6
 (Enter /sw/apps/gaussian-16.0/g16/l502.exe)
 Integral symmetry usage will be decided dynamically.
 Closed shell SCF:
 Using DIIS extrapolation, IDIIS=  1040.
 NGot= 23488102400 LenX= 23482547354 LenY= 23479796732
 Requested convergence on RMS density matrix=1.00D-08 within 128 cycles.
 Requested convergence on MAX density matrix=1.00D-06.
 Requested convergence on             energy=1.00D-06.
 No special actions if energy rises.
 Fock matrices will be formed incrementally for  20 cycles.

 Cycle   1  Pass 1  IDiag  1:
 FoFJK:  IHMeth= 1 ICntrl=       0 DoSepK=T KAlg= 0 I1Cent=           0 FoldK=F
 IRaf=         1 NMat=       1 IRICut=       1 DoRegI=T DoRafI=F ISym2E= 0 IDoP0=0 IntGTp=1.
 FoFCou: FMM=T IPFlag=           0 FMFlag=      100000 FMFlg1=        2001
         NFxFlg=           0 DoJE=T BraDBF=F KetDBF=F FulRan=T
         wScrn=  0.000000 ICntrl=       500 IOpCl=  0 I1Cent=           0 NGrid=           0
         NMat0=    1 NMatS0=      1 NMatT0=    0 NMatD0=    1 NMtDS0=    0 NMtDT0=    0
 Symmetry not used in FoFCou.
 FMM levels:  10  Number of levels for PrismC:   9
 E= -4068.94973495173    
 DIIS: error= 2.02D-02 at cycle   1 NSaved=   1.
 NSaved= 1 IEnMin= 1 EnMin= -4068.94973495173     IErMin= 1 ErrMin= 2.02D-02
 ErrMax= 2.02D-02  0.00D+00 EMaxC= 1.00D-01 BMatC= 1.69D+00 BMatP= 1.69D+00
 IDIUse=3 WtCom= 7.98D-01 WtEn= 2.02D-01
 Coeff-Com:  0.100D+01
 Coeff-En:   0.100D+01
 Coeff:      0.100D+01
 Gap=     0.120 Goal=   None    Shift=    0.000
 GapD=    0.120 DampG=1.000 DampE=0.500 DampFc=0.5000 IDamp=-1.
 Damping current iteration by 5.00D-01
 RMSDP=1.57D-03 MaxDP=1.35D-01              OVMax= 2.01D-01

 Cycle   2  Pass 1  IDiag  1:
 RMSU=  7.71D-04    CP:  9.82D-01
 E= -4069.33830223097     Delta-E=       -0.388567279242 Rises=F Damp=T
 DIIS: error= 1.26D-02 at cycle   2 NSaved=   2.
 NSaved= 2 IEnMin= 2 EnMin= -4069.33830223097     IErMin= 2 ErrMin= 1.26D-02
 ErrMax= 1.26D-02  0.00D+00 EMaxC= 1.00D-01 BMatC= 3.07D-01 BMatP= 1.69D+00
 IDIUse=3 WtCom= 8.74D-01 WtEn= 1.26D-01
 Coeff-Com: -0.212D+00 0.121D+01
 Coeff-En:   0.000D+00 0.100D+01
 Coeff:     -0.185D+00 0.119D+01
 Gap=     0.138 Goal=   None    Shift=    0.000
 RMSDP=7.68D-04 MaxDP=9.41D-02 DE=-3.89D-01 OVMax= 1.91D-01

 Cycle   3  Pass 1  IDiag  1:
 RMSU=  7.36D-04    CP:  9.68D-01  1.24D+00
 E= -4069.62523695833     Delta-E=       -0.286934727363 Rises=F Damp=F
 DIIS: error= 1.59D-02 at cycle   3 NSaved=   3.
 NSaved= 3 IEnMin= 3 EnMin= -4069.62523695833     IErMin= 2 ErrMin= 1.26D-02
 ErrMax= 1.59D-02  0.00D+00 EMaxC= 1.00D-01 BMatC= 2.05D-01 BMatP= 3.07D-01
 IDIUse=3 WtCom= 8.41D-01 WtEn= 1.59D-01
 Coeff-Com: -0.268D+00 0.654D+00 0.614D+00
 Coeff-En:   0.000D+00 0.000D+00 0.100D+01
 Coeff:     -0.225D+00 0.550D+00 0.675D+00
 Gap=     0.122 Goal=   None    Shift=    0.000
 RMSDP=5.18D-04 MaxDP=4.75D-02 DE=-2.87D-01 OVMax= 1.49D-01

 Cycle   4  Pass 1  IDiag  1:
 RMSU=  2.71D-04    CP:  9.65D-01  1.55D+00  4.98D-01
 E= -4069.76332431717     Delta-E=       -0.138087358839 Rises=F Damp=F
 DIIS: error= 7.44D-03 at cycle   4 NSaved=   4.
 NSaved= 4 IEnMin= 4 EnMin= -4069.76332431717     IErMin= 4 ErrMin= 7.44D-03
 ErrMax= 7.44D-03  0.00D+00 EMaxC= 1.00D-01 BMatC= 5.24D-02 BMatP= 2.05D-01
 IDIUse=3 WtCom= 9.26D-01 WtEn= 7.44D-02
 Coeff-Com: -0.110D+00 0.228D+00 0.410D+00 0.471D+00
 Coeff-En:   0.000D+00 0.000D+00 0.228D+00 0.772D+00
 Coeff:     -0.102D+00 0.211D+00 0.397D+00 0.493D+00
 Gap=     0.121 Goal=   None    Shift=    0.000
 RMSDP=2.08D-04 MaxDP=2.05D-02 DE=-1.38D-01 OVMax= 6.86D-02

 Cycle   5  Pass 1  IDiag  1:
 RMSU=  7.89D-05    CP:  9.64D-01  1.49D+00  6.87D-01  5.39D-01
 E= -4069.81119624297     Delta-E=       -0.047871925799 Rises=F Damp=F
 DIIS: error= 7.29D-04 at cycle   5 NSaved=   5.
 NSaved= 5 IEnMin= 5 EnMin= -4069.81119624297     IErMin= 5 ErrMin= 7.29D-04
 ErrMax= 7.29D-04  0.00D+00 EMaxC= 1.00D-01 BMatC= 1.36D-03 BMatP= 5.24D-02
 IDIUse=3 WtCom= 9.93D-01 WtEn= 7.29D-03
 Coeff-Com: -0.382D-01 0.751D-01 0.174D+00 0.257D+00 0.532D+00
 Coeff-En:   0.000D+00 0.000D+00 0.000D+00 0.000D+00 0.100D+01
 Coeff:     -0.379D-01 0.746D-01 0.173D+00 0.255D+00 0.535D+00
 Gap=     0.120 Goal=   None    Shift=    0.000
 RMSDP=4.53D-05 MaxDP=4.21D-03 DE=-4.79D-02 OVMax= 1.93D-02

 Cycle   6  Pass 1  IDiag  1:
 RMSU=  3.25D-05    CP:  9.64D-01  1.49D+00  6.78D-01  6.17D-01  7.23D-01
 E= -4069.81242781590     Delta-E=       -0.001231572933 Rises=F Damp=F
 DIIS: error= 2.02D-04 at cycle   6 NSaved=   6.
 NSaved= 6 IEnMin= 6 EnMin= -4069.81242781590     IErMin= 6 ErrMin= 2.02D-04
 ErrMax= 2.02D-04  0.00D+00 EMaxC= 1.00D-01 BMatC= 1.98D-04 BMatP= 1.36D-03
 IDIUse=3 WtCom= 9.98D-01 WtEn= 2.02D-03
 Coeff-Com:  0.182D-02-0.588D-02 0.135D-01 0.432D-01 0.301D+00 0.646D+00
 Coeff-En:   0.000D+00 0.000D+00 0.000D+00 0.000D+00 0.112D+00 0.888D+00
 Coeff:      0.182D-02-0.587D-02 0.134D-01 0.431D-01 0.301D+00 0.647D+00
 Gap=     0.121 Goal=   None    Shift=    0.000
 RMSDP=1.75D-05 MaxDP=1.22D-03 DE=-1.23D-03 OVMax= 8.38D-03

 Cycle   7  Pass 1  IDiag  1:
 RMSU=  1.14D-05    CP:  9.64D-01  1.49D+00  6.84D-01  6.15D-01  8.35D-01
                    CP:  7.36D-01
 E= -4069.81264860160     Delta-E=       -0.000220785700 Rises=F Damp=F
 DIIS: error= 9.99D-05 at cycle   7 NSaved=   7.
 NSaved= 7 IEnMin= 7 EnMin= -4069.81264860160     IErMin= 7 ErrMin= 9.99D-05
 ErrMax= 9.99D-05  0.00D+00 EMaxC= 1.00D-01 BMatC= 2.65D-05 BMatP= 1.98D-04
 IDIUse=1 WtCom= 1.00D+00 WtEn= 0.00D+00
 Coeff-Com:  0.457D-02-0.101D-01-0.869D-02-0.261D-02 0.106D+00 0.345D+00
 Coeff-Com:  0.565D+00
 Coeff:      0.457D-02-0.101D-01-0.869D-02-0.261D-02 0.106D+00 0.345D+00
 Coeff:      0.565D+00
 Gap=     0.121 Goal=   None    Shift=    0.000
 RMSDP=6.88D-06 MaxDP=1.08D-03 DE=-2.21D-04 OVMax= 3.37D-03

 Cycle   8  Pass 1  IDiag  1:
 RMSU=  4.85D-06    CP:  9.64D-01  1.50D+00  6.84D-01  6.20D-01  8.35D-01
                    CP:  8.60D-01  8.04D-01
 E= -4069.81268114987     Delta-E=       -0.000032548265 Rises=F Damp=F
 DIIS: error= 4.95D-05 at cycle   8 NSaved=   8.
 NSaved= 8 IEnMin= 8 EnMin= -4069.81268114987     IErMin= 8 ErrMin= 4.95D-05
 ErrMax= 4.95D-05  0.00D+00 EMaxC= 1.00D-01 BMatC= 4.83D-06 BMatP= 2.65D-05
 IDIUse=1 WtCom= 1.00D+00 WtEn= 0.00D+00
 Coeff-Com:  0.222D-02-0.441D-02-0.787D-02-0.120D-01-0.947D-02 0.354D-01
 Coeff-Com:  0.314D+00 0.683D+00
 Coeff:      0.222D-02-0.441D-02-0.787D-02-0.120D-01-0.947D-02 0.354D-01
 Coeff:      0.314D+00 0.683D+00
 Gap=     0.121 Goal=   None    Shift=    0.000
 RMSDP=3.38D-06 MaxDP=3.91D-04 DE=-3.25D-05 OVMax= 1.15D-03

 Cycle   9  Pass 1  IDiag  1:
 RMSU=  1.98D-06    CP:  9.64D-01  1.50D+00  6.85D-01  6.21D-01  8.52D-01
                    CP:  8.87D-01  9.92D-01  9.67D-01
 E= -4069.81268903396     Delta-E=       -0.000007884097 Rises=F Damp=F
 DIIS: error= 1.90D-05 at cycle   9 NSaved=   9.
 NSaved= 9 IEnMin= 9 EnMin= -4069.81268903396     IErMin= 9 ErrMin= 1.90D-05
 ErrMax= 1.90D-05  0.00D+00 EMaxC= 1.00D-01 BMatC= 7.61D-07 BMatP= 4.83D-06
 IDIUse=1 WtCom= 1.00D+00 WtEn= 0.00D+00
 Coeff-Com:  0.493D-03-0.825D-03-0.279D-02-0.609D-02-0.204D-01-0.390D-01
 Coeff-Com:  0.895D-01 0.345D+00 0.634D+00
 Coeff:      0.493D-03-0.825D-03-0.279D-02-0.609D-02-0.204D-01-0.390D-01
 Coeff:      0.895D-01 0.345D+00 0.634D+00
 Gap=     0.121 Goal=   None    Shift=    0.000
 RMSDP=1.45D-06 MaxDP=1.52D-04 DE=-7.88D-06 OVMax= 7.85D-04

 Cycle  10  Pass 1  IDiag  1:
 RMSU=  9.60D-07    CP:  9.64D-01  1.50D+00  6.85D-01  6.22D-01  8.55D-01
                    CP:  8.99D-01  1.04D+00  1.13D+00  1.05D+00
 E= -4069.81269071913     Delta-E=       -0.000001685166 Rises=F Damp=F
 DIIS: error= 8.35D-06 at cycle  10 NSaved=  10.
 NSaved=10 IEnMin=10 EnMin= -4069.81269071913     IErMin=10 ErrMin= 8.35D-06
 ErrMax= 8.35D-06  0.00D+00 EMaxC= 1.00D-01 BMatC= 1.60D-07 BMatP= 7.61D-07
 IDIUse=1 WtCom= 1.00D+00 WtEn= 0.00D+00
 Coeff-Com: -0.415D-03 0.873D-03 0.116D-02 0.989D-03-0.378D-02-0.305D-01
 Coeff-Com: -0.441D-01-0.631D-01 0.230D+00 0.909D+00
 Coeff:     -0.415D-03 0.873D-03 0.116D-02 0.989D-03-0.378D-02-0.305D-01
 Coeff:     -0.441D-01-0.631D-01 0.230D+00 0.909D+00
 Gap=     0.121 Goal=   None    Shift=    0.000
 RMSDP=1.22D-06 MaxDP=1.22D-04 DE=-1.69D-06 OVMax= 6.64D-04

 Cycle  11  Pass 1  IDiag  1:
 RMSU=  5.41D-07    CP:  9.64D-01  1.50D+00  6.85D-01  6.22D-01  8.57D-01
                    CP:  9.08D-01  1.08D+00  1.24D+00  1.38D+00  1.35D+00
 E= -4069.81269150244     Delta-E=       -0.000000783308 Rises=F Damp=F
 DIIS: error= 4.10D-06 at cycle  11 NSaved=  11.
 NSaved=11 IEnMin=11 EnMin= -4069.81269150244     IErMin=11 ErrMin= 4.10D-06
 ErrMax= 4.10D-06  0.00D+00 EMaxC= 1.00D-01 BMatC= 6.69D-08 BMatP= 1.60D-07
 IDIUse=1 WtCom= 1.00D+00 WtEn= 0.00D+00
 Coeff-Com: -0.340D-03 0.663D-03 0.135D-02 0.210D-02 0.411D-02-0.871D-02
 Coeff-Com: -0.415D-01-0.127D+00-0.409D-01 0.496D+00 0.714D+00
 Coeff:     -0.340D-03 0.663D-03 0.135D-02 0.210D-02 0.411D-02-0.871D-02
 Coeff:     -0.415D-01-0.127D+00-0.409D-01 0.496D+00 0.714D+00
 Gap=     0.121 Goal=   None    Shift=    0.000
 RMSDP=6.94D-07 MaxDP=7.02D-05 DE=-7.83D-07 OVMax= 4.09D-04

 Cycle  12  Pass 1  IDiag  1:
 RMSU=  2.72D-07    CP:  9.64D-01  1.50D+00  6.85D-01  6.22D-01  8.58D-01
                    CP:  9.11D-01  1.10D+00  1.30D+00  1.54D+00  1.74D+00
                    CP:  1.17D+00
 E= -4069.81269177221     Delta-E=       -0.000000269774 Rises=F Damp=F
 DIIS: error= 2.50D-06 at cycle  12 NSaved=  12.
 NSaved=12 IEnMin=12 EnMin= -4069.81269177221     IErMin=12 ErrMin= 2.50D-06
 ErrMax= 2.50D-06  0.00D+00 EMaxC= 1.00D-01 BMatC= 1.52D-08 BMatP= 6.69D-08
 IDIUse=1 WtCom= 1.00D+00 WtEn= 0.00D+00
 Coeff-Com: -0.176D-04 0.181D-04 0.246D-03 0.600D-03 0.339D-02 0.353D-02
 Coeff-Com:  0.525D-03-0.367D-01-0.746D-01-0.374D-01 0.255D+00 0.885D+00
 Coeff:     -0.176D-04 0.181D-04 0.246D-03 0.600D-03 0.339D-02 0.353D-02
 Coeff:      0.525D-03-0.367D-01-0.746D-01-0.374D-01 0.255D+00 0.885D+00
 Gap=     0.121 Goal=   None    Shift=    0.000
 RMSDP=4.27D-07 MaxDP=3.05D-05 DE=-2.70D-07 OVMax= 2.66D-04

 Cycle  13  Pass 1  IDiag  1:
 RMSU=  1.67D-07    CP:  9.64D-01  1.50D+00  6.85D-01  6.22D-01  8.58D-01
                    CP:  9.11D-01  1.10D+00  1.33D+00  1.64D+00  1.95D+00
                    CP:  1.57D+00  1.24D+00
 E= -4069.81269186381     Delta-E=       -0.000000091593 Rises=F Damp=F
 DIIS: error= 1.38D-06 at cycle  13 NSaved=  13.
 NSaved=13 IEnMin=13 EnMin= -4069.81269186381     IErMin=13 ErrMin= 1.38D-06
 ErrMax= 1.38D-06  0.00D+00 EMaxC= 1.00D-01 BMatC= 8.54D-09 BMatP= 1.52D-08
 IDIUse=1 WtCom= 1.00D+00 WtEn= 0.00D+00
 Coeff-Com:  0.118D-03-0.242D-03-0.358D-03-0.432D-03 0.683D-03 0.486D-02
 Coeff-Com:  0.180D-01 0.232D-01-0.322D-01-0.235D+00-0.168D+00 0.576D+00
 Coeff-Com:  0.813D+00
 Coeff:      0.118D-03-0.242D-03-0.358D-03-0.432D-03 0.683D-03 0.486D-02
 Coeff:      0.180D-01 0.232D-01-0.322D-01-0.235D+00-0.168D+00 0.576D+00
 Coeff:      0.813D+00
 Gap=     0.121 Goal=   None    Shift=    0.000
 RMSDP=3.53D-07 MaxDP=2.37D-05 DE=-9.16D-08 OVMax= 2.29D-04

 Cycle  14  Pass 1  IDiag  1:
 RMSU=  7.78D-08    CP:  9.64D-01  1.50D+00  6.85D-01  6.22D-01  8.59D-01
                    CP:  9.12D-01  1.11D+00  1.35D+00  1.72D+00  2.15D+00
                    CP:  1.83D+00  1.76D+00  1.13D+00
 E= -4069.81269190286     Delta-E=       -0.000000039050 Rises=F Damp=F
 DIIS: error= 6.78D-07 at cycle  14 NSaved=  14.
 NSaved=14 IEnMin=14 EnMin= -4069.81269190286     IErMin=14 ErrMin= 6.78D-07
 ErrMax= 6.78D-07  0.00D+00 EMaxC= 1.00D-01 BMatC= 1.26D-09 BMatP= 8.54D-09
 IDIUse=1 WtCom= 1.00D+00 WtEn= 0.00D+00
 Coeff-Com:  0.675D-04-0.133D-03-0.249D-03-0.384D-03-0.420D-03 0.121D-02
 Coeff-Com:  0.991D-02 0.196D-01 0.509D-02-0.101D+00-0.146D+00 0.807D-01
 Coeff-Com:  0.403D+00 0.728D+00
 Coeff:      0.675D-04-0.133D-03-0.249D-03-0.384D-03-0.420D-03 0.121D-02
 Coeff:      0.991D-02 0.196D-01 0.509D-02-0.101D+00-0.146D+00 0.807D-01
 Coeff:      0.403D+00 0.728D+00
 Gap=     0.121 Goal=   None    Shift=    0.000
 RMSDP=1.07D-07 MaxDP=7.27D-06 DE=-3.91D-08 OVMax= 6.45D-05

 Cycle  15  Pass 1  IDiag  1:
 RMSU=  3.82D-08    CP:  9.64D-01  1.50D+00  6.85D-01  6.22D-01  8.59D-01
                    CP:  9.11D-01  1.11D+00  1.36D+00  1.73D+00  2.19D+00
                    CP:  1.94D+00  1.91D+00  1.37D+00  1.05D+00
 E= -4069.81269190725     Delta-E=       -0.000000004391 Rises=F Damp=F
 DIIS: error= 3.18D-07 at cycle  15 NSaved=  15.
 NSaved=15 IEnMin=15 EnMin= -4069.81269190725     IErMin=15 ErrMin= 3.18D-07
 ErrMax= 3.18D-07  0.00D+00 EMaxC= 1.00D-01 BMatC= 2.25D-10 BMatP= 1.26D-09
 IDIUse=1 WtCom= 1.00D+00 WtEn= 0.00D+00
 Coeff-Com:  0.647D-05-0.111D-04-0.369D-04-0.867D-04-0.285D-03-0.515D-03
 Coeff-Com:  0.112D-02 0.295D-02 0.858D-02 0.352D-03-0.305D-01-0.717D-01
 Coeff-Com:  0.277D-01 0.305D+00 0.758D+00
 Coeff:      0.647D-05-0.111D-04-0.369D-04-0.867D-04-0.285D-03-0.515D-03
 Coeff:      0.112D-02 0.295D-02 0.858D-02 0.352D-03-0.305D-01-0.717D-01
 Coeff:      0.277D-01 0.305D+00 0.758D+00
 Gap=     0.121 Goal=   None    Shift=    0.000
 RMSDP=3.93D-08 MaxDP=2.99D-06 DE=-4.39D-09 OVMax= 3.07D-05

 Cycle  16  Pass 1  IDiag  1:
 RMSU=  1.88D-08    CP:  9.64D-01  1.50D+00  6.85D-01  6.22D-01  8.59D-01
                    CP:  9.11D-01  1.11D+00  1.36D+00  1.74D+00  2.21D+00
                    CP:  1.96D+00  1.96D+00  1.45D+00  1.25D+00  1.14D+00
 E= -4069.81269190820     Delta-E=       -0.000000000953 Rises=F Damp=F
 DIIS: error= 1.98D-07 at cycle  16 NSaved=  16.
 NSaved=16 IEnMin=16 EnMin= -4069.81269190820     IErMin=16 ErrMin= 1.98D-07
 ErrMax= 1.98D-07  0.00D+00 EMaxC= 1.00D-01 BMatC= 8.17D-11 BMatP= 2.25D-10
 IDIUse=1 WtCom= 1.00D+00 WtEn= 0.00D+00
 Coeff-Com: -0.134D-04 0.272D-04 0.433D-04 0.473D-04-0.360D-04-0.611D-03
 Coeff-Com: -0.171D-02-0.393D-02 0.380D-02 0.243D-01 0.205D-01-0.603D-01
 Coeff-Com: -0.813D-01-0.322D-01 0.393D+00 0.738D+00
 Coeff:     -0.134D-04 0.272D-04 0.433D-04 0.473D-04-0.360D-04-0.611D-03
 Coeff:     -0.171D-02-0.393D-02 0.380D-02 0.243D-01 0.205D-01-0.603D-01
 Coeff:     -0.813D-01-0.322D-01 0.393D+00 0.738D+00
 Gap=     0.121 Goal=   None    Shift=    0.000
 RMSDP=2.27D-08 MaxDP=1.70D-06 DE=-9.53D-10 OVMax= 1.44D-05

 Cycle  17  Pass 1  IDiag  1:
 RMSU=  1.05D-08    CP:  9.64D-01  1.50D+00  6.85D-01  6.22D-01  8.59D-01
                    CP:  9.11D-01  1.11D+00  1.36D+00  1.74D+00  2.21D+00
                    CP:  1.97D+00  1.99D+00  1.49D+00  1.35D+00  1.43D+00
                    CP:  1.23D+00
 E= -4069.81269190830     Delta-E=       -0.000000000102 Rises=F Damp=F
 DIIS: error= 8.70D-08 at cycle  17 NSaved=  17.
 NSaved=17 IEnMin=17 EnMin= -4069.81269190830     IErMin=17 ErrMin= 8.70D-08
 ErrMax= 8.70D-08  0.00D+00 EMaxC= 1.00D-01 BMatC= 1.75D-11 BMatP= 8.17D-11
 IDIUse=1 WtCom= 1.00D+00 WtEn= 0.00D+00
 Coeff-Com: -0.716D-05 0.140D-04 0.280D-04 0.406D-04 0.752D-04-0.127D-03
 Coeff-Com: -0.847D-03-0.269D-02-0.165D-03 0.946D-02 0.171D-01-0.670D-02
 Coeff-Com: -0.355D-01-0.973D-01-0.271D-01 0.290D+00 0.854D+00
 Coeff:     -0.716D-05 0.140D-04 0.280D-04 0.406D-04 0.752D-04-0.127D-03
 Coeff:     -0.847D-03-0.269D-02-0.165D-03 0.946D-02 0.171D-01-0.670D-02
 Coeff:     -0.355D-01-0.973D-01-0.271D-01 0.290D+00 0.854D+00
 Gap=     0.121 Goal=   None    Shift=    0.000
 RMSDP=1.34D-08 MaxDP=1.06D-06 DE=-1.02D-10 OVMax= 1.05D-05

 Cycle  18  Pass 1  IDiag  1:
 RMSU=  5.04D-09    CP:  9.64D-01  1.50D+00  6.85D-01  6.22D-01  8.59D-01
                    CP:  9.11D-01  1.11D+00  1.36D+00  1.74D+00  2.21D+00
                    CP:  1.97D+00  1.99D+00  1.51D+00  1.41D+00  1.59D+00
                    CP:  1.62D+00  1.38D+00
 E= -4069.81269190855     Delta-E=       -0.000000000251 Rises=F Damp=F
 DIIS: error= 6.90D-08 at cycle  18 NSaved=  18.
 NSaved=18 IEnMin=18 EnMin= -4069.81269190855     IErMin=18 ErrMin= 6.90D-08
 ErrMax= 6.90D-08  0.00D+00 EMaxC= 1.00D-01 BMatC= 7.42D-12 BMatP= 1.75D-11
 IDIUse=1 WtCom= 1.00D+00 WtEn= 0.00D+00
 Coeff-Com:  0.142D-05-0.317D-05-0.226D-05 0.140D-05 0.607D-04 0.161D-03
 Coeff-Com:  0.306D-03 0.627D-04-0.121D-02-0.508D-02 0.412D-03 0.177D-01
 Coeff-Com:  0.163D-01-0.356D-01-0.157D+00-0.172D+00 0.384D+00 0.952D+00
 Coeff:      0.142D-05-0.317D-05-0.226D-05 0.140D-05 0.607D-04 0.161D-03
 Coeff:      0.306D-03 0.627D-04-0.121D-02-0.508D-02 0.412D-03 0.177D-01
 Coeff:      0.163D-01-0.356D-01-0.157D+00-0.172D+00 0.384D+00 0.952D+00
 Gap=     0.121 Goal=   None    Shift=    0.000
 RMSDP=1.12D-08 MaxDP=8.08D-07 DE=-2.51D-10 OVMax= 7.05D-06

 Cycle  19  Pass 1  IDiag  1:
 RMSU=  3.02D-09    CP:  9.64D-01  1.50D+00  6.85D-01  6.22D-01  8.59D-01
                    CP:  9.11D-01  1.11D+00  1.36D+00  1.74D+00  2.21D+00
                    CP:  1.98D+00  2.00D+00  1.52D+00  1.45D+00  1.73D+00
                    CP:  1.92D+00  1.93D+00  1.29D+00
 E= -4069.81269190859     Delta-E=       -0.000000000033 Rises=F Damp=F
 DIIS: error= 2.49D-08 at cycle  19 NSaved=  19.
 NSaved=19 IEnMin=19 EnMin= -4069.81269190859     IErMin=19 ErrMin= 2.49D-08
 ErrMax= 2.49D-08  0.00D+00 EMaxC= 1.00D-01 BMatC= 1.80D-12 BMatP= 7.42D-12
 IDIUse=1 WtCom= 1.00D+00 WtEn= 0.00D+00
 Coeff-Com:  0.293D-05-0.593D-05-0.974D-05-0.117D-04 0.164D-04 0.124D-03
 Coeff-Com:  0.453D-03 0.798D-03-0.557D-03-0.604D-02-0.499D-02 0.122D-01
 Coeff-Com:  0.214D-01 0.102D-01-0.775D-01-0.191D+00-0.178D-01 0.521D+00
 Coeff-Com:  0.732D+00
 Coeff:      0.293D-05-0.593D-05-0.974D-05-0.117D-04 0.164D-04 0.124D-03
 Coeff:      0.453D-03 0.798D-03-0.557D-03-0.604D-02-0.499D-02 0.122D-01
 Coeff:      0.214D-01 0.102D-01-0.775D-01-0.191D+00-0.178D-01 0.521D+00
 Coeff:      0.732D+00
 Gap=     0.121 Goal=   None    Shift=    0.000
 RMSDP=5.02D-09 MaxDP=4.01D-07 DE=-3.27D-11 OVMax= 3.96D-06

 SCF Done:  E(RCAM-B3LYP) =  -4069.81269191     A.U. after   19 cycles
            NFock= 19  Conv=0.50D-08     -V/T= 2.0102
 KE= 4.028796183282D+03 PE=-3.958180626852D+04 EE= 1.643297607408D+04
 Leave Link  502 at Fri Sep 10 08:59:30 2021, MaxMem= 23488102400 cpu:           15356.2 elap:             665.9
 (Enter /sw/apps/gaussian-16.0/g16/l801.exe)
 DoSCS=F DFT=T ScalE2(SS,OS)=  1.000000  1.000000
 ExpMin= 3.36D-02 ExpMax= 4.95D+03 ExpMxC= 7.45D+02 IAcc=3 IRadAn=         5 AccDes= 0.00D+00
 HarFok:  IExCor=  205 AccDes= 0.00D+00 IRadAn=         5 IDoV=-2 UseB2=F ITyADJ=14
 ICtDFT= 12500011 ScaDFX=  1.000000  1.000000  1.000000  1.000000
 GSVD:  LWork=       -9588 too small for GESVD, short by       45590 words or       45590 for optimal perf.
 Largest valence mixing into a core orbital is  2.02D-04
 Largest core mixing into a valence orbital is  5.24D-05
 Range of M.O.s used for correlation:    95  1572
 NBasis=  1572 NAE=   312 NBE=   312 NFC=    94 NFV=     0
 NROrb=   1478 NOA=   218 NOB=   218 NVA=  1260 NVB=  1260
 Leave Link  801 at Fri Sep 10 08:59:30 2021, MaxMem= 23488102400 cpu:               9.1 elap:               0.4
 (Enter /sw/apps/gaussian-16.0/g16/l914.exe)
 RHF ground state
 Two-electron integrals replicated using symmetry.
 MDV= 23488102400 DFT=T DoStab=F Mixed=T DoRPA=T DoScal=F NonHer=T
 Making orbital integer symmetry assigments:
 Orbital symmetries:
       Occupied  (A) (A) (A) (A) (A) (A) (A) (A) (A) (A) (A) (A)
                 (A) (A) (A) (A) (A) (A) (A) (A) (A) (A) (A) (A)
                 (A) (A) (A) (A) (A) (A) (A) (A) (A) (A) (A) (A)
                 (A) (A) (A) (A) (A) (A) (A) (A) (A) (A) (A) (A)
                 (A) (A) (A) (A) (A) (A) (A) (A) (A) (A) (A) (A)
                 (A) (A) (A) (A) (A) (A) (A) (A) (A) (A) (A) (A)
                 (A) (A) (A) (A) (A) (A) (A) (A) (A) (A) (A) (A)
                 (A) (A) (A) (A) (A) (A) (A) (A) (A) (A) (A) (A)
                 (A) (A) (A) (A) (A) (A) (A) (A) (A) (A) (A) (A)
                 (A) (A) (A) (A) (A) (A) (A) (A) (A) (A) (A) (A)
                 (A) (A) (A) (A) (A) (A) (A) (A) (A) (A) (A) (A)
                 (A) (A) (A) (A) (A) (A) (A) (A) (A) (A) (A) (A)
                 (A) (A) (A) (A) (A) (A) (A) (A) (A) (A) (A) (A)
                 (A) (A) (A) (A) (A) (A) (A) (A) (A) (A) (A) (A)
                 (A) (A) (A) (A) (A) (A) (A) (A) (A) (A) (A) (A)
                 (A) (A) (A) (A) (A) (A) (A) (A) (A) (A) (A) (A)
                 (A) (A) (A) (A) (A) (A) (A) (A) (A) (A) (A) (A)
                 (A) (A) (A) (A) (A) (A) (A) (A) (A) (A) (A) (A)
                 (A) (A) (A) (A) (A) (A) (A) (A) (A) (A) (A) (A)
                 (A) (A) (A) (A) (A) (A) (A) (A) (A) (A) (A) (A)
                 (A) (A) (A) (A) (A) (A) (A) (A) (A) (A) (A) (A)
                 (A) (A) (A) (A) (A) (A) (A) (A) (A) (A) (A) (A)
                 (A) (A) (A) (A) (A) (A) (A) (A) (A) (A) (A) (A)
                 (A) (A) (A) (A) (A) (A) (A) (A) (A) (A) (A) (A)
                 (A) (A) (A) (A) (A) (A) (A) (A) (A) (A) (A) (A)
                 (A) (A) (A) (A) (A) (A) (A) (A) (A) (A) (A) (A)
       Virtual   (A) (A) (A) (A) (A) (A) (A) (A) (A) (A) (A) (A)
                 (A) (A) (A) (A) (A) (A) (A) (A) (A) (A) (A) (A)
                 (A) (A) (A) (A) (A) (A) (A) (A) (A) (A) (A) (A)
                 (A) (A) (A) (A) (A) (A) (A) (A) (A) (A) (A) (A)
                 (A) (A) (A) (A) (A) (A) (A) (A) (A) (A) (A) (A)
                 (A) (A) (A) (A) (A) (A) (A) (A) (A) (A) (A) (A)
                 (A) (A) (A) (A) (A) (A) (A) (A) (A) (A) (A) (A)
                 (A) (A) (A) (A) (A) (A) (A) (A) (A) (A) (A) (A)
                 (A) (A) (A) (A) (A) (A) (A) (A) (A) (A) (A) (A)
                 (A) (A) (A) (A) (A) (A) (A) (A) (A) (A) (A) (A)
                 (A) (A) (A) (A) (A) (A) (A) (A) (A) (A) (A) (A)
                 (A) (A) (A) (A) (A) (A) (A) (A) (A) (A) (A) (A)
                 (A) (A) (A) (A) (A) (A) (A) (A) (A) (A) (A) (A)
                 (A) (A) (A) (A) (A) (A) (A) (A) (A) (A) (A) (A)
                 (A) (A) (A) (A) (A) (A) (A) (A) (A) (A) (A) (A)
                 (A) (A) (A) (A) (A) (A) (A) (A) (A) (A) (A) (A)
                 (A) (A) (A) (A) (A) (A) (A) (A) (A) (A) (A) (A)
                 (A) (A) (A) (A) (A) (A) (A) (A) (A) (A) (A) (A)
                 (A) (A) (A) (A) (A) (A) (A) (A) (A) (A) (A) (A)
                 (A) (A) (A) (A) (A) (A) (A) (A) (A) (A) (A) (A)
                 (A) (A) (A) (A) (A) (A) (A) (A) (A) (A) (A) (A)
                 (A) (A) (A) (A) (A) (A) (A) (A) (A) (A) (A) (A)
                 (A) (A) (A) (A) (A) (A) (A) (A) (A) (A) (A) (A)
                 (A) (A) (A) (A) (A) (A) (A) (A) (A) (A) (A) (A)
                 (A) (A) (A) (A) (A) (A) (A) (A) (A) (A) (A) (A)
                 (A) (A) (A) (A) (A) (A) (A) (A) (A) (A) (A) (A)
                 (A) (A) (A) (A) (A) (A) (A) (A) (A) (A) (A) (A)
                 (A) (A) (A) (A) (A) (A) (A) (A) (A) (A) (A) (A)
                 (A) (A) (A) (A) (A) (A) (A) (A) (A) (A) (A) (A)
                 (A) (A) (A) (A) (A) (A) (A) (A) (A) (A) (A) (A)
                 (A) (A) (A) (A) (A) (A) (A) (A) (A) (A) (A) (A)
                 (A) (A) (A) (A) (A) (A) (A) (A) (A) (A) (A) (A)
                 (A) (A) (A) (A) (A) (A) (A) (A) (A) (A) (A) (A)
                 (A) (A) (A) (A) (A) (A) (A) (A) (A) (A) (A) (A)
                 (A) (A) (A) (A) (A) (A) (A) (A) (A) (A) (A) (A)
                 (A) (A) (A) (A) (A) (A) (A) (A) (A) (A) (A) (A)
                 (A) (A) (A) (A) (A) (A) (A) (A) (A) (A) (A) (A)
                 (A) (A) (A) (A) (A) (A) (A) (A) (A) (A) (A) (A)
                 (A) (A) (A) (A) (A) (A) (A) (A) (A) (A) (A) (A)
                 (A) (A) (A) (A) (A) (A) (A) (A) (A) (A) (A) (A)
                 (A) (A) (A) (A) (A) (A) (A) (A) (A) (A) (A) (A)
                 (A) (A) (A) (A) (A) (A) (A) (A) (A) (A) (A) (A)
                 (A) (A) (A) (A) (A) (A) (A) (A) (A) (A) (A) (A)
                 (A) (A) (A) (A) (A) (A) (A) (A) (A) (A) (A) (A)
                 (A) (A) (A) (A) (A) (A) (A) (A) (A) (A) (A) (A)
                 (A) (A) (A) (A) (A) (A) (A) (A) (A) (A) (A) (A)
                 (A) (A) (A) (A) (A) (A) (A) (A) (A) (A) (A) (A)
                 (A) (A) (A) (A) (A) (A) (A) (A) (A) (A) (A) (A)
                 (A) (A) (A) (A) (A) (A) (A) (A) (A) (A) (A) (A)
                 (A) (A) (A) (A) (A) (A) (A) (A) (A) (A) (A) (A)
                 (A) (A) (A) (A) (A) (A) (A) (A) (A) (A) (A) (A)
                 (A) (A) (A) (A) (A) (A) (A) (A) (A) (A) (A) (A)
                 (A) (A) (A) (A) (A) (A) (A) (A) (A) (A) (A) (A)
                 (A) (A) (A) (A) (A) (A) (A) (A) (A) (A) (A) (A)
                 (A) (A) (A) (A) (A) (A) (A) (A) (A) (A) (A) (A)
                 (A) (A) (A) (A) (A) (A) (A) (A) (A) (A) (A) (A)
                 (A) (A) (A) (A) (A) (A) (A) (A) (A) (A) (A) (A)
                 (A) (A) (A) (A) (A) (A) (A) (A) (A) (A) (A) (A)
                 (A) (A) (A) (A) (A) (A) (A) (A) (A) (A) (A) (A)
                 (A) (A) (A) (A) (A) (A) (A) (A) (A) (A) (A) (A)
                 (A) (A) (A) (A) (A) (A) (A) (A) (A) (A) (A) (A)
                 (A) (A) (A) (A) (A) (A) (A) (A) (A) (A) (A) (A)
                 (A) (A) (A) (A) (A) (A) (A) (A) (A) (A) (A) (A)
                 (A) (A) (A) (A) (A) (A) (A) (A) (A) (A) (A) (A)
                 (A) (A) (A) (A) (A) (A) (A) (A) (A) (A) (A) (A)
                 (A) (A) (A) (A) (A) (A) (A) (A) (A) (A) (A) (A)
                 (A) (A) (A) (A) (A) (A) (A) (A) (A) (A) (A) (A)
                 (A) (A) (A) (A) (A) (A) (A) (A) (A) (A) (A) (A)
                 (A) (A) (A) (A) (A) (A) (A) (A) (A) (A) (A) (A)
                 (A) (A) (A) (A) (A) (A) (A) (A) (A) (A) (A) (A)
                 (A) (A) (A) (A) (A) (A) (A) (A) (A) (A) (A) (A)
                 (A) (A) (A) (A) (A) (A) (A) (A) (A) (A) (A) (A)
                 (A) (A) (A) (A) (A) (A) (A) (A) (A) (A) (A) (A)
                 (A) (A) (A) (A) (A) (A) (A) (A) (A) (A) (A) (A)
                 (A) (A) (A) (A) (A) (A) (A) (A) (A) (A) (A) (A)
                 (A) (A) (A) (A) (A) (A) (A) (A) (A) (A) (A) (A)
                 (A) (A) (A) (A) (A) (A) (A) (A) (A) (A) (A) (A)
                 (A) (A) (A) (A) (A) (A) (A) (A) (A) (A) (A) (A)
                 (A) (A) (A) (A) (A) (A) (A) (A) (A) (A) (A) (A)
                 (A) (A) (A) (A) (A) (A) (A) (A) (A) (A) (A) (A)
                 (A) (A) (A) (A) (A) (A) (A) (A) (A) (A) (A) (A)
                 (A) (A) (A) (A) (A) (A) (A) (A) (A) (A) (A) (A)
                 (A) (A) (A) (A) (A) (A) (A) (A) (A) (A) (A) (A)
                 (A) (A) (A) (A) (A) (A) (A) (A) (A) (A) (A) (A)
                 (A) (A) (A) (A) (A) (A) (A) (A) (A) (A) (A) (A)
                 (A) (A) (A) (A) (A) (A) (A) (A) (A) (A) (A) (A)
                 (A) (A) (A) (A) (A) (A) (A) (A) (A) (A) (A) (A)
                 (A) (A) (A) (A) (A) (A) (A) (A) (A) (A) (A) (A)
                 (A) (A) (A) (A) (A) (A) (A) (A) (A) (A) (A) (A)
                 (A) (A) (A) (A) (A) (A) (A) (A) (A) (A) (A) (A)
                 (A) (A) (A) (A) (A) (A) (A) (A) (A) (A) (A) (A)
                 (A) (A) (A) (A) (A) (A) (A) (A) (A) (A) (A) (A)
                 (A) (A) (A) (A) (A) (A) (A) (A) (A) (A) (A) (A)
                 (A) (A) (A) (A) (A) (A) (A) (A) (A) (A) (A) (A)
                 (A) (A) (A) (A) (A) (A) (A) (A) (A) (A) (A) (A)
                 (A) (A) (A) (A) (A) (A) (A) (A) (A) (A) (A) (A)
                 (A) (A) (A) (A) (A) (A) (A) (A) (A) (A) (A) (A)
                 (A) (A) (A) (A) (A) (A) (A) (A) (A) (A) (A) (A)
                 (A) (A) (A) (A) (A) (A) (A) (A) (A) (A) (A) (A)
                 (A) (A) (A) (A) (A) (A) (A) (A) (A) (A) (A) (A)
                 (A) (A) (A) (A) (A) (A) (A) (A) (A) (A) (A) (A)
                 (A) (A) (A) (A) (A) (A) (A) (A) (A) (A) (A) (A)
                 (A) (A) (A) (A) (A) (A) (A) (A) (A) (A) (A) (A)
                 (A) (A) (A) (A) (A) (A) (A) (A) (A) (A) (A) (A)
                 (A) (A) (A) (A) (A) (A) (A) (A) (A) (A) (A) (A)
    20 initial guesses have been made.
 Convergence on wavefunction:    0.001000000000000
 Davidson Disk Diagonalization:  ConvIn= 1.00D-03 SkipCon=T Conv= 1.00D-03.
 Max sub-space:  2000 roots to seek:    20 dimension of matrix:       549360
 Iteration     1 Dimension    20 NMult     0 NNew     20
 CISAX will form    20 AO SS matrices at one time.
 NMat=    20 NSing=    20 JSym2X= 0.
 FoFJK:  IHMeth= 1 ICntrl=       0 DoSepK=T KAlg= 0 I1Cent=           0 FoldK=F
 IRaf=         1 NMat=      40 IRICut=       1 DoRegI=T DoRafI=F ISym2E= 0 IDoP0=3 IntGTp=3.
 FoFCou: FMM=T IPFlag=           0 FMFlag=      100000 FMFlg1=        2001
         NFxFlg=           0 DoJE=F BraDBF=F KetDBF=F FulRan=T
         wScrn=  0.000000 ICntrl=       500 IOpCl=  0 I1Cent=           0 NGrid=           0
         NMat0=   20 NMatS0=     20 NMatT0=    0 NMatD0=   20 NMtDS0=    0 NMtDT0=    0
 Symmetry not used in FoFCou.
 FMM levels:  10  Number of levels for PrismC:   9
 New state      2 was old state      7
 New state      3 was old state      6
 New state      5 was old state      2
 Excitation Energies [eV] at current iteration:
 Root      1 :     2.487907337596895
 Root      2 :     2.610010495238234
 Root      3 :     2.617983335623897
 Root      4 :     2.622619512074619
 Root      5 :     2.638309062620212
 Root      6 :     2.734911609482174
 Root      7 :     3.286849345887515
 Root      8 :     3.424815031418996
 Root      9 :     3.624824848224795
 Root     10 :     3.678164614091518
 Root     11 :     3.744515055314932
 Root     12 :     3.753223690665683
 Root     13 :     4.294748883671717
 Root     14 :     4.316846637171939
 Root     15 :     4.392270104965198
 Root     16 :     4.502798710162413
 Root     17 :     4.720531021135088
 Root     18 :     4.756771802920483
 Root     19 :     4.844315319578710
 Root     20 :     4.879493526528464
 Iteration     2 Dimension    30 NMult    20 NNew     10
 CISAX will form    10 AO SS matrices at one time.
 NMat=    10 NSing=    10 JSym2X= 0.
 New state      1 was old state      5
 Root      1 not converged, maximum delta is    0.222073634666111
 New state      2 was old state      3
 Root      2 not converged, maximum delta is    0.080945498995514
 New state      3 was old state      2
 Root      3 not converged, maximum delta is    0.214991276345467
 New state      4 was old state      1
 Root      4 not converged, maximum delta is    0.024596092914448
 New state      5 was old state      6
 Root      5 not converged, maximum delta is    0.178260796576742
 Excitation Energies [eV] at current iteration:
 Root      1 :     1.777452192041796   Change is   -0.860856870578416
 Root      2 :     2.232119761641274   Change is   -0.385863573982623
 Root      3 :     2.240024419879260   Change is   -0.369986075358974
 Root      4 :     2.483017728582337   Change is   -0.004889609014558
 Root      5 :     2.611316615636573   Change is   -0.123594993845601
 Iteration     3 Dimension    40 NMult    30 NNew     10
 CISAX will form    10 AO SS matrices at one time.
 NMat=    10 NSing=    10 JSym2X= 0.
 Root      1 not converged, maximum delta is    0.054334053226852
 New state      2 was old state      5
 Root      2 not converged, maximum delta is    0.177281340719780
 New state      3 was old state      2
 Root      3 not converged, maximum delta is    0.185277915090802
 New state      4 was old state      3
 Root      4 not converged, maximum delta is    0.193402644440603
 New state      5 was old state      4
 Root      5 not converged, maximum delta is    0.001882010532315
 Excitation Energies [eV] at current iteration:
 Root      1 :     1.672276619567529   Change is   -0.105175572474267
 Root      2 :     1.796634918398691   Change is   -0.814681697237882
 Root      3 :     2.192765826109470   Change is   -0.039353935531804
 Root      4 :     2.204778379532316   Change is   -0.035246040346944
 Root      5 :     2.483003851226789   Change is   -0.000013877355548
 Iteration     4 Dimension    50 NMult    40 NNew     10
 CISAX will form    10 AO SS matrices at one time.
 NMat=    10 NSing=    10 JSym2X= 0.
 Root      1 not converged, maximum delta is    0.011202513889889
 Root      2 not converged, maximum delta is    0.044146923445750
 Root      3 not converged, maximum delta is    0.030146399876373
 Root      4 not converged, maximum delta is    0.029665568657600
 Root      5 has converged.
 Excitation Energies [eV] at current iteration:
 Root      1 :     1.655543863232922   Change is   -0.016732756334607
 Root      2 :     1.713041534483455   Change is   -0.083593383915236
 Root      3 :     2.184814212489704   Change is   -0.007951613619765
 Root      4 :     2.197614120318871   Change is   -0.007164259213445
 Root      5 :     2.483003217245415   Change is   -0.000000633981374
 Iteration     5 Dimension    58 NMult    50 NNew      8
 CISAX will form     8 AO SS matrices at one time.
 NMat=     8 NSing=     8 JSym2X= 0.
 Root      1 not converged, maximum delta is    0.001582664936403
 Root      2 not converged, maximum delta is    0.012351062637494
 Root      3 not converged, maximum delta is    0.002093561049608
 Root      4 not converged, maximum delta is    0.002039283062252
 Root      5 has converged.
 Excitation Energies [eV] at current iteration:
 Root      1 :     1.653784587937981   Change is   -0.001759275294941
 Root      2 :     1.698808054465886   Change is   -0.014233480017568
 Root      3 :     2.183912308360725   Change is   -0.000901904128979
 Root      4 :     2.196853763491266   Change is   -0.000760356827605
 Root      5 :     2.483003190869318   Change is   -0.000000026376097
 Iteration     6 Dimension    66 NMult    58 NNew      8
 CISAX will form     8 AO SS matrices at one time.
 NMat=     8 NSing=     8 JSym2X= 0.
 Root      1 has converged.
 Root      2 not converged, maximum delta is    0.001562766607695
 Root      3 not converged, maximum delta is    0.001127021462387
 Root      4 has converged.
 Root      5 has converged.
 Excitation Energies [eV] at current iteration:
 Root      1 :     1.653536155111373   Change is   -0.000248432826608
 Root      2 :     1.697410588252772   Change is   -0.001397466213114
 Root      3 :     2.183772805821083   Change is   -0.000139502539642
 Root      4 :     2.196739744032309   Change is   -0.000114019458957
 Root      5 :     2.483003184789744   Change is   -0.000000006079574
 Iteration     7 Dimension    70 NMult    66 NNew      4
 CISAX will form     4 AO SS matrices at one time.
 NMat=     4 NSing=     4 JSym2X= 0.
 Root      1 has converged.
 Root      2 has converged.
 Root      3 has converged.
 Root      4 has converged.
 Root      5 has converged.
 Excitation Energies [eV] at current iteration:
[...]
 Alpha virt. eigenvalues --    1.83663   1.83823   1.84057   1.84134   1.84335
 Alpha virt. eigenvalues --    1.84462   1.84802   1.84861   1.84950   1.85130
 Alpha virt. eigenvalues --    1.85349   1.85429   1.85484   1.85657   1.85726
 Alpha virt. eigenvalues --    1.85969   1.86089   1.86402   1.86585   1.86660
 Alpha virt. eigenvalues --    1.86814   1.86834   1.87040   1.87155   1.87436
 Alpha virt. eigenvalues --    1.87475   1.87694   1.87781   1.87916   1.87957
 Alpha virt. eigenvalues --    1.88098   1.88239   1.88454   1.88584   1.88784
 Alpha virt. eigenvalues --    1.88840   1.89090   1.89156   1.89359   1.89704
 Alpha virt. eigenvalues --    1.89781   1.89828   1.90045   1.90181   1.90340
 Alpha virt. eigenvalues --    1.90762   1.91090   1.91353   1.91472   1.91659
 Alpha virt. eigenvalues --    1.91731   1.92208   1.92355   1.92635   1.92875
 Alpha virt. eigenvalues --    1.93054   1.93352   1.93391   1.93739   1.94321
 Alpha virt. eigenvalues --    1.94620   1.94755   1.95027   1.95515   1.95692
 Alpha virt. eigenvalues --    1.95911   1.95974   1.96166   1.96206   1.96275
 Alpha virt. eigenvalues --    1.96394   1.96721   1.96741   1.96960   1.97114
 Alpha virt. eigenvalues --    1.97488   1.97808   1.97864   1.98054   1.98226
 Alpha virt. eigenvalues --    1.98332   1.98587   1.98700   1.99174   1.99267
 Alpha virt. eigenvalues --    1.99816   2.00079   2.00697   2.00994   2.01100
 Alpha virt. eigenvalues --    2.01238   2.01455   2.01674   2.01716   2.01745
 Alpha virt. eigenvalues --    2.01906   2.01980   2.02812   2.02893   2.03264
 Alpha virt. eigenvalues --    2.03355   2.03441   2.03473   2.03536   2.03677
 Alpha virt. eigenvalues --    2.04055   2.04217   2.05029   2.05184   2.05572
 Alpha virt. eigenvalues --    2.05823   2.06135   2.06424   2.06915   2.07153
 Alpha virt. eigenvalues --    2.07233   2.07551   2.08688   2.08705   2.09014
 Alpha virt. eigenvalues --    2.09182   2.09608   2.09764   2.10840   2.11200
 Alpha virt. eigenvalues --    2.11360   2.11538   2.11592   2.11675   2.11764
 Alpha virt. eigenvalues --    2.11995   2.12478   2.12622   2.12843   2.12867
 Alpha virt. eigenvalues --    2.13020   2.13070   2.13743   2.13756   2.14173
 Alpha virt. eigenvalues --    2.14463   2.15392   2.15608   2.15928   2.16246
 Alpha virt. eigenvalues --    2.16594   2.16769   2.16781   2.17340   2.17466
 Alpha virt. eigenvalues --    2.17736   2.17883   2.18083   2.18147   2.18257
 Alpha virt. eigenvalues --    2.18371   2.18792   2.18857   2.19384   2.19671
 Alpha virt. eigenvalues --    2.19962   2.20061   2.20240   2.20426   2.20571
 Alpha virt. eigenvalues --    2.21252   2.21478   2.21723   2.21734   2.21919
 Alpha virt. eigenvalues --    2.22022   2.22701   2.22871   2.23343   2.23581
 Alpha virt. eigenvalues --    2.24489   2.24682   2.25062   2.25290   2.26277
 Alpha virt. eigenvalues --    2.26580   2.26813   2.27105   2.27180   2.27365
 Alpha virt. eigenvalues --    2.28146   2.28460   2.29308   2.29613   2.29748
 Alpha virt. eigenvalues --    2.30018   2.30444   2.30740   2.30926   2.31075
 Alpha virt. eigenvalues --    2.31189   2.31422   2.32197   2.32431   2.33141
 Alpha virt. eigenvalues --    2.33356   2.33464   2.33674   2.34154   2.34384
 Alpha virt. eigenvalues --    2.35349   2.35445   2.35813   2.36032   2.36462
 Alpha virt. eigenvalues --    2.36522   2.36650   2.36720   2.37693   2.38040
 Alpha virt. eigenvalues --    2.38356   2.38561   2.38847   2.38894   2.39631
 Alpha virt. eigenvalues --    2.39817   2.40199   2.40484   2.40647   2.40951
 Alpha virt. eigenvalues --    2.41250   2.41358   2.41725   2.41960   2.42073
 Alpha virt. eigenvalues --    2.42259   2.43003   2.43093   2.43210   2.43473
 Alpha virt. eigenvalues --    2.44128   2.44192   2.44768   2.44913   2.44948
 Alpha virt. eigenvalues --    2.45155   2.45583   2.45740   2.46374   2.46393
 Alpha virt. eigenvalues --    2.46488   2.46643   2.46817   2.46932   2.47263
 Alpha virt. eigenvalues --    2.47594   2.47744   2.48084   2.49385   2.49601
 Alpha virt. eigenvalues --    2.50130   2.50240   2.50614   2.50721   2.51106
 Alpha virt. eigenvalues --    2.51397   2.51749   2.51900   2.52432   2.52522
 Alpha virt. eigenvalues --    2.52823   2.53298   2.53949   2.54144   2.54262
 Alpha virt. eigenvalues --    2.54413   2.54827   2.55037   2.55583   2.55846
 Alpha virt. eigenvalues --    2.57912   2.58220   2.58665   2.59070   2.60181
 Alpha virt. eigenvalues --    2.60406   2.60616   2.61031   2.61752   2.61963
 Alpha virt. eigenvalues --    2.62531   2.62572   2.62956   2.63282   2.63947
 Alpha virt. eigenvalues --    2.64312   2.64334   2.64703   2.65089   2.65288
 Alpha virt. eigenvalues --    2.65787   2.65973   2.66843   2.66933   2.67110
 Alpha virt. eigenvalues --    2.67211   2.67941   2.68207   2.68871   2.68965
 Alpha virt. eigenvalues --    2.69021   2.69149   2.69426   2.69854   2.70002
 Alpha virt. eigenvalues --    2.70328   2.70990   2.71209   2.72036   2.72055
 Alpha virt. eigenvalues --    2.72612   2.72640   2.72777   2.72872   2.73327
 Alpha virt. eigenvalues --    2.73433   2.73530   2.73578   2.74523   2.74681
 Alpha virt. eigenvalues --    2.74984   2.75194   2.76613   2.76726   2.77202
 Alpha virt. eigenvalues --    2.77229   2.77504   2.77709   2.78289   2.78375
 Alpha virt. eigenvalues --    2.78705   2.78854   2.79140   2.79283   2.80343
 Alpha virt. eigenvalues --    2.80380   2.80570   2.80789   2.81116   2.81280
 Alpha virt. eigenvalues --    2.81936   2.82091   2.82351   2.82507   2.83728
 Alpha virt. eigenvalues --    2.83844   2.83972   2.84012   2.84568   2.84689
 Alpha virt. eigenvalues --    2.84924   2.85102   2.85743   2.85828   2.86855
 Alpha virt. eigenvalues --    2.87013   2.87311   2.87576   2.88252   2.88323
 Alpha virt. eigenvalues --    2.88516   2.88898   2.88956   2.89035   2.90492
 Alpha virt. eigenvalues --    2.90862   2.91244   2.91268   2.93162   2.93438
 Alpha virt. eigenvalues --    2.93911   2.94332   2.94599   2.94815   2.95349
 Alpha virt. eigenvalues --    2.95566   2.95907   2.96146   2.96461   2.96638
 Alpha virt. eigenvalues --    2.97011   2.97163   2.97777   2.98173   2.98280
 Alpha virt. eigenvalues --    2.98395   2.98447   2.98605   2.98701   2.98917
 Alpha virt. eigenvalues --    2.98952   2.99137   2.99693   3.00009   3.00043
 Alpha virt. eigenvalues --    3.00135   3.00275   3.00424   3.00721   3.01126
 Alpha virt. eigenvalues --    3.02023   3.02087   3.02190   3.02221   3.02713
 Alpha virt. eigenvalues --    3.02894   3.02974   3.03402   3.03432   3.03849
 Alpha virt. eigenvalues --    3.04193   3.04353   3.04461   3.04576   3.04787
 Alpha virt. eigenvalues --    3.04997   3.05375   3.05483   3.06125   3.06328
 Alpha virt. eigenvalues --    3.06801   3.07094   3.08099   3.08256   3.09370
 Alpha virt. eigenvalues --    3.09618   3.09730   3.10481   3.10512   3.10851
 Alpha virt. eigenvalues --    3.11390   3.11664   3.11917   3.12251   3.12274
 Alpha virt. eigenvalues --    3.12427   3.13331   3.13699   3.13742   3.13925
 Alpha virt. eigenvalues --    3.14046   3.14544   3.16005   3.16724   3.17281
 Alpha virt. eigenvalues --    3.17677   3.18050   3.18196   3.19158   3.19229
 Alpha virt. eigenvalues --    3.22216   3.22677   3.23969   3.24552   3.24647
 Alpha virt. eigenvalues --    3.25296   3.26509   3.26785   3.27516   3.27616
 Alpha virt. eigenvalues --    3.29000   3.29292   3.31494   3.31521   3.33310
 Alpha virt. eigenvalues --    3.33427   3.40316   3.40521   3.42887   3.42894
 Alpha virt. eigenvalues --    3.48642   3.48810   3.50027   3.50411   3.50947
 Alpha virt. eigenvalues --    3.51500   3.56577   3.57120   3.59177   3.59493
 Alpha virt. eigenvalues --    3.62628   3.62872   3.66159   3.66298   3.67092
 Alpha virt. eigenvalues --    3.67607   3.73184   3.74097   3.75988   3.76761
          Condensed to atoms (all electrons):
 Mulliken charges:
               1
     1  Mg   0.831737
     2  C   -0.002907
     3  C   -0.093693
     4  C   -0.045044
     5  C   -0.063625
     6  N   -0.256619
     7  C   -0.054587
     8  C   -0.013366
     9  C   -0.087053
    10  C    0.046009
    11  C    0.104719
    12  C    0.053126
    13  C   -0.071871
    14  H    0.035602
    15  N   -0.433817
    16  C    0.168565
    17  C   -0.175945
    18  C   -0.002593
    19  C    0.149098
    20  C    0.109787
    21  C    0.014429
    22  O   -0.249224
    23  C    0.061173
    24  N   -0.340612
    25  C    0.041549
    26  C   -0.028366
    27  C   -0.024011
    28  C    0.074219
    29  C    0.076099
    30  C    0.035005
    31  C   -0.005701
    32  N   -0.310467
    33  C    0.079079
    34  C   -0.170824
    35  C    0.008096
    36  C    0.080442
    37  C    0.127529
    38  C    0.045119
    39  O   -0.188719
    40  C   -0.005426
    41  C    0.213424
    42  O   -0.259964
    43  O   -0.304211
    44  C    0.157697
    45  H   -0.017176
    46  H   -0.016130
    47  H   -0.041449
    48  H    0.001012
    49  H   -0.003691
    50  H    0.025574
    51  H    0.016749
    52  H    0.016963
    53  H    0.011051
    54  H    0.042145
    55  H    0.018386
    56  H    0.018639
    57  H    0.005577
    58  H    0.026904
    59  H    0.042547
    60  H    0.036320
    61  H    0.036102
    62  H    0.035949
    63  H    0.017324
    64  H    0.009554
    65  H    0.023610
    66  H    0.012509
    67  H    0.004892
    68  H    0.006873
    69  H    0.004737
    70  H    0.009828
    71  H    0.019064
    72  H    0.028607
    73  H    0.046927
    74  H    0.009406
    75  H    0.046233
    76  H    0.035572
    77  H    0.043575
    78  H    0.046685
    79  H    0.052755
    80  Mg   0.837406
    81  C   -0.017331
    82  C   -0.088306
    83  C   -0.045480
    84  C   -0.064815
    85  N   -0.254629
    86  C   -0.049799
    87  C   -0.015118
    88  C   -0.090417
    89  C    0.045603
    90  C    0.114545
    91  C    0.062616
    92  C   -0.077644
    93  H    0.034460
    94  N   -0.423289
    95  C    0.162633
    96  C   -0.175234
    97  C   -0.008496
    98  C    0.152073
    99  C    0.099589
   100  C    0.015439
   101  O   -0.254879
   102  C    0.061451
   103  N   -0.350084
   104  C    0.037488
   105  C   -0.020388
   106  C   -0.037573
   107  C    0.087889
   108  C    0.073941
   109  C    0.033906
   110  C   -0.011257
   111  N   -0.324215
   112  C    0.078596
   113  C   -0.162450
   114  C    0.002025
   115  C    0.096473
   116  C    0.130992
   117  C    0.042480
   118  O   -0.187970
   119  C    0.000934
   120  C    0.211190
   121  O   -0.251154
   122  O   -0.305664
   123  C    0.152151
   124  H   -0.020455
   125  H   -0.016763
   126  H   -0.035894
   127  H   -0.000919
   128  H   -0.004770
   129  H    0.022302
   130  H    0.014317
   131  H    0.015694
   132  H    0.013883
   133  H    0.037624
   134  H    0.020625
   135  H    0.019364
   136  H    0.008427
   137  H    0.025169
   138  H    0.039236
   139  H    0.037791
   140  H    0.034898
   141  H    0.034300
   142  H    0.012738
   143  H    0.019029
   144  H    0.022491
   145  H    0.009787
   146  H    0.008997
   147  H    0.011014
   148  H    0.012630
   149  H    0.008184
   150  H    0.020819
   151  H    0.028429
   152  H    0.045699
   153  H    0.011997
   154  H    0.047065
   155  H    0.034709
   156  H    0.043691
   157  H    0.049291
   158  H    0.053426
 Sum of Mulliken charges =  -0.00000
 Mulliken charges with hydrogens summed into heavy atoms:
               1
     1  Mg   0.831737
     2  C   -0.002907
     3  C   -0.110870
     4  C   -0.061174
     5  C   -0.105074
     6  N   -0.256619
     7  C   -0.054587
     8  C   -0.012354
     9  C   -0.090744
    10  C    0.046009
    11  C    0.164005
    12  C    0.106321
    13  C    0.000756
    15  N   -0.433817
    16  C    0.168565
    17  C   -0.175945
    18  C   -0.002593
    19  C    0.149098
    20  C    0.184816
    21  C    0.014429
    22  O   -0.249224
    23  C    0.169544
    24  N   -0.340612
    25  C    0.041549
    26  C   -0.011042
    27  C   -0.014457
    28  C    0.074219
    29  C    0.117110
    30  C    0.046616
    31  C    0.051798
    32  N   -0.310467
    33  C    0.079079
    34  C   -0.170824
    35  C    0.008096
    36  C    0.080442
    37  C    0.230095
    38  C    0.045119
    39  O   -0.188719
    40  C    0.030145
    41  C    0.213424
    42  O   -0.259964
    43  O   -0.304211
    44  C    0.300713
    80  Mg   0.837406
    81  C   -0.017331
    82  C   -0.108761
    83  C   -0.062243
    84  C   -0.100709
    85  N   -0.254629
    86  C   -0.049799
    87  C   -0.016036
    88  C   -0.095187
    89  C    0.045603
    90  C    0.166858
    91  C    0.114123
    92  C   -0.003195
    94  N   -0.423289
    95  C    0.162633
    96  C   -0.175234
    97  C   -0.008496
    98  C    0.152073
    99  C    0.172421
   100  C    0.015439
   101  O   -0.254879
   102  C    0.168440
   103  N   -0.350084
   104  C    0.037488
   105  C   -0.007650
   106  C   -0.018544
   107  C    0.087889
   108  C    0.115216
   109  C    0.057551
   110  C    0.046175
   111  N   -0.324215
   112  C    0.078596
   113  C   -0.162450
   114  C    0.002025
   115  C    0.096473
   116  C    0.235754
   117  C    0.042480
   118  O   -0.187970
   119  C    0.035643
   120  C    0.211190
   121  O   -0.251154
   122  O   -0.305664
   123  C    0.298559
 Electronic spatial extent (au):  <R**2>=         123703.2175
 Charge=             -0.0000 electrons
 Dipole moment (field-independent basis, Debye):
    X=              0.9456    Y=              6.5350    Z=             -4.5869  Tot=              8.0399
 Quadrupole moment (field-independent basis, Debye-Ang):
   XX=           -446.3327   YY=           -543.4757   ZZ=           -481.4674
   XY=            -29.3723   XZ=              0.8921   YZ=             -8.6721
 Traceless Quadrupole moment (field-independent basis, Debye-Ang):
   XX=             44.0926   YY=            -53.0504   ZZ=              8.9579
   XY=            -29.3723   XZ=              0.8921   YZ=             -8.6721
 Octapole moment (field-independent basis, Debye-Ang**2):
  XXX=           -457.6160  YYY=            310.2665  ZZZ=             12.5490  XYY=           -114.8428
  XXY=            432.2926  XXZ=           -234.4338  XZZ=            194.7717  YZZ=           -119.1844
  YYZ=           -187.4941  XYZ=            -85.5697
 Hexadecapole moment (field-independent basis, Debye-Ang**3):
 XXXX=        -106968.2168 YYYY=         -33428.4550 ZZZZ=         -18072.9364 XXXY=          -1050.2458
 XXXZ=          -1378.7273 YYYX=           -590.6218 YYYZ=           -264.4174 ZZZX=            -86.8210
 ZZZY=            373.5134 XXYY=         -25817.3022 XXZZ=         -21402.8303 YYZZ=          -8318.3130
 XXYZ=           -791.7066 YYXZ=           -369.3489 ZZXY=           -515.1695
 N-N= 1.505022131924D+04 E-N=-3.958180626212D+04  KE= 4.028796183282D+03
 Leave Link  601 at Fri Sep 10 09:24:08 2021, MaxMem= 23488102400 cpu:              15.9 elap:               0.8
 (Enter /sw/apps/gaussian-16.0/g16/l9999.exe)
 1\1\GINC-BP1-COMPUTE00091\SP\RCAM-B3LYP TD-FC\def2SVP\C68H72Mg2N8O8\OF
 15641\10-Sep-2021\0\\#p cam-b3lyp/Def2SVP td=(nstates=5)\\TDDFT excite
 d states in gaussian\\0,1\Mg,0,0.,0.,0.\C,0,-0.217,-2.218,2.801\C,0,-1
 .255,2.442,2.026\C,0,-0.245,1.85,-2.564\C,0,0.146,-2.824,-2.037\N,0,-0
 .617,-0.009,2.126\C,0,-0.594,-0.908,3.105\C,0,-0.936,-0.309,4.502\C,0,
 -1.773,0.964,4.032\C,0,-1.155,1.168,2.66\C,0,-3.263,0.685,3.863\C,0,0.
 345,0.11,5.299\C,0,0.124,0.397,6.787\H,0,1.168,0.033,7.733\N,0,-0.185,
 1.961,-0.152\C,0,-0.703,2.8,0.777\C,0,-0.62,4.156,0.193\C,0,-0.187,4.0
 15,-1.225\C,0,-0.214,2.583,-1.38\C,0,-0.887,5.406,0.974\C,0,0.181,5.01
 3,-2.277\O,0,0.303,4.69,-3.508\C,0,0.31,6.414,-1.837\N,0,-0.265,-0.413
 ,-2.029\C,0,-0.279,0.569,-2.937\C,0,-0.196,0.024,-4.332\C,0,0.124,-1.5
 33,-4.18\C,0,0.086,-1.632,-2.635\C,0,-1.451,0.205,-5.197\C,0,1.373,-2.
 07,-4.923\C,0,2.626,-1.49,-4.306\N,0,0.15,-2.144,0.303\C,0,0.173,-3.13
 6,-0.688\C,0,0.173,-4.438,0.004\C,0,0.133,-4.111,1.358\C,0,0.083,-2.69
 5,1.502\C,0,0.149,-5.715,-0.623\C,0,0.096,-4.629,2.716\O,0,0.208,-5.74
 7,3.221\C,0,-0.255,-3.428,3.701\C,0,0.717,-3.482,4.848\O,0,1.931,-3.25
 5,4.669\O,0,0.038,-3.556,6.003\C,0,0.943,-3.583,7.183\H,0,-1.859,3.22,
 2.497\H,0,-0.218,2.453,-3.474\H,0,0.276,-3.747,-2.605\H,0,-1.554,-0.94
 9,5.132\H,0,-1.585,1.831,4.665\H,0,-3.484,-0.377,3.969\H,0,-3.511,1.02
 7,2.858\H,0,-3.852,1.301,4.543\H,0,0.669,1.096,4.966\H,0,1.13,-0.639,5
 .189\H,0,-0.844,0.026,7.125\H,0,0.062,1.477,6.921\H,0,-1.344,5.186,1.9
 38\H,0,-1.651,5.963,0.432\H,0,0.007,6.02,1.084\H,0,-0.635,6.744,-1.405
 \H,0,0.665,6.97,-2.704\H,0,1.048,6.466,-1.036\H,0,0.608,0.501,-4.891\H
 ,0,-0.692,-2.156,-4.547\H,0,-1.267,0.74,-6.129\H,0,-2.204,0.714,-4.596
 \H,0,-1.967,-0.72,-5.453\H,0,1.356,-1.759,-5.967\H,0,1.452,-3.157,-4.9
 02\H,0,2.714,-0.522,-4.798\H,0,3.487,-2.121,-4.529\H,0,2.495,-1.303,-3
 .24\H,0,0.867,-6.333,-0.084\H,0,0.404,-5.642,-1.68\H,0,-0.891,-5.999,-
 0.463\H,0,-1.283,-3.581,4.028\H,0,0.698,-4.478,7.755\H,0,0.833,-2.619,
 7.68\H,0,2.,-3.754,6.976\Mg,0,10.51594,0.94933,0.78967\C,0,13.27679,-1
 .34337,0.77187\C,0,12.80592,3.47279,0.94058\C,0,8.11339,2.96773,1.2600
 3\C,0,8.49325,-1.71064,1.77909\N,0,12.72712,0.93958,0.84303\C,0,13.669
 15,0.01143,0.76901\C,0,15.10906,0.56799,0.60635\C,0,14.878,2.02315,1.2
 4509\C,0,13.3847,2.17876,0.9649\C,0,15.08806,2.06021,2.7497\C,0,15.546
 57,0.66365,-0.89746\C,0,17.04157,0.90449,-1.11819\H,0,17.6853,0.27657,
 -2.26876\N,0,10.43333,2.92033,0.57306\C,0,11.46267,3.79038,0.64197\C,0
 ,10.87682,5.1239,0.43542\C,0,9.39542,4.98556,0.40316\C,0,9.25273,3.591
 67,0.77304\C,0,11.7095,6.35277,0.21193\C,0,8.28957,5.95163,0.10318\O,0
 ,7.06565,5.67705,0.36671\C,0,8.69084,7.26503,-0.42167\N,0,8.62765,0.72
 242,1.62942\C,0,7.75826,1.74758,1.66306\C,0,6.37784,1.27942,2.05758\C,
 0,6.44667,-0.31831,2.04691\C,0,7.9447,-0.50489,1.72058\C,0,5.87728,1.7
 579,3.42025\C,0,5.40123,-1.06194,1.17127\C,0,5.66497,-0.78789,-0.29185
 \N,0,10.75883,-1.18415,1.02907\C,0,9.79,-2.10778,1.47891\C,0,10.45723,
 -3.42153,1.58519\C,0,11.78417,-3.16438,1.20889\C,0,11.9382,-1.78364,0.
 90999\C,0,9.85007,-4.62926,2.03113\C,0,13.09213,-3.74498,1.00679\O,0,1
 3.54702,-4.88802,1.02256\C,0,14.1467,-2.56797,0.83674\C,0,15.00463,-2.
 88205,-0.35819\O,0,14.51214,-2.91106,-1.49977\O,0,16.29731,-2.88148,0.
 01511\C,0,17.18836,-3.17722,-1.13832\H,0,13.42785,4.3246,1.2172\H,0,7.
 22527,3.5995,1.33481\H,0,7.90775,-2.60891,1.9864\H,0,15.86844,0.03334,
 1.16427\H,0,15.44667,2.7823,0.71437\H,0,15.24321,1.07313,3.15927\H,0,1
 4.19085,2.50381,3.16114\H,0,15.90428,2.74406,2.99963\H,0,15.14154,1.58
 749,-1.33013\H,0,15.23693,-0.20803,-1.44053\H,0,17.62636,0.72842,-0.20
 716\H,0,17.19412,1.96478,-1.33387\H,0,12.76416,6.17369,0.4549\H,0,11.3
 8419,7.09739,0.94649\H,0,11.58671,6.76819,-0.79057\H,0,9.35514,7.75044
 ,0.28935\H,0,7.75899,7.78228,-0.6583\H,0,9.26935,7.11304,-1.33973\H,0,
 5.6384,1.60413,1.33585\H,0,6.28884,-0.73965,3.0506\H,0,4.91904,2.30814
 ,3.36465\H,0,6.64469,2.37504,3.86832\H,0,5.74638,0.97484,4.16515\H,0,4
 .39636,-0.68725,1.381\H,0,5.38562,-2.13438,1.33448\H,0,5.17153,0.17484
 ,-0.45545\H,0,5.22649,-1.56667,-0.91256\H,0,6.73568,-0.6455,-0.47882\H
 ,0,10.18002,-5.41023,1.35904\H,0,8.76523,-4.54745,2.04472\H,0,10.26919
 ,-4.69785,3.03856\H,0,14.72988,-2.51515,1.75689\H,0,17.80378,-4.03652,
 -0.85452\H,0,17.71626,-2.23033,-1.35848\H,0,16.72588,-3.53981,-2.04886
 \\Version=ES64L-G16RevA.03\State=1-A\HF=-4069.8126919\RMSD=5.016e-09\P
 G=C01 [X(C68H72Mg2N8O8)]\\@


 I HAVE NOT FAILED, I HAVE ONLY DISCOVERED 10,000
 WAYS THAT DIDN'T WORK.  -- THOMAS A. EDISON
 Job cpu time:       0 days 14 hours  7 minutes 21.1 seconds.
 Elapsed time:       0 days  0 hours 35 minutes 57.7 seconds.
 File lengths (MBytes):  RWF=  13225 Int=      0 D2E=      0 Chk=    574 Scr=      1
 Normal termination of Gaussian 16 at Fri Sep 10 09:24:09 2021.
