 Entering Gaussian System, Link 0=g16
 Initial command:
 /sw/apps/gaussian-16.0/g16/l1.exe "/tmp/Gau-116075.inp" -scrdir="/tmp/"
 Entering Link 1 = /sw/apps/gaussian-16.0/g16/l1.exe PID=    116076.
  
 Copyright (c) 1988,1990,1992,1993,1995,1998,2003,2009,2016,
            Gaussian, Inc.  All Rights Reserved.
  
 This is part of the Gaussian(R) 16 program.  It is based on
 the Gaussian(R) 09 system (copyright 2009, Gaussian, Inc.),
 the Gaussian(R) 03 system (copyright 2003, Gaussian, Inc.),
 the Gaussian(R) 98 system (copyright 1998, Gaussian, Inc.),
 the Gaussian(R) 94 system (copyright 1995, Gaussian, Inc.),
 the Gaussian 92(TM) system (copyright 1992, Gaussian, Inc.),
 the Gaussian 90(TM) system (copyright 1990, Gaussian, Inc.),
 the Gaussian 88(TM) system (copyright 1988, Gaussian, Inc.),
 the Gaussian 86(TM) system (copyright 1986, Carnegie Mellon
 University), and the Gaussian 82(TM) system (copyright 1983,
 Carnegie Mellon University). Gaussian is a federally registered
 trademark of Gaussian, Inc.
  
 This software contains proprietary and confidential information,
 including trade secrets, belonging to Gaussian, Inc.
  
 This software is provided under written license and may be
 used, copied, transmitted, or stored only in accord with that
 written license.
  
 The following legend is applicable only to US Government
 contracts under FAR:
  
                    RESTRICTED RIGHTS LEGEND
  
 Use, reproduction and disclosure by the US Government is
 subject to restrictions as set forth in subparagraphs (a)
 and (c) of the Commercial Computer Software - Restricted
 Rights clause in FAR 52.227-19.
  
 Gaussian, Inc.
 340 Quinnipiac St., Bldg. 40, Wallingford CT 06492
  
  
 ---------------------------------------------------------------
 Warning -- This program may not be used in any manner that
 competes with the business of Gaussian, Inc. or will provide
 assistance to any competitor of Gaussian, Inc.  The licensee
 of this program is prohibited from giving any competitor of
 Gaussian, Inc. access to this program.  By using this program,
 the user acknowledges that Gaussian, Inc. is engaged in the
 business of creating and licensing software in the field of
 computational chemistry and represents and warrants to the
 licensee that it is not a competitor of Gaussian, Inc. and that
 it will not use this program in any manner prohibited above.
 ---------------------------------------------------------------
  

 Cite this work as:
 Gaussian 16, Revision A.03,
 M. J. Frisch, G. W. Trucks, H. B. Schlegel, G. E. Scuseria, 
 M. A. Robb, J. R. Cheeseman, G. Scalmani, V. Barone, 
 G. A. Petersson, H. Nakatsuji, X. Li, M. Caricato, A. V. Marenich, 
 J. Bloino, B. G. Janesko, R. Gomperts, B. Mennucci, H. P. Hratchian, 
 J. V. Ortiz, A. F. Izmaylov, J. L. Sonnenberg, D. Williams-Young, 
 F. Ding, F. Lipparini, F. Egidi, J. Goings, B. Peng, A. Petrone, 
 T. Henderson, D. Ranasinghe, V. G. Zakrzewski, J. Gao, N. Rega, 
 G. Zheng, W. Liang, M. Hada, M. Ehara, K. Toyota, R. Fukuda, 
 J. Hasegawa, M. Ishida, T. Nakajima, Y. Honda, O. Kitao, H. Nakai, 
 T. Vreven, K. Throssell, J. A. Montgomery, Jr., J. E. Peralta, 
 F. Ogliaro, M. J. Bearpark, J. J. Heyd, E. N. Brothers, K. N. Kudin, 
 V. N. Staroverov, T. A. Keith, R. Kobayashi, J. Normand, 
 K. Raghavachari, A. P. Rendell, J. C. Burant, S. S. Iyengar, 
 J. Tomasi, M. Cossi, J. M. Millam, M. Klene, C. Adamo, R. Cammi, 
 J. W. Ochterski, R. L. Martin, K. Morokuma, O. Farkas, 
 J. B. Foresman, and D. J. Fox, Gaussian, Inc., Wallingford CT, 2016.
 
 ******************************************
 Gaussian 16:  ES64L-G16RevA.03 25-Dec-2016
                12-Sep-2021 
 ******************************************
 %nproc=24
 Will use up to   24 processors via shared memory.
 %mem=175gb
 -----------------------------------
 #p cam-b3lyp/Def2SVP td=(nstates=5)
 -----------------------------------
 1/38=1,172=1/1;
 2/12=2,17=6,18=5,40=1/2;
 3/5=43,7=101,11=9,25=1,30=1,74=-40/1,2,3,8;
 4//1;
 5/5=2,38=5/2;
 8/6=1,10=1,108=5/1;
 9/41=5,42=1,70=2/14;
 6/7=2,8=2,9=2,10=2/1;
 99/5=1,9=1/99;
 Leave Link    1 at Sun Sep 12 13:17:50 2021, MaxMem= 23488102400 cpu:               0.6 elap:               0.0
 (Enter /sw/apps/gaussian-16.0/g16/l101.exe)
 --------------------------------
 TDDFT excited states in gaussian
 --------------------------------
 Symbolic Z-matrix:
 Charge =  0 Multiplicity = 1
 Mg                    0.        0.        0. 
 C                    -0.217    -2.218     2.801 
 C                    -1.255     2.442     2.026 
 C                    -0.245     1.85     -2.564 
 C                     0.146    -2.824    -2.037 
 N                    -0.617    -0.009     2.126 
 C                    -0.594    -0.908     3.105 
 C                    -0.936    -0.309     4.502 
 C                    -1.773     0.964     4.032 
 C                    -1.155     1.168     2.66 
 C                    -3.263     0.685     3.863 
 C                     0.345     0.11      5.299 
 C                     0.124     0.397     6.787 
 H                     1.168     0.033     7.733 
 N                    -0.185     1.961    -0.152 
 C                    -0.703     2.8       0.777 
 C                    -0.62      4.156     0.193 
 C                    -0.187     4.015    -1.225 
 C                    -0.214     2.583    -1.38 
 C                    -0.887     5.406     0.974 
 C                     0.181     5.013    -2.277 
 O                     0.303     4.69     -3.508 
 C                     0.31      6.414    -1.837 
 N                    -0.265    -0.413    -2.029 
 C                    -0.279     0.569    -2.937 
 C                    -0.196     0.024    -4.332 
 C                     0.124    -1.533    -4.18 
 C                     0.086    -1.632    -2.635 
 C                    -1.451     0.205    -5.197 
 C                     1.373    -2.07     -4.923 
 C                     2.626    -1.49     -4.306 
 N                     0.15     -2.144     0.303 
 C                     0.173    -3.136    -0.688 
 C                     0.173    -4.438     0.004 
 C                     0.133    -4.111     1.358 
 C                     0.083    -2.695     1.502 
 C                     0.149    -5.715    -0.623 
 C                     0.096    -4.629     2.716 
 O                     0.208    -5.747     3.221 
 C                    -0.255    -3.428     3.701 
 C                     0.717    -3.482     4.848 
 O                     1.931    -3.255     4.669 
 O                     0.038    -3.556     6.003 
 C                     0.943    -3.583     7.183 
 H                    -1.859     3.22      2.497 
 H                    -0.218     2.453    -3.474 
 H                     0.276    -3.747    -2.605 
 H                    -1.554    -0.949     5.132 
 H                    -1.585     1.831     4.665 
 H                    -3.484    -0.377     3.969 
 H                    -3.511     1.027     2.858 
 H                    -3.852     1.301     4.543 
 H                     0.669     1.096     4.966 
 H                     1.13     -0.639     5.189 
 H                    -0.844     0.026     7.125 
 H                     0.062     1.477     6.921 
 H                    -1.344     5.186     1.938 
 H                    -1.651     5.963     0.432 
 H                     0.007     6.02      1.084 
 H                    -0.635     6.744    -1.405 
 H                     0.665     6.97     -2.704 
 H                     1.048     6.466    -1.036 
 H                     0.608     0.501    -4.891 
 H                    -0.692    -2.156    -4.547 
 H                    -1.267     0.74     -6.129 
 H                    -2.204     0.714    -4.596 
 H                    -1.967    -0.72     -5.453 
 H                     1.356    -1.759    -5.967 
 H                     1.452    -3.157    -4.902 
 H                     2.714    -0.522    -4.798 
 H                     3.487    -2.121    -4.529 
 H                     2.495    -1.303    -3.24 
 H                     0.867    -6.333    -0.084 
 H                     0.404    -5.642    -1.68 
 H                    -0.891    -5.999    -0.463 
 H                    -1.283    -3.581     4.028 
 H                     0.698    -4.478     7.755 
 H                     0.833    -2.619     7.68 
 H                     2.       -3.754     6.976 
 Mg                    31.52777   2.83254   2.40241 
 C                     30.17876   5.27215   4.66239 
 C                     33.29235   1.58325   5.04062 
 C                     33.0719   0.96269   0.35625 
 C                     30.5789   4.93299  -0.21167 
 N                     31.63692   3.43512   4.52779 
 C                     31.03272   4.33821   5.28523 
 C                     31.29973   4.18418   6.80659 
 C                     32.69718   3.39699   6.72698 
 C                     32.52528   2.73111   5.36326 
 C                     33.90389   4.31824   6.65996 
 C                     30.19777   3.32727   7.52311 
 C                     30.22472   3.39324   9.05173 
 H                     28.95555   3.35051   9.77273 
 N                     32.58227   1.18081   2.71612 
 C                     33.21184   0.82122   3.85437 
 C                     33.86075  -0.46704   3.56549 
 C                     33.70019  -0.75828   2.11493 
 C                     33.11723   0.48761   1.65886 
 C                     34.47842  -1.32423   4.63184 
 C                     34.03007  -1.95472   1.27474 
 O                     34.02461  -1.90043  -0.00583 
 C                     34.45034  -3.16569   1.99475 
 N                     31.98052   3.02437   0.38237 
 C                     32.61594   2.04183  -0.28003 
 C                     32.58723   2.28174  -1.77068 
 C                     31.58684   3.51022  -1.98892 
 C                     31.2653   3.83973  -0.51467 
 C                     33.93404   2.60111  -2.41913 
 C                     30.40451   3.289    -2.9717 
 C                     29.43962   2.27613  -2.39859 
 N                     30.39531   4.66247   2.21025 
 C                     30.14008   5.3872    1.02547 
 C                     29.42777   6.62143   1.41498 
 C                     29.33763   6.53951   2.81272 
 C                     29.96829   5.34879   3.26432 
 C                     29.00471   7.65245   0.52947 
 C                     28.86171   7.19477   4.00973 
 O                     28.1778   8.19094   4.24132 
 C                     29.49627   6.46544   5.2714 
 C                     28.39485   6.21176   6.26388 
 O                     27.46766   5.42859   5.99264 
 O                     28.73009   6.76298   7.44462 
 C                     27.67363   6.52847   8.46478 
 H                     34.05947   1.25744   5.74366 
 H                     33.49405   0.2996   -0.40242 
 H                     30.16253   5.59165  -0.97684 
 H                     31.42854   5.11724   7.34194 
 H                     32.77349   2.64745   7.51039 
 H                     33.61504   5.35372   6.55745 
 H                     34.4719   3.99668   5.79682 
 H                     34.55206   4.15402   7.52554 
 H                     30.42089   2.26256   7.37704 
 H                     29.22029   3.58912   7.1673 
 H                     30.84704   4.21888   9.41777 
 H                     30.72099   2.49584   9.4291 
 H                     34.59203  -0.77441   5.57428 
 H                     35.50548  -1.53702   4.31601 
 H                     33.94889  -2.26901   4.77207 
 H                     35.33055  -2.94287   2.59312 
 H                     34.55623  -3.93811   1.23053 
 H                     33.65702  -3.44918   2.69538 
 H                     32.20032   1.41617  -2.2943 
 H                     32.1043   4.38871  -2.40163 
 H                     34.20114   1.90463  -3.23623 
 H                     34.69402   2.59326  -1.64913 
 H                     34.02489   3.60794  -2.82314 
 H                     30.76832   2.87239  -3.91416 
 H                     29.8642   4.19929  -3.20925 
 H                     29.89443   1.31949  -2.67261 
 H                     28.45495   2.38813  -2.84796 
 H                     29.4176   2.3291   -1.30389 
 H                     28.00404   7.93131   0.83177 
 H                     29.0302   7.3218   -0.50677 
 H                     29.7638   8.4114    0.73696 
 H                     30.26813   7.12172   5.67527 
 H                     27.38125   7.50897   8.85314 
 H                     28.10829   5.81045   9.18538 
 H                     26.72052   6.14469   8.12019 
 
 ITRead=  0  0  0  0  0  0  0  0  0  0  0  0  0  0  0  0  0  0  0  0
 ITRead=  0  0  0  0  0  0  0  0  0  0  0  0  0  0  0  0  0  0  0  0
 ITRead=  0  0  0  0  0  0  0  0  0  0  0  0  0  0  0  0  0  0  0  0
 ITRead=  0  0  0  0  0  0  0  0  0  0  0  0  0  0  0  0  0  0  0  0
 ITRead=  0  0  0  0  0  0  0  0  0  0  0  0  0  0  0  0  0  0  0  0
 ITRead=  0  0  0  0  0  0  0  0  0  0  0  0  0  0  0  0  0  0  0  0
 ITRead=  0  0  0  0  0  0  0  0  0  0  0  0  0  0  0  0  0  0  0  0
 ITRead=  0  0  0  0  0  0  0  0  0  0  0  0  0  0  0  0  0  0
 MicOpt= -1 -1 -1 -1 -1 -1 -1 -1 -1 -1 -1 -1 -1 -1 -1 -1 -1 -1 -1 -1
 MicOpt= -1 -1 -1 -1 -1 -1 -1 -1 -1 -1 -1 -1 -1 -1 -1 -1 -1 -1 -1 -1
 MicOpt= -1 -1 -1 -1 -1 -1 -1 -1 -1 -1 -1 -1 -1 -1 -1 -1 -1 -1 -1 -1
 MicOpt= -1 -1 -1 -1 -1 -1 -1 -1 -1 -1 -1 -1 -1 -1 -1 -1 -1 -1 -1 -1
 MicOpt= -1 -1 -1 -1 -1 -1 -1 -1 -1 -1 -1 -1 -1 -1 -1 -1 -1 -1 -1 -1
 MicOpt= -1 -1 -1 -1 -1 -1 -1 -1 -1 -1 -1 -1 -1 -1 -1 -1 -1 -1 -1 -1
 MicOpt= -1 -1 -1 -1 -1 -1 -1 -1 -1 -1 -1 -1 -1 -1 -1 -1 -1 -1 -1 -1
 MicOpt= -1 -1 -1 -1 -1 -1 -1 -1 -1 -1 -1 -1 -1 -1 -1 -1 -1 -1
 NAtoms=    158 NQM=      158 NQMF=       0 NMMI=      0 NMMIF=      0
                NMic=       0 NMicF=      0.
                    Isotopes and Nuclear Properties:
 (Nuclear quadrupole moments (NQMom) in fm**2, nuclear magnetic moments (NMagM)
  in nuclear magnetons)

  Atom         1           2           3           4           5           6           7           8           9          10
 IAtWgt=          24          12          12          12          12          14          12          12          12          12
 AtmWgt=  23.9850450  12.0000000  12.0000000  12.0000000  12.0000000  14.0030740  12.0000000  12.0000000  12.0000000  12.0000000
 NucSpn=           0           0           0           0           0           2           0           0           0           0
 AtZEff=  -0.0000000  -0.0000000  -0.0000000  -0.0000000  -0.0000000  -0.0000000  -0.0000000  -0.0000000  -0.0000000  -0.0000000
 NQMom=    0.0000000   0.0000000   0.0000000   0.0000000   0.0000000   2.0440000   0.0000000   0.0000000   0.0000000   0.0000000
 NMagM=    0.0000000   0.0000000   0.0000000   0.0000000   0.0000000   0.4037610   0.0000000   0.0000000   0.0000000   0.0000000
 AtZNuc=  12.0000000   6.0000000   6.0000000   6.0000000   6.0000000   7.0000000   6.0000000   6.0000000   6.0000000   6.0000000

  Atom        11          12          13          14          15          16          17          18          19          20
 IAtWgt=          12          12          12           1          14          12          12          12          12          12
 AtmWgt=  12.0000000  12.0000000  12.0000000   1.0078250  14.0030740  12.0000000  12.0000000  12.0000000  12.0000000  12.0000000
 NucSpn=           0           0           0           1           2           0           0           0           0           0
 AtZEff=  -0.0000000  -0.0000000  -0.0000000  -0.0000000  -0.0000000  -0.0000000  -0.0000000  -0.0000000  -0.0000000  -0.0000000
 NQMom=    0.0000000   0.0000000   0.0000000   0.0000000   2.0440000   0.0000000   0.0000000   0.0000000   0.0000000   0.0000000
 NMagM=    0.0000000   0.0000000   0.0000000   2.7928460   0.4037610   0.0000000   0.0000000   0.0000000   0.0000000   0.0000000
 AtZNuc=   6.0000000   6.0000000   6.0000000   1.0000000   7.0000000   6.0000000   6.0000000   6.0000000   6.0000000   6.0000000

  Atom        21          22          23          24          25          26          27          28          29          30
 IAtWgt=          12          16          12          14          12          12          12          12          12          12
 AtmWgt=  12.0000000  15.9949146  12.0000000  14.0030740  12.0000000  12.0000000  12.0000000  12.0000000  12.0000000  12.0000000
 NucSpn=           0           0           0           2           0           0           0           0           0           0
 AtZEff=  -0.0000000  -0.0000000  -0.0000000  -0.0000000  -0.0000000  -0.0000000  -0.0000000  -0.0000000  -0.0000000  -0.0000000
 NQMom=    0.0000000   0.0000000   0.0000000   2.0440000   0.0000000   0.0000000   0.0000000   0.0000000   0.0000000   0.0000000
 NMagM=    0.0000000   0.0000000   0.0000000   0.4037610   0.0000000   0.0000000   0.0000000   0.0000000   0.0000000   0.0000000
 AtZNuc=   6.0000000   8.0000000   6.0000000   7.0000000   6.0000000   6.0000000   6.0000000   6.0000000   6.0000000   6.0000000

  Atom        31          32          33          34          35          36          37          38          39          40
 IAtWgt=          12          14          12          12          12          12          12          12          16          12
 AtmWgt=  12.0000000  14.0030740  12.0000000  12.0000000  12.0000000  12.0000000  12.0000000  12.0000000  15.9949146  12.0000000
 NucSpn=           0           2           0           0           0           0           0           0           0           0
 AtZEff=  -0.0000000  -0.0000000  -0.0000000  -0.0000000  -0.0000000  -0.0000000  -0.0000000  -0.0000000  -0.0000000  -0.0000000
 NQMom=    0.0000000   2.0440000   0.0000000   0.0000000   0.0000000   0.0000000   0.0000000   0.0000000   0.0000000   0.0000000
 NMagM=    0.0000000   0.4037610   0.0000000   0.0000000   0.0000000   0.0000000   0.0000000   0.0000000   0.0000000   0.0000000
 AtZNuc=   6.0000000   7.0000000   6.0000000   6.0000000   6.0000000   6.0000000   6.0000000   6.0000000   8.0000000   6.0000000

  Atom        41          42          43          44          45          46          47          48          49          50
 IAtWgt=          12          16          16          12           1           1           1           1           1           1
 AtmWgt=  12.0000000  15.9949146  15.9949146  12.0000000   1.0078250   1.0078250   1.0078250   1.0078250   1.0078250   1.0078250
 NucSpn=           0           0           0           0           1           1           1           1           1           1
 AtZEff=  -0.0000000  -0.0000000  -0.0000000  -0.0000000  -0.0000000  -0.0000000  -0.0000000  -0.0000000  -0.0000000  -0.0000000
 NQMom=    0.0000000   0.0000000   0.0000000   0.0000000   0.0000000   0.0000000   0.0000000   0.0000000   0.0000000   0.0000000
 NMagM=    0.0000000   0.0000000   0.0000000   0.0000000   2.7928460   2.7928460   2.7928460   2.7928460   2.7928460   2.7928460
 AtZNuc=   6.0000000   8.0000000   8.0000000   6.0000000   1.0000000   1.0000000   1.0000000   1.0000000   1.0000000   1.0000000

  Atom        51          52          53          54          55          56          57          58          59          60
 IAtWgt=           1           1           1           1           1           1           1           1           1           1
 AtmWgt=   1.0078250   1.0078250   1.0078250   1.0078250   1.0078250   1.0078250   1.0078250   1.0078250   1.0078250   1.0078250
 NucSpn=           1           1           1           1           1           1           1           1           1           1
 AtZEff=  -0.0000000  -0.0000000  -0.0000000  -0.0000000  -0.0000000  -0.0000000  -0.0000000  -0.0000000  -0.0000000  -0.0000000
 NQMom=    0.0000000   0.0000000   0.0000000   0.0000000   0.0000000   0.0000000   0.0000000   0.0000000   0.0000000   0.0000000
 NMagM=    2.7928460   2.7928460   2.7928460   2.7928460   2.7928460   2.7928460   2.7928460   2.7928460   2.7928460   2.7928460
 AtZNuc=   1.0000000   1.0000000   1.0000000   1.0000000   1.0000000   1.0000000   1.0000000   1.0000000   1.0000000   1.0000000

  Atom        61          62          63          64          65          66          67          68          69          70
 IAtWgt=           1           1           1           1           1           1           1           1           1           1
 AtmWgt=   1.0078250   1.0078250   1.0078250   1.0078250   1.0078250   1.0078250   1.0078250   1.0078250   1.0078250   1.0078250
 NucSpn=           1           1           1           1           1           1           1           1           1           1
 AtZEff=  -0.0000000  -0.0000000  -0.0000000  -0.0000000  -0.0000000  -0.0000000  -0.0000000  -0.0000000  -0.0000000  -0.0000000
 NQMom=    0.0000000   0.0000000   0.0000000   0.0000000   0.0000000   0.0000000   0.0000000   0.0000000   0.0000000   0.0000000
 NMagM=    2.7928460   2.7928460   2.7928460   2.7928460   2.7928460   2.7928460   2.7928460   2.7928460   2.7928460   2.7928460
 AtZNuc=   1.0000000   1.0000000   1.0000000   1.0000000   1.0000000   1.0000000   1.0000000   1.0000000   1.0000000   1.0000000

  Atom        71          72          73          74          75          76          77          78          79          80
 IAtWgt=           1           1           1           1           1           1           1           1           1          24
 AtmWgt=   1.0078250   1.0078250   1.0078250   1.0078250   1.0078250   1.0078250   1.0078250   1.0078250   1.0078250  23.9850450
 NucSpn=           1           1           1           1           1           1           1           1           1           0
 AtZEff=  -0.0000000  -0.0000000  -0.0000000  -0.0000000  -0.0000000  -0.0000000  -0.0000000  -0.0000000  -0.0000000  -0.0000000
 NQMom=    0.0000000   0.0000000   0.0000000   0.0000000   0.0000000   0.0000000   0.0000000   0.0000000   0.0000000   0.0000000
 NMagM=    2.7928460   2.7928460   2.7928460   2.7928460   2.7928460   2.7928460   2.7928460   2.7928460   2.7928460   0.0000000
 AtZNuc=   1.0000000   1.0000000   1.0000000   1.0000000   1.0000000   1.0000000   1.0000000   1.0000000   1.0000000  12.0000000

  Atom        81          82          83          84          85          86          87          88          89          90
 IAtWgt=          12          12          12          12          14          12          12          12          12          12
 AtmWgt=  12.0000000  12.0000000  12.0000000  12.0000000  14.0030740  12.0000000  12.0000000  12.0000000  12.0000000  12.0000000
 NucSpn=           0           0           0           0           2           0           0           0           0           0
 AtZEff=  -0.0000000  -0.0000000  -0.0000000  -0.0000000  -0.0000000  -0.0000000  -0.0000000  -0.0000000  -0.0000000  -0.0000000
 NQMom=    0.0000000   0.0000000   0.0000000   0.0000000   2.0440000   0.0000000   0.0000000   0.0000000   0.0000000   0.0000000
 NMagM=    0.0000000   0.0000000   0.0000000   0.0000000   0.4037610   0.0000000   0.0000000   0.0000000   0.0000000   0.0000000
 AtZNuc=   6.0000000   6.0000000   6.0000000   6.0000000   7.0000000   6.0000000   6.0000000   6.0000000   6.0000000   6.0000000

  Atom        91          92          93          94          95          96          97          98          99         100
 IAtWgt=          12          12           1          14          12          12          12          12          12          12
 AtmWgt=  12.0000000  12.0000000   1.0078250  14.0030740  12.0000000  12.0000000  12.0000000  12.0000000  12.0000000  12.0000000
 NucSpn=           0           0           1           2           0           0           0           0           0           0
 AtZEff=  -0.0000000  -0.0000000  -0.0000000  -0.0000000  -0.0000000  -0.0000000  -0.0000000  -0.0000000  -0.0000000  -0.0000000
 NQMom=    0.0000000   0.0000000   0.0000000   2.0440000   0.0000000   0.0000000   0.0000000   0.0000000   0.0000000   0.0000000
 NMagM=    0.0000000   0.0000000   2.7928460   0.4037610   0.0000000   0.0000000   0.0000000   0.0000000   0.0000000   0.0000000
 AtZNuc=   6.0000000   6.0000000   1.0000000   7.0000000   6.0000000   6.0000000   6.0000000   6.0000000   6.0000000   6.0000000

  Atom       101         102         103         104         105         106         107         108         109         110
 IAtWgt=          16          12          14          12          12          12          12          12          12          12
 AtmWgt=  15.9949146  12.0000000  14.0030740  12.0000000  12.0000000  12.0000000  12.0000000  12.0000000  12.0000000  12.0000000
 NucSpn=           0           0           2           0           0           0           0           0           0           0
 AtZEff=  -0.0000000  -0.0000000  -0.0000000  -0.0000000  -0.0000000  -0.0000000  -0.0000000  -0.0000000  -0.0000000  -0.0000000
 NQMom=    0.0000000   0.0000000   2.0440000   0.0000000   0.0000000   0.0000000   0.0000000   0.0000000   0.0000000   0.0000000
 NMagM=    0.0000000   0.0000000   0.4037610   0.0000000   0.0000000   0.0000000   0.0000000   0.0000000   0.0000000   0.0000000
 AtZNuc=   8.0000000   6.0000000   7.0000000   6.0000000   6.0000000   6.0000000   6.0000000   6.0000000   6.0000000   6.0000000

  Atom       111         112         113         114         115         116         117         118         119         120
 IAtWgt=          14          12          12          12          12          12          12          16          12          12
 AtmWgt=  14.0030740  12.0000000  12.0000000  12.0000000  12.0000000  12.0000000  12.0000000  15.9949146  12.0000000  12.0000000
 NucSpn=           2           0           0           0           0           0           0           0           0           0
 AtZEff=  -0.0000000  -0.0000000  -0.0000000  -0.0000000  -0.0000000  -0.0000000  -0.0000000  -0.0000000  -0.0000000  -0.0000000
 NQMom=    2.0440000   0.0000000   0.0000000   0.0000000   0.0000000   0.0000000   0.0000000   0.0000000   0.0000000   0.0000000
 NMagM=    0.4037610   0.0000000   0.0000000   0.0000000   0.0000000   0.0000000   0.0000000   0.0000000   0.0000000   0.0000000
 AtZNuc=   7.0000000   6.0000000   6.0000000   6.0000000   6.0000000   6.0000000   6.0000000   8.0000000   6.0000000   6.0000000

  Atom       121         122         123         124         125         126         127         128         129         130
 IAtWgt=          16          16          12           1           1           1           1           1           1           1
 AtmWgt=  15.9949146  15.9949146  12.0000000   1.0078250   1.0078250   1.0078250   1.0078250   1.0078250   1.0078250   1.0078250
 NucSpn=           0           0           0           1           1           1           1           1           1           1
 AtZEff=  -0.0000000  -0.0000000  -0.0000000  -0.0000000  -0.0000000  -0.0000000  -0.0000000  -0.0000000  -0.0000000  -0.0000000
 NQMom=    0.0000000   0.0000000   0.0000000   0.0000000   0.0000000   0.0000000   0.0000000   0.0000000   0.0000000   0.0000000
 NMagM=    0.0000000   0.0000000   0.0000000   2.7928460   2.7928460   2.7928460   2.7928460   2.7928460   2.7928460   2.7928460
 AtZNuc=   8.0000000   8.0000000   6.0000000   1.0000000   1.0000000   1.0000000   1.0000000   1.0000000   1.0000000   1.0000000

  Atom       131         132         133         134         135         136         137         138         139         140
 IAtWgt=           1           1           1           1           1           1           1           1           1           1
 AtmWgt=   1.0078250   1.0078250   1.0078250   1.0078250   1.0078250   1.0078250   1.0078250   1.0078250   1.0078250   1.0078250
 NucSpn=           1           1           1           1           1           1           1           1           1           1
 AtZEff=  -0.0000000  -0.0000000  -0.0000000  -0.0000000  -0.0000000  -0.0000000  -0.0000000  -0.0000000  -0.0000000  -0.0000000
 NQMom=    0.0000000   0.0000000   0.0000000   0.0000000   0.0000000   0.0000000   0.0000000   0.0000000   0.0000000   0.0000000
 NMagM=    2.7928460   2.7928460   2.7928460   2.7928460   2.7928460   2.7928460   2.7928460   2.7928460   2.7928460   2.7928460
 AtZNuc=   1.0000000   1.0000000   1.0000000   1.0000000   1.0000000   1.0000000   1.0000000   1.0000000   1.0000000   1.0000000

  Atom       141         142         143         144         145         146         147         148         149         150
 IAtWgt=           1           1           1           1           1           1           1           1           1           1
 AtmWgt=   1.0078250   1.0078250   1.0078250   1.0078250   1.0078250   1.0078250   1.0078250   1.0078250   1.0078250   1.0078250
 NucSpn=           1           1           1           1           1           1           1           1           1           1
 AtZEff=  -0.0000000  -0.0000000  -0.0000000  -0.0000000  -0.0000000  -0.0000000  -0.0000000  -0.0000000  -0.0000000  -0.0000000
 NQMom=    0.0000000   0.0000000   0.0000000   0.0000000   0.0000000   0.0000000   0.0000000   0.0000000   0.0000000   0.0000000
 NMagM=    2.7928460   2.7928460   2.7928460   2.7928460   2.7928460   2.7928460   2.7928460   2.7928460   2.7928460   2.7928460
 AtZNuc=   1.0000000   1.0000000   1.0000000   1.0000000   1.0000000   1.0000000   1.0000000   1.0000000   1.0000000   1.0000000

  Atom       151         152         153         154         155         156         157         158
 IAtWgt=           1           1           1           1           1           1           1           1
 AtmWgt=   1.0078250   1.0078250   1.0078250   1.0078250   1.0078250   1.0078250   1.0078250   1.0078250
 NucSpn=           1           1           1           1           1           1           1           1
 AtZEff=  -0.0000000  -0.0000000  -0.0000000  -0.0000000  -0.0000000  -0.0000000  -0.0000000  -0.0000000
 NQMom=    0.0000000   0.0000000   0.0000000   0.0000000   0.0000000   0.0000000   0.0000000   0.0000000
 NMagM=    2.7928460   2.7928460   2.7928460   2.7928460   2.7928460   2.7928460   2.7928460   2.7928460
 AtZNuc=   1.0000000   1.0000000   1.0000000   1.0000000   1.0000000   1.0000000   1.0000000   1.0000000
 Leave Link  101 at Sun Sep 12 13:17:50 2021, MaxMem= 23488102400 cpu:               3.8 elap:               0.2
 (Enter /sw/apps/gaussian-16.0/g16/l202.exe)
 Stoichiometry    C68H72Mg2N8O8
 Framework group  C1[X(C68H72Mg2N8O8)]
 Deg. of freedom   468
 Full point group                 C1      NOp   1
 Largest Abelian subgroup         C1      NOp   1
 Largest concise Abelian subgroup C1      NOp   1
                         Standard orientation:                         
 ---------------------------------------------------------------------
 Center     Atomic      Atomic             Coordinates (Angstroms)
 Number     Number       Type             X           Y           Z
 ---------------------------------------------------------------------
      1         12           0      -15.760616   -0.706858   -0.258060
      2          6           0      -16.016754    2.056278    2.002844
      3          6           0      -16.597274    1.455856   -2.761205
      4          6           0      -15.985559   -3.207250   -2.195601
      5          6           0      -16.065722   -2.806761    2.506534
      6          7           0      -16.222501    1.458158   -0.254417
      7          6           0      -16.227391    2.414100    0.669337
      8          6           0      -16.402603    3.844516    0.077236
      9          6           0      -17.128316    3.463705   -1.290361
     10          6           0      -16.590839    2.054422   -1.466327
     11          6           0      -18.647961    3.399147   -1.176279
     12          6           0      -15.030492    4.553504   -0.180406
     13          6           0      -15.112989    6.059326   -0.446955
     14          1           0      -14.049959    6.918212    0.052674
     15          7           0      -15.742856   -0.804440   -2.231132
     16          6           0      -16.099864    0.177241   -3.093764
     17          6           0      -15.912422   -0.383256   -4.449268
     18          6           0      -15.598953   -1.831884   -4.303304
     19          6           0      -15.791536   -2.013912   -2.887269
     20          6           0      -15.986611    0.440839   -5.697913
     21          6           0      -15.200826   -2.887360   -5.285953
     22          8           0      -15.202147   -4.130386   -4.986859
     23          6           0      -14.890221   -2.429313   -6.652247
     24          7           0      -16.212059   -2.718913    0.066703
     25          6           0      -16.184233   -3.603017   -0.936576
     26          6           0      -16.259866   -5.011262   -0.425629
     27          6           0      -16.100085   -4.915305    1.160251
     28          6           0      -16.038803   -3.374065    1.298432
     29          6           0      -17.546159   -5.777617   -0.763508
     30          6           0      -14.972366   -5.759129    1.805719
     31          6           0      -13.623392   -5.224240    1.379973
     32          7           0      -15.822147   -0.459908    1.897462
     33          6           0      -15.976924   -1.470116    2.857773
     34          6           0      -16.068559   -0.806934    4.171493
     35          6           0      -15.976763    0.552778    3.880632
     36          6           0      -15.863044    0.729177    2.472000
     37          6           0      -16.274914   -1.456612    5.420401
     38          6           0      -15.973059    1.898869    4.430070
     39          8           0      -15.947016    2.371139    5.567513
     40          6           0      -16.121360    2.931542    3.226982
     41          6           0      -15.081945    4.002519    3.416540
     42          8           0      -13.866305    3.739344    3.314924
     43          8           0      -15.681259    5.202603    3.450654
     44          6           0      -14.703020    6.311972    3.607187
     45          1           0      -17.078663    1.985953   -3.585343
     46          1           0      -15.958191   -4.104166   -2.817879
     47          1           0      -16.076913   -3.401664    3.421640
     48          1           0      -17.039882    4.504998    0.665507
     49          1           0      -16.803236    4.098855   -2.114151
     50          1           0      -18.974389    3.499251   -0.141222
     51          1           0      -18.928242    2.422382   -1.571078
     52          1           0      -19.117154    4.133194   -1.831878
     53          1           0      -14.626257    4.217917   -1.135412
     54          1           0      -14.340863    4.370623    0.644393
     55          1           0      -16.088976    6.459963   -0.171548
     56          1           0      -15.048203    6.219723   -1.523187
     57          1           0      -16.395131    1.431134   -5.500498
     58          1           0      -16.722452   -0.031870   -6.348139
     59          1           0      -15.025934    0.497339   -6.210006
     60          1           0      -15.760946   -1.922218   -7.068470
     61          1           0      -14.539636   -3.308468   -7.191715
     62          1           0      -14.095941   -1.683915   -6.602741
     63          1           0      -15.450730   -5.617998   -0.830099
     64          1           0      -17.002633   -5.233980    1.682293
     65          1           0      -17.372022   -6.709426   -1.302129
     66          1           0      -18.195150   -5.112468   -1.332435
     67          1           0      -18.175995   -6.013918    0.093747
     68          1           0      -15.029707   -6.792423    1.465188
     69          1           0      -15.010050   -5.766375    2.895113
     70          1           0      -13.466407   -5.701358    0.413254
     71          1           0      -12.853666   -5.522956    2.092364
     72          1           0      -13.657410   -4.147866    1.210416
     73          1           0      -15.591494   -0.984764    6.126280
     74          1           0      -16.089190   -2.527790    5.344977
     75          1           0      -17.325525   -1.226364    5.596633
     76          1           0      -17.134056    3.330114    3.279022
     77          1           0      -15.002116    6.881917    4.486925
     78          1           0      -14.672604    6.835454    2.651443
     79          1           0      -13.688076    6.024246    3.883667
     80         12           0       15.979128   -0.574152    0.347058
     81          6           0       15.065599    1.828730   -2.157071
     82          6           0       17.781097    1.900729    1.851217
     83          6           0       17.162910   -2.766478    2.311698
     84          6           0       15.079747   -3.067506   -1.915674
     85          7           0       16.303366    1.549375   -0.179972
     86          6           0       15.855633    2.367663   -1.120336
     87          6           0       16.211738    3.861746   -0.895699
     88          6           0       17.506701    3.663294    0.033041
     89          6           0       17.167461    2.302515    0.637918
     90          6           0       18.798113    3.526594   -0.756206
     91          6           0       15.077254    4.639658   -0.140840
     92          6           0       15.219613    6.163179   -0.160185
     93          1           0       14.007660    6.974622   -0.232213
     94          7           0       16.868478   -0.372979    2.109778
     95          6           0       17.534682    0.708195    2.566411
     96          6           0       18.018369    0.345878    3.907650
     97          6           0       17.724710   -1.094611    4.138905
     98          6           0       17.248961   -1.480792    2.825661
     99          6           0       18.613876    1.345998    4.855556
    100          6           0       17.862840   -1.981249    5.339323
    101          8           0       17.772398   -3.256553    5.248459
    102          6           0       18.199775   -1.319204    6.608047
    103          7           0       16.305429   -2.617664    0.147236
    104          6           0       16.782276   -3.345123    1.172583
    105          6           0       16.673935   -4.824361    0.888797
    106          6           0       15.799261   -4.943036   -0.444783
    107          6           0       15.620687   -3.442648   -0.764664
    108          6           0       17.997933   -5.563489    0.696178
    109          6           0       14.533186   -5.840455   -0.378498
    110          6           0       13.507582   -5.218833    0.541881
    111          7           0       15.040365   -0.644724   -1.597622
    112          6           0       14.781528   -1.792334   -2.378694
    113          6           0       14.236276   -1.326127   -3.670118
    114          6           0       14.237250    0.072473   -3.558634
    115          6           0       14.765945    0.451822   -2.295280
    116          6           0       13.865373   -2.156685   -4.764977
    117          6           0       13.921129    1.314501   -4.226566
    118          8           0       13.367093    1.616261   -5.282836
    119          6           0       14.561071    2.510757   -3.398408
    120          6           0       13.511923    3.576196   -3.235230
    121          8           0       12.488602    3.357889   -2.563097
    122          8           0       13.987749    4.740145   -3.713965
    123          6           0       12.987221    5.830268   -3.564276
    124          1           0       18.556456    2.538534    2.276556
    125          1           0       17.455980   -3.567651    2.994129
    126          1           0       14.683766   -3.786231   -2.636309
    127          1           0       16.478335    4.405248   -1.794210
    128          1           0       17.556948    4.423369    0.808364
    129          1           0       18.616354    3.466957   -1.819018
    130          1           0       19.265324    2.617547   -0.400686
    131          1           0       19.484527    4.338546   -0.499513
    132          1           0       15.173031    4.455679    0.936985
    133          1           0       14.111035    4.362236   -0.515126
    134          1           0       15.951945    6.499326   -0.904257
    135          1           0       15.641488    6.484444    0.795236
    136          1           0       18.852866    2.288632    4.347888
    137          1           0       19.586889    0.951104    5.167302
    138          1           0       17.996610    1.505357    5.742271
    139          1           0       19.139154   -0.782798    6.497145
    140          1           0       18.167027   -2.104879    7.365358
    141          1           0       17.432202   -0.568057    6.825335
    142          1           0       16.159534   -5.335778    1.693118
    143          1           0       16.378051   -5.374554   -1.274622
    144          1           0       18.129497   -6.412194    1.393652
    145          1           0       18.805337   -4.851850    0.806629
    146          1           0       18.168187   -5.952286   -0.306336
    147          1           0       14.782006   -6.815513    0.047533
    148          1           0       14.078959   -6.018801   -1.347448
    149          1           0       13.835704   -5.545219    1.533297
    150          1           0       12.511392   -5.592096    0.313116
    151          1           0       13.569176   -4.124625    0.517941
    152          1           0       12.924711   -1.775865   -5.139969
    153          1           0       13.781350   -3.198574   -4.463017
    154          1           0       14.714863   -1.990065   -5.432719
    155          1           0       15.426064    2.870129   -3.957175
    156          1           0       12.830860    6.259193   -4.558893
    157          1           0       13.391758    6.501985   -2.783961
    158          1           0       11.976167    5.548953   -3.293944
 ---------------------------------------------------------------------
 Rotational constants (GHZ):           0.0213186           0.0016376           0.0016273
 Leave Link  202 at Sun Sep 12 13:17:50 2021, MaxMem= 23488102400 cpu:               0.2 elap:               0.0
 (Enter /sw/apps/gaussian-16.0/g16/l301.exe)
 Standard basis: def2SVP (5D, 7F)
 Ernie: Thresh=  0.10000D-02 Tol=  0.10000D-05 Strict=F.
 There are  1658 symmetry adapted cartesian basis functions of A   symmetry.
 There are  1572 symmetry adapted basis functions of A   symmetry.
  1572 basis functions,  2678 primitive gaussians,  1658 cartesian basis functions
   312 alpha electrons      312 beta electrons
       nuclear repulsion energy     12313.0033400789 Hartrees.
 IExCor=20419 DFT=T Ex+Corr=CAM-B3LYP ExCW=0 ScaHFX=  1.000000
 ScaDFX=  1.000000  1.000000  1.000000  0.810000 ScalE2=  1.000000  1.000000
 IRadAn=      5 IRanWt=     -1 IRanGd=            0 ICorTp=0 IEmpDi=  4
 HFx  wShort=  0.000000 wLong=  0.330000 cFull=  0.190000 cShort=  0.000000 cLong=  0.460000
 DFx  wShort=  0.000000 wLong=  0.330000 cFull=  0.190000 cShort=  0.000000 cLong=  0.460000
 NAtoms=  158 NActive=  158 NUniq=  158 SFac= 1.00D+00 NAtFMM=   60 NAOKFM=T Big=T
 Integral buffers will be    131072 words long.
 Raffenetti 1 integral format.
 Two-electron integral symmetry is turned on.
 Leave Link  301 at Sun Sep 12 13:17:50 2021, MaxMem= 23488102400 cpu:               1.3 elap:               0.1
 (Enter /sw/apps/gaussian-16.0/g16/l302.exe)
 NPDir=0 NMtPBC=     1 NCelOv=     1 NCel=       1 NClECP=     1 NCelD=      1
         NCelK=      1 NCelE2=     1 NClLst=     1 CellRange=     0.0.
 One-electron integrals computed using PRISM.
 One-electron integral symmetry used in STVInt
   1 Symmetry operations used in ECPInt.
 ECPInt:  NShTT=  271216 NPrTT=  987664 LenC2=  103957 LenP2D=  239866.
 LDataN:  DoStor=T MaxTD1= 4 Len=   56
 NBasis=  1572 RedAO= T EigKep=  3.36D-04  NBF=  1572
 NBsUse=  1572 1.00D-06 EigRej= -1.00D+00 NBFU=  1572
 Precomputing XC quadrature grid using
 IXCGrd= 4 IRadAn=           5 IRanWt=          -1 IRanGd=           0 AccXCQ= 0.00D+00.
 Generated NRdTot=       0 NPtTot=           0 NUsed=           0 NTot=          32
 NSgBfM=   812   812   812   812   812 MxSgAt=   158 MxSgA2=    79.
 Leave Link  302 at Sun Sep 12 13:17:55 2021, MaxMem= 23488102400 cpu:             105.7 elap:               4.4
 (Enter /sw/apps/gaussian-16.0/g16/l303.exe)
 DipDrv:  MaxL=1.
 Leave Link  303 at Sun Sep 12 13:17:55 2021, MaxMem= 23488102400 cpu:               8.8 elap:               0.4
 (Enter /sw/apps/gaussian-16.0/g16/l308.exe)
 Leave Link  308 at Sun Sep 12 13:17:56 2021, MaxMem= 23488102400 cpu:              12.1 elap:               0.6
 (Enter /sw/apps/gaussian-16.0/g16/l401.exe)
 ExpMin= 3.36D-02 ExpMax= 4.95D+03 ExpMxC= 7.45D+02 IAcc=3 IRadAn=         5 AccDes= 0.00D+00
 Harris functional with IExCor=20419 and IRadAn=       5 diagonalized for initial guess.
 HarFok:  IExCor=20419 AccDes= 0.00D+00 IRadAn=         5 IDoV= 1 UseB2=F ITyADJ=14
 ICtDFT=  3500011 ScaDFX=  1.000000  1.000000  1.000000  1.000000
 FoFCou: FMM=F IPFlag=           0 FMFlag=      100000 FMFlg1=        2001
         NFxFlg=           0 DoJE=T BraDBF=F KetDBF=T FulRan=T
         wScrn=  0.000000 ICntrl=       500 IOpCl=  0 I1Cent=   200000004 NGrid=           0
         NMat0=    1 NMatS0=      1 NMatT0=    0 NMatD0=    1 NMtDS0=    0 NMtDT0=    0
 Petite list used in FoFCou.
 Harris En= -3918.65801753242    
 JPrj=0 DoOrth=F DoCkMO=F.
 Leave Link  401 at Sun Sep 12 13:18:03 2021, MaxMem= 23488102400 cpu:             161.5 elap:               6.8
 (Enter /sw/apps/gaussian-16.0/g16/l502.exe)
 Integral symmetry usage will be decided dynamically.
 Closed shell SCF:
 Using DIIS extrapolation, IDIIS=  1040.
 NGot= 23488102400 LenX= 23482547354 LenY= 23479796732
 Requested convergence on RMS density matrix=1.00D-08 within 128 cycles.
 Requested convergence on MAX density matrix=1.00D-06.
 Requested convergence on             energy=1.00D-06.
 No special actions if energy rises.
 Fock matrices will be formed incrementally for  20 cycles.

 Cycle   1  Pass 1  IDiag  1:
 FoFJK:  IHMeth= 1 ICntrl=       0 DoSepK=T KAlg= 0 I1Cent=           0 FoldK=F
 IRaf=         1 NMat=       1 IRICut=       1 DoRegI=T DoRafI=F ISym2E= 0 IDoP0=0 IntGTp=1.
 FoFCou: FMM=T IPFlag=           0 FMFlag=      100000 FMFlg1=        2001
         NFxFlg=           0 DoJE=T BraDBF=F KetDBF=F FulRan=T
         wScrn=  0.000000 ICntrl=       500 IOpCl=  0 I1Cent=           0 NGrid=           0
         NMat0=    1 NMatS0=      1 NMatT0=    0 NMatD0=    1 NMtDS0=    0 NMtDT0=    0
 Symmetry not used in FoFCou.
 FMM levels:  10  Number of levels for PrismC:   9
 E= -4068.94930345353    
 DIIS: error= 2.04D-02 at cycle   1 NSaved=   1.
 NSaved= 1 IEnMin= 1 EnMin= -4068.94930345353     IErMin= 1 ErrMin= 2.04D-02
 ErrMax= 2.04D-02  0.00D+00 EMaxC= 1.00D-01 BMatC= 1.69D+00 BMatP= 1.69D+00
 IDIUse=3 WtCom= 7.96D-01 WtEn= 2.04D-01
 Coeff-Com:  0.100D+01
 Coeff-En:   0.100D+01
 Coeff:      0.100D+01
 Gap=     0.120 Goal=   None    Shift=    0.000
 GapD=    0.120 DampG=1.000 DampE=0.500 DampFc=0.5000 IDamp=-1.
 Damping current iteration by 5.00D-01
 RMSDP=1.57D-03 MaxDP=1.35D-01              OVMax= 2.02D-01

 Cycle   2  Pass 1  IDiag  1:
 RMSU=  7.69D-04    CP:  9.82D-01
 E= -4069.33821453606     Delta-E=       -0.388911082531 Rises=F Damp=T
 DIIS: error= 1.27D-02 at cycle   2 NSaved=   2.
 NSaved= 2 IEnMin= 2 EnMin= -4069.33821453606     IErMin= 2 ErrMin= 1.27D-02
 ErrMax= 1.27D-02  0.00D+00 EMaxC= 1.00D-01 BMatC= 3.07D-01 BMatP= 1.69D+00
 IDIUse=3 WtCom= 8.73D-01 WtEn= 1.27D-01
 Coeff-Com: -0.213D+00 0.121D+01
 Coeff-En:   0.000D+00 0.100D+01
 Coeff:     -0.186D+00 0.119D+01
 Gap=     0.138 Goal=   None    Shift=    0.000
 RMSDP=7.65D-04 MaxDP=9.43D-02 DE=-3.89D-01 OVMax= 1.88D-01

 Cycle   3  Pass 1  IDiag  1:
 RMSU=  7.32D-04    CP:  9.68D-01  1.24D+00
 E= -4069.62802127709     Delta-E=       -0.289806741033 Rises=F Damp=F
 DIIS: error= 1.58D-02 at cycle   3 NSaved=   3.
 NSaved= 3 IEnMin= 3 EnMin= -4069.62802127709     IErMin= 2 ErrMin= 1.27D-02
 ErrMax= 1.58D-02  0.00D+00 EMaxC= 1.00D-01 BMatC= 2.02D-01 BMatP= 3.07D-01
 IDIUse=3 WtCom= 8.42D-01 WtEn= 1.58D-01
 Coeff-Com: -0.267D+00 0.652D+00 0.616D+00
 Coeff-En:   0.000D+00 0.000D+00 0.100D+01
 Coeff:     -0.225D+00 0.549D+00 0.676D+00
 Gap=     0.125 Goal=   None    Shift=    0.000
 RMSDP=5.08D-04 MaxDP=4.78D-02 DE=-2.90D-01 OVMax= 1.42D-01

 Cycle   4  Pass 1  IDiag  1:
 RMSU=  2.65D-04    CP:  9.65D-01  1.55D+00  5.06D-01
 E= -4069.76510102064     Delta-E=       -0.137079743552 Rises=F Damp=F
 DIIS: error= 7.33D-03 at cycle   4 NSaved=   4.
 NSaved= 4 IEnMin= 4 EnMin= -4069.76510102064     IErMin= 4 ErrMin= 7.33D-03
 ErrMax= 7.33D-03  0.00D+00 EMaxC= 1.00D-01 BMatC= 5.04D-02 BMatP= 2.02D-01
 IDIUse=3 WtCom= 9.27D-01 WtEn= 7.33D-02
 Coeff-Com: -0.109D+00 0.226D+00 0.409D+00 0.474D+00
 Coeff-En:   0.000D+00 0.000D+00 0.221D+00 0.779D+00
 Coeff:     -0.101D+00 0.209D+00 0.395D+00 0.497D+00
 Gap=     0.123 Goal=   None    Shift=    0.000
 RMSDP=2.00D-04 MaxDP=2.09D-02 DE=-1.37D-01 OVMax= 6.13D-02

 Cycle   5  Pass 1  IDiag  1:
 RMSU=  7.57D-05    CP:  9.64D-01  1.49D+00  6.89D-01  5.50D-01
 E= -4069.81055042893     Delta-E=       -0.045449408288 Rises=F Damp=F
 DIIS: error= 7.90D-04 at cycle   5 NSaved=   5.
 NSaved= 5 IEnMin= 5 EnMin= -4069.81055042893     IErMin= 5 ErrMin= 7.90D-04
 ErrMax= 7.90D-04  0.00D+00 EMaxC= 1.00D-01 BMatC= 1.16D-03 BMatP= 5.04D-02
 IDIUse=3 WtCom= 9.92D-01 WtEn= 7.90D-03
 Coeff-Com: -0.357D-01 0.700D-01 0.165D+00 0.249D+00 0.552D+00
 Coeff-En:   0.000D+00 0.000D+00 0.000D+00 0.000D+00 0.100D+01
 Coeff:     -0.354D-01 0.695D-01 0.164D+00 0.247D+00 0.555D+00
 Gap=     0.122 Goal=   None    Shift=    0.000
 RMSDP=4.06D-05 MaxDP=4.16D-03 DE=-4.54D-02 OVMax= 1.62D-02

 Cycle   6  Pass 1  IDiag  1:
 RMSU=  3.01D-05    CP:  9.64D-01  1.49D+00  6.81D-01  6.21D-01  7.60D-01
 E= -4069.81155276475     Delta-E=       -0.001002335817 Rises=F Damp=F
 DIIS: error= 2.21D-04 at cycle   6 NSaved=   6.
 NSaved= 6 IEnMin= 6 EnMin= -4069.81155276475     IErMin= 6 ErrMin= 2.21D-04
 ErrMax= 2.21D-04  0.00D+00 EMaxC= 1.00D-01 BMatC= 1.75D-04 BMatP= 1.16D-03
 IDIUse=3 WtCom= 9.98D-01 WtEn= 2.21D-03
 Coeff-Com:  0.233D-02-0.682D-02 0.107D-01 0.396D-01 0.306D+00 0.648D+00
 Coeff-En:   0.000D+00 0.000D+00 0.000D+00 0.000D+00 0.101D+00 0.899D+00
 Coeff:      0.233D-02-0.681D-02 0.107D-01 0.395D-01 0.305D+00 0.649D+00
 Gap=     0.123 Goal=   None    Shift=    0.000
 RMSDP=1.57D-05 MaxDP=1.24D-03 DE=-1.00D-03 OVMax= 7.17D-03

 Cycle   7  Pass 1  IDiag  1:
 RMSU=  1.06D-05    CP:  9.64D-01  1.50D+00  6.87D-01  6.21D-01  8.60D-01
                    CP:  7.51D-01
 E= -4069.81173977566     Delta-E=       -0.000187010912 Rises=F Damp=F
 DIIS: error= 8.24D-05 at cycle   7 NSaved=   7.
 NSaved= 7 IEnMin= 7 EnMin= -4069.81173977566     IErMin= 7 ErrMin= 8.24D-05
 ErrMax= 8.24D-05  0.00D+00 EMaxC= 1.00D-01 BMatC= 2.04D-05 BMatP= 1.75D-04
 IDIUse=1 WtCom= 1.00D+00 WtEn= 0.00D+00
 Coeff-Com:  0.445D-02-0.972D-02-0.900D-02-0.389D-02 0.101D+00 0.328D+00
 Coeff-Com:  0.588D+00
 Coeff:      0.445D-02-0.972D-02-0.900D-02-0.389D-02 0.101D+00 0.328D+00
 Coeff:      0.588D+00
 Gap=     0.123 Goal=   None    Shift=    0.000
 RMSDP=6.47D-06 MaxDP=1.11D-03 DE=-1.87D-04 OVMax= 3.38D-03

 Cycle   8  Pass 1  IDiag  1:
 RMSU=  4.66D-06    CP:  9.64D-01  1.50D+00  6.88D-01  6.26D-01  8.65D-01
                    CP:  8.77D-01  8.25D-01
 E= -4069.81176514965     Delta-E=       -0.000025373991 Rises=F Damp=F
 DIIS: error= 5.00D-05 at cycle   8 NSaved=   8.
 NSaved= 8 IEnMin= 8 EnMin= -4069.81176514965     IErMin= 8 ErrMin= 5.00D-05
 ErrMax= 5.00D-05  0.00D+00 EMaxC= 1.00D-01 BMatC= 4.79D-06 BMatP= 2.04D-05
 IDIUse=1 WtCom= 1.00D+00 WtEn= 0.00D+00
 Coeff-Com:  0.214D-02-0.425D-02-0.773D-02-0.121D-01-0.118D-01 0.335D-01
 Coeff-Com:  0.345D+00 0.655D+00
 Coeff:      0.214D-02-0.425D-02-0.773D-02-0.121D-01-0.118D-01 0.335D-01
 Coeff:      0.345D+00 0.655D+00
 Gap=     0.123 Goal=   None    Shift=    0.000
 RMSDP=3.26D-06 MaxDP=3.52D-04 DE=-2.54D-05 OVMax= 1.12D-03

 Cycle   9  Pass 1  IDiag  1:
 RMSU=  1.90D-06    CP:  9.64D-01  1.50D+00  6.88D-01  6.27D-01  8.81D-01
                    CP:  9.02D-01  1.02D+00  9.38D-01
 E= -4069.81177279841     Delta-E=       -0.000007648754 Rises=F Damp=F
 DIIS: error= 1.94D-05 at cycle   9 NSaved=   9.
 NSaved= 9 IEnMin= 9 EnMin= -4069.81177279841     IErMin= 9 ErrMin= 1.94D-05
 ErrMax= 1.94D-05  0.00D+00 EMaxC= 1.00D-01 BMatC= 6.82D-07 BMatP= 4.79D-06
 IDIUse=1 WtCom= 1.00D+00 WtEn= 0.00D+00
 Coeff-Com:  0.460D-03-0.764D-03-0.265D-02-0.597D-02-0.212D-01-0.384D-01
 Coeff-Com:  0.105D+00 0.325D+00 0.639D+00
 Coeff:      0.460D-03-0.764D-03-0.265D-02-0.597D-02-0.212D-01-0.384D-01
 Coeff:      0.105D+00 0.325D+00 0.639D+00
 Gap=     0.123 Goal=   None    Shift=    0.000
 RMSDP=1.41D-06 MaxDP=1.50D-04 DE=-7.65D-06 OVMax= 7.45D-04

 Cycle  10  Pass 1  IDiag  1:
 RMSU=  9.35D-07    CP:  9.64D-01  1.50D+00  6.88D-01  6.28D-01  8.85D-01
                    CP:  9.16D-01  1.07D+00  1.10D+00  1.05D+00
 E= -4069.81177437163     Delta-E=       -0.000001573224 Rises=F Damp=F
 DIIS: error= 1.03D-05 at cycle  10 NSaved=  10.
 NSaved=10 IEnMin=10 EnMin= -4069.81177437163     IErMin=10 ErrMin= 1.03D-05
 ErrMax= 1.03D-05  0.00D+00 EMaxC= 1.00D-01 BMatC= 1.71D-07 BMatP= 6.82D-07
 IDIUse=1 WtCom= 1.00D+00 WtEn= 0.00D+00
 Coeff-Com: -0.426D-03 0.892D-03 0.123D-02 0.112D-02-0.377D-02-0.309D-01
 Coeff-Com: -0.466D-01-0.763D-01 0.256D+00 0.898D+00
 Coeff:     -0.426D-03 0.892D-03 0.123D-02 0.112D-02-0.377D-02-0.309D-01
 Coeff:     -0.466D-01-0.763D-01 0.256D+00 0.898D+00
 Gap=     0.123 Goal=   None    Shift=    0.000
 RMSDP=1.22D-06 MaxDP=1.25D-04 DE=-1.57D-06 OVMax= 6.04D-04

 Cycle  11  Pass 1  IDiag  1:
 RMSU=  5.13D-07    CP:  9.64D-01  1.50D+00  6.88D-01  6.28D-01  8.87D-01
                    CP:  9.26D-01  1.12D+00  1.22D+00  1.39D+00  1.37D+00
 E= -4069.81177515279     Delta-E=       -0.000000781163 Rises=F Damp=F
 DIIS: error= 3.92D-06 at cycle  11 NSaved=  11.
 NSaved=11 IEnMin=11 EnMin= -4069.81177515279     IErMin=11 ErrMin= 3.92D-06
 ErrMax= 3.92D-06  0.00D+00 EMaxC= 1.00D-01 BMatC= 6.04D-08 BMatP= 1.71D-07
 IDIUse=1 WtCom= 1.00D+00 WtEn= 0.00D+00
 Coeff-Com: -0.325D-03 0.633D-03 0.132D-02 0.211D-02 0.440D-02-0.832D-02
 Coeff-Com: -0.437D-01-0.132D+00-0.223D-01 0.463D+00 0.735D+00
 Coeff:     -0.325D-03 0.633D-03 0.132D-02 0.211D-02 0.440D-02-0.832D-02
 Coeff:     -0.437D-01-0.132D+00-0.223D-01 0.463D+00 0.735D+00
 Gap=     0.123 Goal=   None    Shift=    0.000
 RMSDP=6.83D-07 MaxDP=5.77D-05 DE=-7.81D-07 OVMax= 3.69D-04

 Cycle  12  Pass 1  IDiag  1:
 RMSU=  2.62D-07    CP:  9.64D-01  1.50D+00  6.88D-01  6.28D-01  8.88D-01
                    CP:  9.29D-01  1.14D+00  1.28D+00  1.56D+00  1.76D+00
                    CP:  1.20D+00
 E= -4069.81177541307     Delta-E=       -0.000000260279 Rises=F Damp=F
 DIIS: error= 2.34D-06 at cycle  12 NSaved=  12.
 NSaved=12 IEnMin=12 EnMin= -4069.81177541307     IErMin=12 ErrMin= 2.34D-06
 ErrMax= 2.34D-06  0.00D+00 EMaxC= 1.00D-01 BMatC= 1.46D-08 BMatP= 6.04D-08
 IDIUse=1 WtCom= 1.00D+00 WtEn= 0.00D+00
 Coeff-Com:  0.970D-06-0.184D-04 0.175D-03 0.504D-03 0.328D-02 0.408D-02
 Coeff-Com:  0.288D-02-0.346D-01-0.676D-01-0.771D-01 0.250D+00 0.919D+00
 Coeff:      0.970D-06-0.184D-04 0.175D-03 0.504D-03 0.328D-02 0.408D-02
 Coeff:      0.288D-02-0.346D-01-0.676D-01-0.771D-01 0.250D+00 0.919D+00
 Gap=     0.123 Goal=   None    Shift=    0.000
 RMSDP=4.36D-07 MaxDP=3.02D-05 DE=-2.60D-07 OVMax= 2.47D-04

 Cycle  13  Pass 1  IDiag  1:
 RMSU=  1.65D-07    CP:  9.64D-01  1.50D+00  6.88D-01  6.28D-01  8.88D-01
                    CP:  9.29D-01  1.14D+00  1.31D+00  1.67D+00  1.99D+00
                    CP:  1.61D+00  1.28D+00
 E= -4069.81177550453     Delta-E=       -0.000000091453 Rises=F Damp=F
 DIIS: error= 1.24D-06 at cycle  13 NSaved=  13.
 NSaved=13 IEnMin=13 EnMin= -4069.81177550453     IErMin=13 ErrMin= 1.24D-06
 ErrMax= 1.24D-06  0.00D+00 EMaxC= 1.00D-01 BMatC= 8.04D-09 BMatP= 1.46D-08
 IDIUse=1 WtCom= 1.00D+00 WtEn= 0.00D+00
 Coeff-Com:  0.120D-03-0.245D-03-0.370D-03-0.457D-03 0.561D-03 0.509D-02
 Coeff-Com:  0.198D-01 0.227D-01-0.341D-01-0.241D+00-0.156D+00 0.599D+00
 Coeff-Com:  0.785D+00
 Coeff:      0.120D-03-0.245D-03-0.370D-03-0.457D-03 0.561D-03 0.509D-02
 Coeff:      0.198D-01 0.227D-01-0.341D-01-0.241D+00-0.156D+00 0.599D+00
 Coeff:      0.785D+00
 Gap=     0.123 Goal=   None    Shift=    0.000
 RMSDP=3.38D-07 MaxDP=2.03D-05 DE=-9.15D-08 OVMax= 1.95D-04

 Cycle  14  Pass 1  IDiag  1:
 RMSU=  7.59D-08    CP:  9.64D-01  1.50D+00  6.88D-01  6.28D-01  8.88D-01
                    CP:  9.30D-01  1.15D+00  1.33D+00  1.74D+00  2.18D+00
                    CP:  1.88D+00  1.79D+00  1.09D+00
 E= -4069.81177553999     Delta-E=       -0.000000035465 Rises=F Damp=F
 DIIS: error= 6.20D-07 at cycle  14 NSaved=  14.
 NSaved=14 IEnMin=14 EnMin= -4069.81177553999     IErMin=14 ErrMin= 6.20D-07
 ErrMax= 6.20D-07  0.00D+00 EMaxC= 1.00D-01 BMatC= 1.24D-09 BMatP= 8.04D-09
 IDIUse=1 WtCom= 1.00D+00 WtEn= 0.00D+00
 Coeff-Com:  0.660D-04-0.130D-03-0.245D-03-0.385D-03-0.485D-03 0.130D-02
 Coeff-Com:  0.108D-01 0.191D-01 0.357D-02-0.994D-01-0.142D+00 0.941D-01
 Coeff-Com:  0.404D+00 0.710D+00
 Coeff:      0.660D-04-0.130D-03-0.245D-03-0.385D-03-0.485D-03 0.130D-02
 Coeff:      0.108D-01 0.191D-01 0.357D-02-0.994D-01-0.142D+00 0.941D-01
 Coeff:      0.404D+00 0.710D+00
 Gap=     0.123 Goal=   None    Shift=    0.000
 RMSDP=1.01D-07 MaxDP=6.31D-06 DE=-3.55D-08 OVMax= 5.49D-05

 Cycle  15  Pass 1  IDiag  1:
 RMSU=  3.82D-08    CP:  9.64D-01  1.50D+00  6.88D-01  6.28D-01  8.88D-01
                    CP:  9.30D-01  1.15D+00  1.33D+00  1.76D+00  2.22D+00
                    CP:  1.98D+00  1.93D+00  1.32D+00  1.03D+00
 E= -4069.81177554405     Delta-E=       -0.000000004056 Rises=F Damp=F
 DIIS: error= 3.51D-07 at cycle  15 NSaved=  15.
 NSaved=15 IEnMin=15 EnMin= -4069.81177554405     IErMin=15 ErrMin= 3.51D-07
 ErrMax= 3.51D-07  0.00D+00 EMaxC= 1.00D-01 BMatC= 2.26D-10 BMatP= 1.24D-09
 IDIUse=1 WtCom= 1.00D+00 WtEn= 0.00D+00
 Coeff-Com:  0.517D-05-0.854D-05-0.320D-04-0.808D-04-0.300D-03-0.514D-03
 Coeff-Com:  0.112D-02 0.250D-02 0.876D-02 0.189D-02-0.307D-01-0.731D-01
 Coeff-Com:  0.284D-01 0.298D+00 0.764D+00
 Coeff:      0.517D-05-0.854D-05-0.320D-04-0.808D-04-0.300D-03-0.514D-03
 Coeff:      0.112D-02 0.250D-02 0.876D-02 0.189D-02-0.307D-01-0.731D-01
 Coeff:      0.284D-01 0.298D+00 0.764D+00
 Gap=     0.123 Goal=   None    Shift=    0.000
 RMSDP=4.08D-08 MaxDP=2.39D-06 DE=-4.06D-09 OVMax= 2.65D-05

 Cycle  16  Pass 1  IDiag  1:
 RMSU=  1.87D-08    CP:  9.64D-01  1.50D+00  6.88D-01  6.28D-01  8.88D-01
                    CP:  9.30D-01  1.15D+00  1.34D+00  1.76D+00  2.23D+00
                    CP:  2.01D+00  1.99D+00  1.40D+00  1.24D+00  1.14D+00
 E= -4069.81177554476     Delta-E=       -0.000000000715 Rises=F Damp=F
 DIIS: error= 1.76D-07 at cycle  16 NSaved=  16.
 NSaved=16 IEnMin=16 EnMin= -4069.81177554476     IErMin=16 ErrMin= 1.76D-07
 ErrMax= 1.76D-07  0.00D+00 EMaxC= 1.00D-01 BMatC= 8.08D-11 BMatP= 2.26D-10
 IDIUse=1 WtCom= 1.00D+00 WtEn= 0.00D+00
 Coeff-Com: -0.142D-04 0.288D-04 0.471D-04 0.539D-04-0.262D-04-0.634D-03
 Coeff-Com: -0.200D-02-0.427D-02 0.458D-02 0.256D-01 0.206D-01-0.647D-01
 Coeff-Com: -0.837D-01-0.366D-01 0.397D+00 0.744D+00
 Coeff:     -0.142D-04 0.288D-04 0.471D-04 0.539D-04-0.262D-04-0.634D-03
 Coeff:     -0.200D-02-0.427D-02 0.458D-02 0.256D-01 0.206D-01-0.647D-01
 Coeff:     -0.837D-01-0.366D-01 0.397D+00 0.744D+00
 Gap=     0.123 Goal=   None    Shift=    0.000
 RMSDP=2.29D-08 MaxDP=1.46D-06 DE=-7.15D-10 OVMax= 1.34D-05

 Cycle  17  Pass 1  IDiag  1:
 RMSU=  1.04D-08    CP:  9.64D-01  1.50D+00  6.88D-01  6.28D-01  8.88D-01
                    CP:  9.30D-01  1.15D+00  1.34D+00  1.76D+00  2.24D+00
                    CP:  2.02D+00  2.01D+00  1.45D+00  1.34D+00  1.44D+00
                    CP:  1.25D+00
 E= -4069.81177554497     Delta-E=       -0.000000000211 Rises=F Damp=F
 DIIS: error= 1.01D-07 at cycle  17 NSaved=  17.
 NSaved=17 IEnMin=17 EnMin= -4069.81177554497     IErMin=17 ErrMin= 1.01D-07
 ErrMax= 1.01D-07  0.00D+00 EMaxC= 1.00D-01 BMatC= 1.79D-11 BMatP= 8.08D-11
 IDIUse=1 WtCom= 1.00D+00 WtEn= 0.00D+00
 Coeff-Com: -0.723D-05 0.141D-04 0.287D-04 0.427D-04 0.841D-04-0.124D-03
 Coeff-Com: -0.976D-03-0.281D-02 0.164D-03 0.929D-02 0.175D-01-0.740D-02
 Coeff-Com: -0.374D-01-0.102D+00-0.321D-01 0.298D+00 0.858D+00
 Coeff:     -0.723D-05 0.141D-04 0.287D-04 0.427D-04 0.841D-04-0.124D-03
 Coeff:     -0.976D-03-0.281D-02 0.164D-03 0.929D-02 0.175D-01-0.740D-02
 Coeff:     -0.374D-01-0.102D+00-0.321D-01 0.298D+00 0.858D+00
 Gap=     0.123 Goal=   None    Shift=    0.000
 RMSDP=1.38D-08 MaxDP=8.89D-07 DE=-2.11D-10 OVMax= 8.69D-06

 Cycle  18  Pass 1  IDiag  1:
 RMSU=  4.87D-09    CP:  9.64D-01  1.50D+00  6.88D-01  6.28D-01  8.88D-01
                    CP:  9.30D-01  1.15D+00  1.34D+00  1.76D+00  2.24D+00
                    CP:  2.02D+00  2.02D+00  1.47D+00  1.41D+00  1.62D+00
                    CP:  1.66D+00  1.39D+00
 E= -4069.81177554511     Delta-E=       -0.000000000135 Rises=F Damp=F
 DIIS: error= 5.09D-08 at cycle  18 NSaved=  18.
 NSaved=18 IEnMin=18 EnMin= -4069.81177554511     IErMin=18 ErrMin= 5.09D-08
 ErrMax= 5.09D-08  0.00D+00 EMaxC= 1.00D-01 BMatC= 6.80D-12 BMatP= 1.79D-11
 IDIUse=1 WtCom= 1.00D+00 WtEn= 0.00D+00
 Coeff-Com:  0.203D-05-0.437D-05-0.449D-05-0.162D-05 0.592D-04 0.183D-03
 Coeff-Com:  0.402D-03 0.215D-03-0.128D-02-0.616D-02-0.466D-04 0.203D-01
 Coeff-Com:  0.184D-01-0.328D-01-0.162D+00-0.188D+00 0.347D+00 0.100D+01
 Coeff:      0.203D-05-0.437D-05-0.449D-05-0.162D-05 0.592D-04 0.183D-03
 Coeff:      0.402D-03 0.215D-03-0.128D-02-0.616D-02-0.466D-04 0.203D-01
 Coeff:      0.184D-01-0.328D-01-0.162D+00-0.188D+00 0.347D+00 0.100D+01
 Gap=     0.123 Goal=   None    Shift=    0.000
 RMSDP=1.17D-08 MaxDP=6.99D-07 DE=-1.35D-10 OVMax= 7.06D-06

 Cycle  19  Pass 1  IDiag  1:
 RMSU=  2.80D-09    CP:  9.64D-01  1.50D+00  6.88D-01  6.28D-01  8.88D-01
                    CP:  9.30D-01  1.15D+00  1.34D+00  1.76D+00  2.24D+00
                    CP:  2.03D+00  2.03D+00  1.48D+00  1.46D+00  1.77D+00
                    CP:  1.99D+00  1.93D+00  1.37D+00
 E= -4069.81177554509     Delta-E=        0.000000000018 Rises=F Damp=F
 DIIS: error= 4.12D-08 at cycle  19 NSaved=  19.
 NSaved=19 IEnMin=18 EnMin= -4069.81177554511     IErMin=19 ErrMin= 4.12D-08
 ErrMax= 4.12D-08  0.00D+00 EMaxC= 1.00D-01 BMatC= 1.51D-12 BMatP= 6.80D-12
 IDIUse=1 WtCom= 1.00D+00 WtEn= 0.00D+00
 Coeff-Com:  0.292D-05-0.590D-05-0.999D-05-0.125D-04 0.113D-04 0.122D-03
 Coeff-Com:  0.484D-03 0.805D-03-0.623D-03-0.605D-02-0.485D-02 0.123D-01
 Coeff-Com:  0.204D-01 0.109D-01-0.712D-01-0.180D+00-0.346D-01 0.504D+00
 Coeff-Com:  0.748D+00
 Coeff:      0.292D-05-0.590D-05-0.999D-05-0.125D-04 0.113D-04 0.122D-03
 Coeff:      0.484D-03 0.805D-03-0.623D-03-0.605D-02-0.485D-02 0.123D-01
 Coeff:      0.204D-01 0.109D-01-0.712D-01-0.180D+00-0.346D-01 0.504D+00
 Coeff:      0.748D+00
 Gap=     0.123 Goal=   None    Shift=    0.000
 RMSDP=4.70D-09 MaxDP=2.89D-07 DE= 1.82D-11 OVMax= 2.76D-06

 SCF Done:  E(RCAM-B3LYP) =  -4069.81177555     A.U. after   19 cycles
            NFock= 19  Conv=0.47D-08     -V/T= 2.0102
 KE= 4.028802018021D+03 PE=-3.410701190074D+04 EE= 1.369539476709D+04
 Leave Link  502 at Sun Sep 12 13:26:23 2021, MaxMem= 23488102400 cpu:           11440.4 elap:             500.6
 (Enter /sw/apps/gaussian-16.0/g16/l801.exe)
 DoSCS=F DFT=T ScalE2(SS,OS)=  1.000000  1.000000
 ExpMin= 3.36D-02 ExpMax= 4.95D+03 ExpMxC= 7.45D+02 IAcc=3 IRadAn=         5 AccDes= 0.00D+00
 HarFok:  IExCor=  205 AccDes= 0.00D+00 IRadAn=         5 IDoV=-2 UseB2=F ITyADJ=14
 ICtDFT= 12500011 ScaDFX=  1.000000  1.000000  1.000000  1.000000
 GSVD:  LWork=       -9588 too small for GESVD, short by       45590 words or       45590 for optimal perf.
 Largest valence mixing into a core orbital is  2.03D-04
 Largest core mixing into a valence orbital is  5.24D-05
 Range of M.O.s used for correlation:    95  1572
 NBasis=  1572 NAE=   312 NBE=   312 NFC=    94 NFV=     0
 NROrb=   1478 NOA=   218 NOB=   218 NVA=  1260 NVB=  1260
 Leave Link  801 at Sun Sep 12 13:26:24 2021, MaxMem= 23488102400 cpu:               7.7 elap:               0.3
 (Enter /sw/apps/gaussian-16.0/g16/l914.exe)
 RHF ground state
 Two-electron integrals replicated using symmetry.
 MDV= 23488102400 DFT=T DoStab=F Mixed=T DoRPA=T DoScal=F NonHer=T
 Making orbital integer symmetry assigments:
 Orbital symmetries:
       Occupied  (A) (A) (A) (A) (A) (A) (A) (A) (A) (A) (A) (A)
                 (A) (A) (A) (A) (A) (A) (A) (A) (A) (A) (A) (A)
                 (A) (A) (A) (A) (A) (A) (A) (A) (A) (A) (A) (A)
                 (A) (A) (A) (A) (A) (A) (A) (A) (A) (A) (A) (A)
                 (A) (A) (A) (A) (A) (A) (A) (A) (A) (A) (A) (A)
                 (A) (A) (A) (A) (A) (A) (A) (A) (A) (A) (A) (A)
                 (A) (A) (A) (A) (A) (A) (A) (A) (A) (A) (A) (A)
                 (A) (A) (A) (A) (A) (A) (A) (A) (A) (A) (A) (A)
                 (A) (A) (A) (A) (A) (A) (A) (A) (A) (A) (A) (A)
                 (A) (A) (A) (A) (A) (A) (A) (A) (A) (A) (A) (A)
                 (A) (A) (A) (A) (A) (A) (A) (A) (A) (A) (A) (A)
                 (A) (A) (A) (A) (A) (A) (A) (A) (A) (A) (A) (A)
                 (A) (A) (A) (A) (A) (A) (A) (A) (A) (A) (A) (A)
                 (A) (A) (A) (A) (A) (A) (A) (A) (A) (A) (A) (A)
                 (A) (A) (A) (A) (A) (A) (A) (A) (A) (A) (A) (A)
                 (A) (A) (A) (A) (A) (A) (A) (A) (A) (A) (A) (A)
                 (A) (A) (A) (A) (A) (A) (A) (A) (A) (A) (A) (A)
                 (A) (A) (A) (A) (A) (A) (A) (A) (A) (A) (A) (A)
                 (A) (A) (A) (A) (A) (A) (A) (A) (A) (A) (A) (A)
                 (A) (A) (A) (A) (A) (A) (A) (A) (A) (A) (A) (A)
                 (A) (A) (A) (A) (A) (A) (A) (A) (A) (A) (A) (A)
                 (A) (A) (A) (A) (A) (A) (A) (A) (A) (A) (A) (A)
                 (A) (A) (A) (A) (A) (A) (A) (A) (A) (A) (A) (A)
                 (A) (A) (A) (A) (A) (A) (A) (A) (A) (A) (A) (A)
                 (A) (A) (A) (A) (A) (A) (A) (A) (A) (A) (A) (A)
                 (A) (A) (A) (A) (A) (A) (A) (A) (A) (A) (A) (A)
       Virtual   (A) (A) (A) (A) (A) (A) (A) (A) (A) (A) (A) (A)
                 (A) (A) (A) (A) (A) (A) (A) (A) (A) (A) (A) (A)
                 (A) (A) (A) (A) (A) (A) (A) (A) (A) (A) (A) (A)
                 (A) (A) (A) (A) (A) (A) (A) (A) (A) (A) (A) (A)
                 (A) (A) (A) (A) (A) (A) (A) (A) (A) (A) (A) (A)
                 (A) (A) (A) (A) (A) (A) (A) (A) (A) (A) (A) (A)
                 (A) (A) (A) (A) (A) (A) (A) (A) (A) (A) (A) (A)
                 (A) (A) (A) (A) (A) (A) (A) (A) (A) (A) (A) (A)
                 (A) (A) (A) (A) (A) (A) (A) (A) (A) (A) (A) (A)
                 (A) (A) (A) (A) (A) (A) (A) (A) (A) (A) (A) (A)
                 (A) (A) (A) (A) (A) (A) (A) (A) (A) (A) (A) (A)
                 (A) (A) (A) (A) (A) (A) (A) (A) (A) (A) (A) (A)
                 (A) (A) (A) (A) (A) (A) (A) (A) (A) (A) (A) (A)
                 (A) (A) (A) (A) (A) (A) (A) (A) (A) (A) (A) (A)
                 (A) (A) (A) (A) (A) (A) (A) (A) (A) (A) (A) (A)
                 (A) (A) (A) (A) (A) (A) (A) (A) (A) (A) (A) (A)
                 (A) (A) (A) (A) (A) (A) (A) (A) (A) (A) (A) (A)
                 (A) (A) (A) (A) (A) (A) (A) (A) (A) (A) (A) (A)
                 (A) (A) (A) (A) (A) (A) (A) (A) (A) (A) (A) (A)
                 (A) (A) (A) (A) (A) (A) (A) (A) (A) (A) (A) (A)
                 (A) (A) (A) (A) (A) (A) (A) (A) (A) (A) (A) (A)
                 (A) (A) (A) (A) (A) (A) (A) (A) (A) (A) (A) (A)
                 (A) (A) (A) (A) (A) (A) (A) (A) (A) (A) (A) (A)
                 (A) (A) (A) (A) (A) (A) (A) (A) (A) (A) (A) (A)
                 (A) (A) (A) (A) (A) (A) (A) (A) (A) (A) (A) (A)
                 (A) (A) (A) (A) (A) (A) (A) (A) (A) (A) (A) (A)
                 (A) (A) (A) (A) (A) (A) (A) (A) (A) (A) (A) (A)
                 (A) (A) (A) (A) (A) (A) (A) (A) (A) (A) (A) (A)
                 (A) (A) (A) (A) (A) (A) (A) (A) (A) (A) (A) (A)
                 (A) (A) (A) (A) (A) (A) (A) (A) (A) (A) (A) (A)
                 (A) (A) (A) (A) (A) (A) (A) (A) (A) (A) (A) (A)
                 (A) (A) (A) (A) (A) (A) (A) (A) (A) (A) (A) (A)
                 (A) (A) (A) (A) (A) (A) (A) (A) (A) (A) (A) (A)
                 (A) (A) (A) (A) (A) (A) (A) (A) (A) (A) (A) (A)
                 (A) (A) (A) (A) (A) (A) (A) (A) (A) (A) (A) (A)
                 (A) (A) (A) (A) (A) (A) (A) (A) (A) (A) (A) (A)
                 (A) (A) (A) (A) (A) (A) (A) (A) (A) (A) (A) (A)
                 (A) (A) (A) (A) (A) (A) (A) (A) (A) (A) (A) (A)
                 (A) (A) (A) (A) (A) (A) (A) (A) (A) (A) (A) (A)
                 (A) (A) (A) (A) (A) (A) (A) (A) (A) (A) (A) (A)
                 (A) (A) (A) (A) (A) (A) (A) (A) (A) (A) (A) (A)
                 (A) (A) (A) (A) (A) (A) (A) (A) (A) (A) (A) (A)
                 (A) (A) (A) (A) (A) (A) (A) (A) (A) (A) (A) (A)
                 (A) (A) (A) (A) (A) (A) (A) (A) (A) (A) (A) (A)
                 (A) (A) (A) (A) (A) (A) (A) (A) (A) (A) (A) (A)
                 (A) (A) (A) (A) (A) (A) (A) (A) (A) (A) (A) (A)
                 (A) (A) (A) (A) (A) (A) (A) (A) (A) (A) (A) (A)
                 (A) (A) (A) (A) (A) (A) (A) (A) (A) (A) (A) (A)
                 (A) (A) (A) (A) (A) (A) (A) (A) (A) (A) (A) (A)
                 (A) (A) (A) (A) (A) (A) (A) (A) (A) (A) (A) (A)
                 (A) (A) (A) (A) (A) (A) (A) (A) (A) (A) (A) (A)
                 (A) (A) (A) (A) (A) (A) (A) (A) (A) (A) (A) (A)
                 (A) (A) (A) (A) (A) (A) (A) (A) (A) (A) (A) (A)
                 (A) (A) (A) (A) (A) (A) (A) (A) (A) (A) (A) (A)
                 (A) (A) (A) (A) (A) (A) (A) (A) (A) (A) (A) (A)
                 (A) (A) (A) (A) (A) (A) (A) (A) (A) (A) (A) (A)
                 (A) (A) (A) (A) (A) (A) (A) (A) (A) (A) (A) (A)
                 (A) (A) (A) (A) (A) (A) (A) (A) (A) (A) (A) (A)
                 (A) (A) (A) (A) (A) (A) (A) (A) (A) (A) (A) (A)
                 (A) (A) (A) (A) (A) (A) (A) (A) (A) (A) (A) (A)
                 (A) (A) (A) (A) (A) (A) (A) (A) (A) (A) (A) (A)
                 (A) (A) (A) (A) (A) (A) (A) (A) (A) (A) (A) (A)
                 (A) (A) (A) (A) (A) (A) (A) (A) (A) (A) (A) (A)
                 (A) (A) (A) (A) (A) (A) (A) (A) (A) (A) (A) (A)
                 (A) (A) (A) (A) (A) (A) (A) (A) (A) (A) (A) (A)
                 (A) (A) (A) (A) (A) (A) (A) (A) (A) (A) (A) (A)
                 (A) (A) (A) (A) (A) (A) (A) (A) (A) (A) (A) (A)
                 (A) (A) (A) (A) (A) (A) (A) (A) (A) (A) (A) (A)
                 (A) (A) (A) (A) (A) (A) (A) (A) (A) (A) (A) (A)
                 (A) (A) (A) (A) (A) (A) (A) (A) (A) (A) (A) (A)
                 (A) (A) (A) (A) (A) (A) (A) (A) (A) (A) (A) (A)
                 (A) (A) (A) (A) (A) (A) (A) (A) (A) (A) (A) (A)
                 (A) (A) (A) (A) (A) (A) (A) (A) (A) (A) (A) (A)
                 (A) (A) (A) (A) (A) (A) (A) (A) (A) (A) (A) (A)
                 (A) (A) (A) (A) (A) (A) (A) (A) (A) (A) (A) (A)
                 (A) (A) (A) (A) (A) (A) (A) (A) (A) (A) (A) (A)
                 (A) (A) (A) (A) (A) (A) (A) (A) (A) (A) (A) (A)
                 (A) (A) (A) (A) (A) (A) (A) (A) (A) (A) (A) (A)
                 (A) (A) (A) (A) (A) (A) (A) (A) (A) (A) (A) (A)
                 (A) (A) (A) (A) (A) (A) (A) (A) (A) (A) (A) (A)
                 (A) (A) (A) (A) (A) (A) (A) (A) (A) (A) (A) (A)
                 (A) (A) (A) (A) (A) (A) (A) (A) (A) (A) (A) (A)
                 (A) (A) (A) (A) (A) (A) (A) (A) (A) (A) (A) (A)
                 (A) (A) (A) (A) (A) (A) (A) (A) (A) (A) (A) (A)
                 (A) (A) (A) (A) (A) (A) (A) (A) (A) (A) (A) (A)
                 (A) (A) (A) (A) (A) (A) (A) (A) (A) (A) (A) (A)
                 (A) (A) (A) (A) (A) (A) (A) (A) (A) (A) (A) (A)
                 (A) (A) (A) (A) (A) (A) (A) (A) (A) (A) (A) (A)
                 (A) (A) (A) (A) (A) (A) (A) (A) (A) (A) (A) (A)
                 (A) (A) (A) (A) (A) (A) (A) (A) (A) (A) (A) (A)
                 (A) (A) (A) (A) (A) (A) (A) (A) (A) (A) (A) (A)
                 (A) (A) (A) (A) (A) (A) (A) (A) (A) (A) (A) (A)
                 (A) (A) (A) (A) (A) (A) (A) (A) (A) (A) (A) (A)
                 (A) (A) (A) (A) (A) (A) (A) (A) (A) (A) (A) (A)
                 (A) (A) (A) (A) (A) (A) (A) (A) (A) (A) (A) (A)
                 (A) (A) (A) (A) (A) (A) (A) (A) (A) (A) (A) (A)
                 (A) (A) (A) (A) (A) (A) (A) (A) (A) (A) (A) (A)
                 (A) (A) (A) (A) (A) (A) (A) (A) (A) (A) (A) (A)
                 (A) (A) (A) (A) (A) (A) (A) (A) (A) (A) (A) (A)
                 (A) (A) (A) (A) (A) (A) (A) (A) (A) (A) (A) (A)
                 (A) (A) (A) (A) (A) (A) (A) (A) (A) (A) (A) (A)
                 (A) (A) (A) (A) (A) (A) (A) (A) (A) (A) (A) (A)
                 (A) (A) (A) (A) (A) (A) (A) (A) (A) (A) (A) (A)
                 (A) (A) (A) (A) (A) (A) (A) (A) (A) (A) (A) (A)
                 (A) (A) (A) (A) (A) (A) (A) (A) (A) (A) (A) (A)
    20 initial guesses have been made.
 Convergence on wavefunction:    0.001000000000000
 Davidson Disk Diagonalization:  ConvIn= 1.00D-03 SkipCon=T Conv= 1.00D-03.
 Max sub-space:  2000 roots to seek:    20 dimension of matrix:       549360
 Iteration     1 Dimension    20 NMult     0 NNew     20
 CISAX will form    20 AO SS matrices at one time.
 NMat=    20 NSing=    20 JSym2X= 0.
 FoFJK:  IHMeth= 1 ICntrl=       0 DoSepK=T KAlg= 0 I1Cent=           0 FoldK=F
 IRaf=         1 NMat=      40 IRICut=       1 DoRegI=T DoRafI=F ISym2E= 0 IDoP0=3 IntGTp=3.
 FoFCou: FMM=T IPFlag=           0 FMFlag=      100000 FMFlg1=        2001
         NFxFlg=           0 DoJE=F BraDBF=F KetDBF=F FulRan=T
         wScrn=  0.000000 ICntrl=       500 IOpCl=  0 I1Cent=           0 NGrid=           0
         NMat0=   20 NMatS0=     20 NMatT0=    0 NMatD0=   20 NMtDS0=    0 NMtDT0=    0
 Symmetry not used in FoFCou.
 FMM levels:  10  Number of levels for PrismC:   9
 New state      1 was old state      7
 New state      2 was old state      6
 New state      3 was old state      2
 New state      4 was old state      3
 New state      5 was old state      1
 Excitation Energies [eV] at current iteration:
 Root      1 :     2.614379947193191
 Root      2 :     2.619272942437390
 Root      3 :     2.680503023199044
 Root      4 :     2.690164782795649
 Root      5 :     3.053195618564126
 Root      6 :     3.087778027580264
 Root      7 :     3.628962692439086
 Root      8 :     3.669440365615058
 Root      9 :     3.735474057721651
 Root     10 :     3.758978062576297
 Root     11 :     3.856531452078917
 Root     12 :     3.881132751012354
 Root     13 :     4.303488893433361
 Root     14 :     4.306886870044622
 Root     15 :     4.989288923212182
 Root     16 :     4.998631135850517
 Root     17 :     5.278419051704379
 Root     18 :     5.282061179902299
 Root     19 :     5.315420375206753
 Root     20 :     5.330327528115472
 Iteration     2 Dimension    30 NMult    20 NNew     10
 CISAX will form    10 AO SS matrices at one time.
 NMat=    10 NSing=    10 JSym2X= 0.
 New state      1 was old state      3
 Root      1 not converged, maximum delta is    0.188280138478603
 New state      2 was old state      4
 Root      2 not converged, maximum delta is    0.189623786738530
 New state      3 was old state      2
 Root      3 not converged, maximum delta is    0.065826634412628
 New state      4 was old state      1
 Root      4 not converged, maximum delta is    0.089295019000242
 Root      5 not converged, maximum delta is    0.002051832965353
 Excitation Energies [eV] at current iteration:
 Root      1 :     1.801412290100697   Change is   -0.879090733098347
 Root      2 :     1.807410697363091   Change is   -0.882754085432559
 Root      3 :     2.235851937798358   Change is   -0.383421004639031
 Root      4 :     2.239106352564868   Change is   -0.375273594628324
 Root      5 :     3.053165638714963   Change is   -0.000029979849164
 Iteration     3 Dimension    40 NMult    30 NNew     10
 CISAX will form    10 AO SS matrices at one time.
 NMat=    10 NSing=    10 JSym2X= 0.
 Root      1 not converged, maximum delta is    0.070045700385277
 Root      2 not converged, maximum delta is    0.071216453548339
 Root      3 not converged, maximum delta is    0.043966448019526
 Root      4 not converged, maximum delta is    0.042502061387559
 Root      5 has converged.
 Excitation Energies [eV] at current iteration:
 Root      1 :     1.694168163348460   Change is   -0.107244126752237
 Root      2 :     1.699026158501916   Change is   -0.108384538861174
 Root      3 :     2.194405925181735   Change is   -0.041446012616623
 Root      4 :     2.200255555251706   Change is   -0.038850797313161
 Root      5 :     3.053165613017044   Change is   -0.000000025697919
 Iteration     4 Dimension    48 NMult    40 NNew      8
 CISAX will form     8 AO SS matrices at one time.
 NMat=     8 NSing=     8 JSym2X= 0.
 Root      1 not converged, maximum delta is    0.013124635849498
 Root      2 not converged, maximum delta is    0.013384886472397
 Root      3 not converged, maximum delta is    0.009722424545061
 Root      4 not converged, maximum delta is    0.008879726953335
 Root      5 has converged.
 Excitation Energies [eV] at current iteration:
 Root      1 :     1.677454458769426   Change is   -0.016713704579034
 Root      2 :     1.682147815182929   Change is   -0.016878343318987
 Root      3 :     2.187106324661640   Change is   -0.007299600520096
 Root      4 :     2.193484960672277   Change is   -0.006770594579429
 Root      5 :     3.053165613017017   Change is   -0.000000000000027
 Iteration     5 Dimension    56 NMult    48 NNew      8
 CISAX will form     8 AO SS matrices at one time.
 NMat=     8 NSing=     8 JSym2X= 0.
 Root      1 not converged, maximum delta is    0.002183709617343
 Root      2 not converged, maximum delta is    0.002182878321010
 Root      3 not converged, maximum delta is    0.002500189827581
 Root      4 not converged, maximum delta is    0.002385355257461
 Root      5 has converged.
 Excitation Energies [eV] at current iteration:
 Root      1 :     1.675675328224865   Change is   -0.001779130544561
 Root      2 :     1.680375878927925   Change is   -0.001771936255004
 Root      3 :     2.186260635815036   Change is   -0.000845688846604
 Root      4 :     2.192709416497852   Change is   -0.000775544174425
 Root      5 :     3.053165613017205   Change is    0.000000000000188
 Iteration     6 Dimension    64 NMult    56 NNew      8
 CISAX will form     8 AO SS matrices at one time.
 NMat=     8 NSing=     8 JSym2X= 0.
 Root      1 not converged, maximum delta is    0.001368418577700
 Root      2 not converged, maximum delta is    0.001389810098988
 Root      3 not converged, maximum delta is    0.001068071202443
 Root      4 not converged, maximum delta is    0.001012476486570
 Root      5 has converged.
 Excitation Energies [eV] at current iteration:
 Root      1 :     1.675421521120284   Change is   -0.000253807104581
 Root      2 :     1.680120870402131   Change is   -0.000255008525794
 Root      3 :     2.186132480041507   Change is   -0.000128155773529
 Root      4 :     2.192591766699938   Change is   -0.000117649797914
 Root      5 :     3.053165613016963   Change is   -0.000000000000242
 Iteration     7 Dimension    72 NMult    64 NNew      8
 CISAX will form     8 AO SS matrices at one time.
 NMat=     8 NSing=     8 JSym2X= 0.
 Root      1 has converged.
 Root      2 has converged.
 Root      3 has converged.
 Root      4 has converged.
 Root      5 has converged.
 Excitation Energies [eV] at current iteration:
 Root      1 :     1.675397312373548   Change is   -0.000024208746736
[...]
 Alpha virt. eigenvalues --    1.83473   1.83846   1.83855   1.84120   1.84156
 Alpha virt. eigenvalues --    1.84481   1.84546   1.84741   1.84907   1.85080
 Alpha virt. eigenvalues --    1.85199   1.85303   1.85370   1.85442   1.85583
 Alpha virt. eigenvalues --    1.85854   1.85963   1.86336   1.86457   1.86606
 Alpha virt. eigenvalues --    1.86653   1.86779   1.86879   1.86996   1.87134
 Alpha virt. eigenvalues --    1.87435   1.87541   1.87724   1.87776   1.87964
 Alpha virt. eigenvalues --    1.87967   1.88131   1.88136   1.88526   1.88632
 Alpha virt. eigenvalues --    1.88890   1.88917   1.89025   1.89221   1.89613
 Alpha virt. eigenvalues --    1.89723   1.89831   1.89844   1.90142   1.90214
 Alpha virt. eigenvalues --    1.90846   1.90846   1.91378   1.91443   1.91534
 Alpha virt. eigenvalues --    1.91542   1.92134   1.92249   1.92613   1.92722
 Alpha virt. eigenvalues --    1.93077   1.93102   1.93433   1.93455   1.94262
 Alpha virt. eigenvalues --    1.94378   1.94767   1.94784   1.95545   1.95569
 Alpha virt. eigenvalues --    1.95764   1.95822   1.96000   1.96090   1.96124
 Alpha virt. eigenvalues --    1.96248   1.96434   1.96689   1.96888   1.96995
 Alpha virt. eigenvalues --    1.97493   1.97545   1.97752   1.97930   1.98117
 Alpha virt. eigenvalues --    1.98264   1.98299   1.98769   1.99023   1.99230
 Alpha virt. eigenvalues --    1.99882   1.99916   2.00676   2.00755   2.01046
 Alpha virt. eigenvalues --    2.01091   2.01458   2.01558   2.01576   2.01768
 Alpha virt. eigenvalues --    2.01775   2.01814   2.02661   2.02881   2.03091
 Alpha virt. eigenvalues --    2.03329   2.03329   2.03470   2.03499   2.03579
 Alpha virt. eigenvalues --    2.03976   2.04130   2.04927   2.05054   2.05581
 Alpha virt. eigenvalues --    2.05610   2.06175   2.06237   2.06981   2.06997
 Alpha virt. eigenvalues --    2.07277   2.07296   2.08506   2.08683   2.08954
 Alpha virt. eigenvalues --    2.09077   2.09562   2.09685   2.10873   2.10984
 Alpha virt. eigenvalues --    2.11277   2.11356   2.11481   2.11634   2.11814
 Alpha virt. eigenvalues --    2.11823   2.12414   2.12560   2.12750   2.12817
 Alpha virt. eigenvalues --    2.12900   2.12929   2.13578   2.13861   2.14200
 Alpha virt. eigenvalues --    2.14230   2.15356   2.15431   2.16018   2.16028
 Alpha virt. eigenvalues --    2.16540   2.16617   2.16847   2.17119   2.17510
 Alpha virt. eigenvalues --    2.17598   2.17798   2.17880   2.17952   2.18163
 Alpha virt. eigenvalues --    2.18418   2.18619   2.18962   2.19181   2.19735
 Alpha virt. eigenvalues --    2.19766   2.20133   2.20189   2.20304   2.20386
 Alpha virt. eigenvalues --    2.21122   2.21245   2.21710   2.21765   2.21822
 Alpha virt. eigenvalues --    2.21837   2.22648   2.22774   2.23288   2.23407
 Alpha virt. eigenvalues --    2.24366   2.24489   2.24954   2.25053   2.26386
 Alpha virt. eigenvalues --    2.26392   2.26873   2.26955   2.27148   2.27195
 Alpha virt. eigenvalues --    2.28230   2.28259   2.29361   2.29382   2.29824
 Alpha virt. eigenvalues --    2.29828   2.30548   2.30566   2.30771   2.31146
 Alpha virt. eigenvalues --    2.31175   2.31273   2.32186   2.32214   2.33179
 Alpha virt. eigenvalues --    2.33228   2.33428   2.33554   2.34086   2.34232
 Alpha virt. eigenvalues --    2.35243   2.35462   2.35853   2.35889   2.36278
 Alpha virt. eigenvalues --    2.36394   2.36446   2.36717   2.37621   2.37751
 Alpha virt. eigenvalues --    2.38328   2.38352   2.38726   2.38949   2.39611
 Alpha virt. eigenvalues --    2.39703   2.40211   2.40274   2.40578   2.40771
 Alpha virt. eigenvalues --    2.41156   2.41361   2.41639   2.41780   2.42070
 Alpha virt. eigenvalues --    2.42130   2.42767   2.43010   2.43036   2.43623
 Alpha virt. eigenvalues --    2.43919   2.44261   2.44747   2.44823   2.44929
 Alpha virt. eigenvalues --    2.44995   2.45512   2.45638   2.46227   2.46395
 Alpha virt. eigenvalues --    2.46436   2.46569   2.46739   2.46891   2.47317
 Alpha virt. eigenvalues --    2.47344   2.47805   2.47826   2.49335   2.49402
 Alpha virt. eigenvalues --    2.49834   2.50161   2.50397   2.50642   2.51204
 Alpha virt. eigenvalues --    2.51211   2.51550   2.51978   2.52335   2.52531
 Alpha virt. eigenvalues --    2.52899   2.53099   2.53908   2.54010   2.54223
 Alpha virt. eigenvalues --    2.54243   2.54743   2.54878   2.55603   2.55611
 Alpha virt. eigenvalues --    2.57956   2.58014   2.58733   2.58837   2.60233
 Alpha virt. eigenvalues --    2.60296   2.60703   2.60857   2.61755   2.61801
 Alpha virt. eigenvalues --    2.62364   2.62623   2.63045   2.63058   2.64026
 Alpha virt. eigenvalues --    2.64151   2.64334   2.64359   2.65030   2.65169
 Alpha virt. eigenvalues --    2.65792   2.65877   2.66753   2.66868   2.66987
 Alpha virt. eigenvalues --    2.66999   2.67911   2.67998   2.68750   2.68948
 Alpha virt. eigenvalues --    2.68961   2.69113   2.69480   2.69523   2.70067
 Alpha virt. eigenvalues --    2.70088   2.70996   2.71069   2.71822   2.72143
 Alpha virt. eigenvalues --    2.72420   2.72662   2.72742   2.72916   2.73215
 Alpha virt. eigenvalues --    2.73365   2.73395   2.73620   2.74434   2.74599
 Alpha virt. eigenvalues --    2.74981   2.75064   2.76446   2.76680   2.76990
 Alpha virt. eigenvalues --    2.77321   2.77531   2.77547   2.78223   2.78282
 Alpha virt. eigenvalues --    2.78615   2.78819   2.79081   2.79223   2.80191
 Alpha virt. eigenvalues --    2.80436   2.80613   2.80678   2.81073   2.81203
 Alpha virt. eigenvalues --    2.81911   2.82023   2.82257   2.82430   2.83772
 Alpha virt. eigenvalues --    2.83826   2.83840   2.83858   2.84449   2.84633
 Alpha virt. eigenvalues --    2.84807   2.84971   2.85616   2.85758   2.86581
 Alpha virt. eigenvalues --    2.87085   2.87095   2.87694   2.88162   2.88247
 Alpha virt. eigenvalues --    2.88536   2.88595   2.88793   2.89023   2.90580
 Alpha virt. eigenvalues --    2.90586   2.90988   2.91276   2.93241   2.93243
 Alpha virt. eigenvalues --    2.93690   2.94289   2.94495   2.94648   2.95392
 Alpha virt. eigenvalues --    2.95456   2.95758   2.96289   2.96295   2.96530
 Alpha virt. eigenvalues --    2.96791   2.97265   2.97905   2.97953   2.98275
 Alpha virt. eigenvalues --    2.98299   2.98452   2.98491   2.98687   2.98695
 Alpha virt. eigenvalues --    2.98840   2.98972   2.99676   2.99722   2.99934
 Alpha virt. eigenvalues --    3.00120   3.00257   3.00309   3.00549   3.00910
 Alpha virt. eigenvalues --    3.01821   3.02034   3.02078   3.02123   3.02741
 Alpha virt. eigenvalues --    3.02821   3.03066   3.03236   3.03418   3.03625
 Alpha virt. eigenvalues --    3.03970   3.04259   3.04350   3.04536   3.04636
 Alpha virt. eigenvalues --    3.04643   3.05270   3.05384   3.06081   3.06202
 Alpha virt. eigenvalues --    3.06853   3.06893   3.07842   3.08236   3.09276
 Alpha virt. eigenvalues --    3.09492   3.09783   3.10350   3.10531   3.10655
 Alpha virt. eigenvalues --    3.11398   3.11418   3.11818   3.12032   3.12220
 Alpha virt. eigenvalues --    3.12265   3.13373   3.13566   3.13607   3.13731
 Alpha virt. eigenvalues --    3.14180   3.14390   3.15908   3.16012   3.17353
 Alpha virt. eigenvalues --    3.17434   3.17799   3.18171   3.18950   3.19219
 Alpha virt. eigenvalues --    3.22394   3.22513   3.24037   3.24354   3.24763
 Alpha virt. eigenvalues --    3.25107   3.26572   3.26595   3.27310   3.27712
 Alpha virt. eigenvalues --    3.29138   3.29190   3.31294   3.31616   3.33101
 Alpha virt. eigenvalues --    3.33510   3.40176   3.40720   3.42736   3.42911
 Alpha virt. eigenvalues --    3.48612   3.48749   3.50114   3.50197   3.50752
 Alpha virt. eigenvalues --    3.51567   3.56643   3.56921   3.59191   3.59256
 Alpha virt. eigenvalues --    3.62430   3.62929   3.66035   3.66281   3.67276
 Alpha virt. eigenvalues --    3.67458   3.73361   3.73936   3.76146   3.76594
          Condensed to atoms (all electrons):
 Mulliken charges:
               1
     1  Mg   0.838796
     2  C   -0.002937
     3  C   -0.094097
     4  C   -0.045852
     5  C   -0.063963
     6  N   -0.256774
     7  C   -0.052468
     8  C   -0.014054
     9  C   -0.087011
    10  C    0.046342
    11  C    0.104833
    12  C    0.053470
    13  C   -0.071825
    14  H    0.036192
    15  N   -0.433141
    16  C    0.168453
    17  C   -0.177139
    18  C   -0.003972
    19  C    0.148730
    20  C    0.110183
    21  C    0.012324
    22  O   -0.249618
    23  C    0.062453
    24  N   -0.341137
    25  C    0.041243
    26  C   -0.028170
    27  C   -0.023965
    28  C    0.074834
    29  C    0.076196
    30  C    0.035133
    31  C   -0.004510
    32  N   -0.310453
    33  C    0.080409
    34  C   -0.169731
    35  C    0.008338
    36  C    0.083012
    37  C    0.127312
    38  C    0.046102
    39  O   -0.188517
    40  C   -0.005327
    41  C    0.212854
    42  O   -0.257025
    43  O   -0.304829
    44  C    0.157690
    45  H   -0.017623
    46  H   -0.016842
    47  H   -0.041537
    48  H    0.000887
    49  H   -0.004004
    50  H    0.025429
    51  H    0.016422
    52  H    0.016621
    53  H    0.011283
    54  H    0.044166
    55  H    0.017794
    56  H    0.017981
    57  H    0.005867
    58  H    0.026789
    59  H    0.039667
    60  H    0.037300
    61  H    0.035692
    62  H    0.031616
    63  H    0.016592
    64  H    0.009390
    65  H    0.023195
    66  H    0.012514
    67  H    0.004690
    68  H    0.006329
    69  H    0.004687
    70  H    0.008818
    71  H    0.018180
    72  H    0.029031
    73  H    0.047555
    74  H    0.009093
    75  H    0.045929
    76  H    0.035084
    77  H    0.042870
    78  H    0.046416
    79  H    0.053736
    80  Mg   0.837872
    81  C   -0.016822
    82  C   -0.087766
    83  C   -0.045500
    84  C   -0.064879
    85  N   -0.254566
    86  C   -0.049837
    87  C   -0.015119
    88  C   -0.090494
    89  C    0.045767
    90  C    0.114373
    91  C    0.062524
    92  C   -0.077930
    93  H    0.034957
    94  N   -0.423495
    95  C    0.162938
    96  C   -0.174597
    97  C   -0.007791
    98  C    0.152145
    99  C    0.099356
   100  C    0.015619
   101  O   -0.253160
   102  C    0.061176
   103  N   -0.350054
   104  C    0.037509
   105  C   -0.019826
   106  C   -0.034843
   107  C    0.088923
   108  C    0.073672
   109  C    0.034737
   110  C   -0.007695
   111  N   -0.324107
   112  C    0.078446
   113  C   -0.163127
   114  C    0.002210
   115  C    0.096227
   116  C    0.131485
   117  C    0.042382
   118  O   -0.187915
   119  C    0.000914
   120  C    0.211254
   121  O   -0.250954
   122  O   -0.305661
   123  C    0.152020
   124  H   -0.019653
   125  H   -0.015546
   126  H   -0.040459
   127  H   -0.000675
   128  H   -0.004294
   129  H    0.022431
   130  H    0.014414
   131  H    0.016279
   132  H    0.013965
   133  H    0.037713
   134  H    0.020745
   135  H    0.019621
   136  H    0.008767
   137  H    0.026150
   138  H    0.039873
   139  H    0.038240
   140  H    0.036451
   141  H    0.033957
   142  H    0.014448
   143  H    0.012385
   144  H    0.025165
   145  H    0.011611
   146  H    0.005642
   147  H    0.006274
   148  H    0.003643
   149  H    0.010968
   150  H    0.018002
   151  H    0.030113
   152  H    0.046015
   153  H    0.008527
   154  H    0.046886
   155  H    0.034979
   156  H    0.043862
   157  H    0.049511
   158  H    0.053624
 Sum of Mulliken charges =  -0.00000
 Mulliken charges with hydrogens summed into heavy atoms:
               1
     1  Mg   0.838796
     2  C   -0.002937
     3  C   -0.111720
     4  C   -0.062694
     5  C   -0.105500
     6  N   -0.256774
     7  C   -0.052468
     8  C   -0.013167
     9  C   -0.091015
    10  C    0.046342
    11  C    0.163305
    12  C    0.108919
    13  C    0.000141
    15  N   -0.433141
    16  C    0.168453
    17  C   -0.177139
    18  C   -0.003972
    19  C    0.148730
    20  C    0.182505
    21  C    0.012324
    22  O   -0.249618
    23  C    0.167061
    24  N   -0.341137
    25  C    0.041243
    26  C   -0.011578
    27  C   -0.014575
    28  C    0.074834
    29  C    0.116596
    30  C    0.046149
    31  C    0.051519
    32  N   -0.310453
    33  C    0.080409
    34  C   -0.169731
    35  C    0.008338
    36  C    0.083012
    37  C    0.229889
    38  C    0.046102
    39  O   -0.188517
    40  C    0.029757
    41  C    0.212854
    42  O   -0.257025
    43  O   -0.304829
    44  C    0.300712
    80  Mg   0.837872
    81  C   -0.016822
    82  C   -0.107419
    83  C   -0.061046
    84  C   -0.105338
    85  N   -0.254566
    86  C   -0.049837
    87  C   -0.015794
    88  C   -0.094788
    89  C    0.045767
    90  C    0.167497
    91  C    0.114201
    92  C   -0.002607
    94  N   -0.423495
    95  C    0.162938
    96  C   -0.174597
    97  C   -0.007791
    98  C    0.152145
    99  C    0.174146
   100  C    0.015619
   101  O   -0.253160
   102  C    0.169823
   103  N   -0.350054
   104  C    0.037509
   105  C   -0.005379
   106  C   -0.022458
   107  C    0.088923
   108  C    0.116090
   109  C    0.044654
   110  C    0.051389
   111  N   -0.324107
   112  C    0.078446
   113  C   -0.163127
   114  C    0.002210
   115  C    0.096227
   116  C    0.232914
   117  C    0.042382
   118  O   -0.187915
   119  C    0.035892
   120  C    0.211254
   121  O   -0.250954
   122  O   -0.305661
   123  C    0.299016
 Electronic spatial extent (au):  <R**2>=         612352.4882
 Charge=             -0.0000 electrons
 Dipole moment (field-independent basis, Debye):
    X=              1.4303    Y=              3.0348    Z=             -1.6977  Tot=              3.7600
 Quadrupole moment (field-independent basis, Debye-Ang):
   XX=           -352.8040   YY=           -461.0176   ZZ=           -535.9763
   XY=             21.4182   XZ=             91.2072   YZ=             -9.4256
 Traceless Quadrupole moment (field-independent basis, Debye-Ang):
   XX=             97.1286   YY=            -11.0849   ZZ=            -86.0437
   XY=             21.4182   XZ=             91.2072   YZ=             -9.4256
 Octapole moment (field-independent basis, Debye-Ang**2):
  XXX=            925.0101  YYY=            237.8777  ZZZ=            -80.2112  XYY=             77.8929
  XXY=           1313.3643  XXZ=           -556.6078  XZZ=            -10.6470  YZZ=             68.5956
  YYZ=             15.2396  XYZ=            902.1827
 Hexadecapole moment (field-independent basis, Debye-Ang**3):
 XXXX=        -706956.3403 YYYY=         -32915.2529 ZZZZ=         -29308.5893 XXXY=          12633.0785
 XXXZ=          20461.6859 YYYX=           -903.7161 YYYZ=           -136.4210 ZZZX=           5180.7666
 ZZZY=            -30.7242 XXYY=        -124917.1030 XXZZ=        -138499.7202 YYZZ=         -11046.5761
 XXYZ=          -1476.7892 YYXZ=          -3829.1468 ZZXY=           1048.8801
 N-N= 1.231300334008D+04 E-N=-3.410701189265D+04  KE= 4.028802018021D+03
 Leave Link  601 at Sun Sep 12 13:44:55 2021, MaxMem= 23488102400 cpu:              15.1 elap:               0.7
 (Enter /sw/apps/gaussian-16.0/g16/l9999.exe)
 1\1\GINC-BP1-COMPUTE00089\SP\RCAM-B3LYP TD-FC\def2SVP\C68H72Mg2N8O8\OF
 15641\12-Sep-2021\0\\#p cam-b3lyp/Def2SVP td=(nstates=5)\\TDDFT excite
 d states in gaussian\\0,1\Mg,0,0.,0.,0.\C,0,-0.217,-2.218,2.801\C,0,-1
 .255,2.442,2.026\C,0,-0.245,1.85,-2.564\C,0,0.146,-2.824,-2.037\N,0,-0
 .617,-0.009,2.126\C,0,-0.594,-0.908,3.105\C,0,-0.936,-0.309,4.502\C,0,
 -1.773,0.964,4.032\C,0,-1.155,1.168,2.66\C,0,-3.263,0.685,3.863\C,0,0.
 345,0.11,5.299\C,0,0.124,0.397,6.787\H,0,1.168,0.033,7.733\N,0,-0.185,
 1.961,-0.152\C,0,-0.703,2.8,0.777\C,0,-0.62,4.156,0.193\C,0,-0.187,4.0
 15,-1.225\C,0,-0.214,2.583,-1.38\C,0,-0.887,5.406,0.974\C,0,0.181,5.01
 3,-2.277\O,0,0.303,4.69,-3.508\C,0,0.31,6.414,-1.837\N,0,-0.265,-0.413
 ,-2.029\C,0,-0.279,0.569,-2.937\C,0,-0.196,0.024,-4.332\C,0,0.124,-1.5
 33,-4.18\C,0,0.086,-1.632,-2.635\C,0,-1.451,0.205,-5.197\C,0,1.373,-2.
 07,-4.923\C,0,2.626,-1.49,-4.306\N,0,0.15,-2.144,0.303\C,0,0.173,-3.13
 6,-0.688\C,0,0.173,-4.438,0.004\C,0,0.133,-4.111,1.358\C,0,0.083,-2.69
 5,1.502\C,0,0.149,-5.715,-0.623\C,0,0.096,-4.629,2.716\O,0,0.208,-5.74
 7,3.221\C,0,-0.255,-3.428,3.701\C,0,0.717,-3.482,4.848\O,0,1.931,-3.25
 5,4.669\O,0,0.038,-3.556,6.003\C,0,0.943,-3.583,7.183\H,0,-1.859,3.22,
 2.497\H,0,-0.218,2.453,-3.474\H,0,0.276,-3.747,-2.605\H,0,-1.554,-0.94
 9,5.132\H,0,-1.585,1.831,4.665\H,0,-3.484,-0.377,3.969\H,0,-3.511,1.02
 7,2.858\H,0,-3.852,1.301,4.543\H,0,0.669,1.096,4.966\H,0,1.13,-0.639,5
 .189\H,0,-0.844,0.026,7.125\H,0,0.062,1.477,6.921\H,0,-1.344,5.186,1.9
 38\H,0,-1.651,5.963,0.432\H,0,0.007,6.02,1.084\H,0,-0.635,6.744,-1.405
 \H,0,0.665,6.97,-2.704\H,0,1.048,6.466,-1.036\H,0,0.608,0.501,-4.891\H
 ,0,-0.692,-2.156,-4.547\H,0,-1.267,0.74,-6.129\H,0,-2.204,0.714,-4.596
 \H,0,-1.967,-0.72,-5.453\H,0,1.356,-1.759,-5.967\H,0,1.452,-3.157,-4.9
 02\H,0,2.714,-0.522,-4.798\H,0,3.487,-2.121,-4.529\H,0,2.495,-1.303,-3
 .24\H,0,0.867,-6.333,-0.084\H,0,0.404,-5.642,-1.68\H,0,-0.891,-5.999,-
 0.463\H,0,-1.283,-3.581,4.028\H,0,0.698,-4.478,7.755\H,0,0.833,-2.619,
 7.68\H,0,2.,-3.754,6.976\Mg,0,31.52777,2.83254,2.40241\C,0,30.17876,5.
 27215,4.66239\C,0,33.29235,1.58325,5.04062\C,0,33.0719,0.96269,0.35625
 \C,0,30.5789,4.93299,-0.21167\N,0,31.63692,3.43512,4.52779\C,0,31.0327
 2,4.33821,5.28523\C,0,31.29973,4.18418,6.80659\C,0,32.69718,3.39699,6.
 72698\C,0,32.52528,2.73111,5.36326\C,0,33.90389,4.31824,6.65996\C,0,30
 .19777,3.32727,7.52311\C,0,30.22472,3.39324,9.05173\H,0,28.95555,3.350
 51,9.77273\N,0,32.58227,1.18081,2.71612\C,0,33.21184,0.82122,3.85437\C
 ,0,33.86075,-0.46704,3.56549\C,0,33.70019,-0.75828,2.11493\C,0,33.1172
 3,0.48761,1.65886\C,0,34.47842,-1.32423,4.63184\C,0,34.03007,-1.95472,
 1.27474\O,0,34.02461,-1.90043,-0.00583\C,0,34.45034,-3.16569,1.99475\N
 ,0,31.98052,3.02437,0.38237\C,0,32.61594,2.04183,-0.28003\C,0,32.58723
 ,2.28174,-1.77068\C,0,31.58684,3.51022,-1.98892\C,0,31.2653,3.83973,-0
 .51467\C,0,33.93404,2.60111,-2.41913\C,0,30.40451,3.289,-2.9717\C,0,29
 .43962,2.27613,-2.39859\N,0,30.39531,4.66247,2.21025\C,0,30.14008,5.38
 72,1.02547\C,0,29.42777,6.62143,1.41498\C,0,29.33763,6.53951,2.81272\C
 ,0,29.96829,5.34879,3.26432\C,0,29.00471,7.65245,0.52947\C,0,28.86171,
 7.19477,4.00973\O,0,28.1778,8.19094,4.24132\C,0,29.49627,6.46544,5.271
 4\C,0,28.39485,6.21176,6.26388\O,0,27.46766,5.42859,5.99264\O,0,28.730
 09,6.76298,7.44462\C,0,27.67363,6.52847,8.46478\H,0,34.05947,1.25744,5
 .74366\H,0,33.49405,0.2996,-0.40242\H,0,30.16253,5.59165,-0.97684\H,0,
 31.42854,5.11724,7.34194\H,0,32.77349,2.64745,7.51039\H,0,33.61504,5.3
 5372,6.55745\H,0,34.4719,3.99668,5.79682\H,0,34.55206,4.15402,7.52554\
 H,0,30.42089,2.26256,7.37704\H,0,29.22029,3.58912,7.1673\H,0,30.84704,
 4.21888,9.41777\H,0,30.72099,2.49584,9.4291\H,0,34.59203,-0.77441,5.57
 428\H,0,35.50548,-1.53702,4.31601\H,0,33.94889,-2.26901,4.77207\H,0,35
 .33055,-2.94287,2.59312\H,0,34.55623,-3.93811,1.23053\H,0,33.65702,-3.
 44918,2.69538\H,0,32.20032,1.41617,-2.2943\H,0,32.1043,4.38871,-2.4016
 3\H,0,34.20114,1.90463,-3.23623\H,0,34.69402,2.59326,-1.64913\H,0,34.0
 2489,3.60794,-2.82314\H,0,30.76832,2.87239,-3.91416\H,0,29.8642,4.1992
 9,-3.20925\H,0,29.89443,1.31949,-2.67261\H,0,28.45495,2.38813,-2.84796
 \H,0,29.4176,2.3291,-1.30389\H,0,28.00404,7.93131,0.83177\H,0,29.0302,
 7.3218,-0.50677\H,0,29.7638,8.4114,0.73696\H,0,30.26813,7.12172,5.6752
 7\H,0,27.38125,7.50897,8.85314\H,0,28.10829,5.81045,9.18538\H,0,26.720
 52,6.14469,8.12019\\Version=ES64L-G16RevA.03\State=1-A\HF=-4069.811775
 5\RMSD=4.699e-09\PG=C01 [X(C68H72Mg2N8O8)]\\@


 THE MORE POWERFUL THE METHOD, THE MORE CATASTROPHIC THE ERRORS.
     -- M.D. KAMEN
 Job cpu time:       0 days 10 hours 36 minutes  7.0 seconds.
 Elapsed time:       0 days  0 hours 27 minutes  5.2 seconds.
 File lengths (MBytes):  RWF=  13225 Int=      0 D2E=      0 Chk=    574 Scr=      1
 Normal termination of Gaussian 16 at Sun Sep 12 13:44:56 2021.
