 Entering Gaussian System, Link 0=g16
 Initial command:
 /sw/apps/gaussian-16.0/g16/l1.exe "/tmp/Gau-78122.inp" -scrdir="/tmp/"
 Entering Link 1 = /sw/apps/gaussian-16.0/g16/l1.exe PID=     78123.
  
 Copyright (c) 1988,1990,1992,1993,1995,1998,2003,2009,2016,
            Gaussian, Inc.  All Rights Reserved.
  
 This is part of the Gaussian(R) 16 program.  It is based on
 the Gaussian(R) 09 system (copyright 2009, Gaussian, Inc.),
 the Gaussian(R) 03 system (copyright 2003, Gaussian, Inc.),
 the Gaussian(R) 98 system (copyright 1998, Gaussian, Inc.),
 the Gaussian(R) 94 system (copyright 1995, Gaussian, Inc.),
 the Gaussian 92(TM) system (copyright 1992, Gaussian, Inc.),
 the Gaussian 90(TM) system (copyright 1990, Gaussian, Inc.),
 the Gaussian 88(TM) system (copyright 1988, Gaussian, Inc.),
 the Gaussian 86(TM) system (copyright 1986, Carnegie Mellon
 University), and the Gaussian 82(TM) system (copyright 1983,
 Carnegie Mellon University). Gaussian is a federally registered
 trademark of Gaussian, Inc.
  
 This software contains proprietary and confidential information,
 including trade secrets, belonging to Gaussian, Inc.
  
 This software is provided under written license and may be
 used, copied, transmitted, or stored only in accord with that
 written license.
  
 The following legend is applicable only to US Government
 contracts under FAR:
  
                    RESTRICTED RIGHTS LEGEND
  
 Use, reproduction and disclosure by the US Government is
 subject to restrictions as set forth in subparagraphs (a)
 and (c) of the Commercial Computer Software - Restricted
 Rights clause in FAR 52.227-19.
  
 Gaussian, Inc.
 340 Quinnipiac St., Bldg. 40, Wallingford CT 06492
  
  
 ---------------------------------------------------------------
 Warning -- This program may not be used in any manner that
 competes with the business of Gaussian, Inc. or will provide
 assistance to any competitor of Gaussian, Inc.  The licensee
 of this program is prohibited from giving any competitor of
 Gaussian, Inc. access to this program.  By using this program,
 the user acknowledges that Gaussian, Inc. is engaged in the
 business of creating and licensing software in the field of
 computational chemistry and represents and warrants to the
 licensee that it is not a competitor of Gaussian, Inc. and that
 it will not use this program in any manner prohibited above.
 ---------------------------------------------------------------
  

 Cite this work as:
 Gaussian 16, Revision A.03,
 M. J. Frisch, G. W. Trucks, H. B. Schlegel, G. E. Scuseria, 
 M. A. Robb, J. R. Cheeseman, G. Scalmani, V. Barone, 
 G. A. Petersson, H. Nakatsuji, X. Li, M. Caricato, A. V. Marenich, 
 J. Bloino, B. G. Janesko, R. Gomperts, B. Mennucci, H. P. Hratchian, 
 J. V. Ortiz, A. F. Izmaylov, J. L. Sonnenberg, D. Williams-Young, 
 F. Ding, F. Lipparini, F. Egidi, J. Goings, B. Peng, A. Petrone, 
 T. Henderson, D. Ranasinghe, V. G. Zakrzewski, J. Gao, N. Rega, 
 G. Zheng, W. Liang, M. Hada, M. Ehara, K. Toyota, R. Fukuda, 
 J. Hasegawa, M. Ishida, T. Nakajima, Y. Honda, O. Kitao, H. Nakai, 
 T. Vreven, K. Throssell, J. A. Montgomery, Jr., J. E. Peralta, 
 F. Ogliaro, M. J. Bearpark, J. J. Heyd, E. N. Brothers, K. N. Kudin, 
 V. N. Staroverov, T. A. Keith, R. Kobayashi, J. Normand, 
 K. Raghavachari, A. P. Rendell, J. C. Burant, S. S. Iyengar, 
 J. Tomasi, M. Cossi, J. M. Millam, M. Klene, C. Adamo, R. Cammi, 
 J. W. Ochterski, R. L. Martin, K. Morokuma, O. Farkas, 
 J. B. Foresman, and D. J. Fox, Gaussian, Inc., Wallingford CT, 2016.
 
 ******************************************
 Gaussian 16:  ES64L-G16RevA.03 25-Dec-2016
                12-Sep-2021 
 ******************************************
 %nproc=24
 Will use up to   24 processors via shared memory.
 %mem=175gb
 -----------------------------------
 #p cam-b3lyp/Def2SVP td=(nstates=5)
 -----------------------------------
 1/38=1,172=1/1;
 2/12=2,17=6,18=5,40=1/2;
 3/5=43,7=101,11=9,25=1,30=1,74=-40/1,2,3,8;
 4//1;
 5/5=2,38=5/2;
 8/6=1,10=1,108=5/1;
 9/41=5,42=1,70=2/14;
 6/7=2,8=2,9=2,10=2/1;
 99/5=1,9=1/99;
 Leave Link    1 at Sun Sep 12 17:14:05 2021, MaxMem= 23488102400 cpu:               0.8 elap:               0.0
 (Enter /sw/apps/gaussian-16.0/g16/l101.exe)
 --------------------------------
 TDDFT excited states in gaussian
 --------------------------------
 Symbolic Z-matrix:
 Charge =  0 Multiplicity = 1
 Mg                    0.        0.        0. 
 C                    -0.217    -2.218     2.801 
 C                    -1.255     2.442     2.026 
 C                    -0.245     1.85     -2.564 
 C                     0.146    -2.824    -2.037 
 N                    -0.617    -0.009     2.126 
 C                    -0.594    -0.908     3.105 
 C                    -0.936    -0.309     4.502 
 C                    -1.773     0.964     4.032 
 C                    -1.155     1.168     2.66 
 C                    -3.263     0.685     3.863 
 C                     0.345     0.11      5.299 
 C                     0.124     0.397     6.787 
 H                     1.168     0.033     7.733 
 N                    -0.185     1.961    -0.152 
 C                    -0.703     2.8       0.777 
 C                    -0.62      4.156     0.193 
 C                    -0.187     4.015    -1.225 
 C                    -0.214     2.583    -1.38 
 C                    -0.887     5.406     0.974 
 C                     0.181     5.013    -2.277 
 O                     0.303     4.69     -3.508 
 C                     0.31      6.414    -1.837 
 N                    -0.265    -0.413    -2.029 
 C                    -0.279     0.569    -2.937 
 C                    -0.196     0.024    -4.332 
 C                     0.124    -1.533    -4.18 
 C                     0.086    -1.632    -2.635 
 C                    -1.451     0.205    -5.197 
 C                     1.373    -2.07     -4.923 
 C                     2.626    -1.49     -4.306 
 N                     0.15     -2.144     0.303 
 C                     0.173    -3.136    -0.688 
 C                     0.173    -4.438     0.004 
 C                     0.133    -4.111     1.358 
 C                     0.083    -2.695     1.502 
 C                     0.149    -5.715    -0.623 
 C                     0.096    -4.629     2.716 
 O                     0.208    -5.747     3.221 
 C                    -0.255    -3.428     3.701 
 C                     0.717    -3.482     4.848 
 O                     1.931    -3.255     4.669 
 O                     0.038    -3.556     6.003 
 C                     0.943    -3.583     7.183 
 H                    -1.859     3.22      2.497 
 H                    -0.218     2.453    -3.474 
 H                     0.276    -3.747    -2.605 
 H                    -1.554    -0.949     5.132 
 H                    -1.585     1.831     4.665 
 H                    -3.484    -0.377     3.969 
 H                    -3.511     1.027     2.858 
 H                    -3.852     1.301     4.543 
 H                     0.669     1.096     4.966 
 H                     1.13     -0.639     5.189 
 H                    -0.844     0.026     7.125 
 H                     0.062     1.477     6.921 
 H                    -1.344     5.186     1.938 
 H                    -1.651     5.963     0.432 
 H                     0.007     6.02      1.084 
 H                    -0.635     6.744    -1.405 
 H                     0.665     6.97     -2.704 
 H                     1.048     6.466    -1.036 
 H                     0.608     0.501    -4.891 
 H                    -0.692    -2.156    -4.547 
 H                    -1.267     0.74     -6.129 
 H                    -2.204     0.714    -4.596 
 H                    -1.967    -0.72     -5.453 
 H                     1.356    -1.759    -5.967 
 H                     1.452    -3.157    -4.902 
 H                     2.714    -0.522    -4.798 
 H                     3.487    -2.121    -4.529 
 H                     2.495    -1.303    -3.24 
 H                     0.867    -6.333    -0.084 
 H                     0.404    -5.642    -1.68 
 H                    -0.891    -5.999    -0.463 
 H                    -1.283    -3.581     4.028 
 H                     0.698    -4.478     7.755 
 H                     0.833    -2.619     7.68 
 H                     2.       -3.754     6.976 
 Mg                    31.54166   2.84348   2.3981 
 C                     32.60834   0.71185   5.0809 
 C                     31.52498   5.41087   4.64372 
 C                     30.17466   4.64781   0.17479 
 C                     30.5555  -0.03073   0.69159 
 N                     32.02463   2.92584   4.555 
 C                     32.47804   2.06572   5.45441 
 C                     32.88674   2.70618   6.80805 
 C                     31.97616   4.02687   6.73386 
 C                     31.85836   4.15763   5.21672 
 C                     30.58218   3.82967   7.30593 
 C                     34.41358   3.06356   6.86339 
 C                     34.94407   3.40469   8.25765 
 H                     36.30438   3.00104   8.60277 
 N                     31.39787   4.81773   2.25594 
 C                     31.43371   5.71111   3.26681 
 C                     31.2662   7.03242   2.64213 
 C                     30.96361   6.83386   1.19862 
 C                     30.80973   5.39348   1.15725 
 C                     31.47396   8.31786   3.38907 
 C                     30.82192   7.78439   0.04857 
 O                     30.32144   7.41541  -1.07223 
 C                     31.19971   9.18225   0.30303 
 N                     30.32238   2.39808   0.77412 
 C                     29.90877   3.36367  -0.06521 
 C                     29.2779   2.77556  -1.30478 
 C                     29.57296   1.20539  -1.23336 
 C                     30.2769   1.14239   0.13992 
 C                     27.7744   3.00412  -1.45844 
 C                     30.28321   0.56635  -2.45804 
 C                     31.69935   1.08509  -2.56202 
 N                     31.72953   0.71265   2.70198 
 C                     31.22135  -0.31468   1.87709 
 C                     31.50099  -1.59658   2.55602 
 C                     32.137   -1.22186   3.74915 
 C                     32.22796   0.19459   3.81896 
 C                     31.13131  -2.88689   2.08213 
 C                     32.74259  -1.70202   4.97039 
 O                     33.02896  -2.81068   5.4205 
 C                     32.9614  -0.46626   5.94579 
 C                     34.36298  -0.54361   6.48627 
 O                     35.34058  -0.41003   5.72926 
 O                     34.31725  -0.5446    7.83099 
 C                     35.68405  -0.60908   8.41367 
 H                     31.26724   6.23414   5.31056 
 H                     29.78327   5.2181   -0.67083 
 H                     30.3672  -0.9764    0.17883 
 H                     32.62601   2.12347   7.6834 
 H                     32.49294   4.88693   7.15172 
 H                     30.39376   2.79745   7.5612 
 H                     29.89837   4.15961   6.53484 
 H                     30.42494   4.50052   8.15538 
 H                     34.57455   4.02581   6.3605 
 H                     35.00455   2.27799   6.43414 
 H                     34.24353   3.11043   9.0486 
 H                     35.00893   4.49174   8.34787 
 H                     31.52568   8.15003   4.47192 
 H                     30.5684   8.91832   3.25022 
 H                     32.33298   8.8839    3.02253 
 H                     30.59844   9.57603   1.11905 
 H                     31.11471   9.68802  -0.66074 
 H                     32.24213   9.2072    0.63971 
 H                     29.73529   3.17871  -2.19996 
 H                     28.64623   0.62056  -1.13857 
 H                     27.50446   3.51193  -2.40361 
 H                     27.42719   3.57496  -0.60748 
 H                     27.16229   2.10578  -1.39929 
 H                     29.77787   0.85608  -3.38262 
 H                     30.30351  -0.51795  -2.4283 
 H                     31.57529   2.03814  -3.08489 
 H                     32.31793   0.3978   -3.13563 
 H                     32.11196   1.30441  -1.5704 
 H                     31.98438  -3.53308   2.24094 
 H                     30.84341  -2.8578    1.03331 
 H                     30.28069  -3.09834   2.73558 
 H                     32.21331  -0.53644   6.73636 
 H                     35.70521  -1.47406   9.08379 
 H                     35.86261   0.38398   8.86723 
 H                     36.50403  -0.84033   7.74389 
 
 ITRead=  0  0  0  0  0  0  0  0  0  0  0  0  0  0  0  0  0  0  0  0
 ITRead=  0  0  0  0  0  0  0  0  0  0  0  0  0  0  0  0  0  0  0  0
 ITRead=  0  0  0  0  0  0  0  0  0  0  0  0  0  0  0  0  0  0  0  0
 ITRead=  0  0  0  0  0  0  0  0  0  0  0  0  0  0  0  0  0  0  0  0
 ITRead=  0  0  0  0  0  0  0  0  0  0  0  0  0  0  0  0  0  0  0  0
 ITRead=  0  0  0  0  0  0  0  0  0  0  0  0  0  0  0  0  0  0  0  0
 ITRead=  0  0  0  0  0  0  0  0  0  0  0  0  0  0  0  0  0  0  0  0
 ITRead=  0  0  0  0  0  0  0  0  0  0  0  0  0  0  0  0  0  0
 MicOpt= -1 -1 -1 -1 -1 -1 -1 -1 -1 -1 -1 -1 -1 -1 -1 -1 -1 -1 -1 -1
 MicOpt= -1 -1 -1 -1 -1 -1 -1 -1 -1 -1 -1 -1 -1 -1 -1 -1 -1 -1 -1 -1
 MicOpt= -1 -1 -1 -1 -1 -1 -1 -1 -1 -1 -1 -1 -1 -1 -1 -1 -1 -1 -1 -1
 MicOpt= -1 -1 -1 -1 -1 -1 -1 -1 -1 -1 -1 -1 -1 -1 -1 -1 -1 -1 -1 -1
 MicOpt= -1 -1 -1 -1 -1 -1 -1 -1 -1 -1 -1 -1 -1 -1 -1 -1 -1 -1 -1 -1
 MicOpt= -1 -1 -1 -1 -1 -1 -1 -1 -1 -1 -1 -1 -1 -1 -1 -1 -1 -1 -1 -1
 MicOpt= -1 -1 -1 -1 -1 -1 -1 -1 -1 -1 -1 -1 -1 -1 -1 -1 -1 -1 -1 -1
 MicOpt= -1 -1 -1 -1 -1 -1 -1 -1 -1 -1 -1 -1 -1 -1 -1 -1 -1 -1
 NAtoms=    158 NQM=      158 NQMF=       0 NMMI=      0 NMMIF=      0
                NMic=       0 NMicF=      0.
                    Isotopes and Nuclear Properties:
 (Nuclear quadrupole moments (NQMom) in fm**2, nuclear magnetic moments (NMagM)
  in nuclear magnetons)

  Atom         1           2           3           4           5           6           7           8           9          10
 IAtWgt=          24          12          12          12          12          14          12          12          12          12
 AtmWgt=  23.9850450  12.0000000  12.0000000  12.0000000  12.0000000  14.0030740  12.0000000  12.0000000  12.0000000  12.0000000
 NucSpn=           0           0           0           0           0           2           0           0           0           0
 AtZEff=  -0.0000000  -0.0000000  -0.0000000  -0.0000000  -0.0000000  -0.0000000  -0.0000000  -0.0000000  -0.0000000  -0.0000000
 NQMom=    0.0000000   0.0000000   0.0000000   0.0000000   0.0000000   2.0440000   0.0000000   0.0000000   0.0000000   0.0000000
 NMagM=    0.0000000   0.0000000   0.0000000   0.0000000   0.0000000   0.4037610   0.0000000   0.0000000   0.0000000   0.0000000
 AtZNuc=  12.0000000   6.0000000   6.0000000   6.0000000   6.0000000   7.0000000   6.0000000   6.0000000   6.0000000   6.0000000

  Atom        11          12          13          14          15          16          17          18          19          20
 IAtWgt=          12          12          12           1          14          12          12          12          12          12
 AtmWgt=  12.0000000  12.0000000  12.0000000   1.0078250  14.0030740  12.0000000  12.0000000  12.0000000  12.0000000  12.0000000
 NucSpn=           0           0           0           1           2           0           0           0           0           0
 AtZEff=  -0.0000000  -0.0000000  -0.0000000  -0.0000000  -0.0000000  -0.0000000  -0.0000000  -0.0000000  -0.0000000  -0.0000000
 NQMom=    0.0000000   0.0000000   0.0000000   0.0000000   2.0440000   0.0000000   0.0000000   0.0000000   0.0000000   0.0000000
 NMagM=    0.0000000   0.0000000   0.0000000   2.7928460   0.4037610   0.0000000   0.0000000   0.0000000   0.0000000   0.0000000
 AtZNuc=   6.0000000   6.0000000   6.0000000   1.0000000   7.0000000   6.0000000   6.0000000   6.0000000   6.0000000   6.0000000

  Atom        21          22          23          24          25          26          27          28          29          30
 IAtWgt=          12          16          12          14          12          12          12          12          12          12
 AtmWgt=  12.0000000  15.9949146  12.0000000  14.0030740  12.0000000  12.0000000  12.0000000  12.0000000  12.0000000  12.0000000
 NucSpn=           0           0           0           2           0           0           0           0           0           0
 AtZEff=  -0.0000000  -0.0000000  -0.0000000  -0.0000000  -0.0000000  -0.0000000  -0.0000000  -0.0000000  -0.0000000  -0.0000000
 NQMom=    0.0000000   0.0000000   0.0000000   2.0440000   0.0000000   0.0000000   0.0000000   0.0000000   0.0000000   0.0000000
 NMagM=    0.0000000   0.0000000   0.0000000   0.4037610   0.0000000   0.0000000   0.0000000   0.0000000   0.0000000   0.0000000
 AtZNuc=   6.0000000   8.0000000   6.0000000   7.0000000   6.0000000   6.0000000   6.0000000   6.0000000   6.0000000   6.0000000

  Atom        31          32          33          34          35          36          37          38          39          40
 IAtWgt=          12          14          12          12          12          12          12          12          16          12
 AtmWgt=  12.0000000  14.0030740  12.0000000  12.0000000  12.0000000  12.0000000  12.0000000  12.0000000  15.9949146  12.0000000
 NucSpn=           0           2           0           0           0           0           0           0           0           0
 AtZEff=  -0.0000000  -0.0000000  -0.0000000  -0.0000000  -0.0000000  -0.0000000  -0.0000000  -0.0000000  -0.0000000  -0.0000000
 NQMom=    0.0000000   2.0440000   0.0000000   0.0000000   0.0000000   0.0000000   0.0000000   0.0000000   0.0000000   0.0000000
 NMagM=    0.0000000   0.4037610   0.0000000   0.0000000   0.0000000   0.0000000   0.0000000   0.0000000   0.0000000   0.0000000
 AtZNuc=   6.0000000   7.0000000   6.0000000   6.0000000   6.0000000   6.0000000   6.0000000   6.0000000   8.0000000   6.0000000

  Atom        41          42          43          44          45          46          47          48          49          50
 IAtWgt=          12          16          16          12           1           1           1           1           1           1
 AtmWgt=  12.0000000  15.9949146  15.9949146  12.0000000   1.0078250   1.0078250   1.0078250   1.0078250   1.0078250   1.0078250
 NucSpn=           0           0           0           0           1           1           1           1           1           1
 AtZEff=  -0.0000000  -0.0000000  -0.0000000  -0.0000000  -0.0000000  -0.0000000  -0.0000000  -0.0000000  -0.0000000  -0.0000000
 NQMom=    0.0000000   0.0000000   0.0000000   0.0000000   0.0000000   0.0000000   0.0000000   0.0000000   0.0000000   0.0000000
 NMagM=    0.0000000   0.0000000   0.0000000   0.0000000   2.7928460   2.7928460   2.7928460   2.7928460   2.7928460   2.7928460
 AtZNuc=   6.0000000   8.0000000   8.0000000   6.0000000   1.0000000   1.0000000   1.0000000   1.0000000   1.0000000   1.0000000

  Atom        51          52          53          54          55          56          57          58          59          60
 IAtWgt=           1           1           1           1           1           1           1           1           1           1
 AtmWgt=   1.0078250   1.0078250   1.0078250   1.0078250   1.0078250   1.0078250   1.0078250   1.0078250   1.0078250   1.0078250
 NucSpn=           1           1           1           1           1           1           1           1           1           1
 AtZEff=  -0.0000000  -0.0000000  -0.0000000  -0.0000000  -0.0000000  -0.0000000  -0.0000000  -0.0000000  -0.0000000  -0.0000000
 NQMom=    0.0000000   0.0000000   0.0000000   0.0000000   0.0000000   0.0000000   0.0000000   0.0000000   0.0000000   0.0000000
 NMagM=    2.7928460   2.7928460   2.7928460   2.7928460   2.7928460   2.7928460   2.7928460   2.7928460   2.7928460   2.7928460
 AtZNuc=   1.0000000   1.0000000   1.0000000   1.0000000   1.0000000   1.0000000   1.0000000   1.0000000   1.0000000   1.0000000

  Atom        61          62          63          64          65          66          67          68          69          70
 IAtWgt=           1           1           1           1           1           1           1           1           1           1
 AtmWgt=   1.0078250   1.0078250   1.0078250   1.0078250   1.0078250   1.0078250   1.0078250   1.0078250   1.0078250   1.0078250
 NucSpn=           1           1           1           1           1           1           1           1           1           1
 AtZEff=  -0.0000000  -0.0000000  -0.0000000  -0.0000000  -0.0000000  -0.0000000  -0.0000000  -0.0000000  -0.0000000  -0.0000000
 NQMom=    0.0000000   0.0000000   0.0000000   0.0000000   0.0000000   0.0000000   0.0000000   0.0000000   0.0000000   0.0000000
 NMagM=    2.7928460   2.7928460   2.7928460   2.7928460   2.7928460   2.7928460   2.7928460   2.7928460   2.7928460   2.7928460
 AtZNuc=   1.0000000   1.0000000   1.0000000   1.0000000   1.0000000   1.0000000   1.0000000   1.0000000   1.0000000   1.0000000

  Atom        71          72          73          74          75          76          77          78          79          80
 IAtWgt=           1           1           1           1           1           1           1           1           1          24
 AtmWgt=   1.0078250   1.0078250   1.0078250   1.0078250   1.0078250   1.0078250   1.0078250   1.0078250   1.0078250  23.9850450
 NucSpn=           1           1           1           1           1           1           1           1           1           0
 AtZEff=  -0.0000000  -0.0000000  -0.0000000  -0.0000000  -0.0000000  -0.0000000  -0.0000000  -0.0000000  -0.0000000  -0.0000000
 NQMom=    0.0000000   0.0000000   0.0000000   0.0000000   0.0000000   0.0000000   0.0000000   0.0000000   0.0000000   0.0000000
 NMagM=    2.7928460   2.7928460   2.7928460   2.7928460   2.7928460   2.7928460   2.7928460   2.7928460   2.7928460   0.0000000
 AtZNuc=   1.0000000   1.0000000   1.0000000   1.0000000   1.0000000   1.0000000   1.0000000   1.0000000   1.0000000  12.0000000

  Atom        81          82          83          84          85          86          87          88          89          90
 IAtWgt=          12          12          12          12          14          12          12          12          12          12
 AtmWgt=  12.0000000  12.0000000  12.0000000  12.0000000  14.0030740  12.0000000  12.0000000  12.0000000  12.0000000  12.0000000
 NucSpn=           0           0           0           0           2           0           0           0           0           0
 AtZEff=  -0.0000000  -0.0000000  -0.0000000  -0.0000000  -0.0000000  -0.0000000  -0.0000000  -0.0000000  -0.0000000  -0.0000000
 NQMom=    0.0000000   0.0000000   0.0000000   0.0000000   2.0440000   0.0000000   0.0000000   0.0000000   0.0000000   0.0000000
 NMagM=    0.0000000   0.0000000   0.0000000   0.0000000   0.4037610   0.0000000   0.0000000   0.0000000   0.0000000   0.0000000
 AtZNuc=   6.0000000   6.0000000   6.0000000   6.0000000   7.0000000   6.0000000   6.0000000   6.0000000   6.0000000   6.0000000

  Atom        91          92          93          94          95          96          97          98          99         100
 IAtWgt=          12          12           1          14          12          12          12          12          12          12
 AtmWgt=  12.0000000  12.0000000   1.0078250  14.0030740  12.0000000  12.0000000  12.0000000  12.0000000  12.0000000  12.0000000
 NucSpn=           0           0           1           2           0           0           0           0           0           0
 AtZEff=  -0.0000000  -0.0000000  -0.0000000  -0.0000000  -0.0000000  -0.0000000  -0.0000000  -0.0000000  -0.0000000  -0.0000000
 NQMom=    0.0000000   0.0000000   0.0000000   2.0440000   0.0000000   0.0000000   0.0000000   0.0000000   0.0000000   0.0000000
 NMagM=    0.0000000   0.0000000   2.7928460   0.4037610   0.0000000   0.0000000   0.0000000   0.0000000   0.0000000   0.0000000
 AtZNuc=   6.0000000   6.0000000   1.0000000   7.0000000   6.0000000   6.0000000   6.0000000   6.0000000   6.0000000   6.0000000

  Atom       101         102         103         104         105         106         107         108         109         110
 IAtWgt=          16          12          14          12          12          12          12          12          12          12
 AtmWgt=  15.9949146  12.0000000  14.0030740  12.0000000  12.0000000  12.0000000  12.0000000  12.0000000  12.0000000  12.0000000
 NucSpn=           0           0           2           0           0           0           0           0           0           0
 AtZEff=  -0.0000000  -0.0000000  -0.0000000  -0.0000000  -0.0000000  -0.0000000  -0.0000000  -0.0000000  -0.0000000  -0.0000000
 NQMom=    0.0000000   0.0000000   2.0440000   0.0000000   0.0000000   0.0000000   0.0000000   0.0000000   0.0000000   0.0000000
 NMagM=    0.0000000   0.0000000   0.4037610   0.0000000   0.0000000   0.0000000   0.0000000   0.0000000   0.0000000   0.0000000
 AtZNuc=   8.0000000   6.0000000   7.0000000   6.0000000   6.0000000   6.0000000   6.0000000   6.0000000   6.0000000   6.0000000

  Atom       111         112         113         114         115         116         117         118         119         120
 IAtWgt=          14          12          12          12          12          12          12          16          12          12
 AtmWgt=  14.0030740  12.0000000  12.0000000  12.0000000  12.0000000  12.0000000  12.0000000  15.9949146  12.0000000  12.0000000
 NucSpn=           2           0           0           0           0           0           0           0           0           0
 AtZEff=  -0.0000000  -0.0000000  -0.0000000  -0.0000000  -0.0000000  -0.0000000  -0.0000000  -0.0000000  -0.0000000  -0.0000000
 NQMom=    2.0440000   0.0000000   0.0000000   0.0000000   0.0000000   0.0000000   0.0000000   0.0000000   0.0000000   0.0000000
 NMagM=    0.4037610   0.0000000   0.0000000   0.0000000   0.0000000   0.0000000   0.0000000   0.0000000   0.0000000   0.0000000
 AtZNuc=   7.0000000   6.0000000   6.0000000   6.0000000   6.0000000   6.0000000   6.0000000   8.0000000   6.0000000   6.0000000

  Atom       121         122         123         124         125         126         127         128         129         130
 IAtWgt=          16          16          12           1           1           1           1           1           1           1
 AtmWgt=  15.9949146  15.9949146  12.0000000   1.0078250   1.0078250   1.0078250   1.0078250   1.0078250   1.0078250   1.0078250
 NucSpn=           0           0           0           1           1           1           1           1           1           1
 AtZEff=  -0.0000000  -0.0000000  -0.0000000  -0.0000000  -0.0000000  -0.0000000  -0.0000000  -0.0000000  -0.0000000  -0.0000000
 NQMom=    0.0000000   0.0000000   0.0000000   0.0000000   0.0000000   0.0000000   0.0000000   0.0000000   0.0000000   0.0000000
 NMagM=    0.0000000   0.0000000   0.0000000   2.7928460   2.7928460   2.7928460   2.7928460   2.7928460   2.7928460   2.7928460
 AtZNuc=   8.0000000   8.0000000   6.0000000   1.0000000   1.0000000   1.0000000   1.0000000   1.0000000   1.0000000   1.0000000

  Atom       131         132         133         134         135         136         137         138         139         140
 IAtWgt=           1           1           1           1           1           1           1           1           1           1
 AtmWgt=   1.0078250   1.0078250   1.0078250   1.0078250   1.0078250   1.0078250   1.0078250   1.0078250   1.0078250   1.0078250
 NucSpn=           1           1           1           1           1           1           1           1           1           1
 AtZEff=  -0.0000000  -0.0000000  -0.0000000  -0.0000000  -0.0000000  -0.0000000  -0.0000000  -0.0000000  -0.0000000  -0.0000000
 NQMom=    0.0000000   0.0000000   0.0000000   0.0000000   0.0000000   0.0000000   0.0000000   0.0000000   0.0000000   0.0000000
 NMagM=    2.7928460   2.7928460   2.7928460   2.7928460   2.7928460   2.7928460   2.7928460   2.7928460   2.7928460   2.7928460
 AtZNuc=   1.0000000   1.0000000   1.0000000   1.0000000   1.0000000   1.0000000   1.0000000   1.0000000   1.0000000   1.0000000

  Atom       141         142         143         144         145         146         147         148         149         150
 IAtWgt=           1           1           1           1           1           1           1           1           1           1
 AtmWgt=   1.0078250   1.0078250   1.0078250   1.0078250   1.0078250   1.0078250   1.0078250   1.0078250   1.0078250   1.0078250
 NucSpn=           1           1           1           1           1           1           1           1           1           1
 AtZEff=  -0.0000000  -0.0000000  -0.0000000  -0.0000000  -0.0000000  -0.0000000  -0.0000000  -0.0000000  -0.0000000  -0.0000000
 NQMom=    0.0000000   0.0000000   0.0000000   0.0000000   0.0000000   0.0000000   0.0000000   0.0000000   0.0000000   0.0000000
 NMagM=    2.7928460   2.7928460   2.7928460   2.7928460   2.7928460   2.7928460   2.7928460   2.7928460   2.7928460   2.7928460
 AtZNuc=   1.0000000   1.0000000   1.0000000   1.0000000   1.0000000   1.0000000   1.0000000   1.0000000   1.0000000   1.0000000

  Atom       151         152         153         154         155         156         157         158
 IAtWgt=           1           1           1           1           1           1           1           1
 AtmWgt=   1.0078250   1.0078250   1.0078250   1.0078250   1.0078250   1.0078250   1.0078250   1.0078250
 NucSpn=           1           1           1           1           1           1           1           1
 AtZEff=  -0.0000000  -0.0000000  -0.0000000  -0.0000000  -0.0000000  -0.0000000  -0.0000000  -0.0000000
 NQMom=    0.0000000   0.0000000   0.0000000   0.0000000   0.0000000   0.0000000   0.0000000   0.0000000
 NMagM=    2.7928460   2.7928460   2.7928460   2.7928460   2.7928460   2.7928460   2.7928460   2.7928460
 AtZNuc=   1.0000000   1.0000000   1.0000000   1.0000000   1.0000000   1.0000000   1.0000000   1.0000000
 Leave Link  101 at Sun Sep 12 17:14:05 2021, MaxMem= 23488102400 cpu:               3.5 elap:               0.2
 (Enter /sw/apps/gaussian-16.0/g16/l202.exe)
 Stoichiometry    C68H72Mg2N8O8
 Framework group  C1[X(C68H72Mg2N8O8)]
 Deg. of freedom   468
 Full point group                 C1      NOp   1
 Largest Abelian subgroup         C1      NOp   1
 Largest concise Abelian subgroup C1      NOp   1
                         Standard orientation:                         
 ---------------------------------------------------------------------
 Center     Atomic      Atomic             Coordinates (Angstroms)
 Number     Number       Type             X           Y           Z
 ---------------------------------------------------------------------
      1         12           0       15.961864    0.614673    0.101859
      2          6           0       16.133203   -2.955887   -0.082416
      3          6           0       16.828001    0.677878   -3.197970
      4          6           0       16.260957    3.761781    0.352616
      5          6           0       16.230469    0.301561    3.562419
      6          7           0       16.396966   -1.000485   -1.348173
      7          6           0       16.369363   -2.328938   -1.307900
      8          6           0       16.540286   -2.993135   -2.706828
      9          6           0       17.301178   -1.809335   -3.456268
     10          6           0       16.785116   -0.635506   -2.642800
     11          6           0       18.818551   -1.875068   -3.315697
     12          6           0       15.165723   -3.311139   -3.385931
     13          6           0       15.235720   -4.247795   -4.595530
     14          1           0       14.151272   -5.193401   -4.812673
     15          7           0       15.989665    2.014111   -1.292290
     16          6           0       16.353911    1.859382   -2.587925
     17          6           0       16.203879    3.190065   -3.215183
     18          6           0       15.904996    4.171093   -2.135207
     19          6           0       16.067913    3.348849   -0.963562
     20          6           0       16.296009    3.418333   -4.692734
     21          6           0       15.542035    5.622294   -2.155382
     22          8           0       15.551875    6.340638   -1.097810
     23          6           0       15.256632    6.209764   -3.476921
     24          7           0       16.430533    1.873739    1.699589
     25          6           0       16.436114    3.203084    1.551959
     26          6           0       16.517505    3.899383    2.878037
     27          6           0       16.320946    2.765816    3.985351
     28          6           0       16.237676    1.534272    3.050132
     29          6           0       17.820370    4.662367    3.154459
     30          6           0       15.189434    2.983253    5.021121
     31          6           0       13.843914    2.906521    4.334983
     32          7           0       15.971887   -1.019008    1.530856
     33          6           0       16.117411   -0.921247    2.922236
     34          6           0       16.171348   -2.297473    3.448695
     35          6           0       16.069447   -3.105481    2.317949
     36          6           0       15.985271   -2.285960    1.156230
     37          6           0       16.357525   -2.661727    4.811446
     38          6           0       16.036884   -4.470617    1.818750
     39          8           0       15.979486   -5.584231    2.342257
     40          6           0       16.199520   -4.429070    0.235193
     41          6           0       15.143050   -5.323627   -0.353832
     42          8           0       13.933321   -5.031198   -0.262135
     43          8           0       15.726683   -6.248810   -1.130974
     44          6           0       14.731641   -7.151038   -1.769745
     45          1           0       17.321260    0.828304   -4.160264
     46          1           0       16.258587    4.844382    0.495470
     47          1           0       16.228378    0.125981    4.639740
     48          1           0       17.156032   -3.892728   -2.710655
     49          1           0       16.986936   -1.717339   -4.495744
     50          1           0       19.120375   -2.653058   -2.614588
     51          1           0       19.119595   -0.893817   -2.948256
     52          1           0       19.293328   -1.988552   -4.290625
     53          1           0       14.787207   -2.410904   -3.870042
     54          1           0       14.460021   -3.713818   -2.658498
     55          1           0       16.200281   -4.752978   -4.653150
     56          1           0       15.193183   -3.641149   -5.500169
     57          1           0       16.687812    2.543139   -5.209524
     58          1           0       17.052024    4.187459   -4.849559
     59          1           0       15.346467    3.744149   -5.117640
     60          1           0       16.130210    6.093476   -4.118706
     61          1           0       14.929072    7.231361   -3.287465
     62          1           0       14.452358    5.644298   -3.948452
     63          1           0       15.725169    4.639777    2.980238
     64          1           0       17.215369    2.628656    4.593519
     65          1           0       17.669827    5.718075    3.381446
     66          1           0       18.473782    4.537215    2.291510
     67          1           0       18.433624    4.245450    3.952906
     68          1           0       15.267083    3.975222    5.464871
     69          1           0       15.202702    2.255121    5.832231
     70          1           0       13.714566    3.913345    3.939501
     71          1           0       13.062088    2.667058    5.056520
     72          1           0       13.868533    2.223491    3.485659
     73          1           0       15.652673   -3.468911    5.010461
     74          1           0       16.186695   -1.814128    5.474769
     75          1           0       17.401006   -2.975982    4.795719
     76          1           0       17.205826   -4.783408    0.014026
     77          1           0       15.003871   -8.171476   -1.499872
     78          1           0       14.716303   -6.894833   -2.829240
     79          1           0       13.714343   -7.099561   -1.380140
     80         12           0      -15.797071    0.888147    0.190396
     81          6           0      -16.897642   -2.527622    0.172102
     82          6           0      -16.189484    0.876388   -3.197886
     83          6           0      -14.408728    3.740314    0.119311
     84          6           0      -14.427884    0.284746    3.337935
     85          7           0      -16.464426   -0.682784   -1.216400
     86          6           0      -16.915996   -1.922665   -1.101924
     87          6           0      -17.490270   -2.521723   -2.413756
     88          6           0      -16.693609   -1.605967   -3.465234
     89          6           0      -16.460732   -0.375711   -2.590634
     90          6           0      -15.340713   -2.176842   -3.856522
     91          6           0      -19.041428   -2.318530   -2.534772
     92          6           0      -19.714281   -3.143701   -3.633914
     93          1           0      -21.058973   -3.659491   -3.392567
     94          7           0      -15.812145    2.289132   -1.215152
     95          6           0      -16.009271    2.112106   -2.538433
     96          6           0      -15.904213    3.449011   -3.143243
     97          6           0      -15.465741    4.406438   -2.091681
     98          6           0      -15.185667    3.492035   -1.002870
     99          6           0      -16.283600    3.729530   -4.568309
    100          6           0      -15.310399    5.896988   -2.073576
    101          8           0      -14.687867    6.497662   -1.127815
    102          6           0      -15.826970    6.624197   -3.242255
    103          7           0      -14.412191    1.813575    1.434593
    104          6           0      -14.014237    3.077541    1.206704
    105          6           0      -13.233463    3.623271    2.378443
    106          6           0      -13.397375    2.541727    3.545058
    107          6           0      -14.205918    1.468582    2.783470
    108          6           0      -11.747612    3.878710    2.126726
    109          6           0      -13.944887    3.052137    4.906080
    110          6           0      -15.386664    3.480651    4.754394
    111          7           0      -15.825850   -0.737299    1.613481
    112          6           0      -15.163875   -0.791797    2.859642
    113          6           0      -15.388188   -2.143033    3.413048
    114          6           0      -16.151825   -2.793605    2.432182
    115          6           0      -16.369762   -1.916801    1.335279
    116          6           0      -14.870522   -2.634004    4.644756
    117          6           0      -16.814119   -4.026217    2.070585
    118          8           0      -17.040827   -5.091058    2.643692
    119          6           0      -17.219355   -3.950670    0.535508
    120          6           0      -18.649448   -4.399676    0.409993
    121          8           0      -19.568005   -3.733799    0.919376
    122          8           0      -18.716683   -5.415805   -0.469396
    123          6           0      -20.116892   -5.888472   -0.636182
    124          1           0      -16.060288    0.911063   -4.280007
    125          1           0      -13.998319    4.749955    0.194669
    126          1           0      -14.116659    0.050386    4.358173
    127          1           0      -17.254702   -3.566485   -2.577309
    128          1           0      -17.315622   -1.353823   -4.320158
    129          1           0      -15.086307   -3.047765   -3.270934
    130          1           0      -14.625583   -1.383113   -3.684422
    131          1           0      -15.313493   -2.379279   -4.931049
    132          1           0      -19.241812   -1.306748   -2.910110
    133          1           0      -19.524600   -2.505530   -1.595518
    134          1           0      -19.059810   -3.938644   -4.011643
    135          1           0      -19.879696   -2.498499   -4.500157
    136          1           0      -16.411284    2.802361   -5.140550
    137          1           0      -15.424579    4.221826   -5.036923
    138          1           0      -17.154346    4.383404   -4.651479
    139          1           0      -15.332308    6.262217   -4.140451
    140          1           0      -15.705283    7.682851   -3.004927
    141          1           0      -16.892214    6.393634   -3.354996
    142          1           0      -13.647168    4.566619    2.713147
    143          1           0      -12.435014    2.080211    3.810960
    144          1           0      -11.444058    4.923375    2.328256
    145          1           0      -11.523324    3.608229    1.103456
    146          1           0      -11.067652    3.240694    2.688671
    147          1           0      -13.390612    3.936611    5.229568
    148          1           0      -13.874308    2.318770    5.702443
    149          1           0      -15.301614    4.499503    4.364784
    150          1           0      -15.893595    3.467274    5.717140
    151          1           0      -15.898266    2.878744    3.994374
    152          1           0      -15.675174   -3.171721    5.128395
    153          1           0      -14.499291   -1.825148    5.270612
    154          1           0      -14.062651   -3.271883    4.276359
    155          1           0      -16.536912   -4.598711   -0.015745
    156          1           0      -20.119702   -6.961447   -0.420739
    157          1           0      -20.417559   -5.578411   -1.654626
    158          1           0      -20.854913   -5.528788    0.071209
 ---------------------------------------------------------------------
 Rotational constants (GHZ):           0.0215037           0.0016112           0.0015786
 Leave Link  202 at Sun Sep 12 17:14:05 2021, MaxMem= 23488102400 cpu:               0.2 elap:               0.0
 (Enter /sw/apps/gaussian-16.0/g16/l301.exe)
 Standard basis: def2SVP (5D, 7F)
 Ernie: Thresh=  0.10000D-02 Tol=  0.10000D-05 Strict=F.
 There are  1658 symmetry adapted cartesian basis functions of A   symmetry.
 There are  1572 symmetry adapted basis functions of A   symmetry.
  1572 basis functions,  2678 primitive gaussians,  1658 cartesian basis functions
   312 alpha electrons      312 beta electrons
       nuclear repulsion energy     12296.4285238120 Hartrees.
 IExCor=20419 DFT=T Ex+Corr=CAM-B3LYP ExCW=0 ScaHFX=  1.000000
 ScaDFX=  1.000000  1.000000  1.000000  0.810000 ScalE2=  1.000000  1.000000
 IRadAn=      5 IRanWt=     -1 IRanGd=            0 ICorTp=0 IEmpDi=  4
 HFx  wShort=  0.000000 wLong=  0.330000 cFull=  0.190000 cShort=  0.000000 cLong=  0.460000
 DFx  wShort=  0.000000 wLong=  0.330000 cFull=  0.190000 cShort=  0.000000 cLong=  0.460000
 NAtoms=  158 NActive=  158 NUniq=  158 SFac= 1.00D+00 NAtFMM=   60 NAOKFM=T Big=T
 Integral buffers will be    131072 words long.
 Raffenetti 1 integral format.
 Two-electron integral symmetry is turned on.
 Leave Link  301 at Sun Sep 12 17:14:05 2021, MaxMem= 23488102400 cpu:               1.3 elap:               0.1
 (Enter /sw/apps/gaussian-16.0/g16/l302.exe)
 NPDir=0 NMtPBC=     1 NCelOv=     1 NCel=       1 NClECP=     1 NCelD=      1
         NCelK=      1 NCelE2=     1 NClLst=     1 CellRange=     0.0.
 One-electron integrals computed using PRISM.
 One-electron integral symmetry used in STVInt
   1 Symmetry operations used in ECPInt.
 ECPInt:  NShTT=  271216 NPrTT=  987664 LenC2=  103957 LenP2D=  239866.
 LDataN:  DoStor=T MaxTD1= 4 Len=   56
 NBasis=  1572 RedAO= T EigKep=  3.36D-04  NBF=  1572
 NBsUse=  1572 1.00D-06 EigRej= -1.00D+00 NBFU=  1572
 Precomputing XC quadrature grid using
 IXCGrd= 4 IRadAn=           5 IRanWt=          -1 IRanGd=           0 AccXCQ= 0.00D+00.
 Generated NRdTot=       0 NPtTot=           0 NUsed=           0 NTot=          32
 NSgBfM=   812   812   812   812   812 MxSgAt=   158 MxSgA2=    79.
 Leave Link  302 at Sun Sep 12 17:14:09 2021, MaxMem= 23488102400 cpu:              99.1 elap:               4.2
 (Enter /sw/apps/gaussian-16.0/g16/l303.exe)
 DipDrv:  MaxL=1.
 Leave Link  303 at Sun Sep 12 17:14:10 2021, MaxMem= 23488102400 cpu:               9.2 elap:               0.4
 (Enter /sw/apps/gaussian-16.0/g16/l308.exe)
 Leave Link  308 at Sun Sep 12 17:14:10 2021, MaxMem= 23488102400 cpu:              12.0 elap:               0.6
 (Enter /sw/apps/gaussian-16.0/g16/l401.exe)
 ExpMin= 3.36D-02 ExpMax= 4.95D+03 ExpMxC= 7.45D+02 IAcc=3 IRadAn=         5 AccDes= 0.00D+00
 Harris functional with IExCor=20419 and IRadAn=       5 diagonalized for initial guess.
 HarFok:  IExCor=20419 AccDes= 0.00D+00 IRadAn=         5 IDoV= 1 UseB2=F ITyADJ=14
 ICtDFT=  3500011 ScaDFX=  1.000000  1.000000  1.000000  1.000000
 FoFCou: FMM=F IPFlag=           0 FMFlag=      100000 FMFlg1=        2001
         NFxFlg=           0 DoJE=T BraDBF=F KetDBF=T FulRan=T
         wScrn=  0.000000 ICntrl=       500 IOpCl=  0 I1Cent=   200000004 NGrid=           0
         NMat0=    1 NMatS0=      1 NMatT0=    0 NMatD0=    1 NMtDS0=    0 NMtDT0=    0
 Petite list used in FoFCou.
 Harris En= -3918.65800938526    
 JPrj=0 DoOrth=F DoCkMO=F.
 Leave Link  401 at Sun Sep 12 17:14:17 2021, MaxMem= 23488102400 cpu:             155.0 elap:               6.5
 (Enter /sw/apps/gaussian-16.0/g16/l502.exe)
 Integral symmetry usage will be decided dynamically.
 Closed shell SCF:
 Using DIIS extrapolation, IDIIS=  1040.
 NGot= 23488102400 LenX= 23482547354 LenY= 23479796732
 Requested convergence on RMS density matrix=1.00D-08 within 128 cycles.
 Requested convergence on MAX density matrix=1.00D-06.
 Requested convergence on             energy=1.00D-06.
 No special actions if energy rises.
 Fock matrices will be formed incrementally for  20 cycles.

 Cycle   1  Pass 1  IDiag  1:
 FoFJK:  IHMeth= 1 ICntrl=       0 DoSepK=T KAlg= 0 I1Cent=           0 FoldK=F
 IRaf=         1 NMat=       1 IRICut=       1 DoRegI=T DoRafI=F ISym2E= 0 IDoP0=0 IntGTp=1.
 FoFCou: FMM=T IPFlag=           0 FMFlag=      100000 FMFlg1=        2001
         NFxFlg=           0 DoJE=T BraDBF=F KetDBF=F FulRan=T
         wScrn=  0.000000 ICntrl=       500 IOpCl=  0 I1Cent=           0 NGrid=           0
         NMat0=    1 NMatS0=      1 NMatT0=    0 NMatD0=    1 NMtDS0=    0 NMtDT0=    0
 Symmetry not used in FoFCou.
 FMM levels:  10  Number of levels for PrismC:   9
 E= -4068.94925366930    
 DIIS: error= 2.04D-02 at cycle   1 NSaved=   1.
 NSaved= 1 IEnMin= 1 EnMin= -4068.94925366930     IErMin= 1 ErrMin= 2.04D-02
 ErrMax= 2.04D-02  0.00D+00 EMaxC= 1.00D-01 BMatC= 1.69D+00 BMatP= 1.69D+00
 IDIUse=3 WtCom= 7.96D-01 WtEn= 2.04D-01
 Coeff-Com:  0.100D+01
 Coeff-En:   0.100D+01
 Coeff:      0.100D+01
 Gap=     0.120 Goal=   None    Shift=    0.000
 GapD=    0.120 DampG=1.000 DampE=0.500 DampFc=0.5000 IDamp=-1.
 Damping current iteration by 5.00D-01
 RMSDP=1.57D-03 MaxDP=1.35D-01              OVMax= 2.03D-01

 Cycle   2  Pass 1  IDiag  1:
 RMSU=  7.69D-04    CP:  9.82D-01
 E= -4069.33815846613     Delta-E=       -0.388904796822 Rises=F Damp=T
 DIIS: error= 1.27D-02 at cycle   2 NSaved=   2.
 NSaved= 2 IEnMin= 2 EnMin= -4069.33815846613     IErMin= 2 ErrMin= 1.27D-02
 ErrMax= 1.27D-02  0.00D+00 EMaxC= 1.00D-01 BMatC= 3.07D-01 BMatP= 1.69D+00
 IDIUse=3 WtCom= 8.73D-01 WtEn= 1.27D-01
 Coeff-Com: -0.213D+00 0.121D+01
 Coeff-En:   0.000D+00 0.100D+01
 Coeff:     -0.186D+00 0.119D+01
 Gap=     0.138 Goal=   None    Shift=    0.000
 RMSDP=7.65D-04 MaxDP=9.43D-02 DE=-3.89D-01 OVMax= 1.88D-01

 Cycle   3  Pass 1  IDiag  1:
 RMSU=  7.32D-04    CP:  9.68D-01  1.24D+00
 E= -4069.62787014040     Delta-E=       -0.289711674277 Rises=F Damp=F
 DIIS: error= 1.58D-02 at cycle   3 NSaved=   3.
 NSaved= 3 IEnMin= 3 EnMin= -4069.62787014040     IErMin= 2 ErrMin= 1.27D-02
 ErrMax= 1.58D-02  0.00D+00 EMaxC= 1.00D-01 BMatC= 2.02D-01 BMatP= 3.07D-01
 IDIUse=3 WtCom= 8.42D-01 WtEn= 1.58D-01
 Coeff-Com: -0.267D+00 0.652D+00 0.616D+00
 Coeff-En:   0.000D+00 0.000D+00 0.100D+01
 Coeff:     -0.225D+00 0.549D+00 0.676D+00
 Gap=     0.125 Goal=   None    Shift=    0.000
 RMSDP=5.08D-04 MaxDP=4.77D-02 DE=-2.90D-01 OVMax= 1.43D-01

 Cycle   4  Pass 1  IDiag  1:
 RMSU=  2.65D-04    CP:  9.65D-01  1.55D+00  5.06D-01
 E= -4069.76501259738     Delta-E=       -0.137142456977 Rises=F Damp=F
 DIIS: error= 7.32D-03 at cycle   4 NSaved=   4.
 NSaved= 4 IEnMin= 4 EnMin= -4069.76501259738     IErMin= 4 ErrMin= 7.32D-03
 ErrMax= 7.32D-03  0.00D+00 EMaxC= 1.00D-01 BMatC= 5.04D-02 BMatP= 2.02D-01
 IDIUse=3 WtCom= 9.27D-01 WtEn= 7.32D-02
 Coeff-Com: -0.109D+00 0.226D+00 0.409D+00 0.474D+00
 Coeff-En:   0.000D+00 0.000D+00 0.221D+00 0.779D+00
 Coeff:     -0.101D+00 0.209D+00 0.395D+00 0.497D+00
 Gap=     0.123 Goal=   None    Shift=    0.000
 RMSDP=2.00D-04 MaxDP=1.96D-02 DE=-1.37D-01 OVMax= 6.18D-02

 Cycle   5  Pass 1  IDiag  1:
 RMSU=  7.59D-05    CP:  9.64D-01  1.49D+00  6.89D-01  5.49D-01
 E= -4069.81052510340     Delta-E=       -0.045512506018 Rises=F Damp=F
 DIIS: error= 7.86D-04 at cycle   5 NSaved=   5.
 NSaved= 5 IEnMin= 5 EnMin= -4069.81052510340     IErMin= 5 ErrMin= 7.86D-04
 ErrMax= 7.86D-04  0.00D+00 EMaxC= 1.00D-01 BMatC= 1.17D-03 BMatP= 5.04D-02
 IDIUse=3 WtCom= 9.92D-01 WtEn= 7.86D-03
 Coeff-Com: -0.358D-01 0.702D-01 0.165D+00 0.249D+00 0.551D+00
 Coeff-En:   0.000D+00 0.000D+00 0.000D+00 0.000D+00 0.100D+01
 Coeff:     -0.355D-01 0.697D-01 0.164D+00 0.247D+00 0.555D+00
 Gap=     0.123 Goal=   None    Shift=    0.000
 RMSDP=4.08D-05 MaxDP=4.16D-03 DE=-4.55D-02 OVMax= 1.64D-02

 Cycle   6  Pass 1  IDiag  1:
 RMSU=  3.02D-05    CP:  9.64D-01  1.49D+00  6.81D-01  6.21D-01  7.59D-01
 E= -4069.81153533906     Delta-E=       -0.001010235659 Rises=F Damp=F
 DIIS: error= 2.18D-04 at cycle   6 NSaved=   6.
 NSaved= 6 IEnMin= 6 EnMin= -4069.81153533906     IErMin= 6 ErrMin= 2.18D-04
 ErrMax= 2.18D-04  0.00D+00 EMaxC= 1.00D-01 BMatC= 1.76D-04 BMatP= 1.17D-03
 IDIUse=3 WtCom= 9.98D-01 WtEn= 2.18D-03
 Coeff-Com:  0.231D-02-0.677D-02 0.109D-01 0.398D-01 0.306D+00 0.648D+00
 Coeff-En:   0.000D+00 0.000D+00 0.000D+00 0.000D+00 0.103D+00 0.897D+00
 Coeff:      0.230D-02-0.675D-02 0.109D-01 0.397D-01 0.306D+00 0.648D+00
 Gap=     0.123 Goal=   None    Shift=    0.000
 RMSDP=1.58D-05 MaxDP=1.23D-03 DE=-1.01D-03 OVMax= 7.25D-03

 Cycle   7  Pass 1  IDiag  1:
 RMSU=  1.07D-05    CP:  9.64D-01  1.50D+00  6.87D-01  6.21D-01  8.59D-01
                    CP:  7.49D-01
 E= -4069.81172448779     Delta-E=       -0.000189148730 Rises=F Damp=F
 DIIS: error= 8.34D-05 at cycle   7 NSaved=   7.
 NSaved= 7 IEnMin= 7 EnMin= -4069.81172448779     IErMin= 7 ErrMin= 8.34D-05
 ErrMax= 8.34D-05  0.00D+00 EMaxC= 1.00D-01 BMatC= 2.08D-05 BMatP= 1.76D-04
 IDIUse=1 WtCom= 1.00D+00 WtEn= 0.00D+00
 Coeff-Com:  0.446D-02-0.975D-02-0.898D-02-0.381D-02 0.102D+00 0.329D+00
 Coeff-Com:  0.587D+00
 Coeff:      0.446D-02-0.975D-02-0.898D-02-0.381D-02 0.102D+00 0.329D+00
 Coeff:      0.587D+00
 Gap=     0.123 Goal=   None    Shift=    0.000
 RMSDP=6.50D-06 MaxDP=1.11D-03 DE=-1.89D-04 OVMax= 3.40D-03

 Cycle   8  Pass 1  IDiag  1:
 RMSU=  4.67D-06    CP:  9.64D-01  1.50D+00  6.88D-01  6.26D-01  8.63D-01
                    CP:  8.75D-01  8.23D-01
 E= -4069.81175027817     Delta-E=       -0.000025790383 Rises=F Damp=F
 DIIS: error= 5.01D-05 at cycle   8 NSaved=   8.
 NSaved= 8 IEnMin= 8 EnMin= -4069.81175027817     IErMin= 8 ErrMin= 5.01D-05
 ErrMax= 5.01D-05  0.00D+00 EMaxC= 1.00D-01 BMatC= 4.82D-06 BMatP= 2.08D-05
 IDIUse=1 WtCom= 1.00D+00 WtEn= 0.00D+00
 Coeff-Com:  0.215D-02-0.426D-02-0.775D-02-0.121D-01-0.116D-01 0.335D-01
 Coeff-Com:  0.344D+00 0.656D+00
 Coeff:      0.215D-02-0.426D-02-0.775D-02-0.121D-01-0.116D-01 0.335D-01
 Coeff:      0.344D+00 0.656D+00
 Gap=     0.123 Goal=   None    Shift=    0.000
 RMSDP=3.27D-06 MaxDP=3.54D-04 DE=-2.58D-05 OVMax= 1.11D-03

 Cycle   9  Pass 1  IDiag  1:
 RMSU=  1.91D-06    CP:  9.64D-01  1.50D+00  6.88D-01  6.27D-01  8.80D-01
                    CP:  9.01D-01  1.02D+00  9.40D-01
 E= -4069.81175797749     Delta-E=       -0.000007699316 Rises=F Damp=F
 DIIS: error= 1.94D-05 at cycle   9 NSaved=   9.
 NSaved= 9 IEnMin= 9 EnMin= -4069.81175797749     IErMin= 9 ErrMin= 1.94D-05
 ErrMax= 1.94D-05  0.00D+00 EMaxC= 1.00D-01 BMatC= 6.88D-07 BMatP= 4.82D-06
 IDIUse=1 WtCom= 1.00D+00 WtEn= 0.00D+00
 Coeff-Com:  0.462D-03-0.767D-03-0.266D-02-0.598D-02-0.212D-01-0.386D-01
 Coeff-Com:  0.104D+00 0.326D+00 0.639D+00
 Coeff:      0.462D-03-0.767D-03-0.266D-02-0.598D-02-0.212D-01-0.386D-01
 Coeff:      0.104D+00 0.326D+00 0.639D+00
 Gap=     0.123 Goal=   None    Shift=    0.000
 RMSDP=1.41D-06 MaxDP=1.50D-04 DE=-7.70D-06 OVMax= 7.43D-04

 Cycle  10  Pass 1  IDiag  1:
 RMSU=  9.37D-07    CP:  9.64D-01  1.50D+00  6.88D-01  6.28D-01  8.84D-01
                    CP:  9.15D-01  1.07D+00  1.11D+00  1.05D+00
 E= -4069.81175956221     Delta-E=       -0.000001584724 Rises=F Damp=F
 DIIS: error= 1.02D-05 at cycle  10 NSaved=  10.
 NSaved=10 IEnMin=10 EnMin= -4069.81175956221     IErMin=10 ErrMin= 1.02D-05
 ErrMax= 1.02D-05  0.00D+00 EMaxC= 1.00D-01 BMatC= 1.71D-07 BMatP= 6.88D-07
 IDIUse=1 WtCom= 1.00D+00 WtEn= 0.00D+00
 Coeff-Com: -0.426D-03 0.893D-03 0.123D-02 0.112D-02-0.376D-02-0.310D-01
 Coeff-Com: -0.464D-01-0.763D-01 0.255D+00 0.900D+00
 Coeff:     -0.426D-03 0.893D-03 0.123D-02 0.112D-02-0.376D-02-0.310D-01
 Coeff:     -0.464D-01-0.763D-01 0.255D+00 0.900D+00
 Gap=     0.123 Goal=   None    Shift=    0.000
 RMSDP=1.22D-06 MaxDP=1.24D-04 DE=-1.58D-06 OVMax= 6.09D-04

 Cycle  11  Pass 1  IDiag  1:
 RMSU=  5.15D-07    CP:  9.64D-01  1.50D+00  6.88D-01  6.28D-01  8.86D-01
                    CP:  9.25D-01  1.11D+00  1.22D+00  1.39D+00  1.37D+00
 E= -4069.81176034870     Delta-E=       -0.000000786491 Rises=F Damp=F
 DIIS: error= 3.96D-06 at cycle  11 NSaved=  11.
 NSaved=11 IEnMin=11 EnMin= -4069.81176034870     IErMin=11 ErrMin= 3.96D-06
 ErrMax= 3.96D-06  0.00D+00 EMaxC= 1.00D-01 BMatC= 6.12D-08 BMatP= 1.71D-07
 IDIUse=1 WtCom= 1.00D+00 WtEn= 0.00D+00
 Coeff-Com: -0.327D-03 0.636D-03 0.133D-02 0.212D-02 0.441D-02-0.836D-02
 Coeff-Com: -0.435D-01-0.132D+00-0.235D-01 0.465D+00 0.734D+00
 Coeff:     -0.327D-03 0.636D-03 0.133D-02 0.212D-02 0.441D-02-0.836D-02
 Coeff:     -0.435D-01-0.132D+00-0.235D-01 0.465D+00 0.734D+00
 Gap=     0.123 Goal=   None    Shift=    0.000
 RMSDP=6.86D-07 MaxDP=5.85D-05 DE=-7.86D-07 OVMax= 3.73D-04

 Cycle  12  Pass 1  IDiag  1:
 RMSU=  2.63D-07    CP:  9.64D-01  1.50D+00  6.88D-01  6.28D-01  8.87D-01
                    CP:  9.27D-01  1.14D+00  1.28D+00  1.56D+00  1.76D+00
                    CP:  1.20D+00
 E= -4069.81176061115     Delta-E=       -0.000000262447 Rises=F Damp=F
 DIIS: error= 2.34D-06 at cycle  12 NSaved=  12.
 NSaved=12 IEnMin=12 EnMin= -4069.81176061115     IErMin=12 ErrMin= 2.34D-06
 ErrMax= 2.34D-06  0.00D+00 EMaxC= 1.00D-01 BMatC= 1.48D-08 BMatP= 6.12D-08
 IDIUse=1 WtCom= 1.00D+00 WtEn= 0.00D+00
 Coeff-Com: -0.136D-06-0.163D-04 0.180D-03 0.511D-03 0.330D-02 0.405D-02
 Coeff-Com:  0.278D-02-0.349D-01-0.681D-01-0.749D-01 0.251D+00 0.916D+00
 Coeff:     -0.136D-06-0.163D-04 0.180D-03 0.511D-03 0.330D-02 0.405D-02
 Coeff:      0.278D-02-0.349D-01-0.681D-01-0.749D-01 0.251D+00 0.916D+00
 Gap=     0.123 Goal=   None    Shift=    0.000
 RMSDP=4.37D-07 MaxDP=3.01D-05 DE=-2.62D-07 OVMax= 2.49D-04

 Cycle  13  Pass 1  IDiag  1:
 RMSU=  1.65D-07    CP:  9.64D-01  1.50D+00  6.88D-01  6.28D-01  8.87D-01
                    CP:  9.28D-01  1.14D+00  1.31D+00  1.67D+00  1.99D+00
                    CP:  1.61D+00  1.27D+00
 E= -4069.81176070324     Delta-E=       -0.000000092095 Rises=F Damp=F
 DIIS: error= 1.24D-06 at cycle  13 NSaved=  13.
 NSaved=13 IEnMin=13 EnMin= -4069.81176070324     IErMin=13 ErrMin= 1.24D-06
 ErrMax= 1.24D-06  0.00D+00 EMaxC= 1.00D-01 BMatC= 8.13D-09 BMatP= 1.48D-08
 IDIUse=1 WtCom= 1.00D+00 WtEn= 0.00D+00
 Coeff-Com:  0.120D-03-0.245D-03-0.369D-03-0.456D-03 0.574D-03 0.508D-02
 Coeff-Com:  0.197D-01 0.228D-01-0.339D-01-0.241D+00-0.156D+00 0.598D+00
 Coeff-Com:  0.786D+00
 Coeff:      0.120D-03-0.245D-03-0.369D-03-0.456D-03 0.574D-03 0.508D-02
 Coeff:      0.197D-01 0.228D-01-0.339D-01-0.241D+00-0.156D+00 0.598D+00
 Coeff:      0.786D+00
 Gap=     0.123 Goal=   None    Shift=    0.000
 RMSDP=3.40D-07 MaxDP=2.23D-05 DE=-9.21D-08 OVMax= 1.97D-04

 Cycle  14  Pass 1  IDiag  1:
 RMSU=  7.61D-08    CP:  9.64D-01  1.50D+00  6.88D-01  6.28D-01  8.87D-01
                    CP:  9.28D-01  1.15D+00  1.33D+00  1.74D+00  2.18D+00
                    CP:  1.87D+00  1.79D+00  1.09D+00
 E= -4069.81176073886     Delta-E=       -0.000000035618 Rises=F Damp=F
 DIIS: error= 6.38D-07 at cycle  14 NSaved=  14.
 NSaved=14 IEnMin=14 EnMin= -4069.81176073886     IErMin=14 ErrMin= 6.38D-07
 ErrMax= 6.38D-07  0.00D+00 EMaxC= 1.00D-01 BMatC= 1.25D-09 BMatP= 8.13D-09
 IDIUse=1 WtCom= 1.00D+00 WtEn= 0.00D+00
 Coeff-Com:  0.663D-04-0.131D-03-0.246D-03-0.386D-03-0.482D-03 0.129D-02
 Coeff-Com:  0.107D-01 0.192D-01 0.369D-02-0.997D-01-0.142D+00 0.932D-01
 Coeff-Com:  0.405D+00 0.710D+00
 Coeff:      0.663D-04-0.131D-03-0.246D-03-0.386D-03-0.482D-03 0.129D-02
 Coeff:      0.107D-01 0.192D-01 0.369D-02-0.997D-01-0.142D+00 0.932D-01
 Coeff:      0.405D+00 0.710D+00
 Gap=     0.123 Goal=   None    Shift=    0.000
 RMSDP=1.01D-07 MaxDP=7.15D-06 DE=-3.56D-08 OVMax= 5.44D-05

 Cycle  15  Pass 1  IDiag  1:
 RMSU=  3.83D-08    CP:  9.64D-01  1.50D+00  6.88D-01  6.28D-01  8.87D-01
                    CP:  9.28D-01  1.15D+00  1.34D+00  1.76D+00  2.22D+00
                    CP:  1.98D+00  1.92D+00  1.33D+00  1.03D+00
 E= -4069.81176074306     Delta-E=       -0.000000004196 Rises=F Damp=F
 DIIS: error= 3.38D-07 at cycle  15 NSaved=  15.
 NSaved=15 IEnMin=15 EnMin= -4069.81176074306     IErMin=15 ErrMin= 3.38D-07
 ErrMax= 3.38D-07  0.00D+00 EMaxC= 1.00D-01 BMatC= 2.25D-10 BMatP= 1.25D-09
 IDIUse=1 WtCom= 1.00D+00 WtEn= 0.00D+00
 Coeff-Com:  0.519D-05-0.859D-05-0.320D-04-0.809D-04-0.299D-03-0.515D-03
 Coeff-Com:  0.112D-02 0.250D-02 0.875D-02 0.185D-02-0.305D-01-0.731D-01
 Coeff-Com:  0.288D-01 0.297D+00 0.765D+00
 Coeff:      0.519D-05-0.859D-05-0.320D-04-0.809D-04-0.299D-03-0.515D-03
 Coeff:      0.112D-02 0.250D-02 0.875D-02 0.185D-02-0.305D-01-0.731D-01
 Coeff:      0.288D-01 0.297D+00 0.765D+00
 Gap=     0.123 Goal=   None    Shift=    0.000
 RMSDP=4.05D-08 MaxDP=2.79D-06 DE=-4.20D-09 OVMax= 2.69D-05

 Cycle  16  Pass 1  IDiag  1:
 RMSU=  1.87D-08    CP:  9.64D-01  1.50D+00  6.88D-01  6.28D-01  8.87D-01
                    CP:  9.28D-01  1.15D+00  1.34D+00  1.76D+00  2.24D+00
                    CP:  2.00D+00  1.98D+00  1.40D+00  1.24D+00  1.15D+00
 E= -4069.81176074385     Delta-E=       -0.000000000795 Rises=F Damp=F
 DIIS: error= 1.64D-07 at cycle  16 NSaved=  16.
 NSaved=16 IEnMin=16 EnMin= -4069.81176074385     IErMin=16 ErrMin= 1.64D-07
 ErrMax= 1.64D-07  0.00D+00 EMaxC= 1.00D-01 BMatC= 8.16D-11 BMatP= 2.25D-10
 IDIUse=1 WtCom= 1.00D+00 WtEn= 0.00D+00
 Coeff-Com: -0.142D-04 0.288D-04 0.470D-04 0.537D-04-0.269D-04-0.633D-03
 Coeff-Com: -0.198D-02-0.426D-02 0.453D-02 0.256D-01 0.207D-01-0.646D-01
 Coeff-Com: -0.831D-01-0.377D-01 0.398D+00 0.743D+00
 Coeff:     -0.142D-04 0.288D-04 0.470D-04 0.537D-04-0.269D-04-0.633D-03
 Coeff:     -0.198D-02-0.426D-02 0.453D-02 0.256D-01 0.207D-01-0.646D-01
 Coeff:     -0.831D-01-0.377D-01 0.398D+00 0.743D+00
 Gap=     0.123 Goal=   None    Shift=    0.000
 RMSDP=2.29D-08 MaxDP=1.45D-06 DE=-7.95D-10 OVMax= 1.30D-05

 Cycle  17  Pass 1  IDiag  1:
 RMSU=  1.04D-08    CP:  9.64D-01  1.50D+00  6.88D-01  6.28D-01  8.87D-01
                    CP:  9.28D-01  1.15D+00  1.34D+00  1.77D+00  2.24D+00
                    CP:  2.02D+00  2.01D+00  1.45D+00  1.34D+00  1.44D+00
                    CP:  1.25D+00
 E= -4069.81176074442     Delta-E=       -0.000000000564 Rises=F Damp=F
 DIIS: error= 9.34D-08 at cycle  17 NSaved=  17.
 NSaved=17 IEnMin=17 EnMin= -4069.81176074442     IErMin=17 ErrMin= 9.34D-08
 ErrMax= 9.34D-08  0.00D+00 EMaxC= 1.00D-01 BMatC= 1.77D-11 BMatP= 8.16D-11
 IDIUse=1 WtCom= 1.00D+00 WtEn= 0.00D+00
 Coeff-Com: -0.717D-05 0.139D-04 0.285D-04 0.424D-04 0.838D-04-0.122D-03
 Coeff-Com: -0.957D-03-0.279D-02 0.133D-03 0.918D-02 0.174D-01-0.717D-02
 Coeff-Com: -0.366D-01-0.102D+00-0.315D-01 0.293D+00 0.861D+00
 Coeff:     -0.717D-05 0.139D-04 0.285D-04 0.424D-04 0.838D-04-0.122D-03
 Coeff:     -0.957D-03-0.279D-02 0.133D-03 0.918D-02 0.174D-01-0.717D-02
 Coeff:     -0.366D-01-0.102D+00-0.315D-01 0.293D+00 0.861D+00
 Gap=     0.123 Goal=   None    Shift=    0.000
 RMSDP=1.37D-08 MaxDP=9.43D-07 DE=-5.64D-10 OVMax= 8.94D-06

 Cycle  18  Pass 1  IDiag  1:
 RMSU=  4.86D-09    CP:  9.64D-01  1.50D+00  6.88D-01  6.28D-01  8.87D-01
                    CP:  9.28D-01  1.15D+00  1.34D+00  1.77D+00  2.24D+00
                    CP:  2.02D+00  2.02D+00  1.47D+00  1.41D+00  1.61D+00
                    CP:  1.66D+00  1.39D+00
 E= -4069.81176074444     Delta-E=       -0.000000000022 Rises=F Damp=F
 DIIS: error= 5.14D-08 at cycle  18 NSaved=  18.
 NSaved=18 IEnMin=18 EnMin= -4069.81176074444     IErMin=18 ErrMin= 5.14D-08
 ErrMax= 5.14D-08  0.00D+00 EMaxC= 1.00D-01 BMatC= 6.91D-12 BMatP= 1.77D-11
 IDIUse=1 WtCom= 1.00D+00 WtEn= 0.00D+00
 Coeff-Com:  0.207D-05-0.445D-05-0.464D-05-0.181D-05 0.591D-04 0.184D-03
 Coeff-Com:  0.406D-03 0.233D-03-0.129D-02-0.622D-02-0.166D-03 0.202D-01
 Coeff-Com:  0.186D-01-0.324D-01-0.163D+00-0.193D+00 0.349D+00 0.101D+01
 Coeff:      0.207D-05-0.445D-05-0.464D-05-0.181D-05 0.591D-04 0.184D-03
 Coeff:      0.406D-03 0.233D-03-0.129D-02-0.622D-02-0.166D-03 0.202D-01
 Coeff:      0.186D-01-0.324D-01-0.163D+00-0.193D+00 0.349D+00 0.101D+01
 Gap=     0.123 Goal=   None    Shift=    0.000
 RMSDP=1.18D-08 MaxDP=7.53D-07 DE=-2.18D-11 OVMax= 6.81D-06

 Cycle  19  Pass 1  IDiag  1:
 RMSU=  2.79D-09    CP:  9.64D-01  1.50D+00  6.88D-01  6.28D-01  8.87D-01
                    CP:  9.28D-01  1.15D+00  1.34D+00  1.77D+00  2.24D+00
                    CP:  2.03D+00  2.02D+00  1.48D+00  1.46D+00  1.77D+00
                    CP:  1.99D+00  1.94D+00  1.38D+00
 E= -4069.81176074418     Delta-E=        0.000000000256 Rises=F Damp=F
 DIIS: error= 3.32D-08 at cycle  19 NSaved=  19.
 NSaved=19 IEnMin=18 EnMin= -4069.81176074444     IErMin=19 ErrMin= 3.32D-08
 ErrMax= 3.32D-08  0.00D+00 EMaxC= 1.00D-01 BMatC= 1.40D-12 BMatP= 6.91D-12
 IDIUse=1 WtCom= 1.00D+00 WtEn= 0.00D+00
 Coeff-Com:  0.286D-05-0.576D-05-0.979D-05-0.123D-04 0.107D-04 0.118D-03
 Coeff-Com:  0.471D-03 0.788D-03-0.586D-03-0.589D-02-0.478D-02 0.119D-01
 Coeff-Com:  0.199D-01 0.115D-01-0.677D-01-0.176D+00-0.335D-01 0.487D+00
 Coeff-Com:  0.757D+00
 Coeff:      0.286D-05-0.576D-05-0.979D-05-0.123D-04 0.107D-04 0.118D-03
 Coeff:      0.471D-03 0.788D-03-0.586D-03-0.589D-02-0.478D-02 0.119D-01
 Coeff:      0.199D-01 0.115D-01-0.677D-01-0.176D+00-0.335D-01 0.487D+00
 Coeff:      0.757D+00
 Gap=     0.123 Goal=   None    Shift=    0.000
 RMSDP=4.49D-09 MaxDP=3.04D-07 DE= 2.56D-10 OVMax= 2.94D-06

 SCF Done:  E(RCAM-B3LYP) =  -4069.81176074     A.U. after   19 cycles
            NFock= 19  Conv=0.45D-08     -V/T= 2.0102
 KE= 4.028802093560D+03 PE=-3.407371129860D+04 EE= 1.367866892048D+04
 Leave Link  502 at Sun Sep 12 17:22:37 2021, MaxMem= 23488102400 cpu:           11417.5 elap:             500.3
 (Enter /sw/apps/gaussian-16.0/g16/l801.exe)
 DoSCS=F DFT=T ScalE2(SS,OS)=  1.000000  1.000000
 ExpMin= 3.36D-02 ExpMax= 4.95D+03 ExpMxC= 7.45D+02 IAcc=3 IRadAn=         5 AccDes= 0.00D+00
 HarFok:  IExCor=  205 AccDes= 0.00D+00 IRadAn=         5 IDoV=-2 UseB2=F ITyADJ=14
 ICtDFT= 12500011 ScaDFX=  1.000000  1.000000  1.000000  1.000000
 GSVD:  LWork=       -9588 too small for GESVD, short by       45590 words or       45590 for optimal perf.
 Largest valence mixing into a core orbital is  2.03D-04
 Largest core mixing into a valence orbital is  5.24D-05
 Range of M.O.s used for correlation:    95  1572
 NBasis=  1572 NAE=   312 NBE=   312 NFC=    94 NFV=     0
 NROrb=   1478 NOA=   218 NOB=   218 NVA=  1260 NVB=  1260
 Leave Link  801 at Sun Sep 12 17:22:38 2021, MaxMem= 23488102400 cpu:               8.1 elap:               0.4
 (Enter /sw/apps/gaussian-16.0/g16/l914.exe)
 RHF ground state
 Two-electron integrals replicated using symmetry.
 MDV= 23488102400 DFT=T DoStab=F Mixed=T DoRPA=T DoScal=F NonHer=T
 Making orbital integer symmetry assigments:
 Orbital symmetries:
       Occupied  (A) (A) (A) (A) (A) (A) (A) (A) (A) (A) (A) (A)
                 (A) (A) (A) (A) (A) (A) (A) (A) (A) (A) (A) (A)
                 (A) (A) (A) (A) (A) (A) (A) (A) (A) (A) (A) (A)
                 (A) (A) (A) (A) (A) (A) (A) (A) (A) (A) (A) (A)
                 (A) (A) (A) (A) (A) (A) (A) (A) (A) (A) (A) (A)
                 (A) (A) (A) (A) (A) (A) (A) (A) (A) (A) (A) (A)
                 (A) (A) (A) (A) (A) (A) (A) (A) (A) (A) (A) (A)
                 (A) (A) (A) (A) (A) (A) (A) (A) (A) (A) (A) (A)
                 (A) (A) (A) (A) (A) (A) (A) (A) (A) (A) (A) (A)
                 (A) (A) (A) (A) (A) (A) (A) (A) (A) (A) (A) (A)
                 (A) (A) (A) (A) (A) (A) (A) (A) (A) (A) (A) (A)
                 (A) (A) (A) (A) (A) (A) (A) (A) (A) (A) (A) (A)
                 (A) (A) (A) (A) (A) (A) (A) (A) (A) (A) (A) (A)
                 (A) (A) (A) (A) (A) (A) (A) (A) (A) (A) (A) (A)
                 (A) (A) (A) (A) (A) (A) (A) (A) (A) (A) (A) (A)
                 (A) (A) (A) (A) (A) (A) (A) (A) (A) (A) (A) (A)
                 (A) (A) (A) (A) (A) (A) (A) (A) (A) (A) (A) (A)
                 (A) (A) (A) (A) (A) (A) (A) (A) (A) (A) (A) (A)
                 (A) (A) (A) (A) (A) (A) (A) (A) (A) (A) (A) (A)
                 (A) (A) (A) (A) (A) (A) (A) (A) (A) (A) (A) (A)
                 (A) (A) (A) (A) (A) (A) (A) (A) (A) (A) (A) (A)
                 (A) (A) (A) (A) (A) (A) (A) (A) (A) (A) (A) (A)
                 (A) (A) (A) (A) (A) (A) (A) (A) (A) (A) (A) (A)
                 (A) (A) (A) (A) (A) (A) (A) (A) (A) (A) (A) (A)
                 (A) (A) (A) (A) (A) (A) (A) (A) (A) (A) (A) (A)
                 (A) (A) (A) (A) (A) (A) (A) (A) (A) (A) (A) (A)
       Virtual   (A) (A) (A) (A) (A) (A) (A) (A) (A) (A) (A) (A)
                 (A) (A) (A) (A) (A) (A) (A) (A) (A) (A) (A) (A)
                 (A) (A) (A) (A) (A) (A) (A) (A) (A) (A) (A) (A)
                 (A) (A) (A) (A) (A) (A) (A) (A) (A) (A) (A) (A)
                 (A) (A) (A) (A) (A) (A) (A) (A) (A) (A) (A) (A)
                 (A) (A) (A) (A) (A) (A) (A) (A) (A) (A) (A) (A)
                 (A) (A) (A) (A) (A) (A) (A) (A) (A) (A) (A) (A)
                 (A) (A) (A) (A) (A) (A) (A) (A) (A) (A) (A) (A)
                 (A) (A) (A) (A) (A) (A) (A) (A) (A) (A) (A) (A)
                 (A) (A) (A) (A) (A) (A) (A) (A) (A) (A) (A) (A)
                 (A) (A) (A) (A) (A) (A) (A) (A) (A) (A) (A) (A)
                 (A) (A) (A) (A) (A) (A) (A) (A) (A) (A) (A) (A)
                 (A) (A) (A) (A) (A) (A) (A) (A) (A) (A) (A) (A)
                 (A) (A) (A) (A) (A) (A) (A) (A) (A) (A) (A) (A)
                 (A) (A) (A) (A) (A) (A) (A) (A) (A) (A) (A) (A)
                 (A) (A) (A) (A) (A) (A) (A) (A) (A) (A) (A) (A)
                 (A) (A) (A) (A) (A) (A) (A) (A) (A) (A) (A) (A)
                 (A) (A) (A) (A) (A) (A) (A) (A) (A) (A) (A) (A)
                 (A) (A) (A) (A) (A) (A) (A) (A) (A) (A) (A) (A)
                 (A) (A) (A) (A) (A) (A) (A) (A) (A) (A) (A) (A)
                 (A) (A) (A) (A) (A) (A) (A) (A) (A) (A) (A) (A)
                 (A) (A) (A) (A) (A) (A) (A) (A) (A) (A) (A) (A)
                 (A) (A) (A) (A) (A) (A) (A) (A) (A) (A) (A) (A)
                 (A) (A) (A) (A) (A) (A) (A) (A) (A) (A) (A) (A)
                 (A) (A) (A) (A) (A) (A) (A) (A) (A) (A) (A) (A)
                 (A) (A) (A) (A) (A) (A) (A) (A) (A) (A) (A) (A)
                 (A) (A) (A) (A) (A) (A) (A) (A) (A) (A) (A) (A)
                 (A) (A) (A) (A) (A) (A) (A) (A) (A) (A) (A) (A)
                 (A) (A) (A) (A) (A) (A) (A) (A) (A) (A) (A) (A)
                 (A) (A) (A) (A) (A) (A) (A) (A) (A) (A) (A) (A)
                 (A) (A) (A) (A) (A) (A) (A) (A) (A) (A) (A) (A)
                 (A) (A) (A) (A) (A) (A) (A) (A) (A) (A) (A) (A)
                 (A) (A) (A) (A) (A) (A) (A) (A) (A) (A) (A) (A)
                 (A) (A) (A) (A) (A) (A) (A) (A) (A) (A) (A) (A)
                 (A) (A) (A) (A) (A) (A) (A) (A) (A) (A) (A) (A)
                 (A) (A) (A) (A) (A) (A) (A) (A) (A) (A) (A) (A)
                 (A) (A) (A) (A) (A) (A) (A) (A) (A) (A) (A) (A)
                 (A) (A) (A) (A) (A) (A) (A) (A) (A) (A) (A) (A)
                 (A) (A) (A) (A) (A) (A) (A) (A) (A) (A) (A) (A)
                 (A) (A) (A) (A) (A) (A) (A) (A) (A) (A) (A) (A)
                 (A) (A) (A) (A) (A) (A) (A) (A) (A) (A) (A) (A)
                 (A) (A) (A) (A) (A) (A) (A) (A) (A) (A) (A) (A)
                 (A) (A) (A) (A) (A) (A) (A) (A) (A) (A) (A) (A)
                 (A) (A) (A) (A) (A) (A) (A) (A) (A) (A) (A) (A)
                 (A) (A) (A) (A) (A) (A) (A) (A) (A) (A) (A) (A)
                 (A) (A) (A) (A) (A) (A) (A) (A) (A) (A) (A) (A)
                 (A) (A) (A) (A) (A) (A) (A) (A) (A) (A) (A) (A)
                 (A) (A) (A) (A) (A) (A) (A) (A) (A) (A) (A) (A)
                 (A) (A) (A) (A) (A) (A) (A) (A) (A) (A) (A) (A)
                 (A) (A) (A) (A) (A) (A) (A) (A) (A) (A) (A) (A)
                 (A) (A) (A) (A) (A) (A) (A) (A) (A) (A) (A) (A)
                 (A) (A) (A) (A) (A) (A) (A) (A) (A) (A) (A) (A)
                 (A) (A) (A) (A) (A) (A) (A) (A) (A) (A) (A) (A)
                 (A) (A) (A) (A) (A) (A) (A) (A) (A) (A) (A) (A)
                 (A) (A) (A) (A) (A) (A) (A) (A) (A) (A) (A) (A)
                 (A) (A) (A) (A) (A) (A) (A) (A) (A) (A) (A) (A)
                 (A) (A) (A) (A) (A) (A) (A) (A) (A) (A) (A) (A)
                 (A) (A) (A) (A) (A) (A) (A) (A) (A) (A) (A) (A)
                 (A) (A) (A) (A) (A) (A) (A) (A) (A) (A) (A) (A)
                 (A) (A) (A) (A) (A) (A) (A) (A) (A) (A) (A) (A)
                 (A) (A) (A) (A) (A) (A) (A) (A) (A) (A) (A) (A)
                 (A) (A) (A) (A) (A) (A) (A) (A) (A) (A) (A) (A)
                 (A) (A) (A) (A) (A) (A) (A) (A) (A) (A) (A) (A)
                 (A) (A) (A) (A) (A) (A) (A) (A) (A) (A) (A) (A)
                 (A) (A) (A) (A) (A) (A) (A) (A) (A) (A) (A) (A)
                 (A) (A) (A) (A) (A) (A) (A) (A) (A) (A) (A) (A)
                 (A) (A) (A) (A) (A) (A) (A) (A) (A) (A) (A) (A)
                 (A) (A) (A) (A) (A) (A) (A) (A) (A) (A) (A) (A)
                 (A) (A) (A) (A) (A) (A) (A) (A) (A) (A) (A) (A)
                 (A) (A) (A) (A) (A) (A) (A) (A) (A) (A) (A) (A)
                 (A) (A) (A) (A) (A) (A) (A) (A) (A) (A) (A) (A)
                 (A) (A) (A) (A) (A) (A) (A) (A) (A) (A) (A) (A)
                 (A) (A) (A) (A) (A) (A) (A) (A) (A) (A) (A) (A)
                 (A) (A) (A) (A) (A) (A) (A) (A) (A) (A) (A) (A)
                 (A) (A) (A) (A) (A) (A) (A) (A) (A) (A) (A) (A)
                 (A) (A) (A) (A) (A) (A) (A) (A) (A) (A) (A) (A)
                 (A) (A) (A) (A) (A) (A) (A) (A) (A) (A) (A) (A)
                 (A) (A) (A) (A) (A) (A) (A) (A) (A) (A) (A) (A)
                 (A) (A) (A) (A) (A) (A) (A) (A) (A) (A) (A) (A)
                 (A) (A) (A) (A) (A) (A) (A) (A) (A) (A) (A) (A)
                 (A) (A) (A) (A) (A) (A) (A) (A) (A) (A) (A) (A)
                 (A) (A) (A) (A) (A) (A) (A) (A) (A) (A) (A) (A)
                 (A) (A) (A) (A) (A) (A) (A) (A) (A) (A) (A) (A)
                 (A) (A) (A) (A) (A) (A) (A) (A) (A) (A) (A) (A)
                 (A) (A) (A) (A) (A) (A) (A) (A) (A) (A) (A) (A)
                 (A) (A) (A) (A) (A) (A) (A) (A) (A) (A) (A) (A)
                 (A) (A) (A) (A) (A) (A) (A) (A) (A) (A) (A) (A)
                 (A) (A) (A) (A) (A) (A) (A) (A) (A) (A) (A) (A)
                 (A) (A) (A) (A) (A) (A) (A) (A) (A) (A) (A) (A)
                 (A) (A) (A) (A) (A) (A) (A) (A) (A) (A) (A) (A)
                 (A) (A) (A) (A) (A) (A) (A) (A) (A) (A) (A) (A)
                 (A) (A) (A) (A) (A) (A) (A) (A) (A) (A) (A) (A)
                 (A) (A) (A) (A) (A) (A) (A) (A) (A) (A) (A) (A)
                 (A) (A) (A) (A) (A) (A) (A) (A) (A) (A) (A) (A)
                 (A) (A) (A) (A) (A) (A) (A) (A) (A) (A) (A) (A)
                 (A) (A) (A) (A) (A) (A) (A) (A) (A) (A) (A) (A)
                 (A) (A) (A) (A) (A) (A) (A) (A) (A) (A) (A) (A)
                 (A) (A) (A) (A) (A) (A) (A) (A) (A) (A) (A) (A)
                 (A) (A) (A) (A) (A) (A) (A) (A) (A) (A) (A) (A)
                 (A) (A) (A) (A) (A) (A) (A) (A) (A) (A) (A) (A)
                 (A) (A) (A) (A) (A) (A) (A) (A) (A) (A) (A) (A)
                 (A) (A) (A) (A) (A) (A) (A) (A) (A) (A) (A) (A)
                 (A) (A) (A) (A) (A) (A) (A) (A) (A) (A) (A) (A)
                 (A) (A) (A) (A) (A) (A) (A) (A) (A) (A) (A) (A)
                 (A) (A) (A) (A) (A) (A) (A) (A) (A) (A) (A) (A)
    20 initial guesses have been made.
 Convergence on wavefunction:    0.001000000000000
 Davidson Disk Diagonalization:  ConvIn= 1.00D-03 SkipCon=T Conv= 1.00D-03.
 Max sub-space:  2000 roots to seek:    20 dimension of matrix:       549360
 Iteration     1 Dimension    20 NMult     0 NNew     20
 CISAX will form    20 AO SS matrices at one time.
 NMat=    20 NSing=    20 JSym2X= 0.
 FoFJK:  IHMeth= 1 ICntrl=       0 DoSepK=T KAlg= 0 I1Cent=           0 FoldK=F
 IRaf=         1 NMat=      40 IRICut=       1 DoRegI=T DoRafI=F ISym2E= 0 IDoP0=3 IntGTp=3.
 FoFCou: FMM=T IPFlag=           0 FMFlag=      100000 FMFlg1=        2001
         NFxFlg=           0 DoJE=F BraDBF=F KetDBF=F FulRan=T
         wScrn=  0.000000 ICntrl=       500 IOpCl=  0 I1Cent=           0 NGrid=           0
         NMat0=   20 NMatS0=     20 NMatT0=    0 NMatD0=   20 NMtDS0=    0 NMtDT0=    0
 Symmetry not used in FoFCou.
 FMM levels:  10  Number of levels for PrismC:   9
 New state      1 was old state      8
 New state      2 was old state      5
 New state      3 was old state      1
 New state      5 was old state      2
 Excitation Energies [eV] at current iteration:
 Root      1 :     2.614368365045364
 Root      2 :     2.619255700755396
 Root      3 :     2.680318685849803
 Root      4 :     2.690289697518366
 Root      5 :     3.064290637664777
 Root      6 :     3.069987547767863
 Root      7 :     3.628568057640310
 Root      8 :     3.669169871813355
 Root      9 :     3.735945235981761
 Root     10 :     3.759248009473604
 Root     11 :     3.864359542697265
 Root     12 :     3.867598960458807
 Root     13 :     4.303319074518082
 Root     14 :     4.306706257338428
 Root     15 :     4.980874121039635
 Root     16 :     4.995741232215974
 Root     17 :     5.275586058989524
 Root     18 :     5.292817419079265
 Root     19 :     5.306106161879600
 Root     20 :     5.326941796399260
 Iteration     2 Dimension    30 NMult    20 NNew     10
 CISAX will form    10 AO SS matrices at one time.
 NMat=    10 NSing=    10 JSym2X= 0.
 New state      1 was old state      3
 Root      1 not converged, maximum delta is    0.187190363332358
 New state      2 was old state      4
 Root      2 not converged, maximum delta is    0.188561943657597
 New state      3 was old state      2
 Root      3 not converged, maximum delta is    0.067036293558212
 New state      4 was old state      1
 Root      4 not converged, maximum delta is    0.089608038509459
 Root      5 has converged.
 Excitation Energies [eV] at current iteration:
 Root      1 :     1.801311632125679   Change is   -0.879007053724124
 Root      2 :     1.807434899325031   Change is   -0.882854798193335
 Root      3 :     2.235824764253201   Change is   -0.383430936502195
 Root      4 :     2.239087605704306   Change is   -0.375280759341057
 Root      5 :     3.064279754012052   Change is   -0.000010883652724
 Iteration     3 Dimension    38 NMult    30 NNew      8
 CISAX will form     8 AO SS matrices at one time.
 NMat=     8 NSing=     8 JSym2X= 0.
 Root      1 not converged, maximum delta is    0.069367303198175
 Root      2 not converged, maximum delta is    0.070531792927759
 Root      3 not converged, maximum delta is    0.044011074710842
 Root      4 not converged, maximum delta is    0.042549621307377
 Root      5 has converged.
 Excitation Energies [eV] at current iteration:
 Root      1 :     1.694068046494301   Change is   -0.107243585631378
 Root      2 :     1.699046586953013   Change is   -0.108388312372019
 Root      3 :     2.194365629784009   Change is   -0.041459134469192
 Root      4 :     2.200218896151793   Change is   -0.038868709552514
 Root      5 :     3.064279754011999   Change is   -0.000000000000054
 Iteration     4 Dimension    46 NMult    38 NNew      8
 CISAX will form     8 AO SS matrices at one time.
 NMat=     8 NSing=     8 JSym2X= 0.
 Root      1 not converged, maximum delta is    0.013029938981520
 Root      2 not converged, maximum delta is    0.013287800116823
 Root      3 not converged, maximum delta is    0.009739128948712
 Root      4 not converged, maximum delta is    0.008894633815979
 Root      5 has converged.
 Excitation Energies [eV] at current iteration:
 Root      1 :     1.677354905613653   Change is   -0.016713140880647
 Root      2 :     1.682167183422332   Change is   -0.016879403530681
 Root      3 :     2.187062195967688   Change is   -0.007303433816321
 Root      4 :     2.193445320815173   Change is   -0.006773575336620
 Root      5 :     3.064279754012052   Change is    0.000000000000054
 Iteration     5 Dimension    54 NMult    46 NNew      8
 CISAX will form     8 AO SS matrices at one time.
 NMat=     8 NSing=     8 JSym2X= 0.
 Root      1 not converged, maximum delta is    0.002167164404018
 Root      2 not converged, maximum delta is    0.002167861288054
 Root      3 not converged, maximum delta is    0.002500241365554
 Root      4 not converged, maximum delta is    0.002385472237540
 Root      5 has converged.
 Excitation Energies [eV] at current iteration:
 Root      1 :     1.675576857356986   Change is   -0.001778048256668
 Root      2 :     1.680394260865213   Change is   -0.001772922557118
 Root      3 :     2.186216293807316   Change is   -0.000845902160372
 Root      4 :     2.192669502513122   Change is   -0.000775818302051
 Root      5 :     3.064279754012025   Change is   -0.000000000000027
 Iteration     6 Dimension    62 NMult    54 NNew      8
 CISAX will form     8 AO SS matrices at one time.
 NMat=     8 NSing=     8 JSym2X= 0.
 Root      1 not converged, maximum delta is    0.001356655212957
 Root      2 not converged, maximum delta is    0.001377797182555
 Root      3 not converged, maximum delta is    0.001070002025696
 Root      4 not converged, maximum delta is    0.001013875571668
 Root      5 has converged.
 Excitation Energies [eV] at current iteration:
 Root      1 :     1.675323156892601   Change is   -0.000253700464384
 Root      2 :     1.680139168597449   Change is   -0.000255092267764
 Root      3 :     2.186088043372636   Change is   -0.000128250434680
 Root      4 :     2.192551770626722   Change is   -0.000117731886400
 Root      5 :     3.064279754011972   Change is   -0.000000000000054
 Iteration     7 Dimension    70 NMult    62 NNew      8
 CISAX will form     8 AO SS matrices at one time.
 NMat=     8 NSing=     8 JSym2X= 0.
 Root      1 has converged.
 Root      2 has converged.
 Root      3 has converged.
 Root      4 has converged.
 Root      5 has converged.
 Excitation Energies [eV] at current iteration:
 Root      1 :     1.675298931980391   Change is   -0.000024224912211
 Root      2 :     1.680115348371924   Change is   -0.000023820225525
[...]
 Alpha virt. eigenvalues --    1.83473   1.83805   1.83847   1.84070   1.84157
 Alpha virt. eigenvalues --    1.84482   1.84496   1.84742   1.84856   1.85080
 Alpha virt. eigenvalues --    1.85148   1.85300   1.85320   1.85442   1.85529
 Alpha virt. eigenvalues --    1.85855   1.85913   1.86337   1.86406   1.86602
 Alpha virt. eigenvalues --    1.86606   1.86781   1.86829   1.86998   1.87085
 Alpha virt. eigenvalues --    1.87436   1.87491   1.87725   1.87726   1.87914
 Alpha virt. eigenvalues --    1.87969   1.88086   1.88132   1.88527   1.88581
 Alpha virt. eigenvalues --    1.88868   1.88892   1.89028   1.89172   1.89613
 Alpha virt. eigenvalues --    1.89672   1.89792   1.89831   1.90143   1.90164
 Alpha virt. eigenvalues --    1.90797   1.90848   1.91381   1.91394   1.91486
 Alpha virt. eigenvalues --    1.91543   1.92136   1.92199   1.92614   1.92671
 Alpha virt. eigenvalues --    1.93028   1.93104   1.93383   1.93456   1.94263
 Alpha virt. eigenvalues --    1.94328   1.94734   1.94769   1.95521   1.95547
 Alpha virt. eigenvalues --    1.95766   1.95773   1.96001   1.96040   1.96125
 Alpha virt. eigenvalues --    1.96198   1.96435   1.96640   1.96888   1.96944
 Alpha virt. eigenvalues --    1.97495   1.97495   1.97754   1.97881   1.98119
 Alpha virt. eigenvalues --    1.98215   1.98301   1.98720   1.99024   1.99181
 Alpha virt. eigenvalues --    1.99866   1.99883   2.00678   2.00705   2.01042
 Alpha virt. eigenvalues --    2.01048   2.01460   2.01525   2.01558   2.01719
 Alpha virt. eigenvalues --    2.01764   2.01775   2.02662   2.02831   2.03094
 Alpha virt. eigenvalues --    2.03281   2.03330   2.03449   2.03472   2.03529
 Alpha virt. eigenvalues --    2.03977   2.04081   2.04928   2.05004   2.05559
 Alpha virt. eigenvalues --    2.05581   2.06124   2.06237   2.06948   2.06983
 Alpha virt. eigenvalues --    2.07229   2.07299   2.08505   2.08631   2.08955
 Alpha virt. eigenvalues --    2.09026   2.09562   2.09634   2.10824   2.10986
 Alpha virt. eigenvalues --    2.11228   2.11357   2.11482   2.11583   2.11772
 Alpha virt. eigenvalues --    2.11815   2.12415   2.12510   2.12752   2.12819
 Alpha virt. eigenvalues --    2.12849   2.12879   2.13579   2.13811   2.14182
 Alpha virt. eigenvalues --    2.14204   2.15357   2.15381   2.15970   2.16031
 Alpha virt. eigenvalues --    2.16542   2.16567   2.16799   2.17122   2.17461
 Alpha virt. eigenvalues --    2.17600   2.17749   2.17882   2.17954   2.18114
 Alpha virt. eigenvalues --    2.18369   2.18621   2.18912   2.19183   2.19685
 Alpha virt. eigenvalues --    2.19767   2.20082   2.20192   2.20256   2.20386
 Alpha virt. eigenvalues --    2.21124   2.21195   2.21712   2.21714   2.21788
 Alpha virt. eigenvalues --    2.21823   2.22650   2.22724   2.23291   2.23358
 Alpha virt. eigenvalues --    2.24368   2.24439   2.24954   2.25003   2.26342
 Alpha virt. eigenvalues --    2.26387   2.26823   2.26956   2.27145   2.27150
 Alpha virt. eigenvalues --    2.28181   2.28261   2.29312   2.29384   2.29778
 Alpha virt. eigenvalues --    2.29826   2.30498   2.30568   2.30771   2.31126
 Alpha virt. eigenvalues --    2.31148   2.31224   2.32164   2.32188   2.33178
 Alpha virt. eigenvalues --    2.33180   2.33430   2.33505   2.34088   2.34183
 Alpha virt. eigenvalues --    2.35245   2.35413   2.35839   2.35854   2.36279
 Alpha virt. eigenvalues --    2.36396   2.36396   2.36666   2.37624   2.37702
 Alpha virt. eigenvalues --    2.38301   2.38328   2.38726   2.38899   2.39613
 Alpha virt. eigenvalues --    2.39653   2.40214   2.40225   2.40528   2.40772
 Alpha virt. eigenvalues --    2.41156   2.41310   2.41640   2.41729   2.42072
 Alpha virt. eigenvalues --    2.42081   2.42768   2.42986   2.43012   2.43575
 Alpha virt. eigenvalues --    2.43920   2.44211   2.44748   2.44773   2.44931
 Alpha virt. eigenvalues --    2.44946   2.45514   2.45589   2.46227   2.46343
 Alpha virt. eigenvalues --    2.46438   2.46519   2.46741   2.46841   2.47295
 Alpha virt. eigenvalues --    2.47320   2.47755   2.47828   2.49336   2.49352
 Alpha virt. eigenvalues --    2.49835   2.50110   2.50396   2.50591   2.51161
 Alpha virt. eigenvalues --    2.51206   2.51551   2.51927   2.52335   2.52480
 Alpha virt. eigenvalues --    2.52850   2.53101   2.53909   2.53960   2.54191
 Alpha virt. eigenvalues --    2.54222   2.54745   2.54829   2.55560   2.55604
 Alpha virt. eigenvalues --    2.57905   2.58015   2.58684   2.58840   2.60235
 Alpha virt. eigenvalues --    2.60247   2.60652   2.60858   2.61751   2.61756
 Alpha virt. eigenvalues --    2.62365   2.62573   2.62996   2.63060   2.63976
 Alpha virt. eigenvalues --    2.64152   2.64285   2.64362   2.65032   2.65119
 Alpha virt. eigenvalues --    2.65793   2.65826   2.66754   2.66818   2.66950
 Alpha virt. eigenvalues --    2.66989   2.67913   2.67948   2.68751   2.68897
 Alpha virt. eigenvalues --    2.68962   2.69063   2.69430   2.69524   2.70038
 Alpha virt. eigenvalues --    2.70069   2.70997   2.71020   2.71823   2.72093
 Alpha virt. eigenvalues --    2.72422   2.72664   2.72693   2.72867   2.73217
 Alpha virt. eigenvalues --    2.73315   2.73396   2.73571   2.74436   2.74550
 Alpha virt. eigenvalues --    2.74982   2.75014   2.76449   2.76630   2.76993
 Alpha virt. eigenvalues --    2.77271   2.77496   2.77532   2.78222   2.78230
 Alpha virt. eigenvalues --    2.78617   2.78769   2.79081   2.79173   2.80190
 Alpha virt. eigenvalues --    2.80384   2.80614   2.80628   2.81076   2.81154
 Alpha virt. eigenvalues --    2.81913   2.81973   2.82259   2.82381   2.83771
 Alpha virt. eigenvalues --    2.83791   2.83807   2.83828   2.84451   2.84584
 Alpha virt. eigenvalues --    2.84810   2.84922   2.85616   2.85707   2.86582
 Alpha virt. eigenvalues --    2.87035   2.87096   2.87646   2.88160   2.88194
 Alpha virt. eigenvalues --    2.88540   2.88547   2.88794   2.88973   2.90536
 Alpha virt. eigenvalues --    2.90581   2.90991   2.91227   2.93193   2.93242
 Alpha virt. eigenvalues --    2.93692   2.94239   2.94495   2.94597   2.95392
 Alpha virt. eigenvalues --    2.95406   2.95760   2.96241   2.96296   2.96480
 Alpha virt. eigenvalues --    2.96792   2.97216   2.97855   2.97953   2.98247
 Alpha virt. eigenvalues --    2.98277   2.98404   2.98493   2.98640   2.98700
 Alpha virt. eigenvalues --    2.98843   2.98922   2.99625   2.99722   2.99936
 Alpha virt. eigenvalues --    3.00070   3.00257   3.00259   3.00500   3.00912
 Alpha virt. eigenvalues --    3.01823   3.02028   3.02035   3.02072   3.02741
 Alpha virt. eigenvalues --    3.02772   3.03017   3.03235   3.03367   3.03628
 Alpha virt. eigenvalues --    3.03972   3.04209   3.04351   3.04489   3.04587
 Alpha virt. eigenvalues --    3.04648   3.05272   3.05335   3.06084   3.06152
 Alpha virt. eigenvalues --    3.06842   3.06856   3.07842   3.08185   3.09278
 Alpha virt. eigenvalues --    3.09441   3.09732   3.10350   3.10481   3.10657
 Alpha virt. eigenvalues --    3.11370   3.11401   3.11820   3.11982   3.12216
 Alpha virt. eigenvalues --    3.12221   3.13322   3.13566   3.13608   3.13680
 Alpha virt. eigenvalues --    3.14132   3.14392   3.15910   3.15961   3.17304
 Alpha virt. eigenvalues --    3.17437   3.17798   3.18119   3.18950   3.19168
 Alpha virt. eigenvalues --    3.22346   3.22515   3.23988   3.24356   3.24715
 Alpha virt. eigenvalues --    3.25110   3.26546   3.26574   3.27312   3.27662
 Alpha virt. eigenvalues --    3.29139   3.29141   3.31296   3.31566   3.33102
 Alpha virt. eigenvalues --    3.33460   3.40178   3.40671   3.42736   3.42859
 Alpha virt. eigenvalues --    3.48614   3.48701   3.50064   3.50199   3.50753
 Alpha virt. eigenvalues --    3.51517   3.56593   3.56922   3.59142   3.59257
 Alpha virt. eigenvalues --    3.62432   3.62879   3.66034   3.66228   3.67227
 Alpha virt. eigenvalues --    3.67460   3.73313   3.73938   3.76098   3.76597
          Condensed to atoms (all electrons):
 Mulliken charges:
               1
     1  Mg   0.838736
     2  C   -0.002969
     3  C   -0.094124
     4  C   -0.045887
     5  C   -0.063952
     6  N   -0.256779
     7  C   -0.052455
     8  C   -0.014016
     9  C   -0.086995
    10  C    0.046318
    11  C    0.104811
    12  C    0.053472
    13  C   -0.071817
    14  H    0.036134
    15  N   -0.433148
    16  C    0.168436
    17  C   -0.177166
    18  C   -0.003997
    19  C    0.148721
    20  C    0.110186
    21  C    0.012283
    22  O   -0.249619
    23  C    0.062468
    24  N   -0.341162
    25  C    0.041261
    26  C   -0.028177
    27  C   -0.023983
    28  C    0.074838
    29  C    0.076181
    30  C    0.035141
    31  C   -0.004510
    32  N   -0.310472
    33  C    0.080420
    34  C   -0.169710
    35  C    0.008373
    36  C    0.083003
    37  C    0.127309
    38  C    0.046106
    39  O   -0.188429
    40  C   -0.005335
    41  C    0.212877
    42  O   -0.257095
    43  O   -0.304797
    44  C    0.157680
    45  H   -0.017613
    46  H   -0.016837
    47  H   -0.041488
    48  H    0.000935
    49  H   -0.004039
    50  H    0.025475
    51  H    0.016449
    52  H    0.016649
    53  H    0.011204
    54  H    0.044132
    55  H    0.017870
    56  H    0.017943
    57  H    0.005866
    58  H    0.026815
    59  H    0.039547
    60  H    0.037340
    61  H    0.035653
    62  H    0.031506
    63  H    0.016558
    64  H    0.009460
    65  H    0.023210
    66  H    0.012539
    67  H    0.004749
    68  H    0.006365
    69  H    0.004733
    70  H    0.008781
    71  H    0.018153
    72  H    0.028984
    73  H    0.047582
    74  H    0.009116
    75  H    0.046007
    76  H    0.035147
    77  H    0.042953
    78  H    0.046395
    79  H    0.053701
    80  Mg   0.837892
    81  C   -0.016859
    82  C   -0.087806
    83  C   -0.045517
    84  C   -0.064871
    85  N   -0.254566
    86  C   -0.049853
    87  C   -0.015072
    88  C   -0.090515
    89  C    0.045768
    90  C    0.114374
    91  C    0.062531
    92  C   -0.077902
    93  H    0.034901
    94  N   -0.423508
    95  C    0.162924
    96  C   -0.174633
    97  C   -0.007809
    98  C    0.152122
    99  C    0.099371
   100  C    0.015563
   101  O   -0.253164
   102  C    0.061194
   103  N   -0.350082
   104  C    0.037538
   105  C   -0.019844
   106  C   -0.034831
   107  C    0.088949
   108  C    0.073629
   109  C    0.034708
   110  C   -0.007666
   111  N   -0.324123
   112  C    0.078458
   113  C   -0.163114
   114  C    0.002257
   115  C    0.096224
   116  C    0.131490
   117  C    0.042390
   118  O   -0.187836
   119  C    0.000925
   120  C    0.211257
   121  O   -0.251017
   122  O   -0.305619
   123  C    0.152012
   124  H   -0.019678
   125  H   -0.015551
   126  H   -0.040400
   127  H   -0.000643
   128  H   -0.004337
   129  H    0.022480
   130  H    0.014440
   131  H    0.016265
   132  H    0.013915
   133  H    0.037677
   134  H    0.020790
   135  H    0.019582
   136  H    0.008749
   137  H    0.026131
   138  H    0.039784
   139  H    0.038241
   140  H    0.036396
   141  H    0.033891
   142  H    0.014399
   143  H    0.012493
   144  H    0.025163
   145  H    0.011642
   146  H    0.005752
   147  H    0.006303
   148  H    0.003690
   149  H    0.010926
   150  H    0.017943
   151  H    0.030071
   152  H    0.046019
   153  H    0.008546
   154  H    0.047007
   155  H    0.035045
   156  H    0.043929
   157  H    0.049487
   158  H    0.053584
 Sum of Mulliken charges =  -0.00000
 Mulliken charges with hydrogens summed into heavy atoms:
               1
     1  Mg   0.838736
     2  C   -0.002969
     3  C   -0.111737
     4  C   -0.062724
     5  C   -0.105440
     6  N   -0.256779
     7  C   -0.052455
     8  C   -0.013082
     9  C   -0.091034
    10  C    0.046318
    11  C    0.163383
    12  C    0.108808
    13  C    0.000131
    15  N   -0.433148
    16  C    0.168436
    17  C   -0.177166
    18  C   -0.003997
    19  C    0.148721
    20  C    0.182415
    21  C    0.012283
    22  O   -0.249619
    23  C    0.166965
    24  N   -0.341162
    25  C    0.041261
    26  C   -0.011619
    27  C   -0.014523
    28  C    0.074838
    29  C    0.116679
    30  C    0.046238
    31  C    0.051408
    32  N   -0.310472
    33  C    0.080420
    34  C   -0.169710
    35  C    0.008373
    36  C    0.083003
    37  C    0.230015
    38  C    0.046106
    39  O   -0.188429
    40  C    0.029812
    41  C    0.212877
    42  O   -0.257095
    43  O   -0.304797
    44  C    0.300729
    80  Mg   0.837892
    81  C   -0.016859
    82  C   -0.107485
    83  C   -0.061068
    84  C   -0.105272
    85  N   -0.254566
    86  C   -0.049853
    87  C   -0.015715
    88  C   -0.094852
    89  C    0.045768
    90  C    0.167560
    91  C    0.114123
    92  C   -0.002630
    94  N   -0.423508
    95  C    0.162924
    96  C   -0.174633
    97  C   -0.007809
    98  C    0.152122
    99  C    0.174034
   100  C    0.015563
   101  O   -0.253164
   102  C    0.169722
   103  N   -0.350082
   104  C    0.037538
   105  C   -0.005446
   106  C   -0.022339
   107  C    0.088949
   108  C    0.116186
   109  C    0.044700
   110  C    0.051274
   111  N   -0.324123
   112  C    0.078458
   113  C   -0.163114
   114  C    0.002257
   115  C    0.096224
   116  C    0.233062
   117  C    0.042390
   118  O   -0.187836
   119  C    0.035970
   120  C    0.211257
   121  O   -0.251017
   122  O   -0.305619
   123  C    0.299012
 Electronic spatial extent (au):  <R**2>=         625547.7398
 Charge=             -0.0000 electrons
 Dipole moment (field-independent basis, Debye):
    X=              2.9632    Y=              2.7653    Z=             -8.0012  Tot=              8.9692
 Quadrupole moment (field-independent basis, Debye-Ang):
   XX=           -477.5938   YY=           -559.0113   ZZ=           -445.2984
   XY=              2.9852   XZ=             26.8595   YZ=             33.3527
 Traceless Quadrupole moment (field-independent basis, Debye-Ang):
   XX=             16.3740   YY=            -65.0435   ZZ=             48.6695
   XY=              2.9852   XZ=             26.8595   YZ=             33.3527
 Octapole moment (field-independent basis, Debye-Ang**2):
  XXX=           2010.4415  YYY=           -268.6959  ZZZ=            -40.5714  XYY=           -148.0218
  XXY=            683.9868  XXZ=          -2696.2795  XZZ=            178.8638  YZZ=            173.4717
  YYZ=           -271.5869  XYZ=             36.3176
 Hexadecapole moment (field-independent basis, Debye-Ang**3):
 XXXX=        -779122.6192 YYYY=         -41018.5122 ZZZZ=         -22941.4157 XXXY=           -543.2884
 XXXZ=          16690.7453 YYYX=           -148.5307 YYYZ=           1027.4439 ZZZX=            162.1123
 ZZZY=           -192.9587 XXYY=        -148363.4530 XXZZ=        -120768.8390 YYZZ=         -10055.6166
 XXYZ=           8828.7195 YYXZ=           -155.9807 ZZXY=           -194.3646
 N-N= 1.229642852381D+04 E-N=-3.407371129016D+04  KE= 4.028802093560D+03
 Leave Link  601 at Sun Sep 12 17:40:29 2021, MaxMem= 23488102400 cpu:              16.7 elap:               0.8
 (Enter /sw/apps/gaussian-16.0/g16/l9999.exe)
 1\1\GINC-BP1-COMPUTE00091\SP\RCAM-B3LYP TD-FC\def2SVP\C68H72Mg2N8O8\OF
 15641\12-Sep-2021\0\\#p cam-b3lyp/Def2SVP td=(nstates=5)\\TDDFT excite
 d states in gaussian\\0,1\Mg,0,0.,0.,0.\C,0,-0.217,-2.218,2.801\C,0,-1
 .255,2.442,2.026\C,0,-0.245,1.85,-2.564\C,0,0.146,-2.824,-2.037\N,0,-0
 .617,-0.009,2.126\C,0,-0.594,-0.908,3.105\C,0,-0.936,-0.309,4.502\C,0,
 -1.773,0.964,4.032\C,0,-1.155,1.168,2.66\C,0,-3.263,0.685,3.863\C,0,0.
 345,0.11,5.299\C,0,0.124,0.397,6.787\H,0,1.168,0.033,7.733\N,0,-0.185,
 1.961,-0.152\C,0,-0.703,2.8,0.777\C,0,-0.62,4.156,0.193\C,0,-0.187,4.0
 15,-1.225\C,0,-0.214,2.583,-1.38\C,0,-0.887,5.406,0.974\C,0,0.181,5.01
 3,-2.277\O,0,0.303,4.69,-3.508\C,0,0.31,6.414,-1.837\N,0,-0.265,-0.413
 ,-2.029\C,0,-0.279,0.569,-2.937\C,0,-0.196,0.024,-4.332\C,0,0.124,-1.5
 33,-4.18\C,0,0.086,-1.632,-2.635\C,0,-1.451,0.205,-5.197\C,0,1.373,-2.
 07,-4.923\C,0,2.626,-1.49,-4.306\N,0,0.15,-2.144,0.303\C,0,0.173,-3.13
 6,-0.688\C,0,0.173,-4.438,0.004\C,0,0.133,-4.111,1.358\C,0,0.083,-2.69
 5,1.502\C,0,0.149,-5.715,-0.623\C,0,0.096,-4.629,2.716\O,0,0.208,-5.74
 7,3.221\C,0,-0.255,-3.428,3.701\C,0,0.717,-3.482,4.848\O,0,1.931,-3.25
 5,4.669\O,0,0.038,-3.556,6.003\C,0,0.943,-3.583,7.183\H,0,-1.859,3.22,
 2.497\H,0,-0.218,2.453,-3.474\H,0,0.276,-3.747,-2.605\H,0,-1.554,-0.94
 9,5.132\H,0,-1.585,1.831,4.665\H,0,-3.484,-0.377,3.969\H,0,-3.511,1.02
 7,2.858\H,0,-3.852,1.301,4.543\H,0,0.669,1.096,4.966\H,0,1.13,-0.639,5
 .189\H,0,-0.844,0.026,7.125\H,0,0.062,1.477,6.921\H,0,-1.344,5.186,1.9
 38\H,0,-1.651,5.963,0.432\H,0,0.007,6.02,1.084\H,0,-0.635,6.744,-1.405
 \H,0,0.665,6.97,-2.704\H,0,1.048,6.466,-1.036\H,0,0.608,0.501,-4.891\H
 ,0,-0.692,-2.156,-4.547\H,0,-1.267,0.74,-6.129\H,0,-2.204,0.714,-4.596
 \H,0,-1.967,-0.72,-5.453\H,0,1.356,-1.759,-5.967\H,0,1.452,-3.157,-4.9
 02\H,0,2.714,-0.522,-4.798\H,0,3.487,-2.121,-4.529\H,0,2.495,-1.303,-3
 .24\H,0,0.867,-6.333,-0.084\H,0,0.404,-5.642,-1.68\H,0,-0.891,-5.999,-
 0.463\H,0,-1.283,-3.581,4.028\H,0,0.698,-4.478,7.755\H,0,0.833,-2.619,
 7.68\H,0,2.,-3.754,6.976\Mg,0,31.54166,2.84348,2.3981\C,0,32.60834,0.7
 1185,5.0809\C,0,31.52498,5.41087,4.64372\C,0,30.17466,4.64781,0.17479\
 C,0,30.5555,-0.03073,0.69159\N,0,32.02463,2.92584,4.555\C,0,32.47804,2
 .06572,5.45441\C,0,32.88674,2.70618,6.80805\C,0,31.97616,4.02687,6.733
 86\C,0,31.85836,4.15763,5.21672\C,0,30.58218,3.82967,7.30593\C,0,34.41
 358,3.06356,6.86339\C,0,34.94407,3.40469,8.25765\H,0,36.30438,3.00104,
 8.60277\N,0,31.39787,4.81773,2.25594\C,0,31.43371,5.71111,3.26681\C,0,
 31.2662,7.03242,2.64213\C,0,30.96361,6.83386,1.19862\C,0,30.80973,5.39
 348,1.15725\C,0,31.47396,8.31786,3.38907\C,0,30.82192,7.78439,0.04857\
 O,0,30.32144,7.41541,-1.07223\C,0,31.19971,9.18225,0.30303\N,0,30.3223
 8,2.39808,0.77412\C,0,29.90877,3.36367,-0.06521\C,0,29.2779,2.77556,-1
 .30478\C,0,29.57296,1.20539,-1.23336\C,0,30.2769,1.14239,0.13992\C,0,2
 7.7744,3.00412,-1.45844\C,0,30.28321,0.56635,-2.45804\C,0,31.69935,1.0
 8509,-2.56202\N,0,31.72953,0.71265,2.70198\C,0,31.22135,-0.31468,1.877
 09\C,0,31.50099,-1.59658,2.55602\C,0,32.137,-1.22186,3.74915\C,0,32.22
 796,0.19459,3.81896\C,0,31.13131,-2.88689,2.08213\C,0,32.74259,-1.7020
 2,4.97039\O,0,33.02896,-2.81068,5.4205\C,0,32.9614,-0.46626,5.94579\C,
 0,34.36298,-0.54361,6.48627\O,0,35.34058,-0.41003,5.72926\O,0,34.31725
 ,-0.5446,7.83099\C,0,35.68405,-0.60908,8.41367\H,0,31.26724,6.23414,5.
 31056\H,0,29.78327,5.2181,-0.67083\H,0,30.3672,-0.9764,0.17883\H,0,32.
 62601,2.12347,7.6834\H,0,32.49294,4.88693,7.15172\H,0,30.39376,2.79745
 ,7.5612\H,0,29.89837,4.15961,6.53484\H,0,30.42494,4.50052,8.15538\H,0,
 34.57455,4.02581,6.3605\H,0,35.00455,2.27799,6.43414\H,0,34.24353,3.11
 043,9.0486\H,0,35.00893,4.49174,8.34787\H,0,31.52568,8.15003,4.47192\H
 ,0,30.5684,8.91832,3.25022\H,0,32.33298,8.8839,3.02253\H,0,30.59844,9.
 57603,1.11905\H,0,31.11471,9.68802,-0.66074\H,0,32.24213,9.2072,0.6397
 1\H,0,29.73529,3.17871,-2.19996\H,0,28.64623,0.62056,-1.13857\H,0,27.5
 0446,3.51193,-2.40361\H,0,27.42719,3.57496,-0.60748\H,0,27.16229,2.105
 78,-1.39929\H,0,29.77787,0.85608,-3.38262\H,0,30.30351,-0.51795,-2.428
 3\H,0,31.57529,2.03814,-3.08489\H,0,32.31793,0.3978,-3.13563\H,0,32.11
 196,1.30441,-1.5704\H,0,31.98438,-3.53308,2.24094\H,0,30.84341,-2.8578
 ,1.03331\H,0,30.28069,-3.09834,2.73558\H,0,32.21331,-0.53644,6.73636\H
 ,0,35.70521,-1.47406,9.08379\H,0,35.86261,0.38398,8.86723\H,0,36.50403
 ,-0.84033,7.74389\\Version=ES64L-G16RevA.03\State=1-A\HF=-4069.8117607
 \RMSD=4.486e-09\PG=C01 [X(C68H72Mg2N8O8)]\\@


 THERE'S NOTHING WRONG WITH FOLLOWING A TRAIN OF THOUGHT...
 AS LONG AS IT ULTIMATELY PULLS INTO THE STATION.
 Job cpu time:       0 days 10 hours 19 minutes  5.1 seconds.
 Elapsed time:       0 days  0 hours 26 minutes 23.8 seconds.
 File lengths (MBytes):  RWF=  13225 Int=      0 D2E=      0 Chk=    574 Scr=      1
 Normal termination of Gaussian 16 at Sun Sep 12 17:40:30 2021.
