 Entering Gaussian System, Link 0=g16
 Initial command:
 /sw/apps/gaussian-16.0/g16/l1.exe "/tmp/Gau-30365.inp" -scrdir="/tmp/"
 Entering Link 1 = /sw/apps/gaussian-16.0/g16/l1.exe PID=     30366.
  
 Copyright (c) 1988,1990,1992,1993,1995,1998,2003,2009,2016,
            Gaussian, Inc.  All Rights Reserved.
  
 This is part of the Gaussian(R) 16 program.  It is based on
 the Gaussian(R) 09 system (copyright 2009, Gaussian, Inc.),
 the Gaussian(R) 03 system (copyright 2003, Gaussian, Inc.),
 the Gaussian(R) 98 system (copyright 1998, Gaussian, Inc.),
 the Gaussian(R) 94 system (copyright 1995, Gaussian, Inc.),
 the Gaussian 92(TM) system (copyright 1992, Gaussian, Inc.),
 the Gaussian 90(TM) system (copyright 1990, Gaussian, Inc.),
 the Gaussian 88(TM) system (copyright 1988, Gaussian, Inc.),
 the Gaussian 86(TM) system (copyright 1986, Carnegie Mellon
 University), and the Gaussian 82(TM) system (copyright 1983,
 Carnegie Mellon University). Gaussian is a federally registered
 trademark of Gaussian, Inc.
  
 This software contains proprietary and confidential information,
 including trade secrets, belonging to Gaussian, Inc.
  
 This software is provided under written license and may be
 used, copied, transmitted, or stored only in accord with that
 written license.
  
 The following legend is applicable only to US Government
 contracts under FAR:
  
                    RESTRICTED RIGHTS LEGEND
  
 Use, reproduction and disclosure by the US Government is
 subject to restrictions as set forth in subparagraphs (a)
 and (c) of the Commercial Computer Software - Restricted
 Rights clause in FAR 52.227-19.
  
 Gaussian, Inc.
 340 Quinnipiac St., Bldg. 40, Wallingford CT 06492
  
  
 ---------------------------------------------------------------
 Warning -- This program may not be used in any manner that
 competes with the business of Gaussian, Inc. or will provide
 assistance to any competitor of Gaussian, Inc.  The licensee
 of this program is prohibited from giving any competitor of
 Gaussian, Inc. access to this program.  By using this program,
 the user acknowledges that Gaussian, Inc. is engaged in the
 business of creating and licensing software in the field of
 computational chemistry and represents and warrants to the
 licensee that it is not a competitor of Gaussian, Inc. and that
 it will not use this program in any manner prohibited above.
 ---------------------------------------------------------------
  

 Cite this work as:
 Gaussian 16, Revision A.03,
 M. J. Frisch, G. W. Trucks, H. B. Schlegel, G. E. Scuseria, 
 M. A. Robb, J. R. Cheeseman, G. Scalmani, V. Barone, 
 G. A. Petersson, H. Nakatsuji, X. Li, M. Caricato, A. V. Marenich, 
 J. Bloino, B. G. Janesko, R. Gomperts, B. Mennucci, H. P. Hratchian, 
 J. V. Ortiz, A. F. Izmaylov, J. L. Sonnenberg, D. Williams-Young, 
 F. Ding, F. Lipparini, F. Egidi, J. Goings, B. Peng, A. Petrone, 
 T. Henderson, D. Ranasinghe, V. G. Zakrzewski, J. Gao, N. Rega, 
 G. Zheng, W. Liang, M. Hada, M. Ehara, K. Toyota, R. Fukuda, 
 J. Hasegawa, M. Ishida, T. Nakajima, Y. Honda, O. Kitao, H. Nakai, 
 T. Vreven, K. Throssell, J. A. Montgomery, Jr., J. E. Peralta, 
 F. Ogliaro, M. J. Bearpark, J. J. Heyd, E. N. Brothers, K. N. Kudin, 
 V. N. Staroverov, T. A. Keith, R. Kobayashi, J. Normand, 
 K. Raghavachari, A. P. Rendell, J. C. Burant, S. S. Iyengar, 
 J. Tomasi, M. Cossi, J. M. Millam, M. Klene, C. Adamo, R. Cammi, 
 J. W. Ochterski, R. L. Martin, K. Morokuma, O. Farkas, 
 J. B. Foresman, and D. J. Fox, Gaussian, Inc., Wallingford CT, 2016.
 
 ******************************************
 Gaussian 16:  ES64L-G16RevA.03 25-Dec-2016
                 9-Sep-2021 
 ******************************************
 %nproc=24
 Will use up to   24 processors via shared memory.
 %mem=175gb
 -----------------------------------
 #p cam-b3lyp/Def2SVP td=(nstates=5)
 -----------------------------------
 1/38=1,172=1/1;
 2/12=2,17=6,18=5,40=1/2;
 3/5=43,7=101,11=9,25=1,30=1,74=-40/1,2,3,8;
 4//1;
 5/5=2,38=5/2;
 8/6=1,10=1,108=5/1;
 9/41=5,42=1,70=2/14;
 6/7=2,8=2,9=2,10=2/1;
 99/5=1,9=1/99;
 Leave Link    1 at Thu Sep  9 14:12:48 2021, MaxMem= 23488102400 cpu:               0.9 elap:               0.0
 (Enter /sw/apps/gaussian-16.0/g16/l101.exe)
 --------------------------------
 TDDFT excited states in gaussian
 --------------------------------
 Symbolic Z-matrix:
 Charge =  0 Multiplicity = 1
 Mg                    0.        0.        0. 
 C                    -0.217    -2.218     2.801 
 C                    -1.255     2.442     2.026 
 C                    -0.245     1.85     -2.564 
 C                     0.146    -2.824    -2.037 
 N                    -0.617    -0.009     2.126 
 C                    -0.594    -0.908     3.105 
 C                    -0.936    -0.309     4.502 
 C                    -1.773     0.964     4.032 
 C                    -1.155     1.168     2.66 
 C                    -3.263     0.685     3.863 
 C                     0.345     0.11      5.299 
 C                     0.124     0.397     6.787 
 H                     1.168     0.033     7.733 
 N                    -0.185     1.961    -0.152 
 C                    -0.703     2.8       0.777 
 C                    -0.62      4.156     0.193 
 C                    -0.187     4.015    -1.225 
 C                    -0.214     2.583    -1.38 
 C                    -0.887     5.406     0.974 
 C                     0.181     5.013    -2.277 
 O                     0.303     4.69     -3.508 
 C                     0.31      6.414    -1.837 
 N                    -0.265    -0.413    -2.029 
 C                    -0.279     0.569    -2.937 
 C                    -0.196     0.024    -4.332 
 C                     0.124    -1.533    -4.18 
 C                     0.086    -1.632    -2.635 
 C                    -1.451     0.205    -5.197 
 C                     1.373    -2.07     -4.923 
 C                     2.626    -1.49     -4.306 
 N                     0.15     -2.144     0.303 
 C                     0.173    -3.136    -0.688 
 C                     0.173    -4.438     0.004 
 C                     0.133    -4.111     1.358 
 C                     0.083    -2.695     1.502 
 C                     0.149    -5.715    -0.623 
 C                     0.096    -4.629     2.716 
 O                     0.208    -5.747     3.221 
 C                    -0.255    -3.428     3.701 
 C                     0.717    -3.482     4.848 
 O                     1.931    -3.255     4.669 
 O                     0.038    -3.556     6.003 
 C                     0.943    -3.583     7.183 
 H                    -1.859     3.22      2.497 
 H                    -0.218     2.453    -3.474 
 H                     0.276    -3.747    -2.605 
 H                    -1.554    -0.949     5.132 
 H                    -1.585     1.831     4.665 
 H                    -3.484    -0.377     3.969 
 H                    -3.511     1.027     2.858 
 H                    -3.852     1.301     4.543 
 H                     0.669     1.096     4.966 
 H                     1.13     -0.639     5.189 
 H                    -0.844     0.026     7.125 
 H                     0.062     1.477     6.921 
 H                    -1.344     5.186     1.938 
 H                    -1.651     5.963     0.432 
 H                     0.007     6.02      1.084 
 H                    -0.635     6.744    -1.405 
 H                     0.665     6.97     -2.704 
 H                     1.048     6.466    -1.036 
 H                     0.608     0.501    -4.891 
 H                    -0.692    -2.156    -4.547 
 H                    -1.267     0.74     -6.129 
 H                    -2.204     0.714    -4.596 
 H                    -1.967    -0.72     -5.453 
 H                     1.356    -1.759    -5.967 
 H                     1.452    -3.157    -4.902 
 H                     2.714    -0.522    -4.798 
 H                     3.487    -2.121    -4.529 
 H                     2.495    -1.303    -3.24 
 H                     0.867    -6.333    -0.084 
 H                     0.404    -5.642    -1.68 
 H                    -0.891    -5.999    -0.463 
 H                    -1.283    -3.581     4.028 
 H                     0.698    -4.478     7.755 
 H                     0.833    -2.619     7.68 
 H                     2.       -3.754     6.976 
 Mg                    8.92581   0.80689   0.6846 
 C                     10.47462   2.80315   3.23317 
 C                     7.88497  -1.2877    3.16732 
 C                     7.94006  -1.20513  -1.56206 
 C                     11.01052   2.38229  -1.62144 
 N                     9.20578   0.85815   2.87805 
 C                     9.75939   1.69803   3.73972 
 C                     9.46577   1.37712   5.22982 
 C                     9.1586   -0.19215   5.08184 
 C                     8.68535  -0.21272   3.62985 
 C                     10.40022  -1.06142   5.19187 
 C                     8.21848   2.15768   5.77481 
 C                     8.0584    2.13217   7.29648 
 H                     7.52639   3.31905   7.96037 
 N                     7.64201  -0.70309   0.78643 
 C                     7.32206  -1.42682   1.87965 
 C                     6.34876  -2.43225   1.42583 
 C                     6.24469  -2.34883  -0.05637 
 C                     7.31025  -1.4094   -0.34298 
 C                     5.56762  -3.29472   2.3742 
 C                     5.34458  -3.01527  -1.05229 
 O                     5.58699  -2.97696  -2.31031 
 C                     4.22301  -3.79252  -0.50508 
 N                     9.54745   0.45999  -1.26875 
 C                     8.91415  -0.43497  -2.04716 
 C                     9.35592  -0.31545  -3.48624 
 C                     10.24325   1.0133   -3.55431 
 C                     10.23424   1.40049  -2.05919 
 C                     10.16085  -1.4933   -4.03502 
 C                     9.82615   2.0854   -4.59801 
 C                     8.49504   2.68991  -4.21319 
 N                     10.33552   2.44366   0.72658 
 C                     11.11923   2.92214  -0.34624 
 C                     12.00736   3.97028   0.19695 
 C                     11.69243   4.01315   1.56351 
 C                     10.69387   3.04509   1.85544 
 C                     12.98363   4.69772  -0.5405 
 C                     11.98524   4.64988   2.82745 
 O                     12.68164   5.60077   3.18038 
 C                     11.30014   3.80759   3.9883 
 C                     10.57929   4.76711   4.89507 
 O                     9.60301   5.41635   4.48039 
 O                     11.02148   4.59964   6.15474 
 C                     10.32809   5.52177   7.0932 
 H                     7.70392  -2.12657   3.83993 
 H                     7.55761  -1.7987   -2.39566 
 H                     11.62016   2.9888   -2.29462 
 H                     10.30234   1.53059   5.90092 
 H                     8.35801  -0.50248   5.74825 
 H                     11.30322  -0.47066   5.23357 
 H                     10.39903  -1.68897   4.31027 
 H                     10.31087  -1.74004   6.04499 
 H                     7.30557   1.6239    5.48087 
 H                     8.2235    3.17306   5.42896 
 H                     8.96834   1.78504   7.80091 
 H                     7.30658   1.38212   7.55378 
 H                     5.97751  -3.24836   3.39068 
 H                     5.72495  -4.33373   2.06502 
 H                     4.49726  -3.07872   2.35574 
 H                     4.60832  -4.5713    0.14875 
 H                     3.64299  -4.11788  -1.37087 
 H                     3.61108  -3.13181   0.11912 
 H                     8.5032   -0.20268  -4.14445 
 H                     11.28863   0.79224  -3.81538 
 H                     9.70896  -1.94852  -4.93649 
 H                     10.26686  -2.22976  -3.24958 
 H                     11.19694  -1.26907  -4.28286 
 H                     9.6858    1.6246   -5.57888 
 H                     10.55575   2.87951  -4.71669 
 H                     7.77308   1.96984  -4.6099 
 H                     8.37093   3.66788  -4.67386 
 H                     8.37332   2.71274  -3.12401 
 H                     12.89851   5.73182  -0.23407 
 H                     12.8362   4.58657  -1.61273 
 H                     13.89597   4.20211  -0.19804 
 H                     12.09009   3.26611   4.51017 
 H                     11.10431   6.09284   7.6119 
 H                     9.67481   4.8804    7.71417 
 H                     9.731     6.31786   6.66405 
 
 ITRead=  0  0  0  0  0  0  0  0  0  0  0  0  0  0  0  0  0  0  0  0
 ITRead=  0  0  0  0  0  0  0  0  0  0  0  0  0  0  0  0  0  0  0  0
 ITRead=  0  0  0  0  0  0  0  0  0  0  0  0  0  0  0  0  0  0  0  0
 ITRead=  0  0  0  0  0  0  0  0  0  0  0  0  0  0  0  0  0  0  0  0
 ITRead=  0  0  0  0  0  0  0  0  0  0  0  0  0  0  0  0  0  0  0  0
 ITRead=  0  0  0  0  0  0  0  0  0  0  0  0  0  0  0  0  0  0  0  0
 ITRead=  0  0  0  0  0  0  0  0  0  0  0  0  0  0  0  0  0  0  0  0
 ITRead=  0  0  0  0  0  0  0  0  0  0  0  0  0  0  0  0  0  0
 MicOpt= -1 -1 -1 -1 -1 -1 -1 -1 -1 -1 -1 -1 -1 -1 -1 -1 -1 -1 -1 -1
 MicOpt= -1 -1 -1 -1 -1 -1 -1 -1 -1 -1 -1 -1 -1 -1 -1 -1 -1 -1 -1 -1
 MicOpt= -1 -1 -1 -1 -1 -1 -1 -1 -1 -1 -1 -1 -1 -1 -1 -1 -1 -1 -1 -1
 MicOpt= -1 -1 -1 -1 -1 -1 -1 -1 -1 -1 -1 -1 -1 -1 -1 -1 -1 -1 -1 -1
 MicOpt= -1 -1 -1 -1 -1 -1 -1 -1 -1 -1 -1 -1 -1 -1 -1 -1 -1 -1 -1 -1
 MicOpt= -1 -1 -1 -1 -1 -1 -1 -1 -1 -1 -1 -1 -1 -1 -1 -1 -1 -1 -1 -1
 MicOpt= -1 -1 -1 -1 -1 -1 -1 -1 -1 -1 -1 -1 -1 -1 -1 -1 -1 -1 -1 -1
 MicOpt= -1 -1 -1 -1 -1 -1 -1 -1 -1 -1 -1 -1 -1 -1 -1 -1 -1 -1
 NAtoms=    158 NQM=      158 NQMF=       0 NMMI=      0 NMMIF=      0
                NMic=       0 NMicF=      0.
                    Isotopes and Nuclear Properties:
 (Nuclear quadrupole moments (NQMom) in fm**2, nuclear magnetic moments (NMagM)
  in nuclear magnetons)

  Atom         1           2           3           4           5           6           7           8           9          10
 IAtWgt=          24          12          12          12          12          14          12          12          12          12
 AtmWgt=  23.9850450  12.0000000  12.0000000  12.0000000  12.0000000  14.0030740  12.0000000  12.0000000  12.0000000  12.0000000
 NucSpn=           0           0           0           0           0           2           0           0           0           0
 AtZEff=  -0.0000000  -0.0000000  -0.0000000  -0.0000000  -0.0000000  -0.0000000  -0.0000000  -0.0000000  -0.0000000  -0.0000000
 NQMom=    0.0000000   0.0000000   0.0000000   0.0000000   0.0000000   2.0440000   0.0000000   0.0000000   0.0000000   0.0000000
 NMagM=    0.0000000   0.0000000   0.0000000   0.0000000   0.0000000   0.4037610   0.0000000   0.0000000   0.0000000   0.0000000
 AtZNuc=  12.0000000   6.0000000   6.0000000   6.0000000   6.0000000   7.0000000   6.0000000   6.0000000   6.0000000   6.0000000

  Atom        11          12          13          14          15          16          17          18          19          20
 IAtWgt=          12          12          12           1          14          12          12          12          12          12
 AtmWgt=  12.0000000  12.0000000  12.0000000   1.0078250  14.0030740  12.0000000  12.0000000  12.0000000  12.0000000  12.0000000
 NucSpn=           0           0           0           1           2           0           0           0           0           0
 AtZEff=  -0.0000000  -0.0000000  -0.0000000  -0.0000000  -0.0000000  -0.0000000  -0.0000000  -0.0000000  -0.0000000  -0.0000000
 NQMom=    0.0000000   0.0000000   0.0000000   0.0000000   2.0440000   0.0000000   0.0000000   0.0000000   0.0000000   0.0000000
 NMagM=    0.0000000   0.0000000   0.0000000   2.7928460   0.4037610   0.0000000   0.0000000   0.0000000   0.0000000   0.0000000
 AtZNuc=   6.0000000   6.0000000   6.0000000   1.0000000   7.0000000   6.0000000   6.0000000   6.0000000   6.0000000   6.0000000

  Atom        21          22          23          24          25          26          27          28          29          30
 IAtWgt=          12          16          12          14          12          12          12          12          12          12
 AtmWgt=  12.0000000  15.9949146  12.0000000  14.0030740  12.0000000  12.0000000  12.0000000  12.0000000  12.0000000  12.0000000
 NucSpn=           0           0           0           2           0           0           0           0           0           0
 AtZEff=  -0.0000000  -0.0000000  -0.0000000  -0.0000000  -0.0000000  -0.0000000  -0.0000000  -0.0000000  -0.0000000  -0.0000000
 NQMom=    0.0000000   0.0000000   0.0000000   2.0440000   0.0000000   0.0000000   0.0000000   0.0000000   0.0000000   0.0000000
 NMagM=    0.0000000   0.0000000   0.0000000   0.4037610   0.0000000   0.0000000   0.0000000   0.0000000   0.0000000   0.0000000
 AtZNuc=   6.0000000   8.0000000   6.0000000   7.0000000   6.0000000   6.0000000   6.0000000   6.0000000   6.0000000   6.0000000

  Atom        31          32          33          34          35          36          37          38          39          40
 IAtWgt=          12          14          12          12          12          12          12          12          16          12
 AtmWgt=  12.0000000  14.0030740  12.0000000  12.0000000  12.0000000  12.0000000  12.0000000  12.0000000  15.9949146  12.0000000
 NucSpn=           0           2           0           0           0           0           0           0           0           0
 AtZEff=  -0.0000000  -0.0000000  -0.0000000  -0.0000000  -0.0000000  -0.0000000  -0.0000000  -0.0000000  -0.0000000  -0.0000000
 NQMom=    0.0000000   2.0440000   0.0000000   0.0000000   0.0000000   0.0000000   0.0000000   0.0000000   0.0000000   0.0000000
 NMagM=    0.0000000   0.4037610   0.0000000   0.0000000   0.0000000   0.0000000   0.0000000   0.0000000   0.0000000   0.0000000
 AtZNuc=   6.0000000   7.0000000   6.0000000   6.0000000   6.0000000   6.0000000   6.0000000   6.0000000   8.0000000   6.0000000

  Atom        41          42          43          44          45          46          47          48          49          50
 IAtWgt=          12          16          16          12           1           1           1           1           1           1
 AtmWgt=  12.0000000  15.9949146  15.9949146  12.0000000   1.0078250   1.0078250   1.0078250   1.0078250   1.0078250   1.0078250
 NucSpn=           0           0           0           0           1           1           1           1           1           1
 AtZEff=  -0.0000000  -0.0000000  -0.0000000  -0.0000000  -0.0000000  -0.0000000  -0.0000000  -0.0000000  -0.0000000  -0.0000000
 NQMom=    0.0000000   0.0000000   0.0000000   0.0000000   0.0000000   0.0000000   0.0000000   0.0000000   0.0000000   0.0000000
 NMagM=    0.0000000   0.0000000   0.0000000   0.0000000   2.7928460   2.7928460   2.7928460   2.7928460   2.7928460   2.7928460
 AtZNuc=   6.0000000   8.0000000   8.0000000   6.0000000   1.0000000   1.0000000   1.0000000   1.0000000   1.0000000   1.0000000

  Atom        51          52          53          54          55          56          57          58          59          60
 IAtWgt=           1           1           1           1           1           1           1           1           1           1
 AtmWgt=   1.0078250   1.0078250   1.0078250   1.0078250   1.0078250   1.0078250   1.0078250   1.0078250   1.0078250   1.0078250
 NucSpn=           1           1           1           1           1           1           1           1           1           1
 AtZEff=  -0.0000000  -0.0000000  -0.0000000  -0.0000000  -0.0000000  -0.0000000  -0.0000000  -0.0000000  -0.0000000  -0.0000000
 NQMom=    0.0000000   0.0000000   0.0000000   0.0000000   0.0000000   0.0000000   0.0000000   0.0000000   0.0000000   0.0000000
 NMagM=    2.7928460   2.7928460   2.7928460   2.7928460   2.7928460   2.7928460   2.7928460   2.7928460   2.7928460   2.7928460
 AtZNuc=   1.0000000   1.0000000   1.0000000   1.0000000   1.0000000   1.0000000   1.0000000   1.0000000   1.0000000   1.0000000

  Atom        61          62          63          64          65          66          67          68          69          70
 IAtWgt=           1           1           1           1           1           1           1           1           1           1
 AtmWgt=   1.0078250   1.0078250   1.0078250   1.0078250   1.0078250   1.0078250   1.0078250   1.0078250   1.0078250   1.0078250
 NucSpn=           1           1           1           1           1           1           1           1           1           1
 AtZEff=  -0.0000000  -0.0000000  -0.0000000  -0.0000000  -0.0000000  -0.0000000  -0.0000000  -0.0000000  -0.0000000  -0.0000000
 NQMom=    0.0000000   0.0000000   0.0000000   0.0000000   0.0000000   0.0000000   0.0000000   0.0000000   0.0000000   0.0000000
 NMagM=    2.7928460   2.7928460   2.7928460   2.7928460   2.7928460   2.7928460   2.7928460   2.7928460   2.7928460   2.7928460
 AtZNuc=   1.0000000   1.0000000   1.0000000   1.0000000   1.0000000   1.0000000   1.0000000   1.0000000   1.0000000   1.0000000

  Atom        71          72          73          74          75          76          77          78          79          80
 IAtWgt=           1           1           1           1           1           1           1           1           1          24
 AtmWgt=   1.0078250   1.0078250   1.0078250   1.0078250   1.0078250   1.0078250   1.0078250   1.0078250   1.0078250  23.9850450
 NucSpn=           1           1           1           1           1           1           1           1           1           0
 AtZEff=  -0.0000000  -0.0000000  -0.0000000  -0.0000000  -0.0000000  -0.0000000  -0.0000000  -0.0000000  -0.0000000  -0.0000000
 NQMom=    0.0000000   0.0000000   0.0000000   0.0000000   0.0000000   0.0000000   0.0000000   0.0000000   0.0000000   0.0000000
 NMagM=    2.7928460   2.7928460   2.7928460   2.7928460   2.7928460   2.7928460   2.7928460   2.7928460   2.7928460   0.0000000
 AtZNuc=   1.0000000   1.0000000   1.0000000   1.0000000   1.0000000   1.0000000   1.0000000   1.0000000   1.0000000  12.0000000

  Atom        81          82          83          84          85          86          87          88          89          90
 IAtWgt=          12          12          12          12          14          12          12          12          12          12
 AtmWgt=  12.0000000  12.0000000  12.0000000  12.0000000  14.0030740  12.0000000  12.0000000  12.0000000  12.0000000  12.0000000
 NucSpn=           0           0           0           0           2           0           0           0           0           0
 AtZEff=  -0.0000000  -0.0000000  -0.0000000  -0.0000000  -0.0000000  -0.0000000  -0.0000000  -0.0000000  -0.0000000  -0.0000000
 NQMom=    0.0000000   0.0000000   0.0000000   0.0000000   2.0440000   0.0000000   0.0000000   0.0000000   0.0000000   0.0000000
 NMagM=    0.0000000   0.0000000   0.0000000   0.0000000   0.4037610   0.0000000   0.0000000   0.0000000   0.0000000   0.0000000
 AtZNuc=   6.0000000   6.0000000   6.0000000   6.0000000   7.0000000   6.0000000   6.0000000   6.0000000   6.0000000   6.0000000

  Atom        91          92          93          94          95          96          97          98          99         100
 IAtWgt=          12          12           1          14          12          12          12          12          12          12
 AtmWgt=  12.0000000  12.0000000   1.0078250  14.0030740  12.0000000  12.0000000  12.0000000  12.0000000  12.0000000  12.0000000
 NucSpn=           0           0           1           2           0           0           0           0           0           0
 AtZEff=  -0.0000000  -0.0000000  -0.0000000  -0.0000000  -0.0000000  -0.0000000  -0.0000000  -0.0000000  -0.0000000  -0.0000000
 NQMom=    0.0000000   0.0000000   0.0000000   2.0440000   0.0000000   0.0000000   0.0000000   0.0000000   0.0000000   0.0000000
 NMagM=    0.0000000   0.0000000   2.7928460   0.4037610   0.0000000   0.0000000   0.0000000   0.0000000   0.0000000   0.0000000
 AtZNuc=   6.0000000   6.0000000   1.0000000   7.0000000   6.0000000   6.0000000   6.0000000   6.0000000   6.0000000   6.0000000

  Atom       101         102         103         104         105         106         107         108         109         110
 IAtWgt=          16          12          14          12          12          12          12          12          12          12
 AtmWgt=  15.9949146  12.0000000  14.0030740  12.0000000  12.0000000  12.0000000  12.0000000  12.0000000  12.0000000  12.0000000
 NucSpn=           0           0           2           0           0           0           0           0           0           0
 AtZEff=  -0.0000000  -0.0000000  -0.0000000  -0.0000000  -0.0000000  -0.0000000  -0.0000000  -0.0000000  -0.0000000  -0.0000000
 NQMom=    0.0000000   0.0000000   2.0440000   0.0000000   0.0000000   0.0000000   0.0000000   0.0000000   0.0000000   0.0000000
 NMagM=    0.0000000   0.0000000   0.4037610   0.0000000   0.0000000   0.0000000   0.0000000   0.0000000   0.0000000   0.0000000
 AtZNuc=   8.0000000   6.0000000   7.0000000   6.0000000   6.0000000   6.0000000   6.0000000   6.0000000   6.0000000   6.0000000

  Atom       111         112         113         114         115         116         117         118         119         120
 IAtWgt=          14          12          12          12          12          12          12          16          12          12
 AtmWgt=  14.0030740  12.0000000  12.0000000  12.0000000  12.0000000  12.0000000  12.0000000  15.9949146  12.0000000  12.0000000
 NucSpn=           2           0           0           0           0           0           0           0           0           0
 AtZEff=  -0.0000000  -0.0000000  -0.0000000  -0.0000000  -0.0000000  -0.0000000  -0.0000000  -0.0000000  -0.0000000  -0.0000000
 NQMom=    2.0440000   0.0000000   0.0000000   0.0000000   0.0000000   0.0000000   0.0000000   0.0000000   0.0000000   0.0000000
 NMagM=    0.4037610   0.0000000   0.0000000   0.0000000   0.0000000   0.0000000   0.0000000   0.0000000   0.0000000   0.0000000
 AtZNuc=   7.0000000   6.0000000   6.0000000   6.0000000   6.0000000   6.0000000   6.0000000   8.0000000   6.0000000   6.0000000

  Atom       121         122         123         124         125         126         127         128         129         130
 IAtWgt=          16          16          12           1           1           1           1           1           1           1
 AtmWgt=  15.9949146  15.9949146  12.0000000   1.0078250   1.0078250   1.0078250   1.0078250   1.0078250   1.0078250   1.0078250
 NucSpn=           0           0           0           1           1           1           1           1           1           1
 AtZEff=  -0.0000000  -0.0000000  -0.0000000  -0.0000000  -0.0000000  -0.0000000  -0.0000000  -0.0000000  -0.0000000  -0.0000000
 NQMom=    0.0000000   0.0000000   0.0000000   0.0000000   0.0000000   0.0000000   0.0000000   0.0000000   0.0000000   0.0000000
 NMagM=    0.0000000   0.0000000   0.0000000   2.7928460   2.7928460   2.7928460   2.7928460   2.7928460   2.7928460   2.7928460
 AtZNuc=   8.0000000   8.0000000   6.0000000   1.0000000   1.0000000   1.0000000   1.0000000   1.0000000   1.0000000   1.0000000

  Atom       131         132         133         134         135         136         137         138         139         140
 IAtWgt=           1           1           1           1           1           1           1           1           1           1
 AtmWgt=   1.0078250   1.0078250   1.0078250   1.0078250   1.0078250   1.0078250   1.0078250   1.0078250   1.0078250   1.0078250
 NucSpn=           1           1           1           1           1           1           1           1           1           1
 AtZEff=  -0.0000000  -0.0000000  -0.0000000  -0.0000000  -0.0000000  -0.0000000  -0.0000000  -0.0000000  -0.0000000  -0.0000000
 NQMom=    0.0000000   0.0000000   0.0000000   0.0000000   0.0000000   0.0000000   0.0000000   0.0000000   0.0000000   0.0000000
 NMagM=    2.7928460   2.7928460   2.7928460   2.7928460   2.7928460   2.7928460   2.7928460   2.7928460   2.7928460   2.7928460
 AtZNuc=   1.0000000   1.0000000   1.0000000   1.0000000   1.0000000   1.0000000   1.0000000   1.0000000   1.0000000   1.0000000

  Atom       141         142         143         144         145         146         147         148         149         150
 IAtWgt=           1           1           1           1           1           1           1           1           1           1
 AtmWgt=   1.0078250   1.0078250   1.0078250   1.0078250   1.0078250   1.0078250   1.0078250   1.0078250   1.0078250   1.0078250
 NucSpn=           1           1           1           1           1           1           1           1           1           1
 AtZEff=  -0.0000000  -0.0000000  -0.0000000  -0.0000000  -0.0000000  -0.0000000  -0.0000000  -0.0000000  -0.0000000  -0.0000000
 NQMom=    0.0000000   0.0000000   0.0000000   0.0000000   0.0000000   0.0000000   0.0000000   0.0000000   0.0000000   0.0000000
 NMagM=    2.7928460   2.7928460   2.7928460   2.7928460   2.7928460   2.7928460   2.7928460   2.7928460   2.7928460   2.7928460
 AtZNuc=   1.0000000   1.0000000   1.0000000   1.0000000   1.0000000   1.0000000   1.0000000   1.0000000   1.0000000   1.0000000

  Atom       151         152         153         154         155         156         157         158
 IAtWgt=           1           1           1           1           1           1           1           1
 AtmWgt=   1.0078250   1.0078250   1.0078250   1.0078250   1.0078250   1.0078250   1.0078250   1.0078250
 NucSpn=           1           1           1           1           1           1           1           1
 AtZEff=  -0.0000000  -0.0000000  -0.0000000  -0.0000000  -0.0000000  -0.0000000  -0.0000000  -0.0000000
 NQMom=    0.0000000   0.0000000   0.0000000   0.0000000   0.0000000   0.0000000   0.0000000   0.0000000
 NMagM=    2.7928460   2.7928460   2.7928460   2.7928460   2.7928460   2.7928460   2.7928460   2.7928460
 AtZNuc=   1.0000000   1.0000000   1.0000000   1.0000000   1.0000000   1.0000000   1.0000000   1.0000000
 Leave Link  101 at Thu Sep  9 14:12:48 2021, MaxMem= 23488102400 cpu:               3.4 elap:               0.2
 (Enter /sw/apps/gaussian-16.0/g16/l202.exe)
 Stoichiometry    C68H72Mg2N8O8
 Framework group  C1[X(C68H72Mg2N8O8)]
 Deg. of freedom   468
 Full point group                 C1      NOp   1
 Largest Abelian subgroup         C1      NOp   1
 Largest concise Abelian subgroup C1      NOp   1
                         Standard orientation:                         
 ---------------------------------------------------------------------
 Center     Atomic      Atomic             Coordinates (Angstroms)
 Number     Number       Type             X           Y           Z
 ---------------------------------------------------------------------
      1         12           0        4.549704   -0.517767    0.990846
      2          6           0        5.094790    2.447698   -0.938172
      3          6           0        4.772464    1.434793    3.780281
      4          6           0        4.524887   -3.175492    2.720733
      5          6           0        5.492889   -2.344292   -1.823381
      6          7           0        4.890457    1.653236    1.257821
      7          6           0        5.024416    2.689213    0.435642
      8          6           0        5.007144    4.064728    1.167102
      9          6           0        5.473165    3.585908    2.614705
     10          6           0        4.985737    2.148640    2.563741
     11          6           0        6.987409    3.584827    2.797909
     12          6           0        3.576172    4.699147    1.206639
     13          6           0        3.527173    6.176249    1.608039
     14          1           0        2.537820    7.039800    0.981296
     15          7           0        4.155414   -0.795867    2.906582
     16          6           0        4.287188    0.114642    3.901015
     17          6           0        3.870259   -0.573588    5.141656
     18          6           0        3.666659   -2.012810    4.817188
     19          6           0        4.138914   -2.057835    3.456922
     20          6           0        3.658413    0.134986    6.444266
     21          6           0        3.141212   -3.166874    5.611024
     22          8           0        3.264977   -4.376556    5.216150
     23          6           0        2.548620   -2.846702    6.922270
     24          7           0        5.159375   -2.474824    0.596048
     25          6           0        4.983819   -3.447373    1.497332
     26          6           0        5.229983   -4.799535    0.896500
     27          6           0        5.375464   -4.564610   -0.676204
     28          6           0        5.262113   -3.020250   -0.695599
     29          6           0        6.464573   -5.548465    1.416983
     30          6           0        4.439418   -5.384522   -1.599231
     31          6           0        3.007614   -4.937932   -1.405342
     32          7           0        5.014439   -0.072817   -1.082096
     33          6           0        5.404454   -0.985025   -2.073276
     34          6           0        5.714098   -0.201747   -3.283509
     35          6           0        5.497226    1.121674   -2.904871
     36          6           0        5.103960    1.164511   -1.536734
     37          6           0        6.191785   -0.726981   -4.516545
     38          6           0        5.530036    2.511413   -3.330789
     39          8           0        5.700183    3.084497   -4.407877
     40          6           0        5.388782    3.434303   -2.040770
     41          6           0        4.351522    4.481404   -2.342399
     42          8           0        3.154552    4.168012   -2.504918
     43          8           0        4.882939    5.699655   -2.157996
     44          6           0        3.897226    6.784067   -2.412109
     45          1           0        5.057006    1.903717    4.724255
     46          1           0        4.424202   -4.125945    3.248878
     47          1           0        5.711908   -2.852301   -2.764344
     48          1           0        5.711063    4.797938    0.772989
     49          1           0        4.962213    4.131425    3.407839
     50          1           0        7.502387    3.790401    1.859581
     51          1           0        7.236315    2.586380    3.157966
     52          1           0        7.282035    4.271708    3.591739
     53          1           0        3.012697    4.263837    2.031904
     54          1           0        3.069708    4.568608    0.249675
     55          1           0        4.515858    6.634014    1.564873
     56          1           0        3.247026    6.235245    2.659817
     57          1           0        4.045417    1.152760    6.414111
     58          1           0        4.278003   -0.369360    7.185517
     59          1           0        2.615162    0.111063    6.759522
     60          1           0        3.294759   -2.349868    7.542739
     61          1           0        2.146385   -3.783127    7.307192
     62          1           0        1.741322   -2.127916    6.778865
     63          1           0        4.390484   -5.468420    1.081600
     64          1           0        6.377311   -4.802713   -1.034372
     65          1           0        6.238105   -6.531091    1.831547
     66          1           0        6.955705   -4.915989    2.155937
     67          1           0        7.259856   -5.683408    0.684362
     68          1           0        4.483348   -6.442004   -1.340876
     69          1           0        4.687605   -5.290838   -2.656528
     70          1           0        2.691456   -5.506585   -0.531551
     71          1           0        2.406934   -5.196807   -2.277912
     72          1           0        2.952204   -3.881036   -1.143832
     73          1           0        5.634372   -0.216583   -5.301882
     74          1           0        6.050874   -1.806366   -4.568271
     75          1           0        7.243232   -0.445264   -4.462218
     76          1           0        6.370298    3.870869   -1.858671
     77          1           0        4.330951    7.442083   -3.165192
     78          1           0        3.655216    7.216615   -1.441162
     79          1           0        2.971347    6.487771   -2.906372
     80         12           0       -4.224560   -0.772516   -0.942341
     81          6           0       -6.584295    1.457047    0.587291
     82          6           0       -2.899317    1.948633   -2.515119
     83          6           0       -2.428340   -2.756443   -2.646757
     84          6           0       -6.403450   -3.382089   -0.175341
     85          7           0       -4.759158    1.373095   -0.889501
     86          6           0       -5.634739    2.111747   -0.224588
     87          6           0       -5.433201    3.643112   -0.379173
     88          6           0       -4.655320    3.642675   -1.784079
     89          6           0       -4.032755    2.249566   -1.718326
     90          6           0       -5.583718    3.694687   -2.986048
     91          6           0       -4.548756    4.248291    0.766923
     92          6           0       -4.565788    5.776007    0.853802
     93          1           0       -4.494186    6.398997    2.172598
     94          7           0       -2.568431   -0.433762   -1.982068
     95          6           0       -2.175380    0.736170   -2.528009
     96          6           0       -0.900005    0.455664   -3.205424
     97          6           0       -0.654714   -1.011300   -3.154849
     98          6           0       -1.911931   -1.469760   -2.598691
     99          6           0       -0.011857    1.537305   -3.748272
    100          6           0        0.512653   -1.862100   -3.554337
    101          8           0        0.417338   -3.137177   -3.643431
    102          6           0        1.744171   -1.151549   -3.928446
    103          7           0       -4.483154   -2.746249   -1.542225
    104          6           0       -3.525256   -3.390382   -2.231767
    105          6           0       -3.812718   -4.870696   -2.311959
    106          6           0       -5.043014   -5.123674   -1.322040
    107          6           0       -5.323604   -3.667699   -0.889852
    108          6           0       -4.158833   -5.406852   -3.700895
    109          6           0       -4.848062   -6.198087   -0.217364
    110          6           0       -3.812969   -5.730604    0.780341
    111          7           0       -6.054555   -0.990282    0.185381
    112          6           0       -6.815757   -2.167217    0.357087
    113          6           0       -8.033610   -1.792840    1.104820
    114          6           0       -7.906492   -0.408960    1.297743
    115          6           0       -6.704773    0.050340    0.694086
    116          6           0       -9.090568   -2.674264    1.468190
    117          6           0       -8.520856    0.769522    1.865586
    118          8           0       -9.505970    0.981070    2.571646
    119          6           0       -7.754321    2.051131    1.321260
    120          6           0       -7.463940    2.950514    2.491441
    121          8           0       -6.685672    2.586479    3.390536
    122          8           0       -7.978513    4.169742    2.248449
    123          6           0       -7.706616    5.100657    3.375964
    124          1           0       -2.554617    2.696070   -3.230245
    125          1           0       -1.791854   -3.502263   -3.128546
    126          1           0       -7.084423   -4.154851    0.187706
    127          1           0       -6.349184    4.215804   -0.461499
    128          1           0       -3.881394    4.405467   -1.807286
    129          1           0       -6.620623    3.603822   -2.698443
    130          1           0       -5.292579    2.866402   -3.618679
    131          1           0       -5.394753    4.600405   -3.569391
    132          1           0       -3.490304    4.085573    0.526237
    133          1           0       -4.817441    3.829297    1.717126
    134          1           0       -5.382074    6.213215    0.266038
    135          1           0       -3.659008    6.160607    0.380678
    136          1           0       -0.531685    2.502498   -3.787926
    137          1           0        0.186028    1.292079   -4.797363
    138          1           0        0.939321    1.607822   -3.216335
    139          1           0        1.536672   -0.482683   -4.760322
    140          1           0        2.491198   -1.929845   -4.096018
    141          1           0        2.053591   -0.521114   -3.087356
    142          1           0       -2.962643   -5.448751   -1.970908
    143          1           0       -5.936637   -5.468781   -1.862581
    144          1           0       -3.490141   -6.223482   -4.032626
    145          1           0       -4.129731   -4.583151   -4.401749
    146          1           0       -5.178506   -5.770930   -3.814474
    147          1           0       -4.463552   -7.123620   -0.652890
    148          1           0       -5.763047   -6.446207    0.310131
    149          1           0       -2.867682   -6.000208    0.299871
    150          1           0       -3.934858   -6.248126    1.729741
    151          1           0       -3.830702   -4.639443    0.883796
    152          1           0       -9.355052   -2.438477    2.490423
    153          1           0       -8.793452   -3.715691    1.363696
    154          1           0       -9.845910   -2.387028    0.731830
    155          1           0       -8.400801    2.531808    0.586017
    156          1           0       -8.672814    5.497058    3.703098
    157          1           0       -6.967828    5.828463    2.990964
    158          1           0       -7.329757    4.674231    4.298235
 ---------------------------------------------------------------------
 Rotational constants (GHZ):           0.0236056           0.0127788           0.0115173
 Leave Link  202 at Thu Sep  9 14:12:48 2021, MaxMem= 23488102400 cpu:               0.2 elap:               0.0
 (Enter /sw/apps/gaussian-16.0/g16/l301.exe)
 Standard basis: def2SVP (5D, 7F)
 Ernie: Thresh=  0.10000D-02 Tol=  0.10000D-05 Strict=F.
 There are  1658 symmetry adapted cartesian basis functions of A   symmetry.
 There are  1572 symmetry adapted basis functions of A   symmetry.
  1572 basis functions,  2678 primitive gaussians,  1658 cartesian basis functions
   312 alpha electrons      312 beta electrons
       nuclear repulsion energy     15536.0217800380 Hartrees.
 IExCor=20419 DFT=T Ex+Corr=CAM-B3LYP ExCW=0 ScaHFX=  1.000000
 ScaDFX=  1.000000  1.000000  1.000000  0.810000 ScalE2=  1.000000  1.000000
 IRadAn=      5 IRanWt=     -1 IRanGd=            0 ICorTp=0 IEmpDi=  4
 HFx  wShort=  0.000000 wLong=  0.330000 cFull=  0.190000 cShort=  0.000000 cLong=  0.460000
 DFx  wShort=  0.000000 wLong=  0.330000 cFull=  0.190000 cShort=  0.000000 cLong=  0.460000
 NAtoms=  158 NActive=  158 NUniq=  158 SFac= 1.00D+00 NAtFMM=   60 NAOKFM=T Big=T
 Integral buffers will be    131072 words long.
 Raffenetti 1 integral format.
 Two-electron integral symmetry is turned on.
 Leave Link  301 at Thu Sep  9 14:12:48 2021, MaxMem= 23488102400 cpu:               1.3 elap:               0.1
 (Enter /sw/apps/gaussian-16.0/g16/l302.exe)
 NPDir=0 NMtPBC=     1 NCelOv=     1 NCel=       1 NClECP=     1 NCelD=      1
         NCelK=      1 NCelE2=     1 NClLst=     1 CellRange=     0.0.
 One-electron integrals computed using PRISM.
 One-electron integral symmetry used in STVInt
   1 Symmetry operations used in ECPInt.
 ECPInt:  NShTT=  271216 NPrTT=  987664 LenC2=  151218 LenP2D=  317775.
 LDataN:  DoStor=T MaxTD1= 4 Len=   56
 NBasis=  1572 RedAO= T EigKep=  3.32D-04  NBF=  1572
 NBsUse=  1572 1.00D-06 EigRej= -1.00D+00 NBFU=  1572
 Precomputing XC quadrature grid using
 IXCGrd= 4 IRadAn=           5 IRanWt=          -1 IRanGd=           0 AccXCQ= 0.00D+00.
 Generated NRdTot=       0 NPtTot=           0 NUsed=           0 NTot=          32
 NSgBfM=  1378  1365  1366  1370  1378 MxSgAt=   158 MxSgA2=   158.
 Leave Link  302 at Thu Sep  9 14:12:53 2021, MaxMem= 23488102400 cpu:             129.0 elap:               5.4
 (Enter /sw/apps/gaussian-16.0/g16/l303.exe)
 DipDrv:  MaxL=1.
 Leave Link  303 at Thu Sep  9 14:12:54 2021, MaxMem= 23488102400 cpu:               8.8 elap:               0.4
 (Enter /sw/apps/gaussian-16.0/g16/l308.exe)
 Leave Link  308 at Thu Sep  9 14:12:54 2021, MaxMem= 23488102400 cpu:              14.6 elap:               0.7
 (Enter /sw/apps/gaussian-16.0/g16/l401.exe)
 ExpMin= 3.36D-02 ExpMax= 4.95D+03 ExpMxC= 7.45D+02 IAcc=3 IRadAn=         5 AccDes= 0.00D+00
 Harris functional with IExCor=20419 and IRadAn=       5 diagonalized for initial guess.
 HarFok:  IExCor=20419 AccDes= 0.00D+00 IRadAn=         5 IDoV= 1 UseB2=F ITyADJ=14
 ICtDFT=  3500011 ScaDFX=  1.000000  1.000000  1.000000  1.000000
 FoFCou: FMM=F IPFlag=           0 FMFlag=      100000 FMFlg1=        2001
         NFxFlg=           0 DoJE=T BraDBF=F KetDBF=T FulRan=T
         wScrn=  0.000000 ICntrl=       500 IOpCl=  0 I1Cent=   200000004 NGrid=           0
         NMat0=    1 NMatS0=      1 NMatT0=    0 NMatD0=    1 NMtDS0=    0 NMtDT0=    0
 Petite list used in FoFCou.
 Harris En= -3918.66275095215    
 JPrj=0 DoOrth=F DoCkMO=F.
 Leave Link  401 at Thu Sep  9 14:13:02 2021, MaxMem= 23488102400 cpu:             192.3 elap:               8.0
 (Enter /sw/apps/gaussian-16.0/g16/l502.exe)
 Integral symmetry usage will be decided dynamically.
 Closed shell SCF:
 Using DIIS extrapolation, IDIIS=  1040.
 NGot= 23488102400 LenX= 23482547354 LenY= 23479796732
 Requested convergence on RMS density matrix=1.00D-08 within 128 cycles.
 Requested convergence on MAX density matrix=1.00D-06.
 Requested convergence on             energy=1.00D-06.
 No special actions if energy rises.
 Fock matrices will be formed incrementally for  20 cycles.

 Cycle   1  Pass 1  IDiag  1:
 FoFJK:  IHMeth= 1 ICntrl=       0 DoSepK=T KAlg= 0 I1Cent=           0 FoldK=F
 IRaf=         1 NMat=       1 IRICut=       1 DoRegI=T DoRafI=F ISym2E= 0 IDoP0=0 IntGTp=1.
 FoFCou: FMM=T IPFlag=           0 FMFlag=      100000 FMFlg1=        2001
         NFxFlg=           0 DoJE=T BraDBF=F KetDBF=F FulRan=T
         wScrn=  0.000000 ICntrl=       500 IOpCl=  0 I1Cent=           0 NGrid=           0
         NMat0=    1 NMatS0=      1 NMatT0=    0 NMatD0=    1 NMtDS0=    0 NMtDT0=    0
 Symmetry not used in FoFCou.
 FMM levels:  10  Number of levels for PrismC:   9
 E= -4068.95235212280    
 DIIS: error= 2.03D-02 at cycle   1 NSaved=   1.
 NSaved= 1 IEnMin= 1 EnMin= -4068.95235212280     IErMin= 1 ErrMin= 2.03D-02
 ErrMax= 2.03D-02  0.00D+00 EMaxC= 1.00D-01 BMatC= 1.69D+00 BMatP= 1.69D+00
 IDIUse=3 WtCom= 7.97D-01 WtEn= 2.03D-01
 Coeff-Com:  0.100D+01
 Coeff-En:   0.100D+01
 Coeff:      0.100D+01
 Gap=     0.121 Goal=   None    Shift=    0.000
 GapD=    0.121 DampG=1.000 DampE=0.500 DampFc=0.5000 IDamp=-1.
 Damping current iteration by 5.00D-01
 RMSDP=1.59D-03 MaxDP=1.38D-01              OVMax= 1.99D-01

 Cycle   2  Pass 1  IDiag  1:
 RMSU=  7.76D-04    CP:  9.82D-01
 E= -4069.34198746907     Delta-E=       -0.389635346266 Rises=F Damp=T
 DIIS: error= 1.26D-02 at cycle   2 NSaved=   2.
 NSaved= 2 IEnMin= 2 EnMin= -4069.34198746907     IErMin= 2 ErrMin= 1.26D-02
 ErrMax= 1.26D-02  0.00D+00 EMaxC= 1.00D-01 BMatC= 3.06D-01 BMatP= 1.69D+00
 IDIUse=3 WtCom= 8.74D-01 WtEn= 1.26D-01
 Coeff-Com: -0.212D+00 0.121D+01
 Coeff-En:   0.000D+00 0.100D+01
 Coeff:     -0.185D+00 0.119D+01
 Gap=     0.131 Goal=   None    Shift=    0.000
 RMSDP=7.70D-04 MaxDP=9.42D-02 DE=-3.90D-01 OVMax= 1.93D-01

 Cycle   3  Pass 1  IDiag  1:
 RMSU=  7.37D-04    CP:  9.68D-01  1.24D+00
 E= -4069.63227964579     Delta-E=       -0.290292176720 Rises=F Damp=F
 DIIS: error= 1.51D-02 at cycle   3 NSaved=   3.
 NSaved= 3 IEnMin= 3 EnMin= -4069.63227964579     IErMin= 2 ErrMin= 1.26D-02
 ErrMax= 1.51D-02  0.00D+00 EMaxC= 1.00D-01 BMatC= 2.02D-01 BMatP= 3.06D-01
 IDIUse=3 WtCom= 8.49D-01 WtEn= 1.51D-01
 Coeff-Com: -0.267D+00 0.651D+00 0.616D+00
 Coeff-En:   0.000D+00 0.000D+00 0.100D+01
 Coeff:     -0.226D+00 0.552D+00 0.674D+00
 Gap=     0.119 Goal=   None    Shift=    0.000
 RMSDP=5.11D-04 MaxDP=5.01D-02 DE=-2.90D-01 OVMax= 1.48D-01

 Cycle   4  Pass 1  IDiag  1:
 RMSU=  2.67D-04    CP:  9.64D-01  1.54D+00  5.05D-01
 E= -4069.77121555942     Delta-E=       -0.138935913637 Rises=F Damp=F
 DIIS: error= 6.79D-03 at cycle   4 NSaved=   4.
 NSaved= 4 IEnMin= 4 EnMin= -4069.77121555942     IErMin= 4 ErrMin= 6.79D-03
 ErrMax= 6.79D-03  0.00D+00 EMaxC= 1.00D-01 BMatC= 4.89D-02 BMatP= 2.02D-01
 IDIUse=3 WtCom= 9.32D-01 WtEn= 6.79D-02
 Coeff-Com: -0.109D+00 0.227D+00 0.406D+00 0.476D+00
 Coeff-En:   0.000D+00 0.000D+00 0.216D+00 0.784D+00
 Coeff:     -0.102D+00 0.211D+00 0.393D+00 0.497D+00
 Gap=     0.118 Goal=   None    Shift=    0.000
 RMSDP=1.99D-04 MaxDP=1.93D-02 DE=-1.39D-01 OVMax= 6.62D-02

 Cycle   5  Pass 1  IDiag  1:
 RMSU=  7.52D-05    CP:  9.64D-01  1.49D+00  6.87D-01  5.53D-01
 E= -4069.81576441847     Delta-E=       -0.044548859045 Rises=F Damp=F
 DIIS: error= 7.34D-04 at cycle   5 NSaved=   5.
 NSaved= 5 IEnMin= 5 EnMin= -4069.81576441847     IErMin= 5 ErrMin= 7.34D-04
 ErrMax= 7.34D-04  0.00D+00 EMaxC= 1.00D-01 BMatC= 1.12D-03 BMatP= 4.89D-02
 IDIUse=3 WtCom= 9.93D-01 WtEn= 7.34D-03
 Coeff-Com: -0.361D-01 0.708D-01 0.164D+00 0.248D+00 0.554D+00
 Coeff-En:   0.000D+00 0.000D+00 0.000D+00 0.000D+00 0.100D+01
 Coeff:     -0.358D-01 0.702D-01 0.162D+00 0.246D+00 0.557D+00
 Gap=     0.118 Goal=   None    Shift=    0.000
 RMSDP=4.02D-05 MaxDP=4.24D-03 DE=-4.45D-02 OVMax= 1.78D-02

 Cycle   6  Pass 1  IDiag  1:
 RMSU=  3.01D-05    CP:  9.64D-01  1.49D+00  6.79D-01  6.22D-01  7.61D-01
 E= -4069.81673628784     Delta-E=       -0.000971869369 Rises=F Damp=F
 DIIS: error= 2.05D-04 at cycle   6 NSaved=   6.
 NSaved= 6 IEnMin= 6 EnMin= -4069.81673628784     IErMin= 6 ErrMin= 2.05D-04
 ErrMax= 2.05D-04  0.00D+00 EMaxC= 1.00D-01 BMatC= 1.71D-04 BMatP= 1.12D-03
 IDIUse=3 WtCom= 9.98D-01 WtEn= 2.05D-03
 Coeff-Com:  0.226D-02-0.667D-02 0.101D-01 0.380D-01 0.306D+00 0.650D+00
 Coeff-En:   0.000D+00 0.000D+00 0.000D+00 0.000D+00 0.107D+00 0.893D+00
 Coeff:      0.226D-02-0.665D-02 0.101D-01 0.380D-01 0.306D+00 0.651D+00
 Gap=     0.118 Goal=   None    Shift=    0.000
 RMSDP=1.58D-05 MaxDP=1.25D-03 DE=-9.72D-04 OVMax= 8.74D-03

 Cycle   7  Pass 1  IDiag  1:
 RMSU=  1.06D-05    CP:  9.63D-01  1.50D+00  6.85D-01  6.21D-01  8.63D-01
                    CP:  7.47D-01
 E= -4069.81692201784     Delta-E=       -0.000185730005 Rises=F Damp=F
 DIIS: error= 8.41D-05 at cycle   7 NSaved=   7.
 NSaved= 7 IEnMin= 7 EnMin= -4069.81692201784     IErMin= 7 ErrMin= 8.41D-05
 ErrMax= 8.41D-05  0.00D+00 EMaxC= 1.00D-01 BMatC= 2.09D-05 BMatP= 1.71D-04
 IDIUse=1 WtCom= 1.00D+00 WtEn= 0.00D+00
 Coeff-Com:  0.441D-02-0.965D-02-0.895D-02-0.393D-02 0.103D+00 0.335D+00
 Coeff-Com:  0.580D+00
 Coeff:      0.441D-02-0.965D-02-0.895D-02-0.393D-02 0.103D+00 0.335D+00
 Coeff:      0.580D+00
 Gap=     0.118 Goal=   None    Shift=    0.000
 RMSDP=6.28D-06 MaxDP=1.16D-03 DE=-1.86D-04 OVMax= 3.53D-03

 Cycle   8  Pass 1  IDiag  1:
 RMSU=  4.53D-06    CP:  9.63D-01  1.50D+00  6.86D-01  6.26D-01  8.68D-01
                    CP:  8.67D-01  8.13D-01
 E= -4069.81694713547     Delta-E=       -0.000025117628 Rises=F Damp=F
 DIIS: error= 5.17D-05 at cycle   8 NSaved=   8.
 NSaved= 8 IEnMin= 8 EnMin= -4069.81694713547     IErMin= 8 ErrMin= 5.17D-05
 ErrMax= 5.17D-05  0.00D+00 EMaxC= 1.00D-01 BMatC= 4.29D-06 BMatP= 2.09D-05
 IDIUse=1 WtCom= 1.00D+00 WtEn= 0.00D+00
 Coeff-Com:  0.214D-02-0.423D-02-0.764D-02-0.119D-01-0.125D-01 0.386D-01
 Coeff-Com:  0.331D+00 0.664D+00
 Coeff:      0.214D-02-0.423D-02-0.764D-02-0.119D-01-0.125D-01 0.386D-01
 Coeff:      0.331D+00 0.664D+00
 Gap=     0.118 Goal=   None    Shift=    0.000
 RMSDP=3.25D-06 MaxDP=4.93D-04 DE=-2.51D-05 OVMax= 1.53D-03

 Cycle   9  Pass 1  IDiag  1:
 RMSU=  1.90D-06    CP:  9.63D-01  1.50D+00  6.86D-01  6.27D-01  8.85D-01
                    CP:  8.92D-01  1.01D+00  9.11D-01
 E= -4069.81695382730     Delta-E=       -0.000006691826 Rises=F Damp=F
 DIIS: error= 2.07D-05 at cycle   9 NSaved=   9.
 NSaved= 9 IEnMin= 9 EnMin= -4069.81695382730     IErMin= 9 ErrMin= 2.07D-05
 ErrMax= 2.07D-05  0.00D+00 EMaxC= 1.00D-01 BMatC= 6.95D-07 BMatP= 4.29D-06
 IDIUse=1 WtCom= 1.00D+00 WtEn= 0.00D+00
 Coeff-Com:  0.519D-03-0.884D-03-0.280D-02-0.602D-02-0.221D-01-0.326D-01
 Coeff-Com:  0.101D+00 0.355D+00 0.608D+00
 Coeff:      0.519D-03-0.884D-03-0.280D-02-0.602D-02-0.221D-01-0.326D-01
 Coeff:      0.101D+00 0.355D+00 0.608D+00
 Gap=     0.118 Goal=   None    Shift=    0.000
 RMSDP=1.27D-06 MaxDP=1.38D-04 DE=-6.69D-06 OVMax= 6.59D-04

 Cycle  10  Pass 1  IDiag  1:
 RMSU=  8.87D-07    CP:  9.63D-01  1.50D+00  6.86D-01  6.28D-01  8.88D-01
                    CP:  9.04D-01  1.05D+00  1.06D+00  9.78D-01
 E= -4069.81695517879     Delta-E=       -0.000001351495 Rises=F Damp=F
 DIIS: error= 8.73D-06 at cycle  10 NSaved=  10.
 NSaved=10 IEnMin=10 EnMin= -4069.81695517879     IErMin=10 ErrMin= 8.73D-06
 ErrMax= 8.73D-06  0.00D+00 EMaxC= 1.00D-01 BMatC= 1.19D-07 BMatP= 6.95D-07
 IDIUse=1 WtCom= 1.00D+00 WtEn= 0.00D+00
 Coeff-Com: -0.356D-03 0.756D-03 0.943D-03 0.748D-03-0.503D-02-0.278D-01
 Coeff-Com: -0.430D-01-0.373D-01 0.231D+00 0.880D+00
 Coeff:     -0.356D-03 0.756D-03 0.943D-03 0.748D-03-0.503D-02-0.278D-01
 Coeff:     -0.430D-01-0.373D-01 0.231D+00 0.880D+00
 Gap=     0.118 Goal=   None    Shift=    0.000
 RMSDP=1.04D-06 MaxDP=1.44D-04 DE=-1.35D-06 OVMax= 5.60D-04

 Cycle  11  Pass 1  IDiag  1:
 RMSU=  4.96D-07    CP:  9.63D-01  1.50D+00  6.86D-01  6.28D-01  8.90D-01
                    CP:  9.13D-01  1.09D+00  1.15D+00  1.27D+00  1.27D+00
 E= -4069.81695571546     Delta-E=       -0.000000536667 Rises=F Damp=F
 DIIS: error= 3.86D-06 at cycle  11 NSaved=  11.
 NSaved=11 IEnMin=11 EnMin= -4069.81695571546     IErMin=11 ErrMin= 3.86D-06
 ErrMax= 3.86D-06  0.00D+00 EMaxC= 1.00D-01 BMatC= 5.36D-08 BMatP= 1.19D-07
 IDIUse=1 WtCom= 1.00D+00 WtEn= 0.00D+00
 Coeff-Com: -0.320D-03 0.629D-03 0.122D-02 0.190D-02 0.294D-02-0.955D-02
 Coeff-Com: -0.456D-01-0.109D+00-0.197D-01 0.516D+00 0.662D+00
 Coeff:     -0.320D-03 0.629D-03 0.122D-02 0.190D-02 0.294D-02-0.955D-02
 Coeff:     -0.456D-01-0.109D+00-0.197D-01 0.516D+00 0.662D+00
 Gap=     0.118 Goal=   None    Shift=    0.000
 RMSDP=5.47D-07 MaxDP=4.58D-05 DE=-5.37D-07 OVMax= 2.92D-04

 Cycle  12  Pass 1  IDiag  1:
 RMSU=  2.51D-07    CP:  9.63D-01  1.50D+00  6.86D-01  6.28D-01  8.91D-01
                    CP:  9.14D-01  1.11D+00  1.20D+00  1.38D+00  1.61D+00
                    CP:  1.06D+00
 E= -4069.81695589512     Delta-E=       -0.000000179658 Rises=F Damp=F
 DIIS: error= 2.80D-06 at cycle  12 NSaved=  12.
 NSaved=12 IEnMin=12 EnMin= -4069.81695589512     IErMin=12 ErrMin= 2.80D-06
 ErrMax= 2.80D-06  0.00D+00 EMaxC= 1.00D-01 BMatC= 1.07D-08 BMatP= 5.36D-08
 IDIUse=1 WtCom= 1.00D+00 WtEn= 0.00D+00
 Coeff-Com: -0.533D-04 0.918D-04 0.338D-03 0.725D-03 0.303D-02 0.192D-02
 Coeff-Com: -0.684D-02-0.422D-01-0.685D-01 0.354D-01 0.278D+00 0.798D+00
 Coeff:     -0.533D-04 0.918D-04 0.338D-03 0.725D-03 0.303D-02 0.192D-02
 Coeff:     -0.684D-02-0.422D-01-0.685D-01 0.354D-01 0.278D+00 0.798D+00
 Gap=     0.118 Goal=   None    Shift=    0.000
 RMSDP=3.26D-07 MaxDP=2.40D-05 DE=-1.80D-07 OVMax= 2.01D-04

 Cycle  13  Pass 1  IDiag  1:
 RMSU=  1.51D-07    CP:  9.63D-01  1.50D+00  6.86D-01  6.28D-01  8.91D-01
                    CP:  9.14D-01  1.11D+00  1.22D+00  1.46D+00  1.77D+00
                    CP:  1.41D+00  1.13D+00
 E= -4069.81695595249     Delta-E=       -0.000000057375 Rises=F Damp=F
 DIIS: error= 1.89D-06 at cycle  13 NSaved=  13.
 NSaved=13 IEnMin=13 EnMin= -4069.81695595249     IErMin=13 ErrMin= 1.89D-06
 ErrMax= 1.89D-06  0.00D+00 EMaxC= 1.00D-01 BMatC= 6.96D-09 BMatP= 1.07D-08
 IDIUse=1 WtCom= 1.00D+00 WtEn= 0.00D+00
 Coeff-Com:  0.996D-04-0.205D-03-0.287D-03-0.319D-03 0.755D-03 0.466D-02
 Coeff-Com:  0.162D-01 0.178D-01-0.393D-01-0.203D+00-0.154D+00 0.563D+00
 Coeff-Com:  0.795D+00
 Coeff:      0.996D-04-0.205D-03-0.287D-03-0.319D-03 0.755D-03 0.466D-02
 Coeff:      0.162D-01 0.178D-01-0.393D-01-0.203D+00-0.154D+00 0.563D+00
 Coeff:      0.795D+00
 Gap=     0.118 Goal=   None    Shift=    0.000
 RMSDP=2.75D-07 MaxDP=1.72D-05 DE=-5.74D-08 OVMax= 1.49D-04

 Cycle  14  Pass 1  IDiag  1:
 RMSU=  7.14D-08    CP:  9.63D-01  1.50D+00  6.86D-01  6.28D-01  8.91D-01
                    CP:  9.15D-01  1.12D+00  1.24D+00  1.52D+00  1.94D+00
                    CP:  1.62D+00  1.63D+00  1.13D+00
 E= -4069.81695598137     Delta-E=       -0.000000028882 Rises=F Damp=F
 DIIS: error= 8.36D-07 at cycle  14 NSaved=  14.
 NSaved=14 IEnMin=14 EnMin= -4069.81695598137     IErMin=14 ErrMin= 8.36D-07
 ErrMax= 8.36D-07  0.00D+00 EMaxC= 1.00D-01 BMatC= 8.73D-10 BMatP= 6.96D-09
 IDIUse=1 WtCom= 1.00D+00 WtEn= 0.00D+00
 Coeff-Com:  0.673D-04-0.134D-03-0.239D-03-0.358D-03-0.372D-03 0.163D-02
 Coeff-Com:  0.106D-01 0.194D-01-0.256D-02-0.104D+00-0.158D+00 0.105D+00
 Coeff-Com:  0.368D+00 0.760D+00
 Coeff:      0.673D-04-0.134D-03-0.239D-03-0.358D-03-0.372D-03 0.163D-02
 Coeff:      0.106D-01 0.194D-01-0.256D-02-0.104D+00-0.158D+00 0.105D+00
 Coeff:      0.368D+00 0.760D+00
 Gap=     0.118 Goal=   None    Shift=    0.000
 RMSDP=1.03D-07 MaxDP=6.53D-06 DE=-2.89D-08 OVMax= 5.68D-05

 Cycle  15  Pass 1  IDiag  1:
 RMSU=  3.24D-08    CP:  9.63D-01  1.50D+00  6.86D-01  6.28D-01  8.91D-01
                    CP:  9.14D-01  1.12D+00  1.24D+00  1.53D+00  1.99D+00
                    CP:  1.72D+00  1.81D+00  1.36D+00  1.05D+00
 E= -4069.81695598495     Delta-E=       -0.000000003580 Rises=F Damp=F
 DIIS: error= 3.23D-07 at cycle  15 NSaved=  15.
 NSaved=15 IEnMin=15 EnMin= -4069.81695598495     IErMin=15 ErrMin= 3.23D-07
 ErrMax= 3.23D-07  0.00D+00 EMaxC= 1.00D-01 BMatC= 2.01D-10 BMatP= 8.73D-10
 IDIUse=1 WtCom= 1.00D+00 WtEn= 0.00D+00
 Coeff-Com:  0.139D-04-0.262D-04-0.597D-04-0.114D-03-0.318D-03-0.197D-03
 Coeff-Com:  0.222D-02 0.549D-02 0.578D-02-0.860D-02-0.488D-01-0.417D-01
 Coeff-Com:  0.168D-01 0.371D+00 0.699D+00
 Coeff:      0.139D-04-0.262D-04-0.597D-04-0.114D-03-0.318D-03-0.197D-03
 Coeff:      0.222D-02 0.549D-02 0.578D-02-0.860D-02-0.488D-01-0.417D-01
 Coeff:      0.168D-01 0.371D+00 0.699D+00
 Gap=     0.118 Goal=   None    Shift=    0.000
 RMSDP=3.11D-08 MaxDP=2.98D-06 DE=-3.58D-09 OVMax= 1.50D-05

 Cycle  16  Pass 1  IDiag  1:
 RMSU=  1.54D-08    CP:  9.63D-01  1.50D+00  6.86D-01  6.28D-01  8.91D-01
                    CP:  9.14D-01  1.12D+00  1.24D+00  1.54D+00  2.00D+00
                    CP:  1.74D+00  1.86D+00  1.43D+00  1.23D+00  1.07D+00
 E= -4069.81695598545     Delta-E=       -0.000000000498 Rises=F Damp=F
 DIIS: error= 1.10D-07 at cycle  16 NSaved=  16.
 NSaved=16 IEnMin=16 EnMin= -4069.81695598545     IErMin=16 ErrMin= 1.10D-07
 ErrMax= 1.10D-07  0.00D+00 EMaxC= 1.00D-01 BMatC= 4.84D-11 BMatP= 2.01D-10
 IDIUse=1 WtCom= 1.00D+00 WtEn= 0.00D+00
 Coeff-Com: -0.838D-05 0.173D-04 0.257D-04 0.233D-04-0.733D-04-0.490D-03
 Coeff-Com: -0.123D-02-0.206D-02 0.320D-02 0.194D-01 0.853D-02-0.404D-01
 Coeff-Com: -0.858D-01 0.203D-01 0.338D+00 0.741D+00
 Coeff:     -0.838D-05 0.173D-04 0.257D-04 0.233D-04-0.733D-04-0.490D-03
 Coeff:     -0.123D-02-0.206D-02 0.320D-02 0.194D-01 0.853D-02-0.404D-01
 Coeff:     -0.858D-01 0.203D-01 0.338D+00 0.741D+00
 Gap=     0.118 Goal=   None    Shift=    0.000
 RMSDP=1.81D-08 MaxDP=1.23D-06 DE=-4.98D-10 OVMax= 1.20D-05

 Cycle  17  Pass 1  IDiag  1:
 RMSU=  8.81D-09    CP:  9.63D-01  1.50D+00  6.86D-01  6.28D-01  8.91D-01
                    CP:  9.14D-01  1.12D+00  1.24D+00  1.54D+00  2.01D+00
                    CP:  1.75D+00  1.88D+00  1.47D+00  1.30D+00  1.30D+00
                    CP:  1.11D+00
 E= -4069.81695598575     Delta-E=       -0.000000000295 Rises=F Damp=F
 DIIS: error= 7.52D-08 at cycle  17 NSaved=  17.
 NSaved=17 IEnMin=17 EnMin= -4069.81695598575     IErMin=17 ErrMin= 7.52D-08
 ErrMax= 7.52D-08  0.00D+00 EMaxC= 1.00D-01 BMatC= 1.29D-11 BMatP= 4.84D-11
 IDIUse=1 WtCom= 1.00D+00 WtEn= 0.00D+00
 Coeff-Com: -0.685D-05 0.136D-04 0.254D-04 0.342D-04 0.361D-04-0.204D-03
 Coeff-Com: -0.987D-03-0.227D-02 0.475D-03 0.119D-01 0.134D-01-0.700D-02
 Coeff-Com: -0.491D-01-0.627D-01-0.914D-03 0.364D+00 0.733D+00
 Coeff:     -0.685D-05 0.136D-04 0.254D-04 0.342D-04 0.361D-04-0.204D-03
 Coeff:     -0.987D-03-0.227D-02 0.475D-03 0.119D-01 0.134D-01-0.700D-02
 Coeff:     -0.491D-01-0.627D-01-0.914D-03 0.364D+00 0.733D+00
 Gap=     0.118 Goal=   None    Shift=    0.000
 RMSDP=8.56D-09 MaxDP=5.12D-07 DE=-2.95D-10 OVMax= 4.93D-06

 SCF Done:  E(RCAM-B3LYP) =  -4069.81695599     A.U. after   17 cycles
            NFock= 17  Conv=0.86D-08     -V/T= 2.0102
 KE= 4.028783354257D+03 PE=-4.055337048225D+04 EE= 1.691874839197D+04
 Leave Link  502 at Thu Sep  9 14:24:07 2021, MaxMem= 23488102400 cpu:           15357.7 elap:             664.7
 (Enter /sw/apps/gaussian-16.0/g16/l801.exe)
 DoSCS=F DFT=T ScalE2(SS,OS)=  1.000000  1.000000
 ExpMin= 3.36D-02 ExpMax= 4.95D+03 ExpMxC= 7.45D+02 IAcc=3 IRadAn=         5 AccDes= 0.00D+00
 HarFok:  IExCor=  205 AccDes= 0.00D+00 IRadAn=         5 IDoV=-2 UseB2=F ITyADJ=14
 ICtDFT= 12500011 ScaDFX=  1.000000  1.000000  1.000000  1.000000
 GSVD:  LWork=       -9588 too small for GESVD, short by       45590 words or       45590 for optimal perf.
 Largest valence mixing into a core orbital is  2.03D-04
 Largest core mixing into a valence orbital is  5.21D-05
 Range of M.O.s used for correlation:    95  1572
 NBasis=  1572 NAE=   312 NBE=   312 NFC=    94 NFV=     0
 NROrb=   1478 NOA=   218 NOB=   218 NVA=  1260 NVB=  1260
 Leave Link  801 at Thu Sep  9 14:24:07 2021, MaxMem= 23488102400 cpu:               8.1 elap:               0.4
 (Enter /sw/apps/gaussian-16.0/g16/l914.exe)
 RHF ground state
 Two-electron integrals replicated using symmetry.
 MDV= 23488102400 DFT=T DoStab=F Mixed=T DoRPA=T DoScal=F NonHer=T
 Making orbital integer symmetry assigments:
 Orbital symmetries:
       Occupied  (A) (A) (A) (A) (A) (A) (A) (A) (A) (A) (A) (A)
                 (A) (A) (A) (A) (A) (A) (A) (A) (A) (A) (A) (A)
                 (A) (A) (A) (A) (A) (A) (A) (A) (A) (A) (A) (A)
                 (A) (A) (A) (A) (A) (A) (A) (A) (A) (A) (A) (A)
                 (A) (A) (A) (A) (A) (A) (A) (A) (A) (A) (A) (A)
                 (A) (A) (A) (A) (A) (A) (A) (A) (A) (A) (A) (A)
                 (A) (A) (A) (A) (A) (A) (A) (A) (A) (A) (A) (A)
                 (A) (A) (A) (A) (A) (A) (A) (A) (A) (A) (A) (A)
                 (A) (A) (A) (A) (A) (A) (A) (A) (A) (A) (A) (A)
                 (A) (A) (A) (A) (A) (A) (A) (A) (A) (A) (A) (A)
                 (A) (A) (A) (A) (A) (A) (A) (A) (A) (A) (A) (A)
                 (A) (A) (A) (A) (A) (A) (A) (A) (A) (A) (A) (A)
                 (A) (A) (A) (A) (A) (A) (A) (A) (A) (A) (A) (A)
                 (A) (A) (A) (A) (A) (A) (A) (A) (A) (A) (A) (A)
                 (A) (A) (A) (A) (A) (A) (A) (A) (A) (A) (A) (A)
                 (A) (A) (A) (A) (A) (A) (A) (A) (A) (A) (A) (A)
                 (A) (A) (A) (A) (A) (A) (A) (A) (A) (A) (A) (A)
                 (A) (A) (A) (A) (A) (A) (A) (A) (A) (A) (A) (A)
                 (A) (A) (A) (A) (A) (A) (A) (A) (A) (A) (A) (A)
                 (A) (A) (A) (A) (A) (A) (A) (A) (A) (A) (A) (A)
                 (A) (A) (A) (A) (A) (A) (A) (A) (A) (A) (A) (A)
                 (A) (A) (A) (A) (A) (A) (A) (A) (A) (A) (A) (A)
                 (A) (A) (A) (A) (A) (A) (A) (A) (A) (A) (A) (A)
                 (A) (A) (A) (A) (A) (A) (A) (A) (A) (A) (A) (A)
                 (A) (A) (A) (A) (A) (A) (A) (A) (A) (A) (A) (A)
                 (A) (A) (A) (A) (A) (A) (A) (A) (A) (A) (A) (A)
       Virtual   (A) (A) (A) (A) (A) (A) (A) (A) (A) (A) (A) (A)
                 (A) (A) (A) (A) (A) (A) (A) (A) (A) (A) (A) (A)
                 (A) (A) (A) (A) (A) (A) (A) (A) (A) (A) (A) (A)
                 (A) (A) (A) (A) (A) (A) (A) (A) (A) (A) (A) (A)
                 (A) (A) (A) (A) (A) (A) (A) (A) (A) (A) (A) (A)
                 (A) (A) (A) (A) (A) (A) (A) (A) (A) (A) (A) (A)
                 (A) (A) (A) (A) (A) (A) (A) (A) (A) (A) (A) (A)
                 (A) (A) (A) (A) (A) (A) (A) (A) (A) (A) (A) (A)
                 (A) (A) (A) (A) (A) (A) (A) (A) (A) (A) (A) (A)
                 (A) (A) (A) (A) (A) (A) (A) (A) (A) (A) (A) (A)
                 (A) (A) (A) (A) (A) (A) (A) (A) (A) (A) (A) (A)
                 (A) (A) (A) (A) (A) (A) (A) (A) (A) (A) (A) (A)
                 (A) (A) (A) (A) (A) (A) (A) (A) (A) (A) (A) (A)
                 (A) (A) (A) (A) (A) (A) (A) (A) (A) (A) (A) (A)
                 (A) (A) (A) (A) (A) (A) (A) (A) (A) (A) (A) (A)
                 (A) (A) (A) (A) (A) (A) (A) (A) (A) (A) (A) (A)
                 (A) (A) (A) (A) (A) (A) (A) (A) (A) (A) (A) (A)
                 (A) (A) (A) (A) (A) (A) (A) (A) (A) (A) (A) (A)
                 (A) (A) (A) (A) (A) (A) (A) (A) (A) (A) (A) (A)
                 (A) (A) (A) (A) (A) (A) (A) (A) (A) (A) (A) (A)
                 (A) (A) (A) (A) (A) (A) (A) (A) (A) (A) (A) (A)
                 (A) (A) (A) (A) (A) (A) (A) (A) (A) (A) (A) (A)
                 (A) (A) (A) (A) (A) (A) (A) (A) (A) (A) (A) (A)
                 (A) (A) (A) (A) (A) (A) (A) (A) (A) (A) (A) (A)
                 (A) (A) (A) (A) (A) (A) (A) (A) (A) (A) (A) (A)
                 (A) (A) (A) (A) (A) (A) (A) (A) (A) (A) (A) (A)
                 (A) (A) (A) (A) (A) (A) (A) (A) (A) (A) (A) (A)
                 (A) (A) (A) (A) (A) (A) (A) (A) (A) (A) (A) (A)
                 (A) (A) (A) (A) (A) (A) (A) (A) (A) (A) (A) (A)
                 (A) (A) (A) (A) (A) (A) (A) (A) (A) (A) (A) (A)
                 (A) (A) (A) (A) (A) (A) (A) (A) (A) (A) (A) (A)
                 (A) (A) (A) (A) (A) (A) (A) (A) (A) (A) (A) (A)
                 (A) (A) (A) (A) (A) (A) (A) (A) (A) (A) (A) (A)
                 (A) (A) (A) (A) (A) (A) (A) (A) (A) (A) (A) (A)
                 (A) (A) (A) (A) (A) (A) (A) (A) (A) (A) (A) (A)
                 (A) (A) (A) (A) (A) (A) (A) (A) (A) (A) (A) (A)
                 (A) (A) (A) (A) (A) (A) (A) (A) (A) (A) (A) (A)
                 (A) (A) (A) (A) (A) (A) (A) (A) (A) (A) (A) (A)
                 (A) (A) (A) (A) (A) (A) (A) (A) (A) (A) (A) (A)
                 (A) (A) (A) (A) (A) (A) (A) (A) (A) (A) (A) (A)
                 (A) (A) (A) (A) (A) (A) (A) (A) (A) (A) (A) (A)
                 (A) (A) (A) (A) (A) (A) (A) (A) (A) (A) (A) (A)
                 (A) (A) (A) (A) (A) (A) (A) (A) (A) (A) (A) (A)
                 (A) (A) (A) (A) (A) (A) (A) (A) (A) (A) (A) (A)
                 (A) (A) (A) (A) (A) (A) (A) (A) (A) (A) (A) (A)
                 (A) (A) (A) (A) (A) (A) (A) (A) (A) (A) (A) (A)
                 (A) (A) (A) (A) (A) (A) (A) (A) (A) (A) (A) (A)
                 (A) (A) (A) (A) (A) (A) (A) (A) (A) (A) (A) (A)
                 (A) (A) (A) (A) (A) (A) (A) (A) (A) (A) (A) (A)
                 (A) (A) (A) (A) (A) (A) (A) (A) (A) (A) (A) (A)
                 (A) (A) (A) (A) (A) (A) (A) (A) (A) (A) (A) (A)
                 (A) (A) (A) (A) (A) (A) (A) (A) (A) (A) (A) (A)
                 (A) (A) (A) (A) (A) (A) (A) (A) (A) (A) (A) (A)
                 (A) (A) (A) (A) (A) (A) (A) (A) (A) (A) (A) (A)
                 (A) (A) (A) (A) (A) (A) (A) (A) (A) (A) (A) (A)
                 (A) (A) (A) (A) (A) (A) (A) (A) (A) (A) (A) (A)
                 (A) (A) (A) (A) (A) (A) (A) (A) (A) (A) (A) (A)
                 (A) (A) (A) (A) (A) (A) (A) (A) (A) (A) (A) (A)
                 (A) (A) (A) (A) (A) (A) (A) (A) (A) (A) (A) (A)
                 (A) (A) (A) (A) (A) (A) (A) (A) (A) (A) (A) (A)
                 (A) (A) (A) (A) (A) (A) (A) (A) (A) (A) (A) (A)
                 (A) (A) (A) (A) (A) (A) (A) (A) (A) (A) (A) (A)
                 (A) (A) (A) (A) (A) (A) (A) (A) (A) (A) (A) (A)
                 (A) (A) (A) (A) (A) (A) (A) (A) (A) (A) (A) (A)
                 (A) (A) (A) (A) (A) (A) (A) (A) (A) (A) (A) (A)
                 (A) (A) (A) (A) (A) (A) (A) (A) (A) (A) (A) (A)
                 (A) (A) (A) (A) (A) (A) (A) (A) (A) (A) (A) (A)
                 (A) (A) (A) (A) (A) (A) (A) (A) (A) (A) (A) (A)
                 (A) (A) (A) (A) (A) (A) (A) (A) (A) (A) (A) (A)
                 (A) (A) (A) (A) (A) (A) (A) (A) (A) (A) (A) (A)
                 (A) (A) (A) (A) (A) (A) (A) (A) (A) (A) (A) (A)
                 (A) (A) (A) (A) (A) (A) (A) (A) (A) (A) (A) (A)
                 (A) (A) (A) (A) (A) (A) (A) (A) (A) (A) (A) (A)
                 (A) (A) (A) (A) (A) (A) (A) (A) (A) (A) (A) (A)
                 (A) (A) (A) (A) (A) (A) (A) (A) (A) (A) (A) (A)
                 (A) (A) (A) (A) (A) (A) (A) (A) (A) (A) (A) (A)
                 (A) (A) (A) (A) (A) (A) (A) (A) (A) (A) (A) (A)
                 (A) (A) (A) (A) (A) (A) (A) (A) (A) (A) (A) (A)
                 (A) (A) (A) (A) (A) (A) (A) (A) (A) (A) (A) (A)
                 (A) (A) (A) (A) (A) (A) (A) (A) (A) (A) (A) (A)
                 (A) (A) (A) (A) (A) (A) (A) (A) (A) (A) (A) (A)
                 (A) (A) (A) (A) (A) (A) (A) (A) (A) (A) (A) (A)
                 (A) (A) (A) (A) (A) (A) (A) (A) (A) (A) (A) (A)
                 (A) (A) (A) (A) (A) (A) (A) (A) (A) (A) (A) (A)
                 (A) (A) (A) (A) (A) (A) (A) (A) (A) (A) (A) (A)
                 (A) (A) (A) (A) (A) (A) (A) (A) (A) (A) (A) (A)
                 (A) (A) (A) (A) (A) (A) (A) (A) (A) (A) (A) (A)
                 (A) (A) (A) (A) (A) (A) (A) (A) (A) (A) (A) (A)
                 (A) (A) (A) (A) (A) (A) (A) (A) (A) (A) (A) (A)
                 (A) (A) (A) (A) (A) (A) (A) (A) (A) (A) (A) (A)
                 (A) (A) (A) (A) (A) (A) (A) (A) (A) (A) (A) (A)
                 (A) (A) (A) (A) (A) (A) (A) (A) (A) (A) (A) (A)
                 (A) (A) (A) (A) (A) (A) (A) (A) (A) (A) (A) (A)
                 (A) (A) (A) (A) (A) (A) (A) (A) (A) (A) (A) (A)
                 (A) (A) (A) (A) (A) (A) (A) (A) (A) (A) (A) (A)
                 (A) (A) (A) (A) (A) (A) (A) (A) (A) (A) (A) (A)
                 (A) (A) (A) (A) (A) (A) (A) (A) (A) (A) (A) (A)
                 (A) (A) (A) (A) (A) (A) (A) (A) (A) (A) (A) (A)
                 (A) (A) (A) (A) (A) (A) (A) (A) (A) (A) (A) (A)
                 (A) (A) (A) (A) (A) (A) (A) (A) (A) (A) (A) (A)
                 (A) (A) (A) (A) (A) (A) (A) (A) (A) (A) (A) (A)
                 (A) (A) (A) (A) (A) (A) (A) (A) (A) (A) (A) (A)
                 (A) (A) (A) (A) (A) (A) (A) (A) (A) (A) (A) (A)
                 (A) (A) (A) (A) (A) (A) (A) (A) (A) (A) (A) (A)
                 (A) (A) (A) (A) (A) (A) (A) (A) (A) (A) (A) (A)
    20 initial guesses have been made.
 Convergence on wavefunction:    0.001000000000000
 Davidson Disk Diagonalization:  ConvIn= 1.00D-03 SkipCon=T Conv= 1.00D-03.
 Max sub-space:  2000 roots to seek:    20 dimension of matrix:       549360
 Iteration     1 Dimension    20 NMult     0 NNew     20
 CISAX will form    20 AO SS matrices at one time.
 NMat=    20 NSing=    20 JSym2X= 0.
 FoFJK:  IHMeth= 1 ICntrl=       0 DoSepK=T KAlg= 0 I1Cent=           0 FoldK=F
 IRaf=         1 NMat=      40 IRICut=       1 DoRegI=T DoRafI=F ISym2E= 0 IDoP0=3 IntGTp=3.
 FoFCou: FMM=T IPFlag=           0 FMFlag=      100000 FMFlg1=        2001
         NFxFlg=           0 DoJE=F BraDBF=F KetDBF=F FulRan=T
         wScrn=  0.000000 ICntrl=       500 IOpCl=  0 I1Cent=           0 NGrid=           0
         NMat0=   20 NMatS0=     20 NMatT0=    0 NMatD0=   20 NMtDS0=    0 NMtDT0=    0
 Symmetry not used in FoFCou.
 FMM levels:  10  Number of levels for PrismC:   9
 New state      2 was old state      4
 New state      3 was old state      7
 New state      4 was old state      6
 New state      5 was old state     11
 Excitation Energies [eV] at current iteration:
 Root      1 :     2.315420259963795
 Root      2 :     2.561229117554491
 Root      3 :     2.602854096322311
 Root      4 :     2.614680536266704
 Root      5 :     2.637918464793167
 Root      6 :     2.750390590826379
 Root      7 :     3.133576060579141
 Root      8 :     3.361791954888335
 Root      9 :     3.645474192579123
 Root     10 :     3.691161716957649
 Root     11 :     3.715787330442646
 Root     12 :     3.761579330040322
 Root     13 :     4.227207008253983
 Root     14 :     4.254998021130399
 Root     15 :     4.261900043638080
 Root     16 :     4.361029706651766
 Root     17 :     4.462213120901671
 Root     18 :     4.701375265868970
 Root     19 :     4.720921051616863
 Root     20 :     4.979210935934754
 Iteration     2 Dimension    30 NMult    20 NNew     10
 CISAX will form    10 AO SS matrices at one time.
 NMat=    10 NSing=    10 JSym2X= 0.
 New state      1 was old state      3
 Root      1 not converged, maximum delta is    0.375702537717276
 New state      2 was old state      4
 Root      2 not converged, maximum delta is    0.157910171499887
 New state      3 was old state      5
 Root      3 not converged, maximum delta is    0.231219892806524
 New state      4 was old state      1
 Root      4 not converged, maximum delta is    0.015706577378661
 New state      5 was old state      2
 Root      5 not converged, maximum delta is    0.058082410999115
 Excitation Energies [eV] at current iteration:
 Root      1 :     1.758763214628349   Change is   -0.844090881693962
 Root      2 :     2.232657187111225   Change is   -0.382023349155479
 Root      3 :     2.246090692725790   Change is   -0.391827772067378
 Root      4 :     2.312066605003100   Change is   -0.003353654960695
 Root      5 :     2.552663228209853   Change is   -0.008565889344638
 Iteration     3 Dimension    40 NMult    30 NNew     10
 CISAX will form    10 AO SS matrices at one time.
 NMat=    10 NSing=    10 JSym2X= 0.
 Root      1 not converged, maximum delta is    0.051827170968701
 Root      2 not converged, maximum delta is    0.434195137497433
 Root      3 not converged, maximum delta is    0.692210729385983
 No map to state      4
 New state      5 was old state      4
 Root      5 not converged, maximum delta is    0.002021557562658
 Excitation Energies [eV] at current iteration:
 Root      1 :     1.656944144913851   Change is   -0.101819069714498
 Root      2 :     2.013347716624152   Change is   -0.219309470487074
 Root      3 :     2.196343968869043   Change is   -0.049746723856747
 Root      4 :     2.209105174082371
 Root      5 :     2.312033221330602   Change is   -0.000033383672498
 Iteration     4 Dimension    50 NMult    40 NNew     10
 CISAX will form    10 AO SS matrices at one time.
 NMat=    10 NSing=    10 JSym2X= 0.
 Root      1 not converged, maximum delta is    0.010658444541977
 Root      2 not converged, maximum delta is    0.069535154302631
 Root      3 not converged, maximum delta is    0.069352351309109
 Root      4 not converged, maximum delta is    0.067031176172470
 Root      5 has converged.
 Excitation Energies [eV] at current iteration:
 Root      1 :     1.640767728901217   Change is   -0.016176416012633
 Root      2 :     1.750728881034566   Change is   -0.262618835589585
 Root      3 :     2.187446402894903   Change is   -0.008897565974140
 Root      4 :     2.200450697042681   Change is   -0.008654477039690
 Root      5 :     2.312028803983428   Change is   -0.000004417347174
 Iteration     5 Dimension    58 NMult    50 NNew      8
 CISAX will form     8 AO SS matrices at one time.
 NMat=     8 NSing=     8 JSym2X= 0.
 Root      1 not converged, maximum delta is    0.001455707129905
 Root      2 not converged, maximum delta is    0.025127885163918
 Root      3 not converged, maximum delta is    0.003765085595407
 Root      4 not converged, maximum delta is    0.004008018589683
 Root      5 has converged.
 Excitation Energies [eV] at current iteration:
 Root      1 :     1.639127013302615   Change is   -0.001640715598602
 Root      2 :     1.711036137094191   Change is   -0.039692743940376
 Root      3 :     2.186559378709148   Change is   -0.000887024185755
 Root      4 :     2.199432372801505   Change is   -0.001018324241176
 Root      5 :     2.312028516168527   Change is   -0.000000287814901
 Iteration     6 Dimension    66 NMult    58 NNew      8
 CISAX will form     8 AO SS matrices at one time.
 NMat=     8 NSing=     8 JSym2X= 0.
 Root      1 not converged, maximum delta is    0.001049695755423
 Root      2 not converged, maximum delta is    0.009356738985842
 Root      3 has converged.
 Root      4 has converged.
 Root      5 has converged.
 Excitation Energies [eV] at current iteration:
 Root      1 :     1.638893511715267   Change is   -0.000233501587348
 Root      2 :     1.706105050924231   Change is   -0.004931086169960
 Root      3 :     2.186428014571014   Change is   -0.000131364138134
 Root      4 :     2.199302381378792   Change is   -0.000129991422714
 Root      5 :     2.312028476891277   Change is   -0.000000039277250
 Iteration     7 Dimension    70 NMult    66 NNew      4
 CISAX will form     4 AO SS matrices at one time.
 NMat=     4 NSing=     4 JSym2X= 0.
 Root      1 has converged.
 Root      2 not converged, maximum delta is    0.001645520860122
 Root      3 has converged.
 Root      4 has converged.
 Root      5 has converged.
 Excitation Energies [eV] at current iteration:
 Root      1 :     1.638870946838598   Change is   -0.000022564876669
 Root      2 :     1.705585412996253   Change is   -0.000519637927978
 Root      3 :     2.186427033027662   Change is   -0.000000981543352
 Root      4 :     2.199298618041726   Change is   -0.000003763337066
 Root      5 :     2.312028472203159   Change is   -0.000000004688117
 Iteration     8 Dimension    72 NMult    70 NNew      2
 CISAX will form     2 AO SS matrices at one time.
 NMat=     2 NSing=     2 JSym2X= 0.
 Root      1 has converged.
 Root      2 not converged, maximum delta is    0.001135997894199
 Root      3 has converged.
 Root      4 has converged.
 Root      5 has converged.
 Excitation Energies [eV] at current iteration:
 Root      1 :     1.638870943012111   Change is   -0.000000003826487
 Root      2 :     1.705497565015762   Change is   -0.000087847980491
 Root      3 :     2.186426833925346   Change is   -0.000000199102316
 Root      4 :     2.199297443799403   Change is   -0.000001174242323
 Root      5 :     2.312028468334476   Change is   -0.000000003868684
 Iteration     9 Dimension    74 NMult    72 NNew      2
 CISAX will form     2 AO SS matrices at one time.
 NMat=     2 NSing=     2 JSym2X= 0.
 Root      1 has converged.
 Root      2 has converged.
 Root      3 has converged.
 Root      4 has converged.
 Root      5 has converged.
 Excitation Energies [eV] at current iteration:
 Root      1 :     1.638870925794324   Change is   -0.000000017217787
 Root      2 :     1.705488652344937   Change is   -0.000008912670825
 Root      3 :     2.186426823923779   Change is   -0.000000010001566
 Root      4 :     2.199297423757350   Change is   -0.000000020042053
 Root      5 :     2.312028462165077   Change is   -0.000000006169399
 Convergence achieved on expansion vectors.
 ***********************************************************************
 Excited states from <AA,BB:AA,BB> singles matrix:
 ***********************************************************************
 
 1PDM for each excited state written to RWF  633
 Ground to excited state transition densities written to RWF  633
 Ground to excited state transition electric dipole moments (Au):
       state          X           Y           Z        Dip. S.      Osc.
         1        -1.6594      0.2567     -0.9341      3.6921      0.1482
         2        -2.0748     -0.5872      3.0877     14.1834      0.5926
         3        -0.1595      0.1557      0.1441      0.0705      0.0038
[...]
 Alpha virt. eigenvalues --    1.83721   1.83767   1.84137   1.84275   1.84410
 Alpha virt. eigenvalues --    1.84556   1.84773   1.84824   1.85195   1.85274
 Alpha virt. eigenvalues --    1.85411   1.85482   1.85618   1.85726   1.86010
 Alpha virt. eigenvalues --    1.86258   1.86363   1.86501   1.86688   1.86776
 Alpha virt. eigenvalues --    1.86960   1.87011   1.87149   1.87325   1.87531
 Alpha virt. eigenvalues --    1.87717   1.87822   1.87947   1.88040   1.88178
 Alpha virt. eigenvalues --    1.88336   1.88471   1.88603   1.88757   1.88874
 Alpha virt. eigenvalues --    1.89259   1.89320   1.89420   1.89486   1.89741
 Alpha virt. eigenvalues --    1.89934   1.90072   1.90133   1.90630   1.90913
 Alpha virt. eigenvalues --    1.91148   1.91180   1.91246   1.91552   1.91682
 Alpha virt. eigenvalues --    1.91934   1.92163   1.92473   1.92667   1.92887
 Alpha virt. eigenvalues --    1.93033   1.93458   1.93773   1.93971   1.94500
 Alpha virt. eigenvalues --    1.94696   1.94738   1.95333   1.95542   1.95799
 Alpha virt. eigenvalues --    1.95889   1.95945   1.96037   1.96250   1.96365
 Alpha virt. eigenvalues --    1.96517   1.96738   1.96857   1.96993   1.97382
 Alpha virt. eigenvalues --    1.97747   1.97953   1.98000   1.98028   1.98251
 Alpha virt. eigenvalues --    1.98405   1.98466   1.98550   1.99116   1.99480
 Alpha virt. eigenvalues --    1.99716   2.00250   2.00707   2.00974   2.01092
 Alpha virt. eigenvalues --    2.01292   2.01409   2.01606   2.01776   2.01831
 Alpha virt. eigenvalues --    2.01974   2.02122   2.02724   2.03010   2.03254
 Alpha virt. eigenvalues --    2.03321   2.03374   2.03444   2.03713   2.03826
 Alpha virt. eigenvalues --    2.04020   2.04328   2.04937   2.05373   2.05480
 Alpha virt. eigenvalues --    2.06015   2.06151   2.06647   2.06925   2.07152
 Alpha virt. eigenvalues --    2.07250   2.07606   2.08626   2.08849   2.09215
 Alpha virt. eigenvalues --    2.09420   2.09573   2.10008   2.11028   2.11161
 Alpha virt. eigenvalues --    2.11326   2.11461   2.11657   2.11734   2.11826
 Alpha virt. eigenvalues --    2.12351   2.12540   2.12763   2.12869   2.12991
 Alpha virt. eigenvalues --    2.13133   2.13265   2.13704   2.13864   2.14363
 Alpha virt. eigenvalues --    2.14459   2.15319   2.15804   2.15910   2.16304
 Alpha virt. eigenvalues --    2.16610   2.16859   2.16926   2.17342   2.17537
 Alpha virt. eigenvalues --    2.17678   2.17930   2.18083   2.18159   2.18256
 Alpha virt. eigenvalues --    2.18499   2.18735   2.19030   2.19501   2.19600
 Alpha virt. eigenvalues --    2.19977   2.20119   2.20161   2.20515   2.20863
 Alpha virt. eigenvalues --    2.21337   2.21484   2.21616   2.21703   2.22080
 Alpha virt. eigenvalues --    2.22562   2.22746   2.23029   2.23412   2.23590
 Alpha virt. eigenvalues --    2.24415   2.24751   2.25306   2.25776   2.26118
 Alpha virt. eigenvalues --    2.26684   2.26764   2.27066   2.27351   2.27555
 Alpha virt. eigenvalues --    2.28093   2.28628   2.29271   2.29641   2.29811
 Alpha virt. eigenvalues --    2.30157   2.30434   2.30830   2.30852   2.31007
 Alpha virt. eigenvalues --    2.31184   2.31441   2.32125   2.32711   2.33001
 Alpha virt. eigenvalues --    2.33499   2.33571   2.33709   2.34266   2.34337
 Alpha virt. eigenvalues --    2.35159   2.35487   2.35684   2.36234   2.36515
 Alpha virt. eigenvalues --    2.36627   2.36839   2.36874   2.37896   2.37952
 Alpha virt. eigenvalues --    2.38325   2.38695   2.39044   2.39280   2.39586
 Alpha virt. eigenvalues --    2.39973   2.40302   2.40440   2.40496   2.41061
 Alpha virt. eigenvalues --    2.41161   2.41456   2.41910   2.41947   2.42010
 Alpha virt. eigenvalues --    2.42378   2.43068   2.43125   2.43192   2.43367
 Alpha virt. eigenvalues --    2.44103   2.44537   2.44668   2.44809   2.45181
 Alpha virt. eigenvalues --    2.45291   2.45619   2.45888   2.46237   2.46323
 Alpha virt. eigenvalues --    2.46629   2.46872   2.46915   2.47214   2.47476
 Alpha virt. eigenvalues --    2.47668   2.47741   2.48202   2.49387   2.49884
 Alpha virt. eigenvalues --    2.50170   2.50241   2.50875   2.51005   2.51211
 Alpha virt. eigenvalues --    2.51532   2.51791   2.52159   2.52335   2.52620
 Alpha virt. eigenvalues --    2.52715   2.53485   2.53876   2.54187   2.54305
 Alpha virt. eigenvalues --    2.54739   2.54853   2.55139   2.55504   2.56064
 Alpha virt. eigenvalues --    2.57802   2.58478   2.58626   2.59187   2.59991
 Alpha virt. eigenvalues --    2.60483   2.60505   2.61180   2.61666   2.62209
 Alpha virt. eigenvalues --    2.62444   2.62738   2.62871   2.63362   2.63823
 Alpha virt. eigenvalues --    2.64429   2.64591   2.64610   2.65068   2.65318
 Alpha virt. eigenvalues --    2.65652   2.66119   2.66817   2.66968   2.67109
 Alpha virt. eigenvalues --    2.67358   2.67942   2.68223   2.68701   2.68955
 Alpha virt. eigenvalues --    2.69142   2.69268   2.69563   2.69816   2.69994
 Alpha virt. eigenvalues --    2.70403   2.70987   2.71286   2.71869   2.72140
 Alpha virt. eigenvalues --    2.72450   2.72582   2.72705   2.72917   2.73083
 Alpha virt. eigenvalues --    2.73476   2.73545   2.73595   2.74476   2.74736
 Alpha virt. eigenvalues --    2.74838   2.75321   2.76625   2.76741   2.77045
 Alpha virt. eigenvalues --    2.77288   2.77367   2.77939   2.78140   2.78515
 Alpha virt. eigenvalues --    2.78660   2.78956   2.79044   2.79387   2.80145
 Alpha virt. eigenvalues --    2.80401   2.80711   2.80897   2.81070   2.81478
 Alpha virt. eigenvalues --    2.81796   2.82269   2.82339   2.82556   2.83509
 Alpha virt. eigenvalues --    2.83700   2.84082   2.84326   2.84471   2.84920
 Alpha virt. eigenvalues --    2.84926   2.85093   2.85673   2.86280   2.86870
 Alpha virt. eigenvalues --    2.86963   2.87307   2.87448   2.88066   2.88584
 Alpha virt. eigenvalues --    2.88763   2.88865   2.88935   2.89492   2.90552
 Alpha virt. eigenvalues --    2.90840   2.91260   2.91436   2.93020   2.93604
 Alpha virt. eigenvalues --    2.94009   2.94158   2.94666   2.94980   2.95240
 Alpha virt. eigenvalues --    2.95647   2.95867   2.95926   2.96548   2.96668
 Alpha virt. eigenvalues --    2.96981   2.97103   2.97582   2.98119   2.98153
 Alpha virt. eigenvalues --    2.98482   2.98521   2.98644   2.98840   2.98991
 Alpha virt. eigenvalues --    2.99153   2.99353   2.99730   2.99859   3.00141
 Alpha virt. eigenvalues --    3.00170   3.00293   3.00422   3.01101   3.01535
 Alpha virt. eigenvalues --    3.01949   3.02128   3.02157   3.02398   3.02532
 Alpha virt. eigenvalues --    3.02885   3.03147   3.03381   3.03872   3.04108
 Alpha virt. eigenvalues --    3.04265   3.04319   3.04638   3.04752   3.04993
 Alpha virt. eigenvalues --    3.05079   3.05342   3.05800   3.06074   3.06357
 Alpha virt. eigenvalues --    3.06707   3.07165   3.08221   3.08638   3.09251
 Alpha virt. eigenvalues --    3.09674   3.09932   3.10364   3.10577   3.10967
 Alpha virt. eigenvalues --    3.11398   3.11704   3.11756   3.12058   3.12480
 Alpha virt. eigenvalues --    3.12617   3.13139   3.13713   3.13785   3.13852
 Alpha virt. eigenvalues --    3.13980   3.14584   3.16189   3.16313   3.17174
 Alpha virt. eigenvalues --    3.17752   3.18133   3.18258   3.19115   3.19427
 Alpha virt. eigenvalues --    3.21857   3.22722   3.23785   3.24388   3.24684
 Alpha virt. eigenvalues --    3.25391   3.26360   3.26903   3.27496   3.27611
 Alpha virt. eigenvalues --    3.28615   3.29324   3.31400   3.31622   3.33302
 Alpha virt. eigenvalues --    3.33431   3.40324   3.40327   3.42740   3.43162
 Alpha virt. eigenvalues --    3.48442   3.48913   3.49913   3.50529   3.51085
 Alpha virt. eigenvalues --    3.51371   3.56448   3.57295   3.59075   3.59565
 Alpha virt. eigenvalues --    3.62665   3.62777   3.66139   3.66864   3.67070
 Alpha virt. eigenvalues --    3.67639   3.72995   3.74139   3.75870   3.76816
          Condensed to atoms (all electrons):
 Mulliken charges:
               1
     1  Mg   0.836635
     2  C   -0.006627
     3  C   -0.094048
     4  C   -0.044733
     5  C   -0.062069
     6  N   -0.257310
     7  C   -0.052940
     8  C   -0.014061
     9  C   -0.087162
    10  C    0.047012
    11  C    0.104635
    12  C    0.053362
    13  C   -0.071648
    14  H    0.034103
    15  N   -0.433598
    16  C    0.169481
    17  C   -0.176253
    18  C   -0.002903
    19  C    0.149504
    20  C    0.109876
    21  C    0.013282
    22  O   -0.248314
    23  C    0.061937
    24  N   -0.341931
    25  C    0.043033
    26  C   -0.028162
    27  C   -0.023483
    28  C    0.075867
    29  C    0.076214
    30  C    0.033212
    31  C   -0.002242
    32  N   -0.308763
    33  C    0.074710
    34  C   -0.171552
    35  C    0.006719
    36  C    0.077923
    37  C    0.127901
    38  C    0.041349
    39  O   -0.189553
    40  C   -0.004648
    41  C    0.216055
    42  O   -0.262433
    43  O   -0.302958
    44  C    0.157865
    45  H   -0.016991
    46  H   -0.015498
    47  H   -0.039753
    48  H    0.000667
    49  H   -0.003448
    50  H    0.025498
    51  H    0.017031
    52  H    0.017256
    53  H    0.012434
    54  H    0.041212
    55  H    0.018466
    56  H    0.019317
    57  H    0.006132
    58  H    0.027522
    59  H    0.041666
    60  H    0.037299
    61  H    0.036684
    62  H    0.033056
    63  H    0.018384
    64  H    0.008508
    65  H    0.023549
    66  H    0.011552
    67  H    0.005016
    68  H    0.004478
    69  H    0.005050
    70  H    0.002428
    71  H    0.033701
    72  H    0.024132
    73  H    0.044945
    74  H    0.011388
    75  H    0.046438
    76  H    0.036250
    77  H    0.044146
    78  H    0.047698
    79  H    0.051121
    80  Mg   0.835973
    81  C   -0.016948
    82  C   -0.084513
    83  C   -0.046341
    84  C   -0.065196
    85  N   -0.254311
    86  C   -0.051200
    87  C   -0.015019
    88  C   -0.090426
    89  C    0.044718
    90  C    0.114384
    91  C    0.062310
    92  C   -0.077048
    93  H    0.032127
    94  N   -0.423723
    95  C    0.161590
    96  C   -0.172669
    97  C   -0.009965
    98  C    0.152628
    99  C    0.098528
   100  C    0.015329
   101  O   -0.257898
   102  C    0.058696
   103  N   -0.350191
   104  C    0.038299
   105  C   -0.019831
   106  C   -0.034350
   107  C    0.088211
   108  C    0.073999
   109  C    0.034977
   110  C   -0.007269
   111  N   -0.323664
   112  C    0.077130
   113  C   -0.164326
   114  C    0.001699
   115  C    0.095096
   116  C    0.131748
   117  C    0.041404
   118  O   -0.189833
   119  C    0.001102
   120  C    0.211183
   121  O   -0.252025
   122  O   -0.305442
   123  C    0.152455
   124  H   -0.017451
   125  H   -0.016781
   126  H   -0.041585
   127  H   -0.001469
   128  H   -0.003334
   129  H    0.021851
   130  H    0.014816
   131  H    0.016182
   132  H    0.014754
   133  H    0.036599
   134  H    0.020693
   135  H    0.019661
   136  H    0.010395
   137  H    0.024907
   138  H    0.058701
   139  H    0.040873
   140  H    0.029631
   141  H    0.048001
   142  H    0.013532
   143  H    0.011685
   144  H    0.023901
   145  H    0.011843
   146  H    0.005342
   147  H    0.005231
   148  H    0.003154
   149  H    0.010620
   150  H    0.017661
   151  H    0.030328
   152  H    0.044787
   153  H    0.007766
   154  H    0.046043
   155  H    0.034471
   156  H    0.043388
   157  H    0.049174
   158  H    0.052614
 Sum of Mulliken charges =  -0.00000
 Mulliken charges with hydrogens summed into heavy atoms:
               1
     1  Mg   0.836635
     2  C   -0.006627
     3  C   -0.111039
     4  C   -0.060231
     5  C   -0.101822
     6  N   -0.257310
     7  C   -0.052940
     8  C   -0.013395
     9  C   -0.090610
    10  C    0.047012
    11  C    0.164420
    12  C    0.107008
    13  C    0.000238
    15  N   -0.433598
    16  C    0.169481
    17  C   -0.176253
    18  C   -0.002903
    19  C    0.149504
    20  C    0.185196
    21  C    0.013282
    22  O   -0.248314
    23  C    0.168976
    24  N   -0.341931
    25  C    0.043033
    26  C   -0.009778
    27  C   -0.014975
    28  C    0.075867
    29  C    0.116331
    30  C    0.042740
    31  C    0.058019
    32  N   -0.308763
    33  C    0.074710
    34  C   -0.171552
    35  C    0.006719
    36  C    0.077923
    37  C    0.230672
    38  C    0.041349
    39  O   -0.189553
    40  C    0.031602
    41  C    0.216055
    42  O   -0.262433
    43  O   -0.302958
    44  C    0.300831
    80  Mg   0.835973
    81  C   -0.016948
    82  C   -0.101964
    83  C   -0.063121
    84  C   -0.106781
    85  N   -0.254311
    86  C   -0.051200
    87  C   -0.016488
    88  C   -0.093761
    89  C    0.044718
    90  C    0.167232
    91  C    0.113664
    92  C   -0.004567
    94  N   -0.423723
    95  C    0.161590
    96  C   -0.172669
    97  C   -0.009965
    98  C    0.152628
    99  C    0.192530
   100  C    0.015329
   101  O   -0.257898
   102  C    0.177200
   103  N   -0.350191
   104  C    0.038299
   105  C   -0.006299
   106  C   -0.022665
   107  C    0.088211
   108  C    0.115085
   109  C    0.043362
   110  C    0.051340
   111  N   -0.323664
   112  C    0.077130
   113  C   -0.164326
   114  C    0.001699
   115  C    0.095096
   116  C    0.230343
   117  C    0.041404
   118  O   -0.189833
   119  C    0.035573
   120  C    0.211183
   121  O   -0.252025
   122  O   -0.305442
   123  C    0.297631
 Electronic spatial extent (au):  <R**2>=         102163.6369
 Charge=             -0.0000 electrons
 Dipole moment (field-independent basis, Debye):
    X=              3.7640    Y=              3.1713    Z=              1.1999  Tot=              5.0660
 Quadrupole moment (field-independent basis, Debye-Ang):
   XX=           -538.8513   YY=           -464.3302   ZZ=           -515.6500
   XY=              7.1723   XZ=             45.9929   YZ=             22.7105
 Traceless Quadrupole moment (field-independent basis, Debye-Ang):
   XX=            -32.5741   YY=             41.9470   ZZ=             -9.3728
   XY=              7.1723   XZ=             45.9929   YZ=             22.7105
 Octapole moment (field-independent basis, Debye-Ang**2):
  XXX=            476.7729  YYY=            229.5717  ZZZ=            201.9919  XYY=           -164.5764
  XXY=            -96.8850  XXZ=           -115.3616  XZZ=             41.7848  YZZ=            100.2166
  YYZ=            -35.4405  XYZ=            161.2387
 Hexadecapole moment (field-independent basis, Debye-Ang**3):
 XXXX=         -85836.4696 YYYY=         -33154.0916 ZZZZ=         -22328.2377 XXXY=            332.7348
 XXXZ=           2177.9973 YYYX=            241.7020 YYYZ=            366.8853 ZZZX=            710.9834
 ZZZY=            428.8226 XXYY=         -17516.5494 XXZZ=         -18055.0340 YYZZ=          -9967.8962
 XXYZ=            968.7575 YYXZ=           -508.0528 ZZXY=           -200.0683
 N-N= 1.553602178004D+04 E-N=-4.055337051660D+04  KE= 4.028783354257D+03
 Leave Link  601 at Thu Sep  9 14:55:16 2021, MaxMem= 23488102400 cpu:              16.6 elap:               0.8
 (Enter /sw/apps/gaussian-16.0/g16/l9999.exe)
 1\1\GINC-BP1-COMPUTE00082\SP\RCAM-B3LYP TD-FC\def2SVP\C68H72Mg2N8O8\OF
 15641\09-Sep-2021\0\\#p cam-b3lyp/Def2SVP td=(nstates=5)\\TDDFT excite
 d states in gaussian\\0,1\Mg,0,0.,0.,0.\C,0,-0.217,-2.218,2.801\C,0,-1
 .255,2.442,2.026\C,0,-0.245,1.85,-2.564\C,0,0.146,-2.824,-2.037\N,0,-0
 .617,-0.009,2.126\C,0,-0.594,-0.908,3.105\C,0,-0.936,-0.309,4.502\C,0,
 -1.773,0.964,4.032\C,0,-1.155,1.168,2.66\C,0,-3.263,0.685,3.863\C,0,0.
 345,0.11,5.299\C,0,0.124,0.397,6.787\H,0,1.168,0.033,7.733\N,0,-0.185,
 1.961,-0.152\C,0,-0.703,2.8,0.777\C,0,-0.62,4.156,0.193\C,0,-0.187,4.0
 15,-1.225\C,0,-0.214,2.583,-1.38\C,0,-0.887,5.406,0.974\C,0,0.181,5.01
 3,-2.277\O,0,0.303,4.69,-3.508\C,0,0.31,6.414,-1.837\N,0,-0.265,-0.413
 ,-2.029\C,0,-0.279,0.569,-2.937\C,0,-0.196,0.024,-4.332\C,0,0.124,-1.5
 33,-4.18\C,0,0.086,-1.632,-2.635\C,0,-1.451,0.205,-5.197\C,0,1.373,-2.
 07,-4.923\C,0,2.626,-1.49,-4.306\N,0,0.15,-2.144,0.303\C,0,0.173,-3.13
 6,-0.688\C,0,0.173,-4.438,0.004\C,0,0.133,-4.111,1.358\C,0,0.083,-2.69
 5,1.502\C,0,0.149,-5.715,-0.623\C,0,0.096,-4.629,2.716\O,0,0.208,-5.74
 7,3.221\C,0,-0.255,-3.428,3.701\C,0,0.717,-3.482,4.848\O,0,1.931,-3.25
 5,4.669\O,0,0.038,-3.556,6.003\C,0,0.943,-3.583,7.183\H,0,-1.859,3.22,
 2.497\H,0,-0.218,2.453,-3.474\H,0,0.276,-3.747,-2.605\H,0,-1.554,-0.94
 9,5.132\H,0,-1.585,1.831,4.665\H,0,-3.484,-0.377,3.969\H,0,-3.511,1.02
 7,2.858\H,0,-3.852,1.301,4.543\H,0,0.669,1.096,4.966\H,0,1.13,-0.639,5
 .189\H,0,-0.844,0.026,7.125\H,0,0.062,1.477,6.921\H,0,-1.344,5.186,1.9
 38\H,0,-1.651,5.963,0.432\H,0,0.007,6.02,1.084\H,0,-0.635,6.744,-1.405
 \H,0,0.665,6.97,-2.704\H,0,1.048,6.466,-1.036\H,0,0.608,0.501,-4.891\H
 ,0,-0.692,-2.156,-4.547\H,0,-1.267,0.74,-6.129\H,0,-2.204,0.714,-4.596
 \H,0,-1.967,-0.72,-5.453\H,0,1.356,-1.759,-5.967\H,0,1.452,-3.157,-4.9
 02\H,0,2.714,-0.522,-4.798\H,0,3.487,-2.121,-4.529\H,0,2.495,-1.303,-3
 .24\H,0,0.867,-6.333,-0.084\H,0,0.404,-5.642,-1.68\H,0,-0.891,-5.999,-
 0.463\H,0,-1.283,-3.581,4.028\H,0,0.698,-4.478,7.755\H,0,0.833,-2.619,
 7.68\H,0,2.,-3.754,6.976\Mg,0,8.92581,0.80689,0.6846\C,0,10.47462,2.80
 315,3.23317\C,0,7.88497,-1.2877,3.16732\C,0,7.94006,-1.20513,-1.56206\
 C,0,11.01052,2.38229,-1.62144\N,0,9.20578,0.85815,2.87805\C,0,9.75939,
 1.69803,3.73972\C,0,9.46577,1.37712,5.22982\C,0,9.1586,-0.19215,5.0818
 4\C,0,8.68535,-0.21272,3.62985\C,0,10.40022,-1.06142,5.19187\C,0,8.218
 48,2.15768,5.77481\C,0,8.0584,2.13217,7.29648\H,0,7.52639,3.31905,7.96
 037\N,0,7.64201,-0.70309,0.78643\C,0,7.32206,-1.42682,1.87965\C,0,6.34
 876,-2.43225,1.42583\C,0,6.24469,-2.34883,-0.05637\C,0,7.31025,-1.4094
 ,-0.34298\C,0,5.56762,-3.29472,2.3742\C,0,5.34458,-3.01527,-1.05229\O,
 0,5.58699,-2.97696,-2.31031\C,0,4.22301,-3.79252,-0.50508\N,0,9.54745,
 0.45999,-1.26875\C,0,8.91415,-0.43497,-2.04716\C,0,9.35592,-0.31545,-3
 .48624\C,0,10.24325,1.0133,-3.55431\C,0,10.23424,1.40049,-2.05919\C,0,
 10.16085,-1.4933,-4.03502\C,0,9.82615,2.0854,-4.59801\C,0,8.49504,2.68
 991,-4.21319\N,0,10.33552,2.44366,0.72658\C,0,11.11923,2.92214,-0.3462
 4\C,0,12.00736,3.97028,0.19695\C,0,11.69243,4.01315,1.56351\C,0,10.693
 87,3.04509,1.85544\C,0,12.98363,4.69772,-0.5405\C,0,11.98524,4.64988,2
 .82745\O,0,12.68164,5.60077,3.18038\C,0,11.30014,3.80759,3.9883\C,0,10
 .57929,4.76711,4.89507\O,0,9.60301,5.41635,4.48039\O,0,11.02148,4.5996
 4,6.15474\C,0,10.32809,5.52177,7.0932\H,0,7.70392,-2.12657,3.83993\H,0
 ,7.55761,-1.7987,-2.39566\H,0,11.62016,2.9888,-2.29462\H,0,10.30234,1.
 53059,5.90092\H,0,8.35801,-0.50248,5.74825\H,0,11.30322,-0.47066,5.233
 57\H,0,10.39903,-1.68897,4.31027\H,0,10.31087,-1.74004,6.04499\H,0,7.3
 0557,1.6239,5.48087\H,0,8.2235,3.17306,5.42896\H,0,8.96834,1.78504,7.8
 0091\H,0,7.30658,1.38212,7.55378\H,0,5.97751,-3.24836,3.39068\H,0,5.72
 495,-4.33373,2.06502\H,0,4.49726,-3.07872,2.35574\H,0,4.60832,-4.5713,
 0.14875\H,0,3.64299,-4.11788,-1.37087\H,0,3.61108,-3.13181,0.11912\H,0
 ,8.5032,-0.20268,-4.14445\H,0,11.28863,0.79224,-3.81538\H,0,9.70896,-1
 .94852,-4.93649\H,0,10.26686,-2.22976,-3.24958\H,0,11.19694,-1.26907,-
 4.28286\H,0,9.6858,1.6246,-5.57888\H,0,10.55575,2.87951,-4.71669\H,0,7
 .77308,1.96984,-4.6099\H,0,8.37093,3.66788,-4.67386\H,0,8.37332,2.7127
 4,-3.12401\H,0,12.89851,5.73182,-0.23407\H,0,12.8362,4.58657,-1.61273\
 H,0,13.89597,4.20211,-0.19804\H,0,12.09009,3.26611,4.51017\H,0,11.1043
 1,6.09284,7.6119\H,0,9.67481,4.8804,7.71417\H,0,9.731,6.31786,6.66405\
 \Version=ES64L-G16RevA.03\State=1-A\HF=-4069.816956\RMSD=8.564e-09\PG=
 C01 [X(C68H72Mg2N8O8)]\\@


 MY GROUP MEETINGS AREN'T VERY STRUCTURED.
     -- PROF. M. S. GORDON, OCT. 5, 1984
 Job cpu time:       0 days 16 hours 42 minutes 14.1 seconds.
 Elapsed time:       0 days  0 hours 42 minutes 27.2 seconds.
 File lengths (MBytes):  RWF=  13225 Int=      0 D2E=      0 Chk=    574 Scr=      1
 Normal termination of Gaussian 16 at Thu Sep  9 14:55:17 2021.
