 Entering Gaussian System, Link 0=g16
 Initial command:
 /sw/apps/gaussian-16.0/g16/l1.exe "/tmp/Gau-248140.inp" -scrdir="/tmp/"
 Entering Link 1 = /sw/apps/gaussian-16.0/g16/l1.exe PID=    248141.
  
 Copyright (c) 1988,1990,1992,1993,1995,1998,2003,2009,2016,
            Gaussian, Inc.  All Rights Reserved.
  
 This is part of the Gaussian(R) 16 program.  It is based on
 the Gaussian(R) 09 system (copyright 2009, Gaussian, Inc.),
 the Gaussian(R) 03 system (copyright 2003, Gaussian, Inc.),
 the Gaussian(R) 98 system (copyright 1998, Gaussian, Inc.),
 the Gaussian(R) 94 system (copyright 1995, Gaussian, Inc.),
 the Gaussian 92(TM) system (copyright 1992, Gaussian, Inc.),
 the Gaussian 90(TM) system (copyright 1990, Gaussian, Inc.),
 the Gaussian 88(TM) system (copyright 1988, Gaussian, Inc.),
 the Gaussian 86(TM) system (copyright 1986, Carnegie Mellon
 University), and the Gaussian 82(TM) system (copyright 1983,
 Carnegie Mellon University). Gaussian is a federally registered
 trademark of Gaussian, Inc.
  
 This software contains proprietary and confidential information,
 including trade secrets, belonging to Gaussian, Inc.
  
 This software is provided under written license and may be
 used, copied, transmitted, or stored only in accord with that
 written license.
  
 The following legend is applicable only to US Government
 contracts under FAR:
  
                    RESTRICTED RIGHTS LEGEND
  
 Use, reproduction and disclosure by the US Government is
 subject to restrictions as set forth in subparagraphs (a)
 and (c) of the Commercial Computer Software - Restricted
 Rights clause in FAR 52.227-19.
  
 Gaussian, Inc.
 340 Quinnipiac St., Bldg. 40, Wallingford CT 06492
  
  
 ---------------------------------------------------------------
 Warning -- This program may not be used in any manner that
 competes with the business of Gaussian, Inc. or will provide
 assistance to any competitor of Gaussian, Inc.  The licensee
 of this program is prohibited from giving any competitor of
 Gaussian, Inc. access to this program.  By using this program,
 the user acknowledges that Gaussian, Inc. is engaged in the
 business of creating and licensing software in the field of
 computational chemistry and represents and warrants to the
 licensee that it is not a competitor of Gaussian, Inc. and that
 it will not use this program in any manner prohibited above.
 ---------------------------------------------------------------
  

 Cite this work as:
 Gaussian 16, Revision A.03,
 M. J. Frisch, G. W. Trucks, H. B. Schlegel, G. E. Scuseria, 
 M. A. Robb, J. R. Cheeseman, G. Scalmani, V. Barone, 
 G. A. Petersson, H. Nakatsuji, X. Li, M. Caricato, A. V. Marenich, 
 J. Bloino, B. G. Janesko, R. Gomperts, B. Mennucci, H. P. Hratchian, 
 J. V. Ortiz, A. F. Izmaylov, J. L. Sonnenberg, D. Williams-Young, 
 F. Ding, F. Lipparini, F. Egidi, J. Goings, B. Peng, A. Petrone, 
 T. Henderson, D. Ranasinghe, V. G. Zakrzewski, J. Gao, N. Rega, 
 G. Zheng, W. Liang, M. Hada, M. Ehara, K. Toyota, R. Fukuda, 
 J. Hasegawa, M. Ishida, T. Nakajima, Y. Honda, O. Kitao, H. Nakai, 
 T. Vreven, K. Throssell, J. A. Montgomery, Jr., J. E. Peralta, 
 F. Ogliaro, M. J. Bearpark, J. J. Heyd, E. N. Brothers, K. N. Kudin, 
 V. N. Staroverov, T. A. Keith, R. Kobayashi, J. Normand, 
 K. Raghavachari, A. P. Rendell, J. C. Burant, S. S. Iyengar, 
 J. Tomasi, M. Cossi, J. M. Millam, M. Klene, C. Adamo, R. Cammi, 
 J. W. Ochterski, R. L. Martin, K. Morokuma, O. Farkas, 
 J. B. Foresman, and D. J. Fox, Gaussian, Inc., Wallingford CT, 2016.
 
 ******************************************
 Gaussian 16:  ES64L-G16RevA.03 25-Dec-2016
                 4-Sep-2021 
 ******************************************
 %nproc=24
 Will use up to   24 processors via shared memory.
 %mem=175gb
 -----------------------------------
 #p cam-b3lyp/Def2SVP td=(nstates=5)
 -----------------------------------
 1/38=1,172=1/1;
 2/12=2,17=6,18=5,40=1/2;
 3/5=43,7=101,11=9,25=1,30=1,74=-40/1,2,3,8;
 4//1;
 5/5=2,38=5/2;
 8/6=1,10=1,108=5/1;
 9/41=5,42=1,70=2/14;
 6/7=2,8=2,9=2,10=2/1;
 99/5=1,9=1/99;
 Leave Link    1 at Sat Sep  4 18:52:12 2021, MaxMem= 23488102400 cpu:               0.9 elap:               0.0
 (Enter /sw/apps/gaussian-16.0/g16/l101.exe)
 --------------------------------
 TDDFT excited states in gaussian
 --------------------------------
 Symbolic Z-matrix:
 Charge =  0 Multiplicity = 1
 Mg                    0.        0.        0. 
 C                    -0.217    -2.218     2.801 
 C                    -1.255     2.442     2.026 
 C                    -0.245     1.85     -2.564 
 C                     0.146    -2.824    -2.037 
 N                    -0.617    -0.009     2.126 
 C                    -0.594    -0.908     3.105 
 C                    -0.936    -0.309     4.502 
 C                    -1.773     0.964     4.032 
 C                    -1.155     1.168     2.66 
 C                    -3.263     0.685     3.863 
 C                     0.345     0.11      5.299 
 C                     0.124     0.397     6.787 
 H                     1.168     0.033     7.733 
 N                    -0.185     1.961    -0.152 
 C                    -0.703     2.8       0.777 
 C                    -0.62      4.156     0.193 
 C                    -0.187     4.015    -1.225 
 C                    -0.214     2.583    -1.38 
 C                    -0.887     5.406     0.974 
 C                     0.181     5.013    -2.277 
 O                     0.303     4.69     -3.508 
 C                     0.31      6.414    -1.837 
 N                    -0.265    -0.413    -2.029 
 C                    -0.279     0.569    -2.937 
 C                    -0.196     0.024    -4.332 
 C                     0.124    -1.533    -4.18 
 C                     0.086    -1.632    -2.635 
 C                    -1.451     0.205    -5.197 
 C                     1.373    -2.07     -4.923 
 C                     2.626    -1.49     -4.306 
 N                     0.15     -2.144     0.303 
 C                     0.173    -3.136    -0.688 
 C                     0.173    -4.438     0.004 
 C                     0.133    -4.111     1.358 
 C                     0.083    -2.695     1.502 
 C                     0.149    -5.715    -0.623 
 C                     0.096    -4.629     2.716 
 O                     0.208    -5.747     3.221 
 C                    -0.255    -3.428     3.701 
 C                     0.717    -3.482     4.848 
 O                     1.931    -3.255     4.669 
 O                     0.038    -3.556     6.003 
 C                     0.943    -3.583     7.183 
 H                    -1.859     3.22      2.497 
 H                    -0.218     2.453    -3.474 
 H                     0.276    -3.747    -2.605 
 H                    -1.554    -0.949     5.132 
 H                    -1.585     1.831     4.665 
 H                    -3.484    -0.377     3.969 
 H                    -3.511     1.027     2.858 
 H                    -3.852     1.301     4.543 
 H                     0.669     1.096     4.966 
 H                     1.13     -0.639     5.189 
 H                    -0.844     0.026     7.125 
 H                     0.062     1.477     6.921 
 H                    -1.344     5.186     1.938 
 H                    -1.651     5.963     0.432 
 H                     0.007     6.02      1.084 
 H                    -0.635     6.744    -1.405 
 H                     0.665     6.97     -2.704 
 H                     1.048     6.466    -1.036 
 H                     0.608     0.501    -4.891 
 H                    -0.692    -2.156    -4.547 
 H                    -1.267     0.74     -6.129 
 H                    -2.204     0.714    -4.596 
 H                    -1.967    -0.72     -5.453 
 H                     1.356    -1.759    -5.967 
 H                     1.452    -3.157    -4.902 
 H                     2.714    -0.522    -4.798 
 H                     3.487    -2.121    -4.529 
 H                     2.495    -1.303    -3.24 
 H                     0.867    -6.333    -0.084 
 H                     0.404    -5.642    -1.68 
 H                    -0.891    -5.999    -0.463 
 H                    -1.283    -3.581     4.028 
 H                     0.698    -4.478     7.755 
 H                     0.833    -2.619     7.68 
 H                     2.       -3.754     6.976 
 Mg                    31.53917   2.84706   2.39461 
 C                     30.94677   4.46559   5.54238 
 C                     30.51088   5.72961   0.88858 
 C                     31.61938   1.3092   -0.37956 
 C                     31.41484  -0.19387   4.09256 
 N                     30.84382   4.77925   3.21643 
 C                     30.71891   5.29966   4.428 
 C                     30.40593   6.81995   4.44586 
 C                     29.74023   6.94553   2.98986 
 C                     30.42965   5.76812   2.30351 
 C                     28.24244   6.68874   2.98874 
 C                     31.7026   7.69582   4.56209 
 C                     31.45592   9.16887   4.89532 
 H                     32.41788   9.8598    5.74955 
 N                     31.60077   3.54801   0.53896 
 C                     31.16017   4.74843   0.10752 
 C                     31.41368   4.77304  -1.34137 
 C                     31.88861   3.42543  -1.75743 
 C                     31.69732   2.68658  -0.52552 
 C                     31.27827   6.01734  -2.17011 
 C                     32.41438   2.88727  -3.05364 
 O                     32.54406   1.62843  -3.25693 
 C                     32.68472   3.87236  -4.11099 
 N                     31.30975   0.84443   1.88549 
 C                     31.44362   0.43522   0.6117 
 C                     31.51079  -1.07099   0.52683 
 C                     31.63774  -1.58116   2.03719 
 C                     31.52738  -0.22708   2.7718 
 C                     30.31778  -1.75345  -0.14202 
 C                     32.84071  -2.50612   2.36883 
 C                     34.13406  -1.73185   2.2541 
 N                     31.42299   2.22229   4.45961 
 C                     31.35635   0.89897   4.94794 
 C                     31.17292   0.98365   6.41136 
 C                     31.12208   2.36131   6.67209 
 C                     31.24358   3.08395   5.4545 
 C                     31.02877  -0.12132   7.29701 
 C                     30.98261   3.36841   7.69922 
 O                     30.93274   3.35441   8.92846 
 C                     30.73599   4.77376   6.99882 
 C                     31.65081   5.77998   7.64159 
 O                     32.88452   5.68045   7.52059 
 O                     30.91788   6.80824   8.1062 
 C                     31.78193   7.83772   8.74292 
 H                     29.99288   6.50095   0.31798 
 H                     31.75322   0.72963  -1.29589 
 H                     31.46519  -1.09627   4.70559 
 H                     29.69862   7.12922   5.20602 
 H                     30.0148   7.881     2.50936 
 H                     27.89155   6.34698   3.95115 
 H                     28.07435   5.9316    2.23407 
 H                     27.70754   7.57932   2.64655 
 H                     32.15384   7.80128   3.5671 
 H                     32.38499   7.27367   5.27397 
 H                     30.43246   9.34598   5.24763 
 H                     31.52602   9.74985   3.97252 
 H                     30.75436   6.81039  -1.62241 
 H                     30.60967   5.77538  -3.00336 
 H                     32.23353   6.36175  -2.57204 
 H                     31.77193   4.41793  -4.33822 
 H                     33.13779   3.30733  -4.9279 
 H                     33.40346   4.60636  -3.72983 
 H                     32.38632  -1.38851  -0.02611 
 H                     30.76376  -2.17577   2.34123 
 H                     30.60329  -2.38474  -1.0046 
 H                     29.6141  -0.98993  -0.446 
 H                     29.71347  -2.37593   0.51564 
 H                     32.9021  -3.32199   1.64444 
 H                     32.78167  -2.9547    3.35487 
 H                     34.35144  -1.77192   1.18255 
 H                     34.92005  -2.21084   2.83448 
 H                     33.98748  -0.67894   2.52157 
 H                     31.63963   0.09275   8.16391 
 H                     31.32544  -1.05365   6.82107 
 H                     29.95264  -0.08101   7.48562 
 H                     29.6847   5.02894   7.13758 
 H                     31.40557   7.98624   9.75977 
 H                     31.75646   8.71065   8.06387 
 H                     32.81537   7.57485   8.93619 
 
 ITRead=  0  0  0  0  0  0  0  0  0  0  0  0  0  0  0  0  0  0  0  0
 ITRead=  0  0  0  0  0  0  0  0  0  0  0  0  0  0  0  0  0  0  0  0
 ITRead=  0  0  0  0  0  0  0  0  0  0  0  0  0  0  0  0  0  0  0  0
 ITRead=  0  0  0  0  0  0  0  0  0  0  0  0  0  0  0  0  0  0  0  0
 ITRead=  0  0  0  0  0  0  0  0  0  0  0  0  0  0  0  0  0  0  0  0
 ITRead=  0  0  0  0  0  0  0  0  0  0  0  0  0  0  0  0  0  0  0  0
 ITRead=  0  0  0  0  0  0  0  0  0  0  0  0  0  0  0  0  0  0  0  0
 ITRead=  0  0  0  0  0  0  0  0  0  0  0  0  0  0  0  0  0  0
 MicOpt= -1 -1 -1 -1 -1 -1 -1 -1 -1 -1 -1 -1 -1 -1 -1 -1 -1 -1 -1 -1
 MicOpt= -1 -1 -1 -1 -1 -1 -1 -1 -1 -1 -1 -1 -1 -1 -1 -1 -1 -1 -1 -1
 MicOpt= -1 -1 -1 -1 -1 -1 -1 -1 -1 -1 -1 -1 -1 -1 -1 -1 -1 -1 -1 -1
 MicOpt= -1 -1 -1 -1 -1 -1 -1 -1 -1 -1 -1 -1 -1 -1 -1 -1 -1 -1 -1 -1
 MicOpt= -1 -1 -1 -1 -1 -1 -1 -1 -1 -1 -1 -1 -1 -1 -1 -1 -1 -1 -1 -1
 MicOpt= -1 -1 -1 -1 -1 -1 -1 -1 -1 -1 -1 -1 -1 -1 -1 -1 -1 -1 -1 -1
 MicOpt= -1 -1 -1 -1 -1 -1 -1 -1 -1 -1 -1 -1 -1 -1 -1 -1 -1 -1 -1 -1
 MicOpt= -1 -1 -1 -1 -1 -1 -1 -1 -1 -1 -1 -1 -1 -1 -1 -1 -1 -1
 NAtoms=    158 NQM=      158 NQMF=       0 NMMI=      0 NMMIF=      0
                NMic=       0 NMicF=      0.
                    Isotopes and Nuclear Properties:
 (Nuclear quadrupole moments (NQMom) in fm**2, nuclear magnetic moments (NMagM)
  in nuclear magnetons)

  Atom         1           2           3           4           5           6           7           8           9          10
 IAtWgt=          24          12          12          12          12          14          12          12          12          12
 AtmWgt=  23.9850450  12.0000000  12.0000000  12.0000000  12.0000000  14.0030740  12.0000000  12.0000000  12.0000000  12.0000000
 NucSpn=           0           0           0           0           0           2           0           0           0           0
 AtZEff=  -0.0000000  -0.0000000  -0.0000000  -0.0000000  -0.0000000  -0.0000000  -0.0000000  -0.0000000  -0.0000000  -0.0000000
 NQMom=    0.0000000   0.0000000   0.0000000   0.0000000   0.0000000   2.0440000   0.0000000   0.0000000   0.0000000   0.0000000
 NMagM=    0.0000000   0.0000000   0.0000000   0.0000000   0.0000000   0.4037610   0.0000000   0.0000000   0.0000000   0.0000000
 AtZNuc=  12.0000000   6.0000000   6.0000000   6.0000000   6.0000000   7.0000000   6.0000000   6.0000000   6.0000000   6.0000000

  Atom        11          12          13          14          15          16          17          18          19          20
 IAtWgt=          12          12          12           1          14          12          12          12          12          12
 AtmWgt=  12.0000000  12.0000000  12.0000000   1.0078250  14.0030740  12.0000000  12.0000000  12.0000000  12.0000000  12.0000000
 NucSpn=           0           0           0           1           2           0           0           0           0           0
 AtZEff=  -0.0000000  -0.0000000  -0.0000000  -0.0000000  -0.0000000  -0.0000000  -0.0000000  -0.0000000  -0.0000000  -0.0000000
 NQMom=    0.0000000   0.0000000   0.0000000   0.0000000   2.0440000   0.0000000   0.0000000   0.0000000   0.0000000   0.0000000
 NMagM=    0.0000000   0.0000000   0.0000000   2.7928460   0.4037610   0.0000000   0.0000000   0.0000000   0.0000000   0.0000000
 AtZNuc=   6.0000000   6.0000000   6.0000000   1.0000000   7.0000000   6.0000000   6.0000000   6.0000000   6.0000000   6.0000000

  Atom        21          22          23          24          25          26          27          28          29          30
 IAtWgt=          12          16          12          14          12          12          12          12          12          12
 AtmWgt=  12.0000000  15.9949146  12.0000000  14.0030740  12.0000000  12.0000000  12.0000000  12.0000000  12.0000000  12.0000000
 NucSpn=           0           0           0           2           0           0           0           0           0           0
 AtZEff=  -0.0000000  -0.0000000  -0.0000000  -0.0000000  -0.0000000  -0.0000000  -0.0000000  -0.0000000  -0.0000000  -0.0000000
 NQMom=    0.0000000   0.0000000   0.0000000   2.0440000   0.0000000   0.0000000   0.0000000   0.0000000   0.0000000   0.0000000
 NMagM=    0.0000000   0.0000000   0.0000000   0.4037610   0.0000000   0.0000000   0.0000000   0.0000000   0.0000000   0.0000000
 AtZNuc=   6.0000000   8.0000000   6.0000000   7.0000000   6.0000000   6.0000000   6.0000000   6.0000000   6.0000000   6.0000000

  Atom        31          32          33          34          35          36          37          38          39          40
 IAtWgt=          12          14          12          12          12          12          12          12          16          12
 AtmWgt=  12.0000000  14.0030740  12.0000000  12.0000000  12.0000000  12.0000000  12.0000000  12.0000000  15.9949146  12.0000000
 NucSpn=           0           2           0           0           0           0           0           0           0           0
 AtZEff=  -0.0000000  -0.0000000  -0.0000000  -0.0000000  -0.0000000  -0.0000000  -0.0000000  -0.0000000  -0.0000000  -0.0000000
 NQMom=    0.0000000   2.0440000   0.0000000   0.0000000   0.0000000   0.0000000   0.0000000   0.0000000   0.0000000   0.0000000
 NMagM=    0.0000000   0.4037610   0.0000000   0.0000000   0.0000000   0.0000000   0.0000000   0.0000000   0.0000000   0.0000000
 AtZNuc=   6.0000000   7.0000000   6.0000000   6.0000000   6.0000000   6.0000000   6.0000000   6.0000000   8.0000000   6.0000000

  Atom        41          42          43          44          45          46          47          48          49          50
 IAtWgt=          12          16          16          12           1           1           1           1           1           1
 AtmWgt=  12.0000000  15.9949146  15.9949146  12.0000000   1.0078250   1.0078250   1.0078250   1.0078250   1.0078250   1.0078250
 NucSpn=           0           0           0           0           1           1           1           1           1           1
 AtZEff=  -0.0000000  -0.0000000  -0.0000000  -0.0000000  -0.0000000  -0.0000000  -0.0000000  -0.0000000  -0.0000000  -0.0000000
 NQMom=    0.0000000   0.0000000   0.0000000   0.0000000   0.0000000   0.0000000   0.0000000   0.0000000   0.0000000   0.0000000
 NMagM=    0.0000000   0.0000000   0.0000000   0.0000000   2.7928460   2.7928460   2.7928460   2.7928460   2.7928460   2.7928460
 AtZNuc=   6.0000000   8.0000000   8.0000000   6.0000000   1.0000000   1.0000000   1.0000000   1.0000000   1.0000000   1.0000000

  Atom        51          52          53          54          55          56          57          58          59          60
 IAtWgt=           1           1           1           1           1           1           1           1           1           1
 AtmWgt=   1.0078250   1.0078250   1.0078250   1.0078250   1.0078250   1.0078250   1.0078250   1.0078250   1.0078250   1.0078250
 NucSpn=           1           1           1           1           1           1           1           1           1           1
 AtZEff=  -0.0000000  -0.0000000  -0.0000000  -0.0000000  -0.0000000  -0.0000000  -0.0000000  -0.0000000  -0.0000000  -0.0000000
 NQMom=    0.0000000   0.0000000   0.0000000   0.0000000   0.0000000   0.0000000   0.0000000   0.0000000   0.0000000   0.0000000
 NMagM=    2.7928460   2.7928460   2.7928460   2.7928460   2.7928460   2.7928460   2.7928460   2.7928460   2.7928460   2.7928460
 AtZNuc=   1.0000000   1.0000000   1.0000000   1.0000000   1.0000000   1.0000000   1.0000000   1.0000000   1.0000000   1.0000000

  Atom        61          62          63          64          65          66          67          68          69          70
 IAtWgt=           1           1           1           1           1           1           1           1           1           1
 AtmWgt=   1.0078250   1.0078250   1.0078250   1.0078250   1.0078250   1.0078250   1.0078250   1.0078250   1.0078250   1.0078250
 NucSpn=           1           1           1           1           1           1           1           1           1           1
 AtZEff=  -0.0000000  -0.0000000  -0.0000000  -0.0000000  -0.0000000  -0.0000000  -0.0000000  -0.0000000  -0.0000000  -0.0000000
 NQMom=    0.0000000   0.0000000   0.0000000   0.0000000   0.0000000   0.0000000   0.0000000   0.0000000   0.0000000   0.0000000
 NMagM=    2.7928460   2.7928460   2.7928460   2.7928460   2.7928460   2.7928460   2.7928460   2.7928460   2.7928460   2.7928460
 AtZNuc=   1.0000000   1.0000000   1.0000000   1.0000000   1.0000000   1.0000000   1.0000000   1.0000000   1.0000000   1.0000000

  Atom        71          72          73          74          75          76          77          78          79          80
 IAtWgt=           1           1           1           1           1           1           1           1           1          24
 AtmWgt=   1.0078250   1.0078250   1.0078250   1.0078250   1.0078250   1.0078250   1.0078250   1.0078250   1.0078250  23.9850450
 NucSpn=           1           1           1           1           1           1           1           1           1           0
 AtZEff=  -0.0000000  -0.0000000  -0.0000000  -0.0000000  -0.0000000  -0.0000000  -0.0000000  -0.0000000  -0.0000000  -0.0000000
 NQMom=    0.0000000   0.0000000   0.0000000   0.0000000   0.0000000   0.0000000   0.0000000   0.0000000   0.0000000   0.0000000
 NMagM=    2.7928460   2.7928460   2.7928460   2.7928460   2.7928460   2.7928460   2.7928460   2.7928460   2.7928460   0.0000000
 AtZNuc=   1.0000000   1.0000000   1.0000000   1.0000000   1.0000000   1.0000000   1.0000000   1.0000000   1.0000000  12.0000000

  Atom        81          82          83          84          85          86          87          88          89          90
 IAtWgt=          12          12          12          12          14          12          12          12          12          12
 AtmWgt=  12.0000000  12.0000000  12.0000000  12.0000000  14.0030740  12.0000000  12.0000000  12.0000000  12.0000000  12.0000000
 NucSpn=           0           0           0           0           2           0           0           0           0           0
 AtZEff=  -0.0000000  -0.0000000  -0.0000000  -0.0000000  -0.0000000  -0.0000000  -0.0000000  -0.0000000  -0.0000000  -0.0000000
 NQMom=    0.0000000   0.0000000   0.0000000   0.0000000   2.0440000   0.0000000   0.0000000   0.0000000   0.0000000   0.0000000
 NMagM=    0.0000000   0.0000000   0.0000000   0.0000000   0.4037610   0.0000000   0.0000000   0.0000000   0.0000000   0.0000000
 AtZNuc=   6.0000000   6.0000000   6.0000000   6.0000000   7.0000000   6.0000000   6.0000000   6.0000000   6.0000000   6.0000000

  Atom        91          92          93          94          95          96          97          98          99         100
 IAtWgt=          12          12           1          14          12          12          12          12          12          12
 AtmWgt=  12.0000000  12.0000000   1.0078250  14.0030740  12.0000000  12.0000000  12.0000000  12.0000000  12.0000000  12.0000000
 NucSpn=           0           0           1           2           0           0           0           0           0           0
 AtZEff=  -0.0000000  -0.0000000  -0.0000000  -0.0000000  -0.0000000  -0.0000000  -0.0000000  -0.0000000  -0.0000000  -0.0000000
 NQMom=    0.0000000   0.0000000   0.0000000   2.0440000   0.0000000   0.0000000   0.0000000   0.0000000   0.0000000   0.0000000
 NMagM=    0.0000000   0.0000000   2.7928460   0.4037610   0.0000000   0.0000000   0.0000000   0.0000000   0.0000000   0.0000000
 AtZNuc=   6.0000000   6.0000000   1.0000000   7.0000000   6.0000000   6.0000000   6.0000000   6.0000000   6.0000000   6.0000000

  Atom       101         102         103         104         105         106         107         108         109         110
 IAtWgt=          16          12          14          12          12          12          12          12          12          12
 AtmWgt=  15.9949146  12.0000000  14.0030740  12.0000000  12.0000000  12.0000000  12.0000000  12.0000000  12.0000000  12.0000000
 NucSpn=           0           0           2           0           0           0           0           0           0           0
 AtZEff=  -0.0000000  -0.0000000  -0.0000000  -0.0000000  -0.0000000  -0.0000000  -0.0000000  -0.0000000  -0.0000000  -0.0000000
 NQMom=    0.0000000   0.0000000   2.0440000   0.0000000   0.0000000   0.0000000   0.0000000   0.0000000   0.0000000   0.0000000
 NMagM=    0.0000000   0.0000000   0.4037610   0.0000000   0.0000000   0.0000000   0.0000000   0.0000000   0.0000000   0.0000000
 AtZNuc=   8.0000000   6.0000000   7.0000000   6.0000000   6.0000000   6.0000000   6.0000000   6.0000000   6.0000000   6.0000000

  Atom       111         112         113         114         115         116         117         118         119         120
 IAtWgt=          14          12          12          12          12          12          12          16          12          12
 AtmWgt=  14.0030740  12.0000000  12.0000000  12.0000000  12.0000000  12.0000000  12.0000000  15.9949146  12.0000000  12.0000000
 NucSpn=           2           0           0           0           0           0           0           0           0           0
 AtZEff=  -0.0000000  -0.0000000  -0.0000000  -0.0000000  -0.0000000  -0.0000000  -0.0000000  -0.0000000  -0.0000000  -0.0000000
 NQMom=    2.0440000   0.0000000   0.0000000   0.0000000   0.0000000   0.0000000   0.0000000   0.0000000   0.0000000   0.0000000
 NMagM=    0.4037610   0.0000000   0.0000000   0.0000000   0.0000000   0.0000000   0.0000000   0.0000000   0.0000000   0.0000000
 AtZNuc=   7.0000000   6.0000000   6.0000000   6.0000000   6.0000000   6.0000000   6.0000000   8.0000000   6.0000000   6.0000000

  Atom       121         122         123         124         125         126         127         128         129         130
 IAtWgt=          16          16          12           1           1           1           1           1           1           1
 AtmWgt=  15.9949146  15.9949146  12.0000000   1.0078250   1.0078250   1.0078250   1.0078250   1.0078250   1.0078250   1.0078250
 NucSpn=           0           0           0           1           1           1           1           1           1           1
 AtZEff=  -0.0000000  -0.0000000  -0.0000000  -0.0000000  -0.0000000  -0.0000000  -0.0000000  -0.0000000  -0.0000000  -0.0000000
 NQMom=    0.0000000   0.0000000   0.0000000   0.0000000   0.0000000   0.0000000   0.0000000   0.0000000   0.0000000   0.0000000
 NMagM=    0.0000000   0.0000000   0.0000000   2.7928460   2.7928460   2.7928460   2.7928460   2.7928460   2.7928460   2.7928460
 AtZNuc=   8.0000000   8.0000000   6.0000000   1.0000000   1.0000000   1.0000000   1.0000000   1.0000000   1.0000000   1.0000000

  Atom       131         132         133         134         135         136         137         138         139         140
 IAtWgt=           1           1           1           1           1           1           1           1           1           1
 AtmWgt=   1.0078250   1.0078250   1.0078250   1.0078250   1.0078250   1.0078250   1.0078250   1.0078250   1.0078250   1.0078250
 NucSpn=           1           1           1           1           1           1           1           1           1           1
 AtZEff=  -0.0000000  -0.0000000  -0.0000000  -0.0000000  -0.0000000  -0.0000000  -0.0000000  -0.0000000  -0.0000000  -0.0000000
 NQMom=    0.0000000   0.0000000   0.0000000   0.0000000   0.0000000   0.0000000   0.0000000   0.0000000   0.0000000   0.0000000
 NMagM=    2.7928460   2.7928460   2.7928460   2.7928460   2.7928460   2.7928460   2.7928460   2.7928460   2.7928460   2.7928460
 AtZNuc=   1.0000000   1.0000000   1.0000000   1.0000000   1.0000000   1.0000000   1.0000000   1.0000000   1.0000000   1.0000000

  Atom       141         142         143         144         145         146         147         148         149         150
 IAtWgt=           1           1           1           1           1           1           1           1           1           1
 AtmWgt=   1.0078250   1.0078250   1.0078250   1.0078250   1.0078250   1.0078250   1.0078250   1.0078250   1.0078250   1.0078250
 NucSpn=           1           1           1           1           1           1           1           1           1           1
 AtZEff=  -0.0000000  -0.0000000  -0.0000000  -0.0000000  -0.0000000  -0.0000000  -0.0000000  -0.0000000  -0.0000000  -0.0000000
 NQMom=    0.0000000   0.0000000   0.0000000   0.0000000   0.0000000   0.0000000   0.0000000   0.0000000   0.0000000   0.0000000
 NMagM=    2.7928460   2.7928460   2.7928460   2.7928460   2.7928460   2.7928460   2.7928460   2.7928460   2.7928460   2.7928460
 AtZNuc=   1.0000000   1.0000000   1.0000000   1.0000000   1.0000000   1.0000000   1.0000000   1.0000000   1.0000000   1.0000000

  Atom       151         152         153         154         155         156         157         158
 IAtWgt=           1           1           1           1           1           1           1           1
 AtmWgt=   1.0078250   1.0078250   1.0078250   1.0078250   1.0078250   1.0078250   1.0078250   1.0078250
 NucSpn=           1           1           1           1           1           1           1           1
 AtZEff=  -0.0000000  -0.0000000  -0.0000000  -0.0000000  -0.0000000  -0.0000000  -0.0000000  -0.0000000
 NQMom=    0.0000000   0.0000000   0.0000000   0.0000000   0.0000000   0.0000000   0.0000000   0.0000000
 NMagM=    2.7928460   2.7928460   2.7928460   2.7928460   2.7928460   2.7928460   2.7928460   2.7928460
 AtZNuc=   1.0000000   1.0000000   1.0000000   1.0000000   1.0000000   1.0000000   1.0000000   1.0000000
 Leave Link  101 at Sat Sep  4 18:52:13 2021, MaxMem= 23488102400 cpu:               3.9 elap:               0.2
 (Enter /sw/apps/gaussian-16.0/g16/l202.exe)
 Stoichiometry    C68H72Mg2N8O8
 Framework group  C1[X(C68H72Mg2N8O8)]
 Deg. of freedom   468
 Full point group                 C1      NOp   1
 Largest Abelian subgroup         C1      NOp   1
 Largest concise Abelian subgroup C1      NOp   1
                         Standard orientation:                         
 ---------------------------------------------------------------------
 Center     Atomic      Atomic             Coordinates (Angstroms)
 Number     Number       Type             X           Y           Z
 ---------------------------------------------------------------------
      1         12           0      -15.788486    0.680806    0.355503
      2          6           0      -16.052297   -2.208325   -1.741052
      3          6           0      -16.596991   -1.337471    2.985320
      4          6           0      -16.007333    3.287491    2.148244
      5          6           0      -16.123553    2.617617   -2.522371
      6          7           0      -16.242250   -1.482361    0.479804
      7          6           0      -16.250929   -2.489739   -0.387539
      8          6           0      -16.416030   -3.884397    0.287032
      9          6           0      -17.132221   -3.428139    1.636438
     10          6           0      -16.598652   -2.009320    1.726889
     11          6           0      -18.652960   -3.375235    1.531293
     12          6           0      -15.039252   -4.572914    0.573659
     13          6           0      -15.113961   -6.061226    0.926790
     14          1           0      -14.051737   -6.943859    0.468546
     15          7           0      -15.755331    0.891489    2.319520
     16          6           0      -16.101746   -0.040252    3.239923
     17          6           0      -15.905588    0.597707    4.559473
     18          6           0      -15.598738    2.036599    4.328114
     19          6           0      -15.803310    2.136448    2.905595
     20          6           0      -15.966704   -0.153629    5.853888
     21          6           0      -15.196741    3.148020    5.245324
     22          8           0      -15.205120    4.371827    4.875461
     23          6           0      -14.873513    2.770143    6.633047
     24          7           0      -16.250064    2.669416   -0.080401
     25          6           0      -16.217544    3.609714    0.870266
     26          6           0      -16.302546    4.986066    0.280039
     27          6           0      -16.155080    4.799805   -1.298984
     28          6           0      -16.089115    3.253386   -1.349051
     29          6           0      -17.588968    5.766307    0.583939
     30          6           0      -15.035731    5.608913   -2.000996
     31          6           0      -13.681399    5.103775   -1.556340
     32          7           0      -15.866307    0.310390   -1.781734
     33          6           0      -16.032544    1.263321   -2.797097
     34          6           0      -16.132179    0.525560   -4.069829
     35          6           0      -16.032957   -0.814916   -3.702234
     36          6           0      -15.907326   -0.909829   -2.286783
     37          6           0      -16.350944    1.101829   -5.352206
     38          6           0      -16.028586   -2.190293   -4.173587
     39          8           0      -16.009857   -2.726958   -5.282250
     40          6           0      -16.163390   -3.152721   -2.912085
     41          6           0      -15.121507   -4.229383   -3.048422
     42          8           0      -13.906092   -3.956811   -2.972026
     43          8           0      -15.716563   -5.431413   -3.008749
     44          6           0      -14.735446   -6.544710   -3.109415
     45          1           0      -17.069786   -1.820992    3.842416
     46          1           0      -15.978364    4.218718    2.717819
     47          1           0      -16.144289    3.158996   -3.469964
     48          1           0      -17.055504   -4.579636   -0.257156
     49          1           0      -16.798186   -4.013904    2.492605
     50          1           0      -18.987268   -3.535634    0.506388
     51          1           0      -18.933745   -2.378355    1.871711
     52          1           0      -19.114140   -4.071998    2.231729
     53          1           0      -14.628664   -4.181759    1.504506
     54          1           0      -14.356926   -4.435388   -0.265891
     55          1           0      -16.090604   -6.480215    0.682814
     56          1           0      -15.039976   -6.159397    2.009882
     57          1           0      -16.373065   -1.154958    5.716940
     58          1           0      -16.699097    0.353183    6.481941
     59          1           0      -15.001761   -0.177492    6.360491
     60          1           0      -15.738974    2.284901    7.084783
     61          1           0      -14.521934    3.679951    7.118321
     62          1           0      -14.076860    2.025751    6.619863
     63          1           0      -15.492490    5.617669    0.642408
     64          1           0      -17.062960    5.085031   -1.831031
     65          1           0      -17.414035    6.728052    1.066794
     66          1           0      -18.230890    5.132762    1.195370
     67          1           0      -18.226515    5.950959   -0.280268
     68          1           0      -15.094231    6.659848   -1.719822
     69          1           0      -15.082144    5.553520   -3.088667
     70          1           0      -13.518490    5.636087   -0.619891
     71          1           0      -12.918517    5.363659   -2.290970
     72          1           0      -13.710018    4.038797   -1.325063
     73          1           0      -15.671417    0.592510   -6.035439
     74          1           0      -16.168649    2.176175   -5.339858
     75          1           0      -17.402057    0.858391   -5.506332
     76          1           0      -17.174966   -3.556954   -2.932885
     77          1           0      -15.039417   -7.165171   -3.952542
     78          1           0      -14.695430   -7.012391   -2.125505
     79          1           0      -13.723831   -6.269981   -3.410244
     80         12           0       15.958082    0.627195   -0.488132
     81          6           0       15.793789   -2.492802    1.277558
     82          6           0       15.162149    2.161964    2.452204
     83          6           0       15.652282    3.341560   -2.102496
     84          6           0       15.608323   -1.186160   -3.443662
     85          7           0       15.554968   -0.169968    1.535303
     86          6           0       15.581941   -1.367341    2.100901
     87          6           0       15.449819   -1.351255    3.647460
     88          6           0       14.696599    0.057704    3.809810
     89          6           0       15.191576    0.747212    2.540067
     90          6           0       13.183230   -0.056471    3.732380
     91          6           0       16.844454   -1.343231    4.366445
     92          6           0       16.796007   -1.638568    5.867178
     93          1           0       17.892636   -2.396659    6.463133
     94          7           0       15.962246    2.507118    0.147820
     95          6           0       15.633110    2.950274    1.379307
     96          6           0       15.779115    4.413376    1.332719
     97          6           0       16.062025    4.812028   -0.072897
     98          6           0       15.878543    3.543302   -0.748738
     99          6           0       15.727748    5.275749    2.560360
    100          6           0       16.423713    6.121442   -0.706006
    101          8           0       16.390833    6.286877   -1.976586
    102          6           0       16.727086    7.230820    0.209811
    103          7           0       15.460384    1.044714   -2.463059
    104          6           0       15.450563    2.308839   -2.921107
    105          6           0       15.335868    2.342700   -4.426458
    106          6           0       15.514881    0.827320   -4.905158
    107          6           0       15.617537    0.137129   -3.527312
    108          6           0       14.025192    2.899987   -4.981386
    109          6           0       16.623648    0.547661   -5.956395
    110          6           0       17.985991    0.781935   -5.344391
    111          7           0       15.924301   -1.462463   -1.036084
    112          6           0       15.741015   -2.002696   -2.327841
    113          6           0       15.678192   -3.471304   -2.180671
    114          6           0       15.807235   -3.684048   -0.799874
    115          6           0       15.920779   -2.435125   -0.131447
    116          6           0       15.473091   -4.405027   -3.235283
    117          6           0       15.862560   -4.680668    0.245299
    118          8           0       15.903117   -5.910039    0.272076
    119          6           0       15.729309   -3.948152    1.649598
    120          6           0       16.800107   -4.487172    2.558100
    121          8           0       18.001448   -4.283051    2.309702
    122          8           0       16.228199   -4.964214    3.678689
    123          6           0       17.250962   -5.499934    4.616123
    124          1           0       14.696162    2.722562    3.263043
    125          1           0       15.649279    4.243084   -2.719523
    126          1           0       15.599074   -1.826925   -4.327971
    127          1           0       14.841815   -2.147583    4.059736
    128          1           0       15.041374    0.590536    4.692189
    129          1           0       12.867707   -1.053203    3.461961
    130          1           0       12.872608    0.656032    2.979455
    131          1           0       12.731367    0.279642    4.670033
    132          1           0       17.229501   -0.315636    4.389512
    133          1           0       17.524332   -2.020181    3.886712
    134          1           0       15.829146   -2.055549    6.174206
    135          1           0       16.864154   -0.692348    6.409427
    136          1           0       15.341739    4.721986    3.425072
    137          1           0       14.975371    6.050194    2.375863
    138          1           0       16.683924    5.756585    2.777645
    139          1           0       15.869448    7.412928    0.853052
    140          1           0       17.049355    8.056331   -0.427799
    141          1           0       17.552580    6.928695    0.863957
    142          1           0       16.124963    2.944049   -4.860996
    143          1           0       14.602863    0.440589   -5.383180
    144          1           0       14.170407    3.756743   -5.666199
    145          1           0       13.394255    3.181406   -4.148767
    146          1           0       13.403373    2.178789   -5.509024
    147          1           0       16.535748    1.244031   -6.793949
    148          1           0       16.586541   -0.455939   -6.366753
    149          1           0       18.116812    1.863961   -5.440225
    150          1           0       18.752082    0.241292   -5.896536
    151          1           0       17.983002    0.543744   -4.274390
    152          1           0       16.167549   -5.218122   -3.070675
    153          1           0       15.623206   -3.943983   -4.209283
    154          1           0       14.425983   -4.667590   -3.062425
    155          1           0       14.728041   -4.151353    2.031373
    156          1           0       16.971200   -6.534672    4.836890
    157          1           0       17.276513   -4.792686    5.466365
    158          1           0       18.258394   -5.629251    4.238219
 ---------------------------------------------------------------------
 Rotational constants (GHZ):           0.0202529           0.0016364           0.0016208
 Leave Link  202 at Sat Sep  4 18:52:13 2021, MaxMem= 23488102400 cpu:               0.2 elap:               0.0
 (Enter /sw/apps/gaussian-16.0/g16/l301.exe)
 Standard basis: def2SVP (5D, 7F)
 Ernie: Thresh=  0.10000D-02 Tol=  0.10000D-05 Strict=F.
 There are  1658 symmetry adapted cartesian basis functions of A   symmetry.
 There are  1572 symmetry adapted basis functions of A   symmetry.
  1572 basis functions,  2678 primitive gaussians,  1658 cartesian basis functions
   312 alpha electrons      312 beta electrons
       nuclear repulsion energy     12306.2181690330 Hartrees.
 IExCor=20419 DFT=T Ex+Corr=CAM-B3LYP ExCW=0 ScaHFX=  1.000000
 ScaDFX=  1.000000  1.000000  1.000000  0.810000 ScalE2=  1.000000  1.000000
 IRadAn=      5 IRanWt=     -1 IRanGd=            0 ICorTp=0 IEmpDi=  4
 HFx  wShort=  0.000000 wLong=  0.330000 cFull=  0.190000 cShort=  0.000000 cLong=  0.460000
 DFx  wShort=  0.000000 wLong=  0.330000 cFull=  0.190000 cShort=  0.000000 cLong=  0.460000
 NAtoms=  158 NActive=  158 NUniq=  158 SFac= 1.00D+00 NAtFMM=   60 NAOKFM=T Big=T
 Integral buffers will be    131072 words long.
 Raffenetti 1 integral format.
 Two-electron integral symmetry is turned on.
 Leave Link  301 at Sat Sep  4 18:52:13 2021, MaxMem= 23488102400 cpu:               1.3 elap:               0.1
 (Enter /sw/apps/gaussian-16.0/g16/l302.exe)
 NPDir=0 NMtPBC=     1 NCelOv=     1 NCel=       1 NClECP=     1 NCelD=      1
         NCelK=      1 NCelE2=     1 NClLst=     1 CellRange=     0.0.
 One-electron integrals computed using PRISM.
 One-electron integral symmetry used in STVInt
   1 Symmetry operations used in ECPInt.
 ECPInt:  NShTT=  271216 NPrTT=  987664 LenC2=  103957 LenP2D=  239866.
 LDataN:  DoStor=T MaxTD1= 4 Len=   56
 NBasis=  1572 RedAO= T EigKep=  3.36D-04  NBF=  1572
 NBsUse=  1572 1.00D-06 EigRej= -1.00D+00 NBFU=  1572
 Precomputing XC quadrature grid using
 IXCGrd= 4 IRadAn=           5 IRanWt=          -1 IRanGd=           0 AccXCQ= 0.00D+00.
 Generated NRdTot=       0 NPtTot=           0 NUsed=           0 NTot=          32
 NSgBfM=   812   812   812   812   812 MxSgAt=   158 MxSgA2=    79.
 Leave Link  302 at Sat Sep  4 18:52:17 2021, MaxMem= 23488102400 cpu:              99.4 elap:               4.2
 (Enter /sw/apps/gaussian-16.0/g16/l303.exe)
 DipDrv:  MaxL=1.
 Leave Link  303 at Sat Sep  4 18:52:17 2021, MaxMem= 23488102400 cpu:               8.6 elap:               0.4
 (Enter /sw/apps/gaussian-16.0/g16/l308.exe)
 Leave Link  308 at Sat Sep  4 18:52:18 2021, MaxMem= 23488102400 cpu:              12.2 elap:               0.6
 (Enter /sw/apps/gaussian-16.0/g16/l401.exe)
 ExpMin= 3.36D-02 ExpMax= 4.95D+03 ExpMxC= 7.45D+02 IAcc=3 IRadAn=         5 AccDes= 0.00D+00
 Harris functional with IExCor=20419 and IRadAn=       5 diagonalized for initial guess.
 HarFok:  IExCor=20419 AccDes= 0.00D+00 IRadAn=         5 IDoV= 1 UseB2=F ITyADJ=14
 ICtDFT=  3500011 ScaDFX=  1.000000  1.000000  1.000000  1.000000
 FoFCou: FMM=F IPFlag=           0 FMFlag=      100000 FMFlg1=        2001
         NFxFlg=           0 DoJE=T BraDBF=F KetDBF=T FulRan=T
         wScrn=  0.000000 ICntrl=       500 IOpCl=  0 I1Cent=   200000004 NGrid=           0
         NMat0=    1 NMatS0=      1 NMatT0=    0 NMatD0=    1 NMtDS0=    0 NMtDT0=    0
 Petite list used in FoFCou.
 Harris En= -3918.65801749818    
 JPrj=0 DoOrth=F DoCkMO=F.
 Leave Link  401 at Sat Sep  4 18:52:24 2021, MaxMem= 23488102400 cpu:             157.1 elap:               6.6
 (Enter /sw/apps/gaussian-16.0/g16/l502.exe)
 Integral symmetry usage will be decided dynamically.
 Closed shell SCF:
 Using DIIS extrapolation, IDIIS=  1040.
 NGot= 23488102400 LenX= 23482547354 LenY= 23479796732
 Requested convergence on RMS density matrix=1.00D-08 within 128 cycles.
 Requested convergence on MAX density matrix=1.00D-06.
 Requested convergence on             energy=1.00D-06.
 No special actions if energy rises.
 Fock matrices will be formed incrementally for  20 cycles.

 Cycle   1  Pass 1  IDiag  1:
 FoFJK:  IHMeth= 1 ICntrl=       0 DoSepK=T KAlg= 0 I1Cent=           0 FoldK=F
 IRaf=         1 NMat=       1 IRICut=       1 DoRegI=T DoRafI=F ISym2E= 0 IDoP0=0 IntGTp=1.
 FoFCou: FMM=T IPFlag=           0 FMFlag=      100000 FMFlg1=        2001
         NFxFlg=           0 DoJE=T BraDBF=F KetDBF=F FulRan=T
         wScrn=  0.000000 ICntrl=       500 IOpCl=  0 I1Cent=           0 NGrid=           0
         NMat0=    1 NMatS0=      1 NMatT0=    0 NMatD0=    1 NMtDS0=    0 NMtDT0=    0
 Symmetry not used in FoFCou.
 FMM levels:  10  Number of levels for PrismC:   9
 E= -4068.94929852503    
 DIIS: error= 2.04D-02 at cycle   1 NSaved=   1.
 NSaved= 1 IEnMin= 1 EnMin= -4068.94929852503     IErMin= 1 ErrMin= 2.04D-02
 ErrMax= 2.04D-02  0.00D+00 EMaxC= 1.00D-01 BMatC= 1.69D+00 BMatP= 1.69D+00
 IDIUse=3 WtCom= 7.96D-01 WtEn= 2.04D-01
 Coeff-Com:  0.100D+01
 Coeff-En:   0.100D+01
 Coeff:      0.100D+01
 Gap=     0.120 Goal=   None    Shift=    0.000
 GapD=    0.120 DampG=1.000 DampE=0.500 DampFc=0.5000 IDamp=-1.
 Damping current iteration by 5.00D-01
 RMSDP=1.57D-03 MaxDP=1.35D-01              OVMax= 2.03D-01

 Cycle   2  Pass 1  IDiag  1:
 RMSU=  7.69D-04    CP:  9.82D-01
 E= -4069.33820607541     Delta-E=       -0.388907550376 Rises=F Damp=T
 DIIS: error= 1.27D-02 at cycle   2 NSaved=   2.
 NSaved= 2 IEnMin= 2 EnMin= -4069.33820607541     IErMin= 2 ErrMin= 1.27D-02
 ErrMax= 1.27D-02  0.00D+00 EMaxC= 1.00D-01 BMatC= 3.07D-01 BMatP= 1.69D+00
 IDIUse=3 WtCom= 8.73D-01 WtEn= 1.27D-01
 Coeff-Com: -0.213D+00 0.121D+01
 Coeff-En:   0.000D+00 0.100D+01
 Coeff:     -0.186D+00 0.119D+01
 Gap=     0.138 Goal=   None    Shift=    0.000
 RMSDP=7.65D-04 MaxDP=9.43D-02 DE=-3.89D-01 OVMax= 1.88D-01

 Cycle   3  Pass 1  IDiag  1:
 RMSU=  7.32D-04    CP:  9.68D-01  1.24D+00
 E= -4069.62796615082     Delta-E=       -0.289760075415 Rises=F Damp=F
 DIIS: error= 1.58D-02 at cycle   3 NSaved=   3.
 NSaved= 3 IEnMin= 3 EnMin= -4069.62796615082     IErMin= 2 ErrMin= 1.27D-02
 ErrMax= 1.58D-02  0.00D+00 EMaxC= 1.00D-01 BMatC= 2.02D-01 BMatP= 3.07D-01
 IDIUse=3 WtCom= 8.42D-01 WtEn= 1.58D-01
 Coeff-Com: -0.267D+00 0.652D+00 0.616D+00
 Coeff-En:   0.000D+00 0.000D+00 0.100D+01
 Coeff:     -0.225D+00 0.549D+00 0.676D+00
 Gap=     0.125 Goal=   None    Shift=    0.000
 RMSDP=5.08D-04 MaxDP=4.88D-02 DE=-2.90D-01 OVMax= 1.43D-01

 Cycle   4  Pass 1  IDiag  1:
 RMSU=  2.65D-04    CP:  9.65D-01  1.55D+00  5.06D-01
 E= -4069.76509031087     Delta-E=       -0.137124160048 Rises=F Damp=F
 DIIS: error= 7.31D-03 at cycle   4 NSaved=   4.
 NSaved= 4 IEnMin= 4 EnMin= -4069.76509031087     IErMin= 4 ErrMin= 7.31D-03
 ErrMax= 7.31D-03  0.00D+00 EMaxC= 1.00D-01 BMatC= 5.04D-02 BMatP= 2.02D-01
 IDIUse=3 WtCom= 9.27D-01 WtEn= 7.31D-02
 Coeff-Com: -0.109D+00 0.226D+00 0.409D+00 0.474D+00
 Coeff-En:   0.000D+00 0.000D+00 0.221D+00 0.779D+00
 Coeff:     -0.101D+00 0.209D+00 0.395D+00 0.497D+00
 Gap=     0.123 Goal=   None    Shift=    0.000
 RMSDP=2.00D-04 MaxDP=2.09D-02 DE=-1.37D-01 OVMax= 6.19D-02

 Cycle   5  Pass 1  IDiag  1:
 RMSU=  7.58D-05    CP:  9.64D-01  1.49D+00  6.89D-01  5.50D-01
 E= -4069.81055223780     Delta-E=       -0.045461926929 Rises=F Damp=F
 DIIS: error= 7.87D-04 at cycle   5 NSaved=   5.
 NSaved= 5 IEnMin= 5 EnMin= -4069.81055223780     IErMin= 5 ErrMin= 7.87D-04
 ErrMax= 7.87D-04  0.00D+00 EMaxC= 1.00D-01 BMatC= 1.17D-03 BMatP= 5.04D-02
 IDIUse=3 WtCom= 9.92D-01 WtEn= 7.87D-03
 Coeff-Com: -0.357D-01 0.701D-01 0.165D+00 0.249D+00 0.551D+00
 Coeff-En:   0.000D+00 0.000D+00 0.000D+00 0.000D+00 0.100D+01
 Coeff:     -0.355D-01 0.696D-01 0.164D+00 0.247D+00 0.555D+00
 Gap=     0.123 Goal=   None    Shift=    0.000
 RMSDP=4.07D-05 MaxDP=4.17D-03 DE=-4.55D-02 OVMax= 1.65D-02

 Cycle   6  Pass 1  IDiag  1:
 RMSU=  3.02D-05    CP:  9.64D-01  1.49D+00  6.81D-01  6.21D-01  7.59D-01
 E= -4069.81155879511     Delta-E=       -0.001006557311 Rises=F Damp=F
 DIIS: error= 2.18D-04 at cycle   6 NSaved=   6.
 NSaved= 6 IEnMin= 6 EnMin= -4069.81155879511     IErMin= 6 ErrMin= 2.18D-04
 ErrMax= 2.18D-04  0.00D+00 EMaxC= 1.00D-01 BMatC= 1.76D-04 BMatP= 1.17D-03
 IDIUse=3 WtCom= 9.98D-01 WtEn= 2.18D-03
 Coeff-Com:  0.231D-02-0.678D-02 0.108D-01 0.398D-01 0.306D+00 0.648D+00
 Coeff-En:   0.000D+00 0.000D+00 0.000D+00 0.000D+00 0.103D+00 0.897D+00
 Coeff:      0.231D-02-0.677D-02 0.108D-01 0.397D-01 0.306D+00 0.648D+00
 Gap=     0.123 Goal=   None    Shift=    0.000
 RMSDP=1.58D-05 MaxDP=1.24D-03 DE=-1.01D-03 OVMax= 7.27D-03

 Cycle   7  Pass 1  IDiag  1:
 RMSU=  1.06D-05    CP:  9.64D-01  1.50D+00  6.87D-01  6.21D-01  8.60D-01
                    CP:  7.50D-01
 E= -4069.81174729758     Delta-E=       -0.000188502474 Rises=F Damp=F
 DIIS: error= 8.40D-05 at cycle   7 NSaved=   7.
 NSaved= 7 IEnMin= 7 EnMin= -4069.81174729758     IErMin= 7 ErrMin= 8.40D-05
 ErrMax= 8.40D-05  0.00D+00 EMaxC= 1.00D-01 BMatC= 2.07D-05 BMatP= 1.76D-04
 IDIUse=1 WtCom= 1.00D+00 WtEn= 0.00D+00
 Coeff-Com:  0.445D-02-0.974D-02-0.898D-02-0.384D-02 0.102D+00 0.329D+00
 Coeff-Com:  0.587D+00
 Coeff:      0.445D-02-0.974D-02-0.898D-02-0.384D-02 0.102D+00 0.329D+00
 Coeff:      0.587D+00
 Gap=     0.123 Goal=   None    Shift=    0.000
 RMSDP=6.49D-06 MaxDP=1.11D-03 DE=-1.89D-04 OVMax= 3.42D-03

 Cycle   8  Pass 1  IDiag  1:
 RMSU=  4.67D-06    CP:  9.64D-01  1.50D+00  6.88D-01  6.26D-01  8.64D-01
                    CP:  8.76D-01  8.23D-01
 E= -4069.81177296021     Delta-E=       -0.000025662630 Rises=F Damp=F
 DIIS: error= 5.02D-05 at cycle   8 NSaved=   8.
 NSaved= 8 IEnMin= 8 EnMin= -4069.81177296021     IErMin= 8 ErrMin= 5.02D-05
 ErrMax= 5.02D-05  0.00D+00 EMaxC= 1.00D-01 BMatC= 4.81D-06 BMatP= 2.07D-05
 IDIUse=1 WtCom= 1.00D+00 WtEn= 0.00D+00
 Coeff-Com:  0.215D-02-0.425D-02-0.774D-02-0.121D-01-0.117D-01 0.334D-01
 Coeff-Com:  0.344D+00 0.656D+00
 Coeff:      0.215D-02-0.425D-02-0.774D-02-0.121D-01-0.117D-01 0.334D-01
 Coeff:      0.344D+00 0.656D+00
 Gap=     0.123 Goal=   None    Shift=    0.000
 RMSDP=3.26D-06 MaxDP=3.57D-04 DE=-2.57D-05 OVMax= 1.12D-03

 Cycle   9  Pass 1  IDiag  1:
 RMSU=  1.91D-06    CP:  9.64D-01  1.50D+00  6.88D-01  6.27D-01  8.81D-01
                    CP:  9.01D-01  1.02D+00  9.40D-01
 E= -4069.81178064187     Delta-E=       -0.000007681654 Rises=F Damp=F
 DIIS: error= 1.93D-05 at cycle   9 NSaved=   9.
 NSaved= 9 IEnMin= 9 EnMin= -4069.81178064187     IErMin= 9 ErrMin= 1.93D-05
 ErrMax= 1.93D-05  0.00D+00 EMaxC= 1.00D-01 BMatC= 6.86D-07 BMatP= 4.81D-06
 IDIUse=1 WtCom= 1.00D+00 WtEn= 0.00D+00
 Coeff-Com:  0.462D-03-0.766D-03-0.266D-02-0.598D-02-0.212D-01-0.385D-01
 Coeff-Com:  0.104D+00 0.326D+00 0.639D+00
 Coeff:      0.462D-03-0.766D-03-0.266D-02-0.598D-02-0.212D-01-0.385D-01
 Coeff:      0.104D+00 0.326D+00 0.639D+00
 Gap=     0.123 Goal=   None    Shift=    0.000
 RMSDP=1.41D-06 MaxDP=1.51D-04 DE=-7.68D-06 OVMax= 7.46D-04

 Cycle  10  Pass 1  IDiag  1:
 RMSU=  9.36D-07    CP:  9.64D-01  1.50D+00  6.88D-01  6.28D-01  8.84D-01
                    CP:  9.15D-01  1.07D+00  1.11D+00  1.05D+00
 E= -4069.81178222283     Delta-E=       -0.000001580964 Rises=F Damp=F
 DIIS: error= 1.03D-05 at cycle  10 NSaved=  10.
 NSaved=10 IEnMin=10 EnMin= -4069.81178222283     IErMin=10 ErrMin= 1.03D-05
 ErrMax= 1.03D-05  0.00D+00 EMaxC= 1.00D-01 BMatC= 1.71D-07 BMatP= 6.86D-07
 IDIUse=1 WtCom= 1.00D+00 WtEn= 0.00D+00
 Coeff-Com: -0.427D-03 0.894D-03 0.123D-02 0.112D-02-0.376D-02-0.309D-01
 Coeff-Com: -0.465D-01-0.764D-01 0.255D+00 0.900D+00
 Coeff:     -0.427D-03 0.894D-03 0.123D-02 0.112D-02-0.376D-02-0.309D-01
 Coeff:     -0.465D-01-0.764D-01 0.255D+00 0.900D+00
 Gap=     0.123 Goal=   None    Shift=    0.000
 RMSDP=1.22D-06 MaxDP=1.25D-04 DE=-1.58D-06 OVMax= 6.06D-04

 Cycle  11  Pass 1  IDiag  1:
 RMSU=  5.14D-07    CP:  9.64D-01  1.50D+00  6.88D-01  6.28D-01  8.86D-01
                    CP:  9.25D-01  1.11D+00  1.22D+00  1.39D+00  1.37D+00
 E= -4069.81178300803     Delta-E=       -0.000000785194 Rises=F Damp=F
 DIIS: error= 3.95D-06 at cycle  11 NSaved=  11.
 NSaved=11 IEnMin=11 EnMin= -4069.81178300803     IErMin=11 ErrMin= 3.95D-06
 ErrMax= 3.95D-06  0.00D+00 EMaxC= 1.00D-01 BMatC= 6.09D-08 BMatP= 1.71D-07
 IDIUse=1 WtCom= 1.00D+00 WtEn= 0.00D+00
 Coeff-Com: -0.326D-03 0.635D-03 0.132D-02 0.212D-02 0.441D-02-0.833D-02
 Coeff-Com: -0.435D-01-0.132D+00-0.233D-01 0.465D+00 0.735D+00
 Coeff:     -0.326D-03 0.635D-03 0.132D-02 0.212D-02 0.441D-02-0.833D-02
 Coeff:     -0.435D-01-0.132D+00-0.233D-01 0.465D+00 0.735D+00
 Gap=     0.123 Goal=   None    Shift=    0.000
 RMSDP=6.85D-07 MaxDP=5.77D-05 DE=-7.85D-07 OVMax= 3.70D-04

 Cycle  12  Pass 1  IDiag  1:
 RMSU=  2.62D-07    CP:  9.64D-01  1.50D+00  6.88D-01  6.28D-01  8.87D-01
                    CP:  9.28D-01  1.14D+00  1.28D+00  1.56D+00  1.76D+00
                    CP:  1.20D+00
 E= -4069.81178326996     Delta-E=       -0.000000261929 Rises=F Damp=F
 DIIS: error= 2.36D-06 at cycle  12 NSaved=  12.
 NSaved=12 IEnMin=12 EnMin= -4069.81178326996     IErMin=12 ErrMin= 2.36D-06
 ErrMax= 2.36D-06  0.00D+00 EMaxC= 1.00D-01 BMatC= 1.47D-08 BMatP= 6.09D-08
 IDIUse=1 WtCom= 1.00D+00 WtEn= 0.00D+00
 Coeff-Com:  0.665D-06-0.178D-04 0.176D-03 0.506D-03 0.329D-02 0.407D-02
 Coeff-Com:  0.287D-02-0.346D-01-0.680D-01-0.762D-01 0.250D+00 0.918D+00
 Coeff:      0.665D-06-0.178D-04 0.176D-03 0.506D-03 0.329D-02 0.407D-02
 Coeff:      0.287D-02-0.346D-01-0.680D-01-0.762D-01 0.250D+00 0.918D+00
 Gap=     0.123 Goal=   None    Shift=    0.000
 RMSDP=4.37D-07 MaxDP=3.12D-05 DE=-2.62D-07 OVMax= 2.48D-04

 Cycle  13  Pass 1  IDiag  1:
 RMSU=  1.65D-07    CP:  9.64D-01  1.50D+00  6.88D-01  6.28D-01  8.88D-01
                    CP:  9.28D-01  1.14D+00  1.31D+00  1.67D+00  1.99D+00
                    CP:  1.61D+00  1.27D+00
 E= -4069.81178336148     Delta-E=       -0.000000091526 Rises=F Damp=F
 DIIS: error= 1.23D-06 at cycle  13 NSaved=  13.
 NSaved=13 IEnMin=13 EnMin= -4069.81178336148     IErMin=13 ErrMin= 1.23D-06
 ErrMax= 1.23D-06  0.00D+00 EMaxC= 1.00D-01 BMatC= 8.09D-09 BMatP= 1.47D-08
 IDIUse=1 WtCom= 1.00D+00 WtEn= 0.00D+00
 Coeff-Com:  0.120D-03-0.245D-03-0.370D-03-0.457D-03 0.567D-03 0.508D-02
 Coeff-Com:  0.197D-01 0.228D-01-0.340D-01-0.241D+00-0.156D+00 0.599D+00
 Coeff-Com:  0.785D+00
 Coeff:      0.120D-03-0.245D-03-0.370D-03-0.457D-03 0.567D-03 0.508D-02
 Coeff:      0.197D-01 0.228D-01-0.340D-01-0.241D+00-0.156D+00 0.599D+00
 Coeff:      0.785D+00
 Gap=     0.123 Goal=   None    Shift=    0.000
 RMSDP=3.39D-07 MaxDP=2.29D-05 DE=-9.15D-08 OVMax= 1.96D-04

 Cycle  14  Pass 1  IDiag  1:
 RMSU=  7.59D-08    CP:  9.64D-01  1.50D+00  6.88D-01  6.28D-01  8.88D-01
                    CP:  9.29D-01  1.15D+00  1.33D+00  1.74D+00  2.18D+00
                    CP:  1.88D+00  1.79D+00  1.09D+00
 E= -4069.81178339724     Delta-E=       -0.000000035761 Rises=F Damp=F
 DIIS: error= 6.25D-07 at cycle  14 NSaved=  14.
 NSaved=14 IEnMin=14 EnMin= -4069.81178339724     IErMin=14 ErrMin= 6.25D-07
 ErrMax= 6.25D-07  0.00D+00 EMaxC= 1.00D-01 BMatC= 1.25D-09 BMatP= 8.09D-09
 IDIUse=1 WtCom= 1.00D+00 WtEn= 0.00D+00
 Coeff-Com:  0.662D-04-0.130D-03-0.246D-03-0.386D-03-0.484D-03 0.129D-02
 Coeff-Com:  0.107D-01 0.191D-01 0.366D-02-0.994D-01-0.142D+00 0.938D-01
 Coeff-Com:  0.404D+00 0.710D+00
 Coeff:      0.662D-04-0.130D-03-0.246D-03-0.386D-03-0.484D-03 0.129D-02
 Coeff:      0.107D-01 0.191D-01 0.366D-02-0.994D-01-0.142D+00 0.938D-01
 Coeff:      0.404D+00 0.710D+00
 Gap=     0.123 Goal=   None    Shift=    0.000
 RMSDP=1.01D-07 MaxDP=6.67D-06 DE=-3.58D-08 OVMax= 5.45D-05

 Cycle  15  Pass 1  IDiag  1:
 RMSU=  3.82D-08    CP:  9.64D-01  1.50D+00  6.88D-01  6.28D-01  8.88D-01
                    CP:  9.28D-01  1.15D+00  1.34D+00  1.76D+00  2.22D+00
                    CP:  1.98D+00  1.93D+00  1.33D+00  1.03D+00
 E= -4069.81178340136     Delta-E=       -0.000000004118 Rises=F Damp=F
 DIIS: error= 3.44D-07 at cycle  15 NSaved=  15.
 NSaved=15 IEnMin=15 EnMin= -4069.81178340136     IErMin=15 ErrMin= 3.44D-07
 ErrMax= 3.44D-07  0.00D+00 EMaxC= 1.00D-01 BMatC= 2.25D-10 BMatP= 1.25D-09
 IDIUse=1 WtCom= 1.00D+00 WtEn= 0.00D+00
 Coeff-Com:  0.514D-05-0.849D-05-0.318D-04-0.806D-04-0.299D-03-0.516D-03
 Coeff-Com:  0.111D-02 0.249D-02 0.875D-02 0.193D-02-0.306D-01-0.730D-01
 Coeff-Com:  0.284D-01 0.297D+00 0.765D+00
 Coeff:      0.514D-05-0.849D-05-0.318D-04-0.806D-04-0.299D-03-0.516D-03
 Coeff:      0.111D-02 0.249D-02 0.875D-02 0.193D-02-0.306D-01-0.730D-01
 Coeff:      0.284D-01 0.297D+00 0.765D+00
 Gap=     0.123 Goal=   None    Shift=    0.000
 RMSDP=4.06D-08 MaxDP=2.72D-06 DE=-4.12D-09 OVMax= 2.67D-05

 Cycle  16  Pass 1  IDiag  1:
 RMSU=  1.87D-08    CP:  9.64D-01  1.50D+00  6.88D-01  6.28D-01  8.88D-01
                    CP:  9.28D-01  1.15D+00  1.34D+00  1.76D+00  2.24D+00
                    CP:  2.01D+00  1.99D+00  1.40D+00  1.24D+00  1.14D+00
 E= -4069.81178340200     Delta-E=       -0.000000000642 Rises=F Damp=F
 DIIS: error= 1.71D-07 at cycle  16 NSaved=  16.
 NSaved=16 IEnMin=16 EnMin= -4069.81178340200     IErMin=16 ErrMin= 1.71D-07
 ErrMax= 1.71D-07  0.00D+00 EMaxC= 1.00D-01 BMatC= 8.11D-11 BMatP= 2.25D-10
 IDIUse=1 WtCom= 1.00D+00 WtEn= 0.00D+00
 Coeff-Com: -0.142D-04 0.288D-04 0.471D-04 0.539D-04-0.264D-04-0.633D-03
 Coeff-Com: -0.199D-02-0.426D-02 0.454D-02 0.256D-01 0.207D-01-0.646D-01
 Coeff-Com: -0.834D-01-0.371D-01 0.397D+00 0.744D+00
 Coeff:     -0.142D-04 0.288D-04 0.471D-04 0.539D-04-0.264D-04-0.633D-03
 Coeff:     -0.199D-02-0.426D-02 0.454D-02 0.256D-01 0.207D-01-0.646D-01
 Coeff:     -0.834D-01-0.371D-01 0.397D+00 0.744D+00
 Gap=     0.123 Goal=   None    Shift=    0.000
 RMSDP=2.29D-08 MaxDP=1.59D-06 DE=-6.42D-10 OVMax= 1.32D-05

 Cycle  17  Pass 1  IDiag  1:
 RMSU=  1.04D-08    CP:  9.64D-01  1.50D+00  6.88D-01  6.28D-01  8.88D-01
                    CP:  9.29D-01  1.15D+00  1.34D+00  1.77D+00  2.24D+00
                    CP:  2.02D+00  2.01D+00  1.45D+00  1.34D+00  1.44D+00
                    CP:  1.25D+00
 E= -4069.81178340250     Delta-E=       -0.000000000498 Rises=F Damp=F
 DIIS: error= 9.67D-08 at cycle  17 NSaved=  17.
 NSaved=17 IEnMin=17 EnMin= -4069.81178340250     IErMin=17 ErrMin= 9.67D-08
 ErrMax= 9.67D-08  0.00D+00 EMaxC= 1.00D-01 BMatC= 1.78D-11 BMatP= 8.11D-11
 IDIUse=1 WtCom= 1.00D+00 WtEn= 0.00D+00
 Coeff-Com: -0.719D-05 0.140D-04 0.285D-04 0.425D-04 0.840D-04-0.122D-03
 Coeff-Com: -0.963D-03-0.280D-02 0.138D-03 0.921D-02 0.175D-01-0.724D-02
 Coeff-Com: -0.369D-01-0.102D+00-0.320D-01 0.295D+00 0.859D+00
 Coeff:     -0.719D-05 0.140D-04 0.285D-04 0.425D-04 0.840D-04-0.122D-03
 Coeff:     -0.963D-03-0.280D-02 0.138D-03 0.921D-02 0.175D-01-0.724D-02
 Coeff:     -0.369D-01-0.102D+00-0.320D-01 0.295D+00 0.859D+00
 Gap=     0.123 Goal=   None    Shift=    0.000
 RMSDP=1.38D-08 MaxDP=1.08D-06 DE=-4.98D-10 OVMax= 8.81D-06

 Cycle  18  Pass 1  IDiag  1:
 RMSU=  4.86D-09    CP:  9.64D-01  1.50D+00  6.88D-01  6.28D-01  8.88D-01
                    CP:  9.29D-01  1.15D+00  1.34D+00  1.77D+00  2.24D+00
                    CP:  2.02D+00  2.02D+00  1.47D+00  1.41D+00  1.61D+00
                    CP:  1.66D+00  1.39D+00
 E= -4069.81178340233     Delta-E=        0.000000000175 Rises=F Damp=F
 DIIS: error= 5.01D-08 at cycle  18 NSaved=  18.
 NSaved=18 IEnMin=17 EnMin= -4069.81178340250     IErMin=18 ErrMin= 5.01D-08
 ErrMax= 5.01D-08  0.00D+00 EMaxC= 1.00D-01 BMatC= 6.84D-12 BMatP= 1.78D-11
 IDIUse=1 WtCom= 1.00D+00 WtEn= 0.00D+00
 Coeff-Com:  0.207D-05-0.445D-05-0.466D-05-0.184D-05 0.590D-04 0.184D-03
 Coeff-Com:  0.407D-03 0.233D-03-0.129D-02-0.622D-02-0.159D-03 0.203D-01
 Coeff-Com:  0.186D-01-0.325D-01-0.163D+00-0.192D+00 0.347D+00 0.101D+01
 Coeff:      0.207D-05-0.445D-05-0.466D-05-0.184D-05 0.590D-04 0.184D-03
 Coeff:      0.407D-03 0.233D-03-0.129D-02-0.622D-02-0.159D-03 0.203D-01
 Coeff:      0.186D-01-0.325D-01-0.163D+00-0.192D+00 0.347D+00 0.101D+01
 Gap=     0.123 Goal=   None    Shift=    0.000
 RMSDP=1.18D-08 MaxDP=8.11D-07 DE= 1.75D-10 OVMax= 6.91D-06

 Cycle  19  Pass 1  IDiag  1:
 RMSU=  2.78D-09    CP:  9.64D-01  1.50D+00  6.88D-01  6.28D-01  8.88D-01
                    CP:  9.29D-01  1.15D+00  1.34D+00  1.77D+00  2.24D+00
                    CP:  2.03D+00  2.02D+00  1.48D+00  1.46D+00  1.77D+00
                    CP:  1.99D+00  1.94D+00  1.38D+00
 E= -4069.81178340255     Delta-E=       -0.000000000226 Rises=F Damp=F
 DIIS: error= 3.69D-08 at cycle  19 NSaved=  19.
 NSaved=19 IEnMin=19 EnMin= -4069.81178340255     IErMin=19 ErrMin= 3.69D-08
 ErrMax= 3.69D-08  0.00D+00 EMaxC= 1.00D-01 BMatC= 1.42D-12 BMatP= 6.84D-12
 IDIUse=1 WtCom= 1.00D+00 WtEn= 0.00D+00
 Coeff-Com:  0.288D-05-0.580D-05-0.985D-05-0.123D-04 0.107D-04 0.118D-03
 Coeff-Com:  0.474D-03 0.793D-03-0.596D-03-0.593D-02-0.481D-02 0.120D-01
 Coeff-Com:  0.200D-01 0.113D-01-0.686D-01-0.177D+00-0.348D-01 0.491D+00
 Coeff-Com:  0.756D+00
 Coeff:      0.288D-05-0.580D-05-0.985D-05-0.123D-04 0.107D-04 0.118D-03
 Coeff:      0.474D-03 0.793D-03-0.596D-03-0.593D-02-0.481D-02 0.120D-01
 Coeff:      0.200D-01 0.113D-01-0.686D-01-0.177D+00-0.348D-01 0.491D+00
 Coeff:      0.756D+00
 Gap=     0.123 Goal=   None    Shift=    0.000
 RMSDP=4.55D-09 MaxDP=3.27D-07 DE=-2.26D-10 OVMax= 2.85D-06

 SCF Done:  E(RCAM-B3LYP) =  -4069.81178340     A.U. after   19 cycles
            NFock= 19  Conv=0.45D-08     -V/T= 2.0102
 KE= 4.028802066422D+03 PE=-3.409326395088D+04 EE= 1.368843193202D+04
 Leave Link  502 at Sat Sep  4 19:00:36 2021, MaxMem= 23488102400 cpu:           11228.0 elap:             491.9
 (Enter /sw/apps/gaussian-16.0/g16/l801.exe)
 DoSCS=F DFT=T ScalE2(SS,OS)=  1.000000  1.000000
 ExpMin= 3.36D-02 ExpMax= 4.95D+03 ExpMxC= 7.45D+02 IAcc=3 IRadAn=         5 AccDes= 0.00D+00
 HarFok:  IExCor=  205 AccDes= 0.00D+00 IRadAn=         5 IDoV=-2 UseB2=F ITyADJ=14
 ICtDFT= 12500011 ScaDFX=  1.000000  1.000000  1.000000  1.000000
 GSVD:  LWork=       -9588 too small for GESVD, short by       45590 words or       45590 for optimal perf.
 Largest valence mixing into a core orbital is  2.03D-04
 Largest core mixing into a valence orbital is  5.24D-05
 Range of M.O.s used for correlation:    95  1572
 NBasis=  1572 NAE=   312 NBE=   312 NFC=    94 NFV=     0
 NROrb=   1478 NOA=   218 NOB=   218 NVA=  1260 NVB=  1260
 Leave Link  801 at Sat Sep  4 19:00:37 2021, MaxMem= 23488102400 cpu:               9.4 elap:               0.4
 (Enter /sw/apps/gaussian-16.0/g16/l914.exe)
 RHF ground state
 Two-electron integrals replicated using symmetry.
 MDV= 23488102400 DFT=T DoStab=F Mixed=T DoRPA=T DoScal=F NonHer=T
 Making orbital integer symmetry assigments:
 Orbital symmetries:
       Occupied  (A) (A) (A) (A) (A) (A) (A) (A) (A) (A) (A) (A)
                 (A) (A) (A) (A) (A) (A) (A) (A) (A) (A) (A) (A)
                 (A) (A) (A) (A) (A) (A) (A) (A) (A) (A) (A) (A)
                 (A) (A) (A) (A) (A) (A) (A) (A) (A) (A) (A) (A)
                 (A) (A) (A) (A) (A) (A) (A) (A) (A) (A) (A) (A)
                 (A) (A) (A) (A) (A) (A) (A) (A) (A) (A) (A) (A)
                 (A) (A) (A) (A) (A) (A) (A) (A) (A) (A) (A) (A)
                 (A) (A) (A) (A) (A) (A) (A) (A) (A) (A) (A) (A)
                 (A) (A) (A) (A) (A) (A) (A) (A) (A) (A) (A) (A)
                 (A) (A) (A) (A) (A) (A) (A) (A) (A) (A) (A) (A)
                 (A) (A) (A) (A) (A) (A) (A) (A) (A) (A) (A) (A)
                 (A) (A) (A) (A) (A) (A) (A) (A) (A) (A) (A) (A)
                 (A) (A) (A) (A) (A) (A) (A) (A) (A) (A) (A) (A)
                 (A) (A) (A) (A) (A) (A) (A) (A) (A) (A) (A) (A)
                 (A) (A) (A) (A) (A) (A) (A) (A) (A) (A) (A) (A)
                 (A) (A) (A) (A) (A) (A) (A) (A) (A) (A) (A) (A)
                 (A) (A) (A) (A) (A) (A) (A) (A) (A) (A) (A) (A)
                 (A) (A) (A) (A) (A) (A) (A) (A) (A) (A) (A) (A)
                 (A) (A) (A) (A) (A) (A) (A) (A) (A) (A) (A) (A)
                 (A) (A) (A) (A) (A) (A) (A) (A) (A) (A) (A) (A)
                 (A) (A) (A) (A) (A) (A) (A) (A) (A) (A) (A) (A)
                 (A) (A) (A) (A) (A) (A) (A) (A) (A) (A) (A) (A)
                 (A) (A) (A) (A) (A) (A) (A) (A) (A) (A) (A) (A)
                 (A) (A) (A) (A) (A) (A) (A) (A) (A) (A) (A) (A)
                 (A) (A) (A) (A) (A) (A) (A) (A) (A) (A) (A) (A)
                 (A) (A) (A) (A) (A) (A) (A) (A) (A) (A) (A) (A)
       Virtual   (A) (A) (A) (A) (A) (A) (A) (A) (A) (A) (A) (A)
                 (A) (A) (A) (A) (A) (A) (A) (A) (A) (A) (A) (A)
                 (A) (A) (A) (A) (A) (A) (A) (A) (A) (A) (A) (A)
                 (A) (A) (A) (A) (A) (A) (A) (A) (A) (A) (A) (A)
                 (A) (A) (A) (A) (A) (A) (A) (A) (A) (A) (A) (A)
                 (A) (A) (A) (A) (A) (A) (A) (A) (A) (A) (A) (A)
                 (A) (A) (A) (A) (A) (A) (A) (A) (A) (A) (A) (A)
                 (A) (A) (A) (A) (A) (A) (A) (A) (A) (A) (A) (A)
                 (A) (A) (A) (A) (A) (A) (A) (A) (A) (A) (A) (A)
                 (A) (A) (A) (A) (A) (A) (A) (A) (A) (A) (A) (A)
                 (A) (A) (A) (A) (A) (A) (A) (A) (A) (A) (A) (A)
                 (A) (A) (A) (A) (A) (A) (A) (A) (A) (A) (A) (A)
                 (A) (A) (A) (A) (A) (A) (A) (A) (A) (A) (A) (A)
                 (A) (A) (A) (A) (A) (A) (A) (A) (A) (A) (A) (A)
                 (A) (A) (A) (A) (A) (A) (A) (A) (A) (A) (A) (A)
                 (A) (A) (A) (A) (A) (A) (A) (A) (A) (A) (A) (A)
                 (A) (A) (A) (A) (A) (A) (A) (A) (A) (A) (A) (A)
                 (A) (A) (A) (A) (A) (A) (A) (A) (A) (A) (A) (A)
                 (A) (A) (A) (A) (A) (A) (A) (A) (A) (A) (A) (A)
                 (A) (A) (A) (A) (A) (A) (A) (A) (A) (A) (A) (A)
                 (A) (A) (A) (A) (A) (A) (A) (A) (A) (A) (A) (A)
                 (A) (A) (A) (A) (A) (A) (A) (A) (A) (A) (A) (A)
                 (A) (A) (A) (A) (A) (A) (A) (A) (A) (A) (A) (A)
                 (A) (A) (A) (A) (A) (A) (A) (A) (A) (A) (A) (A)
                 (A) (A) (A) (A) (A) (A) (A) (A) (A) (A) (A) (A)
                 (A) (A) (A) (A) (A) (A) (A) (A) (A) (A) (A) (A)
                 (A) (A) (A) (A) (A) (A) (A) (A) (A) (A) (A) (A)
                 (A) (A) (A) (A) (A) (A) (A) (A) (A) (A) (A) (A)
                 (A) (A) (A) (A) (A) (A) (A) (A) (A) (A) (A) (A)
                 (A) (A) (A) (A) (A) (A) (A) (A) (A) (A) (A) (A)
                 (A) (A) (A) (A) (A) (A) (A) (A) (A) (A) (A) (A)
                 (A) (A) (A) (A) (A) (A) (A) (A) (A) (A) (A) (A)
                 (A) (A) (A) (A) (A) (A) (A) (A) (A) (A) (A) (A)
                 (A) (A) (A) (A) (A) (A) (A) (A) (A) (A) (A) (A)
                 (A) (A) (A) (A) (A) (A) (A) (A) (A) (A) (A) (A)
                 (A) (A) (A) (A) (A) (A) (A) (A) (A) (A) (A) (A)
                 (A) (A) (A) (A) (A) (A) (A) (A) (A) (A) (A) (A)
                 (A) (A) (A) (A) (A) (A) (A) (A) (A) (A) (A) (A)
                 (A) (A) (A) (A) (A) (A) (A) (A) (A) (A) (A) (A)
                 (A) (A) (A) (A) (A) (A) (A) (A) (A) (A) (A) (A)
                 (A) (A) (A) (A) (A) (A) (A) (A) (A) (A) (A) (A)
                 (A) (A) (A) (A) (A) (A) (A) (A) (A) (A) (A) (A)
                 (A) (A) (A) (A) (A) (A) (A) (A) (A) (A) (A) (A)
                 (A) (A) (A) (A) (A) (A) (A) (A) (A) (A) (A) (A)
                 (A) (A) (A) (A) (A) (A) (A) (A) (A) (A) (A) (A)
                 (A) (A) (A) (A) (A) (A) (A) (A) (A) (A) (A) (A)
                 (A) (A) (A) (A) (A) (A) (A) (A) (A) (A) (A) (A)
                 (A) (A) (A) (A) (A) (A) (A) (A) (A) (A) (A) (A)
                 (A) (A) (A) (A) (A) (A) (A) (A) (A) (A) (A) (A)
                 (A) (A) (A) (A) (A) (A) (A) (A) (A) (A) (A) (A)
                 (A) (A) (A) (A) (A) (A) (A) (A) (A) (A) (A) (A)
                 (A) (A) (A) (A) (A) (A) (A) (A) (A) (A) (A) (A)
                 (A) (A) (A) (A) (A) (A) (A) (A) (A) (A) (A) (A)
                 (A) (A) (A) (A) (A) (A) (A) (A) (A) (A) (A) (A)
                 (A) (A) (A) (A) (A) (A) (A) (A) (A) (A) (A) (A)
                 (A) (A) (A) (A) (A) (A) (A) (A) (A) (A) (A) (A)
                 (A) (A) (A) (A) (A) (A) (A) (A) (A) (A) (A) (A)
                 (A) (A) (A) (A) (A) (A) (A) (A) (A) (A) (A) (A)
                 (A) (A) (A) (A) (A) (A) (A) (A) (A) (A) (A) (A)
                 (A) (A) (A) (A) (A) (A) (A) (A) (A) (A) (A) (A)
                 (A) (A) (A) (A) (A) (A) (A) (A) (A) (A) (A) (A)
                 (A) (A) (A) (A) (A) (A) (A) (A) (A) (A) (A) (A)
                 (A) (A) (A) (A) (A) (A) (A) (A) (A) (A) (A) (A)
                 (A) (A) (A) (A) (A) (A) (A) (A) (A) (A) (A) (A)
                 (A) (A) (A) (A) (A) (A) (A) (A) (A) (A) (A) (A)
                 (A) (A) (A) (A) (A) (A) (A) (A) (A) (A) (A) (A)
                 (A) (A) (A) (A) (A) (A) (A) (A) (A) (A) (A) (A)
                 (A) (A) (A) (A) (A) (A) (A) (A) (A) (A) (A) (A)
                 (A) (A) (A) (A) (A) (A) (A) (A) (A) (A) (A) (A)
                 (A) (A) (A) (A) (A) (A) (A) (A) (A) (A) (A) (A)
                 (A) (A) (A) (A) (A) (A) (A) (A) (A) (A) (A) (A)
                 (A) (A) (A) (A) (A) (A) (A) (A) (A) (A) (A) (A)
                 (A) (A) (A) (A) (A) (A) (A) (A) (A) (A) (A) (A)
                 (A) (A) (A) (A) (A) (A) (A) (A) (A) (A) (A) (A)
                 (A) (A) (A) (A) (A) (A) (A) (A) (A) (A) (A) (A)
                 (A) (A) (A) (A) (A) (A) (A) (A) (A) (A) (A) (A)
                 (A) (A) (A) (A) (A) (A) (A) (A) (A) (A) (A) (A)
                 (A) (A) (A) (A) (A) (A) (A) (A) (A) (A) (A) (A)
                 (A) (A) (A) (A) (A) (A) (A) (A) (A) (A) (A) (A)
                 (A) (A) (A) (A) (A) (A) (A) (A) (A) (A) (A) (A)
                 (A) (A) (A) (A) (A) (A) (A) (A) (A) (A) (A) (A)
                 (A) (A) (A) (A) (A) (A) (A) (A) (A) (A) (A) (A)
                 (A) (A) (A) (A) (A) (A) (A) (A) (A) (A) (A) (A)
                 (A) (A) (A) (A) (A) (A) (A) (A) (A) (A) (A) (A)
                 (A) (A) (A) (A) (A) (A) (A) (A) (A) (A) (A) (A)
                 (A) (A) (A) (A) (A) (A) (A) (A) (A) (A) (A) (A)
                 (A) (A) (A) (A) (A) (A) (A) (A) (A) (A) (A) (A)
                 (A) (A) (A) (A) (A) (A) (A) (A) (A) (A) (A) (A)
                 (A) (A) (A) (A) (A) (A) (A) (A) (A) (A) (A) (A)
                 (A) (A) (A) (A) (A) (A) (A) (A) (A) (A) (A) (A)
                 (A) (A) (A) (A) (A) (A) (A) (A) (A) (A) (A) (A)
                 (A) (A) (A) (A) (A) (A) (A) (A) (A) (A) (A) (A)
                 (A) (A) (A) (A) (A) (A) (A) (A) (A) (A) (A) (A)
                 (A) (A) (A) (A) (A) (A) (A) (A) (A) (A) (A) (A)
                 (A) (A) (A) (A) (A) (A) (A) (A) (A) (A) (A) (A)
                 (A) (A) (A) (A) (A) (A) (A) (A) (A) (A) (A) (A)
                 (A) (A) (A) (A) (A) (A) (A) (A) (A) (A) (A) (A)
                 (A) (A) (A) (A) (A) (A) (A) (A) (A) (A) (A) (A)
                 (A) (A) (A) (A) (A) (A) (A) (A) (A) (A) (A) (A)
                 (A) (A) (A) (A) (A) (A) (A) (A) (A) (A) (A) (A)
                 (A) (A) (A) (A) (A) (A) (A) (A) (A) (A) (A) (A)
                 (A) (A) (A) (A) (A) (A) (A) (A) (A) (A) (A) (A)
                 (A) (A) (A) (A) (A) (A) (A) (A) (A) (A) (A) (A)
                 (A) (A) (A) (A) (A) (A) (A) (A) (A) (A) (A) (A)
                 (A) (A) (A) (A) (A) (A) (A) (A) (A) (A) (A) (A)
    20 initial guesses have been made.
 Convergence on wavefunction:    0.001000000000000
 Davidson Disk Diagonalization:  ConvIn= 1.00D-03 SkipCon=T Conv= 1.00D-03.
 Max sub-space:  2000 roots to seek:    20 dimension of matrix:       549360
 Iteration     1 Dimension    20 NMult     0 NNew     20
 CISAX will form    20 AO SS matrices at one time.
 NMat=    20 NSing=    20 JSym2X= 0.
 FoFJK:  IHMeth= 1 ICntrl=       0 DoSepK=T KAlg= 0 I1Cent=           0 FoldK=F
 IRaf=         1 NMat=      40 IRICut=       1 DoRegI=T DoRafI=F ISym2E= 0 IDoP0=3 IntGTp=3.
 FoFCou: FMM=T IPFlag=           0 FMFlag=      100000 FMFlg1=        2001
         NFxFlg=           0 DoJE=F BraDBF=F KetDBF=F FulRan=T
         wScrn=  0.000000 ICntrl=       500 IOpCl=  0 I1Cent=           0 NGrid=           0
         NMat0=   20 NMatS0=     20 NMatT0=    0 NMatD0=   20 NMtDS0=    0 NMtDT0=    0
 Symmetry not used in FoFCou.
 FMM levels:  10  Number of levels for PrismC:   9
 New state      1 was old state      8
 New state      2 was old state      5
 New state      3 was old state      1
 New state      5 was old state      2
 Excitation Energies [eV] at current iteration:
 Root      1 :     2.614451610559509
 Root      2 :     2.619213473991625
 Root      3 :     2.680827216712250
 Root      4 :     2.689775351904430
 Root      5 :     3.065682959680116
 Root      6 :     3.067419411296019
 Root      7 :     3.628848331548904
 Root      8 :     3.669066127074987
 Root      9 :     3.735760566404089
 Root     10 :     3.759330318233279
 Root     11 :     3.861271746760161
 Root     12 :     3.868936446725043
 Root     13 :     4.304261691454458
 Root     14 :     4.305688996095559
 Root     15 :     4.978204993945374
 Root     16 :     5.000025293699497
 Root     17 :     5.272298602923261
 Root     18 :     5.294279923639406
 Root     19 :     5.304476532078945
 Root     20 :     5.328399588002032
 Iteration     2 Dimension    30 NMult    20 NNew     10
 CISAX will form    10 AO SS matrices at one time.
 NMat=    10 NSing=    10 JSym2X= 0.
 New state      1 was old state      3
 Root      1 not converged, maximum delta is    0.190542553156408
 New state      2 was old state      4
 Root      2 not converged, maximum delta is    0.191764103215906
 New state      3 was old state      2
 Root      3 not converged, maximum delta is    0.067168238683975
 New state      4 was old state      1
 Root      4 not converged, maximum delta is    0.089756183526867
 Root      5 has converged.
 Excitation Energies [eV] at current iteration:
 Root      1 :     1.801519779149827   Change is   -0.879307437562423
 Root      2 :     1.807210839433915   Change is   -0.882564512470515
 Root      3 :     2.235842917367267   Change is   -0.383370556624358
 Root      4 :     2.239077009652027   Change is   -0.375374600907482
 Root      5 :     3.065676798602942   Change is   -0.000006161077173
 Iteration     3 Dimension    38 NMult    30 NNew      8
 CISAX will form     8 AO SS matrices at one time.
 NMat=     8 NSing=     8 JSym2X= 0.
 Root      1 not converged, maximum delta is    0.071792838607861
 Root      2 not converged, maximum delta is    0.072960669995016
 Root      3 not converged, maximum delta is    0.043935281814742
 Root      4 not converged, maximum delta is    0.042576073973232
 Root      5 has converged.
 Excitation Energies [eV] at current iteration:
 Root      1 :     1.694281292501923   Change is   -0.107238486647903
 Root      2 :     1.698815085107060   Change is   -0.108395754326855
 Root      3 :     2.194396484270543   Change is   -0.041446433096724
 Root      4 :     2.200171697178949   Change is   -0.038905312473078
 Root      5 :     3.065676798602969   Change is    0.000000000000027
 Iteration     4 Dimension    46 NMult    38 NNew      8
 CISAX will form     8 AO SS matrices at one time.
 NMat=     8 NSing=     8 JSym2X= 0.
 Root      1 not converged, maximum delta is    0.013366888192667
 Root      2 not converged, maximum delta is    0.013640455325024
 Root      3 not converged, maximum delta is    0.009724312429539
 Root      4 not converged, maximum delta is    0.008907631896912
 Root      5 has converged.
 Excitation Energies [eV] at current iteration:
 Root      1 :     1.677574641834773   Change is   -0.016706650667150
 Root      2 :     1.681928386517685   Change is   -0.016886698589375
 Root      3 :     2.187095947544687   Change is   -0.007300536725857
 Root      4 :     2.193393853050034   Change is   -0.006777844128915
 Root      5 :     3.065676798602942   Change is   -0.000000000000027
 Iteration     5 Dimension    54 NMult    46 NNew      8
 CISAX will form     8 AO SS matrices at one time.
 NMat=     8 NSing=     8 JSym2X= 0.
 Root      1 not converged, maximum delta is    0.002224354968068
 Root      2 not converged, maximum delta is    0.002222319423506
 Root      3 not converged, maximum delta is    0.002500613757805
 Root      4 not converged, maximum delta is    0.002389099664517
 Root      5 has converged.
 Excitation Energies [eV] at current iteration:
 Root      1 :     1.675795396012735   Change is   -0.001779245822038
 Root      2 :     1.680156281382907   Change is   -0.001772105134778
 Root      3 :     2.186250294325774   Change is   -0.000845653218913
 Root      4 :     2.192617044510078   Change is   -0.000776808539956
 Root      5 :     3.065676798602996   Change is    0.000000000000054
 Iteration     6 Dimension    62 NMult    54 NNew      8
 CISAX will form     8 AO SS matrices at one time.
 NMat=     8 NSing=     8 JSym2X= 0.
 Root      1 not converged, maximum delta is    0.001397058577727
 Root      2 not converged, maximum delta is    0.001419246438374
 Root      3 not converged, maximum delta is    0.001068516264212
 Root      4 not converged, maximum delta is    0.001015842977971
 Root      5 has converged.
 Excitation Energies [eV] at current iteration:
 Root      1 :     1.675541676700447   Change is   -0.000253719312288
 Root      2 :     1.679901416699805   Change is   -0.000254864683102
 Root      3 :     2.186122133808593   Change is   -0.000128160517181
 Root      4 :     2.192499199702657   Change is   -0.000117844807421
 Root      5 :     3.065676798602996   Change is    0.000000000000000
 Iteration     7 Dimension    70 NMult    62 NNew      8
 CISAX will form     8 AO SS matrices at one time.
 NMat=     8 NSing=     8 JSym2X= 0.
 Root      1 has converged.
 Root      2 has converged.
 Root      3 has converged.
 Root      4 has converged.
 Root      5 has converged.
 Excitation Energies [eV] at current iteration:
 Root      1 :     1.675517520433687   Change is   -0.000024156266760
 Root      2 :     1.679877739286310   Change is   -0.000023677413495
[...]
 Alpha virt. eigenvalues --    1.85140   1.85301   1.85312   1.85442   1.85519
 Alpha virt. eigenvalues --    1.85854   1.85905   1.86337   1.86397   1.86593
 Alpha virt. eigenvalues --    1.86606   1.86780   1.86821   1.86996   1.87077
 Alpha virt. eigenvalues --    1.87435   1.87483   1.87719   1.87724   1.87905
 Alpha virt. eigenvalues --    1.87968   1.88078   1.88131   1.88527   1.88574
 Alpha virt. eigenvalues --    1.88861   1.88891   1.89027   1.89163   1.89613
 Alpha virt. eigenvalues --    1.89663   1.89783   1.89831   1.90142   1.90156
 Alpha virt. eigenvalues --    1.90790   1.90847   1.91381   1.91387   1.91478
 Alpha virt. eigenvalues --    1.91542   1.92134   1.92192   1.92612   1.92665
 Alpha virt. eigenvalues --    1.93019   1.93103   1.93374   1.93456   1.94263
 Alpha virt. eigenvalues --    1.94320   1.94725   1.94769   1.95511   1.95547
 Alpha virt. eigenvalues --    1.95764   1.95766   1.96001   1.96034   1.96124
 Alpha virt. eigenvalues --    1.96189   1.96434   1.96632   1.96888   1.96937
 Alpha virt. eigenvalues --    1.97487   1.97494   1.97753   1.97873   1.98118
 Alpha virt. eigenvalues --    1.98208   1.98299   1.98715   1.99024   1.99174
 Alpha virt. eigenvalues --    1.99861   1.99882   2.00677   2.00697   2.01035
 Alpha virt. eigenvalues --    2.01046   2.01460   2.01520   2.01557   2.01710
 Alpha virt. eigenvalues --    2.01758   2.01774   2.02661   2.02823   2.03093
 Alpha virt. eigenvalues --    2.03272   2.03329   2.03442   2.03470   2.03523
 Alpha virt. eigenvalues --    2.03976   2.04073   2.04928   2.04995   2.05551
 Alpha virt. eigenvalues --    2.05581   2.06116   2.06237   2.06942   2.06981
 Alpha virt. eigenvalues --    2.07221   2.07298   2.08506   2.08621   2.08954
 Alpha virt. eigenvalues --    2.09019   2.09561   2.09628   2.10814   2.10986
 Alpha virt. eigenvalues --    2.11220   2.11357   2.11480   2.11577   2.11765
 Alpha virt. eigenvalues --    2.11814   2.12414   2.12503   2.12751   2.12818
 Alpha virt. eigenvalues --    2.12841   2.12872   2.13577   2.13806   2.14172
 Alpha virt. eigenvalues --    2.14204   2.15356   2.15373   2.15963   2.16030
 Alpha virt. eigenvalues --    2.16541   2.16558   2.16791   2.17121   2.17453
 Alpha virt. eigenvalues --    2.17600   2.17741   2.17881   2.17954   2.18105
 Alpha virt. eigenvalues --    2.18362   2.18619   2.18906   2.19181   2.19678
 Alpha virt. eigenvalues --    2.19766   2.20076   2.20190   2.20248   2.20385
 Alpha virt. eigenvalues --    2.21124   2.21185   2.21706   2.21711   2.21781
 Alpha virt. eigenvalues --    2.21822   2.22649   2.22716   2.23290   2.23349
 Alpha virt. eigenvalues --    2.24367   2.24430   2.24954   2.24993   2.26336
 Alpha virt. eigenvalues --    2.26386   2.26815   2.26955   2.27139   2.27149
 Alpha virt. eigenvalues --    2.28174   2.28260   2.29304   2.29384   2.29771
 Alpha virt. eigenvalues --    2.29825   2.30491   2.30566   2.30769   2.31119
 Alpha virt. eigenvalues --    2.31148   2.31219   2.32155   2.32188   2.33171
 Alpha virt. eigenvalues --    2.33179   2.33429   2.33497   2.34087   2.34174
 Alpha virt. eigenvalues --    2.35242   2.35408   2.35833   2.35854   2.36278
 Alpha virt. eigenvalues --    2.36386   2.36396   2.36659   2.37624   2.37693
 Alpha virt. eigenvalues --    2.38291   2.38328   2.38725   2.38893   2.39612
 Alpha virt. eigenvalues --    2.39646   2.40213   2.40216   2.40521   2.40770
 Alpha virt. eigenvalues --    2.41155   2.41305   2.41639   2.41720   2.42070
 Alpha virt. eigenvalues --    2.42075   2.42768   2.42976   2.43008   2.43572
 Alpha virt. eigenvalues --    2.43919   2.44204   2.44747   2.44765   2.44930
 Alpha virt. eigenvalues --    2.44938   2.45513   2.45581   2.46227   2.46334
 Alpha virt. eigenvalues --    2.46437   2.46512   2.46739   2.46834   2.47287
 Alpha virt. eigenvalues --    2.47319   2.47747   2.47827   2.49336   2.49342
 Alpha virt. eigenvalues --    2.49835   2.50101   2.50397   2.50581   2.51155
 Alpha virt. eigenvalues --    2.51204   2.51550   2.51920   2.52333   2.52474
 Alpha virt. eigenvalues --    2.52843   2.53100   2.53909   2.53951   2.54181
 Alpha virt. eigenvalues --    2.54223   2.54744   2.54821   2.55551   2.55604
 Alpha virt. eigenvalues --    2.57897   2.58015   2.58676   2.58840   2.60233
 Alpha virt. eigenvalues --    2.60240   2.60646   2.60857   2.61743   2.61756
 Alpha virt. eigenvalues --    2.62364   2.62566   2.62988   2.63059   2.63969
 Alpha virt. eigenvalues --    2.64151   2.64275   2.64362   2.65032   2.65111
 Alpha virt. eigenvalues --    2.65792   2.65820   2.66754   2.66809   2.66942
 Alpha virt. eigenvalues --    2.66988   2.67912   2.67940   2.68751   2.68890
 Alpha virt. eigenvalues --    2.68960   2.69056   2.69422   2.69523   2.70030
 Alpha virt. eigenvalues --    2.70068   2.70996   2.71012   2.71822   2.72086
 Alpha virt. eigenvalues --    2.72420   2.72662   2.72686   2.72863   2.73217
 Alpha virt. eigenvalues --    2.73306   2.73393   2.73567   2.74435   2.74543
 Alpha virt. eigenvalues --    2.74982   2.75007   2.76448   2.76622   2.76991
 Alpha virt. eigenvalues --    2.77264   2.77487   2.77532   2.78220   2.78223
 Alpha virt. eigenvalues --    2.78616   2.78762   2.79080   2.79166   2.80191
 Alpha virt. eigenvalues --    2.80376   2.80612   2.80622   2.81074   2.81147
 Alpha virt. eigenvalues --    2.81912   2.81966   2.82259   2.82372   2.83772
 Alpha virt. eigenvalues --    2.83784   2.83798   2.83826   2.84451   2.84576
 Alpha virt. eigenvalues --    2.84809   2.84913   2.85616   2.85698   2.86581
 Alpha virt. eigenvalues --    2.87027   2.87094   2.87641   2.88161   2.88185
 Alpha virt. eigenvalues --    2.88538   2.88539   2.88794   2.88965   2.90529
 Alpha virt. eigenvalues --    2.90580   2.90990   2.91218   2.93187   2.93241
 Alpha virt. eigenvalues --    2.93691   2.94230   2.94495   2.94587   2.95391
 Alpha virt. eigenvalues --    2.95400   2.95756   2.96236   2.96295   2.96471
 Alpha virt. eigenvalues --    2.96789   2.97211   2.97850   2.97953   2.98239
 Alpha virt. eigenvalues --    2.98274   2.98396   2.98492   2.98633   2.98699
 Alpha virt. eigenvalues --    2.98842   2.98913   2.99615   2.99721   2.99934
 Alpha virt. eigenvalues --    3.00064   3.00252   3.00257   3.00494   3.00910
 Alpha virt. eigenvalues --    3.01822   3.02019   3.02034   3.02064   3.02740
 Alpha virt. eigenvalues --    3.02767   3.03011   3.03236   3.03358   3.03626
 Alpha virt. eigenvalues --    3.03971   3.04200   3.04350   3.04481   3.04578
 Alpha virt. eigenvalues --    3.04646   3.05272   3.05325   3.06084   3.06144
 Alpha virt. eigenvalues --    3.06837   3.06855   3.07842   3.08175   3.09278
 Alpha virt. eigenvalues --    3.09434   3.09726   3.10347   3.10475   3.10656
 Alpha virt. eigenvalues --    3.11360   3.11401   3.11820   3.11977   3.12205
 Alpha virt. eigenvalues --    3.12220   3.13316   3.13565   3.13608   3.13670
 Alpha virt. eigenvalues --    3.14127   3.14388   3.15909   3.15950   3.17296
 Alpha virt. eigenvalues --    3.17436   3.17799   3.18109   3.18950   3.19159
 Alpha virt. eigenvalues --    3.22341   3.22512   3.23980   3.24355   3.24708
 Alpha virt. eigenvalues --    3.25108   3.26538   3.26573   3.27311   3.27654
 Alpha virt. eigenvalues --    3.29137   3.29137   3.31295   3.31558   3.33102
 Alpha virt. eigenvalues --    3.33452   3.40175   3.40668   3.42736   3.42849
 Alpha virt. eigenvalues --    3.48613   3.48693   3.50056   3.50198   3.50753
 Alpha virt. eigenvalues --    3.51509   3.56584   3.56922   3.59133   3.59257
 Alpha virt. eigenvalues --    3.62431   3.62872   3.66035   3.66218   3.67223
 Alpha virt. eigenvalues --    3.67457   3.73308   3.73936   3.76093   3.76594
          Condensed to atoms (all electrons):
 Mulliken charges:
               1
     1  Mg   0.838652
     2  C   -0.002973
     3  C   -0.094109
     4  C   -0.045873
     5  C   -0.063953
     6  N   -0.256790
     7  C   -0.052417
     8  C   -0.014036
     9  C   -0.086975
    10  C    0.046317
    11  C    0.104809
    12  C    0.053458
    13  C   -0.071833
    14  H    0.036200
    15  N   -0.433113
    16  C    0.168413
    17  C   -0.177162
    18  C   -0.004016
    19  C    0.148710
    20  C    0.110184
    21  C    0.012272
    22  O   -0.249662
    23  C    0.062481
    24  N   -0.341120
    25  C    0.041243
    26  C   -0.028182
    27  C   -0.023976
    28  C    0.074844
    29  C    0.076187
    30  C    0.035132
    31  C   -0.004500
    32  N   -0.310457
    33  C    0.080393
    34  C   -0.169712
    35  C    0.008378
    36  C    0.082983
    37  C    0.127312
    38  C    0.046123
    39  O   -0.188407
    40  C   -0.005320
    41  C    0.212895
    42  O   -0.257098
    43  O   -0.304805
    44  C    0.157680
    45  H   -0.017594
    46  H   -0.016869
    47  H   -0.041499
    48  H    0.000955
    49  H   -0.004015
    50  H    0.025481
    51  H    0.016432
    52  H    0.016673
    53  H    0.011201
    54  H    0.044132
    55  H    0.017878
    56  H    0.017957
    57  H    0.005894
    58  H    0.026811
    59  H    0.039537
    60  H    0.037356
    61  H    0.035601
    62  H    0.031495
    63  H    0.016525
    64  H    0.009462
    65  H    0.023182
    66  H    0.012552
    67  H    0.004751
    68  H    0.006341
    69  H    0.004737
    70  H    0.008751
    71  H    0.018132
    72  H    0.029004
    73  H    0.047584
    74  H    0.009101
    75  H    0.046016
    76  H    0.035164
    77  H    0.042971
    78  H    0.046418
    79  H    0.053711
    80  Mg   0.837823
    81  C   -0.016837
    82  C   -0.087794
    83  C   -0.045495
    84  C   -0.064862
    85  N   -0.254568
    86  C   -0.049841
    87  C   -0.015081
    88  C   -0.090492
    89  C    0.045754
    90  C    0.114363
    91  C    0.062517
    92  C   -0.077894
    93  H    0.034877
    94  N   -0.423497
    95  C    0.162938
    96  C   -0.174613
    97  C   -0.007784
    98  C    0.152116
    99  C    0.099361
   100  C    0.015588
   101  O   -0.253144
   102  C    0.061191
   103  N   -0.350041
   104  C    0.037538
   105  C   -0.019847
   106  C   -0.034829
   107  C    0.088909
   108  C    0.073629
   109  C    0.034744
   110  C   -0.007694
   111  N   -0.324100
   112  C    0.078446
   113  C   -0.163120
   114  C    0.002237
   115  C    0.096200
   116  C    0.131493
   117  C    0.042380
   118  O   -0.187884
   119  C    0.000892
   120  C    0.211261
   121  O   -0.251016
   122  O   -0.305635
   123  C    0.152032
   124  H   -0.019653
   125  H   -0.015533
   126  H   -0.040421
   127  H   -0.000664
   128  H   -0.004337
   129  H    0.022466
   130  H    0.014469
   131  H    0.016275
   132  H    0.013923
   133  H    0.037677
   134  H    0.020776
   135  H    0.019592
   136  H    0.008755
   137  H    0.026180
   138  H    0.039797
   139  H    0.038272
   140  H    0.036422
   141  H    0.033886
   142  H    0.014412
   143  H    0.012482
   144  H    0.025180
   145  H    0.011666
   146  H    0.005745
   147  H    0.006304
   148  H    0.003665
   149  H    0.010942
   150  H    0.017937
   151  H    0.030077
   152  H    0.045991
   153  H    0.008538
   154  H    0.046980
   155  H    0.035025
   156  H    0.043891
   157  H    0.049485
   158  H    0.053579
 Sum of Mulliken charges =  -0.00000
 Mulliken charges with hydrogens summed into heavy atoms:
               1
     1  Mg   0.838652
     2  C   -0.002973
     3  C   -0.111704
     4  C   -0.062742
     5  C   -0.105452
     6  N   -0.256790
     7  C   -0.052417
     8  C   -0.013082
     9  C   -0.090990
    10  C    0.046317
    11  C    0.163395
    12  C    0.108791
    13  C    0.000203
    15  N   -0.433113
    16  C    0.168413
    17  C   -0.177162
    18  C   -0.004016
    19  C    0.148710
    20  C    0.182426
    21  C    0.012272
    22  O   -0.249662
    23  C    0.166932
    24  N   -0.341120
    25  C    0.041243
    26  C   -0.011657
    27  C   -0.014515
    28  C    0.074844
    29  C    0.116671
    30  C    0.046210
    31  C    0.051387
    32  N   -0.310457
    33  C    0.080393
    34  C   -0.169712
    35  C    0.008378
    36  C    0.082983
    37  C    0.230013
    38  C    0.046123
    39  O   -0.188407
    40  C    0.029844
    41  C    0.212895
    42  O   -0.257098
    43  O   -0.304805
    44  C    0.300779
    80  Mg   0.837823
    81  C   -0.016837
    82  C   -0.107447
    83  C   -0.061028
    84  C   -0.105283
    85  N   -0.254568
    86  C   -0.049841
    87  C   -0.015745
    88  C   -0.094829
    89  C    0.045754
    90  C    0.167573
    91  C    0.114118
    92  C   -0.002649
    94  N   -0.423497
    95  C    0.162938
    96  C   -0.174613
    97  C   -0.007784
    98  C    0.152116
    99  C    0.174093
   100  C    0.015588
   101  O   -0.253144
   102  C    0.169770
   103  N   -0.350041
   104  C    0.037538
   105  C   -0.005436
   106  C   -0.022347
   107  C    0.088909
   108  C    0.116219
   109  C    0.044713
   110  C    0.051261
   111  N   -0.324100
   112  C    0.078446
   113  C   -0.163120
   114  C    0.002237
   115  C    0.096200
   116  C    0.233002
   117  C    0.042380
   118  O   -0.187884
   119  C    0.035917
   120  C    0.211261
   121  O   -0.251016
   122  O   -0.305635
   123  C    0.298986
 Electronic spatial extent (au):  <R**2>=         614447.5319
 Charge=             -0.0000 electrons
 Dipole moment (field-independent basis, Debye):
    X=             -3.8182    Y=              2.0279    Z=              6.7081  Tot=              7.9806
 Quadrupole moment (field-independent basis, Debye-Ang):
   XX=           -517.1145   YY=           -521.1623   ZZ=           -477.6874
   XY=             69.5274   XZ=            -21.2444   YZ=            -20.0770
 Traceless Quadrupole moment (field-independent basis, Debye-Ang):
   XX=            -11.7931   YY=            -15.8409   ZZ=             27.6340
   XY=             69.5274   XZ=            -21.2444   YZ=            -20.0770
 Octapole moment (field-independent basis, Debye-Ang**2):
  XXX=          -2899.7455  YYY=            -85.4578  ZZZ=            210.4353  XYY=           -694.1664
  XXY=            547.2561  XXZ=           1645.0019  XZZ=            700.0186  YZZ=            -79.4659
  YYZ=             42.8072  XYZ=            753.8236
 Hexadecapole moment (field-independent basis, Debye-Ang**3):
 XXXX=        -787229.0954 YYYY=         -36973.8730 ZZZZ=         -29118.3887 XXXY=          20222.4655
 XXXZ=          -4501.0445 YYYX=           3684.9381 YYYZ=            366.9718 ZZZX=          -3015.5613
 ZZZY=           -886.6845 XXYY=        -138297.8312 XXZZ=        -125873.1166 YYZZ=         -11175.2869
 XXYZ=          -5535.1226 YYXZ=           4661.1667 ZZXY=          -1790.7323
 N-N= 1.230621816903D+04 E-N=-3.409326394257D+04  KE= 4.028802066422D+03
 Leave Link  601 at Sat Sep  4 19:18:11 2021, MaxMem= 23488102400 cpu:              16.6 elap:               0.8
 (Enter /sw/apps/gaussian-16.0/g16/l9999.exe)
 1\1\GINC-BP1-COMPUTE00097\SP\RCAM-B3LYP TD-FC\def2SVP\C68H72Mg2N8O8\OF
 15641\04-Sep-2021\0\\#p cam-b3lyp/Def2SVP td=(nstates=5)\\TDDFT excite
 d states in gaussian\\0,1\Mg,0,0.,0.,0.\C,0,-0.217,-2.218,2.801\C,0,-1
 .255,2.442,2.026\C,0,-0.245,1.85,-2.564\C,0,0.146,-2.824,-2.037\N,0,-0
 .617,-0.009,2.126\C,0,-0.594,-0.908,3.105\C,0,-0.936,-0.309,4.502\C,0,
 -1.773,0.964,4.032\C,0,-1.155,1.168,2.66\C,0,-3.263,0.685,3.863\C,0,0.
 345,0.11,5.299\C,0,0.124,0.397,6.787\H,0,1.168,0.033,7.733\N,0,-0.185,
 1.961,-0.152\C,0,-0.703,2.8,0.777\C,0,-0.62,4.156,0.193\C,0,-0.187,4.0
 15,-1.225\C,0,-0.214,2.583,-1.38\C,0,-0.887,5.406,0.974\C,0,0.181,5.01
 3,-2.277\O,0,0.303,4.69,-3.508\C,0,0.31,6.414,-1.837\N,0,-0.265,-0.413
 ,-2.029\C,0,-0.279,0.569,-2.937\C,0,-0.196,0.024,-4.332\C,0,0.124,-1.5
 33,-4.18\C,0,0.086,-1.632,-2.635\C,0,-1.451,0.205,-5.197\C,0,1.373,-2.
 07,-4.923\C,0,2.626,-1.49,-4.306\N,0,0.15,-2.144,0.303\C,0,0.173,-3.13
 6,-0.688\C,0,0.173,-4.438,0.004\C,0,0.133,-4.111,1.358\C,0,0.083,-2.69
 5,1.502\C,0,0.149,-5.715,-0.623\C,0,0.096,-4.629,2.716\O,0,0.208,-5.74
 7,3.221\C,0,-0.255,-3.428,3.701\C,0,0.717,-3.482,4.848\O,0,1.931,-3.25
 5,4.669\O,0,0.038,-3.556,6.003\C,0,0.943,-3.583,7.183\H,0,-1.859,3.22,
 2.497\H,0,-0.218,2.453,-3.474\H,0,0.276,-3.747,-2.605\H,0,-1.554,-0.94
 9,5.132\H,0,-1.585,1.831,4.665\H,0,-3.484,-0.377,3.969\H,0,-3.511,1.02
 7,2.858\H,0,-3.852,1.301,4.543\H,0,0.669,1.096,4.966\H,0,1.13,-0.639,5
 .189\H,0,-0.844,0.026,7.125\H,0,0.062,1.477,6.921\H,0,-1.344,5.186,1.9
 38\H,0,-1.651,5.963,0.432\H,0,0.007,6.02,1.084\H,0,-0.635,6.744,-1.405
 \H,0,0.665,6.97,-2.704\H,0,1.048,6.466,-1.036\H,0,0.608,0.501,-4.891\H
 ,0,-0.692,-2.156,-4.547\H,0,-1.267,0.74,-6.129\H,0,-2.204,0.714,-4.596
 \H,0,-1.967,-0.72,-5.453\H,0,1.356,-1.759,-5.967\H,0,1.452,-3.157,-4.9
 02\H,0,2.714,-0.522,-4.798\H,0,3.487,-2.121,-4.529\H,0,2.495,-1.303,-3
 .24\H,0,0.867,-6.333,-0.084\H,0,0.404,-5.642,-1.68\H,0,-0.891,-5.999,-
 0.463\H,0,-1.283,-3.581,4.028\H,0,0.698,-4.478,7.755\H,0,0.833,-2.619,
 7.68\H,0,2.,-3.754,6.976\Mg,0,31.53917,2.84706,2.39461\C,0,30.94677,4.
 46559,5.54238\C,0,30.51088,5.72961,0.88858\C,0,31.61938,1.3092,-0.3795
 6\C,0,31.41484,-0.19387,4.09256\N,0,30.84382,4.77925,3.21643\C,0,30.71
 891,5.29966,4.428\C,0,30.40593,6.81995,4.44586\C,0,29.74023,6.94553,2.
 98986\C,0,30.42965,5.76812,2.30351\C,0,28.24244,6.68874,2.98874\C,0,31
 .7026,7.69582,4.56209\C,0,31.45592,9.16887,4.89532\H,0,32.41788,9.8598
 ,5.74955\N,0,31.60077,3.54801,0.53896\C,0,31.16017,4.74843,0.10752\C,0
 ,31.41368,4.77304,-1.34137\C,0,31.88861,3.42543,-1.75743\C,0,31.69732,
 2.68658,-0.52552\C,0,31.27827,6.01734,-2.17011\C,0,32.41438,2.88727,-3
 .05364\O,0,32.54406,1.62843,-3.25693\C,0,32.68472,3.87236,-4.11099\N,0
 ,31.30975,0.84443,1.88549\C,0,31.44362,0.43522,0.6117\C,0,31.51079,-1.
 07099,0.52683\C,0,31.63774,-1.58116,2.03719\C,0,31.52738,-0.22708,2.77
 18\C,0,30.31778,-1.75345,-0.14202\C,0,32.84071,-2.50612,2.36883\C,0,34
 .13406,-1.73185,2.2541\N,0,31.42299,2.22229,4.45961\C,0,31.35635,0.898
 97,4.94794\C,0,31.17292,0.98365,6.41136\C,0,31.12208,2.36131,6.67209\C
 ,0,31.24358,3.08395,5.4545\C,0,31.02877,-0.12132,7.29701\C,0,30.98261,
 3.36841,7.69922\O,0,30.93274,3.35441,8.92846\C,0,30.73599,4.77376,6.99
 882\C,0,31.65081,5.77998,7.64159\O,0,32.88452,5.68045,7.52059\O,0,30.9
 1788,6.80824,8.1062\C,0,31.78193,7.83772,8.74292\H,0,29.99288,6.50095,
 0.31798\H,0,31.75322,0.72963,-1.29589\H,0,31.46519,-1.09627,4.70559\H,
 0,29.69862,7.12922,5.20602\H,0,30.0148,7.881,2.50936\H,0,27.89155,6.34
 698,3.95115\H,0,28.07435,5.9316,2.23407\H,0,27.70754,7.57932,2.64655\H
 ,0,32.15384,7.80128,3.5671\H,0,32.38499,7.27367,5.27397\H,0,30.43246,9
 .34598,5.24763\H,0,31.52602,9.74985,3.97252\H,0,30.75436,6.81039,-1.62
 241\H,0,30.60967,5.77538,-3.00336\H,0,32.23353,6.36175,-2.57204\H,0,31
 .77193,4.41793,-4.33822\H,0,33.13779,3.30733,-4.9279\H,0,33.40346,4.60
 636,-3.72983\H,0,32.38632,-1.38851,-0.02611\H,0,30.76376,-2.17577,2.34
 123\H,0,30.60329,-2.38474,-1.0046\H,0,29.6141,-0.98993,-0.446\H,0,29.7
 1347,-2.37593,0.51564\H,0,32.9021,-3.32199,1.64444\H,0,32.78167,-2.954
 7,3.35487\H,0,34.35144,-1.77192,1.18255\H,0,34.92005,-2.21084,2.83448\
 H,0,33.98748,-0.67894,2.52157\H,0,31.63963,0.09275,8.16391\H,0,31.3254
 4,-1.05365,6.82107\H,0,29.95264,-0.08101,7.48562\H,0,29.6847,5.02894,7
 .13758\H,0,31.40557,7.98624,9.75977\H,0,31.75646,8.71065,8.06387\H,0,3
 2.81537,7.57485,8.93619\\Version=ES64L-G16RevA.03\State=1-A\HF=-4069.8
 117834\RMSD=4.547e-09\PG=C01 [X(C68H72Mg2N8O8)]\\@


 THE WORLD OF CHEMICAL REACTIONS IS LIKE A STAGE,
 ON WHICH SCENE AFTER SCENE IS CEASELESSLY PLAYED.
 THE ACTORS ON IT ARE THE ELEMENTS.
   -- CLEMENS WINKLER   BER. 30,13(1897)
 (DISCOVERER OF GERMANIUM, FEB 6, 1886)
 Job cpu time:       0 days 10 hours  9 minutes 14.1 seconds.
 Elapsed time:       0 days  0 hours 25 minutes 58.4 seconds.
 File lengths (MBytes):  RWF=  13225 Int=      0 D2E=      0 Chk=    574 Scr=      1
 Normal termination of Gaussian 16 at Sat Sep  4 19:18:12 2021.
