 Entering Gaussian System, Link 0=g16
 Initial command:
 /sw/apps/gaussian-16.0/g16/l1.exe "/tmp/Gau-138408.inp" -scrdir="/tmp/"
 Entering Link 1 = /sw/apps/gaussian-16.0/g16/l1.exe PID=    138409.
  
 Copyright (c) 1988,1990,1992,1993,1995,1998,2003,2009,2016,
            Gaussian, Inc.  All Rights Reserved.
  
 This is part of the Gaussian(R) 16 program.  It is based on
 the Gaussian(R) 09 system (copyright 2009, Gaussian, Inc.),
 the Gaussian(R) 03 system (copyright 2003, Gaussian, Inc.),
 the Gaussian(R) 98 system (copyright 1998, Gaussian, Inc.),
 the Gaussian(R) 94 system (copyright 1995, Gaussian, Inc.),
 the Gaussian 92(TM) system (copyright 1992, Gaussian, Inc.),
 the Gaussian 90(TM) system (copyright 1990, Gaussian, Inc.),
 the Gaussian 88(TM) system (copyright 1988, Gaussian, Inc.),
 the Gaussian 86(TM) system (copyright 1986, Carnegie Mellon
 University), and the Gaussian 82(TM) system (copyright 1983,
 Carnegie Mellon University). Gaussian is a federally registered
 trademark of Gaussian, Inc.
  
 This software contains proprietary and confidential information,
 including trade secrets, belonging to Gaussian, Inc.
  
 This software is provided under written license and may be
 used, copied, transmitted, or stored only in accord with that
 written license.
  
 The following legend is applicable only to US Government
 contracts under FAR:
  
                    RESTRICTED RIGHTS LEGEND
  
 Use, reproduction and disclosure by the US Government is
 subject to restrictions as set forth in subparagraphs (a)
 and (c) of the Commercial Computer Software - Restricted
 Rights clause in FAR 52.227-19.
  
 Gaussian, Inc.
 340 Quinnipiac St., Bldg. 40, Wallingford CT 06492
  
  
 ---------------------------------------------------------------
 Warning -- This program may not be used in any manner that
 competes with the business of Gaussian, Inc. or will provide
 assistance to any competitor of Gaussian, Inc.  The licensee
 of this program is prohibited from giving any competitor of
 Gaussian, Inc. access to this program.  By using this program,
 the user acknowledges that Gaussian, Inc. is engaged in the
 business of creating and licensing software in the field of
 computational chemistry and represents and warrants to the
 licensee that it is not a competitor of Gaussian, Inc. and that
 it will not use this program in any manner prohibited above.
 ---------------------------------------------------------------
  

 Cite this work as:
 Gaussian 16, Revision A.03,
 M. J. Frisch, G. W. Trucks, H. B. Schlegel, G. E. Scuseria, 
 M. A. Robb, J. R. Cheeseman, G. Scalmani, V. Barone, 
 G. A. Petersson, H. Nakatsuji, X. Li, M. Caricato, A. V. Marenich, 
 J. Bloino, B. G. Janesko, R. Gomperts, B. Mennucci, H. P. Hratchian, 
 J. V. Ortiz, A. F. Izmaylov, J. L. Sonnenberg, D. Williams-Young, 
 F. Ding, F. Lipparini, F. Egidi, J. Goings, B. Peng, A. Petrone, 
 T. Henderson, D. Ranasinghe, V. G. Zakrzewski, J. Gao, N. Rega, 
 G. Zheng, W. Liang, M. Hada, M. Ehara, K. Toyota, R. Fukuda, 
 J. Hasegawa, M. Ishida, T. Nakajima, Y. Honda, O. Kitao, H. Nakai, 
 T. Vreven, K. Throssell, J. A. Montgomery, Jr., J. E. Peralta, 
 F. Ogliaro, M. J. Bearpark, J. J. Heyd, E. N. Brothers, K. N. Kudin, 
 V. N. Staroverov, T. A. Keith, R. Kobayashi, J. Normand, 
 K. Raghavachari, A. P. Rendell, J. C. Burant, S. S. Iyengar, 
 J. Tomasi, M. Cossi, J. M. Millam, M. Klene, C. Adamo, R. Cammi, 
 J. W. Ochterski, R. L. Martin, K. Morokuma, O. Farkas, 
 J. B. Foresman, and D. J. Fox, Gaussian, Inc., Wallingford CT, 2016.
 
 ******************************************
 Gaussian 16:  ES64L-G16RevA.03 25-Dec-2016
                19-Aug-2021 
 ******************************************
 %nproc=24
 Will use up to   24 processors via shared memory.
 %mem=175gb
 -----------------------------------
 #p cam-b3lyp/Def2SVP td=(nstates=5)
 -----------------------------------
 1/38=1,172=1/1;
 2/12=2,17=6,18=5,40=1/2;
 3/5=43,7=101,11=9,25=1,30=1,74=-40/1,2,3,8;
 4//1;
 5/5=2,38=5/2;
 8/6=1,10=1,108=5/1;
 9/41=5,42=1,70=2/14;
 6/7=2,8=2,9=2,10=2/1;
 99/5=1,9=1/99;
 Leave Link    1 at Thu Aug 19 22:43:53 2021, MaxMem= 23488102400 cpu:               0.5 elap:               0.0
 (Enter /sw/apps/gaussian-16.0/g16/l101.exe)
 --------------------------------
 TDDFT excited states in gaussian
 --------------------------------
 Symbolic Z-matrix:
 Charge =  0 Multiplicity = 1
 Mg                    0.        0.        0. 
 C                    -0.217    -2.218     2.801 
 C                    -1.255     2.442     2.026 
 C                    -0.245     1.85     -2.564 
 C                     0.146    -2.824    -2.037 
 N                    -0.617    -0.009     2.126 
 C                    -0.594    -0.908     3.105 
 C                    -0.936    -0.309     4.502 
 C                    -1.773     0.964     4.032 
 C                    -1.155     1.168     2.66 
 C                    -3.263     0.685     3.863 
 C                     0.345     0.11      5.299 
 C                     0.124     0.397     6.787 
 H                     1.168     0.033     7.733 
 N                    -0.185     1.961    -0.152 
 C                    -0.703     2.8       0.777 
 C                    -0.62      4.156     0.193 
 C                    -0.187     4.015    -1.225 
 C                    -0.214     2.583    -1.38 
 C                    -0.887     5.406     0.974 
 C                     0.181     5.013    -2.277 
 O                     0.303     4.69     -3.508 
 C                     0.31      6.414    -1.837 
 N                    -0.265    -0.413    -2.029 
 C                    -0.279     0.569    -2.937 
 C                    -0.196     0.024    -4.332 
 C                     0.124    -1.533    -4.18 
 C                     0.086    -1.632    -2.635 
 C                    -1.451     0.205    -5.197 
 C                     1.373    -2.07     -4.923 
 C                     2.626    -1.49     -4.306 
 N                     0.15     -2.144     0.303 
 C                     0.173    -3.136    -0.688 
 C                     0.173    -4.438     0.004 
 C                     0.133    -4.111     1.358 
 C                     0.083    -2.695     1.502 
 C                     0.149    -5.715    -0.623 
 C                     0.096    -4.629     2.716 
 O                     0.208    -5.747     3.221 
 C                    -0.255    -3.428     3.701 
 C                     0.717    -3.482     4.848 
 O                     1.931    -3.255     4.669 
 O                     0.038    -3.556     6.003 
 C                     0.943    -3.583     7.183 
 H                    -1.859     3.22      2.497 
 H                    -0.218     2.453    -3.474 
 H                     0.276    -3.747    -2.605 
 H                    -1.554    -0.949     5.132 
 H                    -1.585     1.831     4.665 
 H                    -3.484    -0.377     3.969 
 H                    -3.511     1.027     2.858 
 H                    -3.852     1.301     4.543 
 H                     0.669     1.096     4.966 
 H                     1.13     -0.639     5.189 
 H                    -0.844     0.026     7.125 
 H                     0.062     1.477     6.921 
 H                    -1.344     5.186     1.938 
 H                    -1.651     5.963     0.432 
 H                     0.007     6.02      1.084 
 H                    -0.635     6.744    -1.405 
 H                     0.665     6.97     -2.704 
 H                     1.048     6.466    -1.036 
 H                     0.608     0.501    -4.891 
 H                    -0.692    -2.156    -4.547 
 H                    -1.267     0.74     -6.129 
 H                    -2.204     0.714    -4.596 
 H                    -1.967    -0.72     -5.453 
 H                     1.356    -1.759    -5.967 
 H                     1.452    -3.157    -4.902 
 H                     2.714    -0.522    -4.798 
 H                     3.487    -2.121    -4.529 
 H                     2.495    -1.303    -3.24 
 H                     0.867    -6.333    -0.084 
 H                     0.404    -5.642    -1.68 
 H                    -0.891    -5.999    -0.463 
 H                    -1.283    -3.581     4.028 
 H                     0.698    -4.478     7.755 
 H                     0.833    -2.619     7.68 
 H                     2.       -3.754     6.976 
 Mg                    8.94152   0.7994    0.68458 
 C                     9.14645  -2.36542  -0.99499 
 C                     8.00023  -0.91376   3.47987 
 C                     8.31678   3.58828   2.06271 
 C                     8.77604   2.29901  -2.457 
 N                     8.64771  -1.35899   1.06835 
 C                     8.8149   -2.47304   0.37173 
 C                     8.69423  -3.77702   1.20519 
 C                     7.78735  -3.21284   2.40441 
 C                     8.19068  -1.74098   2.3443 
 C                     6.29612  -3.31108   2.12882 
 C                     10.08468  -4.28426   1.72612 
 C                     10.08209  -5.71016   2.2816 
 H                     11.26241  -6.54283   2.06714 
 N                     8.73748   1.26708   2.60244 
 C                     8.37008   0.44329   3.60627 
 C                     8.34876   1.27342   4.8206 
 C                     8.57333   2.69018   4.42429 
 C                     8.52956   2.57021   2.98075 
 C                     8.20975   0.69547   6.19903 
 C                     8.77901   3.94728   5.21397 
 O                     8.71738   5.10434   4.66604 
 C                     8.96191   3.78804   6.66404 
 N                     8.38383   2.65321  -0.07352 
 C                     8.22697   3.71339   0.73847 
 C                     8.09709   4.99257  -0.0535 
 C                     8.44303   4.59933  -1.56456 
 C                     8.63439   3.07648  -1.39227 
 C                     6.72724   5.66896  -0.00479 
 C                     9.5679    5.41128  -2.26318 
 C                     10.89973   5.11279  -1.61317 
 N                     9.14065   0.14358  -1.3644 
 C                     9.00948   0.93163  -2.52881 
 C                     9.11487   0.01941  -3.68604 
 C                     9.2783   -1.24928  -3.10966 
 C                     9.25477  -1.13837  -1.6931 
 C                     9.00857   0.39606  -5.0546 
 C                     9.45473  -2.65849  -3.37745 
 O                     9.63472  -3.33452  -4.38953 
 C                     9.2505   -3.46022  -2.02028 
 C                     10.3828  -4.44115  -1.88538 
 O                     11.5512  -4.0414   -1.73823 
 O                     9.87772  -5.67909  -1.7345 
 C                     10.96215  -6.6859   -1.58566 
 H                     7.48017  -1.32957   4.34331 
 H                     8.20656   4.58939   2.48594 
 H                     8.83246   2.70175  -3.47055 
 H                     8.18383  -4.59079   0.70415 
 H                     8.07651  -3.64883   3.35712 
 H                     6.09357  -3.63655   1.11928 
 H                     5.90064  -2.31717   2.29244 
 H                     5.81659  -3.95264   2.87366 
 H                     10.35082  -3.72911   2.63481 
 H                     10.83309  -4.19515   0.96286 
 H                     9.17129  -6.25706   2.00904 
 H                     10.0468  -5.65755   3.37247 
 H                     7.896    -0.35516   6.16494 
 H                     7.3729    1.21337   6.68 
 H                     9.1069    0.83376   6.8062 
 H                     8.09434   3.28494   7.08436 
 H                     9.18331   4.78797   7.0422 
 H                     9.82157   3.13134   6.8382 
 H                     8.80935   5.7333    0.28872 
 H                     7.57698   4.73403  -2.22912 
 H                     6.7688    6.71335   0.35799 
 H                     6.07515   5.07459   0.62134 
 H                     6.18704   5.68661  -0.94982 
 H                     9.39483   6.48301  -2.13827 
 H                     9.6416    5.21897  -3.32835 
 H                     10.90617   5.78     -0.74605 
 H                     11.71775   5.34154  -2.29328 
 H                     10.93237   4.08354  -1.23737 
 H                     9.7921   -0.12964  -5.58396 
 H                     9.09759   1.47332  -5.17855 
 H                     7.99943   0.03925  -5.27728 
 H                     8.28185  -3.95834  -2.07663 
 H                     10.80338  -7.44326  -2.35953 
 H                     10.91413  -7.02334  -0.53324 
 H                     11.97469  -6.36813  -1.8053 
 
 ITRead=  0  0  0  0  0  0  0  0  0  0  0  0  0  0  0  0  0  0  0  0
 ITRead=  0  0  0  0  0  0  0  0  0  0  0  0  0  0  0  0  0  0  0  0
 ITRead=  0  0  0  0  0  0  0  0  0  0  0  0  0  0  0  0  0  0  0  0
 ITRead=  0  0  0  0  0  0  0  0  0  0  0  0  0  0  0  0  0  0  0  0
 ITRead=  0  0  0  0  0  0  0  0  0  0  0  0  0  0  0  0  0  0  0  0
 ITRead=  0  0  0  0  0  0  0  0  0  0  0  0  0  0  0  0  0  0  0  0
 ITRead=  0  0  0  0  0  0  0  0  0  0  0  0  0  0  0  0  0  0  0  0
 ITRead=  0  0  0  0  0  0  0  0  0  0  0  0  0  0  0  0  0  0
 MicOpt= -1 -1 -1 -1 -1 -1 -1 -1 -1 -1 -1 -1 -1 -1 -1 -1 -1 -1 -1 -1
 MicOpt= -1 -1 -1 -1 -1 -1 -1 -1 -1 -1 -1 -1 -1 -1 -1 -1 -1 -1 -1 -1
 MicOpt= -1 -1 -1 -1 -1 -1 -1 -1 -1 -1 -1 -1 -1 -1 -1 -1 -1 -1 -1 -1
 MicOpt= -1 -1 -1 -1 -1 -1 -1 -1 -1 -1 -1 -1 -1 -1 -1 -1 -1 -1 -1 -1
 MicOpt= -1 -1 -1 -1 -1 -1 -1 -1 -1 -1 -1 -1 -1 -1 -1 -1 -1 -1 -1 -1
 MicOpt= -1 -1 -1 -1 -1 -1 -1 -1 -1 -1 -1 -1 -1 -1 -1 -1 -1 -1 -1 -1
 MicOpt= -1 -1 -1 -1 -1 -1 -1 -1 -1 -1 -1 -1 -1 -1 -1 -1 -1 -1 -1 -1
 MicOpt= -1 -1 -1 -1 -1 -1 -1 -1 -1 -1 -1 -1 -1 -1 -1 -1 -1 -1
 NAtoms=    158 NQM=      158 NQMF=       0 NMMI=      0 NMMIF=      0
                NMic=       0 NMicF=      0.
                    Isotopes and Nuclear Properties:
 (Nuclear quadrupole moments (NQMom) in fm**2, nuclear magnetic moments (NMagM)
  in nuclear magnetons)

  Atom         1           2           3           4           5           6           7           8           9          10
 IAtWgt=          24          12          12          12          12          14          12          12          12          12
 AtmWgt=  23.9850450  12.0000000  12.0000000  12.0000000  12.0000000  14.0030740  12.0000000  12.0000000  12.0000000  12.0000000
 NucSpn=           0           0           0           0           0           2           0           0           0           0
 AtZEff=  -0.0000000  -0.0000000  -0.0000000  -0.0000000  -0.0000000  -0.0000000  -0.0000000  -0.0000000  -0.0000000  -0.0000000
 NQMom=    0.0000000   0.0000000   0.0000000   0.0000000   0.0000000   2.0440000   0.0000000   0.0000000   0.0000000   0.0000000
 NMagM=    0.0000000   0.0000000   0.0000000   0.0000000   0.0000000   0.4037610   0.0000000   0.0000000   0.0000000   0.0000000
 AtZNuc=  12.0000000   6.0000000   6.0000000   6.0000000   6.0000000   7.0000000   6.0000000   6.0000000   6.0000000   6.0000000

  Atom        11          12          13          14          15          16          17          18          19          20
 IAtWgt=          12          12          12           1          14          12          12          12          12          12
 AtmWgt=  12.0000000  12.0000000  12.0000000   1.0078250  14.0030740  12.0000000  12.0000000  12.0000000  12.0000000  12.0000000
 NucSpn=           0           0           0           1           2           0           0           0           0           0
 AtZEff=  -0.0000000  -0.0000000  -0.0000000  -0.0000000  -0.0000000  -0.0000000  -0.0000000  -0.0000000  -0.0000000  -0.0000000
 NQMom=    0.0000000   0.0000000   0.0000000   0.0000000   2.0440000   0.0000000   0.0000000   0.0000000   0.0000000   0.0000000
 NMagM=    0.0000000   0.0000000   0.0000000   2.7928460   0.4037610   0.0000000   0.0000000   0.0000000   0.0000000   0.0000000
 AtZNuc=   6.0000000   6.0000000   6.0000000   1.0000000   7.0000000   6.0000000   6.0000000   6.0000000   6.0000000   6.0000000

  Atom        21          22          23          24          25          26          27          28          29          30
 IAtWgt=          12          16          12          14          12          12          12          12          12          12
 AtmWgt=  12.0000000  15.9949146  12.0000000  14.0030740  12.0000000  12.0000000  12.0000000  12.0000000  12.0000000  12.0000000
 NucSpn=           0           0           0           2           0           0           0           0           0           0
 AtZEff=  -0.0000000  -0.0000000  -0.0000000  -0.0000000  -0.0000000  -0.0000000  -0.0000000  -0.0000000  -0.0000000  -0.0000000
 NQMom=    0.0000000   0.0000000   0.0000000   2.0440000   0.0000000   0.0000000   0.0000000   0.0000000   0.0000000   0.0000000
 NMagM=    0.0000000   0.0000000   0.0000000   0.4037610   0.0000000   0.0000000   0.0000000   0.0000000   0.0000000   0.0000000
 AtZNuc=   6.0000000   8.0000000   6.0000000   7.0000000   6.0000000   6.0000000   6.0000000   6.0000000   6.0000000   6.0000000

  Atom        31          32          33          34          35          36          37          38          39          40
 IAtWgt=          12          14          12          12          12          12          12          12          16          12
 AtmWgt=  12.0000000  14.0030740  12.0000000  12.0000000  12.0000000  12.0000000  12.0000000  12.0000000  15.9949146  12.0000000
 NucSpn=           0           2           0           0           0           0           0           0           0           0
 AtZEff=  -0.0000000  -0.0000000  -0.0000000  -0.0000000  -0.0000000  -0.0000000  -0.0000000  -0.0000000  -0.0000000  -0.0000000
 NQMom=    0.0000000   2.0440000   0.0000000   0.0000000   0.0000000   0.0000000   0.0000000   0.0000000   0.0000000   0.0000000
 NMagM=    0.0000000   0.4037610   0.0000000   0.0000000   0.0000000   0.0000000   0.0000000   0.0000000   0.0000000   0.0000000
 AtZNuc=   6.0000000   7.0000000   6.0000000   6.0000000   6.0000000   6.0000000   6.0000000   6.0000000   8.0000000   6.0000000

  Atom        41          42          43          44          45          46          47          48          49          50
 IAtWgt=          12          16          16          12           1           1           1           1           1           1
 AtmWgt=  12.0000000  15.9949146  15.9949146  12.0000000   1.0078250   1.0078250   1.0078250   1.0078250   1.0078250   1.0078250
 NucSpn=           0           0           0           0           1           1           1           1           1           1
 AtZEff=  -0.0000000  -0.0000000  -0.0000000  -0.0000000  -0.0000000  -0.0000000  -0.0000000  -0.0000000  -0.0000000  -0.0000000
 NQMom=    0.0000000   0.0000000   0.0000000   0.0000000   0.0000000   0.0000000   0.0000000   0.0000000   0.0000000   0.0000000
 NMagM=    0.0000000   0.0000000   0.0000000   0.0000000   2.7928460   2.7928460   2.7928460   2.7928460   2.7928460   2.7928460
 AtZNuc=   6.0000000   8.0000000   8.0000000   6.0000000   1.0000000   1.0000000   1.0000000   1.0000000   1.0000000   1.0000000

  Atom        51          52          53          54          55          56          57          58          59          60
 IAtWgt=           1           1           1           1           1           1           1           1           1           1
 AtmWgt=   1.0078250   1.0078250   1.0078250   1.0078250   1.0078250   1.0078250   1.0078250   1.0078250   1.0078250   1.0078250
 NucSpn=           1           1           1           1           1           1           1           1           1           1
 AtZEff=  -0.0000000  -0.0000000  -0.0000000  -0.0000000  -0.0000000  -0.0000000  -0.0000000  -0.0000000  -0.0000000  -0.0000000
 NQMom=    0.0000000   0.0000000   0.0000000   0.0000000   0.0000000   0.0000000   0.0000000   0.0000000   0.0000000   0.0000000
 NMagM=    2.7928460   2.7928460   2.7928460   2.7928460   2.7928460   2.7928460   2.7928460   2.7928460   2.7928460   2.7928460
 AtZNuc=   1.0000000   1.0000000   1.0000000   1.0000000   1.0000000   1.0000000   1.0000000   1.0000000   1.0000000   1.0000000

  Atom        61          62          63          64          65          66          67          68          69          70
 IAtWgt=           1           1           1           1           1           1           1           1           1           1
 AtmWgt=   1.0078250   1.0078250   1.0078250   1.0078250   1.0078250   1.0078250   1.0078250   1.0078250   1.0078250   1.0078250
 NucSpn=           1           1           1           1           1           1           1           1           1           1
 AtZEff=  -0.0000000  -0.0000000  -0.0000000  -0.0000000  -0.0000000  -0.0000000  -0.0000000  -0.0000000  -0.0000000  -0.0000000
 NQMom=    0.0000000   0.0000000   0.0000000   0.0000000   0.0000000   0.0000000   0.0000000   0.0000000   0.0000000   0.0000000
 NMagM=    2.7928460   2.7928460   2.7928460   2.7928460   2.7928460   2.7928460   2.7928460   2.7928460   2.7928460   2.7928460
 AtZNuc=   1.0000000   1.0000000   1.0000000   1.0000000   1.0000000   1.0000000   1.0000000   1.0000000   1.0000000   1.0000000

  Atom        71          72          73          74          75          76          77          78          79          80
 IAtWgt=           1           1           1           1           1           1           1           1           1          24
 AtmWgt=   1.0078250   1.0078250   1.0078250   1.0078250   1.0078250   1.0078250   1.0078250   1.0078250   1.0078250  23.9850450
 NucSpn=           1           1           1           1           1           1           1           1           1           0
 AtZEff=  -0.0000000  -0.0000000  -0.0000000  -0.0000000  -0.0000000  -0.0000000  -0.0000000  -0.0000000  -0.0000000  -0.0000000
 NQMom=    0.0000000   0.0000000   0.0000000   0.0000000   0.0000000   0.0000000   0.0000000   0.0000000   0.0000000   0.0000000
 NMagM=    2.7928460   2.7928460   2.7928460   2.7928460   2.7928460   2.7928460   2.7928460   2.7928460   2.7928460   0.0000000
 AtZNuc=   1.0000000   1.0000000   1.0000000   1.0000000   1.0000000   1.0000000   1.0000000   1.0000000   1.0000000  12.0000000

  Atom        81          82          83          84          85          86          87          88          89          90
 IAtWgt=          12          12          12          12          14          12          12          12          12          12
 AtmWgt=  12.0000000  12.0000000  12.0000000  12.0000000  14.0030740  12.0000000  12.0000000  12.0000000  12.0000000  12.0000000
 NucSpn=           0           0           0           0           2           0           0           0           0           0
 AtZEff=  -0.0000000  -0.0000000  -0.0000000  -0.0000000  -0.0000000  -0.0000000  -0.0000000  -0.0000000  -0.0000000  -0.0000000
 NQMom=    0.0000000   0.0000000   0.0000000   0.0000000   2.0440000   0.0000000   0.0000000   0.0000000   0.0000000   0.0000000
 NMagM=    0.0000000   0.0000000   0.0000000   0.0000000   0.4037610   0.0000000   0.0000000   0.0000000   0.0000000   0.0000000
 AtZNuc=   6.0000000   6.0000000   6.0000000   6.0000000   7.0000000   6.0000000   6.0000000   6.0000000   6.0000000   6.0000000

  Atom        91          92          93          94          95          96          97          98          99         100
 IAtWgt=          12          12           1          14          12          12          12          12          12          12
 AtmWgt=  12.0000000  12.0000000   1.0078250  14.0030740  12.0000000  12.0000000  12.0000000  12.0000000  12.0000000  12.0000000
 NucSpn=           0           0           1           2           0           0           0           0           0           0
 AtZEff=  -0.0000000  -0.0000000  -0.0000000  -0.0000000  -0.0000000  -0.0000000  -0.0000000  -0.0000000  -0.0000000  -0.0000000
 NQMom=    0.0000000   0.0000000   0.0000000   2.0440000   0.0000000   0.0000000   0.0000000   0.0000000   0.0000000   0.0000000
 NMagM=    0.0000000   0.0000000   2.7928460   0.4037610   0.0000000   0.0000000   0.0000000   0.0000000   0.0000000   0.0000000
 AtZNuc=   6.0000000   6.0000000   1.0000000   7.0000000   6.0000000   6.0000000   6.0000000   6.0000000   6.0000000   6.0000000

  Atom       101         102         103         104         105         106         107         108         109         110
 IAtWgt=          16          12          14          12          12          12          12          12          12          12
 AtmWgt=  15.9949146  12.0000000  14.0030740  12.0000000  12.0000000  12.0000000  12.0000000  12.0000000  12.0000000  12.0000000
 NucSpn=           0           0           2           0           0           0           0           0           0           0
 AtZEff=  -0.0000000  -0.0000000  -0.0000000  -0.0000000  -0.0000000  -0.0000000  -0.0000000  -0.0000000  -0.0000000  -0.0000000
 NQMom=    0.0000000   0.0000000   2.0440000   0.0000000   0.0000000   0.0000000   0.0000000   0.0000000   0.0000000   0.0000000
 NMagM=    0.0000000   0.0000000   0.4037610   0.0000000   0.0000000   0.0000000   0.0000000   0.0000000   0.0000000   0.0000000
 AtZNuc=   8.0000000   6.0000000   7.0000000   6.0000000   6.0000000   6.0000000   6.0000000   6.0000000   6.0000000   6.0000000

  Atom       111         112         113         114         115         116         117         118         119         120
 IAtWgt=          14          12          12          12          12          12          12          16          12          12
 AtmWgt=  14.0030740  12.0000000  12.0000000  12.0000000  12.0000000  12.0000000  12.0000000  15.9949146  12.0000000  12.0000000
 NucSpn=           2           0           0           0           0           0           0           0           0           0
 AtZEff=  -0.0000000  -0.0000000  -0.0000000  -0.0000000  -0.0000000  -0.0000000  -0.0000000  -0.0000000  -0.0000000  -0.0000000
 NQMom=    2.0440000   0.0000000   0.0000000   0.0000000   0.0000000   0.0000000   0.0000000   0.0000000   0.0000000   0.0000000
 NMagM=    0.4037610   0.0000000   0.0000000   0.0000000   0.0000000   0.0000000   0.0000000   0.0000000   0.0000000   0.0000000
 AtZNuc=   7.0000000   6.0000000   6.0000000   6.0000000   6.0000000   6.0000000   6.0000000   8.0000000   6.0000000   6.0000000

  Atom       121         122         123         124         125         126         127         128         129         130
 IAtWgt=          16          16          12           1           1           1           1           1           1           1
 AtmWgt=  15.9949146  15.9949146  12.0000000   1.0078250   1.0078250   1.0078250   1.0078250   1.0078250   1.0078250   1.0078250
 NucSpn=           0           0           0           1           1           1           1           1           1           1
 AtZEff=  -0.0000000  -0.0000000  -0.0000000  -0.0000000  -0.0000000  -0.0000000  -0.0000000  -0.0000000  -0.0000000  -0.0000000
 NQMom=    0.0000000   0.0000000   0.0000000   0.0000000   0.0000000   0.0000000   0.0000000   0.0000000   0.0000000   0.0000000
 NMagM=    0.0000000   0.0000000   0.0000000   2.7928460   2.7928460   2.7928460   2.7928460   2.7928460   2.7928460   2.7928460
 AtZNuc=   8.0000000   8.0000000   6.0000000   1.0000000   1.0000000   1.0000000   1.0000000   1.0000000   1.0000000   1.0000000

  Atom       131         132         133         134         135         136         137         138         139         140
 IAtWgt=           1           1           1           1           1           1           1           1           1           1
 AtmWgt=   1.0078250   1.0078250   1.0078250   1.0078250   1.0078250   1.0078250   1.0078250   1.0078250   1.0078250   1.0078250
 NucSpn=           1           1           1           1           1           1           1           1           1           1
 AtZEff=  -0.0000000  -0.0000000  -0.0000000  -0.0000000  -0.0000000  -0.0000000  -0.0000000  -0.0000000  -0.0000000  -0.0000000
 NQMom=    0.0000000   0.0000000   0.0000000   0.0000000   0.0000000   0.0000000   0.0000000   0.0000000   0.0000000   0.0000000
 NMagM=    2.7928460   2.7928460   2.7928460   2.7928460   2.7928460   2.7928460   2.7928460   2.7928460   2.7928460   2.7928460
 AtZNuc=   1.0000000   1.0000000   1.0000000   1.0000000   1.0000000   1.0000000   1.0000000   1.0000000   1.0000000   1.0000000

  Atom       141         142         143         144         145         146         147         148         149         150
 IAtWgt=           1           1           1           1           1           1           1           1           1           1
 AtmWgt=   1.0078250   1.0078250   1.0078250   1.0078250   1.0078250   1.0078250   1.0078250   1.0078250   1.0078250   1.0078250
 NucSpn=           1           1           1           1           1           1           1           1           1           1
 AtZEff=  -0.0000000  -0.0000000  -0.0000000  -0.0000000  -0.0000000  -0.0000000  -0.0000000  -0.0000000  -0.0000000  -0.0000000
 NQMom=    0.0000000   0.0000000   0.0000000   0.0000000   0.0000000   0.0000000   0.0000000   0.0000000   0.0000000   0.0000000
 NMagM=    2.7928460   2.7928460   2.7928460   2.7928460   2.7928460   2.7928460   2.7928460   2.7928460   2.7928460   2.7928460
 AtZNuc=   1.0000000   1.0000000   1.0000000   1.0000000   1.0000000   1.0000000   1.0000000   1.0000000   1.0000000   1.0000000

  Atom       151         152         153         154         155         156         157         158
 IAtWgt=           1           1           1           1           1           1           1           1
 AtmWgt=   1.0078250   1.0078250   1.0078250   1.0078250   1.0078250   1.0078250   1.0078250   1.0078250
 NucSpn=           1           1           1           1           1           1           1           1
 AtZEff=  -0.0000000  -0.0000000  -0.0000000  -0.0000000  -0.0000000  -0.0000000  -0.0000000  -0.0000000
 NQMom=    0.0000000   0.0000000   0.0000000   0.0000000   0.0000000   0.0000000   0.0000000   0.0000000
 NMagM=    2.7928460   2.7928460   2.7928460   2.7928460   2.7928460   2.7928460   2.7928460   2.7928460
 AtZNuc=   1.0000000   1.0000000   1.0000000   1.0000000   1.0000000   1.0000000   1.0000000   1.0000000
 Leave Link  101 at Thu Aug 19 22:43:54 2021, MaxMem= 23488102400 cpu:               3.9 elap:               0.2
 (Enter /sw/apps/gaussian-16.0/g16/l202.exe)
 Stoichiometry    C68H72Mg2N8O8
 Framework group  C1[X(C68H72Mg2N8O8)]
 Deg. of freedom   468
 Full point group                 C1      NOp   1
 Largest Abelian subgroup         C1      NOp   1
 Largest concise Abelian subgroup C1      NOp   1
                         Standard orientation:                         
 ---------------------------------------------------------------------
 Center     Atomic      Atomic             Coordinates (Angstroms)
 Number     Number       Type             X           Y           Z
 ---------------------------------------------------------------------
      1         12           0       -4.320116    0.466301   -0.993342
      2          6           0       -4.852482   -2.540920    0.873587
      3          6           0       -5.845171    2.143191    1.557210
      4          6           0       -4.270783    3.061613   -2.815029
      5          6           0       -3.889438   -1.535653   -3.813334
      6          7           0       -5.193859   -0.222180    0.920611
      7          6           0       -5.280303   -1.392968    1.544273
      8          6           0       -5.799027   -1.276063    3.008729
      9          6           0       -6.587620    0.104265    2.887020
     10          6           0       -5.808088    0.729355    1.743553
     11          6           0       -8.041913   -0.060699    2.457696
     12          6           0       -4.631143   -1.179005    4.047170
     13          6           0       -5.037109   -1.390038    5.508680
     14          1           0       -4.112992   -2.074325    6.400367
     15          7           0       -4.509408    2.373030   -0.512296
     16          6           0       -5.148184    2.875215    0.571705
     17          6           0       -5.010846    4.344782    0.481195
     18          6           0       -4.404939    4.664571   -0.841191
     19          6           0       -4.394831    3.364183   -1.461083
     20          6           0       -5.387456    5.276353    1.592092
     21          6           0       -3.922747    5.941510   -1.453605
     22          8           0       -3.646195    6.037058   -2.698178
     23          6           0       -3.866319    7.116145   -0.564735
     24          7           0       -4.328284    0.749955   -3.061459
     25          6           0       -4.242679    1.975546   -3.590216
     26          6           0       -3.981884    1.916442   -5.066167
     27          6           0       -3.663659    0.387260   -5.397962
     28          6           0       -3.890237   -0.212207   -3.988150
     29          6           0       -5.123071    2.407450   -5.967619
     30          6           0       -2.326140    0.088073   -6.120423
     31          6           0       -1.165898    0.397028   -5.200921
     32          7           0       -4.181857   -1.661760   -1.397428
     33          6           0       -4.024747   -2.273772   -2.649399
     34          6           0       -4.093683   -3.730196   -2.429980
     35          6           0       -4.304049   -3.864704   -1.059032
     36          6           0       -4.389012   -2.573590   -0.463970
     37          6           0       -4.024452   -4.729408   -3.440532
     38          6           0       -4.501409   -4.798428    0.037811
     39          8           0       -4.438487   -6.022981    0.156145
     40          6           0       -4.985865   -3.977654    1.313530
     41          6           0       -4.161786   -4.433144    2.486872
     42          8           0       -2.937907   -4.195095    2.539962
     43          8           0       -4.976768   -4.862510    3.462573
     44          6           0       -4.223571   -5.301407    4.667653
     45          1           0       -6.512174    2.740586    2.181843
     46          1           0       -4.139528    3.928839   -3.465512
     47          1           0       -3.679056   -2.224439   -4.633557
     48          1           0       -6.481832   -2.069272    3.313722
     49          1           0       -6.489744    0.709670    3.787924
     50          1           0       -8.261037   -1.091814    2.180735
     51          1           0       -8.168608    0.599215    1.599236
     52          1           0       -8.717731    0.314712    3.226536
     53          1           0       -4.280933   -0.148113    4.098897
     54          1           0       -3.829310   -1.872727    3.791948
     55          1           0       -6.034648   -1.823330    5.586674
     56          1           0       -5.128567   -0.412534    5.982307
     57          1           0       -5.956823    4.765423    2.367538
     58          1           0       -6.085836    6.002186    1.175990
     59          1           0       -4.521499    5.794172    2.004781
     60          1           0       -4.861328    7.313195   -0.165137
     61          1           0       -3.414287    7.915419   -1.150975
     62          1           0       -3.233190    6.881049    0.291318
     63          1           0       -3.121214    2.527083   -5.335962
     64          1           0       -4.420481   -0.056956   -6.044929
     65          1           0       -4.832467    3.213164   -6.642215
     66          1           0       -5.950576    2.712497   -5.327720
     67          1           0       -5.592094    1.633010   -6.573983
     68          1           0       -2.218424    0.724854   -6.997835
     69          1           0       -2.236797   -0.947403   -6.449144
     70          1           0       -1.030088    1.469920   -5.332414
     71          1           0       -0.276213   -0.150388   -5.513983
     72          1           0       -1.429386    0.227489   -4.156738
     73          1           0       -3.370590   -5.510524   -3.052856
     74          1           0       -3.642261   -4.320919   -4.375770
     75          1           0       -5.072619   -5.020059   -3.509259
     76          1           0       -6.044304   -4.199777    1.445782
     77          1           0       -4.525928   -6.327102    4.879224
     78          1           0       -4.405881   -4.551183    5.437284
     79          1           0       -3.147086   -5.425414    4.544599
     80         12           0        4.458575    0.738399    0.986308
     81          6           0        4.907995   -1.704358   -1.604058
     82          6           0        3.201897   -1.769400    2.927002
     83          6           0        3.634339    2.937257    3.120096
     84          6           0        4.662247    3.190162   -1.482116
     85          7           0        4.146672   -1.416954    0.599757
     86          6           0        4.412163   -2.244980   -0.399355
     87          6           0        4.206102   -3.746222   -0.062615
     88          6           0        3.151604   -3.580981    1.137213
     89          6           0        3.540909   -2.183214    1.614024
     90          6           0        1.706954   -3.540259    0.667428
     91          6           0        5.528096   -4.436232    0.425473
     92          6           0        5.474930   -5.964755    0.475929
     93          1           0        6.682943   -6.714596    0.142868
     94          7           0        4.014298    0.556382    2.911933
     95          6           0        3.536460   -0.540281    3.536663
     96          6           0        3.355552   -0.154450    4.944702
     97          6           0        3.609523    1.306797    5.067004
     98          6           0        3.745201    1.668580    3.670286
     99          6           0        3.055198   -1.148539    6.028673
    100          6           0        3.700808    2.228585    6.245211
    101          8           0        3.692665    3.502655    6.105590
    102          6           0        3.705864    1.597026    7.572848
    103          7           0        3.975366    2.753607    0.819596
    104          6           0        3.706601    3.492607    1.910264
    105          6           0        3.659239    4.964045    1.574085
    106          6           0        4.193346    5.078733    0.071025
    107          6           0        4.380997    3.578847   -0.245994
    108          6           0        2.285490    5.626201    1.677665
    109          6           0        5.385432    6.042189   -0.180664
    110          6           0        6.630774    5.508598    0.489995
    111          7           0        4.916456    0.785959   -1.124653
    112          6           0        4.919755    1.915967   -1.971500
    113          6           0        5.178083    1.431463   -3.342979
    114          6           0        5.285134    0.039722   -3.201223
    115          6           0        5.086104   -0.319818   -1.840850
    116          6           0        5.236303    2.239330   -4.513484
    117          6           0        5.510704   -1.207999   -3.894782
    118          8           0        5.822259   -1.519295   -5.043584
    119          6           0        5.151032   -2.404513   -2.912243
    120          6           0        6.270253   -3.407615   -2.972699
    121          8           0        7.406601   -3.112193   -2.562757
    122          8           0        5.765898   -4.611380   -3.299718
    123          6           0        6.836224   -5.642111   -3.361395
    124          1           0        2.584765   -2.430381    3.536215
    125          1           0        3.460426    3.746737    3.832830
    126          1           0        4.837931    3.901448   -2.291976
    127          1           0        3.771402   -4.335378   -0.861177
    128          1           0        3.326747   -4.313663    1.920705
    129          1           0        1.634229   -3.510365   -0.409580
    130          1           0        1.282004   -2.644139    1.100347
    131          1           0        1.147445   -4.376628    1.096113
    132          1           0        5.673472   -4.218004    1.491298
    133          1           0        6.363565   -4.123177   -0.170019
    134          1           0        4.611468   -6.365382   -0.068935
    135          1           0        5.305031   -6.272104    1.510666
    136          1           0        2.761131   -2.120263    5.613099
    137          1           0        2.159144   -0.793274    6.549004
    138          1           0        3.869030   -1.243137    6.750743
    139          1           0        2.799500    1.009093    7.696524
    140          1           0        3.866585    2.410616    8.282863
    141          1           0        4.545671    0.895030    7.623126
    142          1           0        4.314701    5.530543    2.224131
    143          1           0        3.414037    5.449017   -0.611174
    144          1           0        2.269091    6.492006    2.366287
    145          1           0        1.568765    4.878328    1.989957
    146          1           0        1.865498    5.968624    0.733440
    147          1           0        5.184978    7.018073    0.268369
    148          1           0        5.592023    6.208096   -1.232709
    149          1           0        6.522164    5.853766    1.522550
    150          1           0        7.523350    5.924197    0.026724
    151          1           0        6.629738    4.412534    0.507002
    152          1           0        6.085497    1.894122   -5.088116
    153          1           0        5.326479    3.294552   -4.264182
    154          1           0        4.266751    2.004645   -4.960873
    155          1           0        4.202953   -2.828378   -3.245511
    156          1           0        6.783322   -6.098606   -4.354617
    157          1           0        6.663280   -6.304744   -2.492621
    158          1           0        7.864060   -5.299209   -3.340708
 ---------------------------------------------------------------------
 Rotational constants (GHZ):           0.0205551           0.0136655           0.0131114
 Leave Link  202 at Thu Aug 19 22:43:54 2021, MaxMem= 23488102400 cpu:               0.3 elap:               0.0
 (Enter /sw/apps/gaussian-16.0/g16/l301.exe)
 Standard basis: def2SVP (5D, 7F)
 Ernie: Thresh=  0.10000D-02 Tol=  0.10000D-05 Strict=F.
 There are  1658 symmetry adapted cartesian basis functions of A   symmetry.
 There are  1572 symmetry adapted basis functions of A   symmetry.
  1572 basis functions,  2678 primitive gaussians,  1658 cartesian basis functions
   312 alpha electrons      312 beta electrons
       nuclear repulsion energy     15488.8025329393 Hartrees.
 IExCor=20419 DFT=T Ex+Corr=CAM-B3LYP ExCW=0 ScaHFX=  1.000000
 ScaDFX=  1.000000  1.000000  1.000000  0.810000 ScalE2=  1.000000  1.000000
 IRadAn=      5 IRanWt=     -1 IRanGd=            0 ICorTp=0 IEmpDi=  4
 HFx  wShort=  0.000000 wLong=  0.330000 cFull=  0.190000 cShort=  0.000000 cLong=  0.460000
 DFx  wShort=  0.000000 wLong=  0.330000 cFull=  0.190000 cShort=  0.000000 cLong=  0.460000
 NAtoms=  158 NActive=  158 NUniq=  158 SFac= 1.00D+00 NAtFMM=   60 NAOKFM=T Big=T
 Integral buffers will be    131072 words long.
 Raffenetti 1 integral format.
 Two-electron integral symmetry is turned on.
 Leave Link  301 at Thu Aug 19 22:43:54 2021, MaxMem= 23488102400 cpu:               1.3 elap:               0.1
 (Enter /sw/apps/gaussian-16.0/g16/l302.exe)
 NPDir=0 NMtPBC=     1 NCelOv=     1 NCel=       1 NClECP=     1 NCelD=      1
         NCelK=      1 NCelE2=     1 NClLst=     1 CellRange=     0.0.
 One-electron integrals computed using PRISM.
 One-electron integral symmetry used in STVInt
   1 Symmetry operations used in ECPInt.
 ECPInt:  NShTT=  271216 NPrTT=  987664 LenC2=  154065 LenP2D=  320556.
 LDataN:  DoStor=T MaxTD1= 4 Len=   56
 NBasis=  1572 RedAO= T EigKep=  3.36D-04  NBF=  1572
 NBsUse=  1572 1.00D-06 EigRej= -1.00D+00 NBFU=  1572
 Precomputing XC quadrature grid using
 IXCGrd= 4 IRadAn=           5 IRanWt=          -1 IRanGd=           0 AccXCQ= 0.00D+00.
 Generated NRdTot=       0 NPtTot=           0 NUsed=           0 NTot=          32
 NSgBfM=  1251  1244  1246  1250  1251 MxSgAt=   158 MxSgA2=   158.
 Leave Link  302 at Thu Aug 19 22:43:59 2021, MaxMem= 23488102400 cpu:             127.6 elap:               5.3
 (Enter /sw/apps/gaussian-16.0/g16/l303.exe)
 DipDrv:  MaxL=1.
 Leave Link  303 at Thu Aug 19 22:43:59 2021, MaxMem= 23488102400 cpu:               9.0 elap:               0.4
 (Enter /sw/apps/gaussian-16.0/g16/l308.exe)
 Leave Link  308 at Thu Aug 19 22:44:00 2021, MaxMem= 23488102400 cpu:              15.2 elap:               0.7
 (Enter /sw/apps/gaussian-16.0/g16/l401.exe)
 ExpMin= 3.36D-02 ExpMax= 4.95D+03 ExpMxC= 7.45D+02 IAcc=3 IRadAn=         5 AccDes= 0.00D+00
 Harris functional with IExCor=20419 and IRadAn=       5 diagonalized for initial guess.
 HarFok:  IExCor=20419 AccDes= 0.00D+00 IRadAn=         5 IDoV= 1 UseB2=F ITyADJ=14
 ICtDFT=  3500011 ScaDFX=  1.000000  1.000000  1.000000  1.000000
 FoFCou: FMM=F IPFlag=           0 FMFlag=      100000 FMFlg1=        2001
         NFxFlg=           0 DoJE=T BraDBF=F KetDBF=T FulRan=T
         wScrn=  0.000000 ICntrl=       500 IOpCl=  0 I1Cent=   200000004 NGrid=           0
         NMat0=    1 NMatS0=      1 NMatT0=    0 NMatD0=    1 NMtDS0=    0 NMtDT0=    0
 Petite list used in FoFCou.
 Harris En= -3918.65810807459    
 JPrj=0 DoOrth=F DoCkMO=F.
 Leave Link  401 at Thu Aug 19 22:44:08 2021, MaxMem= 23488102400 cpu:             191.5 elap:               8.0
 (Enter /sw/apps/gaussian-16.0/g16/l502.exe)
 Integral symmetry usage will be decided dynamically.
 Closed shell SCF:
 Using DIIS extrapolation, IDIIS=  1040.
 NGot= 23488102400 LenX= 23482547354 LenY= 23479796732
 Requested convergence on RMS density matrix=1.00D-08 within 128 cycles.
 Requested convergence on MAX density matrix=1.00D-06.
 Requested convergence on             energy=1.00D-06.
 No special actions if energy rises.
 Fock matrices will be formed incrementally for  20 cycles.

 Cycle   1  Pass 1  IDiag  1:
 FoFJK:  IHMeth= 1 ICntrl=       0 DoSepK=T KAlg= 0 I1Cent=           0 FoldK=F
 IRaf=         1 NMat=       1 IRICut=       1 DoRegI=T DoRafI=F ISym2E= 0 IDoP0=0 IntGTp=1.
 FoFCou: FMM=T IPFlag=           0 FMFlag=      100000 FMFlg1=        2001
         NFxFlg=           0 DoJE=T BraDBF=F KetDBF=F FulRan=T
         wScrn=  0.000000 ICntrl=       500 IOpCl=  0 I1Cent=           0 NGrid=           0
         NMat0=    1 NMatS0=      1 NMatT0=    0 NMatD0=    1 NMtDS0=    0 NMtDT0=    0
 Symmetry not used in FoFCou.
 FMM levels:  10  Number of levels for PrismC:   9
 E= -4068.95146845431    
 DIIS: error= 2.04D-02 at cycle   1 NSaved=   1.
 NSaved= 1 IEnMin= 1 EnMin= -4068.95146845431     IErMin= 1 ErrMin= 2.04D-02
 ErrMax= 2.04D-02  0.00D+00 EMaxC= 1.00D-01 BMatC= 1.69D+00 BMatP= 1.69D+00
 IDIUse=3 WtCom= 7.96D-01 WtEn= 2.04D-01
 Coeff-Com:  0.100D+01
 Coeff-En:   0.100D+01
 Coeff:      0.100D+01
 Gap=     0.120 Goal=   None    Shift=    0.000
 GapD=    0.120 DampG=1.000 DampE=0.500 DampFc=0.5000 IDamp=-1.
 Damping current iteration by 5.00D-01
 RMSDP=1.57D-03 MaxDP=1.36D-01              OVMax= 1.98D-01

 Cycle   2  Pass 1  IDiag  1:
 RMSU=  7.69D-04    CP:  9.82D-01
 E= -4069.34029775671     Delta-E=       -0.388829302403 Rises=F Damp=T
 DIIS: error= 1.27D-02 at cycle   2 NSaved=   2.
 NSaved= 2 IEnMin= 2 EnMin= -4069.34029775671     IErMin= 2 ErrMin= 1.27D-02
 ErrMax= 1.27D-02  0.00D+00 EMaxC= 1.00D-01 BMatC= 3.06D-01 BMatP= 1.69D+00
 IDIUse=3 WtCom= 8.73D-01 WtEn= 1.27D-01
 Coeff-Com: -0.214D+00 0.121D+01
 Coeff-En:   0.000D+00 0.100D+01
 Coeff:     -0.187D+00 0.119D+01
 Gap=     0.133 Goal=   None    Shift=    0.000
 RMSDP=7.64D-04 MaxDP=9.44D-02 DE=-3.89D-01 OVMax= 1.88D-01

 Cycle   3  Pass 1  IDiag  1:
 RMSU=  7.31D-04    CP:  9.68D-01  1.24D+00
 E= -4069.63093372405     Delta-E=       -0.290635967332 Rises=F Damp=F
 DIIS: error= 1.54D-02 at cycle   3 NSaved=   3.
 NSaved= 3 IEnMin= 3 EnMin= -4069.63093372405     IErMin= 2 ErrMin= 1.27D-02
 ErrMax= 1.54D-02  0.00D+00 EMaxC= 1.00D-01 BMatC= 2.00D-01 BMatP= 3.06D-01
 IDIUse=3 WtCom= 8.46D-01 WtEn= 1.54D-01
 Coeff-Com: -0.267D+00 0.650D+00 0.617D+00
 Coeff-En:   0.000D+00 0.000D+00 0.100D+01
 Coeff:     -0.226D+00 0.550D+00 0.676D+00
 Gap=     0.119 Goal=   None    Shift=    0.000
 RMSDP=5.05D-04 MaxDP=4.64D-02 DE=-2.91D-01 OVMax= 1.35D-01

 Cycle   4  Pass 1  IDiag  1:
 RMSU=  2.63D-04    CP:  9.65D-01  1.55D+00  5.09D-01
 E= -4069.76796289948     Delta-E=       -0.137029175436 Rises=F Damp=F
 DIIS: error= 6.92D-03 at cycle   4 NSaved=   4.
 NSaved= 4 IEnMin= 4 EnMin= -4069.76796289948     IErMin= 4 ErrMin= 6.92D-03
 ErrMax= 6.92D-03  0.00D+00 EMaxC= 1.00D-01 BMatC= 4.84D-02 BMatP= 2.00D-01
 IDIUse=3 WtCom= 9.31D-01 WtEn= 6.92D-02
 Coeff-Com: -0.109D+00 0.225D+00 0.407D+00 0.477D+00
 Coeff-En:   0.000D+00 0.000D+00 0.215D+00 0.785D+00
 Coeff:     -0.101D+00 0.210D+00 0.393D+00 0.498D+00
 Gap=     0.119 Goal=   None    Shift=    0.000
 RMSDP=1.96D-04 MaxDP=1.91D-02 DE=-1.37D-01 OVMax= 5.72D-02

 Cycle   5  Pass 1  IDiag  1:
 RMSU=  7.49D-05    CP:  9.64D-01  1.49D+00  6.89D-01  5.55D-01
 E= -4069.81174252047     Delta-E=       -0.043779620992 Rises=F Damp=F
 DIIS: error= 7.41D-04 at cycle   5 NSaved=   5.
 NSaved= 5 IEnMin= 5 EnMin= -4069.81174252047     IErMin= 5 ErrMin= 7.41D-04
 ErrMax= 7.41D-04  0.00D+00 EMaxC= 1.00D-01 BMatC= 1.11D-03 BMatP= 4.84D-02
 IDIUse=3 WtCom= 9.93D-01 WtEn= 7.41D-03
 Coeff-Com: -0.360D-01 0.708D-01 0.164D+00 0.249D+00 0.552D+00
 Coeff-En:   0.000D+00 0.000D+00 0.000D+00 0.000D+00 0.100D+01
 Coeff:     -0.358D-01 0.702D-01 0.163D+00 0.247D+00 0.556D+00
 Gap=     0.119 Goal=   None    Shift=    0.000
 RMSDP=4.10D-05 MaxDP=4.50D-03 DE=-4.38D-02 OVMax= 1.68D-02

 Cycle   6  Pass 1  IDiag  1:
 RMSU=  3.08D-05    CP:  9.64D-01  1.49D+00  6.81D-01  6.25D-01  7.53D-01
 E= -4069.81269823095     Delta-E=       -0.000955710475 Rises=F Damp=F
 DIIS: error= 2.02D-04 at cycle   6 NSaved=   6.
 NSaved= 6 IEnMin= 6 EnMin= -4069.81269823095     IErMin= 6 ErrMin= 2.02D-04
 ErrMax= 2.02D-04  0.00D+00 EMaxC= 1.00D-01 BMatC= 1.84D-04 BMatP= 1.11D-03
 IDIUse=3 WtCom= 9.98D-01 WtEn= 2.02D-03
 Coeff-Com:  0.189D-02-0.593D-02 0.122D-01 0.414D-01 0.315D+00 0.636D+00
 Coeff-En:   0.000D+00 0.000D+00 0.000D+00 0.000D+00 0.126D+00 0.874D+00
 Coeff:      0.188D-02-0.592D-02 0.122D-01 0.414D-01 0.314D+00 0.636D+00
 Gap=     0.119 Goal=   None    Shift=    0.000
 RMSDP=1.66D-05 MaxDP=1.25D-03 DE=-9.56D-04 OVMax= 7.30D-03

 Cycle   7  Pass 1  IDiag  1:
 RMSU=  1.09D-05    CP:  9.64D-01  1.50D+00  6.87D-01  6.24D-01  8.60D-01
                    CP:  7.27D-01
 E= -4069.81289805274     Delta-E=       -0.000199821789 Rises=F Damp=F
 DIIS: error= 9.69D-05 at cycle   7 NSaved=   7.
 NSaved= 7 IEnMin= 7 EnMin= -4069.81289805274     IErMin= 7 ErrMin= 9.69D-05
 ErrMax= 9.69D-05  0.00D+00 EMaxC= 1.00D-01 BMatC= 2.31D-05 BMatP= 1.84D-04
 IDIUse=1 WtCom= 1.00D+00 WtEn= 0.00D+00
 Coeff-Com:  0.442D-02-0.972D-02-0.860D-02-0.308D-02 0.110D+00 0.336D+00
 Coeff-Com:  0.571D+00
 Coeff:      0.442D-02-0.972D-02-0.860D-02-0.308D-02 0.110D+00 0.336D+00
 Coeff:      0.571D+00
 Gap=     0.119 Goal=   None    Shift=    0.000
 RMSDP=6.67D-06 MaxDP=1.24D-03 DE=-2.00D-04 OVMax= 3.60D-03

 Cycle   8  Pass 1  IDiag  1:
 RMSU=  4.68D-06    CP:  9.64D-01  1.50D+00  6.88D-01  6.29D-01  8.62D-01
                    CP:  8.55D-01  8.04D-01
 E= -4069.81292649604     Delta-E=       -0.000028443304 Rises=F Damp=F
 DIIS: error= 5.05D-05 at cycle   8 NSaved=   8.
 NSaved= 8 IEnMin= 8 EnMin= -4069.81292649604     IErMin= 8 ErrMin= 5.05D-05
 ErrMax= 5.05D-05  0.00D+00 EMaxC= 1.00D-01 BMatC= 4.74D-06 BMatP= 2.31D-05
 IDIUse=1 WtCom= 1.00D+00 WtEn= 0.00D+00
 Coeff-Com:  0.220D-02-0.437D-02-0.783D-02-0.123D-01-0.110D-01 0.356D-01
 Coeff-Com:  0.329D+00 0.669D+00
 Coeff:      0.220D-02-0.437D-02-0.783D-02-0.123D-01-0.110D-01 0.356D-01
 Coeff:      0.329D+00 0.669D+00
 Gap=     0.119 Goal=   None    Shift=    0.000
 RMSDP=3.30D-06 MaxDP=4.13D-04 DE=-2.84D-05 OVMax= 1.19D-03

 Cycle   9  Pass 1  IDiag  1:
 RMSU=  1.90D-06    CP:  9.64D-01  1.50D+00  6.88D-01  6.31D-01  8.80D-01
                    CP:  8.82D-01  1.00D+00  9.48D-01
 E= -4069.81293405157     Delta-E=       -0.000007555525 Rises=F Damp=F
 DIIS: error= 2.15D-05 at cycle   9 NSaved=   9.
 NSaved= 9 IEnMin= 9 EnMin= -4069.81293405157     IErMin= 9 ErrMin= 2.15D-05
 ErrMax= 2.15D-05  0.00D+00 EMaxC= 1.00D-01 BMatC= 7.04D-07 BMatP= 4.74D-06
 IDIUse=1 WtCom= 1.00D+00 WtEn= 0.00D+00
 Coeff-Com:  0.505D-03-0.852D-03-0.278D-02-0.617D-02-0.219D-01-0.372D-01
 Coeff-Com:  0.992D-01 0.337D+00 0.632D+00
 Coeff:      0.505D-03-0.852D-03-0.278D-02-0.617D-02-0.219D-01-0.372D-01
 Coeff:      0.992D-01 0.337D+00 0.632D+00
 Gap=     0.119 Goal=   None    Shift=    0.000
 RMSDP=1.38D-06 MaxDP=1.52D-04 DE=-7.56D-06 OVMax= 7.42D-04

 Cycle  10  Pass 1  IDiag  1:
 RMSU=  9.24D-07    CP:  9.64D-01  1.50D+00  6.88D-01  6.31D-01  8.83D-01
                    CP:  8.94D-01  1.04D+00  1.11D+00  1.04D+00
 E= -4069.81293559119     Delta-E=       -0.000001539622 Rises=F Damp=F
 DIIS: error= 1.04D-05 at cycle  10 NSaved=  10.
 NSaved=10 IEnMin=10 EnMin= -4069.81293559119     IErMin=10 ErrMin= 1.04D-05
 ErrMax= 1.04D-05  0.00D+00 EMaxC= 1.00D-01 BMatC= 1.56D-07 BMatP= 7.04D-07
 IDIUse=1 WtCom= 1.00D+00 WtEn= 0.00D+00
 Coeff-Com: -0.412D-03 0.865D-03 0.117D-02 0.104D-02-0.405D-02-0.300D-01
 Coeff-Com: -0.438D-01-0.693D-01 0.238D+00 0.907D+00
 Coeff:     -0.412D-03 0.865D-03 0.117D-02 0.104D-02-0.405D-02-0.300D-01
 Coeff:     -0.438D-01-0.693D-01 0.238D+00 0.907D+00
 Gap=     0.119 Goal=   None    Shift=    0.000
 RMSDP=1.18D-06 MaxDP=1.20D-04 DE=-1.54D-06 OVMax= 5.91D-04

 Cycle  11  Pass 1  IDiag  1:
 RMSU=  5.01D-07    CP:  9.64D-01  1.50D+00  6.88D-01  6.31D-01  8.85D-01
                    CP:  9.04D-01  1.09D+00  1.22D+00  1.37D+00  1.36D+00
 E= -4069.81293631828     Delta-E=       -0.000000727090 Rises=F Damp=F
 DIIS: error= 4.10D-06 at cycle  11 NSaved=  11.
 NSaved=11 IEnMin=11 EnMin= -4069.81293631828     IErMin=11 ErrMin= 4.10D-06
 ErrMax= 4.10D-06  0.00D+00 EMaxC= 1.00D-01 BMatC= 5.75D-08 BMatP= 1.56D-07
 IDIUse=1 WtCom= 1.00D+00 WtEn= 0.00D+00
 Coeff-Com: -0.325D-03 0.633D-03 0.130D-02 0.209D-02 0.434D-02-0.826D-02
 Coeff-Com: -0.407D-01-0.127D+00-0.333D-01 0.466D+00 0.736D+00
 Coeff:     -0.325D-03 0.633D-03 0.130D-02 0.209D-02 0.434D-02-0.826D-02
 Coeff:     -0.407D-01-0.127D+00-0.333D-01 0.466D+00 0.736D+00
 Gap=     0.119 Goal=   None    Shift=    0.000
 RMSDP=6.55D-07 MaxDP=5.78D-05 DE=-7.27D-07 OVMax= 3.46D-04

 Cycle  12  Pass 1  IDiag  1:
 RMSU=  2.54D-07    CP:  9.64D-01  1.50D+00  6.88D-01  6.31D-01  8.86D-01
                    CP:  9.06D-01  1.11D+00  1.28D+00  1.53D+00  1.74D+00
                    CP:  1.21D+00
 E= -4069.81293655987     Delta-E=       -0.000000241591 Rises=F Damp=F
 DIIS: error= 2.46D-06 at cycle  12 NSaved=  12.
 NSaved=12 IEnMin=12 EnMin= -4069.81293655987     IErMin=12 ErrMin= 2.46D-06
 ErrMax= 2.46D-06  0.00D+00 EMaxC= 1.00D-01 BMatC= 1.36D-08 BMatP= 5.75D-08
 IDIUse=1 WtCom= 1.00D+00 WtEn= 0.00D+00
 Coeff-Com: -0.493D-05-0.594D-05 0.185D-03 0.509D-03 0.326D-02 0.350D-02
 Coeff-Com:  0.272D-02-0.328D-01-0.672D-01-0.681D-01 0.243D+00 0.915D+00
 Coeff:     -0.493D-05-0.594D-05 0.185D-03 0.509D-03 0.326D-02 0.350D-02
 Coeff:      0.272D-02-0.328D-01-0.672D-01-0.681D-01 0.243D+00 0.915D+00
 Gap=     0.119 Goal=   None    Shift=    0.000
 RMSDP=4.11D-07 MaxDP=2.73D-05 DE=-2.42D-07 OVMax= 2.37D-04

 Cycle  13  Pass 1  IDiag  1:
 RMSU=  1.60D-07    CP:  9.64D-01  1.50D+00  6.88D-01  6.31D-01  8.87D-01
                    CP:  9.06D-01  1.11D+00  1.30D+00  1.63D+00  1.96D+00
                    CP:  1.61D+00  1.27D+00
 E= -4069.81293664274     Delta-E=       -0.000000082870 Rises=F Damp=F
 DIIS: error= 1.28D-06 at cycle  13 NSaved=  13.
 NSaved=13 IEnMin=13 EnMin= -4069.81293664274     IErMin=13 ErrMin= 1.28D-06
 ErrMax= 1.28D-06  0.00D+00 EMaxC= 1.00D-01 BMatC= 7.75D-09 BMatP= 1.36D-08
 IDIUse=1 WtCom= 1.00D+00 WtEn= 0.00D+00
 Coeff-Com:  0.117D-03-0.239D-03-0.360D-03-0.448D-03 0.596D-03 0.467D-02
 Coeff-Com:  0.187D-01 0.228D-01-0.311D-01-0.236D+00-0.163D+00 0.602D+00
 Coeff-Com:  0.782D+00
 Coeff:      0.117D-03-0.239D-03-0.360D-03-0.448D-03 0.596D-03 0.467D-02
 Coeff:      0.187D-01 0.228D-01-0.311D-01-0.236D+00-0.163D+00 0.602D+00
 Coeff:      0.782D+00
 Gap=     0.119 Goal=   None    Shift=    0.000
 RMSDP=3.23D-07 MaxDP=1.96D-05 DE=-8.29D-08 OVMax= 1.80D-04

 Cycle  14  Pass 1  IDiag  1:
 RMSU=  7.38D-08    CP:  9.64D-01  1.50D+00  6.88D-01  6.31D-01  8.87D-01
                    CP:  9.07D-01  1.12D+00  1.33D+00  1.70D+00  2.15D+00
                    CP:  1.87D+00  1.79D+00  1.09D+00
 E= -4069.81293667592     Delta-E=       -0.000000033182 Rises=F Damp=F
 DIIS: error= 6.63D-07 at cycle  14 NSaved=  14.
 NSaved=14 IEnMin=14 EnMin= -4069.81293667592     IErMin=14 ErrMin= 6.63D-07
 ErrMax= 6.63D-07  0.00D+00 EMaxC= 1.00D-01 BMatC= 1.20D-09 BMatP= 7.75D-09
 IDIUse=1 WtCom= 1.00D+00 WtEn= 0.00D+00
 Coeff-Com:  0.666D-04-0.131D-03-0.245D-03-0.385D-03-0.469D-03 0.119D-02
 Coeff-Com:  0.103D-01 0.192D-01 0.438D-02-0.989D-01-0.146D+00 0.973D-01
 Coeff-Com:  0.404D+00 0.710D+00
 Coeff:      0.666D-04-0.131D-03-0.245D-03-0.385D-03-0.469D-03 0.119D-02
 Coeff:      0.103D-01 0.192D-01 0.438D-02-0.989D-01-0.146D+00 0.973D-01
 Coeff:      0.404D+00 0.710D+00
 Gap=     0.119 Goal=   None    Shift=    0.000
 RMSDP=9.87D-08 MaxDP=6.48D-06 DE=-3.32D-08 OVMax= 5.41D-05

 Cycle  15  Pass 1  IDiag  1:
 RMSU=  3.77D-08    CP:  9.64D-01  1.50D+00  6.88D-01  6.31D-01  8.87D-01
                    CP:  9.07D-01  1.12D+00  1.33D+00  1.71D+00  2.19D+00
                    CP:  1.98D+00  1.93D+00  1.33D+00  1.02D+00
 E= -4069.81293668002     Delta-E=       -0.000000004100 Rises=F Damp=F
 DIIS: error= 3.13D-07 at cycle  15 NSaved=  15.
 NSaved=15 IEnMin=15 EnMin= -4069.81293668002     IErMin=15 ErrMin= 3.13D-07
 ErrMax= 3.13D-07  0.00D+00 EMaxC= 1.00D-01 BMatC= 2.27D-10 BMatP= 1.20D-09
 IDIUse=1 WtCom= 1.00D+00 WtEn= 0.00D+00
 Coeff-Com:  0.656D-05-0.114D-04-0.360D-04-0.856D-04-0.297D-03-0.482D-03
 Coeff-Com:  0.126D-02 0.283D-02 0.826D-02 0.536D-03-0.332D-01-0.711D-01
 Coeff-Com:  0.302D-01 0.306D+00 0.756D+00
 Coeff:      0.656D-05-0.114D-04-0.360D-04-0.856D-04-0.297D-03-0.482D-03
 Coeff:      0.126D-02 0.283D-02 0.826D-02 0.536D-03-0.332D-01-0.711D-01
 Coeff:      0.302D-01 0.306D+00 0.756D+00
 Gap=     0.119 Goal=   None    Shift=    0.000
 RMSDP=4.06D-08 MaxDP=2.39D-06 DE=-4.10D-09 OVMax= 2.52D-05

 Cycle  16  Pass 1  IDiag  1:
 RMSU=  1.84D-08    CP:  9.64D-01  1.50D+00  6.88D-01  6.32D-01  8.87D-01
                    CP:  9.07D-01  1.12D+00  1.33D+00  1.72D+00  2.20D+00
                    CP:  2.00D+00  2.00D+00  1.40D+00  1.24D+00  1.13D+00
 E= -4069.81293668104     Delta-E=       -0.000000001015 Rises=F Damp=F
 DIIS: error= 1.68D-07 at cycle  16 NSaved=  16.
 NSaved=16 IEnMin=16 EnMin= -4069.81293668104     IErMin=16 ErrMin= 1.68D-07
 ErrMax= 1.68D-07  0.00D+00 EMaxC= 1.00D-01 BMatC= 8.08D-11 BMatP= 2.27D-10
 IDIUse=1 WtCom= 1.00D+00 WtEn= 0.00D+00
 Coeff-Com: -0.134D-04 0.273D-04 0.440D-04 0.496D-04-0.312D-04-0.611D-03
 Coeff-Com: -0.176D-02-0.401D-02 0.407D-02 0.249D-01 0.195D-01-0.644D-01
 Coeff-Com: -0.820D-01-0.250D-01 0.404D+00 0.725D+00
 Coeff:     -0.134D-04 0.273D-04 0.440D-04 0.496D-04-0.312D-04-0.611D-03
 Coeff:     -0.176D-02-0.401D-02 0.407D-02 0.249D-01 0.195D-01-0.644D-01
 Coeff:     -0.820D-01-0.250D-01 0.404D+00 0.725D+00
 Gap=     0.119 Goal=   None    Shift=    0.000
 RMSDP=2.17D-08 MaxDP=1.46D-06 DE=-1.01D-09 OVMax= 1.37D-05

 Cycle  17  Pass 1  IDiag  1:
 RMSU=  1.06D-08    CP:  9.64D-01  1.50D+00  6.88D-01  6.32D-01  8.87D-01
                    CP:  9.07D-01  1.12D+00  1.33D+00  1.72D+00  2.21D+00
                    CP:  2.01D+00  2.02D+00  1.45D+00  1.33D+00  1.42D+00
                    CP:  1.20D+00
 E= -4069.81293668109     Delta-E=       -0.000000000051 Rises=F Damp=F
 DIIS: error= 1.13D-07 at cycle  17 NSaved=  17.
 NSaved=17 IEnMin=17 EnMin= -4069.81293668109     IErMin=17 ErrMin= 1.13D-07
 ErrMax= 1.13D-07  0.00D+00 EMaxC= 1.00D-01 BMatC= 1.94D-11 BMatP= 8.08D-11
 IDIUse=1 WtCom= 1.00D+00 WtEn= 0.00D+00
 Coeff-Com: -0.784D-05 0.153D-04 0.302D-04 0.441D-04 0.800D-04-0.158D-03
 Coeff-Com: -0.984D-03-0.294D-02 0.182D-03 0.106D-01 0.182D-01-0.110D-01
 Coeff-Com: -0.415D-01-0.992D-01-0.952D-02 0.323D+00 0.813D+00
 Coeff:     -0.784D-05 0.153D-04 0.302D-04 0.441D-04 0.800D-04-0.158D-03
 Coeff:     -0.984D-03-0.294D-02 0.182D-03 0.106D-01 0.182D-01-0.110D-01
 Coeff:     -0.415D-01-0.992D-01-0.952D-02 0.323D+00 0.813D+00
 Gap=     0.119 Goal=   None    Shift=    0.000
 RMSDP=1.33D-08 MaxDP=8.99D-07 DE=-5.09D-11 OVMax= 7.93D-06

 Cycle  18  Pass 1  IDiag  1:
 RMSU=  5.29D-09    CP:  9.64D-01  1.50D+00  6.88D-01  6.32D-01  8.87D-01
                    CP:  9.07D-01  1.12D+00  1.33D+00  1.72D+00  2.21D+00
                    CP:  2.02D+00  2.03D+00  1.47D+00  1.40D+00  1.57D+00
                    CP:  1.60D+00  1.32D+00
 E= -4069.81293668090     Delta-E=        0.000000000182 Rises=F Damp=F
 DIIS: error= 6.21D-08 at cycle  18 NSaved=  18.
 NSaved=18 IEnMin=17 EnMin= -4069.81293668109     IErMin=18 ErrMin= 6.21D-08
 ErrMax= 6.21D-08  0.00D+00 EMaxC= 1.00D-01 BMatC= 7.87D-12 BMatP= 1.94D-11
 IDIUse=1 WtCom= 1.00D+00 WtEn= 0.00D+00
 Coeff-Com:  0.450D-06-0.124D-05 0.123D-05 0.595D-05 0.666D-04 0.126D-03
 Coeff-Com:  0.179D-03-0.311D-03-0.105D-02-0.363D-02 0.296D-02 0.168D-01
 Coeff-Com:  0.100D-01-0.465D-01-0.148D+00-0.110D+00 0.421D+00 0.859D+00
 Coeff:      0.450D-06-0.124D-05 0.123D-05 0.595D-05 0.666D-04 0.126D-03
 Coeff:      0.179D-03-0.311D-03-0.105D-02-0.363D-02 0.296D-02 0.168D-01
 Coeff:      0.100D-01-0.465D-01-0.148D+00-0.110D+00 0.421D+00 0.859D+00
 Gap=     0.119 Goal=   None    Shift=    0.000
 RMSDP=1.02D-08 MaxDP=6.66D-07 DE= 1.82D-10 OVMax= 6.80D-06

 Cycle  19  Pass 1  IDiag  1:
 RMSU=  3.18D-09    CP:  9.64D-01  1.50D+00  6.88D-01  6.32D-01  8.87D-01
                    CP:  9.07D-01  1.12D+00  1.33D+00  1.72D+00  2.21D+00
                    CP:  2.02D+00  2.03D+00  1.48D+00  1.44D+00  1.70D+00
                    CP:  1.87D+00  1.82D+00  1.17D+00
 E= -4069.81293668119     Delta-E=       -0.000000000284 Rises=F Damp=F
 DIIS: error= 3.37D-08 at cycle  19 NSaved=  19.
 NSaved=19 IEnMin=19 EnMin= -4069.81293668119     IErMin=19 ErrMin= 3.37D-08
 ErrMax= 3.37D-08  0.00D+00 EMaxC= 1.00D-01 BMatC= 2.70D-12 BMatP= 7.87D-12
 IDIUse=1 WtCom= 1.00D+00 WtEn= 0.00D+00
 Coeff-Com:  0.326D-05-0.662D-05-0.107D-04-0.130D-04 0.193D-04 0.142D-03
 Coeff-Com:  0.523D-03 0.861D-03-0.701D-03-0.692D-02-0.517D-02 0.154D-01
 Coeff-Com:  0.238D-01 0.651D-02-0.959D-01-0.209D+00-0.241D-01 0.557D+00
 Coeff-Com:  0.737D+00
 Coeff:      0.326D-05-0.662D-05-0.107D-04-0.130D-04 0.193D-04 0.142D-03
 Coeff:      0.523D-03 0.861D-03-0.701D-03-0.692D-02-0.517D-02 0.154D-01
 Coeff:      0.238D-01 0.651D-02-0.959D-01-0.209D+00-0.241D-01 0.557D+00
 Coeff:      0.737D+00
 Gap=     0.119 Goal=   None    Shift=    0.000
 RMSDP=6.42D-09 MaxDP=4.13D-07 DE=-2.84D-10 OVMax= 3.76D-06

 SCF Done:  E(RCAM-B3LYP) =  -4069.81293668     A.U. after   19 cycles
            NFock= 19  Conv=0.64D-08     -V/T= 2.0102
 KE= 4.028801273198D+03 PE=-4.045872367343D+04 EE= 1.687130693061D+04
 Leave Link  502 at Thu Aug 19 22:55:11 2021, MaxMem= 23488102400 cpu:           15308.0 elap:             663.2
 (Enter /sw/apps/gaussian-16.0/g16/l801.exe)
 DoSCS=F DFT=T ScalE2(SS,OS)=  1.000000  1.000000
 ExpMin= 3.36D-02 ExpMax= 4.95D+03 ExpMxC= 7.45D+02 IAcc=3 IRadAn=         5 AccDes= 0.00D+00
 HarFok:  IExCor=  205 AccDes= 0.00D+00 IRadAn=         5 IDoV=-2 UseB2=F ITyADJ=14
 ICtDFT= 12500011 ScaDFX=  1.000000  1.000000  1.000000  1.000000
 GSVD:  LWork=       -9588 too small for GESVD, short by       45590 words or       45590 for optimal perf.
 Largest valence mixing into a core orbital is  2.03D-04
 Largest core mixing into a valence orbital is  5.23D-05
 Range of M.O.s used for correlation:    95  1572
 NBasis=  1572 NAE=   312 NBE=   312 NFC=    94 NFV=     0
 NROrb=   1478 NOA=   218 NOB=   218 NVA=  1260 NVB=  1260
 Leave Link  801 at Thu Aug 19 22:55:12 2021, MaxMem= 23488102400 cpu:               8.8 elap:               0.4
 (Enter /sw/apps/gaussian-16.0/g16/l914.exe)
 RHF ground state
 Two-electron integrals replicated using symmetry.
 MDV= 23488102400 DFT=T DoStab=F Mixed=T DoRPA=T DoScal=F NonHer=T
 Making orbital integer symmetry assigments:
 Orbital symmetries:
       Occupied  (A) (A) (A) (A) (A) (A) (A) (A) (A) (A) (A) (A)
                 (A) (A) (A) (A) (A) (A) (A) (A) (A) (A) (A) (A)
                 (A) (A) (A) (A) (A) (A) (A) (A) (A) (A) (A) (A)
                 (A) (A) (A) (A) (A) (A) (A) (A) (A) (A) (A) (A)
                 (A) (A) (A) (A) (A) (A) (A) (A) (A) (A) (A) (A)
                 (A) (A) (A) (A) (A) (A) (A) (A) (A) (A) (A) (A)
                 (A) (A) (A) (A) (A) (A) (A) (A) (A) (A) (A) (A)
                 (A) (A) (A) (A) (A) (A) (A) (A) (A) (A) (A) (A)
                 (A) (A) (A) (A) (A) (A) (A) (A) (A) (A) (A) (A)
                 (A) (A) (A) (A) (A) (A) (A) (A) (A) (A) (A) (A)
                 (A) (A) (A) (A) (A) (A) (A) (A) (A) (A) (A) (A)
                 (A) (A) (A) (A) (A) (A) (A) (A) (A) (A) (A) (A)
                 (A) (A) (A) (A) (A) (A) (A) (A) (A) (A) (A) (A)
                 (A) (A) (A) (A) (A) (A) (A) (A) (A) (A) (A) (A)
                 (A) (A) (A) (A) (A) (A) (A) (A) (A) (A) (A) (A)
                 (A) (A) (A) (A) (A) (A) (A) (A) (A) (A) (A) (A)
                 (A) (A) (A) (A) (A) (A) (A) (A) (A) (A) (A) (A)
                 (A) (A) (A) (A) (A) (A) (A) (A) (A) (A) (A) (A)
                 (A) (A) (A) (A) (A) (A) (A) (A) (A) (A) (A) (A)
                 (A) (A) (A) (A) (A) (A) (A) (A) (A) (A) (A) (A)
                 (A) (A) (A) (A) (A) (A) (A) (A) (A) (A) (A) (A)
                 (A) (A) (A) (A) (A) (A) (A) (A) (A) (A) (A) (A)
                 (A) (A) (A) (A) (A) (A) (A) (A) (A) (A) (A) (A)
                 (A) (A) (A) (A) (A) (A) (A) (A) (A) (A) (A) (A)
                 (A) (A) (A) (A) (A) (A) (A) (A) (A) (A) (A) (A)
                 (A) (A) (A) (A) (A) (A) (A) (A) (A) (A) (A) (A)
       Virtual   (A) (A) (A) (A) (A) (A) (A) (A) (A) (A) (A) (A)
                 (A) (A) (A) (A) (A) (A) (A) (A) (A) (A) (A) (A)
                 (A) (A) (A) (A) (A) (A) (A) (A) (A) (A) (A) (A)
                 (A) (A) (A) (A) (A) (A) (A) (A) (A) (A) (A) (A)
                 (A) (A) (A) (A) (A) (A) (A) (A) (A) (A) (A) (A)
                 (A) (A) (A) (A) (A) (A) (A) (A) (A) (A) (A) (A)
                 (A) (A) (A) (A) (A) (A) (A) (A) (A) (A) (A) (A)
                 (A) (A) (A) (A) (A) (A) (A) (A) (A) (A) (A) (A)
                 (A) (A) (A) (A) (A) (A) (A) (A) (A) (A) (A) (A)
                 (A) (A) (A) (A) (A) (A) (A) (A) (A) (A) (A) (A)
                 (A) (A) (A) (A) (A) (A) (A) (A) (A) (A) (A) (A)
                 (A) (A) (A) (A) (A) (A) (A) (A) (A) (A) (A) (A)
                 (A) (A) (A) (A) (A) (A) (A) (A) (A) (A) (A) (A)
                 (A) (A) (A) (A) (A) (A) (A) (A) (A) (A) (A) (A)
                 (A) (A) (A) (A) (A) (A) (A) (A) (A) (A) (A) (A)
                 (A) (A) (A) (A) (A) (A) (A) (A) (A) (A) (A) (A)
                 (A) (A) (A) (A) (A) (A) (A) (A) (A) (A) (A) (A)
                 (A) (A) (A) (A) (A) (A) (A) (A) (A) (A) (A) (A)
                 (A) (A) (A) (A) (A) (A) (A) (A) (A) (A) (A) (A)
                 (A) (A) (A) (A) (A) (A) (A) (A) (A) (A) (A) (A)
                 (A) (A) (A) (A) (A) (A) (A) (A) (A) (A) (A) (A)
                 (A) (A) (A) (A) (A) (A) (A) (A) (A) (A) (A) (A)
                 (A) (A) (A) (A) (A) (A) (A) (A) (A) (A) (A) (A)
                 (A) (A) (A) (A) (A) (A) (A) (A) (A) (A) (A) (A)
                 (A) (A) (A) (A) (A) (A) (A) (A) (A) (A) (A) (A)
                 (A) (A) (A) (A) (A) (A) (A) (A) (A) (A) (A) (A)
                 (A) (A) (A) (A) (A) (A) (A) (A) (A) (A) (A) (A)
                 (A) (A) (A) (A) (A) (A) (A) (A) (A) (A) (A) (A)
                 (A) (A) (A) (A) (A) (A) (A) (A) (A) (A) (A) (A)
                 (A) (A) (A) (A) (A) (A) (A) (A) (A) (A) (A) (A)
                 (A) (A) (A) (A) (A) (A) (A) (A) (A) (A) (A) (A)
                 (A) (A) (A) (A) (A) (A) (A) (A) (A) (A) (A) (A)
                 (A) (A) (A) (A) (A) (A) (A) (A) (A) (A) (A) (A)
                 (A) (A) (A) (A) (A) (A) (A) (A) (A) (A) (A) (A)
                 (A) (A) (A) (A) (A) (A) (A) (A) (A) (A) (A) (A)
                 (A) (A) (A) (A) (A) (A) (A) (A) (A) (A) (A) (A)
                 (A) (A) (A) (A) (A) (A) (A) (A) (A) (A) (A) (A)
                 (A) (A) (A) (A) (A) (A) (A) (A) (A) (A) (A) (A)
                 (A) (A) (A) (A) (A) (A) (A) (A) (A) (A) (A) (A)
                 (A) (A) (A) (A) (A) (A) (A) (A) (A) (A) (A) (A)
                 (A) (A) (A) (A) (A) (A) (A) (A) (A) (A) (A) (A)
                 (A) (A) (A) (A) (A) (A) (A) (A) (A) (A) (A) (A)
                 (A) (A) (A) (A) (A) (A) (A) (A) (A) (A) (A) (A)
                 (A) (A) (A) (A) (A) (A) (A) (A) (A) (A) (A) (A)
                 (A) (A) (A) (A) (A) (A) (A) (A) (A) (A) (A) (A)
                 (A) (A) (A) (A) (A) (A) (A) (A) (A) (A) (A) (A)
                 (A) (A) (A) (A) (A) (A) (A) (A) (A) (A) (A) (A)
                 (A) (A) (A) (A) (A) (A) (A) (A) (A) (A) (A) (A)
                 (A) (A) (A) (A) (A) (A) (A) (A) (A) (A) (A) (A)
                 (A) (A) (A) (A) (A) (A) (A) (A) (A) (A) (A) (A)
                 (A) (A) (A) (A) (A) (A) (A) (A) (A) (A) (A) (A)
                 (A) (A) (A) (A) (A) (A) (A) (A) (A) (A) (A) (A)
                 (A) (A) (A) (A) (A) (A) (A) (A) (A) (A) (A) (A)
                 (A) (A) (A) (A) (A) (A) (A) (A) (A) (A) (A) (A)
                 (A) (A) (A) (A) (A) (A) (A) (A) (A) (A) (A) (A)
                 (A) (A) (A) (A) (A) (A) (A) (A) (A) (A) (A) (A)
                 (A) (A) (A) (A) (A) (A) (A) (A) (A) (A) (A) (A)
                 (A) (A) (A) (A) (A) (A) (A) (A) (A) (A) (A) (A)
                 (A) (A) (A) (A) (A) (A) (A) (A) (A) (A) (A) (A)
                 (A) (A) (A) (A) (A) (A) (A) (A) (A) (A) (A) (A)
                 (A) (A) (A) (A) (A) (A) (A) (A) (A) (A) (A) (A)
                 (A) (A) (A) (A) (A) (A) (A) (A) (A) (A) (A) (A)
                 (A) (A) (A) (A) (A) (A) (A) (A) (A) (A) (A) (A)
                 (A) (A) (A) (A) (A) (A) (A) (A) (A) (A) (A) (A)
                 (A) (A) (A) (A) (A) (A) (A) (A) (A) (A) (A) (A)
                 (A) (A) (A) (A) (A) (A) (A) (A) (A) (A) (A) (A)
                 (A) (A) (A) (A) (A) (A) (A) (A) (A) (A) (A) (A)
                 (A) (A) (A) (A) (A) (A) (A) (A) (A) (A) (A) (A)
                 (A) (A) (A) (A) (A) (A) (A) (A) (A) (A) (A) (A)
                 (A) (A) (A) (A) (A) (A) (A) (A) (A) (A) (A) (A)
                 (A) (A) (A) (A) (A) (A) (A) (A) (A) (A) (A) (A)
                 (A) (A) (A) (A) (A) (A) (A) (A) (A) (A) (A) (A)
                 (A) (A) (A) (A) (A) (A) (A) (A) (A) (A) (A) (A)
                 (A) (A) (A) (A) (A) (A) (A) (A) (A) (A) (A) (A)
                 (A) (A) (A) (A) (A) (A) (A) (A) (A) (A) (A) (A)
                 (A) (A) (A) (A) (A) (A) (A) (A) (A) (A) (A) (A)
                 (A) (A) (A) (A) (A) (A) (A) (A) (A) (A) (A) (A)
                 (A) (A) (A) (A) (A) (A) (A) (A) (A) (A) (A) (A)
                 (A) (A) (A) (A) (A) (A) (A) (A) (A) (A) (A) (A)
                 (A) (A) (A) (A) (A) (A) (A) (A) (A) (A) (A) (A)
                 (A) (A) (A) (A) (A) (A) (A) (A) (A) (A) (A) (A)
                 (A) (A) (A) (A) (A) (A) (A) (A) (A) (A) (A) (A)
                 (A) (A) (A) (A) (A) (A) (A) (A) (A) (A) (A) (A)
                 (A) (A) (A) (A) (A) (A) (A) (A) (A) (A) (A) (A)
                 (A) (A) (A) (A) (A) (A) (A) (A) (A) (A) (A) (A)
                 (A) (A) (A) (A) (A) (A) (A) (A) (A) (A) (A) (A)
                 (A) (A) (A) (A) (A) (A) (A) (A) (A) (A) (A) (A)
                 (A) (A) (A) (A) (A) (A) (A) (A) (A) (A) (A) (A)
                 (A) (A) (A) (A) (A) (A) (A) (A) (A) (A) (A) (A)
                 (A) (A) (A) (A) (A) (A) (A) (A) (A) (A) (A) (A)
                 (A) (A) (A) (A) (A) (A) (A) (A) (A) (A) (A) (A)
                 (A) (A) (A) (A) (A) (A) (A) (A) (A) (A) (A) (A)
                 (A) (A) (A) (A) (A) (A) (A) (A) (A) (A) (A) (A)
                 (A) (A) (A) (A) (A) (A) (A) (A) (A) (A) (A) (A)
                 (A) (A) (A) (A) (A) (A) (A) (A) (A) (A) (A) (A)
                 (A) (A) (A) (A) (A) (A) (A) (A) (A) (A) (A) (A)
                 (A) (A) (A) (A) (A) (A) (A) (A) (A) (A) (A) (A)
                 (A) (A) (A) (A) (A) (A) (A) (A) (A) (A) (A) (A)
                 (A) (A) (A) (A) (A) (A) (A) (A) (A) (A) (A) (A)
                 (A) (A) (A) (A) (A) (A) (A) (A) (A) (A) (A) (A)
                 (A) (A) (A) (A) (A) (A) (A) (A) (A) (A) (A) (A)
                 (A) (A) (A) (A) (A) (A) (A) (A) (A) (A) (A) (A)
                 (A) (A) (A) (A) (A) (A) (A) (A) (A) (A) (A) (A)
                 (A) (A) (A) (A) (A) (A) (A) (A) (A) (A) (A) (A)
                 (A) (A) (A) (A) (A) (A) (A) (A) (A) (A) (A) (A)
    20 initial guesses have been made.
 Convergence on wavefunction:    0.001000000000000
 Davidson Disk Diagonalization:  ConvIn= 1.00D-03 SkipCon=T Conv= 1.00D-03.
 Max sub-space:  2000 roots to seek:    20 dimension of matrix:       549360
 Iteration     1 Dimension    20 NMult     0 NNew     20
 CISAX will form    20 AO SS matrices at one time.
 NMat=    20 NSing=    20 JSym2X= 0.
 FoFJK:  IHMeth= 1 ICntrl=       0 DoSepK=T KAlg= 0 I1Cent=           0 FoldK=F
 IRaf=         1 NMat=      40 IRICut=       1 DoRegI=T DoRafI=F ISym2E= 0 IDoP0=3 IntGTp=3.
 FoFCou: FMM=T IPFlag=           0 FMFlag=      100000 FMFlg1=        2001
         NFxFlg=           0 DoJE=F BraDBF=F KetDBF=F FulRan=T
         wScrn=  0.000000 ICntrl=       500 IOpCl=  0 I1Cent=           0 NGrid=           0
         NMat0=   20 NMatS0=     20 NMatT0=    0 NMatD0=   20 NMtDS0=    0 NMtDT0=    0
 Symmetry not used in FoFCou.
 FMM levels:  10  Number of levels for PrismC:   9
 New state      2 was old state      4
 New state      3 was old state      7
 New state      4 was old state      6
 New state      5 was old state      2
 Excitation Energies [eV] at current iteration:
 Root      1 :     2.331254291346221
 Root      2 :     2.543164416153977
 Root      3 :     2.608660451504200
 Root      4 :     2.618373191072061
 Root      5 :     2.673826283465937
 Root      6 :     2.698382673848406
 Root      7 :     3.114134315605004
 Root      8 :     3.339843205383861
 Root      9 :     3.632722931721459
 Root     10 :     3.675400777055841
 Root     11 :     3.739080038254359
 Root     12 :     3.758449173721450
 Root     13 :     4.234831413260622
 Root     14 :     4.285554212228933
 Root     15 :     4.318022759599990
 Root     16 :     4.476303146847237
 Root     17 :     4.575278142574422
 Root     18 :     4.612518887413021
 Root     19 :     4.719235872017539
 Root     20 :     4.848468066541812
 Iteration     2 Dimension    30 NMult    20 NNew     10
 CISAX will form    10 AO SS matrices at one time.
 NMat=    10 NSing=    10 JSym2X= 0.
 New state      1 was old state      5
 Root      1 not converged, maximum delta is    0.187460253047816
 New state      2 was old state      3
 Root      2 not converged, maximum delta is    0.211935741733960
 New state      3 was old state      4
 Root      3 not converged, maximum delta is    0.243406781164935
 New state      4 was old state      1
 Root      4 not converged, maximum delta is    0.003442705465839
 New state      5 was old state      2
 Root      5 not converged, maximum delta is    0.006059762513631
 Excitation Energies [eV] at current iteration:
 Root      1 :     1.793700031248504   Change is   -0.880126252217433
 Root      2 :     2.158380949153975   Change is   -0.450279502350225
 Root      3 :     2.240191277882591   Change is   -0.378181913189470
 Root      4 :     2.330414699089477   Change is   -0.000839592256744
 Root      5 :     2.542154580188372   Change is   -0.001009835965604
 Iteration     3 Dimension    40 NMult    30 NNew     10
 CISAX will form    10 AO SS matrices at one time.
 NMat=    10 NSing=    10 JSym2X= 0.
 Root      1 not converged, maximum delta is    0.060562223797717
 Root      2 not converged, maximum delta is    0.335453269507254
 Root      3 not converged, maximum delta is    0.092409830918817
 No map to state      4
 New state      5 was old state      4
 Root      5 has converged.
 Excitation Energies [eV] at current iteration:
 Root      1 :     1.687290456213928   Change is   -0.106409575034575
 Root      2 :     1.792097629666552   Change is   -0.366283319487423
 Root      3 :     2.196829410345408   Change is   -0.043361867537184
 Root      4 :     2.229826814972814
 Root      5 :     2.330408999343634   Change is   -0.000005699745842
 Iteration     4 Dimension    48 NMult    40 NNew      8
 CISAX will form     8 AO SS matrices at one time.
 NMat=     8 NSing=     8 JSym2X= 0.
 Root      1 not converged, maximum delta is    0.013757011760266
 Root      2 not converged, maximum delta is    0.060634634741642
 Root      3 not converged, maximum delta is    0.358568144503158
 Root      4 not converged, maximum delta is    0.347743886017878
 Root      5 has converged.
 Excitation Energies [eV] at current iteration:
 Root      1 :     1.670467298839217   Change is   -0.016823157374711
 Root      2 :     1.690746790379345   Change is   -0.101350839287207
 Root      3 :     2.185524032314493   Change is   -0.011305378030915
 Root      4 :     2.195527353336000   Change is   -0.034299461636814
 Root      5 :     2.330408885396390   Change is   -0.000000113947244
 Iteration     5 Dimension    56 NMult    48 NNew      8
 CISAX will form     8 AO SS matrices at one time.
 NMat=     8 NSing=     8 JSym2X= 0.
 Root      1 not converged, maximum delta is    0.015975123649787
 Root      2 not converged, maximum delta is    0.015696002099316
 Root      3 not converged, maximum delta is    0.069480962432203
 Root      4 not converged, maximum delta is    0.069476903471522
 Root      5 has converged.
 Excitation Energies [eV] at current iteration:
 Root      1 :     1.668640813024660   Change is   -0.001826485814557
 Root      2 :     1.679583283204314   Change is   -0.011163507175031
 Root      3 :     2.183393614012740   Change is   -0.002130418301753
 Root      4 :     2.193631776948504   Change is   -0.001895576387496
 Root      5 :     2.330408866400262   Change is   -0.000000018996129
 Iteration     6 Dimension    64 NMult    56 NNew      8
 CISAX will form     8 AO SS matrices at one time.
 NMat=     8 NSing=     8 JSym2X= 0.
 Root      1 not converged, maximum delta is    0.003510249853698
 Root      2 not converged, maximum delta is    0.003626852386870
 Root      3 not converged, maximum delta is    0.008840176837362
 Root      4 not converged, maximum delta is    0.009528905604160
 Root      5 has converged.
 Excitation Energies [eV] at current iteration:
 Root      1 :     1.668380338377806   Change is   -0.000260474646854
 Root      2 :     1.678251110416709   Change is   -0.001332172787605
 Root      3 :     2.183090926792351   Change is   -0.000302687220389
 Root      4 :     2.193357469413094   Change is   -0.000274307535410
 Root      5 :     2.330408862705453   Change is   -0.000000003694809
 Iteration     7 Dimension    72 NMult    64 NNew      8
 CISAX will form     8 AO SS matrices at one time.
 NMat=     8 NSing=     8 JSym2X= 0.
 Root      1 has converged.
 Root      2 not converged, maximum delta is    0.001012897573578
 Root      3 not converged, maximum delta is    0.001467043546745
 Root      4 not converged, maximum delta is    0.001461860033991
 Root      5 has converged.
 Excitation Energies [eV] at current iteration:
 Root      1 :     1.668353644946462   Change is   -0.000026693431345
[...]
 Alpha virt. eigenvalues --    1.82824   1.82915   1.83033   1.83243   1.83426
 Alpha virt. eigenvalues --    1.83673   1.83775   1.83948   1.84109   1.84342
 Alpha virt. eigenvalues --    1.84575   1.84686   1.84712   1.85011   1.85068
 Alpha virt. eigenvalues --    1.85188   1.85308   1.85409   1.85473   1.85732
 Alpha virt. eigenvalues --    1.85777   1.86123   1.86284   1.86470   1.86574
 Alpha virt. eigenvalues --    1.86692   1.86846   1.86926   1.86972   1.87213
 Alpha virt. eigenvalues --    1.87350   1.87550   1.87716   1.87784   1.87945
 Alpha virt. eigenvalues --    1.87972   1.88181   1.88390   1.88444   1.88708
 Alpha virt. eigenvalues --    1.88852   1.89067   1.89154   1.89420   1.89540
 Alpha virt. eigenvalues --    1.89657   1.89869   1.90012   1.90039   1.90429
 Alpha virt. eigenvalues --    1.90630   1.91134   1.91222   1.91361   1.91560
 Alpha virt. eigenvalues --    1.91974   1.92052   1.92480   1.92493   1.92892
 Alpha virt. eigenvalues --    1.92941   1.93273   1.93371   1.93661   1.94213
 Alpha virt. eigenvalues --    1.94467   1.94611   1.94966   1.95426   1.95603
 Alpha virt. eigenvalues --    1.95717   1.95854   1.96069   1.96094   1.96268
 Alpha virt. eigenvalues --    1.96411   1.96506   1.96697   1.96815   1.97185
 Alpha virt. eigenvalues --    1.97358   1.97720   1.97757   1.98019   1.98048
 Alpha virt. eigenvalues --    1.98431   1.98475   1.98586   1.99019   1.99302
 Alpha virt. eigenvalues --    1.99681   2.00238   2.00577   2.00859   2.00945
 Alpha virt. eigenvalues --    2.01293   2.01315   2.01561   2.01605   2.01653
 Alpha virt. eigenvalues --    2.01836   2.02088   2.02671   2.02912   2.03159
 Alpha virt. eigenvalues --    2.03260   2.03305   2.03330   2.03606   2.03732
 Alpha virt. eigenvalues --    2.03922   2.04237   2.04873   2.05151   2.05422
 Alpha virt. eigenvalues --    2.05791   2.05969   2.06455   2.06715   2.07073
 Alpha virt. eigenvalues --    2.07251   2.07541   2.08511   2.08654   2.08867
 Alpha virt. eigenvalues --    2.09240   2.09451   2.09828   2.10741   2.11068
 Alpha virt. eigenvalues --    2.11160   2.11393   2.11600   2.11624   2.11792
 Alpha virt. eigenvalues --    2.12128   2.12341   2.12708   2.12733   2.12741
 Alpha virt. eigenvalues --    2.13021   2.13123   2.13613   2.14047   2.14077
 Alpha virt. eigenvalues --    2.14377   2.15231   2.15584   2.15796   2.16341
 Alpha virt. eigenvalues --    2.16448   2.16629   2.16837   2.17309   2.17362
 Alpha virt. eigenvalues --    2.17611   2.17765   2.17985   2.18125   2.18162
 Alpha virt. eigenvalues --    2.18298   2.18713   2.18901   2.19505   2.19535
 Alpha virt. eigenvalues --    2.19917   2.20079   2.20101   2.20452   2.20720
 Alpha virt. eigenvalues --    2.21118   2.21287   2.21555   2.21596   2.21968
 Alpha virt. eigenvalues --    2.22051   2.22590   2.22963   2.23229   2.23502
 Alpha virt. eigenvalues --    2.24308   2.24567   2.24933   2.25132   2.26143
 Alpha virt. eigenvalues --    2.26670   2.26684   2.26958   2.27206   2.27425
 Alpha virt. eigenvalues --    2.28026   2.28658   2.29177   2.29603   2.29700
 Alpha virt. eigenvalues --    2.30144   2.30316   2.30888   2.30904   2.31037
 Alpha virt. eigenvalues --    2.31097   2.31401   2.32043   2.32393   2.32998
 Alpha virt. eigenvalues --    2.33347   2.33502   2.33654   2.34067   2.34345
 Alpha virt. eigenvalues --    2.35181   2.35498   2.35677   2.36210   2.36307
 Alpha virt. eigenvalues --    2.36512   2.36528   2.36581   2.37600   2.37830
 Alpha virt. eigenvalues --    2.38182   2.38526   2.38711   2.39113   2.39495
 Alpha virt. eigenvalues --    2.39875   2.40104   2.40352   2.40406   2.41120
 Alpha virt. eigenvalues --    2.41127   2.41494   2.41627   2.41853   2.41862
 Alpha virt. eigenvalues --    2.42334   2.42898   2.42938   2.43244   2.43250
 Alpha virt. eigenvalues --    2.44025   2.44179   2.44618   2.44787   2.45000
 Alpha virt. eigenvalues --    2.45230   2.45445   2.45770   2.46201   2.46354
 Alpha virt. eigenvalues --    2.46480   2.46657   2.46667   2.47006   2.47144
 Alpha virt. eigenvalues --    2.47520   2.47613   2.48044   2.49241   2.49508
 Alpha virt. eigenvalues --    2.50021   2.50035   2.50503   2.50628   2.50971
 Alpha virt. eigenvalues --    2.51503   2.51747   2.51787   2.52287   2.52651
 Alpha virt. eigenvalues --    2.52691   2.53466   2.53826   2.54066   2.54157
 Alpha virt. eigenvalues --    2.54378   2.54683   2.54954   2.55416   2.55827
 Alpha virt. eigenvalues --    2.57765   2.58265   2.58559   2.59128   2.60037
 Alpha virt. eigenvalues --    2.60482   2.60539   2.61234   2.61621   2.62014
 Alpha virt. eigenvalues --    2.62409   2.62642   2.62836   2.63322   2.63823
 Alpha virt. eigenvalues --    2.64204   2.64493   2.64553   2.64980   2.65299
 Alpha virt. eigenvalues --    2.65649   2.66151   2.66711   2.66823   2.66980
 Alpha virt. eigenvalues --    2.67340   2.67818   2.68213   2.68723   2.68881
 Alpha virt. eigenvalues --    2.68987   2.69260   2.69325   2.69838   2.69899
 Alpha virt. eigenvalues --    2.70327   2.70860   2.71327   2.71882   2.72064
 Alpha virt. eigenvalues --    2.72480   2.72612   2.72660   2.72999   2.73214
 Alpha virt. eigenvalues --    2.73254   2.73413   2.73635   2.74385   2.74674
 Alpha virt. eigenvalues --    2.74840   2.75246   2.76504   2.76691   2.77081
 Alpha virt. eigenvalues --    2.77233   2.77341   2.77787   2.78088   2.78426
 Alpha virt. eigenvalues --    2.78562   2.78841   2.79015   2.79370   2.80192
 Alpha virt. eigenvalues --    2.80389   2.80409   2.80878   2.80957   2.81298
 Alpha virt. eigenvalues --    2.81798   2.82170   2.82245   2.82512   2.83569
 Alpha virt. eigenvalues --    2.83672   2.83974   2.84062   2.84441   2.84656
 Alpha virt. eigenvalues --    2.84806   2.84997   2.85574   2.85819   2.86790
 Alpha virt. eigenvalues --    2.86843   2.87349   2.87391   2.88052   2.88357
 Alpha virt. eigenvalues --    2.88404   2.88794   2.88823   2.89007   2.90384
 Alpha virt. eigenvalues --    2.90886   2.91128   2.91258   2.93026   2.93546
 Alpha virt. eigenvalues --    2.93969   2.94109   2.94490   2.94679   2.95221
 Alpha virt. eigenvalues --    2.95784   2.95945   2.96039   2.96362   2.96538
 Alpha virt. eigenvalues --    2.96959   2.97053   2.97627   2.98094   2.98144
 Alpha virt. eigenvalues --    2.98266   2.98470   2.98613   2.98777   2.98788
 Alpha virt. eigenvalues --    2.98989   2.99104   2.99548   2.99816   2.99908
 Alpha virt. eigenvalues --    3.00114   3.00200   3.00317   3.00477   3.01267
 Alpha virt. eigenvalues --    3.01902   3.01933   3.02118   3.02384   3.02502
 Alpha virt. eigenvalues --    3.02835   3.02962   3.03241   3.03584   3.04033
 Alpha virt. eigenvalues --    3.04115   3.04328   3.04370   3.04494   3.04619
 Alpha virt. eigenvalues --    3.04883   3.05247   3.05479   3.06014   3.06302
 Alpha virt. eigenvalues --    3.06667   3.07220   3.08064   3.08086   3.09253
 Alpha virt. eigenvalues --    3.09438   3.09576   3.10328   3.10755   3.11038
 Alpha virt. eigenvalues --    3.11278   3.11552   3.11777   3.11985   3.12180
 Alpha virt. eigenvalues --    3.12600   3.13147   3.13577   3.13792   3.13837
 Alpha virt. eigenvalues --    3.13896   3.14642   3.15913   3.16068   3.17134
 Alpha virt. eigenvalues --    3.17664   3.17957   3.17997   3.19034   3.19149
 Alpha virt. eigenvalues --    3.22018   3.22750   3.23818   3.24480   3.24586
 Alpha virt. eigenvalues --    3.25329   3.26386   3.26815   3.27496   3.27561
 Alpha virt. eigenvalues --    3.28792   3.29368   3.31394   3.31537   3.33310
 Alpha virt. eigenvalues --    3.33351   3.40310   3.40407   3.42716   3.42930
 Alpha virt. eigenvalues --    3.48506   3.48837   3.49915   3.50460   3.51022
 Alpha virt. eigenvalues --    3.51365   3.56442   3.57141   3.59012   3.59474
 Alpha virt. eigenvalues --    3.62655   3.62697   3.66084   3.66179   3.66890
 Alpha virt. eigenvalues --    3.67689   3.72999   3.74154   3.75820   3.76808
          Condensed to atoms (all electrons):
 Mulliken charges:
               1
     1  Mg   0.838977
     2  C   -0.004047
     3  C   -0.093832
     4  C   -0.045620
     5  C   -0.063471
     6  N   -0.256883
     7  C   -0.052611
     8  C   -0.014116
     9  C   -0.087124
    10  C    0.046418
    11  C    0.104702
    12  C    0.053475
    13  C   -0.071303
    14  H    0.033506
    15  N   -0.433243
    16  C    0.168849
    17  C   -0.176649
    18  C   -0.003738
    19  C    0.148954
    20  C    0.109977
    21  C    0.012089
    22  O   -0.249450
    23  C    0.062295
    24  N   -0.341231
    25  C    0.041655
    26  C   -0.028285
    27  C   -0.024075
    28  C    0.074894
    29  C    0.076082
    30  C    0.034977
    31  C   -0.005112
    32  N   -0.310179
    33  C    0.079875
    34  C   -0.170284
    35  C    0.007716
    36  C    0.082343
    37  C    0.127518
    38  C    0.044728
    39  O   -0.189600
    40  C   -0.004962
    41  C    0.213454
    42  O   -0.260802
    43  O   -0.303735
    44  C    0.158395
    45  H   -0.017248
    46  H   -0.016472
    47  H   -0.040787
    48  H    0.000789
    49  H   -0.003721
    50  H    0.025472
    51  H    0.016830
    52  H    0.017012
    53  H    0.012184
    54  H    0.041947
    55  H    0.018471
    56  H    0.018984
    57  H    0.006188
    58  H    0.027113
    59  H    0.040567
    60  H    0.037811
    61  H    0.035549
    62  H    0.031766
    63  H    0.016856
    64  H    0.009724
    65  H    0.023571
    66  H    0.012368
    67  H    0.005158
    68  H    0.007079
    69  H    0.005488
    70  H    0.008212
    71  H    0.021123
    72  H    0.028041
    73  H    0.046387
    74  H    0.010072
    75  H    0.046311
    76  H    0.035663
    77  H    0.043560
    78  H    0.046953
    79  H    0.050656
    80  Mg   0.837252
    81  C   -0.016977
    82  C   -0.086881
    83  C   -0.046594
    84  C   -0.065031
    85  N   -0.255081
    86  C   -0.048799
    87  C   -0.015310
    88  C   -0.090270
    89  C    0.045165
    90  C    0.113514
    91  C    0.062363
    92  C   -0.077518
    93  H    0.032903
    94  N   -0.423571
    95  C    0.162668
    96  C   -0.173985
    97  C   -0.008946
    98  C    0.152624
    99  C    0.099466
   100  C    0.014868
   101  O   -0.254483
   102  C    0.061481
   103  N   -0.350183
   104  C    0.037561
   105  C   -0.019604
   106  C   -0.035067
   107  C    0.088793
   108  C    0.073765
   109  C    0.034939
   110  C   -0.007530
   111  N   -0.323978
   112  C    0.078224
   113  C   -0.163622
   114  C    0.001852
   115  C    0.096132
   116  C    0.131613
   117  C    0.041478
   118  O   -0.189164
   119  C    0.001421
   120  C    0.211276
   121  O   -0.251352
   122  O   -0.305356
   123  C    0.152251
   124  H   -0.014897
   125  H   -0.017107
   126  H   -0.040899
   127  H   -0.000047
   128  H   -0.004447
   129  H    0.020250
   130  H    0.017059
   131  H    0.028600
   132  H    0.013219
   133  H    0.036438
   134  H    0.022399
   135  H    0.019863
   136  H    0.010514
   137  H    0.025090
   138  H    0.038890
   139  H    0.037604
   140  H    0.035309
   141  H    0.034093
   142  H    0.013770
   143  H    0.013151
   144  H    0.023308
   145  H    0.010484
   146  H    0.005959
   147  H    0.005413
   148  H    0.003736
   149  H    0.010393
   150  H    0.017508
   151  H    0.030530
   152  H    0.045365
   153  H    0.008365
   154  H    0.046090
   155  H    0.035005
   156  H    0.043212
   157  H    0.050228
   158  H    0.053038
 Sum of Mulliken charges =  -0.00000
 Mulliken charges with hydrogens summed into heavy atoms:
               1
     1  Mg   0.838977
     2  C   -0.004047
     3  C   -0.111080
     4  C   -0.062092
     5  C   -0.104258
     6  N   -0.256883
     7  C   -0.052611
     8  C   -0.013327
     9  C   -0.090845
    10  C    0.046418
    11  C    0.164016
    12  C    0.107606
    13  C   -0.000343
    15  N   -0.433243
    16  C    0.168849
    17  C   -0.176649
    18  C   -0.003738
    19  C    0.148954
    20  C    0.183846
    21  C    0.012089
    22  O   -0.249450
    23  C    0.167421
    24  N   -0.341231
    25  C    0.041655
    26  C   -0.011429
    27  C   -0.014351
    28  C    0.074894
    29  C    0.117180
    30  C    0.047545
    31  C    0.052264
    32  N   -0.310179
    33  C    0.079875
    34  C   -0.170284
    35  C    0.007716
    36  C    0.082343
    37  C    0.230288
    38  C    0.044728
    39  O   -0.189600
    40  C    0.030701
    41  C    0.213454
    42  O   -0.260802
    43  O   -0.303735
    44  C    0.299564
    80  Mg   0.837252
    81  C   -0.016977
    82  C   -0.101778
    83  C   -0.063702
    84  C   -0.105930
    85  N   -0.255081
    86  C   -0.048799
    87  C   -0.015356
    88  C   -0.094717
    89  C    0.045165
    90  C    0.179423
    91  C    0.112019
    92  C   -0.002352
    94  N   -0.423571
    95  C    0.162668
    96  C   -0.173985
    97  C   -0.008946
    98  C    0.152624
    99  C    0.173961
   100  C    0.014868
   101  O   -0.254483
   102  C    0.168487
   103  N   -0.350183
   104  C    0.037561
   105  C   -0.005834
   106  C   -0.021916
   107  C    0.088793
   108  C    0.113516
   109  C    0.044088
   110  C    0.050902
   111  N   -0.323978
   112  C    0.078224
   113  C   -0.163622
   114  C    0.001852
   115  C    0.096132
   116  C    0.231433
   117  C    0.041478
   118  O   -0.189164
   119  C    0.036426
   120  C    0.211276
   121  O   -0.251352
   122  O   -0.305356
   123  C    0.298729
 Electronic spatial extent (au):  <R**2>=          97858.5667
 Charge=             -0.0000 electrons
 Dipole moment (field-independent basis, Debye):
    X=             -5.5750    Y=              1.2766    Z=              4.8088  Tot=              7.4723
 Quadrupole moment (field-independent basis, Debye-Ang):
   XX=           -518.7296   YY=           -508.7239   ZZ=           -492.0902
   XY=            -18.9022   XZ=              0.7220   YZ=            -11.7466
 Traceless Quadrupole moment (field-independent basis, Debye-Ang):
   XX=            -12.2151   YY=             -2.2093   ZZ=             14.4244
   XY=            -18.9022   XZ=              0.7220   YZ=            -11.7466
 Octapole moment (field-independent basis, Debye-Ang**2):
  XXX=           -415.5731  YYY=             45.6786  ZZZ=            113.4410  XYY=            239.9852
  XXY=             82.7564  XXZ=            239.3617  XZZ=           -227.3639  YZZ=           -229.4379
  YYZ=             27.9188  XYZ=           -153.4359
 Hexadecapole moment (field-independent basis, Debye-Ang**3):
 XXXX=         -68094.0049 YYYY=         -34988.5659 ZZZZ=         -30379.4508 XXXY=           -403.0414
 XXXZ=           -171.2258 YYYX=          -1411.9020 YYYZ=            449.9553 ZZZX=            633.6093
 ZZZY=          -1104.4563 XXYY=         -16195.1771 XXZZ=         -16407.2625 YYZZ=         -11158.5923
 XXYZ=             -5.0328 YYXZ=          -1349.1443 ZZXY=             80.9914
 N-N= 1.548880253294D+04 E-N=-4.045872366148D+04  KE= 4.028801273198D+03
 Leave Link  601 at Thu Aug 19 23:22:40 2021, MaxMem= 23488102400 cpu:              15.3 elap:               0.8
 (Enter /sw/apps/gaussian-16.0/g16/l9999.exe)
 1\1\GINC-BP1-COMPUTE00108\SP\RCAM-B3LYP TD-FC\def2SVP\C68H72Mg2N8O8\OF
 15641\19-Aug-2021\0\\#p cam-b3lyp/Def2SVP td=(nstates=5)\\TDDFT excite
 d states in gaussian\\0,1\Mg,0,0.,0.,0.\C,0,-0.217,-2.218,2.801\C,0,-1
 .255,2.442,2.026\C,0,-0.245,1.85,-2.564\C,0,0.146,-2.824,-2.037\N,0,-0
 .617,-0.009,2.126\C,0,-0.594,-0.908,3.105\C,0,-0.936,-0.309,4.502\C,0,
 -1.773,0.964,4.032\C,0,-1.155,1.168,2.66\C,0,-3.263,0.685,3.863\C,0,0.
 345,0.11,5.299\C,0,0.124,0.397,6.787\H,0,1.168,0.033,7.733\N,0,-0.185,
 1.961,-0.152\C,0,-0.703,2.8,0.777\C,0,-0.62,4.156,0.193\C,0,-0.187,4.0
 15,-1.225\C,0,-0.214,2.583,-1.38\C,0,-0.887,5.406,0.974\C,0,0.181,5.01
 3,-2.277\O,0,0.303,4.69,-3.508\C,0,0.31,6.414,-1.837\N,0,-0.265,-0.413
 ,-2.029\C,0,-0.279,0.569,-2.937\C,0,-0.196,0.024,-4.332\C,0,0.124,-1.5
 33,-4.18\C,0,0.086,-1.632,-2.635\C,0,-1.451,0.205,-5.197\C,0,1.373,-2.
 07,-4.923\C,0,2.626,-1.49,-4.306\N,0,0.15,-2.144,0.303\C,0,0.173,-3.13
 6,-0.688\C,0,0.173,-4.438,0.004\C,0,0.133,-4.111,1.358\C,0,0.083,-2.69
 5,1.502\C,0,0.149,-5.715,-0.623\C,0,0.096,-4.629,2.716\O,0,0.208,-5.74
 7,3.221\C,0,-0.255,-3.428,3.701\C,0,0.717,-3.482,4.848\O,0,1.931,-3.25
 5,4.669\O,0,0.038,-3.556,6.003\C,0,0.943,-3.583,7.183\H,0,-1.859,3.22,
 2.497\H,0,-0.218,2.453,-3.474\H,0,0.276,-3.747,-2.605\H,0,-1.554,-0.94
 9,5.132\H,0,-1.585,1.831,4.665\H,0,-3.484,-0.377,3.969\H,0,-3.511,1.02
 7,2.858\H,0,-3.852,1.301,4.543\H,0,0.669,1.096,4.966\H,0,1.13,-0.639,5
 .189\H,0,-0.844,0.026,7.125\H,0,0.062,1.477,6.921\H,0,-1.344,5.186,1.9
 38\H,0,-1.651,5.963,0.432\H,0,0.007,6.02,1.084\H,0,-0.635,6.744,-1.405
 \H,0,0.665,6.97,-2.704\H,0,1.048,6.466,-1.036\H,0,0.608,0.501,-4.891\H
 ,0,-0.692,-2.156,-4.547\H,0,-1.267,0.74,-6.129\H,0,-2.204,0.714,-4.596
 \H,0,-1.967,-0.72,-5.453\H,0,1.356,-1.759,-5.967\H,0,1.452,-3.157,-4.9
 02\H,0,2.714,-0.522,-4.798\H,0,3.487,-2.121,-4.529\H,0,2.495,-1.303,-3
 .24\H,0,0.867,-6.333,-0.084\H,0,0.404,-5.642,-1.68\H,0,-0.891,-5.999,-
 0.463\H,0,-1.283,-3.581,4.028\H,0,0.698,-4.478,7.755\H,0,0.833,-2.619,
 7.68\H,0,2.,-3.754,6.976\Mg,0,8.94152,0.7994,0.68458\C,0,9.14645,-2.36
 542,-0.99499\C,0,8.00023,-0.91376,3.47987\C,0,8.31678,3.58828,2.06271\
 C,0,8.77604,2.29901,-2.457\N,0,8.64771,-1.35899,1.06835\C,0,8.8149,-2.
 47304,0.37173\C,0,8.69423,-3.77702,1.20519\C,0,7.78735,-3.21284,2.4044
 1\C,0,8.19068,-1.74098,2.3443\C,0,6.29612,-3.31108,2.12882\C,0,10.0846
 8,-4.28426,1.72612\C,0,10.08209,-5.71016,2.2816\H,0,11.26241,-6.54283,
 2.06714\N,0,8.73748,1.26708,2.60244\C,0,8.37008,0.44329,3.60627\C,0,8.
 34876,1.27342,4.8206\C,0,8.57333,2.69018,4.42429\C,0,8.52956,2.57021,2
 .98075\C,0,8.20975,0.69547,6.19903\C,0,8.77901,3.94728,5.21397\O,0,8.7
 1738,5.10434,4.66604\C,0,8.96191,3.78804,6.66404\N,0,8.38383,2.65321,-
 0.07352\C,0,8.22697,3.71339,0.73847\C,0,8.09709,4.99257,-0.0535\C,0,8.
 44303,4.59933,-1.56456\C,0,8.63439,3.07648,-1.39227\C,0,6.72724,5.6689
 6,-0.00479\C,0,9.5679,5.41128,-2.26318\C,0,10.89973,5.11279,-1.61317\N
 ,0,9.14065,0.14358,-1.3644\C,0,9.00948,0.93163,-2.52881\C,0,9.11487,0.
 01941,-3.68604\C,0,9.2783,-1.24928,-3.10966\C,0,9.25477,-1.13837,-1.69
 31\C,0,9.00857,0.39606,-5.0546\C,0,9.45473,-2.65849,-3.37745\O,0,9.634
 72,-3.33452,-4.38953\C,0,9.2505,-3.46022,-2.02028\C,0,10.3828,-4.44115
 ,-1.88538\O,0,11.5512,-4.0414,-1.73823\O,0,9.87772,-5.67909,-1.7345\C,
 0,10.96215,-6.6859,-1.58566\H,0,7.48017,-1.32957,4.34331\H,0,8.20656,4
 .58939,2.48594\H,0,8.83246,2.70175,-3.47055\H,0,8.18383,-4.59079,0.704
 15\H,0,8.07651,-3.64883,3.35712\H,0,6.09357,-3.63655,1.11928\H,0,5.900
 64,-2.31717,2.29244\H,0,5.81659,-3.95264,2.87366\H,0,10.35082,-3.72911
 ,2.63481\H,0,10.83309,-4.19515,0.96286\H,0,9.17129,-6.25706,2.00904\H,
 0,10.0468,-5.65755,3.37247\H,0,7.896,-0.35516,6.16494\H,0,7.3729,1.213
 37,6.68\H,0,9.1069,0.83376,6.8062\H,0,8.09434,3.28494,7.08436\H,0,9.18
 331,4.78797,7.0422\H,0,9.82157,3.13134,6.8382\H,0,8.80935,5.7333,0.288
 72\H,0,7.57698,4.73403,-2.22912\H,0,6.7688,6.71335,0.35799\H,0,6.07515
 ,5.07459,0.62134\H,0,6.18704,5.68661,-0.94982\H,0,9.39483,6.48301,-2.1
 3827\H,0,9.6416,5.21897,-3.32835\H,0,10.90617,5.78,-0.74605\H,0,11.717
 75,5.34154,-2.29328\H,0,10.93237,4.08354,-1.23737\H,0,9.7921,-0.12964,
 -5.58396\H,0,9.09759,1.47332,-5.17855\H,0,7.99943,0.03925,-5.27728\H,0
 ,8.28185,-3.95834,-2.07663\H,0,10.80338,-7.44326,-2.35953\H,0,10.91413
 ,-7.02334,-0.53324\H,0,11.97469,-6.36813,-1.8053\\Version=ES64L-G16Rev
 A.03\State=1-A\HF=-4069.8129367\RMSD=6.424e-09\PG=C01 [X(C68H72Mg2N8O8
 )]\\@


 JUST WHEN YOU THINK YOU'VE GOT THE WORLD ON A STRING,
 YOU FIND OUT IT'S YOUR LEASH.
 Job cpu time:       0 days 15 hours 14 minutes 15.1 seconds.
 Elapsed time:       0 days  0 hours 38 minutes 46.2 seconds.
 File lengths (MBytes):  RWF=  13225 Int=      0 D2E=      0 Chk=    574 Scr=      1
 Normal termination of Gaussian 16 at Thu Aug 19 23:22:41 2021.
