 Entering Gaussian System, Link 0=g16
 Initial command:
 /sw/apps/gaussian-16.0/g16/l1.exe "/tmp/Gau-136711.inp" -scrdir="/tmp/"
 Entering Link 1 = /sw/apps/gaussian-16.0/g16/l1.exe PID=    136712.
  
 Copyright (c) 1988,1990,1992,1993,1995,1998,2003,2009,2016,
            Gaussian, Inc.  All Rights Reserved.
  
 This is part of the Gaussian(R) 16 program.  It is based on
 the Gaussian(R) 09 system (copyright 2009, Gaussian, Inc.),
 the Gaussian(R) 03 system (copyright 2003, Gaussian, Inc.),
 the Gaussian(R) 98 system (copyright 1998, Gaussian, Inc.),
 the Gaussian(R) 94 system (copyright 1995, Gaussian, Inc.),
 the Gaussian 92(TM) system (copyright 1992, Gaussian, Inc.),
 the Gaussian 90(TM) system (copyright 1990, Gaussian, Inc.),
 the Gaussian 88(TM) system (copyright 1988, Gaussian, Inc.),
 the Gaussian 86(TM) system (copyright 1986, Carnegie Mellon
 University), and the Gaussian 82(TM) system (copyright 1983,
 Carnegie Mellon University). Gaussian is a federally registered
 trademark of Gaussian, Inc.
  
 This software contains proprietary and confidential information,
 including trade secrets, belonging to Gaussian, Inc.
  
 This software is provided under written license and may be
 used, copied, transmitted, or stored only in accord with that
 written license.
  
 The following legend is applicable only to US Government
 contracts under FAR:
  
                    RESTRICTED RIGHTS LEGEND
  
 Use, reproduction and disclosure by the US Government is
 subject to restrictions as set forth in subparagraphs (a)
 and (c) of the Commercial Computer Software - Restricted
 Rights clause in FAR 52.227-19.
  
 Gaussian, Inc.
 340 Quinnipiac St., Bldg. 40, Wallingford CT 06492
  
  
 ---------------------------------------------------------------
 Warning -- This program may not be used in any manner that
 competes with the business of Gaussian, Inc. or will provide
 assistance to any competitor of Gaussian, Inc.  The licensee
 of this program is prohibited from giving any competitor of
 Gaussian, Inc. access to this program.  By using this program,
 the user acknowledges that Gaussian, Inc. is engaged in the
 business of creating and licensing software in the field of
 computational chemistry and represents and warrants to the
 licensee that it is not a competitor of Gaussian, Inc. and that
 it will not use this program in any manner prohibited above.
 ---------------------------------------------------------------
  

 Cite this work as:
 Gaussian 16, Revision A.03,
 M. J. Frisch, G. W. Trucks, H. B. Schlegel, G. E. Scuseria, 
 M. A. Robb, J. R. Cheeseman, G. Scalmani, V. Barone, 
 G. A. Petersson, H. Nakatsuji, X. Li, M. Caricato, A. V. Marenich, 
 J. Bloino, B. G. Janesko, R. Gomperts, B. Mennucci, H. P. Hratchian, 
 J. V. Ortiz, A. F. Izmaylov, J. L. Sonnenberg, D. Williams-Young, 
 F. Ding, F. Lipparini, F. Egidi, J. Goings, B. Peng, A. Petrone, 
 T. Henderson, D. Ranasinghe, V. G. Zakrzewski, J. Gao, N. Rega, 
 G. Zheng, W. Liang, M. Hada, M. Ehara, K. Toyota, R. Fukuda, 
 J. Hasegawa, M. Ishida, T. Nakajima, Y. Honda, O. Kitao, H. Nakai, 
 T. Vreven, K. Throssell, J. A. Montgomery, Jr., J. E. Peralta, 
 F. Ogliaro, M. J. Bearpark, J. J. Heyd, E. N. Brothers, K. N. Kudin, 
 V. N. Staroverov, T. A. Keith, R. Kobayashi, J. Normand, 
 K. Raghavachari, A. P. Rendell, J. C. Burant, S. S. Iyengar, 
 J. Tomasi, M. Cossi, J. M. Millam, M. Klene, C. Adamo, R. Cammi, 
 J. W. Ochterski, R. L. Martin, K. Morokuma, O. Farkas, 
 J. B. Foresman, and D. J. Fox, Gaussian, Inc., Wallingford CT, 2016.
 
 ******************************************
 Gaussian 16:  ES64L-G16RevA.03 25-Dec-2016
                19-Aug-2021 
 ******************************************
 %nproc=24
 Will use up to   24 processors via shared memory.
 %mem=175gb
 -----------------------------------
 #p cam-b3lyp/Def2SVP td=(nstates=5)
 -----------------------------------
 1/38=1,172=1/1;
 2/12=2,17=6,18=5,40=1/2;
 3/5=43,7=101,11=9,25=1,30=1,74=-40/1,2,3,8;
 4//1;
 5/5=2,38=5/2;
 8/6=1,10=1,108=5/1;
 9/41=5,42=1,70=2/14;
 6/7=2,8=2,9=2,10=2/1;
 99/5=1,9=1/99;
 Leave Link    1 at Thu Aug 19 20:49:25 2021, MaxMem= 23488102400 cpu:               0.6 elap:               0.0
 (Enter /sw/apps/gaussian-16.0/g16/l101.exe)
 --------------------------------
 TDDFT excited states in gaussian
 --------------------------------
 Symbolic Z-matrix:
 Charge =  0 Multiplicity = 1
 Mg                    0.        0.        0. 
 C                    -0.217    -2.218     2.801 
 C                    -1.255     2.442     2.026 
 C                    -0.245     1.85     -2.564 
 C                     0.146    -2.824    -2.037 
 N                    -0.617    -0.009     2.126 
 C                    -0.594    -0.908     3.105 
 C                    -0.936    -0.309     4.502 
 C                    -1.773     0.964     4.032 
 C                    -1.155     1.168     2.66 
 C                    -3.263     0.685     3.863 
 C                     0.345     0.11      5.299 
 C                     0.124     0.397     6.787 
 H                     1.168     0.033     7.733 
 N                    -0.185     1.961    -0.152 
 C                    -0.703     2.8       0.777 
 C                    -0.62      4.156     0.193 
 C                    -0.187     4.015    -1.225 
 C                    -0.214     2.583    -1.38 
 C                    -0.887     5.406     0.974 
 C                     0.181     5.013    -2.277 
 O                     0.303     4.69     -3.508 
 C                     0.31      6.414    -1.837 
 N                    -0.265    -0.413    -2.029 
 C                    -0.279     0.569    -2.937 
 C                    -0.196     0.024    -4.332 
 C                     0.124    -1.533    -4.18 
 C                     0.086    -1.632    -2.635 
 C                    -1.451     0.205    -5.197 
 C                     1.373    -2.07     -4.923 
 C                     2.626    -1.49     -4.306 
 N                     0.15     -2.144     0.303 
 C                     0.173    -3.136    -0.688 
 C                     0.173    -4.438     0.004 
 C                     0.133    -4.111     1.358 
 C                     0.083    -2.695     1.502 
 C                     0.149    -5.715    -0.623 
 C                     0.096    -4.629     2.716 
 O                     0.208    -5.747     3.221 
 C                    -0.255    -3.428     3.701 
 C                     0.717    -3.482     4.848 
 O                     1.931    -3.255     4.669 
 O                     0.038    -3.556     6.003 
 C                     0.943    -3.583     7.183 
 H                    -1.859     3.22      2.497 
 H                    -0.218     2.453    -3.474 
 H                     0.276    -3.747    -2.605 
 H                    -1.554    -0.949     5.132 
 H                    -1.585     1.831     4.665 
 H                    -3.484    -0.377     3.969 
 H                    -3.511     1.027     2.858 
 H                    -3.852     1.301     4.543 
 H                     0.669     1.096     4.966 
 H                     1.13     -0.639     5.189 
 H                    -0.844     0.026     7.125 
 H                     0.062     1.477     6.921 
 H                    -1.344     5.186     1.938 
 H                    -1.651     5.963     0.432 
 H                     0.007     6.02      1.084 
 H                    -0.635     6.744    -1.405 
 H                     0.665     6.97     -2.704 
 H                     1.048     6.466    -1.036 
 H                     0.608     0.501    -4.891 
 H                    -0.692    -2.156    -4.547 
 H                    -1.267     0.74     -6.129 
 H                    -2.204     0.714    -4.596 
 H                    -1.967    -0.72     -5.453 
 H                     1.356    -1.759    -5.967 
 H                     1.452    -3.157    -4.902 
 H                     2.714    -0.522    -4.798 
 H                     3.487    -2.121    -4.529 
 H                     2.495    -1.303    -3.24 
 H                     0.867    -6.333    -0.084 
 H                     0.404    -5.642    -1.68 
 H                    -0.891    -5.999    -0.463 
 H                    -1.283    -3.581     4.028 
 H                     0.698    -4.478     7.755 
 H                     0.833    -2.619     7.68 
 H                     2.       -3.754     6.976 
 Mg                    8.94068   0.81264   0.67991 
 C                     8.40072   1.58235   4.1433 
 C                     7.829     3.95645  -0.0379 
 C                     8.97667   0.01678  -2.39137 
 C                     8.90757  -2.55745   1.5671 
 N                     8.23496   2.46344   1.97183 
 C                     8.13183   2.66265   3.27722 
 C                     7.79496   4.12333   3.68031 
 C                     7.09134   4.59326   2.3154 
 C                     7.78235   3.63935   1.34318 
 C                     5.59831   4.31227   2.28026 
 C                     9.07985   4.97065   3.98548 
 C                     8.81784   6.30844   4.68077 
 H                     9.78949   6.78549   5.66096 
 N                     8.94485   1.9551   -0.94285 
 C                     8.47439   3.21526  -1.05203 
 C                     8.69137   3.60569  -2.45369 
 C                     9.17746   2.41496  -3.20243 
 C                     9.02877   1.38843  -2.19039 
 C                     8.5154    5.014    -2.94268 
 C                     9.67943   2.22839  -4.60222 
 O                     9.82428   1.06306  -5.11589 
 C                     9.90752   3.45156  -5.38538 
 N                     8.73096  -1.00443  -0.30832 
 C                     8.83969  -1.08027  -1.64636 
 C                     8.92898  -2.51598  -2.10588 
 C                     9.10162  -3.38356  -0.77356 
 C                     8.98777  -2.258     0.27789 
 C                     7.73085  -3.03606  -2.89986 
 C                     10.32721  -4.33554  -0.70751 
 C                     11.60467  -3.52912  -0.65123 
 N                     8.88595  -0.30941   2.52546 
 C                     8.85278  -1.7138    2.66921 
 C                     8.70444  -2.0005    4.11082 
 C                     8.63792  -0.73273   4.70817 
 C                     8.71747   0.27301   3.70735 
 C                     8.60016  -3.29419   4.69528 
 C                     8.50783  -0.01666   5.95677 
 O                     8.48876  -0.33763   7.14435 
 C                     8.22128   1.51318   5.63448 
 C                     9.13547   2.34716   6.48961 
 O                     10.36724   2.30783   6.32287 
 O                     8.39785   3.21097   7.21081 
 C                     9.26077   4.06787   8.0669 
 H                     7.28462   4.83418  -0.38737 
 H                     9.097    -0.31309  -3.42586 
 H                     8.98767  -3.58283   1.93432 
 H                     7.10188   4.21792   4.50763 
 H                     7.33878   5.62472   2.07825 
 H                     5.277     3.73389   3.13371 
 H                     5.42373   3.76361   1.36399 
 H                     5.0408    5.24815   2.18202 
 H                     9.50446   5.33055   3.03948 
 H                     9.78643   4.39939   4.5556 
 H                     7.80074   6.36982   5.08659 
 H                     8.85561   7.10245   3.93101 
 H                     7.99255   5.63393  -2.20395 
 H                     7.83027   4.97281  -3.79636 
 H                     9.45469   5.46844  -3.26497 
 H                     8.9807    4.01651  -5.45087 
 H                     10.34918   3.11794  -6.32639 
 H                     10.6236   4.0829   -4.84755 
 H                     9.79549  -2.66653  -2.73802 
 H                     8.24516  -4.05408  -0.61012 
 H                     8.00496  -3.4261   -3.89826 
 H                     7.00763  -2.2364   -2.98943 
 H                     7.15317  -3.81581  -2.40643 
 H                     10.3837  -4.9436   -1.61372 
 H                     10.29992  -5.01687   0.13631 
 H                     11.79596  -3.29613  -1.703 
 H                     12.41245  -4.12038  -0.22469 
 H                     11.44785  -2.57953  -0.1265 
 H                     9.22885  -3.28965   5.57575 
 H                     8.89988  -4.07181   3.99582 
 H                     7.52853  -3.32562   4.90953 
 H                     7.16979   1.70276   5.8536 
 H                     8.90747   3.95006   9.09597 
 H                     9.20439   5.08171   7.62792 
 H                     10.3028   3.78772   8.16767 
 
 ITRead=  0  0  0  0  0  0  0  0  0  0  0  0  0  0  0  0  0  0  0  0
 ITRead=  0  0  0  0  0  0  0  0  0  0  0  0  0  0  0  0  0  0  0  0
 ITRead=  0  0  0  0  0  0  0  0  0  0  0  0  0  0  0  0  0  0  0  0
 ITRead=  0  0  0  0  0  0  0  0  0  0  0  0  0  0  0  0  0  0  0  0
 ITRead=  0  0  0  0  0  0  0  0  0  0  0  0  0  0  0  0  0  0  0  0
 ITRead=  0  0  0  0  0  0  0  0  0  0  0  0  0  0  0  0  0  0  0  0
 ITRead=  0  0  0  0  0  0  0  0  0  0  0  0  0  0  0  0  0  0  0  0
 ITRead=  0  0  0  0  0  0  0  0  0  0  0  0  0  0  0  0  0  0
 MicOpt= -1 -1 -1 -1 -1 -1 -1 -1 -1 -1 -1 -1 -1 -1 -1 -1 -1 -1 -1 -1
 MicOpt= -1 -1 -1 -1 -1 -1 -1 -1 -1 -1 -1 -1 -1 -1 -1 -1 -1 -1 -1 -1
 MicOpt= -1 -1 -1 -1 -1 -1 -1 -1 -1 -1 -1 -1 -1 -1 -1 -1 -1 -1 -1 -1
 MicOpt= -1 -1 -1 -1 -1 -1 -1 -1 -1 -1 -1 -1 -1 -1 -1 -1 -1 -1 -1 -1
 MicOpt= -1 -1 -1 -1 -1 -1 -1 -1 -1 -1 -1 -1 -1 -1 -1 -1 -1 -1 -1 -1
 MicOpt= -1 -1 -1 -1 -1 -1 -1 -1 -1 -1 -1 -1 -1 -1 -1 -1 -1 -1 -1 -1
 MicOpt= -1 -1 -1 -1 -1 -1 -1 -1 -1 -1 -1 -1 -1 -1 -1 -1 -1 -1 -1 -1
 MicOpt= -1 -1 -1 -1 -1 -1 -1 -1 -1 -1 -1 -1 -1 -1 -1 -1 -1 -1
 NAtoms=    158 NQM=      158 NQMF=       0 NMMI=      0 NMMIF=      0
                NMic=       0 NMicF=      0.
                    Isotopes and Nuclear Properties:
 (Nuclear quadrupole moments (NQMom) in fm**2, nuclear magnetic moments (NMagM)
  in nuclear magnetons)

  Atom         1           2           3           4           5           6           7           8           9          10
 IAtWgt=          24          12          12          12          12          14          12          12          12          12
 AtmWgt=  23.9850450  12.0000000  12.0000000  12.0000000  12.0000000  14.0030740  12.0000000  12.0000000  12.0000000  12.0000000
 NucSpn=           0           0           0           0           0           2           0           0           0           0
 AtZEff=  -0.0000000  -0.0000000  -0.0000000  -0.0000000  -0.0000000  -0.0000000  -0.0000000  -0.0000000  -0.0000000  -0.0000000
 NQMom=    0.0000000   0.0000000   0.0000000   0.0000000   0.0000000   2.0440000   0.0000000   0.0000000   0.0000000   0.0000000
 NMagM=    0.0000000   0.0000000   0.0000000   0.0000000   0.0000000   0.4037610   0.0000000   0.0000000   0.0000000   0.0000000
 AtZNuc=  12.0000000   6.0000000   6.0000000   6.0000000   6.0000000   7.0000000   6.0000000   6.0000000   6.0000000   6.0000000

  Atom        11          12          13          14          15          16          17          18          19          20
 IAtWgt=          12          12          12           1          14          12          12          12          12          12
 AtmWgt=  12.0000000  12.0000000  12.0000000   1.0078250  14.0030740  12.0000000  12.0000000  12.0000000  12.0000000  12.0000000
 NucSpn=           0           0           0           1           2           0           0           0           0           0
 AtZEff=  -0.0000000  -0.0000000  -0.0000000  -0.0000000  -0.0000000  -0.0000000  -0.0000000  -0.0000000  -0.0000000  -0.0000000
 NQMom=    0.0000000   0.0000000   0.0000000   0.0000000   2.0440000   0.0000000   0.0000000   0.0000000   0.0000000   0.0000000
 NMagM=    0.0000000   0.0000000   0.0000000   2.7928460   0.4037610   0.0000000   0.0000000   0.0000000   0.0000000   0.0000000
 AtZNuc=   6.0000000   6.0000000   6.0000000   1.0000000   7.0000000   6.0000000   6.0000000   6.0000000   6.0000000   6.0000000

  Atom        21          22          23          24          25          26          27          28          29          30
 IAtWgt=          12          16          12          14          12          12          12          12          12          12
 AtmWgt=  12.0000000  15.9949146  12.0000000  14.0030740  12.0000000  12.0000000  12.0000000  12.0000000  12.0000000  12.0000000
 NucSpn=           0           0           0           2           0           0           0           0           0           0
 AtZEff=  -0.0000000  -0.0000000  -0.0000000  -0.0000000  -0.0000000  -0.0000000  -0.0000000  -0.0000000  -0.0000000  -0.0000000
 NQMom=    0.0000000   0.0000000   0.0000000   2.0440000   0.0000000   0.0000000   0.0000000   0.0000000   0.0000000   0.0000000
 NMagM=    0.0000000   0.0000000   0.0000000   0.4037610   0.0000000   0.0000000   0.0000000   0.0000000   0.0000000   0.0000000
 AtZNuc=   6.0000000   8.0000000   6.0000000   7.0000000   6.0000000   6.0000000   6.0000000   6.0000000   6.0000000   6.0000000

  Atom        31          32          33          34          35          36          37          38          39          40
 IAtWgt=          12          14          12          12          12          12          12          12          16          12
 AtmWgt=  12.0000000  14.0030740  12.0000000  12.0000000  12.0000000  12.0000000  12.0000000  12.0000000  15.9949146  12.0000000
 NucSpn=           0           2           0           0           0           0           0           0           0           0
 AtZEff=  -0.0000000  -0.0000000  -0.0000000  -0.0000000  -0.0000000  -0.0000000  -0.0000000  -0.0000000  -0.0000000  -0.0000000
 NQMom=    0.0000000   2.0440000   0.0000000   0.0000000   0.0000000   0.0000000   0.0000000   0.0000000   0.0000000   0.0000000
 NMagM=    0.0000000   0.4037610   0.0000000   0.0000000   0.0000000   0.0000000   0.0000000   0.0000000   0.0000000   0.0000000
 AtZNuc=   6.0000000   7.0000000   6.0000000   6.0000000   6.0000000   6.0000000   6.0000000   6.0000000   8.0000000   6.0000000

  Atom        41          42          43          44          45          46          47          48          49          50
 IAtWgt=          12          16          16          12           1           1           1           1           1           1
 AtmWgt=  12.0000000  15.9949146  15.9949146  12.0000000   1.0078250   1.0078250   1.0078250   1.0078250   1.0078250   1.0078250
 NucSpn=           0           0           0           0           1           1           1           1           1           1
 AtZEff=  -0.0000000  -0.0000000  -0.0000000  -0.0000000  -0.0000000  -0.0000000  -0.0000000  -0.0000000  -0.0000000  -0.0000000
 NQMom=    0.0000000   0.0000000   0.0000000   0.0000000   0.0000000   0.0000000   0.0000000   0.0000000   0.0000000   0.0000000
 NMagM=    0.0000000   0.0000000   0.0000000   0.0000000   2.7928460   2.7928460   2.7928460   2.7928460   2.7928460   2.7928460
 AtZNuc=   6.0000000   8.0000000   8.0000000   6.0000000   1.0000000   1.0000000   1.0000000   1.0000000   1.0000000   1.0000000

  Atom        51          52          53          54          55          56          57          58          59          60
 IAtWgt=           1           1           1           1           1           1           1           1           1           1
 AtmWgt=   1.0078250   1.0078250   1.0078250   1.0078250   1.0078250   1.0078250   1.0078250   1.0078250   1.0078250   1.0078250
 NucSpn=           1           1           1           1           1           1           1           1           1           1
 AtZEff=  -0.0000000  -0.0000000  -0.0000000  -0.0000000  -0.0000000  -0.0000000  -0.0000000  -0.0000000  -0.0000000  -0.0000000
 NQMom=    0.0000000   0.0000000   0.0000000   0.0000000   0.0000000   0.0000000   0.0000000   0.0000000   0.0000000   0.0000000
 NMagM=    2.7928460   2.7928460   2.7928460   2.7928460   2.7928460   2.7928460   2.7928460   2.7928460   2.7928460   2.7928460
 AtZNuc=   1.0000000   1.0000000   1.0000000   1.0000000   1.0000000   1.0000000   1.0000000   1.0000000   1.0000000   1.0000000

  Atom        61          62          63          64          65          66          67          68          69          70
 IAtWgt=           1           1           1           1           1           1           1           1           1           1
 AtmWgt=   1.0078250   1.0078250   1.0078250   1.0078250   1.0078250   1.0078250   1.0078250   1.0078250   1.0078250   1.0078250
 NucSpn=           1           1           1           1           1           1           1           1           1           1
 AtZEff=  -0.0000000  -0.0000000  -0.0000000  -0.0000000  -0.0000000  -0.0000000  -0.0000000  -0.0000000  -0.0000000  -0.0000000
 NQMom=    0.0000000   0.0000000   0.0000000   0.0000000   0.0000000   0.0000000   0.0000000   0.0000000   0.0000000   0.0000000
 NMagM=    2.7928460   2.7928460   2.7928460   2.7928460   2.7928460   2.7928460   2.7928460   2.7928460   2.7928460   2.7928460
 AtZNuc=   1.0000000   1.0000000   1.0000000   1.0000000   1.0000000   1.0000000   1.0000000   1.0000000   1.0000000   1.0000000

  Atom        71          72          73          74          75          76          77          78          79          80
 IAtWgt=           1           1           1           1           1           1           1           1           1          24
 AtmWgt=   1.0078250   1.0078250   1.0078250   1.0078250   1.0078250   1.0078250   1.0078250   1.0078250   1.0078250  23.9850450
 NucSpn=           1           1           1           1           1           1           1           1           1           0
 AtZEff=  -0.0000000  -0.0000000  -0.0000000  -0.0000000  -0.0000000  -0.0000000  -0.0000000  -0.0000000  -0.0000000  -0.0000000
 NQMom=    0.0000000   0.0000000   0.0000000   0.0000000   0.0000000   0.0000000   0.0000000   0.0000000   0.0000000   0.0000000
 NMagM=    2.7928460   2.7928460   2.7928460   2.7928460   2.7928460   2.7928460   2.7928460   2.7928460   2.7928460   0.0000000
 AtZNuc=   1.0000000   1.0000000   1.0000000   1.0000000   1.0000000   1.0000000   1.0000000   1.0000000   1.0000000  12.0000000

  Atom        81          82          83          84          85          86          87          88          89          90
 IAtWgt=          12          12          12          12          14          12          12          12          12          12
 AtmWgt=  12.0000000  12.0000000  12.0000000  12.0000000  14.0030740  12.0000000  12.0000000  12.0000000  12.0000000  12.0000000
 NucSpn=           0           0           0           0           2           0           0           0           0           0
 AtZEff=  -0.0000000  -0.0000000  -0.0000000  -0.0000000  -0.0000000  -0.0000000  -0.0000000  -0.0000000  -0.0000000  -0.0000000
 NQMom=    0.0000000   0.0000000   0.0000000   0.0000000   2.0440000   0.0000000   0.0000000   0.0000000   0.0000000   0.0000000
 NMagM=    0.0000000   0.0000000   0.0000000   0.0000000   0.4037610   0.0000000   0.0000000   0.0000000   0.0000000   0.0000000
 AtZNuc=   6.0000000   6.0000000   6.0000000   6.0000000   7.0000000   6.0000000   6.0000000   6.0000000   6.0000000   6.0000000

  Atom        91          92          93          94          95          96          97          98          99         100
 IAtWgt=          12          12           1          14          12          12          12          12          12          12
 AtmWgt=  12.0000000  12.0000000   1.0078250  14.0030740  12.0000000  12.0000000  12.0000000  12.0000000  12.0000000  12.0000000
 NucSpn=           0           0           1           2           0           0           0           0           0           0
 AtZEff=  -0.0000000  -0.0000000  -0.0000000  -0.0000000  -0.0000000  -0.0000000  -0.0000000  -0.0000000  -0.0000000  -0.0000000
 NQMom=    0.0000000   0.0000000   0.0000000   2.0440000   0.0000000   0.0000000   0.0000000   0.0000000   0.0000000   0.0000000
 NMagM=    0.0000000   0.0000000   2.7928460   0.4037610   0.0000000   0.0000000   0.0000000   0.0000000   0.0000000   0.0000000
 AtZNuc=   6.0000000   6.0000000   1.0000000   7.0000000   6.0000000   6.0000000   6.0000000   6.0000000   6.0000000   6.0000000

  Atom       101         102         103         104         105         106         107         108         109         110
 IAtWgt=          16          12          14          12          12          12          12          12          12          12
 AtmWgt=  15.9949146  12.0000000  14.0030740  12.0000000  12.0000000  12.0000000  12.0000000  12.0000000  12.0000000  12.0000000
 NucSpn=           0           0           2           0           0           0           0           0           0           0
 AtZEff=  -0.0000000  -0.0000000  -0.0000000  -0.0000000  -0.0000000  -0.0000000  -0.0000000  -0.0000000  -0.0000000  -0.0000000
 NQMom=    0.0000000   0.0000000   2.0440000   0.0000000   0.0000000   0.0000000   0.0000000   0.0000000   0.0000000   0.0000000
 NMagM=    0.0000000   0.0000000   0.4037610   0.0000000   0.0000000   0.0000000   0.0000000   0.0000000   0.0000000   0.0000000
 AtZNuc=   8.0000000   6.0000000   7.0000000   6.0000000   6.0000000   6.0000000   6.0000000   6.0000000   6.0000000   6.0000000

  Atom       111         112         113         114         115         116         117         118         119         120
 IAtWgt=          14          12          12          12          12          12          12          16          12          12
 AtmWgt=  14.0030740  12.0000000  12.0000000  12.0000000  12.0000000  12.0000000  12.0000000  15.9949146  12.0000000  12.0000000
 NucSpn=           2           0           0           0           0           0           0           0           0           0
 AtZEff=  -0.0000000  -0.0000000  -0.0000000  -0.0000000  -0.0000000  -0.0000000  -0.0000000  -0.0000000  -0.0000000  -0.0000000
 NQMom=    2.0440000   0.0000000   0.0000000   0.0000000   0.0000000   0.0000000   0.0000000   0.0000000   0.0000000   0.0000000
 NMagM=    0.4037610   0.0000000   0.0000000   0.0000000   0.0000000   0.0000000   0.0000000   0.0000000   0.0000000   0.0000000
 AtZNuc=   7.0000000   6.0000000   6.0000000   6.0000000   6.0000000   6.0000000   6.0000000   8.0000000   6.0000000   6.0000000

  Atom       121         122         123         124         125         126         127         128         129         130
 IAtWgt=          16          16          12           1           1           1           1           1           1           1
 AtmWgt=  15.9949146  15.9949146  12.0000000   1.0078250   1.0078250   1.0078250   1.0078250   1.0078250   1.0078250   1.0078250
 NucSpn=           0           0           0           1           1           1           1           1           1           1
 AtZEff=  -0.0000000  -0.0000000  -0.0000000  -0.0000000  -0.0000000  -0.0000000  -0.0000000  -0.0000000  -0.0000000  -0.0000000
 NQMom=    0.0000000   0.0000000   0.0000000   0.0000000   0.0000000   0.0000000   0.0000000   0.0000000   0.0000000   0.0000000
 NMagM=    0.0000000   0.0000000   0.0000000   2.7928460   2.7928460   2.7928460   2.7928460   2.7928460   2.7928460   2.7928460
 AtZNuc=   8.0000000   8.0000000   6.0000000   1.0000000   1.0000000   1.0000000   1.0000000   1.0000000   1.0000000   1.0000000

  Atom       131         132         133         134         135         136         137         138         139         140
 IAtWgt=           1           1           1           1           1           1           1           1           1           1
 AtmWgt=   1.0078250   1.0078250   1.0078250   1.0078250   1.0078250   1.0078250   1.0078250   1.0078250   1.0078250   1.0078250
 NucSpn=           1           1           1           1           1           1           1           1           1           1
 AtZEff=  -0.0000000  -0.0000000  -0.0000000  -0.0000000  -0.0000000  -0.0000000  -0.0000000  -0.0000000  -0.0000000  -0.0000000
 NQMom=    0.0000000   0.0000000   0.0000000   0.0000000   0.0000000   0.0000000   0.0000000   0.0000000   0.0000000   0.0000000
 NMagM=    2.7928460   2.7928460   2.7928460   2.7928460   2.7928460   2.7928460   2.7928460   2.7928460   2.7928460   2.7928460
 AtZNuc=   1.0000000   1.0000000   1.0000000   1.0000000   1.0000000   1.0000000   1.0000000   1.0000000   1.0000000   1.0000000

  Atom       141         142         143         144         145         146         147         148         149         150
 IAtWgt=           1           1           1           1           1           1           1           1           1           1
 AtmWgt=   1.0078250   1.0078250   1.0078250   1.0078250   1.0078250   1.0078250   1.0078250   1.0078250   1.0078250   1.0078250
 NucSpn=           1           1           1           1           1           1           1           1           1           1
 AtZEff=  -0.0000000  -0.0000000  -0.0000000  -0.0000000  -0.0000000  -0.0000000  -0.0000000  -0.0000000  -0.0000000  -0.0000000
 NQMom=    0.0000000   0.0000000   0.0000000   0.0000000   0.0000000   0.0000000   0.0000000   0.0000000   0.0000000   0.0000000
 NMagM=    2.7928460   2.7928460   2.7928460   2.7928460   2.7928460   2.7928460   2.7928460   2.7928460   2.7928460   2.7928460
 AtZNuc=   1.0000000   1.0000000   1.0000000   1.0000000   1.0000000   1.0000000   1.0000000   1.0000000   1.0000000   1.0000000

  Atom       151         152         153         154         155         156         157         158
 IAtWgt=           1           1           1           1           1           1           1           1
 AtmWgt=   1.0078250   1.0078250   1.0078250   1.0078250   1.0078250   1.0078250   1.0078250   1.0078250
 NucSpn=           1           1           1           1           1           1           1           1
 AtZEff=  -0.0000000  -0.0000000  -0.0000000  -0.0000000  -0.0000000  -0.0000000  -0.0000000  -0.0000000
 NQMom=    0.0000000   0.0000000   0.0000000   0.0000000   0.0000000   0.0000000   0.0000000   0.0000000
 NMagM=    2.7928460   2.7928460   2.7928460   2.7928460   2.7928460   2.7928460   2.7928460   2.7928460
 AtZNuc=   1.0000000   1.0000000   1.0000000   1.0000000   1.0000000   1.0000000   1.0000000   1.0000000
 Leave Link  101 at Thu Aug 19 20:49:25 2021, MaxMem= 23488102400 cpu:               3.3 elap:               0.2
 (Enter /sw/apps/gaussian-16.0/g16/l202.exe)
 Stoichiometry    C68H72Mg2N8O8
 Framework group  C1[X(C68H72Mg2N8O8)]
 Deg. of freedom   468
 Full point group                 C1      NOp   1
 Largest Abelian subgroup         C1      NOp   1
 Largest concise Abelian subgroup C1      NOp   1
                         Standard orientation:                         
 ---------------------------------------------------------------------
 Center     Atomic      Atomic             Coordinates (Angstroms)
 Number     Number       Type             X           Y           Z
 ---------------------------------------------------------------------
      1         12           0       -4.409202    0.640291    0.387405
      2          6           0       -4.745547   -2.503962   -1.289722
      3          6           0       -4.958071   -1.029736    3.311925
      4          6           0       -4.568557    3.455416    1.838714
      5          6           0       -5.016464    2.175074   -2.682014
      6          7           0       -4.788893   -1.496029    0.826287
      7          6           0       -4.833398   -2.608695    0.100227
      8          6           0       -4.906405   -3.905437    0.960752
      9          6           0       -5.531996   -3.289482    2.291629
     10          6           0       -5.034834   -1.861142    2.155247
     11          6           0       -7.057230   -3.279971    2.300166
     12          6           0       -3.492417   -4.523813    1.225293
     13          6           0       -3.496790   -5.953919    1.773137
     14          1           0       -2.446736   -6.868659    1.351252
     15          7           0       -4.234444    1.108008    2.298832
     16          6           0       -4.483195    0.298935    3.356570
     17          6           0       -4.206978    1.108511    4.562793
     18          6           0       -3.960610    2.510089    4.123505
     19          6           0       -4.274533    2.418077    2.720521
     20          6           0       -4.148476    0.532884    5.944452
     21          6           0       -3.523359    3.739958    4.854508
     22          8           0       -3.595331    4.904115    4.330931
     23          6           0       -3.085660    3.554103    6.249828
     24          7           0       -4.960221    2.545112   -0.265030
     25          6           0       -4.883719    3.602705    0.550217
     26          6           0       -5.053114    4.887610   -0.204941
     27          6           0       -5.019568    4.498181   -1.753157
     28          6           0       -4.912384    2.960155   -1.607359
     29          6           0       -6.335260    5.676280    0.095247
     30          6           0       -3.980381    5.229217   -2.639777
     31          6           0       -2.582230    4.812945   -2.241044
     32          7           0       -4.636853   -0.009376   -1.671029
     33          6           0       -4.906848    0.798403   -2.785152
     34          6           0       -5.080416   -0.102086   -3.939734
     35          6           0       -4.914657   -1.380436   -3.410403
     36          6           0       -4.680094   -1.285972   -2.008851
     37          6           0       -5.411860    0.296254   -5.264839
     38          6           0       -4.905584   -2.805515   -3.698367
     39          8           0       -4.954700   -3.482851   -4.726130
     40          6           0       -4.916837   -3.596099   -2.316094
     41          6           0       -3.857151   -4.661206   -2.393042
     42          8           0       -2.647922   -4.357749   -2.448230
     43          8           0       -4.412138   -5.858745   -2.151317
     44          6           0       -3.409262   -6.956633   -2.183488
     45          1           0       -5.350658   -1.405307    4.258901
     46          1           0       -4.524020    4.453838    2.278724
     47          1           0       -5.124301    2.586646   -3.687217
     48          1           0       -5.564438   -4.678307    0.563149
     49          1           0       -5.117470   -3.751075    3.187632
     50          1           0       -7.462922   -3.580120    1.334120
     51          1           0       -7.340608   -2.252541    2.529460
     52          1           0       -7.443801   -3.887273    3.119022
     53          1           0       -3.024522   -4.005864    2.062468
     54          1           0       -2.879550   -4.484852    0.324070
     55          1           0       -4.476364   -6.419962    1.662925
     56          1           0       -3.338632   -5.907376    2.850643
     57          1           0       -4.534549   -0.485349    5.970773
     58          1           0       -4.846005    1.103777    6.557023
     59          1           0       -3.147845    0.594314    6.372585
     60          1           0       -3.900099    3.116007    6.827159
     61          1           0       -2.725289    4.526383    6.583974
     62          1           0       -2.270842    2.829822    6.270782
     63          1           0       -4.236883    5.576763    0.007808
     64          1           0       -5.972877    4.693542   -2.244797
     65          1           0       -6.152657    6.696339    0.434130
     66          1           0       -6.910531    5.116475    0.832114
     67          1           0       -7.041188    5.733452   -0.732892
     68          1           0       -4.048241    6.306687   -2.493493
     69          1           0       -4.106913    5.030398   -3.704067
     70          1           0       -2.364908    5.466796   -1.397194
     71          1           0       -1.884746    4.988517   -3.060740
     72          1           0       -2.562212    3.787277   -1.872139
     73          1           0       -4.771105   -0.285391   -5.927480
     74          1           0       -5.260635    1.366184   -5.406205
     75          1           0       -6.464027    0.014596   -5.303153
     76          1           0       -5.914858   -4.018838   -2.204880
     77          1           0       -3.757582   -7.688279   -2.912597
     78          1           0       -3.281628   -7.290016   -1.153454
     79          1           0       -2.431632   -6.704543   -2.595833
     80         12           0        4.544477    0.765847   -0.547623
     81          6           0        4.528598   -2.547454    0.831096
     82          6           0        3.978906    1.921837    2.611244
     83          6           0        4.104796    3.652350   -1.789488
     84          6           0        3.967505   -0.678943   -3.666180
     85          7           0        4.304516   -0.276296    1.388506
     86          6           0        4.379314   -1.533132    1.799760
     87          6           0        4.369632   -1.706806    3.342256
     88          6           0        3.627721   -0.337433    3.733767
     89          6           0        4.019043    0.507368    2.523053
     90          6           0        2.113277   -0.460044    3.761254
     91          6           0        5.816638   -1.769014    3.945849
     92          6           0        5.887594   -2.245177    5.398431
     93          1           0        7.029914   -3.056481    5.809946
     94          7           0        4.593685    2.554424    0.310953
     95          6           0        4.361558    2.840483    1.609238
     96          6           0        4.499416    4.300093    1.730492
     97          6           0        4.669422    4.870126    0.366346
     98          6           0        4.436644    3.690800   -0.443037
     99          6           0        4.542755    5.006134    3.054517
    100          6           0        4.976410    6.251157   -0.128331
    101          8           0        4.842908    6.569407   -1.362725
    102          6           0        5.348093    7.244641    0.889681
    103          7           0        3.891328    1.414176   -2.411863
    104          6           0        3.841917    2.724395   -2.709876
    105          6           0        3.608682    2.939583   -4.186254
    106          6           0        3.753492    1.495963   -4.858985
    107          6           0        3.966472    0.644708   -3.588002
    108          6           0        2.256769    3.543966   -4.565008
    109          6           0        4.776604    1.359881   -6.019771
    110          6           0        6.182347    1.534822   -5.491884
    111          7           0        4.473287   -1.241953   -1.342431
    112          6           0        4.190095   -1.623367   -2.672243
    113          6           0        4.143105   -3.099646   -2.701126
    114          6           0        4.381306   -3.477052   -1.370969
    115          6           0        4.543834   -2.317347   -0.565891
    116          6           0        3.857964   -3.900689   -3.842672
    117          6           0        4.521681   -4.592572   -0.462899
    118          8           0        4.567591   -5.815493   -0.589741
    119          6           0        4.497678   -4.037917    1.026454
    120          6           0        5.638307   -4.670113    1.775991
    121          8           0        6.815736   -4.422479    1.461437
    122          8           0        5.157932   -5.286874    2.871083
    123          6           0        6.252953   -5.919898    3.653392
    124          1           0        3.576832    2.373909    3.518358
    125          1           0        4.050629    4.622085   -2.289632
    126          1           0        3.890251   -1.207529   -4.618702
    127          1           0        3.798251   -2.554788    3.700327
    128          1           0        4.039601    0.088386    4.645035
    129          1           0        1.780126   -1.420322    3.396539
    130          1           0        1.742252    0.334822    3.127547
    131          1           0        1.735909   -0.246012    4.765308
    132          1           0        6.199488   -0.747171    4.064171
    133          1           0        6.458380   -2.374172    3.335455
    134          1           0        4.949133   -2.708299    5.726698
    135          1           0        5.995729   -1.371125    6.045238
    136          1           0        4.227702    4.346631    3.872566
    137          1           0        3.776038    5.787900    3.025261
    138          1           0        5.511763    5.468752    3.253666
    139          1           0        4.543404    7.336597    1.615265
    140          1           0        5.616767    8.145452    0.334504
    141          1           0        6.223464    6.875460    1.435623
    142          1           0        4.359365    3.598994   -4.604294
    143          1           0        2.807658    1.158976   -5.308064
    144          1           0        2.345136    4.479334   -5.149258
    145          1           0        1.692748    3.714258   -3.657590
    146          1           0        1.597218    2.884628   -5.126669
    147          1           0        4.620964    2.151767   -6.756546
    148          1           0        4.709965    0.413224   -6.545497
    149          1           0        6.302230    2.622014   -5.464718
    150          1           0        6.903944    1.074823   -6.163994
    151          1           0        6.264472    1.168309   -4.462040
    152          1           0        4.565469   -4.719131   -3.833296
    153          1           0        3.929473   -3.322850   -4.761779
    154          1           0        2.828478   -4.195240   -3.622036
    155          1           0        3.530224   -4.298369    1.457480
    156          1           0        5.994333   -6.977176    3.767244
    157          1           0        6.343605   -5.320995    4.579056
    158          1           0        7.227774   -5.989868    3.185104
 ---------------------------------------------------------------------
 Rotational constants (GHZ):           0.0202807           0.0143699           0.0127305
 Leave Link  202 at Thu Aug 19 20:49:25 2021, MaxMem= 23488102400 cpu:               0.2 elap:               0.0
 (Enter /sw/apps/gaussian-16.0/g16/l301.exe)
 Standard basis: def2SVP (5D, 7F)
 Ernie: Thresh=  0.10000D-02 Tol=  0.10000D-05 Strict=F.
 There are  1658 symmetry adapted cartesian basis functions of A   symmetry.
 There are  1572 symmetry adapted basis functions of A   symmetry.
  1572 basis functions,  2678 primitive gaussians,  1658 cartesian basis functions
   312 alpha electrons      312 beta electrons
       nuclear repulsion energy     15488.5677494255 Hartrees.
 IExCor=20419 DFT=T Ex+Corr=CAM-B3LYP ExCW=0 ScaHFX=  1.000000
 ScaDFX=  1.000000  1.000000  1.000000  0.810000 ScalE2=  1.000000  1.000000
 IRadAn=      5 IRanWt=     -1 IRanGd=            0 ICorTp=0 IEmpDi=  4
 HFx  wShort=  0.000000 wLong=  0.330000 cFull=  0.190000 cShort=  0.000000 cLong=  0.460000
 DFx  wShort=  0.000000 wLong=  0.330000 cFull=  0.190000 cShort=  0.000000 cLong=  0.460000
 NAtoms=  158 NActive=  158 NUniq=  158 SFac= 1.00D+00 NAtFMM=   60 NAOKFM=T Big=T
 Integral buffers will be    131072 words long.
 Raffenetti 1 integral format.
 Two-electron integral symmetry is turned on.
 Leave Link  301 at Thu Aug 19 20:49:25 2021, MaxMem= 23488102400 cpu:               1.3 elap:               0.1
 (Enter /sw/apps/gaussian-16.0/g16/l302.exe)
 NPDir=0 NMtPBC=     1 NCelOv=     1 NCel=       1 NClECP=     1 NCelD=      1
         NCelK=      1 NCelE2=     1 NClLst=     1 CellRange=     0.0.
 One-electron integrals computed using PRISM.
 One-electron integral symmetry used in STVInt
   1 Symmetry operations used in ECPInt.
 ECPInt:  NShTT=  271216 NPrTT=  987664 LenC2=  154081 LenP2D=  320649.
 LDataN:  DoStor=T MaxTD1= 4 Len=   56
 NBasis=  1572 RedAO= T EigKep=  3.36D-04  NBF=  1572
 NBsUse=  1572 1.00D-06 EigRej= -1.00D+00 NBFU=  1572
 Precomputing XC quadrature grid using
 IXCGrd= 4 IRadAn=           5 IRanWt=          -1 IRanGd=           0 AccXCQ= 0.00D+00.
 Generated NRdTot=       0 NPtTot=           0 NUsed=           0 NTot=          32
 NSgBfM=  1193  1173  1180  1192  1193 MxSgAt=   158 MxSgA2=   157.
 Leave Link  302 at Thu Aug 19 20:49:30 2021, MaxMem= 23488102400 cpu:             129.1 elap:               5.4
 (Enter /sw/apps/gaussian-16.0/g16/l303.exe)
 DipDrv:  MaxL=1.
 Leave Link  303 at Thu Aug 19 20:49:31 2021, MaxMem= 23488102400 cpu:              10.3 elap:               0.5
 (Enter /sw/apps/gaussian-16.0/g16/l308.exe)
 Leave Link  308 at Thu Aug 19 20:49:31 2021, MaxMem= 23488102400 cpu:              15.2 elap:               0.8
 (Enter /sw/apps/gaussian-16.0/g16/l401.exe)
 ExpMin= 3.36D-02 ExpMax= 4.95D+03 ExpMxC= 7.45D+02 IAcc=3 IRadAn=         5 AccDes= 0.00D+00
 Harris functional with IExCor=20419 and IRadAn=       5 diagonalized for initial guess.
 HarFok:  IExCor=20419 AccDes= 0.00D+00 IRadAn=         5 IDoV= 1 UseB2=F ITyADJ=14
 ICtDFT=  3500011 ScaDFX=  1.000000  1.000000  1.000000  1.000000
 FoFCou: FMM=F IPFlag=           0 FMFlag=      100000 FMFlg1=        2001
         NFxFlg=           0 DoJE=T BraDBF=F KetDBF=T FulRan=T
         wScrn=  0.000000 ICntrl=       500 IOpCl=  0 I1Cent=   200000004 NGrid=           0
         NMat0=    1 NMatS0=      1 NMatT0=    0 NMatD0=    1 NMtDS0=    0 NMtDT0=    0
 Petite list used in FoFCou.
 Harris En= -3918.65799475977    
 JPrj=0 DoOrth=F DoCkMO=F.
 Leave Link  401 at Thu Aug 19 20:49:39 2021, MaxMem= 23488102400 cpu:             190.6 elap:               8.0
 (Enter /sw/apps/gaussian-16.0/g16/l502.exe)
 Integral symmetry usage will be decided dynamically.
 Closed shell SCF:
 Using DIIS extrapolation, IDIIS=  1040.
 NGot= 23488102400 LenX= 23482547354 LenY= 23479796732
 Requested convergence on RMS density matrix=1.00D-08 within 128 cycles.
 Requested convergence on MAX density matrix=1.00D-06.
 Requested convergence on             energy=1.00D-06.
 No special actions if energy rises.
 Fock matrices will be formed incrementally for  20 cycles.

 Cycle   1  Pass 1  IDiag  1:
 FoFJK:  IHMeth= 1 ICntrl=       0 DoSepK=T KAlg= 0 I1Cent=           0 FoldK=F
 IRaf=         1 NMat=       1 IRICut=       1 DoRegI=T DoRafI=F ISym2E= 0 IDoP0=0 IntGTp=1.
 FoFCou: FMM=T IPFlag=           0 FMFlag=      100000 FMFlg1=        2001
         NFxFlg=           0 DoJE=T BraDBF=F KetDBF=F FulRan=T
         wScrn=  0.000000 ICntrl=       500 IOpCl=  0 I1Cent=           0 NGrid=           0
         NMat0=    1 NMatS0=      1 NMatT0=    0 NMatD0=    1 NMtDS0=    0 NMtDT0=    0
 Symmetry not used in FoFCou.
 FMM levels:  10  Number of levels for PrismC:   9
 E= -4068.94826281725    
 DIIS: error= 2.04D-02 at cycle   1 NSaved=   1.
 NSaved= 1 IEnMin= 1 EnMin= -4068.94826281725     IErMin= 1 ErrMin= 2.04D-02
 ErrMax= 2.04D-02  0.00D+00 EMaxC= 1.00D-01 BMatC= 1.69D+00 BMatP= 1.69D+00
 IDIUse=3 WtCom= 7.96D-01 WtEn= 2.04D-01
 Coeff-Com:  0.100D+01
 Coeff-En:   0.100D+01
 Coeff:      0.100D+01
 Gap=     0.120 Goal=   None    Shift=    0.000
 GapD=    0.120 DampG=1.000 DampE=0.500 DampFc=0.5000 IDamp=-1.
 Damping current iteration by 5.00D-01
 RMSDP=1.57D-03 MaxDP=1.36D-01              OVMax= 2.10D-01

 Cycle   2  Pass 1  IDiag  1:
 RMSU=  7.71D-04    CP:  9.82D-01
 E= -4069.33620046214     Delta-E=       -0.387937644889 Rises=F Damp=T
 DIIS: error= 1.27D-02 at cycle   2 NSaved=   2.
 NSaved= 2 IEnMin= 2 EnMin= -4069.33620046214     IErMin= 2 ErrMin= 1.27D-02
 ErrMax= 1.27D-02  0.00D+00 EMaxC= 1.00D-01 BMatC= 3.07D-01 BMatP= 1.69D+00
 IDIUse=3 WtCom= 8.73D-01 WtEn= 1.27D-01
 Coeff-Com: -0.211D+00 0.121D+01
 Coeff-En:   0.000D+00 0.100D+01
 Coeff:     -0.184D+00 0.118D+01
 Gap=     0.135 Goal=   None    Shift=    0.000
 RMSDP=7.71D-04 MaxDP=9.40D-02 DE=-3.88D-01 OVMax= 2.02D-01

 Cycle   3  Pass 1  IDiag  1:
 RMSU=  7.40D-04    CP:  9.68D-01  1.23D+00
 E= -4069.62108096153     Delta-E=       -0.284880499392 Rises=F Damp=F
 DIIS: error= 1.59D-02 at cycle   3 NSaved=   3.
 NSaved= 3 IEnMin= 3 EnMin= -4069.62108096153     IErMin= 2 ErrMin= 1.27D-02
 ErrMax= 1.59D-02  0.00D+00 EMaxC= 1.00D-01 BMatC= 2.07D-01 BMatP= 3.07D-01
 IDIUse=3 WtCom= 8.41D-01 WtEn= 1.59D-01
 Coeff-Com: -0.268D+00 0.655D+00 0.613D+00
 Coeff-En:   0.000D+00 0.000D+00 0.100D+01
 Coeff:     -0.225D+00 0.551D+00 0.674D+00
 Gap=     0.121 Goal=   None    Shift=    0.000
 RMSDP=5.25D-04 MaxDP=5.08D-02 DE=-2.85D-01 OVMax= 1.61D-01

 Cycle   4  Pass 1  IDiag  1:
 RMSU=  2.73D-04    CP:  9.65D-01  1.54D+00  4.94D-01
 E= -4069.76090107634     Delta-E=       -0.139820114815 Rises=F Damp=F
 DIIS: error= 7.34D-03 at cycle   4 NSaved=   4.
 NSaved= 4 IEnMin= 4 EnMin= -4069.76090107634     IErMin= 4 ErrMin= 7.34D-03
 ErrMax= 7.34D-03  0.00D+00 EMaxC= 1.00D-01 BMatC= 5.33D-02 BMatP= 2.07D-01
 IDIUse=3 WtCom= 9.27D-01 WtEn= 7.34D-02
 Coeff-Com: -0.110D+00 0.229D+00 0.411D+00 0.470D+00
 Coeff-En:   0.000D+00 0.000D+00 0.232D+00 0.768D+00
 Coeff:     -0.102D+00 0.212D+00 0.398D+00 0.492D+00
 Gap=     0.120 Goal=   None    Shift=    0.000
 RMSDP=2.13D-04 MaxDP=2.08D-02 DE=-1.40D-01 OVMax= 7.51D-02

 Cycle   5  Pass 1  IDiag  1:
 RMSU=  8.14D-05    CP:  9.64D-01  1.48D+00  6.86D-01  5.35D-01
 E= -4069.81022930932     Delta-E=       -0.049328232973 Rises=F Damp=F
 DIIS: error= 7.19D-04 at cycle   5 NSaved=   5.
 NSaved= 5 IEnMin= 5 EnMin= -4069.81022930932     IErMin= 5 ErrMin= 7.19D-04
 ErrMax= 7.19D-04  0.00D+00 EMaxC= 1.00D-01 BMatC= 1.44D-03 BMatP= 5.33D-02
 IDIUse=3 WtCom= 9.93D-01 WtEn= 7.19D-03
 Coeff-Com: -0.389D-01 0.768D-01 0.177D+00 0.259D+00 0.526D+00
 Coeff-En:   0.000D+00 0.000D+00 0.000D+00 0.000D+00 0.100D+01
 Coeff:     -0.387D-01 0.762D-01 0.176D+00 0.257D+00 0.529D+00
 Gap=     0.119 Goal=   None    Shift=    0.000
 RMSDP=4.71D-05 MaxDP=4.20D-03 DE=-4.93D-02 OVMax= 2.24D-02

 Cycle   6  Pass 1  IDiag  1:
 RMSU=  3.34D-05    CP:  9.64D-01  1.49D+00  6.76D-01  6.14D-01  7.08D-01
 E= -4069.81157023942     Delta-E=       -0.001340930103 Rises=F Damp=F
 DIIS: error= 2.29D-04 at cycle   6 NSaved=   6.
 NSaved= 6 IEnMin= 6 EnMin= -4069.81157023942     IErMin= 6 ErrMin= 2.29D-04
 ErrMax= 2.29D-04  0.00D+00 EMaxC= 1.00D-01 BMatC= 2.15D-04 BMatP= 1.44D-03
 IDIUse=3 WtCom= 9.98D-01 WtEn= 2.29D-03
 Coeff-Com:  0.179D-02-0.585D-02 0.139D-01 0.436D-01 0.303D+00 0.644D+00
 Coeff-En:   0.000D+00 0.000D+00 0.000D+00 0.000D+00 0.120D+00 0.880D+00
 Coeff:      0.179D-02-0.584D-02 0.139D-01 0.435D-01 0.302D+00 0.645D+00
 Gap=     0.120 Goal=   None    Shift=    0.000
 RMSDP=1.82D-05 MaxDP=1.42D-03 DE=-1.34D-03 OVMax= 8.92D-03

 Cycle   7  Pass 1  IDiag  1:
 RMSU=  1.17D-05    CP:  9.64D-01  1.49D+00  6.82D-01  6.12D-01  8.26D-01
                    CP:  7.37D-01
 E= -4069.81181492192     Delta-E=       -0.000244682498 Rises=F Damp=F
 DIIS: error= 1.05D-04 at cycle   7 NSaved=   7.
 NSaved= 7 IEnMin= 7 EnMin= -4069.81181492192     IErMin= 7 ErrMin= 1.05D-04
 ErrMax= 1.05D-04  0.00D+00 EMaxC= 1.00D-01 BMatC= 2.82D-05 BMatP= 2.15D-04
 IDIUse=3 WtCom= 9.99D-01 WtEn= 1.05D-03
 Coeff-Com:  0.467D-02-0.103D-01-0.887D-02-0.283D-02 0.109D+00 0.344D+00
 Coeff-Com:  0.565D+00
 Coeff-En:   0.000D+00 0.000D+00 0.000D+00 0.000D+00 0.000D+00 0.000D+00
 Coeff-En:   0.100D+01
 Coeff:      0.467D-02-0.103D-01-0.886D-02-0.283D-02 0.109D+00 0.343D+00
 Coeff:      0.565D+00
 Gap=     0.120 Goal=   None    Shift=    0.000
 RMSDP=6.89D-06 MaxDP=1.13D-03 DE=-2.45D-04 OVMax= 3.74D-03

 Cycle   8  Pass 1  IDiag  1:
 RMSU=  4.94D-06    CP:  9.64D-01  1.49D+00  6.83D-01  6.17D-01  8.25D-01
                    CP:  8.54D-01  8.11D-01
 E= -4069.81184918118     Delta-E=       -0.000034259258 Rises=F Damp=F
 DIIS: error= 5.76D-05 at cycle   8 NSaved=   8.
 NSaved= 8 IEnMin= 8 EnMin= -4069.81184918118     IErMin= 8 ErrMin= 5.76D-05
 ErrMax= 5.76D-05  0.00D+00 EMaxC= 1.00D-01 BMatC= 5.04D-06 BMatP= 2.82D-05
 IDIUse=1 WtCom= 1.00D+00 WtEn= 0.00D+00
 Coeff-Com:  0.224D-02-0.445D-02-0.787D-02-0.120D-01-0.726D-02 0.326D-01
 Coeff-Com:  0.309D+00 0.688D+00
 Coeff:      0.224D-02-0.445D-02-0.787D-02-0.120D-01-0.726D-02 0.326D-01
 Coeff:      0.309D+00 0.688D+00
 Gap=     0.120 Goal=   None    Shift=    0.000
 RMSDP=3.46D-06 MaxDP=4.56D-04 DE=-3.43D-05 OVMax= 1.25D-03

 Cycle   9  Pass 1  IDiag  1:
 RMSU=  2.02D-06    CP:  9.64D-01  1.49D+00  6.83D-01  6.18D-01  8.42D-01
                    CP:  8.83D-01  9.97D-01  9.83D-01
 E= -4069.81185740146     Delta-E=       -0.000008220282 Rises=F Damp=F
 DIIS: error= 2.01D-05 at cycle   9 NSaved=   9.
 NSaved= 9 IEnMin= 9 EnMin= -4069.81185740146     IErMin= 9 ErrMin= 2.01D-05
 ErrMax= 2.01D-05  0.00D+00 EMaxC= 1.00D-01 BMatC= 8.30D-07 BMatP= 5.04D-06
 IDIUse=1 WtCom= 1.00D+00 WtEn= 0.00D+00
 Coeff-Com:  0.482D-03-0.799D-03-0.275D-02-0.610D-02-0.194D-01-0.418D-01
 Coeff-Com:  0.881D-01 0.347D+00 0.635D+00
 Coeff:      0.482D-03-0.799D-03-0.275D-02-0.610D-02-0.194D-01-0.418D-01
 Coeff:      0.881D-01 0.347D+00 0.635D+00
 Gap=     0.120 Goal=   None    Shift=    0.000
 RMSDP=1.52D-06 MaxDP=1.66D-04 DE=-8.22D-06 OVMax= 7.70D-04

 Cycle  10  Pass 1  IDiag  1:
 RMSU=  9.98D-07    CP:  9.64D-01  1.49D+00  6.83D-01  6.19D-01  8.46D-01
                    CP:  8.94D-01  1.04D+00  1.15D+00  1.06D+00
 E= -4069.81185925620     Delta-E=       -0.000001854743 Rises=F Damp=F
 DIIS: error= 1.01D-05 at cycle  10 NSaved=  10.
 NSaved=10 IEnMin=10 EnMin= -4069.81185925620     IErMin=10 ErrMin= 1.01D-05
 ErrMax= 1.01D-05  0.00D+00 EMaxC= 1.00D-01 BMatC= 1.87D-07 BMatP= 8.30D-07
 IDIUse=1 WtCom= 1.00D+00 WtEn= 0.00D+00
 Coeff-Com: -0.428D-03 0.903D-03 0.121D-02 0.988D-03-0.366D-02-0.318D-01
 Coeff-Com: -0.430D-01-0.673D-01 0.231D+00 0.912D+00
 Coeff:     -0.428D-03 0.903D-03 0.121D-02 0.988D-03-0.366D-02-0.318D-01
 Coeff:     -0.430D-01-0.673D-01 0.231D+00 0.912D+00
 Gap=     0.120 Goal=   None    Shift=    0.000
 RMSDP=1.30D-06 MaxDP=1.28D-04 DE=-1.85D-06 OVMax= 6.72D-04

 Cycle  11  Pass 1  IDiag  1:
 RMSU=  5.74D-07    CP:  9.64D-01  1.49D+00  6.84D-01  6.19D-01  8.48D-01
                    CP:  9.03D-01  1.09D+00  1.27D+00  1.40D+00  1.35D+00
 E= -4069.81186014353     Delta-E=       -0.000000887332 Rises=F Damp=F
 DIIS: error= 4.40D-06 at cycle  11 NSaved=  11.
 NSaved=11 IEnMin=11 EnMin= -4069.81186014353     IErMin=11 ErrMin= 4.40D-06
 ErrMax= 4.40D-06  0.00D+00 EMaxC= 1.00D-01 BMatC= 7.99D-08 BMatP= 1.87D-07
 IDIUse=1 WtCom= 1.00D+00 WtEn= 0.00D+00
 Coeff-Com: -0.351D-03 0.684D-03 0.140D-02 0.214D-02 0.420D-02-0.910D-02
 Coeff-Com: -0.409D-01-0.133D+00-0.420D-01 0.508D+00 0.709D+00
 Coeff:     -0.351D-03 0.684D-03 0.140D-02 0.214D-02 0.420D-02-0.910D-02
 Coeff:     -0.409D-01-0.133D+00-0.420D-01 0.508D+00 0.709D+00
 Gap=     0.120 Goal=   None    Shift=    0.000
 RMSDP=7.51D-07 MaxDP=7.23D-05 DE=-8.87D-07 OVMax= 4.34D-04

 Cycle  12  Pass 1  IDiag  1:
 RMSU=  2.90D-07    CP:  9.64D-01  1.49D+00  6.84D-01  6.19D-01  8.49D-01
                    CP:  9.06D-01  1.11D+00  1.33D+00  1.57D+00  1.76D+00
                    CP:  1.16D+00
 E= -4069.81186045612     Delta-E=       -0.000000312586 Rises=F Damp=F
 DIIS: error= 2.94D-06 at cycle  12 NSaved=  12.
 NSaved=12 IEnMin=12 EnMin= -4069.81186045612     IErMin=12 ErrMin= 2.94D-06
 ErrMax= 2.94D-06  0.00D+00 EMaxC= 1.00D-01 BMatC= 1.97D-08 BMatP= 7.99D-08
 IDIUse=1 WtCom= 1.00D+00 WtEn= 0.00D+00
 Coeff-Com: -0.294D-04 0.397D-04 0.303D-03 0.687D-03 0.372D-02 0.343D-02
 Coeff-Com: -0.614D-03-0.430D-01-0.798D-01-0.209D-01 0.282D+00 0.854D+00
 Coeff:     -0.294D-04 0.397D-04 0.303D-03 0.687D-03 0.372D-02 0.343D-02
 Coeff:     -0.614D-03-0.430D-01-0.798D-01-0.209D-01 0.282D+00 0.854D+00
 Gap=     0.120 Goal=   None    Shift=    0.000
 RMSDP=4.56D-07 MaxDP=3.42D-05 DE=-3.13D-07 OVMax= 2.64D-04

 Cycle  13  Pass 1  IDiag  1:
 RMSU=  1.78D-07    CP:  9.64D-01  1.49D+00  6.84D-01  6.19D-01  8.49D-01
                    CP:  9.06D-01  1.12D+00  1.36D+00  1.68D+00  1.97D+00
                    CP:  1.56D+00  1.20D+00
 E= -4069.81186056291     Delta-E=       -0.000000106789 Rises=F Damp=F
 DIIS: error= 1.61D-06 at cycle  13 NSaved=  13.
 NSaved=13 IEnMin=13 EnMin= -4069.81186056291     IErMin=13 ErrMin= 1.61D-06
 ErrMax= 1.61D-06  0.00D+00 EMaxC= 1.00D-01 BMatC= 9.85D-09 BMatP= 1.97D-08
 IDIUse=1 WtCom= 1.00D+00 WtEn= 0.00D+00
 Coeff-Com:  0.121D-03-0.248D-03-0.360D-03-0.426D-03 0.868D-03 0.502D-02
 Coeff-Com:  0.180D-01 0.234D-01-0.342D-01-0.236D+00-0.156D+00 0.554D+00
 Coeff-Com:  0.825D+00
 Coeff:      0.121D-03-0.248D-03-0.360D-03-0.426D-03 0.868D-03 0.502D-02
 Coeff:      0.180D-01 0.234D-01-0.342D-01-0.236D+00-0.156D+00 0.554D+00
 Coeff:      0.825D+00
 Gap=     0.120 Goal=   None    Shift=    0.000
 RMSDP=3.85D-07 MaxDP=2.73D-05 DE=-1.07D-07 OVMax= 2.48D-04

 Cycle  14  Pass 1  IDiag  1:
 RMSU=  8.51D-08    CP:  9.64D-01  1.49D+00  6.84D-01  6.19D-01  8.50D-01
                    CP:  9.07D-01  1.12D+00  1.39D+00  1.76D+00  2.18D+00
                    CP:  1.82D+00  1.73D+00  1.14D+00
 E= -4069.81186060972     Delta-E=       -0.000000046814 Rises=F Damp=F
 DIIS: error= 8.50D-07 at cycle  14 NSaved=  14.
 NSaved=14 IEnMin=14 EnMin= -4069.81186060972     IErMin=14 ErrMin= 8.50D-07
 ErrMax= 8.50D-07  0.00D+00 EMaxC= 1.00D-01 BMatC= 1.65D-09 BMatP= 9.85D-09
 IDIUse=1 WtCom= 1.00D+00 WtEn= 0.00D+00
 Coeff-Com:  0.727D-04-0.144D-03-0.265D-03-0.405D-03-0.380D-03 0.136D-02
 Coeff-Com:  0.103D-01 0.213D-01 0.434D-02-0.110D+00-0.148D+00 0.749D-01
 Coeff-Com:  0.432D+00 0.715D+00
 Coeff:      0.727D-04-0.144D-03-0.265D-03-0.405D-03-0.380D-03 0.136D-02
 Coeff:      0.103D-01 0.213D-01 0.434D-02-0.110D+00-0.148D+00 0.749D-01
 Coeff:      0.432D+00 0.715D+00
 Gap=     0.120 Goal=   None    Shift=    0.000
 RMSDP=1.24D-07 MaxDP=8.50D-06 DE=-4.68D-08 OVMax= 6.88D-05

 Cycle  15  Pass 1  IDiag  1:
 RMSU=  4.23D-08    CP:  9.64D-01  1.49D+00  6.84D-01  6.19D-01  8.50D-01
                    CP:  9.06D-01  1.13D+00  1.39D+00  1.78D+00  2.23D+00
                    CP:  1.94D+00  1.88D+00  1.38D+00  1.02D+00
 E= -4069.81186061491     Delta-E=       -0.000000005191 Rises=F Damp=F
 DIIS: error= 3.94D-07 at cycle  15 NSaved=  15.
 NSaved=15 IEnMin=15 EnMin= -4069.81186061491     IErMin=15 ErrMin= 3.94D-07
 ErrMax= 3.94D-07  0.00D+00 EMaxC= 1.00D-01 BMatC= 2.65D-10 BMatP= 1.65D-09
 IDIUse=1 WtCom= 1.00D+00 WtEn= 0.00D+00
 Coeff-Com:  0.965D-05-0.173D-04-0.487D-04-0.105D-03-0.303D-03-0.481D-03
 Coeff-Com:  0.149D-02 0.400D-02 0.911D-02-0.411D-02-0.338D-01-0.718D-01
 Coeff-Com:  0.538D-01 0.304D+00 0.739D+00
 Coeff:      0.965D-05-0.173D-04-0.487D-04-0.105D-03-0.303D-03-0.481D-03
 Coeff:      0.149D-02 0.400D-02 0.911D-02-0.411D-02-0.338D-01-0.718D-01
 Coeff:      0.538D-01 0.304D+00 0.739D+00
 Gap=     0.120 Goal=   None    Shift=    0.000
 RMSDP=3.93D-08 MaxDP=3.13D-06 DE=-5.19D-09 OVMax= 3.20D-05

 Cycle  16  Pass 1  IDiag  1:
 RMSU=  2.19D-08    CP:  9.64D-01  1.49D+00  6.84D-01  6.19D-01  8.50D-01
                    CP:  9.06D-01  1.13D+00  1.40D+00  1.78D+00  2.24D+00
                    CP:  1.96D+00  1.93D+00  1.45D+00  1.23D+00  1.09D+00
 E= -4069.81186061569     Delta-E=       -0.000000000771 Rises=F Damp=F
 DIIS: error= 2.45D-07 at cycle  16 NSaved=  16.
 NSaved=16 IEnMin=16 EnMin= -4069.81186061569     IErMin=16 ErrMin= 2.45D-07
 ErrMax= 2.45D-07  0.00D+00 EMaxC= 1.00D-01 BMatC= 1.20D-10 BMatP= 2.65D-10
 IDIUse=1 WtCom= 1.00D+00 WtEn= 0.00D+00
 Coeff-Com: -0.134D-04 0.274D-04 0.420D-04 0.423D-04-0.665D-04-0.658D-03
 Coeff-Com: -0.168D-02-0.384D-02 0.445D-02 0.242D-01 0.191D-01-0.651D-01
 Coeff-Com: -0.728D-01-0.307D-01 0.428D+00 0.698D+00
 Coeff:     -0.134D-04 0.274D-04 0.420D-04 0.423D-04-0.665D-04-0.658D-03
 Coeff:     -0.168D-02-0.384D-02 0.445D-02 0.242D-01 0.191D-01-0.651D-01
 Coeff:     -0.728D-01-0.307D-01 0.428D+00 0.698D+00
 Gap=     0.120 Goal=   None    Shift=    0.000
 RMSDP=2.61D-08 MaxDP=1.84D-06 DE=-7.71D-10 OVMax= 1.48D-05

 Cycle  17  Pass 1  IDiag  1:
 RMSU=  1.23D-08    CP:  9.64D-01  1.49D+00  6.84D-01  6.19D-01  8.50D-01
                    CP:  9.06D-01  1.13D+00  1.40D+00  1.78D+00  2.25D+00
                    CP:  1.97D+00  1.95D+00  1.50D+00  1.31D+00  1.39D+00
                    CP:  1.11D+00
 E= -4069.81186061626     Delta-E=       -0.000000000571 Rises=F Damp=F
 DIIS: error= 8.78D-08 at cycle  17 NSaved=  17.
 NSaved=17 IEnMin=17 EnMin= -4069.81186061626     IErMin=17 ErrMin= 8.78D-08
 ErrMax= 8.78D-08  0.00D+00 EMaxC= 1.00D-01 BMatC= 2.43D-11 BMatP= 1.20D-10
 IDIUse=1 WtCom= 1.00D+00 WtEn= 0.00D+00
 Coeff-Com: -0.905D-05 0.178D-04 0.341D-04 0.474D-04 0.661D-04-0.204D-03
 Coeff-Com: -0.107D-02-0.325D-02 0.294D-03 0.126D-01 0.197D-01-0.142D-01
 Coeff-Com: -0.424D-01-0.105D+00 0.250D-01 0.303D+00 0.805D+00
 Coeff:     -0.905D-05 0.178D-04 0.341D-04 0.474D-04 0.661D-04-0.204D-03
 Coeff:     -0.107D-02-0.325D-02 0.294D-03 0.126D-01 0.197D-01-0.142D-01
 Coeff:     -0.424D-01-0.105D+00 0.250D-01 0.303D+00 0.805D+00
 Gap=     0.120 Goal=   None    Shift=    0.000
 RMSDP=1.45D-08 MaxDP=1.14D-06 DE=-5.71D-10 OVMax= 1.08D-05

 Cycle  18  Pass 1  IDiag  1:
 RMSU=  6.24D-09    CP:  9.64D-01  1.49D+00  6.84D-01  6.19D-01  8.50D-01
                    CP:  9.06D-01  1.13D+00  1.40D+00  1.78D+00  2.25D+00
                    CP:  1.98D+00  1.96D+00  1.52D+00  1.38D+00  1.54D+00
                    CP:  1.49D+00  1.28D+00
 E= -4069.81186061637     Delta-E=       -0.000000000116 Rises=F Damp=F
 DIIS: error= 8.75D-08 at cycle  18 NSaved=  18.
 NSaved=18 IEnMin=18 EnMin= -4069.81186061637     IErMin=18 ErrMin= 8.75D-08
 ErrMax= 8.75D-08  0.00D+00 EMaxC= 1.00D-01 BMatC= 1.12D-11 BMatP= 2.43D-11
 IDIUse=1 WtCom= 1.00D+00 WtEn= 0.00D+00
 Coeff-Com: -0.491D-06 0.596D-06 0.493D-05 0.114D-04 0.724D-04 0.118D-03
 Coeff-Com:  0.612D-04-0.591D-03-0.116D-02-0.219D-02 0.456D-02 0.133D-01
 Coeff-Com:  0.632D-02-0.521D-01-0.129D+00-0.109D+00 0.460D+00 0.810D+00
 Coeff:     -0.491D-06 0.596D-06 0.493D-05 0.114D-04 0.724D-04 0.118D-03
 Coeff:      0.612D-04-0.591D-03-0.116D-02-0.219D-02 0.456D-02 0.133D-01
 Coeff:      0.632D-02-0.521D-01-0.129D+00-0.109D+00 0.460D+00 0.810D+00
 Gap=     0.120 Goal=   None    Shift=    0.000
 RMSDP=1.08D-08 MaxDP=7.92D-07 DE=-1.16D-10 OVMax= 6.11D-06

 Cycle  19  Pass 1  IDiag  1:
 RMSU=  3.23D-09    CP:  9.64D-01  1.49D+00  6.84D-01  6.19D-01  8.50D-01
                    CP:  9.06D-01  1.13D+00  1.40D+00  1.79D+00  2.25D+00
                    CP:  1.98D+00  1.96D+00  1.53D+00  1.41D+00  1.67D+00
                    CP:  1.70D+00  1.77D+00  1.17D+00
 E= -4069.81186061628     Delta-E=        0.000000000091 Rises=F Damp=F
 DIIS: error= 3.55D-08 at cycle  19 NSaved=  19.
 NSaved=19 IEnMin=18 EnMin= -4069.81186061637     IErMin=19 ErrMin= 3.55D-08
 ErrMax= 3.55D-08  0.00D+00 EMaxC= 1.00D-01 BMatC= 3.03D-12 BMatP= 1.12D-11
 IDIUse=1 WtCom= 1.00D+00 WtEn= 0.00D+00
 Coeff-Com:  0.325D-05-0.661D-05-0.104D-04-0.118D-04 0.256D-04 0.152D-03
 Coeff-Com:  0.491D-03 0.879D-03-0.745D-03-0.678D-02-0.499D-02 0.135D-01
 Coeff-Com:  0.231D-01 0.837D-02-0.889D-01-0.210D+00-0.245D-01 0.468D+00
 Coeff-Com:  0.821D+00
 Coeff:      0.325D-05-0.661D-05-0.104D-04-0.118D-04 0.256D-04 0.152D-03
 Coeff:      0.491D-03 0.879D-03-0.745D-03-0.678D-02-0.499D-02 0.135D-01
 Coeff:      0.231D-01 0.837D-02-0.889D-01-0.210D+00-0.245D-01 0.468D+00
 Coeff:      0.821D+00
 Gap=     0.120 Goal=   None    Shift=    0.000
 RMSDP=7.53D-09 MaxDP=5.52D-07 DE= 9.09D-11 OVMax= 4.90D-06

 SCF Done:  E(RCAM-B3LYP) =  -4069.81186062     A.U. after   19 cycles
            NFock= 19  Conv=0.75D-08     -V/T= 2.0102
 KE= 4.028800559170D+03 PE=-4.045826949043D+04 EE= 1.687108932122D+04
 Leave Link  502 at Thu Aug 19 21:00:41 2021, MaxMem= 23488102400 cpu:           15235.2 elap:             661.2
 (Enter /sw/apps/gaussian-16.0/g16/l801.exe)
 DoSCS=F DFT=T ScalE2(SS,OS)=  1.000000  1.000000
 ExpMin= 3.36D-02 ExpMax= 4.95D+03 ExpMxC= 7.45D+02 IAcc=3 IRadAn=         5 AccDes= 0.00D+00
 HarFok:  IExCor=  205 AccDes= 0.00D+00 IRadAn=         5 IDoV=-2 UseB2=F ITyADJ=14
 ICtDFT= 12500011 ScaDFX=  1.000000  1.000000  1.000000  1.000000
 GSVD:  LWork=       -9588 too small for GESVD, short by       45590 words or       45590 for optimal perf.
 Largest valence mixing into a core orbital is  2.03D-04
 Largest core mixing into a valence orbital is  5.23D-05
 Range of M.O.s used for correlation:    95  1572
 NBasis=  1572 NAE=   312 NBE=   312 NFC=    94 NFV=     0
 NROrb=   1478 NOA=   218 NOB=   218 NVA=  1260 NVB=  1260
 Leave Link  801 at Thu Aug 19 21:00:41 2021, MaxMem= 23488102400 cpu:               8.1 elap:               0.4
 (Enter /sw/apps/gaussian-16.0/g16/l914.exe)
 RHF ground state
 Two-electron integrals replicated using symmetry.
 MDV= 23488102400 DFT=T DoStab=F Mixed=T DoRPA=T DoScal=F NonHer=T
 Making orbital integer symmetry assigments:
 Orbital symmetries:
       Occupied  (A) (A) (A) (A) (A) (A) (A) (A) (A) (A) (A) (A)
                 (A) (A) (A) (A) (A) (A) (A) (A) (A) (A) (A) (A)
                 (A) (A) (A) (A) (A) (A) (A) (A) (A) (A) (A) (A)
                 (A) (A) (A) (A) (A) (A) (A) (A) (A) (A) (A) (A)
                 (A) (A) (A) (A) (A) (A) (A) (A) (A) (A) (A) (A)
                 (A) (A) (A) (A) (A) (A) (A) (A) (A) (A) (A) (A)
                 (A) (A) (A) (A) (A) (A) (A) (A) (A) (A) (A) (A)
                 (A) (A) (A) (A) (A) (A) (A) (A) (A) (A) (A) (A)
                 (A) (A) (A) (A) (A) (A) (A) (A) (A) (A) (A) (A)
                 (A) (A) (A) (A) (A) (A) (A) (A) (A) (A) (A) (A)
                 (A) (A) (A) (A) (A) (A) (A) (A) (A) (A) (A) (A)
                 (A) (A) (A) (A) (A) (A) (A) (A) (A) (A) (A) (A)
                 (A) (A) (A) (A) (A) (A) (A) (A) (A) (A) (A) (A)
                 (A) (A) (A) (A) (A) (A) (A) (A) (A) (A) (A) (A)
                 (A) (A) (A) (A) (A) (A) (A) (A) (A) (A) (A) (A)
                 (A) (A) (A) (A) (A) (A) (A) (A) (A) (A) (A) (A)
                 (A) (A) (A) (A) (A) (A) (A) (A) (A) (A) (A) (A)
                 (A) (A) (A) (A) (A) (A) (A) (A) (A) (A) (A) (A)
                 (A) (A) (A) (A) (A) (A) (A) (A) (A) (A) (A) (A)
                 (A) (A) (A) (A) (A) (A) (A) (A) (A) (A) (A) (A)
                 (A) (A) (A) (A) (A) (A) (A) (A) (A) (A) (A) (A)
                 (A) (A) (A) (A) (A) (A) (A) (A) (A) (A) (A) (A)
                 (A) (A) (A) (A) (A) (A) (A) (A) (A) (A) (A) (A)
                 (A) (A) (A) (A) (A) (A) (A) (A) (A) (A) (A) (A)
                 (A) (A) (A) (A) (A) (A) (A) (A) (A) (A) (A) (A)
                 (A) (A) (A) (A) (A) (A) (A) (A) (A) (A) (A) (A)
       Virtual   (A) (A) (A) (A) (A) (A) (A) (A) (A) (A) (A) (A)
                 (A) (A) (A) (A) (A) (A) (A) (A) (A) (A) (A) (A)
                 (A) (A) (A) (A) (A) (A) (A) (A) (A) (A) (A) (A)
                 (A) (A) (A) (A) (A) (A) (A) (A) (A) (A) (A) (A)
                 (A) (A) (A) (A) (A) (A) (A) (A) (A) (A) (A) (A)
                 (A) (A) (A) (A) (A) (A) (A) (A) (A) (A) (A) (A)
                 (A) (A) (A) (A) (A) (A) (A) (A) (A) (A) (A) (A)
                 (A) (A) (A) (A) (A) (A) (A) (A) (A) (A) (A) (A)
                 (A) (A) (A) (A) (A) (A) (A) (A) (A) (A) (A) (A)
                 (A) (A) (A) (A) (A) (A) (A) (A) (A) (A) (A) (A)
                 (A) (A) (A) (A) (A) (A) (A) (A) (A) (A) (A) (A)
                 (A) (A) (A) (A) (A) (A) (A) (A) (A) (A) (A) (A)
                 (A) (A) (A) (A) (A) (A) (A) (A) (A) (A) (A) (A)
                 (A) (A) (A) (A) (A) (A) (A) (A) (A) (A) (A) (A)
                 (A) (A) (A) (A) (A) (A) (A) (A) (A) (A) (A) (A)
                 (A) (A) (A) (A) (A) (A) (A) (A) (A) (A) (A) (A)
                 (A) (A) (A) (A) (A) (A) (A) (A) (A) (A) (A) (A)
                 (A) (A) (A) (A) (A) (A) (A) (A) (A) (A) (A) (A)
                 (A) (A) (A) (A) (A) (A) (A) (A) (A) (A) (A) (A)
                 (A) (A) (A) (A) (A) (A) (A) (A) (A) (A) (A) (A)
                 (A) (A) (A) (A) (A) (A) (A) (A) (A) (A) (A) (A)
                 (A) (A) (A) (A) (A) (A) (A) (A) (A) (A) (A) (A)
                 (A) (A) (A) (A) (A) (A) (A) (A) (A) (A) (A) (A)
                 (A) (A) (A) (A) (A) (A) (A) (A) (A) (A) (A) (A)
                 (A) (A) (A) (A) (A) (A) (A) (A) (A) (A) (A) (A)
                 (A) (A) (A) (A) (A) (A) (A) (A) (A) (A) (A) (A)
                 (A) (A) (A) (A) (A) (A) (A) (A) (A) (A) (A) (A)
                 (A) (A) (A) (A) (A) (A) (A) (A) (A) (A) (A) (A)
                 (A) (A) (A) (A) (A) (A) (A) (A) (A) (A) (A) (A)
                 (A) (A) (A) (A) (A) (A) (A) (A) (A) (A) (A) (A)
                 (A) (A) (A) (A) (A) (A) (A) (A) (A) (A) (A) (A)
                 (A) (A) (A) (A) (A) (A) (A) (A) (A) (A) (A) (A)
                 (A) (A) (A) (A) (A) (A) (A) (A) (A) (A) (A) (A)
                 (A) (A) (A) (A) (A) (A) (A) (A) (A) (A) (A) (A)
                 (A) (A) (A) (A) (A) (A) (A) (A) (A) (A) (A) (A)
                 (A) (A) (A) (A) (A) (A) (A) (A) (A) (A) (A) (A)
                 (A) (A) (A) (A) (A) (A) (A) (A) (A) (A) (A) (A)
                 (A) (A) (A) (A) (A) (A) (A) (A) (A) (A) (A) (A)
                 (A) (A) (A) (A) (A) (A) (A) (A) (A) (A) (A) (A)
                 (A) (A) (A) (A) (A) (A) (A) (A) (A) (A) (A) (A)
                 (A) (A) (A) (A) (A) (A) (A) (A) (A) (A) (A) (A)
                 (A) (A) (A) (A) (A) (A) (A) (A) (A) (A) (A) (A)
                 (A) (A) (A) (A) (A) (A) (A) (A) (A) (A) (A) (A)
                 (A) (A) (A) (A) (A) (A) (A) (A) (A) (A) (A) (A)
                 (A) (A) (A) (A) (A) (A) (A) (A) (A) (A) (A) (A)
                 (A) (A) (A) (A) (A) (A) (A) (A) (A) (A) (A) (A)
                 (A) (A) (A) (A) (A) (A) (A) (A) (A) (A) (A) (A)
                 (A) (A) (A) (A) (A) (A) (A) (A) (A) (A) (A) (A)
                 (A) (A) (A) (A) (A) (A) (A) (A) (A) (A) (A) (A)
                 (A) (A) (A) (A) (A) (A) (A) (A) (A) (A) (A) (A)
                 (A) (A) (A) (A) (A) (A) (A) (A) (A) (A) (A) (A)
                 (A) (A) (A) (A) (A) (A) (A) (A) (A) (A) (A) (A)
                 (A) (A) (A) (A) (A) (A) (A) (A) (A) (A) (A) (A)
                 (A) (A) (A) (A) (A) (A) (A) (A) (A) (A) (A) (A)
                 (A) (A) (A) (A) (A) (A) (A) (A) (A) (A) (A) (A)
                 (A) (A) (A) (A) (A) (A) (A) (A) (A) (A) (A) (A)
                 (A) (A) (A) (A) (A) (A) (A) (A) (A) (A) (A) (A)
                 (A) (A) (A) (A) (A) (A) (A) (A) (A) (A) (A) (A)
                 (A) (A) (A) (A) (A) (A) (A) (A) (A) (A) (A) (A)
                 (A) (A) (A) (A) (A) (A) (A) (A) (A) (A) (A) (A)
                 (A) (A) (A) (A) (A) (A) (A) (A) (A) (A) (A) (A)
                 (A) (A) (A) (A) (A) (A) (A) (A) (A) (A) (A) (A)
                 (A) (A) (A) (A) (A) (A) (A) (A) (A) (A) (A) (A)
                 (A) (A) (A) (A) (A) (A) (A) (A) (A) (A) (A) (A)
                 (A) (A) (A) (A) (A) (A) (A) (A) (A) (A) (A) (A)
                 (A) (A) (A) (A) (A) (A) (A) (A) (A) (A) (A) (A)
                 (A) (A) (A) (A) (A) (A) (A) (A) (A) (A) (A) (A)
                 (A) (A) (A) (A) (A) (A) (A) (A) (A) (A) (A) (A)
                 (A) (A) (A) (A) (A) (A) (A) (A) (A) (A) (A) (A)
                 (A) (A) (A) (A) (A) (A) (A) (A) (A) (A) (A) (A)
                 (A) (A) (A) (A) (A) (A) (A) (A) (A) (A) (A) (A)
                 (A) (A) (A) (A) (A) (A) (A) (A) (A) (A) (A) (A)
                 (A) (A) (A) (A) (A) (A) (A) (A) (A) (A) (A) (A)
                 (A) (A) (A) (A) (A) (A) (A) (A) (A) (A) (A) (A)
                 (A) (A) (A) (A) (A) (A) (A) (A) (A) (A) (A) (A)
                 (A) (A) (A) (A) (A) (A) (A) (A) (A) (A) (A) (A)
                 (A) (A) (A) (A) (A) (A) (A) (A) (A) (A) (A) (A)
                 (A) (A) (A) (A) (A) (A) (A) (A) (A) (A) (A) (A)
                 (A) (A) (A) (A) (A) (A) (A) (A) (A) (A) (A) (A)
                 (A) (A) (A) (A) (A) (A) (A) (A) (A) (A) (A) (A)
                 (A) (A) (A) (A) (A) (A) (A) (A) (A) (A) (A) (A)
                 (A) (A) (A) (A) (A) (A) (A) (A) (A) (A) (A) (A)
                 (A) (A) (A) (A) (A) (A) (A) (A) (A) (A) (A) (A)
                 (A) (A) (A) (A) (A) (A) (A) (A) (A) (A) (A) (A)
                 (A) (A) (A) (A) (A) (A) (A) (A) (A) (A) (A) (A)
                 (A) (A) (A) (A) (A) (A) (A) (A) (A) (A) (A) (A)
                 (A) (A) (A) (A) (A) (A) (A) (A) (A) (A) (A) (A)
                 (A) (A) (A) (A) (A) (A) (A) (A) (A) (A) (A) (A)
                 (A) (A) (A) (A) (A) (A) (A) (A) (A) (A) (A) (A)
                 (A) (A) (A) (A) (A) (A) (A) (A) (A) (A) (A) (A)
                 (A) (A) (A) (A) (A) (A) (A) (A) (A) (A) (A) (A)
                 (A) (A) (A) (A) (A) (A) (A) (A) (A) (A) (A) (A)
                 (A) (A) (A) (A) (A) (A) (A) (A) (A) (A) (A) (A)
                 (A) (A) (A) (A) (A) (A) (A) (A) (A) (A) (A) (A)
                 (A) (A) (A) (A) (A) (A) (A) (A) (A) (A) (A) (A)
                 (A) (A) (A) (A) (A) (A) (A) (A) (A) (A) (A) (A)
                 (A) (A) (A) (A) (A) (A) (A) (A) (A) (A) (A) (A)
                 (A) (A) (A) (A) (A) (A) (A) (A) (A) (A) (A) (A)
                 (A) (A) (A) (A) (A) (A) (A) (A) (A) (A) (A) (A)
                 (A) (A) (A) (A) (A) (A) (A) (A) (A) (A) (A) (A)
                 (A) (A) (A) (A) (A) (A) (A) (A) (A) (A) (A) (A)
                 (A) (A) (A) (A) (A) (A) (A) (A) (A) (A) (A) (A)
                 (A) (A) (A) (A) (A) (A) (A) (A) (A) (A) (A) (A)
                 (A) (A) (A) (A) (A) (A) (A) (A) (A) (A) (A) (A)
                 (A) (A) (A) (A) (A) (A) (A) (A) (A) (A) (A) (A)
    20 initial guesses have been made.
 Convergence on wavefunction:    0.001000000000000
 Davidson Disk Diagonalization:  ConvIn= 1.00D-03 SkipCon=T Conv= 1.00D-03.
 Max sub-space:  2000 roots to seek:    20 dimension of matrix:       549360
 Iteration     1 Dimension    20 NMult     0 NNew     20
 CISAX will form    20 AO SS matrices at one time.
 NMat=    20 NSing=    20 JSym2X= 0.
 FoFJK:  IHMeth= 1 ICntrl=       0 DoSepK=T KAlg= 0 I1Cent=           0 FoldK=F
 IRaf=         1 NMat=      40 IRICut=       1 DoRegI=T DoRafI=F ISym2E= 0 IDoP0=3 IntGTp=3.
 FoFCou: FMM=T IPFlag=           0 FMFlag=      100000 FMFlg1=        2001
         NFxFlg=           0 DoJE=F BraDBF=F KetDBF=F FulRan=T
         wScrn=  0.000000 ICntrl=       500 IOpCl=  0 I1Cent=           0 NGrid=           0
         NMat0=   20 NMatS0=     20 NMatT0=    0 NMatD0=   20 NMtDS0=    0 NMtDT0=    0
 Symmetry not used in FoFCou.
 FMM levels:  10  Number of levels for PrismC:   9
 New state      2 was old state      4
 New state      3 was old state      7
 New state      4 was old state      6
 New state      5 was old state      2
 Excitation Energies [eV] at current iteration:
 Root      1 :     2.349845811596830
 Root      2 :     2.528646174099443
 Root      3 :     2.602561984793601
 Root      4 :     2.614535987050260
 Root      5 :     2.650353290760944
 Root      6 :     2.729493035076467
 Root      7 :     3.134691964299973
 Root      8 :     3.320948756567869
 Root      9 :     3.620550142997106
 Root     10 :     3.665825794868929
 Root     11 :     3.739962415384599
 Root     12 :     3.765080858013382
 Root     13 :     4.252554387234389
 Root     14 :     4.271688415625099
 Root     15 :     4.335857276648486
 Root     16 :     4.454826557838444
 Root     17 :     4.573465072388029
 Root     18 :     4.617645783904971
 Root     19 :     4.726057852019777
 Root     20 :     4.761110116171913
 Iteration     2 Dimension    30 NMult    20 NNew     10
 CISAX will form    10 AO SS matrices at one time.
 NMat=    10 NSing=    10 JSym2X= 0.
 New state      1 was old state      5
 Root      1 not converged, maximum delta is    0.310972758737033
 New state      2 was old state      4
 Root      2 not converged, maximum delta is    0.133485461501578
 Root      3 not converged, maximum delta is    0.257391099960433
 New state      4 was old state      1
 Root      4 not converged, maximum delta is    0.003416583841307
 New state      5 was old state      2
 Root      5 not converged, maximum delta is    0.005998710225934
 Excitation Energies [eV] at current iteration:
 Root      1 :     1.779100617859932   Change is   -0.871252672901012
 Root      2 :     2.213276745806937   Change is   -0.401259241243323
 Root      3 :     2.239732497316070   Change is   -0.362829487477531
 Root      4 :     2.349011806063042   Change is   -0.000834005533788
 Root      5 :     2.527656678767181   Change is   -0.000989495332261
 Iteration     3 Dimension    40 NMult    30 NNew     10
 CISAX will form    10 AO SS matrices at one time.
 NMat=    10 NSing=    10 JSym2X= 0.
 Root      1 not converged, maximum delta is    0.052628767700230
 Root      2 not converged, maximum delta is    0.375723543697296
 Root      3 not converged, maximum delta is    0.139121874475201
 No map to state      4
 New state      5 was old state      4
 Root      5 has converged.
 Excitation Energies [eV] at current iteration:
 Root      1 :     1.674260065115392   Change is   -0.104840552744540
 Root      2 :     1.948912570401980   Change is   -0.264364175404957
 Root      3 :     2.198689382846853   Change is   -0.041043114469217
 Root      4 :     2.237782005130641
 Root      5 :     2.349006080592019   Change is   -0.000005725471023
 Iteration     4 Dimension    48 NMult    40 NNew      8
 CISAX will form     8 AO SS matrices at one time.
 NMat=     8 NSing=     8 JSym2X= 0.
 Root      1 not converged, maximum delta is    0.010627970551061
 Root      2 not converged, maximum delta is    0.176793225387550
 New state      3 was old state      4
 Root      3 not converged, maximum delta is    0.324037303229395
 New state      4 was old state      3
 Root      4 not converged, maximum delta is    0.312364690903785
 Root      5 has converged.
 Excitation Energies [eV] at current iteration:
 Root      1 :     1.657670953457943   Change is   -0.016589111657448
 Root      2 :     1.712713194059327   Change is   -0.236199376342653
 Root      3 :     2.186145308082717   Change is   -0.051636697047923
 Root      4 :     2.193066644137074   Change is   -0.005622738709780
 Root      5 :     2.349005644816454   Change is   -0.000000435775564
 Iteration     5 Dimension    56 NMult    48 NNew      8
 CISAX will form     8 AO SS matrices at one time.
 NMat=     8 NSing=     8 JSym2X= 0.
 Root      1 not converged, maximum delta is    0.002323683191448
 Root      2 not converged, maximum delta is    0.013156531277104
 Root      3 not converged, maximum delta is    0.039826129209409
 Root      4 not converged, maximum delta is    0.039870900208521
 Root      5 has converged.
 Excitation Energies [eV] at current iteration:
 Root      1 :     1.655956035661873   Change is   -0.001714917796070
 Root      2 :     1.695954712500363   Change is   -0.016758481558964
 Root      3 :     2.184420256135206   Change is   -0.001725051947511
 Root      4 :     2.191930896430144   Change is   -0.001135747706930
 Root      5 :     2.349005624541029   Change is   -0.000000020275425
 Iteration     6 Dimension    64 NMult    56 NNew      8
 CISAX will form     8 AO SS matrices at one time.
 NMat=     8 NSing=     8 JSym2X= 0.
 Root      1 has converged.
 Root      2 not converged, maximum delta is    0.005236846382140
 Root      3 not converged, maximum delta is    0.006044487860937
 Root      4 not converged, maximum delta is    0.006131165473977
 Root      5 has converged.
 Excitation Energies [eV] at current iteration:
 Root      1 :     1.655712621658223   Change is   -0.000243414003650
 Root      2 :     1.693080985447023   Change is   -0.002873727053340
 Root      3 :     2.184103166756580   Change is   -0.000317089378627
 Root      4 :     2.191770138774645   Change is   -0.000160757655499
 Root      5 :     2.349005614568186   Change is   -0.000000009972843
 Iteration     7 Dimension    70 NMult    64 NNew      6
 CISAX will form     6 AO SS matrices at one time.
 NMat=     6 NSing=     6 JSym2X= 0.
 Root      1 has converged.
 Root      2 has converged.
 Root      3 has converged.
 Root      4 has converged.
 Root      5 has converged.
 Excitation Energies [eV] at current iteration:
 Root      1 :     1.655711983164584   Change is   -0.000000638493638
[...]
 Alpha virt. eigenvalues --    1.82825   1.82948   1.83004   1.83336   1.83351
 Alpha virt. eigenvalues --    1.83604   1.83729   1.83974   1.84048   1.84290
 Alpha virt. eigenvalues --    1.84413   1.84677   1.84739   1.84915   1.85102
 Alpha virt. eigenvalues --    1.85201   1.85243   1.85351   1.85467   1.85631
 Alpha virt. eigenvalues --    1.85827   1.86047   1.86303   1.86464   1.86551
 Alpha virt. eigenvalues --    1.86764   1.86782   1.86964   1.87069   1.87174
 Alpha virt. eigenvalues --    1.87425   1.87610   1.87663   1.87826   1.87876
 Alpha virt. eigenvalues --    1.88002   1.88158   1.88308   1.88477   1.88691
 Alpha virt. eigenvalues --    1.88789   1.89026   1.89112   1.89204   1.89537
 Alpha virt. eigenvalues --    1.89657   1.89786   1.90022   1.90083   1.90322
 Alpha virt. eigenvalues --    1.90728   1.91017   1.91325   1.91419   1.91545
 Alpha virt. eigenvalues --    1.91671   1.92117   1.92300   1.92629   1.92757
 Alpha virt. eigenvalues --    1.92934   1.93277   1.93318   1.93662   1.94268
 Alpha virt. eigenvalues --    1.94443   1.94626   1.94957   1.95457   1.95706
 Alpha virt. eigenvalues --    1.95739   1.95913   1.95979   1.96112   1.96193
 Alpha virt. eigenvalues --    1.96281   1.96562   1.96628   1.96851   1.97058
 Alpha virt. eigenvalues --    1.97424   1.97655   1.97816   1.97922   1.98137
 Alpha virt. eigenvalues --    1.98282   1.98446   1.98706   1.99123   1.99207
 Alpha virt. eigenvalues --    1.99796   2.00032   2.00614   2.00871   2.00980
 Alpha virt. eigenvalues --    2.01215   2.01472   2.01630   2.01659   2.01700
 Alpha virt. eigenvalues --    2.01736   2.01922   2.02751   2.02838   2.03202
 Alpha virt. eigenvalues --    2.03323   2.03407   2.03463   2.03503   2.03654
 Alpha virt. eigenvalues --    2.04015   2.04173   2.04889   2.05131   2.05456
 Alpha virt. eigenvalues --    2.05777   2.06010   2.06419   2.06896   2.07128
 Alpha virt. eigenvalues --    2.07154   2.07523   2.08480   2.08697   2.08926
 Alpha virt. eigenvalues --    2.09132   2.09554   2.09744   2.10750   2.11134
 Alpha virt. eigenvalues --    2.11194   2.11529   2.11556   2.11613   2.11662
 Alpha virt. eigenvalues --    2.11989   2.12434   2.12570   2.12735   2.12796
 Alpha virt. eigenvalues --    2.12963   2.13012   2.13703   2.13765   2.14095
 Alpha virt. eigenvalues --    2.14496   2.15284   2.15544   2.15897   2.16226
 Alpha virt. eigenvalues --    2.16467   2.16693   2.16744   2.17341   2.17409
 Alpha virt. eigenvalues --    2.17659   2.17803   2.18026   2.18057   2.18214
 Alpha virt. eigenvalues --    2.18300   2.18769   2.18859   2.19325   2.19607
 Alpha virt. eigenvalues --    2.19939   2.20002   2.20178   2.20399   2.20553
 Alpha virt. eigenvalues --    2.21133   2.21331   2.21613   2.21714   2.21919
 Alpha virt. eigenvalues --    2.22010   2.22637   2.22832   2.23278   2.23576
 Alpha virt. eigenvalues --    2.24328   2.24585   2.24922   2.25205   2.26270
 Alpha virt. eigenvalues --    2.26556   2.26745   2.27073   2.27130   2.27334
 Alpha virt. eigenvalues --    2.28102   2.28404   2.29214   2.29570   2.29692
 Alpha virt. eigenvalues --    2.30006   2.30433   2.30696   2.30870   2.31055
 Alpha virt. eigenvalues --    2.31206   2.31375   2.32064   2.32386   2.33091
 Alpha virt. eigenvalues --    2.33340   2.33434   2.33605   2.34132   2.34259
 Alpha virt. eigenvalues --    2.35379   2.35388   2.35745   2.36015   2.36312
 Alpha virt. eigenvalues --    2.36473   2.36551   2.36606   2.37636   2.37851
 Alpha virt. eigenvalues --    2.38165   2.38524   2.38832   2.38847   2.39553
 Alpha virt. eigenvalues --    2.39797   2.40191   2.40403   2.40453   2.40903
 Alpha virt. eigenvalues --    2.41280   2.41292   2.41687   2.41842   2.42025
 Alpha virt. eigenvalues --    2.42246   2.42921   2.42962   2.43077   2.43600
 Alpha virt. eigenvalues --    2.44080   2.44150   2.44675   2.44866   2.44934
 Alpha virt. eigenvalues --    2.45115   2.45493   2.45730   2.46190   2.46407
 Alpha virt. eigenvalues --    2.46423   2.46666   2.46747   2.46934   2.47227
 Alpha virt. eigenvalues --    2.47541   2.47671   2.48027   2.49237   2.49533
 Alpha virt. eigenvalues --    2.50026   2.50036   2.50506   2.50585   2.51093
 Alpha virt. eigenvalues --    2.51370   2.51736   2.51841   2.52430   2.52449
 Alpha virt. eigenvalues --    2.52771   2.53258   2.53859   2.54029   2.54095
 Alpha virt. eigenvalues --    2.54415   2.54745   2.54961   2.55438   2.55802
 Alpha virt. eigenvalues --    2.57782   2.58208   2.58596   2.59031   2.60176
 Alpha virt. eigenvalues --    2.60382   2.60585   2.60998   2.61637   2.61943
 Alpha virt. eigenvalues --    2.62495   2.62545   2.62912   2.63259   2.63882
 Alpha virt. eigenvalues --    2.64214   2.64309   2.64583   2.65042   2.65221
 Alpha virt. eigenvalues --    2.65750   2.65930   2.66737   2.66856   2.66950
 Alpha virt. eigenvalues --    2.67158   2.67860   2.68097   2.68801   2.68924
 Alpha virt. eigenvalues --    2.69000   2.69110   2.69357   2.69698   2.69964
 Alpha virt. eigenvalues --    2.70276   2.70954   2.71141   2.71979   2.72020
 Alpha virt. eigenvalues --    2.72578   2.72611   2.72814   2.72873   2.73239
 Alpha virt. eigenvalues --    2.73423   2.73515   2.73553   2.74468   2.74636
 Alpha virt. eigenvalues --    2.74930   2.75180   2.76553   2.76648   2.77182
 Alpha virt. eigenvalues --    2.77197   2.77375   2.77706   2.78073   2.78407
 Alpha virt. eigenvalues --    2.78699   2.78808   2.79082   2.79237   2.80250
 Alpha virt. eigenvalues --    2.80372   2.80566   2.80759   2.81055   2.81280
 Alpha virt. eigenvalues --    2.81879   2.82079   2.82288   2.82460   2.83646
 Alpha virt. eigenvalues --    2.83726   2.83977   2.83997   2.84479   2.84682
 Alpha virt. eigenvalues --    2.84833   2.85020   2.85578   2.85797   2.86745
 Alpha virt. eigenvalues --    2.86966   2.87223   2.87638   2.88040   2.88350
 Alpha virt. eigenvalues --    2.88469   2.88762   2.88878   2.89016   2.90479
 Alpha virt. eigenvalues --    2.90733   2.91135   2.91200   2.93113   2.93407
 Alpha virt. eigenvalues --    2.93877   2.94150   2.94479   2.94696   2.95363
 Alpha virt. eigenvalues --    2.95494   2.95843   2.96235   2.96436   2.96469
 Alpha virt. eigenvalues --    2.96902   2.97202   2.97812   2.98120   2.98140
 Alpha virt. eigenvalues --    2.98320   2.98390   2.98549   2.98659   2.98808
 Alpha virt. eigenvalues --    2.98952   2.99137   2.99542   2.99912   2.99999
 Alpha virt. eigenvalues --    3.00060   3.00212   3.00429   3.00451   3.01049
 Alpha virt. eigenvalues --    3.01942   3.01967   3.01995   3.02154   3.02734
 Alpha virt. eigenvalues --    3.02865   3.02979   3.03247   3.03386   3.03752
 Alpha virt. eigenvalues --    3.04102   3.04193   3.04396   3.04517   3.04540
 Alpha virt. eigenvalues --    3.04948   3.05231   3.05517   3.06067   3.06310
 Alpha virt. eigenvalues --    3.06796   3.07044   3.08026   3.08053   3.09361
 Alpha virt. eigenvalues --    3.09477   3.09676   3.10411   3.10433   3.10809
 Alpha virt. eigenvalues --    3.11283   3.11577   3.11932   3.12022   3.12197
 Alpha virt. eigenvalues --    3.12339   3.13248   3.13573   3.13715   3.13834
 Alpha virt. eigenvalues --    3.14117   3.14497   3.15905   3.16113   3.17202
 Alpha virt. eigenvalues --    3.17658   3.17968   3.17995   3.19039   3.19162
 Alpha virt. eigenvalues --    3.22319   3.22644   3.23883   3.24558   3.24634
 Alpha virt. eigenvalues --    3.25297   3.26443   3.26788   3.27511   3.27568
 Alpha virt. eigenvalues --    3.29121   3.29255   3.31464   3.31497   3.33312
 Alpha virt. eigenvalues --    3.33352   3.40260   3.40683   3.42707   3.42930
 Alpha virt. eigenvalues --    3.48604   3.48819   3.49963   3.50405   3.50949
 Alpha virt. eigenvalues --    3.51408   3.56477   3.57132   3.59040   3.59474
 Alpha virt. eigenvalues --    3.62637   3.62779   3.66055   3.66223   3.67216
 Alpha virt. eigenvalues --    3.67563   3.73276   3.74075   3.76043   3.76751
          Condensed to atoms (all electrons):
 Mulliken charges:
               1
     1  Mg   0.838768
     2  C   -0.002723
     3  C   -0.094566
     4  C   -0.045857
     5  C   -0.064132
     6  N   -0.256839
     7  C   -0.052118
     8  C   -0.013950
     9  C   -0.086867
    10  C    0.046250
    11  C    0.104807
    12  C    0.053598
    13  C   -0.073036
    14  H    0.039636
    15  N   -0.433022
    16  C    0.168059
    17  C   -0.177895
    18  C   -0.004735
    19  C    0.148665
    20  C    0.110292
    21  C    0.011254
    22  O   -0.249642
    23  C    0.063154
    24  N   -0.341279
    25  C    0.041396
    26  C   -0.028188
    27  C   -0.024083
    28  C    0.075362
    29  C    0.076117
    30  C    0.034884
    31  C   -0.005291
    32  N   -0.310551
    33  C    0.080784
    34  C   -0.170059
    35  C    0.008447
    36  C    0.083211
    37  C    0.127361
    38  C    0.046023
    39  O   -0.187976
    40  C   -0.005191
    41  C    0.212841
    42  O   -0.257021
    43  O   -0.305006
    44  C    0.157253
    45  H   -0.017640
    46  H   -0.016963
    47  H   -0.041384
    48  H    0.001357
    49  H   -0.004115
    50  H    0.025646
    51  H    0.016264
    52  H    0.016808
    53  H    0.009961
    54  H    0.044906
    55  H    0.017785
    56  H    0.017322
    57  H    0.006171
    58  H    0.026993
    59  H    0.037384
    60  H    0.038080
    61  H    0.034849
    62  H    0.028899
    63  H    0.016761
    64  H    0.009594
    65  H    0.023300
    66  H    0.012418
    67  H    0.004933
    68  H    0.006979
    69  H    0.004354
    70  H    0.009796
    71  H    0.019586
    72  H    0.028468
    73  H    0.047206
    74  H    0.009092
    75  H    0.046454
    76  H    0.035400
    77  H    0.043152
    78  H    0.047108
    79  H    0.054910
    80  Mg   0.837987
    81  C   -0.016790
    82  C   -0.088003
    83  C   -0.045253
    84  C   -0.061989
    85  N   -0.254425
    86  C   -0.049787
    87  C   -0.014975
    88  C   -0.090614
    89  C    0.045544
    90  C    0.114851
    91  C    0.062715
    92  C   -0.077389
    93  H    0.034495
    94  N   -0.423388
    95  C    0.162432
    96  C   -0.174390
    97  C   -0.008018
    98  C    0.151849
    99  C    0.099288
   100  C    0.015431
   101  O   -0.253933
   102  C    0.061200
   103  N   -0.349748
   104  C    0.037222
   105  C   -0.019972
   106  C   -0.035332
   107  C    0.088848
   108  C    0.072973
   109  C    0.034669
   110  C   -0.007560
   111  N   -0.324617
   112  C    0.078647
   113  C   -0.159861
   114  C    0.002859
   115  C    0.096631
   116  C    0.130211
   117  C    0.043469
   118  O   -0.188627
   119  C    0.000537
   120  C    0.210963
   121  O   -0.251081
   122  O   -0.305996
   123  C    0.152188
   124  H   -0.020640
   125  H   -0.016186
   126  H   -0.038877
   127  H   -0.001830
   128  H   -0.005305
   129  H    0.022427
   130  H    0.015808
   131  H    0.012605
   132  H    0.014089
   133  H    0.037805
   134  H    0.019612
   135  H    0.019185
   136  H    0.007897
   137  H    0.027108
   138  H    0.038963
   139  H    0.038725
   140  H    0.035753
   141  H    0.033499
   142  H    0.013867
   143  H    0.014582
   144  H    0.023668
   145  H    0.012167
   146  H    0.006310
   147  H    0.005726
   148  H    0.004407
   149  H    0.010457
   150  H    0.017629
   151  H    0.030054
   152  H    0.044434
   153  H    0.008412
   154  H    0.053854
   155  H    0.034797
   156  H    0.043180
   157  H    0.048972
   158  H    0.053613
 Sum of Mulliken charges =  -0.00000
 Mulliken charges with hydrogens summed into heavy atoms:
               1
     1  Mg   0.838768
     2  C   -0.002723
     3  C   -0.112206
     4  C   -0.062820
     5  C   -0.105516
     6  N   -0.256839
     7  C   -0.052118
     8  C   -0.012594
     9  C   -0.090983
    10  C    0.046250
    11  C    0.163525
    12  C    0.108465
    13  C    0.001707
    15  N   -0.433022
    16  C    0.168059
    17  C   -0.177895
    18  C   -0.004735
    19  C    0.148665
    20  C    0.180841
    21  C    0.011254
    22  O   -0.249642
    23  C    0.164983
    24  N   -0.341279
    25  C    0.041396
    26  C   -0.011427
    27  C   -0.014488
    28  C    0.075362
    29  C    0.116767
    30  C    0.046216
    31  C    0.052559
    32  N   -0.310551
    33  C    0.080784
    34  C   -0.170059
    35  C    0.008447
    36  C    0.083211
    37  C    0.230113
    38  C    0.046023
    39  O   -0.187976
    40  C    0.030209
    41  C    0.212841
    42  O   -0.257021
    43  O   -0.305006
    44  C    0.302424
    80  Mg   0.837987
    81  C   -0.016790
    82  C   -0.108644
    83  C   -0.061439
    84  C   -0.100866
    85  N   -0.254425
    86  C   -0.049787
    87  C   -0.016805
    88  C   -0.095919
    89  C    0.045544
    90  C    0.165692
    91  C    0.114608
    92  C   -0.004096
    94  N   -0.423388
    95  C    0.162432
    96  C   -0.174390
    97  C   -0.008018
    98  C    0.151849
    99  C    0.173256
   100  C    0.015431
   101  O   -0.253933
   102  C    0.169178
   103  N   -0.349748
   104  C    0.037222
   105  C   -0.006105
   106  C   -0.020750
   107  C    0.088848
   108  C    0.115118
   109  C    0.044802
   110  C    0.050580
   111  N   -0.324617
   112  C    0.078647
   113  C   -0.159861
   114  C    0.002859
   115  C    0.096631
   116  C    0.236911
   117  C    0.043469
   118  O   -0.188627
   119  C    0.035334
   120  C    0.210963
   121  O   -0.251081
   122  O   -0.305996
   123  C    0.297953
 Electronic spatial extent (au):  <R**2>=          97560.1968
 Charge=             -0.0000 electrons
 Dipole moment (field-independent basis, Debye):
    X=             -3.4038    Y=              1.8303    Z=              6.8991  Tot=              7.9078
 Quadrupole moment (field-independent basis, Debye-Ang):
   XX=           -519.1830   YY=           -531.8479   ZZ=           -467.4829
   XY=             16.6276   XZ=              0.5215   YZ=            -30.3631
 Traceless Quadrupole moment (field-independent basis, Debye-Ang):
   XX=            -13.0118   YY=            -25.6766   ZZ=             38.6884
   XY=             16.6276   XZ=              0.5215   YZ=            -30.3631
 Octapole moment (field-independent basis, Debye-Ang**2):
  XXX=           -213.4416  YYY=           -212.0874  ZZZ=            144.1524  XYY=           -150.3543
  XXY=             77.1298  XXZ=            172.0147  XZZ=            164.9556  YZZ=             10.0941
  YYZ=            107.6691  XYZ=            182.8210
 Hexadecapole moment (field-independent basis, Debye-Ang**3):
 XXXX=         -66782.5805 YYYY=         -39043.8504 ZZZZ=         -27001.7888 XXXY=            507.6460
 XXXZ=            372.6722 YYYX=            432.2911 YYYZ=           -104.6234 ZZZX=           -874.5651
 ZZZY=           -550.8210 XXYY=         -17720.7316 XXZZ=         -14852.1053 YYZZ=         -11212.6546
 XXYZ=           -876.0323 YYXZ=           1326.1820 ZZXY=           -587.0207
 N-N= 1.548856774943D+04 E-N=-4.045826948234D+04  KE= 4.028800559170D+03
 Leave Link  601 at Thu Aug 19 21:24:52 2021, MaxMem= 23488102400 cpu:              15.9 elap:               0.8
 (Enter /sw/apps/gaussian-16.0/g16/l9999.exe)
 1\1\GINC-BP1-COMPUTE00108\SP\RCAM-B3LYP TD-FC\def2SVP\C68H72Mg2N8O8\OF
 15641\19-Aug-2021\0\\#p cam-b3lyp/Def2SVP td=(nstates=5)\\TDDFT excite
 d states in gaussian\\0,1\Mg,0,0.,0.,0.\C,0,-0.217,-2.218,2.801\C,0,-1
 .255,2.442,2.026\C,0,-0.245,1.85,-2.564\C,0,0.146,-2.824,-2.037\N,0,-0
 .617,-0.009,2.126\C,0,-0.594,-0.908,3.105\C,0,-0.936,-0.309,4.502\C,0,
 -1.773,0.964,4.032\C,0,-1.155,1.168,2.66\C,0,-3.263,0.685,3.863\C,0,0.
 345,0.11,5.299\C,0,0.124,0.397,6.787\H,0,1.168,0.033,7.733\N,0,-0.185,
 1.961,-0.152\C,0,-0.703,2.8,0.777\C,0,-0.62,4.156,0.193\C,0,-0.187,4.0
 15,-1.225\C,0,-0.214,2.583,-1.38\C,0,-0.887,5.406,0.974\C,0,0.181,5.01
 3,-2.277\O,0,0.303,4.69,-3.508\C,0,0.31,6.414,-1.837\N,0,-0.265,-0.413
 ,-2.029\C,0,-0.279,0.569,-2.937\C,0,-0.196,0.024,-4.332\C,0,0.124,-1.5
 33,-4.18\C,0,0.086,-1.632,-2.635\C,0,-1.451,0.205,-5.197\C,0,1.373,-2.
 07,-4.923\C,0,2.626,-1.49,-4.306\N,0,0.15,-2.144,0.303\C,0,0.173,-3.13
 6,-0.688\C,0,0.173,-4.438,0.004\C,0,0.133,-4.111,1.358\C,0,0.083,-2.69
 5,1.502\C,0,0.149,-5.715,-0.623\C,0,0.096,-4.629,2.716\O,0,0.208,-5.74
 7,3.221\C,0,-0.255,-3.428,3.701\C,0,0.717,-3.482,4.848\O,0,1.931,-3.25
 5,4.669\O,0,0.038,-3.556,6.003\C,0,0.943,-3.583,7.183\H,0,-1.859,3.22,
 2.497\H,0,-0.218,2.453,-3.474\H,0,0.276,-3.747,-2.605\H,0,-1.554,-0.94
 9,5.132\H,0,-1.585,1.831,4.665\H,0,-3.484,-0.377,3.969\H,0,-3.511,1.02
 7,2.858\H,0,-3.852,1.301,4.543\H,0,0.669,1.096,4.966\H,0,1.13,-0.639,5
 .189\H,0,-0.844,0.026,7.125\H,0,0.062,1.477,6.921\H,0,-1.344,5.186,1.9
 38\H,0,-1.651,5.963,0.432\H,0,0.007,6.02,1.084\H,0,-0.635,6.744,-1.405
 \H,0,0.665,6.97,-2.704\H,0,1.048,6.466,-1.036\H,0,0.608,0.501,-4.891\H
 ,0,-0.692,-2.156,-4.547\H,0,-1.267,0.74,-6.129\H,0,-2.204,0.714,-4.596
 \H,0,-1.967,-0.72,-5.453\H,0,1.356,-1.759,-5.967\H,0,1.452,-3.157,-4.9
 02\H,0,2.714,-0.522,-4.798\H,0,3.487,-2.121,-4.529\H,0,2.495,-1.303,-3
 .24\H,0,0.867,-6.333,-0.084\H,0,0.404,-5.642,-1.68\H,0,-0.891,-5.999,-
 0.463\H,0,-1.283,-3.581,4.028\H,0,0.698,-4.478,7.755\H,0,0.833,-2.619,
 7.68\H,0,2.,-3.754,6.976\Mg,0,8.94068,0.81264,0.67991\C,0,8.40072,1.58
 235,4.1433\C,0,7.829,3.95645,-0.0379\C,0,8.97667,0.01678,-2.39137\C,0,
 8.90757,-2.55745,1.5671\N,0,8.23496,2.46344,1.97183\C,0,8.13183,2.6626
 5,3.27722\C,0,7.79496,4.12333,3.68031\C,0,7.09134,4.59326,2.3154\C,0,7
 .78235,3.63935,1.34318\C,0,5.59831,4.31227,2.28026\C,0,9.07985,4.97065
 ,3.98548\C,0,8.81784,6.30844,4.68077\H,0,9.78949,6.78549,5.66096\N,0,8
 .94485,1.9551,-0.94285\C,0,8.47439,3.21526,-1.05203\C,0,8.69137,3.6056
 9,-2.45369\C,0,9.17746,2.41496,-3.20243\C,0,9.02877,1.38843,-2.19039\C
 ,0,8.5154,5.014,-2.94268\C,0,9.67943,2.22839,-4.60222\O,0,9.82428,1.06
 306,-5.11589\C,0,9.90752,3.45156,-5.38538\N,0,8.73096,-1.00443,-0.3083
 2\C,0,8.83969,-1.08027,-1.64636\C,0,8.92898,-2.51598,-2.10588\C,0,9.10
 162,-3.38356,-0.77356\C,0,8.98777,-2.258,0.27789\C,0,7.73085,-3.03606,
 -2.89986\C,0,10.32721,-4.33554,-0.70751\C,0,11.60467,-3.52912,-0.65123
 \N,0,8.88595,-0.30941,2.52546\C,0,8.85278,-1.7138,2.66921\C,0,8.70444,
 -2.0005,4.11082\C,0,8.63792,-0.73273,4.70817\C,0,8.71747,0.27301,3.707
 35\C,0,8.60016,-3.29419,4.69528\C,0,8.50783,-0.01666,5.95677\O,0,8.488
 76,-0.33763,7.14435\C,0,8.22128,1.51318,5.63448\C,0,9.13547,2.34716,6.
 48961\O,0,10.36724,2.30783,6.32287\O,0,8.39785,3.21097,7.21081\C,0,9.2
 6077,4.06787,8.0669\H,0,7.28462,4.83418,-0.38737\H,0,9.097,-0.31309,-3
 .42586\H,0,8.98767,-3.58283,1.93432\H,0,7.10188,4.21792,4.50763\H,0,7.
 33878,5.62472,2.07825\H,0,5.277,3.73389,3.13371\H,0,5.42373,3.76361,1.
 36399\H,0,5.0408,5.24815,2.18202\H,0,9.50446,5.33055,3.03948\H,0,9.786
 43,4.39939,4.5556\H,0,7.80074,6.36982,5.08659\H,0,8.85561,7.10245,3.93
 101\H,0,7.99255,5.63393,-2.20395\H,0,7.83027,4.97281,-3.79636\H,0,9.45
 469,5.46844,-3.26497\H,0,8.9807,4.01651,-5.45087\H,0,10.34918,3.11794,
 -6.32639\H,0,10.6236,4.0829,-4.84755\H,0,9.79549,-2.66653,-2.73802\H,0
 ,8.24516,-4.05408,-0.61012\H,0,8.00496,-3.4261,-3.89826\H,0,7.00763,-2
 .2364,-2.98943\H,0,7.15317,-3.81581,-2.40643\H,0,10.3837,-4.9436,-1.61
 372\H,0,10.29992,-5.01687,0.13631\H,0,11.79596,-3.29613,-1.703\H,0,12.
 41245,-4.12038,-0.22469\H,0,11.44785,-2.57953,-0.1265\H,0,9.22885,-3.2
 8965,5.57575\H,0,8.89988,-4.07181,3.99582\H,0,7.52853,-3.32562,4.90953
 \H,0,7.16979,1.70276,5.8536\H,0,8.90747,3.95006,9.09597\H,0,9.20439,5.
 08171,7.62792\H,0,10.3028,3.78772,8.16767\\Version=ES64L-G16RevA.03\St
 ate=1-A\HF=-4069.8118606\RMSD=7.535e-09\PG=C01 [X(C68H72Mg2N8O8)]\\@


 A MAN IS EXACTLY AS GREAT AS THE TIDE SURGING
 BENEATH HIM.      - BISMARCK
 Job cpu time:       0 days 13 hours 55 minutes 17.7 seconds.
 Elapsed time:       0 days  0 hours 35 minutes 27.8 seconds.
 File lengths (MBytes):  RWF=  13225 Int=      0 D2E=      0 Chk=    574 Scr=      1
 Normal termination of Gaussian 16 at Thu Aug 19 21:24:53 2021.
