 Entering Gaussian System, Link 0=g16
 Initial command:
 /sw/apps/gaussian-16.0/g16/l1.exe "/tmp/Gau-202810.inp" -scrdir="/tmp/"
 Entering Link 1 = /sw/apps/gaussian-16.0/g16/l1.exe PID=    202811.
  
 Copyright (c) 1988,1990,1992,1993,1995,1998,2003,2009,2016,
            Gaussian, Inc.  All Rights Reserved.
  
 This is part of the Gaussian(R) 16 program.  It is based on
 the Gaussian(R) 09 system (copyright 2009, Gaussian, Inc.),
 the Gaussian(R) 03 system (copyright 2003, Gaussian, Inc.),
 the Gaussian(R) 98 system (copyright 1998, Gaussian, Inc.),
 the Gaussian(R) 94 system (copyright 1995, Gaussian, Inc.),
 the Gaussian 92(TM) system (copyright 1992, Gaussian, Inc.),
 the Gaussian 90(TM) system (copyright 1990, Gaussian, Inc.),
 the Gaussian 88(TM) system (copyright 1988, Gaussian, Inc.),
 the Gaussian 86(TM) system (copyright 1986, Carnegie Mellon
 University), and the Gaussian 82(TM) system (copyright 1983,
 Carnegie Mellon University). Gaussian is a federally registered
 trademark of Gaussian, Inc.
  
 This software contains proprietary and confidential information,
 including trade secrets, belonging to Gaussian, Inc.
  
 This software is provided under written license and may be
 used, copied, transmitted, or stored only in accord with that
 written license.
  
 The following legend is applicable only to US Government
 contracts under FAR:
  
                    RESTRICTED RIGHTS LEGEND
  
 Use, reproduction and disclosure by the US Government is
 subject to restrictions as set forth in subparagraphs (a)
 and (c) of the Commercial Computer Software - Restricted
 Rights clause in FAR 52.227-19.
  
 Gaussian, Inc.
 340 Quinnipiac St., Bldg. 40, Wallingford CT 06492
  
  
 ---------------------------------------------------------------
 Warning -- This program may not be used in any manner that
 competes with the business of Gaussian, Inc. or will provide
 assistance to any competitor of Gaussian, Inc.  The licensee
 of this program is prohibited from giving any competitor of
 Gaussian, Inc. access to this program.  By using this program,
 the user acknowledges that Gaussian, Inc. is engaged in the
 business of creating and licensing software in the field of
 computational chemistry and represents and warrants to the
 licensee that it is not a competitor of Gaussian, Inc. and that
 it will not use this program in any manner prohibited above.
 ---------------------------------------------------------------
  

 Cite this work as:
 Gaussian 16, Revision A.03,
 M. J. Frisch, G. W. Trucks, H. B. Schlegel, G. E. Scuseria, 
 M. A. Robb, J. R. Cheeseman, G. Scalmani, V. Barone, 
 G. A. Petersson, H. Nakatsuji, X. Li, M. Caricato, A. V. Marenich, 
 J. Bloino, B. G. Janesko, R. Gomperts, B. Mennucci, H. P. Hratchian, 
 J. V. Ortiz, A. F. Izmaylov, J. L. Sonnenberg, D. Williams-Young, 
 F. Ding, F. Lipparini, F. Egidi, J. Goings, B. Peng, A. Petrone, 
 T. Henderson, D. Ranasinghe, V. G. Zakrzewski, J. Gao, N. Rega, 
 G. Zheng, W. Liang, M. Hada, M. Ehara, K. Toyota, R. Fukuda, 
 J. Hasegawa, M. Ishida, T. Nakajima, Y. Honda, O. Kitao, H. Nakai, 
 T. Vreven, K. Throssell, J. A. Montgomery, Jr., J. E. Peralta, 
 F. Ogliaro, M. J. Bearpark, J. J. Heyd, E. N. Brothers, K. N. Kudin, 
 V. N. Staroverov, T. A. Keith, R. Kobayashi, J. Normand, 
 K. Raghavachari, A. P. Rendell, J. C. Burant, S. S. Iyengar, 
 J. Tomasi, M. Cossi, J. M. Millam, M. Klene, C. Adamo, R. Cammi, 
 J. W. Ochterski, R. L. Martin, K. Morokuma, O. Farkas, 
 J. B. Foresman, and D. J. Fox, Gaussian, Inc., Wallingford CT, 2016.
 
 ******************************************
 Gaussian 16:  ES64L-G16RevA.03 25-Dec-2016
                19-Aug-2021 
 ******************************************
 %nproc=24
 Will use up to   24 processors via shared memory.
 %mem=175gb
 -----------------------------------
 #p cam-b3lyp/Def2SVP td=(nstates=5)
 -----------------------------------
 1/38=1,172=1/1;
 2/12=2,17=6,18=5,40=1/2;
 3/5=43,7=101,11=9,25=1,30=1,74=-40/1,2,3,8;
 4//1;
 5/5=2,38=5/2;
 8/6=1,10=1,108=5/1;
 9/41=5,42=1,70=2/14;
 6/7=2,8=2,9=2,10=2/1;
 99/5=1,9=1/99;
 Leave Link    1 at Thu Aug 19 18:55:28 2021, MaxMem= 23488102400 cpu:               0.7 elap:               0.0
 (Enter /sw/apps/gaussian-16.0/g16/l101.exe)
 --------------------------------
 TDDFT excited states in gaussian
 --------------------------------
 Symbolic Z-matrix:
 Charge =  0 Multiplicity = 1
 Mg                    0.        0.        0. 
 C                    -0.217    -2.218     2.801 
 C                    -1.255     2.442     2.026 
 C                    -0.245     1.85     -2.564 
 C                     0.146    -2.824    -2.037 
 N                    -0.617    -0.009     2.126 
 C                    -0.594    -0.908     3.105 
 C                    -0.936    -0.309     4.502 
 C                    -1.773     0.964     4.032 
 C                    -1.155     1.168     2.66 
 C                    -3.263     0.685     3.863 
 C                     0.345     0.11      5.299 
 C                     0.124     0.397     6.787 
 H                     1.168     0.033     7.733 
 N                    -0.185     1.961    -0.152 
 C                    -0.703     2.8       0.777 
 C                    -0.62      4.156     0.193 
 C                    -0.187     4.015    -1.225 
 C                    -0.214     2.583    -1.38 
 C                    -0.887     5.406     0.974 
 C                     0.181     5.013    -2.277 
 O                     0.303     4.69     -3.508 
 C                     0.31      6.414    -1.837 
 N                    -0.265    -0.413    -2.029 
 C                    -0.279     0.569    -2.937 
 C                    -0.196     0.024    -4.332 
 C                     0.124    -1.533    -4.18 
 C                     0.086    -1.632    -2.635 
 C                    -1.451     0.205    -5.197 
 C                     1.373    -2.07     -4.923 
 C                     2.626    -1.49     -4.306 
 N                     0.15     -2.144     0.303 
 C                     0.173    -3.136    -0.688 
 C                     0.173    -4.438     0.004 
 C                     0.133    -4.111     1.358 
 C                     0.083    -2.695     1.502 
 C                     0.149    -5.715    -0.623 
 C                     0.096    -4.629     2.716 
 O                     0.208    -5.747     3.221 
 C                    -0.255    -3.428     3.701 
 C                     0.717    -3.482     4.848 
 O                     1.931    -3.255     4.669 
 O                     0.038    -3.556     6.003 
 C                     0.943    -3.583     7.183 
 H                    -1.859     3.22      2.497 
 H                    -0.218     2.453    -3.474 
 H                     0.276    -3.747    -2.605 
 H                    -1.554    -0.949     5.132 
 H                    -1.585     1.831     4.665 
 H                    -3.484    -0.377     3.969 
 H                    -3.511     1.027     2.858 
 H                    -3.852     1.301     4.543 
 H                     0.669     1.096     4.966 
 H                     1.13     -0.639     5.189 
 H                    -0.844     0.026     7.125 
 H                     0.062     1.477     6.921 
 H                    -1.344     5.186     1.938 
 H                    -1.651     5.963     0.432 
 H                     0.007     6.02      1.084 
 H                    -0.635     6.744    -1.405 
 H                     0.665     6.97     -2.704 
 H                     1.048     6.466    -1.036 
 H                     0.608     0.501    -4.891 
 H                    -0.692    -2.156    -4.547 
 H                    -1.267     0.74     -6.129 
 H                    -2.204     0.714    -4.596 
 H                    -1.967    -0.72     -5.453 
 H                     1.356    -1.759    -5.967 
 H                     1.452    -3.157    -4.902 
 H                     2.714    -0.522    -4.798 
 H                     3.487    -2.121    -4.529 
 H                     2.495    -1.303    -3.24 
 H                     0.867    -6.333    -0.084 
 H                     0.404    -5.642    -1.68 
 H                    -0.891    -5.999    -0.463 
 H                    -1.283    -3.581     4.028 
 H                     0.698    -4.478     7.755 
 H                     0.833    -2.619     7.68 
 H                     2.       -3.754     6.976 
 Mg                    8.94071   0.80655   0.68676 
 C                     8.87669  -2.30125   2.48023 
 C                     7.71042   2.28552   3.50343 
 C                     8.55999   3.46867  -0.99716 
 C                     9.06279  -1.05465  -2.25717 
 N                     8.40427  -0.00798   2.67196 
 C                     8.48044  -1.19334   3.25802 
 C                     8.18842  -1.17708   4.78249 
 C                     7.29862   0.1584    4.84266 
 C                     7.85793   0.88012   3.61833 
 C                     5.8178   -0.09422   4.61309 
 C                     9.49493  -1.03592   5.63988 
 C                     9.31857  -1.32249   7.1327 
 H                     10.41161  -1.97242   7.85056 
 N                     8.70983   2.68399   1.28716 
 C                     8.21671   3.105     2.47074 
 C                     8.23435   4.57491   2.41396 
 C                     8.62383   4.98654   1.03789 
 C                     8.62616   3.70102   0.36892 
 C                     7.97903   5.43873   3.61482 
 C                     8.92953   6.31844   0.42243 
 O                     9.01326   6.47007  -0.84754 
 C                     9.03554   7.45816   1.34508 
 N                     8.61403   1.1611   -1.33559 
 C                     8.53773   2.41536  -1.81408 
 C                     8.57651   2.42661  -3.32363 
 C                     8.93977   0.93016  -3.75523 
 C                     8.96135   0.26323  -2.36235 
 C                     7.2853    2.85735  -4.01906 
 C                     10.17182   0.74463  -4.68275 
 C                     11.43701   1.10728  -3.939 
 N                     9.15207  -1.28175   0.1745 
 C                     9.15257  -1.84674  -1.11966 
 C                     9.20742  -3.31373  -0.95425 
 C                     9.21184  -3.50279   0.43598 
 C                     9.14278  -2.24343   1.09077 
 C                     9.19727  -4.27065  -2.00797 
 C                     9.24849  -4.48182   1.49844 
 O                     9.39664  -5.7021    1.55052 
 C                     8.9055   -3.7534    2.8689 
 C                     9.92094  -4.18506   3.89119 
 O                     11.11821  -3.87399   3.76325 
 O                     9.28168  -4.70343   4.95562 
 C                     10.24625  -5.13596   6.00172 
 H                     7.1146    2.80763   4.25262 
 H                     8.53952   4.36121  -1.62679 
 H                     9.20266  -1.70061  -3.12657 
 H                     7.61531  -2.02233   5.14427 
 H                     7.50103   0.72751   5.74626 
 H                     5.62297  -1.11773   4.32917 
 H                     5.52368   0.58091   3.82015 
 H                     5.24311   0.20665   5.49373 
 H                     9.7814    0.02271   5.68434 
 H                     10.27891  -1.6517    5.24387 
 H                     8.3667   -1.82362   7.34658 
 H                     9.24485  -0.36971   7.66261 
 H                     7.55724   4.85891   4.44506 
 H                     7.18304   6.13968   3.34107 
 H                     8.86042   6.00664   3.92024 
 H                     8.10317   7.56625   1.89413 
 H                     9.34625   8.30457   0.72951 
 H                     9.81291   7.23796   2.08524 
 H                     9.34886   3.09407  -3.68567 
 H                     8.12055   0.45791  -4.31711 
 H                     7.42268   3.71831  -4.70021 
 H                     6.54899   3.08655  -3.26022 
 H                     6.78879   2.07816  -4.59486 
 H                     10.10851   1.42337  -5.53684 
 H                     10.26784  -0.2614   -5.07731 
 H                     11.47903   2.19594  -4.0397 
 H                     12.30159   0.63454  -4.40058 
 H                     11.34502   0.87835  -2.87093 
 H                     9.94142  -5.01555  -1.75924 
 H                     9.40502  -3.80558  -2.96939 
 H                     8.16584  -4.62642  -1.93841 
 H                     7.89256  -4.0442    3.1499 
 H                     10.03954  -6.19014   6.21066 
 H                     10.12006  -4.42259   6.83775 
 H                     11.29485  -5.17568   5.73097 
 
 ITRead=  0  0  0  0  0  0  0  0  0  0  0  0  0  0  0  0  0  0  0  0
 ITRead=  0  0  0  0  0  0  0  0  0  0  0  0  0  0  0  0  0  0  0  0
 ITRead=  0  0  0  0  0  0  0  0  0  0  0  0  0  0  0  0  0  0  0  0
 ITRead=  0  0  0  0  0  0  0  0  0  0  0  0  0  0  0  0  0  0  0  0
 ITRead=  0  0  0  0  0  0  0  0  0  0  0  0  0  0  0  0  0  0  0  0
 ITRead=  0  0  0  0  0  0  0  0  0  0  0  0  0  0  0  0  0  0  0  0
 ITRead=  0  0  0  0  0  0  0  0  0  0  0  0  0  0  0  0  0  0  0  0
 ITRead=  0  0  0  0  0  0  0  0  0  0  0  0  0  0  0  0  0  0
 MicOpt= -1 -1 -1 -1 -1 -1 -1 -1 -1 -1 -1 -1 -1 -1 -1 -1 -1 -1 -1 -1
 MicOpt= -1 -1 -1 -1 -1 -1 -1 -1 -1 -1 -1 -1 -1 -1 -1 -1 -1 -1 -1 -1
 MicOpt= -1 -1 -1 -1 -1 -1 -1 -1 -1 -1 -1 -1 -1 -1 -1 -1 -1 -1 -1 -1
 MicOpt= -1 -1 -1 -1 -1 -1 -1 -1 -1 -1 -1 -1 -1 -1 -1 -1 -1 -1 -1 -1
 MicOpt= -1 -1 -1 -1 -1 -1 -1 -1 -1 -1 -1 -1 -1 -1 -1 -1 -1 -1 -1 -1
 MicOpt= -1 -1 -1 -1 -1 -1 -1 -1 -1 -1 -1 -1 -1 -1 -1 -1 -1 -1 -1 -1
 MicOpt= -1 -1 -1 -1 -1 -1 -1 -1 -1 -1 -1 -1 -1 -1 -1 -1 -1 -1 -1 -1
 MicOpt= -1 -1 -1 -1 -1 -1 -1 -1 -1 -1 -1 -1 -1 -1 -1 -1 -1 -1
 NAtoms=    158 NQM=      158 NQMF=       0 NMMI=      0 NMMIF=      0
                NMic=       0 NMicF=      0.
                    Isotopes and Nuclear Properties:
 (Nuclear quadrupole moments (NQMom) in fm**2, nuclear magnetic moments (NMagM)
  in nuclear magnetons)

  Atom         1           2           3           4           5           6           7           8           9          10
 IAtWgt=          24          12          12          12          12          14          12          12          12          12
 AtmWgt=  23.9850450  12.0000000  12.0000000  12.0000000  12.0000000  14.0030740  12.0000000  12.0000000  12.0000000  12.0000000
 NucSpn=           0           0           0           0           0           2           0           0           0           0
 AtZEff=  -0.0000000  -0.0000000  -0.0000000  -0.0000000  -0.0000000  -0.0000000  -0.0000000  -0.0000000  -0.0000000  -0.0000000
 NQMom=    0.0000000   0.0000000   0.0000000   0.0000000   0.0000000   2.0440000   0.0000000   0.0000000   0.0000000   0.0000000
 NMagM=    0.0000000   0.0000000   0.0000000   0.0000000   0.0000000   0.4037610   0.0000000   0.0000000   0.0000000   0.0000000
 AtZNuc=  12.0000000   6.0000000   6.0000000   6.0000000   6.0000000   7.0000000   6.0000000   6.0000000   6.0000000   6.0000000

  Atom        11          12          13          14          15          16          17          18          19          20
 IAtWgt=          12          12          12           1          14          12          12          12          12          12
 AtmWgt=  12.0000000  12.0000000  12.0000000   1.0078250  14.0030740  12.0000000  12.0000000  12.0000000  12.0000000  12.0000000
 NucSpn=           0           0           0           1           2           0           0           0           0           0
 AtZEff=  -0.0000000  -0.0000000  -0.0000000  -0.0000000  -0.0000000  -0.0000000  -0.0000000  -0.0000000  -0.0000000  -0.0000000
 NQMom=    0.0000000   0.0000000   0.0000000   0.0000000   2.0440000   0.0000000   0.0000000   0.0000000   0.0000000   0.0000000
 NMagM=    0.0000000   0.0000000   0.0000000   2.7928460   0.4037610   0.0000000   0.0000000   0.0000000   0.0000000   0.0000000
 AtZNuc=   6.0000000   6.0000000   6.0000000   1.0000000   7.0000000   6.0000000   6.0000000   6.0000000   6.0000000   6.0000000

  Atom        21          22          23          24          25          26          27          28          29          30
 IAtWgt=          12          16          12          14          12          12          12          12          12          12
 AtmWgt=  12.0000000  15.9949146  12.0000000  14.0030740  12.0000000  12.0000000  12.0000000  12.0000000  12.0000000  12.0000000
 NucSpn=           0           0           0           2           0           0           0           0           0           0
 AtZEff=  -0.0000000  -0.0000000  -0.0000000  -0.0000000  -0.0000000  -0.0000000  -0.0000000  -0.0000000  -0.0000000  -0.0000000
 NQMom=    0.0000000   0.0000000   0.0000000   2.0440000   0.0000000   0.0000000   0.0000000   0.0000000   0.0000000   0.0000000
 NMagM=    0.0000000   0.0000000   0.0000000   0.4037610   0.0000000   0.0000000   0.0000000   0.0000000   0.0000000   0.0000000
 AtZNuc=   6.0000000   8.0000000   6.0000000   7.0000000   6.0000000   6.0000000   6.0000000   6.0000000   6.0000000   6.0000000

  Atom        31          32          33          34          35          36          37          38          39          40
 IAtWgt=          12          14          12          12          12          12          12          12          16          12
 AtmWgt=  12.0000000  14.0030740  12.0000000  12.0000000  12.0000000  12.0000000  12.0000000  12.0000000  15.9949146  12.0000000
 NucSpn=           0           2           0           0           0           0           0           0           0           0
 AtZEff=  -0.0000000  -0.0000000  -0.0000000  -0.0000000  -0.0000000  -0.0000000  -0.0000000  -0.0000000  -0.0000000  -0.0000000
 NQMom=    0.0000000   2.0440000   0.0000000   0.0000000   0.0000000   0.0000000   0.0000000   0.0000000   0.0000000   0.0000000
 NMagM=    0.0000000   0.4037610   0.0000000   0.0000000   0.0000000   0.0000000   0.0000000   0.0000000   0.0000000   0.0000000
 AtZNuc=   6.0000000   7.0000000   6.0000000   6.0000000   6.0000000   6.0000000   6.0000000   6.0000000   8.0000000   6.0000000

  Atom        41          42          43          44          45          46          47          48          49          50
 IAtWgt=          12          16          16          12           1           1           1           1           1           1
 AtmWgt=  12.0000000  15.9949146  15.9949146  12.0000000   1.0078250   1.0078250   1.0078250   1.0078250   1.0078250   1.0078250
 NucSpn=           0           0           0           0           1           1           1           1           1           1
 AtZEff=  -0.0000000  -0.0000000  -0.0000000  -0.0000000  -0.0000000  -0.0000000  -0.0000000  -0.0000000  -0.0000000  -0.0000000
 NQMom=    0.0000000   0.0000000   0.0000000   0.0000000   0.0000000   0.0000000   0.0000000   0.0000000   0.0000000   0.0000000
 NMagM=    0.0000000   0.0000000   0.0000000   0.0000000   2.7928460   2.7928460   2.7928460   2.7928460   2.7928460   2.7928460
 AtZNuc=   6.0000000   8.0000000   8.0000000   6.0000000   1.0000000   1.0000000   1.0000000   1.0000000   1.0000000   1.0000000

  Atom        51          52          53          54          55          56          57          58          59          60
 IAtWgt=           1           1           1           1           1           1           1           1           1           1
 AtmWgt=   1.0078250   1.0078250   1.0078250   1.0078250   1.0078250   1.0078250   1.0078250   1.0078250   1.0078250   1.0078250
 NucSpn=           1           1           1           1           1           1           1           1           1           1
 AtZEff=  -0.0000000  -0.0000000  -0.0000000  -0.0000000  -0.0000000  -0.0000000  -0.0000000  -0.0000000  -0.0000000  -0.0000000
 NQMom=    0.0000000   0.0000000   0.0000000   0.0000000   0.0000000   0.0000000   0.0000000   0.0000000   0.0000000   0.0000000
 NMagM=    2.7928460   2.7928460   2.7928460   2.7928460   2.7928460   2.7928460   2.7928460   2.7928460   2.7928460   2.7928460
 AtZNuc=   1.0000000   1.0000000   1.0000000   1.0000000   1.0000000   1.0000000   1.0000000   1.0000000   1.0000000   1.0000000

  Atom        61          62          63          64          65          66          67          68          69          70
 IAtWgt=           1           1           1           1           1           1           1           1           1           1
 AtmWgt=   1.0078250   1.0078250   1.0078250   1.0078250   1.0078250   1.0078250   1.0078250   1.0078250   1.0078250   1.0078250
 NucSpn=           1           1           1           1           1           1           1           1           1           1
 AtZEff=  -0.0000000  -0.0000000  -0.0000000  -0.0000000  -0.0000000  -0.0000000  -0.0000000  -0.0000000  -0.0000000  -0.0000000
 NQMom=    0.0000000   0.0000000   0.0000000   0.0000000   0.0000000   0.0000000   0.0000000   0.0000000   0.0000000   0.0000000
 NMagM=    2.7928460   2.7928460   2.7928460   2.7928460   2.7928460   2.7928460   2.7928460   2.7928460   2.7928460   2.7928460
 AtZNuc=   1.0000000   1.0000000   1.0000000   1.0000000   1.0000000   1.0000000   1.0000000   1.0000000   1.0000000   1.0000000

  Atom        71          72          73          74          75          76          77          78          79          80
 IAtWgt=           1           1           1           1           1           1           1           1           1          24
 AtmWgt=   1.0078250   1.0078250   1.0078250   1.0078250   1.0078250   1.0078250   1.0078250   1.0078250   1.0078250  23.9850450
 NucSpn=           1           1           1           1           1           1           1           1           1           0
 AtZEff=  -0.0000000  -0.0000000  -0.0000000  -0.0000000  -0.0000000  -0.0000000  -0.0000000  -0.0000000  -0.0000000  -0.0000000
 NQMom=    0.0000000   0.0000000   0.0000000   0.0000000   0.0000000   0.0000000   0.0000000   0.0000000   0.0000000   0.0000000
 NMagM=    2.7928460   2.7928460   2.7928460   2.7928460   2.7928460   2.7928460   2.7928460   2.7928460   2.7928460   0.0000000
 AtZNuc=   1.0000000   1.0000000   1.0000000   1.0000000   1.0000000   1.0000000   1.0000000   1.0000000   1.0000000  12.0000000

  Atom        81          82          83          84          85          86          87          88          89          90
 IAtWgt=          12          12          12          12          14          12          12          12          12          12
 AtmWgt=  12.0000000  12.0000000  12.0000000  12.0000000  14.0030740  12.0000000  12.0000000  12.0000000  12.0000000  12.0000000
 NucSpn=           0           0           0           0           2           0           0           0           0           0
 AtZEff=  -0.0000000  -0.0000000  -0.0000000  -0.0000000  -0.0000000  -0.0000000  -0.0000000  -0.0000000  -0.0000000  -0.0000000
 NQMom=    0.0000000   0.0000000   0.0000000   0.0000000   2.0440000   0.0000000   0.0000000   0.0000000   0.0000000   0.0000000
 NMagM=    0.0000000   0.0000000   0.0000000   0.0000000   0.4037610   0.0000000   0.0000000   0.0000000   0.0000000   0.0000000
 AtZNuc=   6.0000000   6.0000000   6.0000000   6.0000000   7.0000000   6.0000000   6.0000000   6.0000000   6.0000000   6.0000000

  Atom        91          92          93          94          95          96          97          98          99         100
 IAtWgt=          12          12           1          14          12          12          12          12          12          12
 AtmWgt=  12.0000000  12.0000000   1.0078250  14.0030740  12.0000000  12.0000000  12.0000000  12.0000000  12.0000000  12.0000000
 NucSpn=           0           0           1           2           0           0           0           0           0           0
 AtZEff=  -0.0000000  -0.0000000  -0.0000000  -0.0000000  -0.0000000  -0.0000000  -0.0000000  -0.0000000  -0.0000000  -0.0000000
 NQMom=    0.0000000   0.0000000   0.0000000   2.0440000   0.0000000   0.0000000   0.0000000   0.0000000   0.0000000   0.0000000
 NMagM=    0.0000000   0.0000000   2.7928460   0.4037610   0.0000000   0.0000000   0.0000000   0.0000000   0.0000000   0.0000000
 AtZNuc=   6.0000000   6.0000000   1.0000000   7.0000000   6.0000000   6.0000000   6.0000000   6.0000000   6.0000000   6.0000000

  Atom       101         102         103         104         105         106         107         108         109         110
 IAtWgt=          16          12          14          12          12          12          12          12          12          12
 AtmWgt=  15.9949146  12.0000000  14.0030740  12.0000000  12.0000000  12.0000000  12.0000000  12.0000000  12.0000000  12.0000000
 NucSpn=           0           0           2           0           0           0           0           0           0           0
 AtZEff=  -0.0000000  -0.0000000  -0.0000000  -0.0000000  -0.0000000  -0.0000000  -0.0000000  -0.0000000  -0.0000000  -0.0000000
 NQMom=    0.0000000   0.0000000   2.0440000   0.0000000   0.0000000   0.0000000   0.0000000   0.0000000   0.0000000   0.0000000
 NMagM=    0.0000000   0.0000000   0.4037610   0.0000000   0.0000000   0.0000000   0.0000000   0.0000000   0.0000000   0.0000000
 AtZNuc=   8.0000000   6.0000000   7.0000000   6.0000000   6.0000000   6.0000000   6.0000000   6.0000000   6.0000000   6.0000000

  Atom       111         112         113         114         115         116         117         118         119         120
 IAtWgt=          14          12          12          12          12          12          12          16          12          12
 AtmWgt=  14.0030740  12.0000000  12.0000000  12.0000000  12.0000000  12.0000000  12.0000000  15.9949146  12.0000000  12.0000000
 NucSpn=           2           0           0           0           0           0           0           0           0           0
 AtZEff=  -0.0000000  -0.0000000  -0.0000000  -0.0000000  -0.0000000  -0.0000000  -0.0000000  -0.0000000  -0.0000000  -0.0000000
 NQMom=    2.0440000   0.0000000   0.0000000   0.0000000   0.0000000   0.0000000   0.0000000   0.0000000   0.0000000   0.0000000
 NMagM=    0.4037610   0.0000000   0.0000000   0.0000000   0.0000000   0.0000000   0.0000000   0.0000000   0.0000000   0.0000000
 AtZNuc=   7.0000000   6.0000000   6.0000000   6.0000000   6.0000000   6.0000000   6.0000000   8.0000000   6.0000000   6.0000000

  Atom       121         122         123         124         125         126         127         128         129         130
 IAtWgt=          16          16          12           1           1           1           1           1           1           1
 AtmWgt=  15.9949146  15.9949146  12.0000000   1.0078250   1.0078250   1.0078250   1.0078250   1.0078250   1.0078250   1.0078250
 NucSpn=           0           0           0           1           1           1           1           1           1           1
 AtZEff=  -0.0000000  -0.0000000  -0.0000000  -0.0000000  -0.0000000  -0.0000000  -0.0000000  -0.0000000  -0.0000000  -0.0000000
 NQMom=    0.0000000   0.0000000   0.0000000   0.0000000   0.0000000   0.0000000   0.0000000   0.0000000   0.0000000   0.0000000
 NMagM=    0.0000000   0.0000000   0.0000000   2.7928460   2.7928460   2.7928460   2.7928460   2.7928460   2.7928460   2.7928460
 AtZNuc=   8.0000000   8.0000000   6.0000000   1.0000000   1.0000000   1.0000000   1.0000000   1.0000000   1.0000000   1.0000000

  Atom       131         132         133         134         135         136         137         138         139         140
 IAtWgt=           1           1           1           1           1           1           1           1           1           1
 AtmWgt=   1.0078250   1.0078250   1.0078250   1.0078250   1.0078250   1.0078250   1.0078250   1.0078250   1.0078250   1.0078250
 NucSpn=           1           1           1           1           1           1           1           1           1           1
 AtZEff=  -0.0000000  -0.0000000  -0.0000000  -0.0000000  -0.0000000  -0.0000000  -0.0000000  -0.0000000  -0.0000000  -0.0000000
 NQMom=    0.0000000   0.0000000   0.0000000   0.0000000   0.0000000   0.0000000   0.0000000   0.0000000   0.0000000   0.0000000
 NMagM=    2.7928460   2.7928460   2.7928460   2.7928460   2.7928460   2.7928460   2.7928460   2.7928460   2.7928460   2.7928460
 AtZNuc=   1.0000000   1.0000000   1.0000000   1.0000000   1.0000000   1.0000000   1.0000000   1.0000000   1.0000000   1.0000000

  Atom       141         142         143         144         145         146         147         148         149         150
 IAtWgt=           1           1           1           1           1           1           1           1           1           1
 AtmWgt=   1.0078250   1.0078250   1.0078250   1.0078250   1.0078250   1.0078250   1.0078250   1.0078250   1.0078250   1.0078250
 NucSpn=           1           1           1           1           1           1           1           1           1           1
 AtZEff=  -0.0000000  -0.0000000  -0.0000000  -0.0000000  -0.0000000  -0.0000000  -0.0000000  -0.0000000  -0.0000000  -0.0000000
 NQMom=    0.0000000   0.0000000   0.0000000   0.0000000   0.0000000   0.0000000   0.0000000   0.0000000   0.0000000   0.0000000
 NMagM=    2.7928460   2.7928460   2.7928460   2.7928460   2.7928460   2.7928460   2.7928460   2.7928460   2.7928460   2.7928460
 AtZNuc=   1.0000000   1.0000000   1.0000000   1.0000000   1.0000000   1.0000000   1.0000000   1.0000000   1.0000000   1.0000000

  Atom       151         152         153         154         155         156         157         158
 IAtWgt=           1           1           1           1           1           1           1           1
 AtmWgt=   1.0078250   1.0078250   1.0078250   1.0078250   1.0078250   1.0078250   1.0078250   1.0078250
 NucSpn=           1           1           1           1           1           1           1           1
 AtZEff=  -0.0000000  -0.0000000  -0.0000000  -0.0000000  -0.0000000  -0.0000000  -0.0000000  -0.0000000
 NQMom=    0.0000000   0.0000000   0.0000000   0.0000000   0.0000000   0.0000000   0.0000000   0.0000000
 NMagM=    2.7928460   2.7928460   2.7928460   2.7928460   2.7928460   2.7928460   2.7928460   2.7928460
 AtZNuc=   1.0000000   1.0000000   1.0000000   1.0000000   1.0000000   1.0000000   1.0000000   1.0000000
 Leave Link  101 at Thu Aug 19 18:55:29 2021, MaxMem= 23488102400 cpu:               5.9 elap:               0.2
 (Enter /sw/apps/gaussian-16.0/g16/l202.exe)
 Stoichiometry    C68H72Mg2N8O8
 Framework group  C1[X(C68H72Mg2N8O8)]
 Deg. of freedom   468
 Full point group                 C1      NOp   1
 Largest Abelian subgroup         C1      NOp   1
 Largest concise Abelian subgroup C1      NOp   1
                         Standard orientation:                         
 ---------------------------------------------------------------------
 Center     Atomic      Atomic             Coordinates (Angstroms)
 Number     Number       Type             X           Y           Z
 ---------------------------------------------------------------------
      1         12           0       -4.431827   -0.553974    0.386230
      2          6           0       -4.494181    2.998520   -0.047488
      3          6           0       -5.551519   -0.816424   -2.826320
      4          6           0       -4.818559   -3.660969    0.889861
      5          6           0       -4.421851    0.014146    3.824660
      6          7           0       -4.921747    0.970360   -1.142504
      7          6           0       -4.845529    2.296169   -1.202435
      8          6           0       -5.100922    2.865793   -2.629908
      9          6           0       -5.957536    1.663085   -3.231326
     10          6           0       -5.420882    0.530263   -2.374214
     11          6           0       -7.456395    1.798999   -2.983438
     12          6           0       -3.772719    3.079851   -3.431023
     13          6           0       -3.903590    3.930434   -4.697804
     14          1           0       -2.807295    4.814323   -5.064173
     15          7           0       -4.615088   -2.046512   -0.895018
     16          6           0       -5.072638   -1.969646   -2.167821
     17          6           0       -5.017199   -3.346369   -2.704701
     18          6           0       -4.669778   -4.259483   -1.580595
     19          6           0       -4.713529   -3.350407   -0.463884
     20          6           0       -5.230783   -3.674966   -4.150438
     21          6           0       -4.359491   -5.721765   -1.520697
     22          8           0       -4.312400   -6.362359   -0.415258
     23          6           0       -4.197190   -6.412350   -2.812901
     24          7           0       -4.818835   -1.676928    2.102864
     25          6           0       -4.881419   -3.012115    2.054457
     26          6           0       -4.884161   -3.608850    3.430625
     27          6           0       -4.563992   -2.408360    4.433655
     28          6           0       -4.510860   -1.250516    3.406599
     29          6           0       -6.187253   -4.297820    3.858741
     30          6           0       -3.364107   -2.596709    5.395538
     31          6           0       -2.073669   -2.622465    4.607373
     32          7           0       -4.275525    1.176008    1.687681
     33          6           0       -4.316586    1.183013    3.089443
     34          6           0       -4.282482    2.594155    3.515570
     35          6           0       -4.240406    3.315260    2.323898
     36          6           0       -4.274255    2.412737    1.222717
     37          6           0       -4.350396    3.061233    4.857829
     38          6           0       -4.199588    4.639186    1.724389
     39          8           0       -4.063791    5.783942    2.158652
     40          6           0       -4.485191    4.491984    0.164712
     41          6           0       -3.447204    5.299740   -0.565646
     42          8           0       -2.244762    4.966600   -0.542936
     43          8           0       -4.056923    6.190006   -1.363275
     44          6           0       -3.083719    7.004328   -2.139101
     45          1           0       -6.122391   -1.014932   -3.735517
     46          1           0       -4.842349   -4.729951    1.111557
     47          1           0       -4.330659    0.265440    4.882955
     48          1           0       -5.683881    3.786659   -2.654199
     49          1           0       -5.727736    1.485181   -4.281690
     50          1           0       -7.676364    2.636141   -2.321073
     51          1           0       -7.761717    0.859039   -2.523279
     52          1           0       -8.000766    1.861897   -3.926032
     53          1           0       -3.463794    2.133199   -3.874280
     54          1           0       -2.999612    3.504663   -2.789800
     55          1           0       -4.851809    4.468276   -4.720555
     56          1           0       -3.951797    3.259966   -5.555912
     57          1           0       -5.630995   -2.823706   -4.699740
     58          1           0       -6.022599   -4.422554   -4.193435
     59          1           0       -4.328584   -4.067647   -4.619662
     60          1           0       -5.113151   -6.307156   -3.394707
     61          1           0       -3.891262   -7.430178   -2.573559
     62          1           0       -3.412737   -5.914220   -3.383382
     63          1           0       -4.112190   -4.371104    3.527870
     64          1           0       -5.403613   -2.192913    5.094937
     65          1           0       -6.055987   -5.339934    4.151097
     66          1           0       -6.900584   -4.208239    3.039947
     67          1           0       -6.722430   -3.801251    4.667705
     68          1           0       -3.441314   -3.550839    5.915750
     69          1           0       -3.289779   -1.812954    6.149497
     70          1           0       -2.009847   -3.659146    4.278659
     71          1           0       -1.230769   -2.363778    5.249098
     72          1           0       -2.140248   -2.000932    3.714204
     73          1           0       -3.605001    3.851781    4.943785
     74          1           0       -4.158121    2.256666    5.567269
     75          1           0       -5.380577    3.414891    4.896688
     76          1           0       -5.492796    4.869546   -0.006460
     77          1           0       -3.299132    8.051362   -1.925673
     78          1           0       -3.158937    6.673245   -3.175021
     79          1           0       -2.041773    6.940128   -1.823560
     80         12           0        4.538031   -0.983463   -0.258472
     81          6           0        4.563929    2.486898    0.655300
     82          6           0        3.484760   -0.007085   -3.352321
     83          6           0        4.072308   -4.043404   -0.956526
     84          6           0        4.475482   -1.735765    3.143854
     85          7           0        4.115900    1.010925   -1.116649
     86          6           0        4.220378    2.261864   -0.694059
     87          6           0        4.019336    3.333062   -1.799348
     88          6           0        3.141778    2.460679   -2.822926
     89          6           0        3.631351    1.066207   -2.437626
     90          6           0        1.648631    2.534931   -2.550260
     91          6           0        5.375107    3.785927   -2.446503
     92          6           0        5.286034    5.045556   -3.310874
     93          1           0        6.416238    5.970275   -3.312014
     94          7           0        4.353131   -1.885999   -2.016257
     95          6           0        3.933288   -1.334257   -3.174096
     96          6           0        3.955342   -2.418777   -4.167826
     97          6           0        4.264744   -3.693243   -3.464471
     98          6           0        4.220580   -3.250617   -2.085261
     99          6           0        3.776255   -2.178401   -5.638739
    100          6           0        4.540494   -5.083421   -3.951881
    101          8           0        4.549596   -6.087041   -3.154704
    102          6           0        4.707070   -5.248283   -5.403279
    103          7           0        4.093926   -2.644517    0.910285
    104          6           0        3.996061   -3.868766    0.362945
    105          6           0        3.945343   -4.939399    1.426686
    106          6           0        4.274420   -4.193808    2.802696
    107          6           0        4.374990   -2.741816    2.285994
    108          6           0        2.617485   -5.685157    1.557150
    109          6           0        5.448315   -4.760840    3.647153
    110          6           0        6.757280   -4.543596    2.922722
    111          7           0        4.707551    0.131527    1.584390
    112          6           0        4.628327   -0.376991    2.899379
    113          6           0        4.685089    0.779067    3.817386
    114          6           0        4.770912    1.890462    2.965366
    115          6           0        4.747484    1.458980    1.611563
    116          6           0        4.607405    0.718325    5.237386
    117          6           0        4.865278    3.331261    2.903248
    118          8           0        5.009768    4.228894    3.732176
    119          6           0        4.608011    3.790350    1.403432
    120          6           0        5.679960    4.777005    1.029315
    121          8           0        6.869176    4.420688    0.955887
    122          8           0        5.102180    5.917688    0.610526
    123          6           0        6.124756    6.923630    0.217814
    124          1           0        2.937185    0.171391   -4.278169
    125          1           0        4.019292   -5.119125   -1.139545
    126          1           0        4.560131   -1.893476    4.221187
    127          1           0        3.464197    4.209442   -1.486992
    128          1           0        3.400421    2.684015   -3.854708
    129          1           0        1.431876    3.069641   -1.637438
    130          1           0        1.311614    1.509204   -2.477026
    131          1           0        1.128765    2.962136   -3.412555
    132          1           0        5.669331    3.054462   -3.210132
    133          1           0        6.130949    3.915108   -1.696403
    134          1           0        4.345868    5.587951   -3.153309
    135          1           0        5.248923    4.744198   -4.360558
    136          1           0        3.401350   -1.166962   -5.838321
    137          1           0        2.969173   -2.838436   -5.974660
    138          1           0        4.677207   -2.400495   -6.214597
    139          1           0        3.809476   -4.903684   -5.911245
    140          1           0        4.985235   -6.293931   -5.548607
    141          1           0        5.525770   -4.601098   -5.737213
    142          1           0        4.698409   -5.697258    1.248807
    143          1           0        3.420834   -4.222297    3.495825
    144          1           0        2.718817   -6.780659    1.440113
    145          1           0        1.928684   -5.286537    0.824225
    146          1           0        2.083580   -5.517693    2.491016
    147          1           0        5.338092   -5.840882    3.771764
    148          1           0        5.515428   -4.327364    4.639417
    149          1           0        6.799042   -5.389151    2.229628
    150          1           0        7.590452   -4.565156    3.622292
    151          1           0        6.727554   -3.626693    2.322680
    152          1           0        5.361022    1.393954    5.619602
    153          1           0        4.760263   -0.295708    5.600910
    154          1           0        3.580036    1.059053    5.391260
    155          1           0        3.611980    4.232870    1.362560
    156          1           0        5.925196    7.827039    0.802372
    157          1           0        6.052143    7.009488   -0.882696
    158          1           0        7.155235    6.721698    0.485734
 ---------------------------------------------------------------------
 Rotational constants (GHZ):           0.0203156           0.0148592           0.0124279
 Leave Link  202 at Thu Aug 19 18:55:29 2021, MaxMem= 23488102400 cpu:               0.2 elap:               0.0
 (Enter /sw/apps/gaussian-16.0/g16/l301.exe)
 Standard basis: def2SVP (5D, 7F)
 Ernie: Thresh=  0.10000D-02 Tol=  0.10000D-05 Strict=F.
 There are  1658 symmetry adapted cartesian basis functions of A   symmetry.
 There are  1572 symmetry adapted basis functions of A   symmetry.
  1572 basis functions,  2678 primitive gaussians,  1658 cartesian basis functions
   312 alpha electrons      312 beta electrons
       nuclear repulsion energy     15509.2759022874 Hartrees.
 IExCor=20419 DFT=T Ex+Corr=CAM-B3LYP ExCW=0 ScaHFX=  1.000000
 ScaDFX=  1.000000  1.000000  1.000000  0.810000 ScalE2=  1.000000  1.000000
 IRadAn=      5 IRanWt=     -1 IRanGd=            0 ICorTp=0 IEmpDi=  4
 HFx  wShort=  0.000000 wLong=  0.330000 cFull=  0.190000 cShort=  0.000000 cLong=  0.460000
 DFx  wShort=  0.000000 wLong=  0.330000 cFull=  0.190000 cShort=  0.000000 cLong=  0.460000
 NAtoms=  158 NActive=  158 NUniq=  158 SFac= 1.00D+00 NAtFMM=   60 NAOKFM=T Big=T
 Integral buffers will be    131072 words long.
 Raffenetti 1 integral format.
 Two-electron integral symmetry is turned on.
 Leave Link  301 at Thu Aug 19 18:55:29 2021, MaxMem= 23488102400 cpu:               1.4 elap:               0.1
 (Enter /sw/apps/gaussian-16.0/g16/l302.exe)
 NPDir=0 NMtPBC=     1 NCelOv=     1 NCel=       1 NClECP=     1 NCelD=      1
         NCelK=      1 NCelE2=     1 NClLst=     1 CellRange=     0.0.
 One-electron integrals computed using PRISM.
 One-electron integral symmetry used in STVInt
   1 Symmetry operations used in ECPInt.
 ECPInt:  NShTT=  271216 NPrTT=  987664 LenC2=  154158 LenP2D=  321570.
 LDataN:  DoStor=T MaxTD1= 4 Len=   56
 NBasis=  1572 RedAO= T EigKep=  3.36D-04  NBF=  1572
 NBsUse=  1572 1.00D-06 EigRej= -1.00D+00 NBFU=  1572
 Precomputing XC quadrature grid using
 IXCGrd= 4 IRadAn=           5 IRanWt=          -1 IRanGd=           0 AccXCQ= 0.00D+00.
 Generated NRdTot=       0 NPtTot=           0 NUsed=           0 NTot=          32
 NSgBfM=  1178  1163  1173  1177  1178 MxSgAt=   158 MxSgA2=   158.
 Leave Link  302 at Thu Aug 19 18:55:34 2021, MaxMem= 23488102400 cpu:             135.2 elap:               5.7
 (Enter /sw/apps/gaussian-16.0/g16/l303.exe)
 DipDrv:  MaxL=1.
 Leave Link  303 at Thu Aug 19 18:55:35 2021, MaxMem= 23488102400 cpu:              10.3 elap:               0.5
 (Enter /sw/apps/gaussian-16.0/g16/l308.exe)
 Leave Link  308 at Thu Aug 19 18:55:36 2021, MaxMem= 23488102400 cpu:              14.9 elap:               0.7
 (Enter /sw/apps/gaussian-16.0/g16/l401.exe)
 ExpMin= 3.36D-02 ExpMax= 4.95D+03 ExpMxC= 7.45D+02 IAcc=3 IRadAn=         5 AccDes= 0.00D+00
 Harris functional with IExCor=20419 and IRadAn=       5 diagonalized for initial guess.
 HarFok:  IExCor=20419 AccDes= 0.00D+00 IRadAn=         5 IDoV= 1 UseB2=F ITyADJ=14
 ICtDFT=  3500011 ScaDFX=  1.000000  1.000000  1.000000  1.000000
 FoFCou: FMM=F IPFlag=           0 FMFlag=      100000 FMFlg1=        2001
         NFxFlg=           0 DoJE=T BraDBF=F KetDBF=T FulRan=T
         wScrn=  0.000000 ICntrl=       500 IOpCl=  0 I1Cent=   200000004 NGrid=           0
         NMat0=    1 NMatS0=      1 NMatT0=    0 NMatD0=    1 NMtDS0=    0 NMtDT0=    0
 Petite list used in FoFCou.
 Harris En= -3918.65810584511    
 JPrj=0 DoOrth=F DoCkMO=F.
 Leave Link  401 at Thu Aug 19 18:55:44 2021, MaxMem= 23488102400 cpu:             194.3 elap:               8.1
 (Enter /sw/apps/gaussian-16.0/g16/l502.exe)
 Integral symmetry usage will be decided dynamically.
 Closed shell SCF:
 Using DIIS extrapolation, IDIIS=  1040.
 NGot= 23488102400 LenX= 23482547354 LenY= 23479796732
 Requested convergence on RMS density matrix=1.00D-08 within 128 cycles.
 Requested convergence on MAX density matrix=1.00D-06.
 Requested convergence on             energy=1.00D-06.
 No special actions if energy rises.
 Fock matrices will be formed incrementally for  20 cycles.

 Cycle   1  Pass 1  IDiag  1:
 FoFJK:  IHMeth= 1 ICntrl=       0 DoSepK=T KAlg= 0 I1Cent=           0 FoldK=F
 IRaf=         1 NMat=       1 IRICut=       1 DoRegI=T DoRafI=F ISym2E= 0 IDoP0=0 IntGTp=1.
 FoFCou: FMM=T IPFlag=           0 FMFlag=      100000 FMFlg1=        2001
         NFxFlg=           0 DoJE=T BraDBF=F KetDBF=F FulRan=T
         wScrn=  0.000000 ICntrl=       500 IOpCl=  0 I1Cent=           0 NGrid=           0
         NMat0=    1 NMatS0=      1 NMatT0=    0 NMatD0=    1 NMtDS0=    0 NMtDT0=    0
 Symmetry not used in FoFCou.
 FMM levels:  10  Number of levels for PrismC:   9
 E= -4068.94890177547    
 DIIS: error= 2.04D-02 at cycle   1 NSaved=   1.
 NSaved= 1 IEnMin= 1 EnMin= -4068.94890177547     IErMin= 1 ErrMin= 2.04D-02
 ErrMax= 2.04D-02  0.00D+00 EMaxC= 1.00D-01 BMatC= 1.69D+00 BMatP= 1.69D+00
 IDIUse=3 WtCom= 7.96D-01 WtEn= 2.04D-01
 Coeff-Com:  0.100D+01
 Coeff-En:   0.100D+01
 Coeff:      0.100D+01
 Gap=     0.120 Goal=   None    Shift=    0.000
 GapD=    0.120 DampG=1.000 DampE=0.500 DampFc=0.5000 IDamp=-1.
 Damping current iteration by 5.00D-01
 RMSDP=1.57D-03 MaxDP=1.36D-01              OVMax= 2.07D-01

 Cycle   2  Pass 1  IDiag  1:
 RMSU=  7.71D-04    CP:  9.82D-01
 E= -4069.33751087478     Delta-E=       -0.388609099315 Rises=F Damp=T
 DIIS: error= 1.27D-02 at cycle   2 NSaved=   2.
 NSaved= 2 IEnMin= 2 EnMin= -4069.33751087478     IErMin= 2 ErrMin= 1.27D-02
 ErrMax= 1.27D-02  0.00D+00 EMaxC= 1.00D-01 BMatC= 3.07D-01 BMatP= 1.69D+00
 IDIUse=3 WtCom= 8.73D-01 WtEn= 1.27D-01
 Coeff-Com: -0.213D+00 0.121D+01
 Coeff-En:   0.000D+00 0.100D+01
 Coeff:     -0.186D+00 0.119D+01
 Gap=     0.134 Goal=   None    Shift=    0.000
 RMSDP=7.69D-04 MaxDP=9.47D-02 DE=-3.89D-01 OVMax= 1.93D-01

 Cycle   3  Pass 1  IDiag  1:
 RMSU=  7.38D-04    CP:  9.68D-01  1.23D+00
 E= -4069.62435153770     Delta-E=       -0.286840662920 Rises=F Damp=F
 DIIS: error= 1.54D-02 at cycle   3 NSaved=   3.
 NSaved= 3 IEnMin= 3 EnMin= -4069.62435153770     IErMin= 2 ErrMin= 1.27D-02
 ErrMax= 1.54D-02  0.00D+00 EMaxC= 1.00D-01 BMatC= 2.03D-01 BMatP= 3.07D-01
 IDIUse=3 WtCom= 8.46D-01 WtEn= 1.54D-01
 Coeff-Com: -0.268D+00 0.653D+00 0.615D+00
 Coeff-En:   0.000D+00 0.000D+00 0.100D+01
 Coeff:     -0.226D+00 0.552D+00 0.674D+00
 Gap=     0.120 Goal=   None    Shift=    0.000
 RMSDP=5.19D-04 MaxDP=4.77D-02 DE=-2.87D-01 OVMax= 1.52D-01

 Cycle   4  Pass 1  IDiag  1:
 RMSU=  2.70D-04    CP:  9.65D-01  1.55D+00  4.98D-01
 E= -4069.76316959093     Delta-E=       -0.138818053234 Rises=F Damp=F
 DIIS: error= 6.89D-03 at cycle   4 NSaved=   4.
 NSaved= 4 IEnMin= 4 EnMin= -4069.76316959093     IErMin= 4 ErrMin= 6.89D-03
 ErrMax= 6.89D-03  0.00D+00 EMaxC= 1.00D-01 BMatC= 5.07D-02 BMatP= 2.03D-01
 IDIUse=3 WtCom= 9.31D-01 WtEn= 6.89D-02
 Coeff-Com: -0.110D+00 0.229D+00 0.409D+00 0.472D+00
 Coeff-En:   0.000D+00 0.000D+00 0.225D+00 0.775D+00
 Coeff:     -0.103D+00 0.213D+00 0.396D+00 0.493D+00
 Gap=     0.120 Goal=   None    Shift=    0.000
 RMSDP=2.08D-04 MaxDP=1.88D-02 DE=-1.39D-01 OVMax= 7.03D-02

 Cycle   5  Pass 1  IDiag  1:
 RMSU=  8.04D-05    CP:  9.64D-01  1.49D+00  6.87D-01  5.39D-01
 E= -4069.81024344764     Delta-E=       -0.047073856702 Rises=F Damp=F
 DIIS: error= 6.58D-04 at cycle   5 NSaved=   5.
 NSaved= 5 IEnMin= 5 EnMin= -4069.81024344764     IErMin= 5 ErrMin= 6.58D-04
 ErrMax= 6.58D-04  0.00D+00 EMaxC= 1.00D-01 BMatC= 1.37D-03 BMatP= 5.07D-02
 IDIUse=3 WtCom= 9.93D-01 WtEn= 6.58D-03
 Coeff-Com: -0.393D-01 0.775D-01 0.176D+00 0.259D+00 0.527D+00
 Coeff-En:   0.000D+00 0.000D+00 0.000D+00 0.000D+00 0.100D+01
 Coeff:     -0.390D-01 0.770D-01 0.175D+00 0.257D+00 0.530D+00
 Gap=     0.119 Goal=   None    Shift=    0.000
 RMSDP=4.72D-05 MaxDP=4.83D-03 DE=-4.71D-02 OVMax= 2.20D-02

 Cycle   6  Pass 1  IDiag  1:
 RMSU=  3.36D-05    CP:  9.64D-01  1.49D+00  6.77D-01  6.19D-01  7.06D-01
 E= -4069.81152427692     Delta-E=       -0.001280829285 Rises=F Damp=F
 DIIS: error= 2.13D-04 at cycle   6 NSaved=   6.
 NSaved= 6 IEnMin= 6 EnMin= -4069.81152427692     IErMin= 6 ErrMin= 2.13D-04
 ErrMax= 2.13D-04  0.00D+00 EMaxC= 1.00D-01 BMatC= 2.18D-04 BMatP= 1.37D-03
 IDIUse=3 WtCom= 9.98D-01 WtEn= 2.13D-03
 Coeff-Com:  0.140D-02-0.506D-02 0.150D-01 0.449D-01 0.307D+00 0.636D+00
 Coeff-En:   0.000D+00 0.000D+00 0.000D+00 0.000D+00 0.132D+00 0.868D+00
 Coeff:      0.140D-02-0.505D-02 0.150D-01 0.448D-01 0.307D+00 0.637D+00
 Gap=     0.120 Goal=   None    Shift=    0.000
 RMSDP=1.85D-05 MaxDP=1.30D-03 DE=-1.28D-03 OVMax= 8.40D-03

 Cycle   7  Pass 1  IDiag  1:
 RMSU=  1.17D-05    CP:  9.64D-01  1.49D+00  6.83D-01  6.16D-01  8.27D-01
                    CP:  7.27D-01
 E= -4069.81177407807     Delta-E=       -0.000249801145 Rises=F Damp=F
 DIIS: error= 1.22D-04 at cycle   7 NSaved=   7.
 NSaved= 7 IEnMin= 7 EnMin= -4069.81177407807     IErMin= 7 ErrMin= 1.22D-04
 ErrMax= 1.22D-04  0.00D+00 EMaxC= 1.00D-01 BMatC= 2.90D-05 BMatP= 2.18D-04
 IDIUse=3 WtCom= 9.99D-01 WtEn= 1.22D-03
 Coeff-Com:  0.462D-02-0.102D-01-0.861D-02-0.258D-02 0.112D+00 0.344D+00
 Coeff-Com:  0.561D+00
 Coeff-En:   0.000D+00 0.000D+00 0.000D+00 0.000D+00 0.000D+00 0.000D+00
 Coeff-En:   0.100D+01
 Coeff:      0.462D-02-0.102D-01-0.860D-02-0.257D-02 0.112D+00 0.344D+00
 Coeff:      0.562D+00
 Gap=     0.120 Goal=   None    Shift=    0.000
 RMSDP=6.94D-06 MaxDP=1.17D-03 DE=-2.50D-04 OVMax= 3.60D-03

 Cycle   8  Pass 1  IDiag  1:
 RMSU=  4.93D-06    CP:  9.64D-01  1.49D+00  6.84D-01  6.21D-01  8.26D-01
                    CP:  8.45D-01  8.05D-01
 E= -4069.81180918831     Delta-E=       -0.000035110243 Rises=F Damp=F
 DIIS: error= 5.98D-05 at cycle   8 NSaved=   8.
 NSaved= 8 IEnMin= 8 EnMin= -4069.81180918831     IErMin= 8 ErrMin= 5.98D-05
 ErrMax= 5.98D-05  0.00D+00 EMaxC= 1.00D-01 BMatC= 4.94D-06 BMatP= 2.90D-05
 IDIUse=1 WtCom= 1.00D+00 WtEn= 0.00D+00
 Coeff-Com:  0.227D-02-0.453D-02-0.794D-02-0.121D-01-0.753D-02 0.331D-01
 Coeff-Com:  0.304D+00 0.693D+00
 Coeff:      0.227D-02-0.453D-02-0.794D-02-0.121D-01-0.753D-02 0.331D-01
 Coeff:      0.304D+00 0.693D+00
 Gap=     0.120 Goal=   None    Shift=    0.000
 RMSDP=3.46D-06 MaxDP=4.28D-04 DE=-3.51D-05 OVMax= 1.20D-03

 Cycle   9  Pass 1  IDiag  1:
 RMSU=  2.02D-06    CP:  9.64D-01  1.49D+00  6.84D-01  6.23D-01  8.42D-01
                    CP:  8.74D-01  9.91D-01  9.83D-01
 E= -4069.81181719108     Delta-E=       -0.000008002768 Rises=F Damp=F
 DIIS: error= 2.09D-05 at cycle   9 NSaved=   9.
 NSaved= 9 IEnMin= 9 EnMin= -4069.81181719108     IErMin= 9 ErrMin= 2.09D-05
 ErrMax= 2.09D-05  0.00D+00 EMaxC= 1.00D-01 BMatC= 8.29D-07 BMatP= 4.94D-06
 IDIUse=1 WtCom= 1.00D+00 WtEn= 0.00D+00
 Coeff-Com:  0.526D-03-0.889D-03-0.287D-02-0.624D-02-0.197D-01-0.405D-01
 Coeff-Com:  0.872D-01 0.353D+00 0.629D+00
 Coeff:      0.526D-03-0.889D-03-0.287D-02-0.624D-02-0.197D-01-0.405D-01
 Coeff:      0.872D-01 0.353D+00 0.629D+00
 Gap=     0.120 Goal=   None    Shift=    0.000
 RMSDP=1.48D-06 MaxDP=1.36D-04 DE=-8.00D-06 OVMax= 7.57D-04

 Cycle  10  Pass 1  IDiag  1:
 RMSU=  9.88D-07    CP:  9.64D-01  1.49D+00  6.84D-01  6.23D-01  8.46D-01
                    CP:  8.85D-01  1.04D+00  1.15D+00  1.05D+00
 E= -4069.81181898589     Delta-E=       -0.000001794815 Rises=F Damp=F
 DIIS: error= 9.96D-06 at cycle  10 NSaved=  10.
 NSaved=10 IEnMin=10 EnMin= -4069.81181898589     IErMin=10 ErrMin= 9.96D-06
 ErrMax= 9.96D-06  0.00D+00 EMaxC= 1.00D-01 BMatC= 1.78D-07 BMatP= 8.29D-07
 IDIUse=1 WtCom= 1.00D+00 WtEn= 0.00D+00
 Coeff-Com: -0.417D-03 0.881D-03 0.115D-02 0.919D-03-0.381D-02-0.313D-01
 Coeff-Com: -0.417D-01-0.611D-01 0.226D+00 0.910D+00
 Coeff:     -0.417D-03 0.881D-03 0.115D-02 0.919D-03-0.381D-02-0.313D-01
 Coeff:     -0.417D-01-0.611D-01 0.226D+00 0.910D+00
 Gap=     0.120 Goal=   None    Shift=    0.000
 RMSDP=1.26D-06 MaxDP=1.24D-04 DE=-1.79D-06 OVMax= 6.61D-04

 Cycle  11  Pass 1  IDiag  1:
 RMSU=  5.66D-07    CP:  9.64D-01  1.49D+00  6.84D-01  6.23D-01  8.48D-01
                    CP:  8.94D-01  1.08D+00  1.26D+00  1.38D+00  1.34D+00
 E= -4069.81181981899     Delta-E=       -0.000000833094 Rises=F Damp=F
 DIIS: error= 4.69D-06 at cycle  11 NSaved=  11.
 NSaved=11 IEnMin=11 EnMin= -4069.81181981899     IErMin=11 ErrMin= 4.69D-06
 ErrMax= 4.69D-06  0.00D+00 EMaxC= 1.00D-01 BMatC= 8.01D-08 BMatP= 1.78D-07
 IDIUse=1 WtCom= 1.00D+00 WtEn= 0.00D+00
 Coeff-Com: -0.359D-03 0.701D-03 0.140D-02 0.213D-02 0.414D-02-0.951D-02
 Coeff-Com: -0.405D-01-0.130D+00-0.430D-01 0.519D+00 0.696D+00
 Coeff:     -0.359D-03 0.701D-03 0.140D-02 0.213D-02 0.414D-02-0.951D-02
 Coeff:     -0.405D-01-0.130D+00-0.430D-01 0.519D+00 0.696D+00
 Gap=     0.120 Goal=   None    Shift=    0.000
 RMSDP=7.21D-07 MaxDP=6.52D-05 DE=-8.33D-07 OVMax= 3.88D-04

 Cycle  12  Pass 1  IDiag  1:
 RMSU=  2.85D-07    CP:  9.64D-01  1.49D+00  6.84D-01  6.23D-01  8.49D-01
                    CP:  8.97D-01  1.10D+00  1.33D+00  1.54D+00  1.74D+00
                    CP:  1.15D+00
 E= -4069.81182011580     Delta-E=       -0.000000296819 Rises=F Damp=F
 DIIS: error= 2.88D-06 at cycle  12 NSaved=  12.
 NSaved=12 IEnMin=12 EnMin= -4069.81182011580     IErMin=12 ErrMin= 2.88D-06
 ErrMax= 2.88D-06  0.00D+00 EMaxC= 1.00D-01 BMatC= 1.89D-08 BMatP= 8.01D-08
 IDIUse=1 WtCom= 1.00D+00 WtEn= 0.00D+00
 Coeff-Com: -0.374D-04 0.563D-04 0.320D-03 0.701D-03 0.374D-02 0.292D-02
 Coeff-Com: -0.101D-02-0.428D-01-0.798D-01-0.679D-02 0.266D+00 0.857D+00
 Coeff:     -0.374D-04 0.563D-04 0.320D-03 0.701D-03 0.374D-02 0.292D-02
 Coeff:     -0.101D-02-0.428D-01-0.798D-01-0.679D-02 0.266D+00 0.857D+00
 Gap=     0.120 Goal=   None    Shift=    0.000
 RMSDP=4.40D-07 MaxDP=3.14D-05 DE=-2.97D-07 OVMax= 2.53D-04

 Cycle  13  Pass 1  IDiag  1:
 RMSU=  1.74D-07    CP:  9.64D-01  1.49D+00  6.84D-01  6.23D-01  8.49D-01
                    CP:  8.97D-01  1.11D+00  1.35D+00  1.64D+00  1.95D+00
                    CP:  1.55D+00  1.20D+00
 E= -4069.81182021681     Delta-E=       -0.000000101001 Rises=F Damp=F
 DIIS: error= 1.63D-06 at cycle  13 NSaved=  13.
 NSaved=13 IEnMin=13 EnMin= -4069.81182021681     IErMin=13 ErrMin= 1.63D-06
 ErrMax= 1.63D-06  0.00D+00 EMaxC= 1.00D-01 BMatC= 1.01D-08 BMatP= 1.89D-08
 IDIUse=1 WtCom= 1.00D+00 WtEn= 0.00D+00
 Coeff-Com:  0.118D-03-0.243D-03-0.349D-03-0.416D-03 0.900D-03 0.473D-02
 Coeff-Com:  0.175D-01 0.227D-01-0.345D-01-0.229D+00-0.172D+00 0.561D+00
 Coeff-Com:  0.828D+00
 Coeff:      0.118D-03-0.243D-03-0.349D-03-0.416D-03 0.900D-03 0.473D-02
 Coeff:      0.175D-01 0.227D-01-0.345D-01-0.229D+00-0.172D+00 0.561D+00
 Coeff:      0.828D+00
 Gap=     0.120 Goal=   None    Shift=    0.000
 RMSDP=3.77D-07 MaxDP=2.61D-05 DE=-1.01D-07 OVMax= 2.23D-04

 Cycle  14  Pass 1  IDiag  1:
 RMSU=  8.19D-08    CP:  9.64D-01  1.49D+00  6.84D-01  6.24D-01  8.50D-01
                    CP:  8.97D-01  1.11D+00  1.38D+00  1.72D+00  2.15D+00
                    CP:  1.80D+00  1.74D+00  1.16D+00
 E= -4069.81182026258     Delta-E=       -0.000000045773 Rises=F Damp=F
 DIIS: error= 8.58D-07 at cycle  14 NSaved=  14.
 NSaved=14 IEnMin=14 EnMin= -4069.81182026258     IErMin=14 ErrMin= 8.58D-07
 ErrMax= 8.58D-07  0.00D+00 EMaxC= 1.00D-01 BMatC= 1.49D-09 BMatP= 1.01D-08
 IDIUse=1 WtCom= 1.00D+00 WtEn= 0.00D+00
 Coeff-Com:  0.720D-04-0.142D-03-0.262D-03-0.404D-03-0.389D-03 0.119D-02
 Coeff-Com:  0.997D-02 0.210D-01 0.521D-02-0.104D+00-0.154D+00 0.713D-01
 Coeff-Com:  0.411D+00 0.739D+00
 Coeff:      0.720D-04-0.142D-03-0.262D-03-0.404D-03-0.389D-03 0.119D-02
 Coeff:      0.997D-02 0.210D-01 0.521D-02-0.104D+00-0.154D+00 0.713D-01
 Coeff:      0.411D+00 0.739D+00
 Gap=     0.120 Goal=   None    Shift=    0.000
 RMSDP=1.22D-07 MaxDP=8.45D-06 DE=-4.58D-08 OVMax= 7.12D-05

 Cycle  15  Pass 1  IDiag  1:
 RMSU=  4.05D-08    CP:  9.64D-01  1.49D+00  6.84D-01  6.24D-01  8.50D-01
                    CP:  8.97D-01  1.11D+00  1.38D+00  1.74D+00  2.20D+00
                    CP:  1.92D+00  1.89D+00  1.41D+00  1.05D+00
 E= -4069.81182026790     Delta-E=       -0.000000005322 Rises=F Damp=F
 DIIS: error= 4.99D-07 at cycle  15 NSaved=  15.
 NSaved=15 IEnMin=15 EnMin= -4069.81182026790     IErMin=15 ErrMin= 4.99D-07
 ErrMax= 4.99D-07  0.00D+00 EMaxC= 1.00D-01 BMatC= 2.58D-10 BMatP= 1.49D-09
 IDIUse=1 WtCom= 1.00D+00 WtEn= 0.00D+00
 Coeff-Com:  0.959D-05-0.173D-04-0.476D-04-0.104D-03-0.296D-03-0.488D-03
 Coeff-Com:  0.144D-02 0.389D-02 0.884D-02-0.372D-02-0.346D-01-0.688D-01
 Coeff-Com:  0.395D-01 0.314D+00 0.740D+00
 Coeff:      0.959D-05-0.173D-04-0.476D-04-0.104D-03-0.296D-03-0.488D-03
 Coeff:      0.144D-02 0.389D-02 0.884D-02-0.372D-02-0.346D-01-0.688D-01
 Coeff:      0.395D-01 0.314D+00 0.740D+00
 Gap=     0.120 Goal=   None    Shift=    0.000
 RMSDP=3.89D-08 MaxDP=2.64D-06 DE=-5.32D-09 OVMax= 2.59D-05

 Cycle  16  Pass 1  IDiag  1:
 RMSU=  1.92D-08    CP:  9.64D-01  1.49D+00  6.84D-01  6.24D-01  8.50D-01
                    CP:  8.97D-01  1.11D+00  1.38D+00  1.74D+00  2.22D+00
                    CP:  1.94D+00  1.94D+00  1.48D+00  1.24D+00  1.13D+00
 E= -4069.81182026851     Delta-E=       -0.000000000611 Rises=F Damp=F
 DIIS: error= 2.37D-07 at cycle  16 NSaved=  16.
 NSaved=16 IEnMin=16 EnMin= -4069.81182026851     IErMin=16 ErrMin= 2.37D-07
 ErrMax= 2.37D-07  0.00D+00 EMaxC= 1.00D-01 BMatC= 9.26D-11 BMatP= 2.58D-10
 IDIUse=1 WtCom= 1.00D+00 WtEn= 0.00D+00
 Coeff-Com: -0.134D-04 0.272D-04 0.427D-04 0.458D-04-0.433D-04-0.612D-03
 Coeff-Com: -0.162D-02-0.393D-02 0.390D-02 0.236D-01 0.215D-01-0.581D-01
 Coeff-Com: -0.794D-01-0.355D-01 0.380D+00 0.751D+00
 Coeff:     -0.134D-04 0.272D-04 0.427D-04 0.458D-04-0.433D-04-0.612D-03
 Coeff:     -0.162D-02-0.393D-02 0.390D-02 0.236D-01 0.215D-01-0.581D-01
 Coeff:     -0.794D-01-0.355D-01 0.380D+00 0.751D+00
 Gap=     0.120 Goal=   None    Shift=    0.000
 RMSDP=2.43D-08 MaxDP=1.82D-06 DE=-6.11D-10 OVMax= 1.58D-05

 Cycle  17  Pass 1  IDiag  1:
 RMSU=  1.09D-08    CP:  9.64D-01  1.49D+00  6.84D-01  6.24D-01  8.50D-01
                    CP:  8.97D-01  1.11D+00  1.38D+00  1.75D+00  2.22D+00
                    CP:  1.95D+00  1.97D+00  1.53D+00  1.34D+00  1.42D+00
                    CP:  1.23D+00
 E= -4069.81182026906     Delta-E=       -0.000000000546 Rises=F Damp=F
 DIIS: error= 1.32D-07 at cycle  17 NSaved=  17.
 NSaved=17 IEnMin=17 EnMin= -4069.81182026906     IErMin=17 ErrMin= 1.32D-07
 ErrMax= 1.32D-07  0.00D+00 EMaxC= 1.00D-01 BMatC= 2.12D-11 BMatP= 9.26D-11
 IDIUse=1 WtCom= 1.00D+00 WtEn= 0.00D+00
 Coeff-Com: -0.829D-05 0.162D-04 0.315D-04 0.449D-04 0.744D-04-0.159D-03
 Coeff-Com: -0.927D-03-0.302D-02-0.777D-04 0.107D-01 0.190D-01-0.897D-02
 Coeff-Com: -0.391D-01-0.994D-01-0.193D-01 0.320D+00 0.821D+00
 Coeff:     -0.829D-05 0.162D-04 0.315D-04 0.449D-04 0.744D-04-0.159D-03
 Coeff:     -0.927D-03-0.302D-02-0.777D-04 0.107D-01 0.190D-01-0.897D-02
 Coeff:     -0.391D-01-0.994D-01-0.193D-01 0.320D+00 0.821D+00
 Gap=     0.120 Goal=   None    Shift=    0.000
 RMSDP=1.36D-08 MaxDP=1.01D-06 DE=-5.46D-10 OVMax= 8.36D-06

 Cycle  18  Pass 1  IDiag  1:
 RMSU=  5.27D-09    CP:  9.64D-01  1.49D+00  6.84D-01  6.24D-01  8.50D-01
                    CP:  8.97D-01  1.11D+00  1.38D+00  1.75D+00  2.22D+00
                    CP:  1.96D+00  1.98D+00  1.55D+00  1.40D+00  1.58D+00
                    CP:  1.62D+00  1.36D+00
 E= -4069.81182026920     Delta-E=       -0.000000000142 Rises=F Damp=F
 DIIS: error= 6.47D-08 at cycle  18 NSaved=  18.
 NSaved=18 IEnMin=18 EnMin= -4069.81182026920     IErMin=18 ErrMin= 6.47D-08
 ErrMax= 6.47D-08  0.00D+00 EMaxC= 1.00D-01 BMatC= 7.84D-12 BMatP= 2.12D-11
 IDIUse=1 WtCom= 1.00D+00 WtEn= 0.00D+00
 Coeff-Com:  0.652D-06-0.164D-05 0.515D-06 0.491D-05 0.653D-04 0.134D-03
 Coeff-Com:  0.213D-03-0.179D-03-0.112D-02-0.372D-02 0.169D-02 0.150D-01
 Coeff-Com:  0.128D-01-0.367D-01-0.144D+00-0.130D+00 0.376D+00 0.910D+00
 Coeff:      0.652D-06-0.164D-05 0.515D-06 0.491D-05 0.653D-04 0.134D-03
 Coeff:      0.213D-03-0.179D-03-0.112D-02-0.372D-02 0.169D-02 0.150D-01
 Coeff:      0.128D-01-0.367D-01-0.144D+00-0.130D+00 0.376D+00 0.910D+00
 Gap=     0.120 Goal=   None    Shift=    0.000
 RMSDP=1.07D-08 MaxDP=7.71D-07 DE=-1.42D-10 OVMax= 7.20D-06

 Cycle  19  Pass 1  IDiag  1:
 RMSU=  3.16D-09    CP:  9.64D-01  1.49D+00  6.84D-01  6.24D-01  8.50D-01
                    CP:  8.97D-01  1.11D+00  1.38D+00  1.75D+00  2.22D+00
                    CP:  1.96D+00  1.98D+00  1.56D+00  1.43D+00  1.71D+00
                    CP:  1.90D+00  1.87D+00  1.24D+00
 E= -4069.81182026936     Delta-E=       -0.000000000156 Rises=F Damp=F
 DIIS: error= 4.34D-08 at cycle  19 NSaved=  19.
 NSaved=19 IEnMin=19 EnMin= -4069.81182026936     IErMin=19 ErrMin= 4.34D-08
 ErrMax= 4.34D-08  0.00D+00 EMaxC= 1.00D-01 BMatC= 2.57D-12 BMatP= 7.84D-12
 IDIUse=1 WtCom= 1.00D+00 WtEn= 0.00D+00
 Coeff-Com:  0.316D-05-0.642D-05-0.103D-04-0.122D-04 0.208D-04 0.134D-03
 Coeff-Com:  0.466D-03 0.869D-03-0.637D-03-0.636D-02-0.553D-02 0.123D-01
 Coeff-Com:  0.227D-01 0.109D-01-0.842D-01-0.201D+00-0.479D-01 0.554D+00
 Coeff-Com:  0.744D+00
 Coeff:      0.316D-05-0.642D-05-0.103D-04-0.122D-04 0.208D-04 0.134D-03
 Coeff:      0.466D-03 0.869D-03-0.637D-03-0.636D-02-0.553D-02 0.123D-01
 Coeff:      0.227D-01 0.109D-01-0.842D-01-0.201D+00-0.479D-01 0.554D+00
 Coeff:      0.744D+00
 Gap=     0.120 Goal=   None    Shift=    0.000
 RMSDP=6.25D-09 MaxDP=4.38D-07 DE=-1.56D-10 OVMax= 3.55D-06

 SCF Done:  E(RCAM-B3LYP) =  -4069.81182027     A.U. after   19 cycles
            NFock= 19  Conv=0.63D-08     -V/T= 2.0102
 KE= 4.028800767417D+03 PE=-4.049975601011D+04 EE= 1.689186752014D+04
 Leave Link  502 at Thu Aug 19 19:06:55 2021, MaxMem= 23488102400 cpu:           15496.8 elap:             671.3
 (Enter /sw/apps/gaussian-16.0/g16/l801.exe)
 DoSCS=F DFT=T ScalE2(SS,OS)=  1.000000  1.000000
 ExpMin= 3.36D-02 ExpMax= 4.95D+03 ExpMxC= 7.45D+02 IAcc=3 IRadAn=         5 AccDes= 0.00D+00
 HarFok:  IExCor=  205 AccDes= 0.00D+00 IRadAn=         5 IDoV=-2 UseB2=F ITyADJ=14
 ICtDFT= 12500011 ScaDFX=  1.000000  1.000000  1.000000  1.000000
 GSVD:  LWork=       -9588 too small for GESVD, short by       45590 words or       45590 for optimal perf.
 Largest valence mixing into a core orbital is  2.03D-04
 Largest core mixing into a valence orbital is  5.24D-05
 Range of M.O.s used for correlation:    95  1572
 NBasis=  1572 NAE=   312 NBE=   312 NFC=    94 NFV=     0
 NROrb=   1478 NOA=   218 NOB=   218 NVA=  1260 NVB=  1260
 Leave Link  801 at Thu Aug 19 19:06:56 2021, MaxMem= 23488102400 cpu:               8.6 elap:               0.4
 (Enter /sw/apps/gaussian-16.0/g16/l914.exe)
 RHF ground state
 Two-electron integrals replicated using symmetry.
 MDV= 23488102400 DFT=T DoStab=F Mixed=T DoRPA=T DoScal=F NonHer=T
 Making orbital integer symmetry assigments:
 Orbital symmetries:
       Occupied  (A) (A) (A) (A) (A) (A) (A) (A) (A) (A) (A) (A)
                 (A) (A) (A) (A) (A) (A) (A) (A) (A) (A) (A) (A)
                 (A) (A) (A) (A) (A) (A) (A) (A) (A) (A) (A) (A)
                 (A) (A) (A) (A) (A) (A) (A) (A) (A) (A) (A) (A)
                 (A) (A) (A) (A) (A) (A) (A) (A) (A) (A) (A) (A)
                 (A) (A) (A) (A) (A) (A) (A) (A) (A) (A) (A) (A)
                 (A) (A) (A) (A) (A) (A) (A) (A) (A) (A) (A) (A)
                 (A) (A) (A) (A) (A) (A) (A) (A) (A) (A) (A) (A)
                 (A) (A) (A) (A) (A) (A) (A) (A) (A) (A) (A) (A)
                 (A) (A) (A) (A) (A) (A) (A) (A) (A) (A) (A) (A)
                 (A) (A) (A) (A) (A) (A) (A) (A) (A) (A) (A) (A)
                 (A) (A) (A) (A) (A) (A) (A) (A) (A) (A) (A) (A)
                 (A) (A) (A) (A) (A) (A) (A) (A) (A) (A) (A) (A)
                 (A) (A) (A) (A) (A) (A) (A) (A) (A) (A) (A) (A)
                 (A) (A) (A) (A) (A) (A) (A) (A) (A) (A) (A) (A)
                 (A) (A) (A) (A) (A) (A) (A) (A) (A) (A) (A) (A)
                 (A) (A) (A) (A) (A) (A) (A) (A) (A) (A) (A) (A)
                 (A) (A) (A) (A) (A) (A) (A) (A) (A) (A) (A) (A)
                 (A) (A) (A) (A) (A) (A) (A) (A) (A) (A) (A) (A)
                 (A) (A) (A) (A) (A) (A) (A) (A) (A) (A) (A) (A)
                 (A) (A) (A) (A) (A) (A) (A) (A) (A) (A) (A) (A)
                 (A) (A) (A) (A) (A) (A) (A) (A) (A) (A) (A) (A)
                 (A) (A) (A) (A) (A) (A) (A) (A) (A) (A) (A) (A)
                 (A) (A) (A) (A) (A) (A) (A) (A) (A) (A) (A) (A)
                 (A) (A) (A) (A) (A) (A) (A) (A) (A) (A) (A) (A)
                 (A) (A) (A) (A) (A) (A) (A) (A) (A) (A) (A) (A)
       Virtual   (A) (A) (A) (A) (A) (A) (A) (A) (A) (A) (A) (A)
                 (A) (A) (A) (A) (A) (A) (A) (A) (A) (A) (A) (A)
                 (A) (A) (A) (A) (A) (A) (A) (A) (A) (A) (A) (A)
                 (A) (A) (A) (A) (A) (A) (A) (A) (A) (A) (A) (A)
                 (A) (A) (A) (A) (A) (A) (A) (A) (A) (A) (A) (A)
                 (A) (A) (A) (A) (A) (A) (A) (A) (A) (A) (A) (A)
                 (A) (A) (A) (A) (A) (A) (A) (A) (A) (A) (A) (A)
                 (A) (A) (A) (A) (A) (A) (A) (A) (A) (A) (A) (A)
                 (A) (A) (A) (A) (A) (A) (A) (A) (A) (A) (A) (A)
                 (A) (A) (A) (A) (A) (A) (A) (A) (A) (A) (A) (A)
                 (A) (A) (A) (A) (A) (A) (A) (A) (A) (A) (A) (A)
                 (A) (A) (A) (A) (A) (A) (A) (A) (A) (A) (A) (A)
                 (A) (A) (A) (A) (A) (A) (A) (A) (A) (A) (A) (A)
                 (A) (A) (A) (A) (A) (A) (A) (A) (A) (A) (A) (A)
                 (A) (A) (A) (A) (A) (A) (A) (A) (A) (A) (A) (A)
                 (A) (A) (A) (A) (A) (A) (A) (A) (A) (A) (A) (A)
                 (A) (A) (A) (A) (A) (A) (A) (A) (A) (A) (A) (A)
                 (A) (A) (A) (A) (A) (A) (A) (A) (A) (A) (A) (A)
                 (A) (A) (A) (A) (A) (A) (A) (A) (A) (A) (A) (A)
                 (A) (A) (A) (A) (A) (A) (A) (A) (A) (A) (A) (A)
                 (A) (A) (A) (A) (A) (A) (A) (A) (A) (A) (A) (A)
                 (A) (A) (A) (A) (A) (A) (A) (A) (A) (A) (A) (A)
                 (A) (A) (A) (A) (A) (A) (A) (A) (A) (A) (A) (A)
                 (A) (A) (A) (A) (A) (A) (A) (A) (A) (A) (A) (A)
                 (A) (A) (A) (A) (A) (A) (A) (A) (A) (A) (A) (A)
                 (A) (A) (A) (A) (A) (A) (A) (A) (A) (A) (A) (A)
                 (A) (A) (A) (A) (A) (A) (A) (A) (A) (A) (A) (A)
                 (A) (A) (A) (A) (A) (A) (A) (A) (A) (A) (A) (A)
                 (A) (A) (A) (A) (A) (A) (A) (A) (A) (A) (A) (A)
                 (A) (A) (A) (A) (A) (A) (A) (A) (A) (A) (A) (A)
                 (A) (A) (A) (A) (A) (A) (A) (A) (A) (A) (A) (A)
                 (A) (A) (A) (A) (A) (A) (A) (A) (A) (A) (A) (A)
                 (A) (A) (A) (A) (A) (A) (A) (A) (A) (A) (A) (A)
                 (A) (A) (A) (A) (A) (A) (A) (A) (A) (A) (A) (A)
                 (A) (A) (A) (A) (A) (A) (A) (A) (A) (A) (A) (A)
                 (A) (A) (A) (A) (A) (A) (A) (A) (A) (A) (A) (A)
                 (A) (A) (A) (A) (A) (A) (A) (A) (A) (A) (A) (A)
                 (A) (A) (A) (A) (A) (A) (A) (A) (A) (A) (A) (A)
                 (A) (A) (A) (A) (A) (A) (A) (A) (A) (A) (A) (A)
                 (A) (A) (A) (A) (A) (A) (A) (A) (A) (A) (A) (A)
                 (A) (A) (A) (A) (A) (A) (A) (A) (A) (A) (A) (A)
                 (A) (A) (A) (A) (A) (A) (A) (A) (A) (A) (A) (A)
                 (A) (A) (A) (A) (A) (A) (A) (A) (A) (A) (A) (A)
                 (A) (A) (A) (A) (A) (A) (A) (A) (A) (A) (A) (A)
                 (A) (A) (A) (A) (A) (A) (A) (A) (A) (A) (A) (A)
                 (A) (A) (A) (A) (A) (A) (A) (A) (A) (A) (A) (A)
                 (A) (A) (A) (A) (A) (A) (A) (A) (A) (A) (A) (A)
                 (A) (A) (A) (A) (A) (A) (A) (A) (A) (A) (A) (A)
                 (A) (A) (A) (A) (A) (A) (A) (A) (A) (A) (A) (A)
                 (A) (A) (A) (A) (A) (A) (A) (A) (A) (A) (A) (A)
                 (A) (A) (A) (A) (A) (A) (A) (A) (A) (A) (A) (A)
                 (A) (A) (A) (A) (A) (A) (A) (A) (A) (A) (A) (A)
                 (A) (A) (A) (A) (A) (A) (A) (A) (A) (A) (A) (A)
                 (A) (A) (A) (A) (A) (A) (A) (A) (A) (A) (A) (A)
                 (A) (A) (A) (A) (A) (A) (A) (A) (A) (A) (A) (A)
                 (A) (A) (A) (A) (A) (A) (A) (A) (A) (A) (A) (A)
                 (A) (A) (A) (A) (A) (A) (A) (A) (A) (A) (A) (A)
                 (A) (A) (A) (A) (A) (A) (A) (A) (A) (A) (A) (A)
                 (A) (A) (A) (A) (A) (A) (A) (A) (A) (A) (A) (A)
                 (A) (A) (A) (A) (A) (A) (A) (A) (A) (A) (A) (A)
                 (A) (A) (A) (A) (A) (A) (A) (A) (A) (A) (A) (A)
                 (A) (A) (A) (A) (A) (A) (A) (A) (A) (A) (A) (A)
                 (A) (A) (A) (A) (A) (A) (A) (A) (A) (A) (A) (A)
                 (A) (A) (A) (A) (A) (A) (A) (A) (A) (A) (A) (A)
                 (A) (A) (A) (A) (A) (A) (A) (A) (A) (A) (A) (A)
                 (A) (A) (A) (A) (A) (A) (A) (A) (A) (A) (A) (A)
                 (A) (A) (A) (A) (A) (A) (A) (A) (A) (A) (A) (A)
                 (A) (A) (A) (A) (A) (A) (A) (A) (A) (A) (A) (A)
                 (A) (A) (A) (A) (A) (A) (A) (A) (A) (A) (A) (A)
                 (A) (A) (A) (A) (A) (A) (A) (A) (A) (A) (A) (A)
                 (A) (A) (A) (A) (A) (A) (A) (A) (A) (A) (A) (A)
                 (A) (A) (A) (A) (A) (A) (A) (A) (A) (A) (A) (A)
                 (A) (A) (A) (A) (A) (A) (A) (A) (A) (A) (A) (A)
                 (A) (A) (A) (A) (A) (A) (A) (A) (A) (A) (A) (A)
                 (A) (A) (A) (A) (A) (A) (A) (A) (A) (A) (A) (A)
                 (A) (A) (A) (A) (A) (A) (A) (A) (A) (A) (A) (A)
                 (A) (A) (A) (A) (A) (A) (A) (A) (A) (A) (A) (A)
                 (A) (A) (A) (A) (A) (A) (A) (A) (A) (A) (A) (A)
                 (A) (A) (A) (A) (A) (A) (A) (A) (A) (A) (A) (A)
                 (A) (A) (A) (A) (A) (A) (A) (A) (A) (A) (A) (A)
                 (A) (A) (A) (A) (A) (A) (A) (A) (A) (A) (A) (A)
                 (A) (A) (A) (A) (A) (A) (A) (A) (A) (A) (A) (A)
                 (A) (A) (A) (A) (A) (A) (A) (A) (A) (A) (A) (A)
                 (A) (A) (A) (A) (A) (A) (A) (A) (A) (A) (A) (A)
                 (A) (A) (A) (A) (A) (A) (A) (A) (A) (A) (A) (A)
                 (A) (A) (A) (A) (A) (A) (A) (A) (A) (A) (A) (A)
                 (A) (A) (A) (A) (A) (A) (A) (A) (A) (A) (A) (A)
                 (A) (A) (A) (A) (A) (A) (A) (A) (A) (A) (A) (A)
                 (A) (A) (A) (A) (A) (A) (A) (A) (A) (A) (A) (A)
                 (A) (A) (A) (A) (A) (A) (A) (A) (A) (A) (A) (A)
                 (A) (A) (A) (A) (A) (A) (A) (A) (A) (A) (A) (A)
                 (A) (A) (A) (A) (A) (A) (A) (A) (A) (A) (A) (A)
                 (A) (A) (A) (A) (A) (A) (A) (A) (A) (A) (A) (A)
                 (A) (A) (A) (A) (A) (A) (A) (A) (A) (A) (A) (A)
                 (A) (A) (A) (A) (A) (A) (A) (A) (A) (A) (A) (A)
                 (A) (A) (A) (A) (A) (A) (A) (A) (A) (A) (A) (A)
                 (A) (A) (A) (A) (A) (A) (A) (A) (A) (A) (A) (A)
                 (A) (A) (A) (A) (A) (A) (A) (A) (A) (A) (A) (A)
                 (A) (A) (A) (A) (A) (A) (A) (A) (A) (A) (A) (A)
                 (A) (A) (A) (A) (A) (A) (A) (A) (A) (A) (A) (A)
                 (A) (A) (A) (A) (A) (A) (A) (A) (A) (A) (A) (A)
                 (A) (A) (A) (A) (A) (A) (A) (A) (A) (A) (A) (A)
                 (A) (A) (A) (A) (A) (A) (A) (A) (A) (A) (A) (A)
                 (A) (A) (A) (A) (A) (A) (A) (A) (A) (A) (A) (A)
                 (A) (A) (A) (A) (A) (A) (A) (A) (A) (A) (A) (A)
    20 initial guesses have been made.
 Convergence on wavefunction:    0.001000000000000
 Davidson Disk Diagonalization:  ConvIn= 1.00D-03 SkipCon=T Conv= 1.00D-03.
 Max sub-space:  2000 roots to seek:    20 dimension of matrix:       549360
 Iteration     1 Dimension    20 NMult     0 NNew     20
 CISAX will form    20 AO SS matrices at one time.
 NMat=    20 NSing=    20 JSym2X= 0.
 FoFJK:  IHMeth= 1 ICntrl=       0 DoSepK=T KAlg= 0 I1Cent=           0 FoldK=F
 IRaf=         1 NMat=      40 IRICut=       1 DoRegI=T DoRafI=F ISym2E= 0 IDoP0=3 IntGTp=3.
 FoFCou: FMM=T IPFlag=           0 FMFlag=      100000 FMFlg1=        2001
         NFxFlg=           0 DoJE=F BraDBF=F KetDBF=F FulRan=T
         wScrn=  0.000000 ICntrl=       500 IOpCl=  0 I1Cent=           0 NGrid=           0
         NMat0=   20 NMatS0=     20 NMatT0=    0 NMatD0=   20 NMtDS0=    0 NMtDT0=    0
 Symmetry not used in FoFCou.
 FMM levels:  10  Number of levels for PrismC:   9
 New state      2 was old state      4
 New state      3 was old state      7
 New state      4 was old state     10
 New state      5 was old state      6
 Excitation Energies [eV] at current iteration:
 Root      1 :     2.342283929088826
 Root      2 :     2.535472917111005
 Root      3 :     2.601589815410917
 Root      4 :     2.619455227795032
 Root      5 :     2.630760433510274
 Root      6 :     2.750479804411479
 Root      7 :     3.123553884344952
 Root      8 :     3.333460499408319
 Root      9 :     3.621691368034871
 Root     10 :     3.667703410410688
 Root     11 :     3.744327767940925
 Root     12 :     3.757171702820590
 Root     13 :     4.243054324552228
 Root     14 :     4.248061052585295
 Root     15 :     4.358061530559681
 Root     16 :     4.468731342433300
 Root     17 :     4.572711223550002
 Root     18 :     4.615163881561108
 Root     19 :     4.731157199380377
 Root     20 :     4.820068745050285
 Iteration     2 Dimension    30 NMult    20 NNew     10
 CISAX will form    10 AO SS matrices at one time.
 NMat=    10 NSing=    10 JSym2X= 0.
 New state      1 was old state      3
 Root      1 not converged, maximum delta is    0.337421726858004
 New state      2 was old state      5
 Root      2 not converged, maximum delta is    0.479427321892150
 New state      3 was old state      4
 Root      3 not converged, maximum delta is    0.308218361099122
 New state      4 was old state      1
 Root      4 not converged, maximum delta is    0.003239597650923
 New state      5 was old state      2
 Root      5 not converged, maximum delta is    0.005415424683821
 Excitation Energies [eV] at current iteration:
 Root      1 :     1.771806758871918   Change is   -0.829783056538999
 Root      2 :     2.224662801545623   Change is   -0.406097631964651
 Root      3 :     2.242812043389533   Change is   -0.376643184405499
 Root      4 :     2.341514484389402   Change is   -0.000769444699425
 Root      5 :     2.534478717478100   Change is   -0.000994199632905
 Iteration     3 Dimension    40 NMult    30 NNew     10
 CISAX will form    10 AO SS matrices at one time.
 NMat=    10 NSing=    10 JSym2X= 0.
 Root      1 not converged, maximum delta is    0.053800808591433
 Root      2 not converged, maximum delta is    0.364164464208958
 Root      3 not converged, maximum delta is    0.438081128544110
 No map to state      4
 New state      5 was old state      4
 Root      5 has converged.
 Excitation Energies [eV] at current iteration:
 Root      1 :     1.667508836629185   Change is   -0.104297922242732
 Root      2 :     2.062294067445602   Change is   -0.162368734100021
 Root      3 :     2.192086756596894   Change is   -0.050725286792639
 Root      4 :     2.236368932716970
 Root      5 :     2.341509871707864   Change is   -0.000004612681538
 Iteration     4 Dimension    48 NMult    40 NNew      8
 CISAX will form     8 AO SS matrices at one time.
 NMat=     8 NSing=     8 JSym2X= 0.
 Root      1 not converged, maximum delta is    0.010936865059785
 Root      2 not converged, maximum delta is    0.246184932230037
 Root      3 not converged, maximum delta is    0.247897616120226
 Root      4 not converged, maximum delta is    0.221574434050268
 Root      5 has converged.
 Excitation Energies [eV] at current iteration:
 Root      1 :     1.651021861560009   Change is   -0.016486975069176
 Root      2 :     1.729989968380882   Change is   -0.332304099064720
 Root      3 :     2.180641868494460   Change is   -0.011444888102434
 Root      4 :     2.198348359610997   Change is   -0.038020573105973
 Root      5 :     2.341509218805339   Change is   -0.000000652902525
 Iteration     5 Dimension    56 NMult    48 NNew      8
 CISAX will form     8 AO SS matrices at one time.
 NMat=     8 NSing=     8 JSym2X= 0.
 Root      1 not converged, maximum delta is    0.001547642382346
 Root      2 not converged, maximum delta is    0.016028187868859
 Root      3 not converged, maximum delta is    0.004364822668433
 Root      4 not converged, maximum delta is    0.004237030918039
 Root      5 has converged.
 Excitation Energies [eV] at current iteration:
 Root      1 :     1.649316405708559   Change is   -0.001705455851450
 Root      2 :     1.706320548663439   Change is   -0.023669419717443
 Root      3 :     2.179689925900813   Change is   -0.000951942593647
 Root      4 :     2.197082497533082   Change is   -0.001265862077916
 Root      5 :     2.341509195463376   Change is   -0.000000023341962
 Iteration     6 Dimension    64 NMult    56 NNew      8
 CISAX will form     8 AO SS matrices at one time.
 NMat=     8 NSing=     8 JSym2X= 0.
 Root      1 has converged.
 Root      2 not converged, maximum delta is    0.006764905997057
 Root      3 has converged.
 Root      4 not converged, maximum delta is    0.001123169379290
 Root      5 has converged.
 Excitation Energies [eV] at current iteration:
 Root      1 :     1.649074087122985   Change is   -0.000242318585574
 Root      2 :     1.701933315047198   Change is   -0.004387233616241
 Root      3 :     2.179544547746487   Change is   -0.000145378154326
 Root      4 :     2.196879628835576   Change is   -0.000202868697506
 Root      5 :     2.341509187221452   Change is   -0.000000008241925
 Iteration     7 Dimension    68 NMult    64 NNew      4
 CISAX will form     4 AO SS matrices at one time.
 NMat=     4 NSing=     4 JSym2X= 0.
 Root      1 has converged.
 Root      2 not converged, maximum delta is    0.001340790025615
 Root      3 has converged.
 Root      4 has converged.
 Root      5 has converged.
 Excitation Energies [eV] at current iteration:
 Root      1 :     1.649073864565069   Change is   -0.000000222557916
[...]
 Alpha virt. eigenvalues --    1.87335   1.87580   1.87684   1.87784   1.87948
 Alpha virt. eigenvalues --    1.87989   1.88197   1.88370   1.88441   1.88712
 Alpha virt. eigenvalues --    1.88797   1.89038   1.89182   1.89358   1.89567
 Alpha virt. eigenvalues --    1.89689   1.89850   1.90022   1.90038   1.90422
 Alpha virt. eigenvalues --    1.90650   1.91126   1.91251   1.91351   1.91620
 Alpha virt. eigenvalues --    1.91884   1.92066   1.92424   1.92474   1.92871
 Alpha virt. eigenvalues --    1.92910   1.93266   1.93354   1.93675   1.94184
 Alpha virt. eigenvalues --    1.94478   1.94617   1.94996   1.95398   1.95614
 Alpha virt. eigenvalues --    1.95769   1.95870   1.96050   1.96061   1.96261
 Alpha virt. eigenvalues --    1.96409   1.96506   1.96689   1.96819   1.97147
 Alpha virt. eigenvalues --    1.97352   1.97720   1.97753   1.98026   1.98062
 Alpha virt. eigenvalues --    1.98426   1.98524   1.98597   1.99033   1.99295
 Alpha virt. eigenvalues --    1.99692   2.00178   2.00580   2.00876   2.00962
 Alpha virt. eigenvalues --    2.01294   2.01331   2.01584   2.01608   2.01681
 Alpha virt. eigenvalues --    2.01826   2.02066   2.02682   2.02914   2.03139
 Alpha virt. eigenvalues --    2.03292   2.03322   2.03385   2.03609   2.03735
 Alpha virt. eigenvalues --    2.03941   2.04230   2.04882   2.05143   2.05438
 Alpha virt. eigenvalues --    2.05789   2.06015   2.06469   2.06817   2.07106
 Alpha virt. eigenvalues --    2.07287   2.07550   2.08541   2.08670   2.08898
 Alpha virt. eigenvalues --    2.09208   2.09486   2.09808   2.10710   2.11096
 Alpha virt. eigenvalues --    2.11191   2.11373   2.11595   2.11638   2.11760
 Alpha virt. eigenvalues --    2.12081   2.12365   2.12705   2.12720   2.12770
 Alpha virt. eigenvalues --    2.13017   2.13113   2.13604   2.13949   2.14073
 Alpha virt. eigenvalues --    2.14454   2.15256   2.15581   2.15829   2.16343
 Alpha virt. eigenvalues --    2.16453   2.16686   2.16812   2.17312   2.17384
 Alpha virt. eigenvalues --    2.17625   2.17821   2.17996   2.18180   2.18208
 Alpha virt. eigenvalues --    2.18223   2.18750   2.18931   2.19466   2.19584
 Alpha virt. eigenvalues --    2.19932   2.20056   2.20127   2.20461   2.20658
 Alpha virt. eigenvalues --    2.21083   2.21333   2.21596   2.21650   2.21966
 Alpha virt. eigenvalues --    2.22077   2.22589   2.22918   2.23237   2.23530
 Alpha virt. eigenvalues --    2.24329   2.24578   2.24904   2.25145   2.26185
 Alpha virt. eigenvalues --    2.26666   2.26695   2.26999   2.27212   2.27424
 Alpha virt. eigenvalues --    2.28027   2.28606   2.29186   2.29616   2.29679
 Alpha virt. eigenvalues --    2.30113   2.30349   2.30887   2.30960   2.31062
 Alpha virt. eigenvalues --    2.31085   2.31394   2.32052   2.32408   2.33032
 Alpha virt. eigenvalues --    2.33355   2.33458   2.33688   2.34035   2.34356
 Alpha virt. eigenvalues --    2.35232   2.35545   2.35689   2.36159   2.36287
 Alpha virt. eigenvalues --    2.36520   2.36543   2.36598   2.37594   2.37840
 Alpha virt. eigenvalues --    2.38204   2.38521   2.38707   2.39023   2.39518
 Alpha virt. eigenvalues --    2.39869   2.40083   2.40358   2.40438   2.41065
 Alpha virt. eigenvalues --    2.41113   2.41434   2.41598   2.41854   2.41918
 Alpha virt. eigenvalues --    2.42354   2.42870   2.42965   2.43302   2.43353
 Alpha virt. eigenvalues --    2.44054   2.44159   2.44639   2.44798   2.44993
 Alpha virt. eigenvalues --    2.45223   2.45478   2.45750   2.46254   2.46393
 Alpha virt. eigenvalues --    2.46458   2.46667   2.46707   2.47003   2.47175
 Alpha virt. eigenvalues --    2.47552   2.47629   2.48063   2.49247   2.49524
 Alpha virt. eigenvalues --    2.49989   2.50038   2.50475   2.50594   2.51010
 Alpha virt. eigenvalues --    2.51509   2.51759   2.51775   2.52301   2.52611
 Alpha virt. eigenvalues --    2.52698   2.53408   2.53838   2.54112   2.54134
 Alpha virt. eigenvalues --    2.54406   2.54710   2.54998   2.55457   2.55853
 Alpha virt. eigenvalues --    2.57790   2.58256   2.58556   2.59121   2.60082
 Alpha virt. eigenvalues --    2.60470   2.60549   2.61162   2.61632   2.62004
 Alpha virt. eigenvalues --    2.62404   2.62619   2.62859   2.63323   2.63828
 Alpha virt. eigenvalues --    2.64164   2.64450   2.64585   2.64978   2.65294
 Alpha virt. eigenvalues --    2.65656   2.66081   2.66692   2.66809   2.66973
 Alpha virt. eigenvalues --    2.67289   2.67819   2.68191   2.68747   2.68905
 Alpha virt. eigenvalues --    2.68976   2.69263   2.69295   2.69795   2.69900
 Alpha virt. eigenvalues --    2.70315   2.70869   2.71293   2.71939   2.72075
 Alpha virt. eigenvalues --    2.72552   2.72667   2.72688   2.72969   2.73196
 Alpha virt. eigenvalues --    2.73356   2.73427   2.73695   2.74419   2.74690
 Alpha virt. eigenvalues --    2.74873   2.75243   2.76507   2.76693   2.77141
 Alpha virt. eigenvalues --    2.77260   2.77371   2.77768   2.78142   2.78422
 Alpha virt. eigenvalues --    2.78603   2.78861   2.79035   2.79353   2.80257
 Alpha virt. eigenvalues --    2.80371   2.80456   2.80892   2.81042   2.81324
 Alpha virt. eigenvalues --    2.81832   2.82197   2.82259   2.82517   2.83650
 Alpha virt. eigenvalues --    2.83706   2.83961   2.84120   2.84478   2.84668
 Alpha virt. eigenvalues --    2.84812   2.85044   2.85598   2.85821   2.86824
 Alpha virt. eigenvalues --    2.86891   2.87386   2.87455   2.88102   2.88355
 Alpha virt. eigenvalues --    2.88422   2.88788   2.88856   2.89025   2.90361
 Alpha virt. eigenvalues --    2.90859   2.91113   2.91253   2.93041   2.93527
 Alpha virt. eigenvalues --    2.93942   2.94119   2.94497   2.94694   2.95196
 Alpha virt. eigenvalues --    2.95703   2.96030   2.96084   2.96336   2.96527
 Alpha virt. eigenvalues --    2.97015   2.97099   2.97669   2.98121   2.98133
 Alpha virt. eigenvalues --    2.98289   2.98538   2.98598   2.98766   2.98819
 Alpha virt. eigenvalues --    2.98976   2.99076   2.99510   2.99886   2.99902
 Alpha virt. eigenvalues --    3.00114   3.00239   3.00345   3.00455   3.01229
 Alpha virt. eigenvalues --    3.01895   3.01942   3.02094   3.02340   3.02589
 Alpha virt. eigenvalues --    3.02854   3.02988   3.03255   3.03515   3.03952
 Alpha virt. eigenvalues --    3.04102   3.04321   3.04400   3.04452   3.04603
 Alpha virt. eigenvalues --    3.04879   3.05234   3.05481   3.06005   3.06357
 Alpha virt. eigenvalues --    3.06648   3.07165   3.08036   3.08080   3.09291
 Alpha virt. eigenvalues --    3.09484   3.09586   3.10317   3.10651   3.10979
 Alpha virt. eigenvalues --    3.11269   3.11626   3.11787   3.11979   3.12138
 Alpha virt. eigenvalues --    3.12546   3.13165   3.13573   3.13806   3.13847
 Alpha virt. eigenvalues --    3.13949   3.14722   3.15850   3.16080   3.17194
 Alpha virt. eigenvalues --    3.17691   3.17971   3.18035   3.19069   3.19157
 Alpha virt. eigenvalues --    3.22143   3.22818   3.23868   3.24586   3.24619
 Alpha virt. eigenvalues --    3.25392   3.26428   3.26823   3.27532   3.27575
 Alpha virt. eigenvalues --    3.28930   3.29453   3.31441   3.31550   3.33340
 Alpha virt. eigenvalues --    3.33348   3.40449   3.40502   3.42767   3.42933
 Alpha virt. eigenvalues --    3.48586   3.48883   3.49937   3.50446   3.51010
 Alpha virt. eigenvalues --    3.51396   3.56483   3.57156   3.59028   3.59489
 Alpha virt. eigenvalues --    3.62686   3.62763   3.66153   3.66202   3.67024
 Alpha virt. eigenvalues --    3.67779   3.73145   3.74248   3.75961   3.76901
          Condensed to atoms (all electrons):
 Mulliken charges:
               1
     1  Mg   0.838650
     2  C   -0.003755
     3  C   -0.094974
     4  C   -0.045494
     5  C   -0.063507
     6  N   -0.256685
     7  C   -0.053016
     8  C   -0.013850
     9  C   -0.086884
    10  C    0.045937
    11  C    0.104761
    12  C    0.053423
    13  C   -0.071042
    14  H    0.033156
    15  N   -0.433219
    16  C    0.168408
    17  C   -0.177309
    18  C   -0.003472
    19  C    0.148793
    20  C    0.110233
    21  C    0.013036
    22  O   -0.249260
    23  C    0.062293
    24  N   -0.340988
    25  C    0.041154
    26  C   -0.028233
    27  C   -0.023965
    28  C    0.074660
    29  C    0.076078
    30  C    0.035093
    31  C   -0.004529
    32  N   -0.310568
    33  C    0.080421
    34  C   -0.168914
    35  C    0.008682
    36  C    0.082910
    37  C    0.127096
    38  C    0.046292
    39  O   -0.187576
    40  C   -0.005612
    41  C    0.213740
    42  O   -0.259142
    43  O   -0.304264
    44  C    0.157767
    45  H   -0.017702
    46  H   -0.016540
    47  H   -0.040995
    48  H    0.001206
    49  H   -0.004730
    50  H    0.025724
    51  H    0.016924
    52  H    0.016696
    53  H    0.010026
    54  H    0.042915
    55  H    0.019184
    56  H    0.017709
    57  H    0.005290
    58  H    0.027203
    59  H    0.039186
    60  H    0.036962
    61  H    0.036689
    62  H    0.031929
    63  H    0.016448
    64  H    0.009807
    65  H    0.023390
    66  H    0.012682
    67  H    0.004984
    68  H    0.006296
    69  H    0.005216
    70  H    0.007973
    71  H    0.017390
    72  H    0.029894
    73  H    0.048906
    74  H    0.009425
    75  H    0.046123
    76  H    0.035462
    77  H    0.044009
    78  H    0.045723
    79  H    0.052513
    80  Mg   0.837466
    81  C   -0.016207
    82  C   -0.088055
    83  C   -0.046094
    84  C   -0.065620
    85  N   -0.254867
    86  C   -0.047710
    87  C   -0.015428
    88  C   -0.091307
    89  C    0.046509
    90  C    0.113257
    91  C    0.062557
    92  C   -0.077205
    93  H    0.033580
    94  N   -0.423353
    95  C    0.162867
    96  C   -0.175794
    97  C   -0.008559
    98  C    0.151991
    99  C    0.100078
   100  C    0.014753
   101  O   -0.253580
   102  C    0.061516
   103  N   -0.350185
   104  C    0.037523
   105  C   -0.019778
   106  C   -0.034592
   107  C    0.089326
   108  C    0.073620
   109  C    0.034847
   110  C   -0.007543
   111  N   -0.324363
   112  C    0.079161
   113  C   -0.163345
   114  C    0.003333
   115  C    0.096016
   116  C    0.131229
   117  C    0.043179
   118  O   -0.187173
   119  C    0.000310
   120  C    0.210661
   121  O   -0.252146
   122  O   -0.304109
   123  C    0.152464
   124  H   -0.021023
   125  H   -0.016082
   126  H   -0.041386
   127  H    0.003051
   128  H   -0.006575
   129  H    0.035444
   130  H    0.011767
   131  H    0.013926
   132  H    0.012907
   133  H    0.037243
   134  H    0.021479
   135  H    0.018397
   136  H    0.008060
   137  H    0.023825
   138  H    0.039104
   139  H    0.036885
   140  H    0.035728
   141  H    0.033828
   142  H    0.013825
   143  H    0.011776
   144  H    0.025061
   145  H    0.012790
   146  H    0.005484
   147  H    0.005884
   148  H    0.003044
   149  H    0.010780
   150  H    0.017412
   151  H    0.030380
   152  H    0.045827
   153  H    0.007569
   154  H    0.047323
   155  H    0.041139
   156  H    0.044066
   157  H    0.048921
   158  H    0.052674
 Sum of Mulliken charges =  -0.00000
 Mulliken charges with hydrogens summed into heavy atoms:
               1
     1  Mg   0.838650
     2  C   -0.003755
     3  C   -0.112676
     4  C   -0.062034
     5  C   -0.104502
     6  N   -0.256685
     7  C   -0.053016
     8  C   -0.012644
     9  C   -0.091614
    10  C    0.045937
    11  C    0.164105
    12  C    0.106364
    13  C   -0.000994
    15  N   -0.433219
    16  C    0.168408
    17  C   -0.177309
    18  C   -0.003472
    19  C    0.148793
    20  C    0.181911
    21  C    0.013036
    22  O   -0.249260
    23  C    0.167872
    24  N   -0.340988
    25  C    0.041154
    26  C   -0.011785
    27  C   -0.014158
    28  C    0.074660
    29  C    0.117134
    30  C    0.046604
    31  C    0.050730
    32  N   -0.310568
    33  C    0.080421
    34  C   -0.168914
    35  C    0.008682
    36  C    0.082910
    37  C    0.231549
    38  C    0.046292
    39  O   -0.187576
    40  C    0.029851
    41  C    0.213740
    42  O   -0.259142
    43  O   -0.304264
    44  C    0.300011
    80  Mg   0.837466
    81  C   -0.016207
    82  C   -0.109079
    83  C   -0.062176
    84  C   -0.107006
    85  N   -0.254867
    86  C   -0.047710
    87  C   -0.012377
    88  C   -0.097882
    89  C    0.046509
    90  C    0.174394
    91  C    0.112708
    92  C   -0.003750
    94  N   -0.423353
    95  C    0.162867
    96  C   -0.175794
    97  C   -0.008559
    98  C    0.151991
    99  C    0.171066
   100  C    0.014753
   101  O   -0.253580
   102  C    0.167957
   103  N   -0.350185
   104  C    0.037523
   105  C   -0.005953
   106  C   -0.022816
   107  C    0.089326
   108  C    0.116955
   109  C    0.043775
   110  C    0.051029
   111  N   -0.324363
   112  C    0.079161
   113  C   -0.163345
   114  C    0.003333
   115  C    0.096016
   116  C    0.231948
   117  C    0.043179
   118  O   -0.187173
   119  C    0.041449
   120  C    0.210661
   121  O   -0.252146
   122  O   -0.304109
   123  C    0.298124
 Electronic spatial extent (au):  <R**2>=          97346.1860
 Charge=             -0.0000 electrons
 Dipole moment (field-independent basis, Debye):
    X=             -4.8836    Y=             -1.8443    Z=             -6.9001  Tot=              8.6524
 Quadrupole moment (field-independent basis, Debye-Ang):
   XX=           -518.5126   YY=           -547.0364   ZZ=           -452.9275
   XY=             -1.8965   XZ=              0.8742   YZ=            -45.0936
 Traceless Quadrupole moment (field-independent basis, Debye-Ang):
   XX=            -12.3538   YY=            -40.8775   ZZ=             53.2313
   XY=             -1.8965   XZ=              0.8742   YZ=            -45.0936
 Octapole moment (field-independent basis, Debye-Ang**2):
  XXX=           -308.2507  YYY=            365.7087  ZZZ=            -81.6159  XYY=             95.8277
  XXY=            -32.9731  XXZ=           -184.7835  XZZ=           -100.4077  YZZ=           -167.7514
  YYZ=           -176.7251  XYZ=           -110.2645
 Hexadecapole moment (field-independent basis, Debye-Ang**3):
 XXXX=         -66729.2689 YYYY=         -42275.9180 ZZZZ=         -24283.9291 XXXY=           -406.9033
 XXXZ=             92.9990 YYYX=           1315.1974 YYYZ=          -1484.4641 ZZZX=           -462.6420
 ZZZY=             92.3215 XXYY=         -18334.3719 XXZZ=         -14106.4276 YYZZ=         -10939.9549
 XXYZ=           -823.2241 YYXZ=            600.8506 ZZXY=           -253.1576
 N-N= 1.550927590229D+04 E-N=-4.049975600289D+04  KE= 4.028800767417D+03
 Leave Link  601 at Thu Aug 19 19:34:09 2021, MaxMem= 23488102400 cpu:              21.9 elap:               1.0
 (Enter /sw/apps/gaussian-16.0/g16/l9999.exe)
 1\1\GINC-BP1-COMPUTE00116\SP\RCAM-B3LYP TD-FC\def2SVP\C68H72Mg2N8O8\OF
 15641\19-Aug-2021\0\\#p cam-b3lyp/Def2SVP td=(nstates=5)\\TDDFT excite
 d states in gaussian\\0,1\Mg,0,0.,0.,0.\C,0,-0.217,-2.218,2.801\C,0,-1
 .255,2.442,2.026\C,0,-0.245,1.85,-2.564\C,0,0.146,-2.824,-2.037\N,0,-0
 .617,-0.009,2.126\C,0,-0.594,-0.908,3.105\C,0,-0.936,-0.309,4.502\C,0,
 -1.773,0.964,4.032\C,0,-1.155,1.168,2.66\C,0,-3.263,0.685,3.863\C,0,0.
 345,0.11,5.299\C,0,0.124,0.397,6.787\H,0,1.168,0.033,7.733\N,0,-0.185,
 1.961,-0.152\C,0,-0.703,2.8,0.777\C,0,-0.62,4.156,0.193\C,0,-0.187,4.0
 15,-1.225\C,0,-0.214,2.583,-1.38\C,0,-0.887,5.406,0.974\C,0,0.181,5.01
 3,-2.277\O,0,0.303,4.69,-3.508\C,0,0.31,6.414,-1.837\N,0,-0.265,-0.413
 ,-2.029\C,0,-0.279,0.569,-2.937\C,0,-0.196,0.024,-4.332\C,0,0.124,-1.5
 33,-4.18\C,0,0.086,-1.632,-2.635\C,0,-1.451,0.205,-5.197\C,0,1.373,-2.
 07,-4.923\C,0,2.626,-1.49,-4.306\N,0,0.15,-2.144,0.303\C,0,0.173,-3.13
 6,-0.688\C,0,0.173,-4.438,0.004\C,0,0.133,-4.111,1.358\C,0,0.083,-2.69
 5,1.502\C,0,0.149,-5.715,-0.623\C,0,0.096,-4.629,2.716\O,0,0.208,-5.74
 7,3.221\C,0,-0.255,-3.428,3.701\C,0,0.717,-3.482,4.848\O,0,1.931,-3.25
 5,4.669\O,0,0.038,-3.556,6.003\C,0,0.943,-3.583,7.183\H,0,-1.859,3.22,
 2.497\H,0,-0.218,2.453,-3.474\H,0,0.276,-3.747,-2.605\H,0,-1.554,-0.94
 9,5.132\H,0,-1.585,1.831,4.665\H,0,-3.484,-0.377,3.969\H,0,-3.511,1.02
 7,2.858\H,0,-3.852,1.301,4.543\H,0,0.669,1.096,4.966\H,0,1.13,-0.639,5
 .189\H,0,-0.844,0.026,7.125\H,0,0.062,1.477,6.921\H,0,-1.344,5.186,1.9
 38\H,0,-1.651,5.963,0.432\H,0,0.007,6.02,1.084\H,0,-0.635,6.744,-1.405
 \H,0,0.665,6.97,-2.704\H,0,1.048,6.466,-1.036\H,0,0.608,0.501,-4.891\H
 ,0,-0.692,-2.156,-4.547\H,0,-1.267,0.74,-6.129\H,0,-2.204,0.714,-4.596
 \H,0,-1.967,-0.72,-5.453\H,0,1.356,-1.759,-5.967\H,0,1.452,-3.157,-4.9
 02\H,0,2.714,-0.522,-4.798\H,0,3.487,-2.121,-4.529\H,0,2.495,-1.303,-3
 .24\H,0,0.867,-6.333,-0.084\H,0,0.404,-5.642,-1.68\H,0,-0.891,-5.999,-
 0.463\H,0,-1.283,-3.581,4.028\H,0,0.698,-4.478,7.755\H,0,0.833,-2.619,
 7.68\H,0,2.,-3.754,6.976\Mg,0,8.94071,0.80655,0.68676\C,0,8.87669,-2.3
 0125,2.48023\C,0,7.71042,2.28552,3.50343\C,0,8.55999,3.46867,-0.99716\
 C,0,9.06279,-1.05465,-2.25717\N,0,8.40427,-0.00798,2.67196\C,0,8.48044
 ,-1.19334,3.25802\C,0,8.18842,-1.17708,4.78249\C,0,7.29862,0.1584,4.84
 266\C,0,7.85793,0.88012,3.61833\C,0,5.8178,-0.09422,4.61309\C,0,9.4949
 3,-1.03592,5.63988\C,0,9.31857,-1.32249,7.1327\H,0,10.41161,-1.97242,7
 .85056\N,0,8.70983,2.68399,1.28716\C,0,8.21671,3.105,2.47074\C,0,8.234
 35,4.57491,2.41396\C,0,8.62383,4.98654,1.03789\C,0,8.62616,3.70102,0.3
 6892\C,0,7.97903,5.43873,3.61482\C,0,8.92953,6.31844,0.42243\O,0,9.013
 26,6.47007,-0.84754\C,0,9.03554,7.45816,1.34508\N,0,8.61403,1.1611,-1.
 33559\C,0,8.53773,2.41536,-1.81408\C,0,8.57651,2.42661,-3.32363\C,0,8.
 93977,0.93016,-3.75523\C,0,8.96135,0.26323,-2.36235\C,0,7.2853,2.85735
 ,-4.01906\C,0,10.17182,0.74463,-4.68275\C,0,11.43701,1.10728,-3.939\N,
 0,9.15207,-1.28175,0.1745\C,0,9.15257,-1.84674,-1.11966\C,0,9.20742,-3
 .31373,-0.95425\C,0,9.21184,-3.50279,0.43598\C,0,9.14278,-2.24343,1.09
 077\C,0,9.19727,-4.27065,-2.00797\C,0,9.24849,-4.48182,1.49844\O,0,9.3
 9664,-5.7021,1.55052\C,0,8.9055,-3.7534,2.8689\C,0,9.92094,-4.18506,3.
 89119\O,0,11.11821,-3.87399,3.76325\O,0,9.28168,-4.70343,4.95562\C,0,1
 0.24625,-5.13596,6.00172\H,0,7.1146,2.80763,4.25262\H,0,8.53952,4.3612
 1,-1.62679\H,0,9.20266,-1.70061,-3.12657\H,0,7.61531,-2.02233,5.14427\
 H,0,7.50103,0.72751,5.74626\H,0,5.62297,-1.11773,4.32917\H,0,5.52368,0
 .58091,3.82015\H,0,5.24311,0.20665,5.49373\H,0,9.7814,0.02271,5.68434\
 H,0,10.27891,-1.6517,5.24387\H,0,8.3667,-1.82362,7.34658\H,0,9.24485,-
 0.36971,7.66261\H,0,7.55724,4.85891,4.44506\H,0,7.18304,6.13968,3.3410
 7\H,0,8.86042,6.00664,3.92024\H,0,8.10317,7.56625,1.89413\H,0,9.34625,
 8.30457,0.72951\H,0,9.81291,7.23796,2.08524\H,0,9.34886,3.09407,-3.685
 67\H,0,8.12055,0.45791,-4.31711\H,0,7.42268,3.71831,-4.70021\H,0,6.548
 99,3.08655,-3.26022\H,0,6.78879,2.07816,-4.59486\H,0,10.10851,1.42337,
 -5.53684\H,0,10.26784,-0.2614,-5.07731\H,0,11.47903,2.19594,-4.0397\H,
 0,12.30159,0.63454,-4.40058\H,0,11.34502,0.87835,-2.87093\H,0,9.94142,
 -5.01555,-1.75924\H,0,9.40502,-3.80558,-2.96939\H,0,8.16584,-4.62642,-
 1.93841\H,0,7.89256,-4.0442,3.1499\H,0,10.03954,-6.19014,6.21066\H,0,1
 0.12006,-4.42259,6.83775\H,0,11.29485,-5.17568,5.73097\\Version=ES64L-
 G16RevA.03\State=1-A\HF=-4069.8118203\RMSD=6.251e-09\PG=C01 [X(C68H72M
 g2N8O8)]\\@


 TERENCE, THIS IS STUPID STUFF:
 YOU EAT YOUR VICTUALS FAST ENOUGH;
 THERE CAN'T BE MUCH AMISS, 'TIS CLEAR
 TO SEE THE RATE YOU DRINK YOUR BEER.
 BUT OH, GOOD LORD, THE VERSE YOU MAKE,
 IT GIVES A CHAP THE BELLY-ACHE.
 THE COW, THE OLD COW, SHE IS DEAD;
 IT SLEEPS WELL, THE HORNED HEAD:
 WE POOR LADS, 'TIS OUR TURN NOW
 TO HEAR SUCH TUNES AS KILLED THE COW.
 PRETTY FRIENDSHIP 'TIS TO RHYME
 YOUR FRIENDS TO DEATH BEFORE THEIR TIME.
 MOPING, MELANCHOLY MAD:
 COME PIPE A TUNE TO DANCE TO, LAD.

     -- A. E. HOUSMAN
 Job cpu time:       0 days 15 hours 10 minutes 47.6 seconds.
 Elapsed time:       0 days  0 hours 38 minutes 38.2 seconds.
 File lengths (MBytes):  RWF=  13225 Int=      0 D2E=      0 Chk=    574 Scr=      1
 Normal termination of Gaussian 16 at Thu Aug 19 19:34:10 2021.
