 Entering Gaussian System, Link 0=g16
 Initial command:
 /sw/apps/gaussian-16.0/g16/l1.exe "/tmp/Gau-106169.inp" -scrdir="/tmp/"
 Entering Link 1 = /sw/apps/gaussian-16.0/g16/l1.exe PID=    106170.
  
 Copyright (c) 1988,1990,1992,1993,1995,1998,2003,2009,2016,
            Gaussian, Inc.  All Rights Reserved.
  
 This is part of the Gaussian(R) 16 program.  It is based on
 the Gaussian(R) 09 system (copyright 2009, Gaussian, Inc.),
 the Gaussian(R) 03 system (copyright 2003, Gaussian, Inc.),
 the Gaussian(R) 98 system (copyright 1998, Gaussian, Inc.),
 the Gaussian(R) 94 system (copyright 1995, Gaussian, Inc.),
 the Gaussian 92(TM) system (copyright 1992, Gaussian, Inc.),
 the Gaussian 90(TM) system (copyright 1990, Gaussian, Inc.),
 the Gaussian 88(TM) system (copyright 1988, Gaussian, Inc.),
 the Gaussian 86(TM) system (copyright 1986, Carnegie Mellon
 University), and the Gaussian 82(TM) system (copyright 1983,
 Carnegie Mellon University). Gaussian is a federally registered
 trademark of Gaussian, Inc.
  
 This software contains proprietary and confidential information,
 including trade secrets, belonging to Gaussian, Inc.
  
 This software is provided under written license and may be
 used, copied, transmitted, or stored only in accord with that
 written license.
  
 The following legend is applicable only to US Government
 contracts under FAR:
  
                    RESTRICTED RIGHTS LEGEND
  
 Use, reproduction and disclosure by the US Government is
 subject to restrictions as set forth in subparagraphs (a)
 and (c) of the Commercial Computer Software - Restricted
 Rights clause in FAR 52.227-19.
  
 Gaussian, Inc.
 340 Quinnipiac St., Bldg. 40, Wallingford CT 06492
  
  
 ---------------------------------------------------------------
 Warning -- This program may not be used in any manner that
 competes with the business of Gaussian, Inc. or will provide
 assistance to any competitor of Gaussian, Inc.  The licensee
 of this program is prohibited from giving any competitor of
 Gaussian, Inc. access to this program.  By using this program,
 the user acknowledges that Gaussian, Inc. is engaged in the
 business of creating and licensing software in the field of
 computational chemistry and represents and warrants to the
 licensee that it is not a competitor of Gaussian, Inc. and that
 it will not use this program in any manner prohibited above.
 ---------------------------------------------------------------
  

 Cite this work as:
 Gaussian 16, Revision A.03,
 M. J. Frisch, G. W. Trucks, H. B. Schlegel, G. E. Scuseria, 
 M. A. Robb, J. R. Cheeseman, G. Scalmani, V. Barone, 
 G. A. Petersson, H. Nakatsuji, X. Li, M. Caricato, A. V. Marenich, 
 J. Bloino, B. G. Janesko, R. Gomperts, B. Mennucci, H. P. Hratchian, 
 J. V. Ortiz, A. F. Izmaylov, J. L. Sonnenberg, D. Williams-Young, 
 F. Ding, F. Lipparini, F. Egidi, J. Goings, B. Peng, A. Petrone, 
 T. Henderson, D. Ranasinghe, V. G. Zakrzewski, J. Gao, N. Rega, 
 G. Zheng, W. Liang, M. Hada, M. Ehara, K. Toyota, R. Fukuda, 
 J. Hasegawa, M. Ishida, T. Nakajima, Y. Honda, O. Kitao, H. Nakai, 
 T. Vreven, K. Throssell, J. A. Montgomery, Jr., J. E. Peralta, 
 F. Ogliaro, M. J. Bearpark, J. J. Heyd, E. N. Brothers, K. N. Kudin, 
 V. N. Staroverov, T. A. Keith, R. Kobayashi, J. Normand, 
 K. Raghavachari, A. P. Rendell, J. C. Burant, S. S. Iyengar, 
 J. Tomasi, M. Cossi, J. M. Millam, M. Klene, C. Adamo, R. Cammi, 
 J. W. Ochterski, R. L. Martin, K. Morokuma, O. Farkas, 
 J. B. Foresman, and D. J. Fox, Gaussian, Inc., Wallingford CT, 2016.
 
 ******************************************
 Gaussian 16:  ES64L-G16RevA.03 25-Dec-2016
                19-Aug-2021 
 ******************************************
 %nproc=24
 Will use up to   24 processors via shared memory.
 %mem=175gb
 -----------------------------------
 #p cam-b3lyp/Def2SVP td=(nstates=5)
 -----------------------------------
 1/38=1,172=1/1;
 2/12=2,17=6,18=5,40=1/2;
 3/5=43,7=101,11=9,25=1,30=1,74=-40/1,2,3,8;
 4//1;
 5/5=2,38=5/2;
 8/6=1,10=1,108=5/1;
 9/41=5,42=1,70=2/14;
 6/7=2,8=2,9=2,10=2/1;
 99/5=1,9=1/99;
 Leave Link    1 at Thu Aug 19 22:13:02 2021, MaxMem= 23488102400 cpu:               0.8 elap:               0.0
 (Enter /sw/apps/gaussian-16.0/g16/l101.exe)
 --------------------------------
 TDDFT excited states in gaussian
 --------------------------------
 Symbolic Z-matrix:
 Charge =  0 Multiplicity = 1
 Mg                    0.        0.        0. 
 C                    -0.217    -2.218     2.801 
 C                    -1.255     2.442     2.026 
 C                    -0.245     1.85     -2.564 
 C                     0.146    -2.824    -2.037 
 N                    -0.617    -0.009     2.126 
 C                    -0.594    -0.908     3.105 
 C                    -0.936    -0.309     4.502 
 C                    -1.773     0.964     4.032 
 C                    -1.155     1.168     2.66 
 C                    -3.263     0.685     3.863 
 C                     0.345     0.11      5.299 
 C                     0.124     0.397     6.787 
 H                     1.168     0.033     7.733 
 N                    -0.185     1.961    -0.152 
 C                    -0.703     2.8       0.777 
 C                    -0.62      4.156     0.193 
 C                    -0.187     4.015    -1.225 
 C                    -0.214     2.583    -1.38 
 C                    -0.887     5.406     0.974 
 C                     0.181     5.013    -2.277 
 O                     0.303     4.69     -3.508 
 C                     0.31      6.414    -1.837 
 N                    -0.265    -0.413    -2.029 
 C                    -0.279     0.569    -2.937 
 C                    -0.196     0.024    -4.332 
 C                     0.124    -1.533    -4.18 
 C                     0.086    -1.632    -2.635 
 C                    -1.451     0.205    -5.197 
 C                     1.373    -2.07     -4.923 
 C                     2.626    -1.49     -4.306 
 N                     0.15     -2.144     0.303 
 C                     0.173    -3.136    -0.688 
 C                     0.173    -4.438     0.004 
 C                     0.133    -4.111     1.358 
 C                     0.083    -2.695     1.502 
 C                     0.149    -5.715    -0.623 
 C                     0.096    -4.629     2.716 
 O                     0.208    -5.747     3.221 
 C                    -0.255    -3.428     3.701 
 C                     0.717    -3.482     4.848 
 O                     1.931    -3.255     4.669 
 O                     0.038    -3.556     6.003 
 C                     0.943    -3.583     7.183 
 H                    -1.859     3.22      2.497 
 H                    -0.218     2.453    -3.474 
 H                     0.276    -3.747    -2.605 
 H                    -1.554    -0.949     5.132 
 H                    -1.585     1.831     4.665 
 H                    -3.484    -0.377     3.969 
 H                    -3.511     1.027     2.858 
 H                    -3.852     1.301     4.543 
 H                     0.669     1.096     4.966 
 H                     1.13     -0.639     5.189 
 H                    -0.844     0.026     7.125 
 H                     0.062     1.477     6.921 
 H                    -1.344     5.186     1.938 
 H                    -1.651     5.963     0.432 
 H                     0.007     6.02      1.084 
 H                    -0.635     6.744    -1.405 
 H                     0.665     6.97     -2.704 
 H                     1.048     6.466    -1.036 
 H                     0.608     0.501    -4.891 
 H                    -0.692    -2.156    -4.547 
 H                    -1.267     0.74     -6.129 
 H                    -2.204     0.714    -4.596 
 H                    -1.967    -0.72     -5.453 
 H                     1.356    -1.759    -5.967 
 H                     1.452    -3.157    -4.902 
 H                     2.714    -0.522    -4.798 
 H                     3.487    -2.121    -4.529 
 H                     2.495    -1.303    -3.24 
 H                     0.867    -6.333    -0.084 
 H                     0.404    -5.642    -1.68 
 H                    -0.891    -5.999    -0.463 
 H                    -1.283    -3.581     4.028 
 H                     0.698    -4.478     7.755 
 H                     0.833    -2.619     7.68 
 H                     2.       -3.754     6.976 
 Mg                    8.94129   0.80091   0.6858 
 C                     9.11084  -2.68587  -0.14645 
 C                     7.90702  -0.1448    3.79555 
 C                     8.34997   3.85522   1.30947 
 C                     8.87157   1.47125  -2.73348 
 N                     8.59288  -1.18832   1.58793 
 C                     8.74968  -2.44354   1.19529 
 C                     8.58393  -3.49605   2.32415 
 C                     7.66569  -2.63584   3.32201 
 C                     8.10214  -1.23227   2.90704 
 C                     6.17851  -2.77574   3.04262 
 C                     9.95227  -3.87951   2.98945 
 C                     9.90747  -5.12136   3.88251 
 H                     11.07342  -6.0001    3.91172 
 N                     8.70907   1.73578   2.42092 
 C                     8.30375   1.19469   3.58892 
 C                     8.27618   2.30192   4.55715 
 C                     8.53947   3.57109   3.82598 
 C                     8.52205   3.09527   2.45726 
 C                     8.09699   2.08869   6.03222 
 C                     8.75663   4.98204   4.28233 
 O                     8.73122   5.96652   3.46198 
 C                     8.90689   5.18691   5.73041 
 N                     8.43945   2.41551  -0.52398 
 C                     8.28948   3.64721  -0.00597 
 C                     8.20342   4.6901   -1.09472 
 C                     8.57094   3.92658  -2.45102 
 C                     8.72557   2.49207  -1.89996 
 C                     6.84793   5.37921  -1.25017 
 C                     9.72702   4.5202   -3.30176 
 C                     11.03872   4.37202  -2.56497 
 N                     9.16713  -0.34877  -1.12949 
 C                     9.07654   0.12565  -2.45645 
 C                     9.18521  -1.04815  -3.34684 
 C                     9.30936  -2.13525  -2.4686 
 C                     9.25985  -1.67385  -1.12541 
 C                     9.11461  -1.02341  -4.76829 
 C                     9.46037  -3.56934  -2.37229 
 O                     9.64585  -4.47943  -3.17917 
 C                     9.21155  -4.00349  -0.86365 
 C                     10.31927  -4.93778  -0.46045 
 O                     11.49291  -4.53282  -0.38856 
 O                     9.78441  -6.09057  -0.01843 
 C                     10.84344  -7.04567   0.40353 
 H                     7.36082  -0.32347   4.72216 
 H                     8.25313   4.93192   1.46699 
 H                     8.95706   1.60725  -3.8137 
 H                     8.06608  -4.40081   2.02918 
 H                     7.92613  -2.82479   4.3602 
 H                     5.9892   -3.33962   2.14133 
 H                     5.80158  -1.76621   2.94351 
 H                     5.67027  -3.20324   3.91168 
 H                     10.21217  -3.11945   3.73745 
 H                     10.71761  -3.99582   2.24691 
 H                     8.99062  -5.70425   3.73228 
 H                     9.85146  -4.79753   4.92463 
 H                     7.76117   1.06802   6.25324 
 H                     7.26215   2.72367   6.348 
 H                     8.98459   2.35972   6.60788 
 H                     8.02031   4.81871   6.24115 
 H                     9.1424    6.24589   5.85285 
 H                     9.74837   4.58072   6.08406 
 H                     8.92464   5.48124  -0.93029 
 H                     7.72152   3.90503  -3.1495 
 H                     6.90496   6.48028  -1.15819 
 H                     6.17062   4.97054  -0.51208 
 H                     6.32731   5.16908  -2.18291 
 H                     9.57488   5.59182  -3.45222 
 H                     9.81785   4.0669   -4.28323 
 H                     11.04231   5.23438  -1.89161 
 H                     11.87501   4.41054  -3.26008 
 H                     11.04138   3.46878  -1.94385 
 H                     9.89696  -1.67716  -5.1303 
 H                     9.22955  -0.01278  -5.15454 
 H                     8.1026   -1.40822  -4.92004 
 H                     8.2336   -4.48424  -0.81814 
 H                     10.68375  -7.96958  -0.16088 
 H                     10.76697  -7.10887   1.50531 
 H                     11.86686  -6.80913   0.13686 
 
 ITRead=  0  0  0  0  0  0  0  0  0  0  0  0  0  0  0  0  0  0  0  0
 ITRead=  0  0  0  0  0  0  0  0  0  0  0  0  0  0  0  0  0  0  0  0
 ITRead=  0  0  0  0  0  0  0  0  0  0  0  0  0  0  0  0  0  0  0  0
 ITRead=  0  0  0  0  0  0  0  0  0  0  0  0  0  0  0  0  0  0  0  0
 ITRead=  0  0  0  0  0  0  0  0  0  0  0  0  0  0  0  0  0  0  0  0
 ITRead=  0  0  0  0  0  0  0  0  0  0  0  0  0  0  0  0  0  0  0  0
 ITRead=  0  0  0  0  0  0  0  0  0  0  0  0  0  0  0  0  0  0  0  0
 ITRead=  0  0  0  0  0  0  0  0  0  0  0  0  0  0  0  0  0  0
 MicOpt= -1 -1 -1 -1 -1 -1 -1 -1 -1 -1 -1 -1 -1 -1 -1 -1 -1 -1 -1 -1
 MicOpt= -1 -1 -1 -1 -1 -1 -1 -1 -1 -1 -1 -1 -1 -1 -1 -1 -1 -1 -1 -1
 MicOpt= -1 -1 -1 -1 -1 -1 -1 -1 -1 -1 -1 -1 -1 -1 -1 -1 -1 -1 -1 -1
 MicOpt= -1 -1 -1 -1 -1 -1 -1 -1 -1 -1 -1 -1 -1 -1 -1 -1 -1 -1 -1 -1
 MicOpt= -1 -1 -1 -1 -1 -1 -1 -1 -1 -1 -1 -1 -1 -1 -1 -1 -1 -1 -1 -1
 MicOpt= -1 -1 -1 -1 -1 -1 -1 -1 -1 -1 -1 -1 -1 -1 -1 -1 -1 -1 -1 -1
 MicOpt= -1 -1 -1 -1 -1 -1 -1 -1 -1 -1 -1 -1 -1 -1 -1 -1 -1 -1 -1 -1
 MicOpt= -1 -1 -1 -1 -1 -1 -1 -1 -1 -1 -1 -1 -1 -1 -1 -1 -1 -1
 NAtoms=    158 NQM=      158 NQMF=       0 NMMI=      0 NMMIF=      0
                NMic=       0 NMicF=      0.
                    Isotopes and Nuclear Properties:
 (Nuclear quadrupole moments (NQMom) in fm**2, nuclear magnetic moments (NMagM)
  in nuclear magnetons)

  Atom         1           2           3           4           5           6           7           8           9          10
 IAtWgt=          24          12          12          12          12          14          12          12          12          12
 AtmWgt=  23.9850450  12.0000000  12.0000000  12.0000000  12.0000000  14.0030740  12.0000000  12.0000000  12.0000000  12.0000000
 NucSpn=           0           0           0           0           0           2           0           0           0           0
 AtZEff=  -0.0000000  -0.0000000  -0.0000000  -0.0000000  -0.0000000  -0.0000000  -0.0000000  -0.0000000  -0.0000000  -0.0000000
 NQMom=    0.0000000   0.0000000   0.0000000   0.0000000   0.0000000   2.0440000   0.0000000   0.0000000   0.0000000   0.0000000
 NMagM=    0.0000000   0.0000000   0.0000000   0.0000000   0.0000000   0.4037610   0.0000000   0.0000000   0.0000000   0.0000000
 AtZNuc=  12.0000000   6.0000000   6.0000000   6.0000000   6.0000000   7.0000000   6.0000000   6.0000000   6.0000000   6.0000000

  Atom        11          12          13          14          15          16          17          18          19          20
 IAtWgt=          12          12          12           1          14          12          12          12          12          12
 AtmWgt=  12.0000000  12.0000000  12.0000000   1.0078250  14.0030740  12.0000000  12.0000000  12.0000000  12.0000000  12.0000000
 NucSpn=           0           0           0           1           2           0           0           0           0           0
 AtZEff=  -0.0000000  -0.0000000  -0.0000000  -0.0000000  -0.0000000  -0.0000000  -0.0000000  -0.0000000  -0.0000000  -0.0000000
 NQMom=    0.0000000   0.0000000   0.0000000   0.0000000   2.0440000   0.0000000   0.0000000   0.0000000   0.0000000   0.0000000
 NMagM=    0.0000000   0.0000000   0.0000000   2.7928460   0.4037610   0.0000000   0.0000000   0.0000000   0.0000000   0.0000000
 AtZNuc=   6.0000000   6.0000000   6.0000000   1.0000000   7.0000000   6.0000000   6.0000000   6.0000000   6.0000000   6.0000000

  Atom        21          22          23          24          25          26          27          28          29          30
 IAtWgt=          12          16          12          14          12          12          12          12          12          12
 AtmWgt=  12.0000000  15.9949146  12.0000000  14.0030740  12.0000000  12.0000000  12.0000000  12.0000000  12.0000000  12.0000000
 NucSpn=           0           0           0           2           0           0           0           0           0           0
 AtZEff=  -0.0000000  -0.0000000  -0.0000000  -0.0000000  -0.0000000  -0.0000000  -0.0000000  -0.0000000  -0.0000000  -0.0000000
 NQMom=    0.0000000   0.0000000   0.0000000   2.0440000   0.0000000   0.0000000   0.0000000   0.0000000   0.0000000   0.0000000
 NMagM=    0.0000000   0.0000000   0.0000000   0.4037610   0.0000000   0.0000000   0.0000000   0.0000000   0.0000000   0.0000000
 AtZNuc=   6.0000000   8.0000000   6.0000000   7.0000000   6.0000000   6.0000000   6.0000000   6.0000000   6.0000000   6.0000000

  Atom        31          32          33          34          35          36          37          38          39          40
 IAtWgt=          12          14          12          12          12          12          12          12          16          12
 AtmWgt=  12.0000000  14.0030740  12.0000000  12.0000000  12.0000000  12.0000000  12.0000000  12.0000000  15.9949146  12.0000000
 NucSpn=           0           2           0           0           0           0           0           0           0           0
 AtZEff=  -0.0000000  -0.0000000  -0.0000000  -0.0000000  -0.0000000  -0.0000000  -0.0000000  -0.0000000  -0.0000000  -0.0000000
 NQMom=    0.0000000   2.0440000   0.0000000   0.0000000   0.0000000   0.0000000   0.0000000   0.0000000   0.0000000   0.0000000
 NMagM=    0.0000000   0.4037610   0.0000000   0.0000000   0.0000000   0.0000000   0.0000000   0.0000000   0.0000000   0.0000000
 AtZNuc=   6.0000000   7.0000000   6.0000000   6.0000000   6.0000000   6.0000000   6.0000000   6.0000000   8.0000000   6.0000000

  Atom        41          42          43          44          45          46          47          48          49          50
 IAtWgt=          12          16          16          12           1           1           1           1           1           1
 AtmWgt=  12.0000000  15.9949146  15.9949146  12.0000000   1.0078250   1.0078250   1.0078250   1.0078250   1.0078250   1.0078250
 NucSpn=           0           0           0           0           1           1           1           1           1           1
 AtZEff=  -0.0000000  -0.0000000  -0.0000000  -0.0000000  -0.0000000  -0.0000000  -0.0000000  -0.0000000  -0.0000000  -0.0000000
 NQMom=    0.0000000   0.0000000   0.0000000   0.0000000   0.0000000   0.0000000   0.0000000   0.0000000   0.0000000   0.0000000
 NMagM=    0.0000000   0.0000000   0.0000000   0.0000000   2.7928460   2.7928460   2.7928460   2.7928460   2.7928460   2.7928460
 AtZNuc=   6.0000000   8.0000000   8.0000000   6.0000000   1.0000000   1.0000000   1.0000000   1.0000000   1.0000000   1.0000000

  Atom        51          52          53          54          55          56          57          58          59          60
 IAtWgt=           1           1           1           1           1           1           1           1           1           1
 AtmWgt=   1.0078250   1.0078250   1.0078250   1.0078250   1.0078250   1.0078250   1.0078250   1.0078250   1.0078250   1.0078250
 NucSpn=           1           1           1           1           1           1           1           1           1           1
 AtZEff=  -0.0000000  -0.0000000  -0.0000000  -0.0000000  -0.0000000  -0.0000000  -0.0000000  -0.0000000  -0.0000000  -0.0000000
 NQMom=    0.0000000   0.0000000   0.0000000   0.0000000   0.0000000   0.0000000   0.0000000   0.0000000   0.0000000   0.0000000
 NMagM=    2.7928460   2.7928460   2.7928460   2.7928460   2.7928460   2.7928460   2.7928460   2.7928460   2.7928460   2.7928460
 AtZNuc=   1.0000000   1.0000000   1.0000000   1.0000000   1.0000000   1.0000000   1.0000000   1.0000000   1.0000000   1.0000000

  Atom        61          62          63          64          65          66          67          68          69          70
 IAtWgt=           1           1           1           1           1           1           1           1           1           1
 AtmWgt=   1.0078250   1.0078250   1.0078250   1.0078250   1.0078250   1.0078250   1.0078250   1.0078250   1.0078250   1.0078250
 NucSpn=           1           1           1           1           1           1           1           1           1           1
 AtZEff=  -0.0000000  -0.0000000  -0.0000000  -0.0000000  -0.0000000  -0.0000000  -0.0000000  -0.0000000  -0.0000000  -0.0000000
 NQMom=    0.0000000   0.0000000   0.0000000   0.0000000   0.0000000   0.0000000   0.0000000   0.0000000   0.0000000   0.0000000
 NMagM=    2.7928460   2.7928460   2.7928460   2.7928460   2.7928460   2.7928460   2.7928460   2.7928460   2.7928460   2.7928460
 AtZNuc=   1.0000000   1.0000000   1.0000000   1.0000000   1.0000000   1.0000000   1.0000000   1.0000000   1.0000000   1.0000000

  Atom        71          72          73          74          75          76          77          78          79          80
 IAtWgt=           1           1           1           1           1           1           1           1           1          24
 AtmWgt=   1.0078250   1.0078250   1.0078250   1.0078250   1.0078250   1.0078250   1.0078250   1.0078250   1.0078250  23.9850450
 NucSpn=           1           1           1           1           1           1           1           1           1           0
 AtZEff=  -0.0000000  -0.0000000  -0.0000000  -0.0000000  -0.0000000  -0.0000000  -0.0000000  -0.0000000  -0.0000000  -0.0000000
 NQMom=    0.0000000   0.0000000   0.0000000   0.0000000   0.0000000   0.0000000   0.0000000   0.0000000   0.0000000   0.0000000
 NMagM=    2.7928460   2.7928460   2.7928460   2.7928460   2.7928460   2.7928460   2.7928460   2.7928460   2.7928460   0.0000000
 AtZNuc=   1.0000000   1.0000000   1.0000000   1.0000000   1.0000000   1.0000000   1.0000000   1.0000000   1.0000000  12.0000000

  Atom        81          82          83          84          85          86          87          88          89          90
 IAtWgt=          12          12          12          12          14          12          12          12          12          12
 AtmWgt=  12.0000000  12.0000000  12.0000000  12.0000000  14.0030740  12.0000000  12.0000000  12.0000000  12.0000000  12.0000000
 NucSpn=           0           0           0           0           2           0           0           0           0           0
 AtZEff=  -0.0000000  -0.0000000  -0.0000000  -0.0000000  -0.0000000  -0.0000000  -0.0000000  -0.0000000  -0.0000000  -0.0000000
 NQMom=    0.0000000   0.0000000   0.0000000   0.0000000   2.0440000   0.0000000   0.0000000   0.0000000   0.0000000   0.0000000
 NMagM=    0.0000000   0.0000000   0.0000000   0.0000000   0.4037610   0.0000000   0.0000000   0.0000000   0.0000000   0.0000000
 AtZNuc=   6.0000000   6.0000000   6.0000000   6.0000000   7.0000000   6.0000000   6.0000000   6.0000000   6.0000000   6.0000000

  Atom        91          92          93          94          95          96          97          98          99         100
 IAtWgt=          12          12           1          14          12          12          12          12          12          12
 AtmWgt=  12.0000000  12.0000000   1.0078250  14.0030740  12.0000000  12.0000000  12.0000000  12.0000000  12.0000000  12.0000000
 NucSpn=           0           0           1           2           0           0           0           0           0           0
 AtZEff=  -0.0000000  -0.0000000  -0.0000000  -0.0000000  -0.0000000  -0.0000000  -0.0000000  -0.0000000  -0.0000000  -0.0000000
 NQMom=    0.0000000   0.0000000   0.0000000   2.0440000   0.0000000   0.0000000   0.0000000   0.0000000   0.0000000   0.0000000
 NMagM=    0.0000000   0.0000000   2.7928460   0.4037610   0.0000000   0.0000000   0.0000000   0.0000000   0.0000000   0.0000000
 AtZNuc=   6.0000000   6.0000000   1.0000000   7.0000000   6.0000000   6.0000000   6.0000000   6.0000000   6.0000000   6.0000000

  Atom       101         102         103         104         105         106         107         108         109         110
 IAtWgt=          16          12          14          12          12          12          12          12          12          12
 AtmWgt=  15.9949146  12.0000000  14.0030740  12.0000000  12.0000000  12.0000000  12.0000000  12.0000000  12.0000000  12.0000000
 NucSpn=           0           0           2           0           0           0           0           0           0           0
 AtZEff=  -0.0000000  -0.0000000  -0.0000000  -0.0000000  -0.0000000  -0.0000000  -0.0000000  -0.0000000  -0.0000000  -0.0000000
 NQMom=    0.0000000   0.0000000   2.0440000   0.0000000   0.0000000   0.0000000   0.0000000   0.0000000   0.0000000   0.0000000
 NMagM=    0.0000000   0.0000000   0.4037610   0.0000000   0.0000000   0.0000000   0.0000000   0.0000000   0.0000000   0.0000000
 AtZNuc=   8.0000000   6.0000000   7.0000000   6.0000000   6.0000000   6.0000000   6.0000000   6.0000000   6.0000000   6.0000000

  Atom       111         112         113         114         115         116         117         118         119         120
 IAtWgt=          14          12          12          12          12          12          12          16          12          12
 AtmWgt=  14.0030740  12.0000000  12.0000000  12.0000000  12.0000000  12.0000000  12.0000000  15.9949146  12.0000000  12.0000000
 NucSpn=           2           0           0           0           0           0           0           0           0           0
 AtZEff=  -0.0000000  -0.0000000  -0.0000000  -0.0000000  -0.0000000  -0.0000000  -0.0000000  -0.0000000  -0.0000000  -0.0000000
 NQMom=    2.0440000   0.0000000   0.0000000   0.0000000   0.0000000   0.0000000   0.0000000   0.0000000   0.0000000   0.0000000
 NMagM=    0.4037610   0.0000000   0.0000000   0.0000000   0.0000000   0.0000000   0.0000000   0.0000000   0.0000000   0.0000000
 AtZNuc=   7.0000000   6.0000000   6.0000000   6.0000000   6.0000000   6.0000000   6.0000000   8.0000000   6.0000000   6.0000000

  Atom       121         122         123         124         125         126         127         128         129         130
 IAtWgt=          16          16          12           1           1           1           1           1           1           1
 AtmWgt=  15.9949146  15.9949146  12.0000000   1.0078250   1.0078250   1.0078250   1.0078250   1.0078250   1.0078250   1.0078250
 NucSpn=           0           0           0           1           1           1           1           1           1           1
 AtZEff=  -0.0000000  -0.0000000  -0.0000000  -0.0000000  -0.0000000  -0.0000000  -0.0000000  -0.0000000  -0.0000000  -0.0000000
 NQMom=    0.0000000   0.0000000   0.0000000   0.0000000   0.0000000   0.0000000   0.0000000   0.0000000   0.0000000   0.0000000
 NMagM=    0.0000000   0.0000000   0.0000000   2.7928460   2.7928460   2.7928460   2.7928460   2.7928460   2.7928460   2.7928460
 AtZNuc=   8.0000000   8.0000000   6.0000000   1.0000000   1.0000000   1.0000000   1.0000000   1.0000000   1.0000000   1.0000000

  Atom       131         132         133         134         135         136         137         138         139         140
 IAtWgt=           1           1           1           1           1           1           1           1           1           1
 AtmWgt=   1.0078250   1.0078250   1.0078250   1.0078250   1.0078250   1.0078250   1.0078250   1.0078250   1.0078250   1.0078250
 NucSpn=           1           1           1           1           1           1           1           1           1           1
 AtZEff=  -0.0000000  -0.0000000  -0.0000000  -0.0000000  -0.0000000  -0.0000000  -0.0000000  -0.0000000  -0.0000000  -0.0000000
 NQMom=    0.0000000   0.0000000   0.0000000   0.0000000   0.0000000   0.0000000   0.0000000   0.0000000   0.0000000   0.0000000
 NMagM=    2.7928460   2.7928460   2.7928460   2.7928460   2.7928460   2.7928460   2.7928460   2.7928460   2.7928460   2.7928460
 AtZNuc=   1.0000000   1.0000000   1.0000000   1.0000000   1.0000000   1.0000000   1.0000000   1.0000000   1.0000000   1.0000000

  Atom       141         142         143         144         145         146         147         148         149         150
 IAtWgt=           1           1           1           1           1           1           1           1           1           1
 AtmWgt=   1.0078250   1.0078250   1.0078250   1.0078250   1.0078250   1.0078250   1.0078250   1.0078250   1.0078250   1.0078250
 NucSpn=           1           1           1           1           1           1           1           1           1           1
 AtZEff=  -0.0000000  -0.0000000  -0.0000000  -0.0000000  -0.0000000  -0.0000000  -0.0000000  -0.0000000  -0.0000000  -0.0000000
 NQMom=    0.0000000   0.0000000   0.0000000   0.0000000   0.0000000   0.0000000   0.0000000   0.0000000   0.0000000   0.0000000
 NMagM=    2.7928460   2.7928460   2.7928460   2.7928460   2.7928460   2.7928460   2.7928460   2.7928460   2.7928460   2.7928460
 AtZNuc=   1.0000000   1.0000000   1.0000000   1.0000000   1.0000000   1.0000000   1.0000000   1.0000000   1.0000000   1.0000000

  Atom       151         152         153         154         155         156         157         158
 IAtWgt=           1           1           1           1           1           1           1           1
 AtmWgt=   1.0078250   1.0078250   1.0078250   1.0078250   1.0078250   1.0078250   1.0078250   1.0078250
 NucSpn=           1           1           1           1           1           1           1           1
 AtZEff=  -0.0000000  -0.0000000  -0.0000000  -0.0000000  -0.0000000  -0.0000000  -0.0000000  -0.0000000
 NQMom=    0.0000000   0.0000000   0.0000000   0.0000000   0.0000000   0.0000000   0.0000000   0.0000000
 NMagM=    2.7928460   2.7928460   2.7928460   2.7928460   2.7928460   2.7928460   2.7928460   2.7928460
 AtZNuc=   1.0000000   1.0000000   1.0000000   1.0000000   1.0000000   1.0000000   1.0000000   1.0000000
 Leave Link  101 at Thu Aug 19 22:13:02 2021, MaxMem= 23488102400 cpu:               3.2 elap:               0.2
 (Enter /sw/apps/gaussian-16.0/g16/l202.exe)
 Stoichiometry    C68H72Mg2N8O8
 Framework group  C1[X(C68H72Mg2N8O8)]
 Deg. of freedom   468
 Full point group                 C1      NOp   1
 Largest Abelian subgroup         C1      NOp   1
 Largest concise Abelian subgroup C1      NOp   1
                         Standard orientation:                         
 ---------------------------------------------------------------------
 Center     Atomic      Atomic             Coordinates (Angstroms)
 Number     Number       Type             X           Y           Z
 ---------------------------------------------------------------------
      1         12           0       -4.359727    0.472923   -0.843037
      2          6           0       -4.723420   -2.702909    0.767564
      3          6           0       -5.814196    1.868579    1.910093
      4          6           0       -4.464884    3.219338   -2.425051
      5          6           0       -4.001209   -1.257276   -3.846958
      6          7           0       -5.126713   -0.409405    1.036824
      7          6           0       -5.152314   -1.632883    1.556069
      8          6           0       -5.607475   -1.662391    3.045811
      9          6           0       -6.438858   -0.302431    3.081996
     10          6           0       -5.729416    0.445698    1.967133
     11          6           0       -7.905890   -0.474872    2.701757
     12          6           0       -4.397073   -1.620480    4.038233
     13          6           0       -4.730642   -1.972636    5.490841
     14          1           0       -3.748545   -2.703383    6.277506
     15          7           0       -4.580097    2.322702   -0.185311
     16          6           0       -5.183031    2.706589    0.965509
     17          6           0       -5.090860    4.182020    1.001420
     18          6           0       -4.554378    4.636501   -0.311488
     19          6           0       -4.536076    3.396968   -1.045383
     20          6           0       -5.442729    4.999338    2.206381
     21          6           0       -4.136031    5.977226   -0.826827
     22          8           0       -3.918691    6.191128   -2.068432
     23          6           0       -4.072253    7.069900    0.160614
     24          7           0       -4.469104    0.937851   -2.875158
     25          6           0       -4.441581    2.207476   -3.295016
     26          6           0       -4.246115    2.287359   -4.780058
     27          6           0       -3.900762    0.804358   -5.260884
     28          6           0       -4.046721    0.075746   -3.902175
     29          6           0       -5.440038    2.819655   -5.584557
     30          6           0       -2.589402    0.612792   -6.063415
     31          6           0       -1.397893    0.875933   -5.170015
     32          7           0       -4.180685   -1.605632   -1.441869
     33          6           0       -4.063265   -2.099300   -2.749224
     34          6           0       -4.081679   -3.570869   -2.658589
     35          6           0       -4.226139   -3.832627   -1.297538
     36          6           0       -4.320054   -2.602509   -0.586004
     37          6           0       -4.030346   -4.474153   -3.756714
     38          6           0       -4.347744   -4.865431   -0.281475
     39          8           0       -4.245498   -6.093035   -0.276229
     40          6           0       -4.796787   -4.176410    1.082137
     41          6           0       -3.908243   -4.707440    2.173836
     42          8           0       -2.690313   -4.436295    2.196039
     43          8           0       -4.666101   -5.247007    3.140821
     44          6           0       -3.847370   -5.766570    4.268601
     45          1           0       -6.468695    2.386961    2.613550
     46          1           0       -4.387298    4.144389   -3.000115
     47          1           0       -3.808972   -1.863849   -4.733844
     48          1           0       -6.253486   -2.500719    3.307152
     49          1           0       -6.317310    0.223780    4.028596
     50          1           0       -8.108515   -1.483906    2.342988
     51          1           0       -8.089509    0.253979    1.912104
     52          1           0       -8.556507   -0.190519    3.529174
     53          1           0       -4.073704   -0.587602    4.167293
     54          1           0       -3.588582   -2.263133    3.687997
     55          1           0       -5.711202   -2.442564    5.571952
     56          1           0       -4.827796   -1.044216    6.053688
     57          1           0       -5.962085    4.404061    2.956354
     58          1           0       -6.179100    5.736577    1.887093
     59          1           0       -4.573773    5.505874    2.626701
     60          1           0       -5.053313    7.199185    0.618169
     61          1           0       -3.669552    7.931801   -0.370243
     62          1           0       -3.394842    6.780274    0.964467
     63          1           0       -3.415821    2.946460   -5.030304
     64          1           0       -4.673355    0.395269   -5.912358
     65          1           0       -5.202704    3.690654   -6.195899
     66          1           0       -6.245991    3.040537   -4.885313
     67          1           0       -5.914217    2.087346   -6.237469
     68          1           0       -2.539150    1.327726   -6.883958
     69          1           0       -2.486207   -0.386220   -6.487181
     70          1           0       -1.298061    1.960015   -5.210398
     71          1           0       -0.508356    0.386839   -5.568414
     72          1           0       -1.609172    0.606493   -4.135003
     73          1           0       -3.338175   -5.265331   -3.468779
     74          1           0       -3.702263   -3.972680   -4.666928
     75          1           0       -5.072053   -4.790708   -3.806656
     76          1           0       -5.841588   -4.442830    1.238765
     77          1           0       -4.111215   -6.816028    4.399973
     78          1           0       -4.015566   -5.093470    5.109464
     79          1           0       -2.774501   -5.844992    4.089316
     80         12           0        4.488032    0.848310    0.780140
     81          6           0        4.799727   -1.983630   -1.402057
     82          6           0        3.256985   -1.290333    3.134998
     83          6           0        3.780985    3.376041    2.562862
     84          6           0        4.646916    2.872884   -2.052094
     85          7           0        4.123567   -1.333116    0.751696
     86          6           0        4.337916   -2.314885   -0.111156
     87          6           0        4.117050   -3.738609    0.466602
     88          6           0        3.109587   -3.360733    1.658692
     89          6           0        3.540987   -1.914653    1.894159
     90          6           0        1.649939   -3.360907    1.235886
     91          6           0        5.443092   -4.373570    1.014741
     92          6           0        5.364201   -5.873148    1.309357
     93          1           0        6.545702   -6.694480    1.060472
     94          7           0        4.110163    0.983954    2.723684
     95          6           0        3.635416    0.011577    3.530149
     96          6           0        3.512318    0.619612    4.864064
     97          6           0        3.796856    2.075414    4.744050
     98          6           0        3.888660    2.208209    3.303897
     99          6           0        3.233292   -0.182984    6.101558
    100          6           0        3.947137    3.169694    5.757045
    101          8           0        3.956958    4.405427    5.416918
    102          6           0        3.988584    2.756344    7.167332
    103          7           0        4.035586    2.822519    0.310951
    104          6           0        3.819647    3.730986    1.278405
    105          6           0        3.786782    5.131347    0.714215
    106          6           0        4.268404    4.994032   -0.804590
    107          6           0        4.417414    3.458869   -0.885006
    108          6           0        2.429823    5.833705    0.756021
    109          6           0        5.467849    5.877165   -1.245127
    110          6           0        6.726692    5.427313   -0.539208
    111          7           0        4.870391    0.550279   -1.325335
    112          6           0        4.863589    1.531573   -2.340775
    113          6           0        5.063580    0.830107   -3.625438
    114          6           0        5.150527   -0.523773   -3.267729
    115          6           0        4.994152   -0.658616   -1.861718
    116          6           0        5.094188    1.440879   -4.910793
    117          6           0        5.328421   -1.870511   -3.761028
    118          8           0        5.592746   -2.367001   -4.855263
    119          6           0        4.982832   -2.887585   -2.589482
    120          6           0        6.080863   -3.913662   -2.526186
    121          8           0        7.236372   -3.583897   -2.205802
    122          8           0        5.543419   -5.141817   -2.640944
    123          6           0        6.592054   -6.194215   -2.572859
    124          1           0        2.650369   -1.831819    3.861409
    125          1           0        3.647488    4.292006    3.143085
    126          1           0        4.806128    3.442650   -2.970080
    127          1           0        3.643329   -4.436364   -0.213467
    128          1           0        3.299588   -3.964053    2.542589
    129          1           0        1.539032   -3.500195    0.170794
    130          1           0        1.257092   -2.397794    1.534443
    131          1           0        1.091222   -4.105456    1.810178
    132          1           0        5.630666   -3.992839    2.026968
    133          1           0        6.262102   -4.178488    0.350058
    134          1           0        4.474594   -6.334546    0.863650
    135          1           0        5.226143   -6.008721    2.384800
    136          1           0        2.906968   -1.201039    5.855652
    137          1           0        2.363114    0.271168    6.587778
    138          1           0        4.070762   -0.181195    6.802498
    139          1           0        3.076799    2.216908    7.412500
    140          1           0        4.189421    3.668067    7.733302
    141          1           0        4.816850    2.051581    7.301150
    142          1           0        4.475334    5.778023    1.244124
    143          1           0        3.471836    5.269872   -1.511163
    144          1           0        2.453862    6.797747    1.298343
    145          1           0        1.711429    5.161779    1.206533
    146          1           0        1.982361    6.032113   -0.216406
    147          1           0        5.301342    6.916273   -0.950704
    148          1           0        5.639379    5.869507   -2.316356
    149          1           0        6.661580    5.934062    0.428292
    150          1           0        7.609368    5.743200   -1.091603
    151          1           0        6.706488    4.348098   -0.348092
    152          1           0        5.915777    0.989163   -5.450659
    153          1           0        5.212309    2.519842   -4.835567
    154          1           0        4.105077    1.161208   -5.283237
    155          1           0        4.015872   -3.336433   -2.819924
    156          1           0        6.495189   -6.800822   -3.478571
    157          1           0        6.438559   -6.706682   -1.604573
    158          1           0        7.625984   -5.876639   -2.640579
 ---------------------------------------------------------------------
 Rotational constants (GHZ):           0.0204710           0.0140251           0.0128886
 Leave Link  202 at Thu Aug 19 22:13:02 2021, MaxMem= 23488102400 cpu:               0.2 elap:               0.0
 (Enter /sw/apps/gaussian-16.0/g16/l301.exe)
 Standard basis: def2SVP (5D, 7F)
 Ernie: Thresh=  0.10000D-02 Tol=  0.10000D-05 Strict=F.
 There are  1658 symmetry adapted cartesian basis functions of A   symmetry.
 There are  1572 symmetry adapted basis functions of A   symmetry.
  1572 basis functions,  2678 primitive gaussians,  1658 cartesian basis functions
   312 alpha electrons      312 beta electrons
       nuclear repulsion energy     15494.9852343249 Hartrees.
 IExCor=20419 DFT=T Ex+Corr=CAM-B3LYP ExCW=0 ScaHFX=  1.000000
 ScaDFX=  1.000000  1.000000  1.000000  0.810000 ScalE2=  1.000000  1.000000
 IRadAn=      5 IRanWt=     -1 IRanGd=            0 ICorTp=0 IEmpDi=  4
 HFx  wShort=  0.000000 wLong=  0.330000 cFull=  0.190000 cShort=  0.000000 cLong=  0.460000
 DFx  wShort=  0.000000 wLong=  0.330000 cFull=  0.190000 cShort=  0.000000 cLong=  0.460000
 NAtoms=  158 NActive=  158 NUniq=  158 SFac= 1.00D+00 NAtFMM=   60 NAOKFM=T Big=T
 Integral buffers will be    131072 words long.
 Raffenetti 1 integral format.
 Two-electron integral symmetry is turned on.
 Leave Link  301 at Thu Aug 19 22:13:02 2021, MaxMem= 23488102400 cpu:               1.3 elap:               0.1
 (Enter /sw/apps/gaussian-16.0/g16/l302.exe)
 NPDir=0 NMtPBC=     1 NCelOv=     1 NCel=       1 NClECP=     1 NCelD=      1
         NCelK=      1 NCelE2=     1 NClLst=     1 CellRange=     0.0.
 One-electron integrals computed using PRISM.
 One-electron integral symmetry used in STVInt
   1 Symmetry operations used in ECPInt.
 ECPInt:  NShTT=  271216 NPrTT=  987664 LenC2=  154140 LenP2D=  320716.
 LDataN:  DoStor=T MaxTD1= 4 Len=   56
 NBasis=  1572 RedAO= T EigKep=  3.36D-04  NBF=  1572
 NBsUse=  1572 1.00D-06 EigRej= -1.00D+00 NBFU=  1572
 Precomputing XC quadrature grid using
 IXCGrd= 4 IRadAn=           5 IRanWt=          -1 IRanGd=           0 AccXCQ= 0.00D+00.
 Generated NRdTot=       0 NPtTot=           0 NUsed=           0 NTot=          32
 NSgBfM=  1256  1242  1248  1255  1256 MxSgAt=   158 MxSgA2=   158.
 Leave Link  302 at Thu Aug 19 22:13:07 2021, MaxMem= 23488102400 cpu:             127.8 elap:               5.3
 (Enter /sw/apps/gaussian-16.0/g16/l303.exe)
 DipDrv:  MaxL=1.
 Leave Link  303 at Thu Aug 19 22:13:08 2021, MaxMem= 23488102400 cpu:               8.6 elap:               0.4
 (Enter /sw/apps/gaussian-16.0/g16/l308.exe)
 Leave Link  308 at Thu Aug 19 22:13:08 2021, MaxMem= 23488102400 cpu:              16.0 elap:               0.8
 (Enter /sw/apps/gaussian-16.0/g16/l401.exe)
 ExpMin= 3.36D-02 ExpMax= 4.95D+03 ExpMxC= 7.45D+02 IAcc=3 IRadAn=         5 AccDes= 0.00D+00
 Harris functional with IExCor=20419 and IRadAn=       5 diagonalized for initial guess.
 HarFok:  IExCor=20419 AccDes= 0.00D+00 IRadAn=         5 IDoV= 1 UseB2=F ITyADJ=14
 ICtDFT=  3500011 ScaDFX=  1.000000  1.000000  1.000000  1.000000
 FoFCou: FMM=F IPFlag=           0 FMFlag=      100000 FMFlg1=        2001
         NFxFlg=           0 DoJE=T BraDBF=F KetDBF=T FulRan=T
         wScrn=  0.000000 ICntrl=       500 IOpCl=  0 I1Cent=   200000004 NGrid=           0
         NMat0=    1 NMatS0=      1 NMatT0=    0 NMatD0=    1 NMtDS0=    0 NMtDT0=    0
 Petite list used in FoFCou.
 Harris En= -3918.65846420410    
 JPrj=0 DoOrth=F DoCkMO=F.
 Leave Link  401 at Thu Aug 19 22:13:17 2021, MaxMem= 23488102400 cpu:             192.8 elap:               8.1
 (Enter /sw/apps/gaussian-16.0/g16/l502.exe)
 Integral symmetry usage will be decided dynamically.
 Closed shell SCF:
 Using DIIS extrapolation, IDIIS=  1040.
 NGot= 23488102400 LenX= 23482547354 LenY= 23479796732
 Requested convergence on RMS density matrix=1.00D-08 within 128 cycles.
 Requested convergence on MAX density matrix=1.00D-06.
 Requested convergence on             energy=1.00D-06.
 No special actions if energy rises.
 Fock matrices will be formed incrementally for  20 cycles.

 Cycle   1  Pass 1  IDiag  1:
 FoFJK:  IHMeth= 1 ICntrl=       0 DoSepK=T KAlg= 0 I1Cent=           0 FoldK=F
 IRaf=         1 NMat=       1 IRICut=       1 DoRegI=T DoRafI=F ISym2E= 0 IDoP0=0 IntGTp=1.
 FoFCou: FMM=T IPFlag=           0 FMFlag=      100000 FMFlg1=        2001
         NFxFlg=           0 DoJE=T BraDBF=F KetDBF=F FulRan=T
         wScrn=  0.000000 ICntrl=       500 IOpCl=  0 I1Cent=           0 NGrid=           0
         NMat0=    1 NMatS0=      1 NMatT0=    0 NMatD0=    1 NMtDS0=    0 NMtDT0=    0
 Symmetry not used in FoFCou.
 FMM levels:  10  Number of levels for PrismC:   9
 E= -4068.95118078760    
 DIIS: error= 2.04D-02 at cycle   1 NSaved=   1.
 NSaved= 1 IEnMin= 1 EnMin= -4068.95118078760     IErMin= 1 ErrMin= 2.04D-02
 ErrMax= 2.04D-02  0.00D+00 EMaxC= 1.00D-01 BMatC= 1.69D+00 BMatP= 1.69D+00
 IDIUse=3 WtCom= 7.96D-01 WtEn= 2.04D-01
 Coeff-Com:  0.100D+01
 Coeff-En:   0.100D+01
 Coeff:      0.100D+01
 Gap=     0.120 Goal=   None    Shift=    0.000
 GapD=    0.120 DampG=1.000 DampE=0.500 DampFc=0.5000 IDamp=-1.
 Damping current iteration by 5.00D-01
 RMSDP=1.57D-03 MaxDP=1.36D-01              OVMax= 2.00D-01

 Cycle   2  Pass 1  IDiag  1:
 RMSU=  7.70D-04    CP:  9.82D-01
 E= -4069.34007542481     Delta-E=       -0.388894637206 Rises=F Damp=T
 DIIS: error= 1.27D-02 at cycle   2 NSaved=   2.
 NSaved= 2 IEnMin= 2 EnMin= -4069.34007542481     IErMin= 2 ErrMin= 1.27D-02
 ErrMax= 1.27D-02  0.00D+00 EMaxC= 1.00D-01 BMatC= 3.06D-01 BMatP= 1.69D+00
 IDIUse=3 WtCom= 8.73D-01 WtEn= 1.27D-01
 Coeff-Com: -0.214D+00 0.121D+01
 Coeff-En:   0.000D+00 0.100D+01
 Coeff:     -0.187D+00 0.119D+01
 Gap=     0.133 Goal=   None    Shift=    0.000
 RMSDP=7.65D-04 MaxDP=9.43D-02 DE=-3.89D-01 OVMax= 1.90D-01

 Cycle   3  Pass 1  IDiag  1:
 RMSU=  7.33D-04    CP:  9.68D-01  1.24D+00
 E= -4069.62995084438     Delta-E=       -0.289875419567 Rises=F Damp=F
 DIIS: error= 1.53D-02 at cycle   3 NSaved=   3.
 NSaved= 3 IEnMin= 3 EnMin= -4069.62995084438     IErMin= 2 ErrMin= 1.27D-02
 ErrMax= 1.53D-02  0.00D+00 EMaxC= 1.00D-01 BMatC= 2.00D-01 BMatP= 3.06D-01
 IDIUse=3 WtCom= 8.47D-01 WtEn= 1.53D-01
 Coeff-Com: -0.267D+00 0.651D+00 0.616D+00
 Coeff-En:   0.000D+00 0.000D+00 0.100D+01
 Coeff:     -0.226D+00 0.551D+00 0.675D+00
 Gap=     0.119 Goal=   None    Shift=    0.000
 RMSDP=5.08D-04 MaxDP=4.71D-02 DE=-2.90D-01 OVMax= 1.39D-01

 Cycle   4  Pass 1  IDiag  1:
 RMSU=  2.65D-04    CP:  9.65D-01  1.55D+00  5.06D-01
 E= -4069.76735975552     Delta-E=       -0.137408911141 Rises=F Damp=F
 DIIS: error= 6.86D-03 at cycle   4 NSaved=   4.
 NSaved= 4 IEnMin= 4 EnMin= -4069.76735975552     IErMin= 4 ErrMin= 6.86D-03
 ErrMax= 6.86D-03  0.00D+00 EMaxC= 1.00D-01 BMatC= 4.87D-02 BMatP= 2.00D-01
 IDIUse=3 WtCom= 9.31D-01 WtEn= 6.86D-02
 Coeff-Com: -0.109D+00 0.227D+00 0.407D+00 0.476D+00
 Coeff-En:   0.000D+00 0.000D+00 0.217D+00 0.783D+00
 Coeff:     -0.102D+00 0.211D+00 0.394D+00 0.497D+00
 Gap=     0.119 Goal=   None    Shift=    0.000
 RMSDP=1.99D-04 MaxDP=1.91D-02 DE=-1.37D-01 OVMax= 6.16D-02

 Cycle   5  Pass 1  IDiag  1:
 RMSU=  7.63D-05    CP:  9.64D-01  1.49D+00  6.88D-01  5.51D-01
 E= -4069.81175693315     Delta-E=       -0.044397177633 Rises=F Damp=F
 DIIS: error= 7.10D-04 at cycle   5 NSaved=   5.
 NSaved= 5 IEnMin= 5 EnMin= -4069.81175693315     IErMin= 5 ErrMin= 7.10D-04
 ErrMax= 7.10D-04  0.00D+00 EMaxC= 1.00D-01 BMatC= 1.17D-03 BMatP= 4.87D-02
 IDIUse=3 WtCom= 9.93D-01 WtEn= 7.10D-03
 Coeff-Com: -0.371D-01 0.730D-01 0.168D+00 0.252D+00 0.544D+00
 Coeff-En:   0.000D+00 0.000D+00 0.000D+00 0.000D+00 0.100D+01
 Coeff:     -0.369D-01 0.725D-01 0.167D+00 0.250D+00 0.547D+00
 Gap=     0.119 Goal=   None    Shift=    0.000
 RMSDP=4.29D-05 MaxDP=4.66D-03 DE=-4.44D-02 OVMax= 1.89D-02

 Cycle   6  Pass 1  IDiag  1:
 RMSU=  3.17D-05    CP:  9.64D-01  1.49D+00  6.80D-01  6.24D-01  7.37D-01
 E= -4069.81279425865     Delta-E=       -0.001037325495 Rises=F Damp=F
 DIIS: error= 1.98D-04 at cycle   6 NSaved=   6.
 NSaved= 6 IEnMin= 6 EnMin= -4069.81279425865     IErMin= 6 ErrMin= 1.98D-04
 ErrMax= 1.98D-04  0.00D+00 EMaxC= 1.00D-01 BMatC= 1.95D-04 BMatP= 1.17D-03
 IDIUse=3 WtCom= 9.98D-01 WtEn= 1.98D-03
 Coeff-Com:  0.166D-02-0.550D-02 0.133D-01 0.429D-01 0.314D+00 0.634D+00
 Coeff-En:   0.000D+00 0.000D+00 0.000D+00 0.000D+00 0.132D+00 0.868D+00
 Coeff:      0.165D-02-0.549D-02 0.133D-01 0.428D-01 0.313D+00 0.634D+00
 Gap=     0.119 Goal=   None    Shift=    0.000
 RMSDP=1.73D-05 MaxDP=1.23D-03 DE=-1.04D-03 OVMax= 7.93D-03

 Cycle   7  Pass 1  IDiag  1:
 RMSU=  1.12D-05    CP:  9.64D-01  1.50D+00  6.86D-01  6.22D-01  8.50D-01
                    CP:  7.23D-01
 E= -4069.81301017403     Delta-E=       -0.000215915381 Rises=F Damp=F
 DIIS: error= 1.05D-04 at cycle   7 NSaved=   7.
 NSaved= 7 IEnMin= 7 EnMin= -4069.81301017403     IErMin= 7 ErrMin= 1.05D-04
 ErrMax= 1.05D-04  0.00D+00 EMaxC= 1.00D-01 BMatC= 2.53D-05 BMatP= 1.95D-04
 IDIUse=3 WtCom= 9.99D-01 WtEn= 1.05D-03
 Coeff-Com:  0.447D-02-0.985D-02-0.851D-02-0.273D-02 0.112D+00 0.339D+00
 Coeff-Com:  0.565D+00
 Coeff-En:   0.000D+00 0.000D+00 0.000D+00 0.000D+00 0.000D+00 0.000D+00
 Coeff-En:   0.100D+01
 Coeff:      0.447D-02-0.984D-02-0.850D-02-0.273D-02 0.112D+00 0.339D+00
 Coeff:      0.566D+00
 Gap=     0.119 Goal=   None    Shift=    0.000
 RMSDP=6.77D-06 MaxDP=1.23D-03 DE=-2.16D-04 OVMax= 3.68D-03

 Cycle   8  Pass 1  IDiag  1:
 RMSU=  4.74D-06    CP:  9.64D-01  1.50D+00  6.87D-01  6.27D-01  8.50D-01
                    CP:  8.49D-01  8.02D-01
 E= -4069.81304110377     Delta-E=       -0.000030929743 Rises=F Damp=F
 DIIS: error= 5.43D-05 at cycle   8 NSaved=   8.
 NSaved= 8 IEnMin= 8 EnMin= -4069.81304110377     IErMin= 8 ErrMin= 5.43D-05
 ErrMax= 5.43D-05  0.00D+00 EMaxC= 1.00D-01 BMatC= 4.79D-06 BMatP= 2.53D-05
 IDIUse=1 WtCom= 1.00D+00 WtEn= 0.00D+00
 Coeff-Com:  0.223D-02-0.443D-02-0.787D-02-0.122D-01-0.996D-02 0.347D-01
 Coeff-Com:  0.319D+00 0.679D+00
 Coeff:      0.223D-02-0.443D-02-0.787D-02-0.122D-01-0.996D-02 0.347D-01
 Coeff:      0.319D+00 0.679D+00
 Gap=     0.119 Goal=   None    Shift=    0.000
 RMSDP=3.35D-06 MaxDP=4.31D-04 DE=-3.09D-05 OVMax= 1.20D-03

 Cycle   9  Pass 1  IDiag  1:
 RMSU=  1.93D-06    CP:  9.64D-01  1.50D+00  6.87D-01  6.28D-01  8.68D-01
                    CP:  8.76D-01  9.94D-01  9.64D-01
 E= -4069.81304875856     Delta-E=       -0.000007654788 Rises=F Damp=F
 DIIS: error= 2.11D-05 at cycle   9 NSaved=   9.
 NSaved= 9 IEnMin= 9 EnMin= -4069.81304875856     IErMin= 9 ErrMin= 2.11D-05
 ErrMax= 2.11D-05  0.00D+00 EMaxC= 1.00D-01 BMatC= 7.33D-07 BMatP= 4.79D-06
 IDIUse=1 WtCom= 1.00D+00 WtEn= 0.00D+00
 Coeff-Com:  0.514D-03-0.870D-03-0.282D-02-0.620D-02-0.213D-01-0.382D-01
 Coeff-Com:  0.942D-01 0.343D+00 0.632D+00
 Coeff:      0.514D-03-0.870D-03-0.282D-02-0.620D-02-0.213D-01-0.382D-01
 Coeff:      0.942D-01 0.343D+00 0.632D+00
 Gap=     0.119 Goal=   None    Shift=    0.000
 RMSDP=1.39D-06 MaxDP=1.46D-04 DE=-7.65D-06 OVMax= 7.33D-04

 Cycle  10  Pass 1  IDiag  1:
 RMSU=  9.35D-07    CP:  9.64D-01  1.50D+00  6.87D-01  6.29D-01  8.71D-01
                    CP:  8.88D-01  1.04D+00  1.12D+00  1.05D+00
 E= -4069.81305035230     Delta-E=       -0.000001593744 Rises=F Damp=F
 DIIS: error= 1.02D-05 at cycle  10 NSaved=  10.
 NSaved=10 IEnMin=10 EnMin= -4069.81305035230     IErMin=10 ErrMin= 1.02D-05
 ErrMax= 1.02D-05  0.00D+00 EMaxC= 1.00D-01 BMatC= 1.58D-07 BMatP= 7.33D-07
 IDIUse=1 WtCom= 1.00D+00 WtEn= 0.00D+00
 Coeff-Com: -0.412D-03 0.866D-03 0.116D-02 0.101D-02-0.394D-02-0.301D-01
 Coeff-Com: -0.429D-01-0.671D-01 0.230D+00 0.911D+00
 Coeff:     -0.412D-03 0.866D-03 0.116D-02 0.101D-02-0.394D-02-0.301D-01
 Coeff:     -0.429D-01-0.671D-01 0.230D+00 0.911D+00
 Gap=     0.119 Goal=   None    Shift=    0.000
 RMSDP=1.20D-06 MaxDP=1.18D-04 DE=-1.59D-06 OVMax= 6.03D-04

 Cycle  11  Pass 1  IDiag  1:
 RMSU=  5.15D-07    CP:  9.64D-01  1.50D+00  6.87D-01  6.29D-01  8.74D-01
                    CP:  8.97D-01  1.08D+00  1.23D+00  1.37D+00  1.36D+00
 E= -4069.81305109644     Delta-E=       -0.000000744134 Rises=F Damp=F
 DIIS: error= 4.29D-06 at cycle  11 NSaved=  11.
 NSaved=11 IEnMin=11 EnMin= -4069.81305109644     IErMin=11 ErrMin= 4.29D-06
 ErrMax= 4.29D-06  0.00D+00 EMaxC= 1.00D-01 BMatC= 6.23D-08 BMatP= 1.58D-07
 IDIUse=1 WtCom= 1.00D+00 WtEn= 0.00D+00
 Coeff-Com: -0.334D-03 0.651D-03 0.132D-02 0.209D-02 0.428D-02-0.848D-02
 Coeff-Com: -0.401D-01-0.127D+00-0.385D-01 0.483D+00 0.724D+00
 Coeff:     -0.334D-03 0.651D-03 0.132D-02 0.209D-02 0.428D-02-0.848D-02
 Coeff:     -0.401D-01-0.127D+00-0.385D-01 0.483D+00 0.724D+00
 Gap=     0.119 Goal=   None    Shift=    0.000
 RMSDP=6.67D-07 MaxDP=5.84D-05 DE=-7.44D-07 OVMax= 3.49D-04

 Cycle  12  Pass 1  IDiag  1:
 RMSU=  2.62D-07    CP:  9.64D-01  1.50D+00  6.87D-01  6.29D-01  8.74D-01
                    CP:  8.99D-01  1.10D+00  1.30D+00  1.53D+00  1.74D+00
                    CP:  1.19D+00
 E= -4069.81305134754     Delta-E=       -0.000000251101 Rises=F Damp=F
 DIIS: error= 2.52D-06 at cycle  12 NSaved=  12.
 NSaved=12 IEnMin=12 EnMin= -4069.81305134754     IErMin=12 ErrMin= 2.52D-06
 ErrMax= 2.52D-06  0.00D+00 EMaxC= 1.00D-01 BMatC= 1.47D-08 BMatP= 6.23D-08
 IDIUse=1 WtCom= 1.00D+00 WtEn= 0.00D+00
 Coeff-Com: -0.168D-04 0.171D-04 0.231D-03 0.574D-03 0.340D-02 0.317D-02
 Coeff-Com:  0.130D-02-0.358D-01-0.706D-01-0.451D-01 0.254D+00 0.889D+00
 Coeff:     -0.168D-04 0.171D-04 0.231D-03 0.574D-03 0.340D-02 0.317D-02
 Coeff:      0.130D-02-0.358D-01-0.706D-01-0.451D-01 0.254D+00 0.889D+00
 Gap=     0.119 Goal=   None    Shift=    0.000
 RMSDP=4.11D-07 MaxDP=2.72D-05 DE=-2.51D-07 OVMax= 2.38D-04

 Cycle  13  Pass 1  IDiag  1:
 RMSU=  1.65D-07    CP:  9.64D-01  1.50D+00  6.87D-01  6.29D-01  8.75D-01
                    CP:  9.00D-01  1.11D+00  1.32D+00  1.63D+00  1.95D+00
                    CP:  1.59D+00  1.23D+00
 E= -4069.81305143225     Delta-E=       -0.000000084714 Rises=F Damp=F
 DIIS: error= 1.42D-06 at cycle  13 NSaved=  13.
 NSaved=13 IEnMin=13 EnMin= -4069.81305143225     IErMin=13 ErrMin= 1.42D-06
 ErrMax= 1.42D-06  0.00D+00 EMaxC= 1.00D-01 BMatC= 8.53D-09 BMatP= 1.47D-08
 IDIUse=1 WtCom= 1.00D+00 WtEn= 0.00D+00
 Coeff-Com:  0.117D-03-0.239D-03-0.353D-03-0.432D-03 0.706D-03 0.463D-02
 Coeff-Com:  0.181D-01 0.226D-01-0.323D-01-0.234D+00-0.163D+00 0.597D+00
 Coeff-Com:  0.787D+00
 Coeff:      0.117D-03-0.239D-03-0.353D-03-0.432D-03 0.706D-03 0.463D-02
 Coeff:      0.181D-01 0.226D-01-0.323D-01-0.234D+00-0.163D+00 0.597D+00
 Coeff:      0.787D+00
 Gap=     0.119 Goal=   None    Shift=    0.000
 RMSDP=3.35D-07 MaxDP=2.09D-05 DE=-8.47D-08 OVMax= 1.86D-04

 Cycle  14  Pass 1  IDiag  1:
 RMSU=  7.67D-08    CP:  9.64D-01  1.50D+00  6.87D-01  6.29D-01  8.75D-01
                    CP:  9.00D-01  1.11D+00  1.34D+00  1.70D+00  2.15D+00
                    CP:  1.84D+00  1.76D+00  1.10D+00
 E= -4069.81305146863     Delta-E=       -0.000000036383 Rises=F Damp=F
 DIIS: error= 6.80D-07 at cycle  14 NSaved=  14.
 NSaved=14 IEnMin=14 EnMin= -4069.81305146863     IErMin=14 ErrMin= 6.80D-07
 ErrMax= 6.80D-07  0.00D+00 EMaxC= 1.00D-01 BMatC= 1.30D-09 BMatP= 8.53D-09
 IDIUse=1 WtCom= 1.00D+00 WtEn= 0.00D+00
 Coeff-Com:  0.690D-04-0.136D-03-0.252D-03-0.393D-03-0.438D-03 0.120D-02
 Coeff-Com:  0.103D-01 0.200D-01 0.434D-02-0.103D+00-0.150D+00 0.967D-01
 Coeff-Com:  0.406D+00 0.716D+00
 Coeff:      0.690D-04-0.136D-03-0.252D-03-0.393D-03-0.438D-03 0.120D-02
 Coeff:      0.103D-01 0.200D-01 0.434D-02-0.103D+00-0.150D+00 0.967D-01
 Coeff:      0.406D+00 0.716D+00
 Gap=     0.119 Goal=   None    Shift=    0.000
 RMSDP=1.06D-07 MaxDP=6.68D-06 DE=-3.64D-08 OVMax= 6.05D-05

 Cycle  15  Pass 1  IDiag  1:
 RMSU=  3.89D-08    CP:  9.64D-01  1.50D+00  6.87D-01  6.29D-01  8.75D-01
                    CP:  9.00D-01  1.11D+00  1.35D+00  1.72D+00  2.19D+00
                    CP:  1.95D+00  1.90D+00  1.34D+00  1.02D+00
 E= -4069.81305147323     Delta-E=       -0.000000004598 Rises=F Damp=F
 DIIS: error= 4.14D-07 at cycle  15 NSaved=  15.
 NSaved=15 IEnMin=15 EnMin= -4069.81305147323     IErMin=15 ErrMin= 4.14D-07
 ErrMax= 4.14D-07  0.00D+00 EMaxC= 1.00D-01 BMatC= 2.44D-10 BMatP= 1.30D-09
 IDIUse=1 WtCom= 1.00D+00 WtEn= 0.00D+00
 Coeff-Com:  0.890D-05-0.160D-04-0.445D-04-0.984D-04-0.303D-03-0.458D-03
 Coeff-Com:  0.151D-02 0.358D-02 0.843D-02-0.265D-02-0.367D-01-0.677D-01
 Coeff-Com:  0.393D-01 0.316D+00 0.739D+00
 Coeff:      0.890D-05-0.160D-04-0.445D-04-0.984D-04-0.303D-03-0.458D-03
 Coeff:      0.151D-02 0.358D-02 0.843D-02-0.265D-02-0.367D-01-0.677D-01
 Coeff:      0.393D-01 0.316D+00 0.739D+00
 Gap=     0.119 Goal=   None    Shift=    0.000
 RMSDP=3.97D-08 MaxDP=2.38D-06 DE=-4.60D-09 OVMax= 2.34D-05

 Cycle  16  Pass 1  IDiag  1:
 RMSU=  1.91D-08    CP:  9.64D-01  1.50D+00  6.87D-01  6.29D-01  8.75D-01
                    CP:  9.00D-01  1.11D+00  1.35D+00  1.72D+00  2.20D+00
                    CP:  1.98D+00  1.96D+00  1.41D+00  1.23D+00  1.11D+00
 E= -4069.81305147403     Delta-E=       -0.000000000800 Rises=F Damp=F
 DIIS: error= 2.06D-07 at cycle  16 NSaved=  16.
 NSaved=16 IEnMin=16 EnMin= -4069.81305147403     IErMin=16 ErrMin= 2.06D-07
 ErrMax= 2.06D-07  0.00D+00 EMaxC= 1.00D-01 BMatC= 8.87D-11 BMatP= 2.44D-10
 IDIUse=1 WtCom= 1.00D+00 WtEn= 0.00D+00
 Coeff-Com: -0.130D-04 0.265D-04 0.418D-04 0.452D-04-0.414D-04-0.612D-03
 Coeff-Com: -0.163D-02-0.383D-02 0.407D-02 0.242D-01 0.187D-01-0.638D-01
 Coeff-Com: -0.782D-01-0.213D-01 0.402D+00 0.721D+00
 Coeff:     -0.130D-04 0.265D-04 0.418D-04 0.452D-04-0.414D-04-0.612D-03
 Coeff:     -0.163D-02-0.383D-02 0.407D-02 0.242D-01 0.187D-01-0.638D-01
 Coeff:     -0.782D-01-0.213D-01 0.402D+00 0.721D+00
 Gap=     0.119 Goal=   None    Shift=    0.000
 RMSDP=2.28D-08 MaxDP=1.56D-06 DE=-8.00D-10 OVMax= 1.53D-05

 Cycle  17  Pass 1  IDiag  1:
 RMSU=  1.11D-08    CP:  9.64D-01  1.50D+00  6.87D-01  6.29D-01  8.75D-01
                    CP:  9.00D-01  1.12D+00  1.35D+00  1.73D+00  2.21D+00
                    CP:  1.99D+00  1.99D+00  1.46D+00  1.32D+00  1.40D+00
                    CP:  1.16D+00
 E= -4069.81305147428     Delta-E=       -0.000000000244 Rises=F Damp=F
 DIIS: error= 1.15D-07 at cycle  17 NSaved=  17.
 NSaved=17 IEnMin=17 EnMin= -4069.81305147428     IErMin=17 ErrMin= 1.15D-07
 ErrMax= 1.15D-07  0.00D+00 EMaxC= 1.00D-01 BMatC= 2.20D-11 BMatP= 8.87D-11
 IDIUse=1 WtCom= 1.00D+00 WtEn= 0.00D+00
 Coeff-Com: -0.859D-05 0.169D-04 0.325D-04 0.465D-04 0.756D-04-0.189D-03
 Coeff-Com: -0.104D-02-0.313D-02 0.262D-03 0.120D-01 0.194D-01-0.139D-01
 Coeff-Com: -0.439D-01-0.996D-01 0.194D-02 0.340D+00 0.787D+00
 Coeff:     -0.859D-05 0.169D-04 0.325D-04 0.465D-04 0.756D-04-0.189D-03
 Coeff:     -0.104D-02-0.313D-02 0.262D-03 0.120D-01 0.194D-01-0.139D-01
 Coeff:     -0.439D-01-0.996D-01 0.194D-02 0.340D+00 0.787D+00
 Gap=     0.119 Goal=   None    Shift=    0.000
 RMSDP=1.34D-08 MaxDP=9.36D-07 DE=-2.44D-10 OVMax= 7.81D-06

 Cycle  18  Pass 1  IDiag  1:
 RMSU=  5.56D-09    CP:  9.64D-01  1.50D+00  6.87D-01  6.29D-01  8.75D-01
                    CP:  9.00D-01  1.12D+00  1.35D+00  1.73D+00  2.21D+00
                    CP:  2.00D+00  1.99D+00  1.48D+00  1.38D+00  1.55D+00
                    CP:  1.55D+00  1.29D+00
 E= -4069.81305147438     Delta-E=       -0.000000000098 Rises=F Damp=F
 DIIS: error= 7.24D-08 at cycle  18 NSaved=  18.
 NSaved=18 IEnMin=18 EnMin= -4069.81305147438     IErMin=18 ErrMin= 7.24D-08
 ErrMax= 7.24D-08  0.00D+00 EMaxC= 1.00D-01 BMatC= 8.33D-12 BMatP= 2.20D-11
 IDIUse=1 WtCom= 1.00D+00 WtEn= 0.00D+00
 Coeff-Com: -0.143D-06-0.660D-07 0.339D-05 0.885D-05 0.691D-04 0.109D-03
 Coeff-Com:  0.105D-03-0.493D-03-0.104D-02-0.265D-02 0.393D-02 0.147D-01
 Coeff-Com:  0.748D-02-0.483D-01-0.140D+00-0.859D-01 0.410D+00 0.841D+00
 Coeff:     -0.143D-06-0.660D-07 0.339D-05 0.885D-05 0.691D-04 0.109D-03
 Coeff:      0.105D-03-0.493D-03-0.104D-02-0.265D-02 0.393D-02 0.147D-01
 Coeff:      0.748D-02-0.483D-01-0.140D+00-0.859D-01 0.410D+00 0.841D+00
 Gap=     0.119 Goal=   None    Shift=    0.000
 RMSDP=1.00D-08 MaxDP=6.92D-07 DE=-9.82D-11 OVMax= 6.91D-06

 Cycle  19  Pass 1  IDiag  1:
 RMSU=  3.17D-09    CP:  9.64D-01  1.50D+00  6.87D-01  6.29D-01  8.75D-01
                    CP:  9.00D-01  1.12D+00  1.35D+00  1.73D+00  2.21D+00
                    CP:  2.00D+00  2.00D+00  1.49D+00  1.42D+00  1.68D+00
                    CP:  1.80D+00  1.79D+00  1.16D+00
 E= -4069.81305147444     Delta-E=       -0.000000000065 Rises=F Damp=F
 DIIS: error= 3.49D-08 at cycle  19 NSaved=  19.
 NSaved=19 IEnMin=19 EnMin= -4069.81305147444     IErMin=19 ErrMin= 3.49D-08
 ErrMax= 3.49D-08  0.00D+00 EMaxC= 1.00D-01 BMatC= 2.92D-12 BMatP= 8.33D-12
 IDIUse=1 WtCom= 1.00D+00 WtEn= 0.00D+00
 Coeff-Com:  0.329D-05-0.668D-05-0.107D-04-0.129D-04 0.212D-04 0.143D-03
 Coeff-Com:  0.512D-03 0.874D-03-0.698D-03-0.691D-02-0.530D-02 0.151D-01
 Coeff-Com:  0.238D-01 0.773D-02-0.942D-01-0.207D+00-0.549D-01 0.534D+00
 Coeff-Com:  0.787D+00
 Coeff:      0.329D-05-0.668D-05-0.107D-04-0.129D-04 0.212D-04 0.143D-03
 Coeff:      0.512D-03 0.874D-03-0.698D-03-0.691D-02-0.530D-02 0.151D-01
 Coeff:      0.238D-01 0.773D-02-0.942D-01-0.207D+00-0.549D-01 0.534D+00
 Coeff:      0.787D+00
 Gap=     0.119 Goal=   None    Shift=    0.000
 RMSDP=7.09D-09 MaxDP=4.59D-07 DE=-6.55D-11 OVMax= 3.92D-06

 SCF Done:  E(RCAM-B3LYP) =  -4069.81305147     A.U. after   19 cycles
            NFock= 19  Conv=0.71D-08     -V/T= 2.0102
 KE= 4.028799760656D+03 PE=-4.047113596746D+04 EE= 1.687753792100D+04
 Leave Link  502 at Thu Aug 19 22:24:34 2021, MaxMem= 23488102400 cpu:           15634.7 elap:             677.3
 (Enter /sw/apps/gaussian-16.0/g16/l801.exe)
 DoSCS=F DFT=T ScalE2(SS,OS)=  1.000000  1.000000
 ExpMin= 3.36D-02 ExpMax= 4.95D+03 ExpMxC= 7.45D+02 IAcc=3 IRadAn=         5 AccDes= 0.00D+00
 HarFok:  IExCor=  205 AccDes= 0.00D+00 IRadAn=         5 IDoV=-2 UseB2=F ITyADJ=14
 ICtDFT= 12500011 ScaDFX=  1.000000  1.000000  1.000000  1.000000
 GSVD:  LWork=       -9588 too small for GESVD, short by       45590 words or       45590 for optimal perf.
 Largest valence mixing into a core orbital is  2.03D-04
 Largest core mixing into a valence orbital is  5.24D-05
 Range of M.O.s used for correlation:    95  1572
 NBasis=  1572 NAE=   312 NBE=   312 NFC=    94 NFV=     0
 NROrb=   1478 NOA=   218 NOB=   218 NVA=  1260 NVB=  1260
 Leave Link  801 at Thu Aug 19 22:24:34 2021, MaxMem= 23488102400 cpu:               9.4 elap:               0.4
 (Enter /sw/apps/gaussian-16.0/g16/l914.exe)
 RHF ground state
 Two-electron integrals replicated using symmetry.
 MDV= 23488102400 DFT=T DoStab=F Mixed=T DoRPA=T DoScal=F NonHer=T
 Making orbital integer symmetry assigments:
 Orbital symmetries:
       Occupied  (A) (A) (A) (A) (A) (A) (A) (A) (A) (A) (A) (A)
                 (A) (A) (A) (A) (A) (A) (A) (A) (A) (A) (A) (A)
                 (A) (A) (A) (A) (A) (A) (A) (A) (A) (A) (A) (A)
                 (A) (A) (A) (A) (A) (A) (A) (A) (A) (A) (A) (A)
                 (A) (A) (A) (A) (A) (A) (A) (A) (A) (A) (A) (A)
                 (A) (A) (A) (A) (A) (A) (A) (A) (A) (A) (A) (A)
                 (A) (A) (A) (A) (A) (A) (A) (A) (A) (A) (A) (A)
                 (A) (A) (A) (A) (A) (A) (A) (A) (A) (A) (A) (A)
                 (A) (A) (A) (A) (A) (A) (A) (A) (A) (A) (A) (A)
                 (A) (A) (A) (A) (A) (A) (A) (A) (A) (A) (A) (A)
                 (A) (A) (A) (A) (A) (A) (A) (A) (A) (A) (A) (A)
                 (A) (A) (A) (A) (A) (A) (A) (A) (A) (A) (A) (A)
                 (A) (A) (A) (A) (A) (A) (A) (A) (A) (A) (A) (A)
                 (A) (A) (A) (A) (A) (A) (A) (A) (A) (A) (A) (A)
                 (A) (A) (A) (A) (A) (A) (A) (A) (A) (A) (A) (A)
                 (A) (A) (A) (A) (A) (A) (A) (A) (A) (A) (A) (A)
                 (A) (A) (A) (A) (A) (A) (A) (A) (A) (A) (A) (A)
                 (A) (A) (A) (A) (A) (A) (A) (A) (A) (A) (A) (A)
                 (A) (A) (A) (A) (A) (A) (A) (A) (A) (A) (A) (A)
                 (A) (A) (A) (A) (A) (A) (A) (A) (A) (A) (A) (A)
                 (A) (A) (A) (A) (A) (A) (A) (A) (A) (A) (A) (A)
                 (A) (A) (A) (A) (A) (A) (A) (A) (A) (A) (A) (A)
                 (A) (A) (A) (A) (A) (A) (A) (A) (A) (A) (A) (A)
                 (A) (A) (A) (A) (A) (A) (A) (A) (A) (A) (A) (A)
                 (A) (A) (A) (A) (A) (A) (A) (A) (A) (A) (A) (A)
                 (A) (A) (A) (A) (A) (A) (A) (A) (A) (A) (A) (A)
       Virtual   (A) (A) (A) (A) (A) (A) (A) (A) (A) (A) (A) (A)
                 (A) (A) (A) (A) (A) (A) (A) (A) (A) (A) (A) (A)
                 (A) (A) (A) (A) (A) (A) (A) (A) (A) (A) (A) (A)
                 (A) (A) (A) (A) (A) (A) (A) (A) (A) (A) (A) (A)
                 (A) (A) (A) (A) (A) (A) (A) (A) (A) (A) (A) (A)
                 (A) (A) (A) (A) (A) (A) (A) (A) (A) (A) (A) (A)
                 (A) (A) (A) (A) (A) (A) (A) (A) (A) (A) (A) (A)
                 (A) (A) (A) (A) (A) (A) (A) (A) (A) (A) (A) (A)
                 (A) (A) (A) (A) (A) (A) (A) (A) (A) (A) (A) (A)
                 (A) (A) (A) (A) (A) (A) (A) (A) (A) (A) (A) (A)
                 (A) (A) (A) (A) (A) (A) (A) (A) (A) (A) (A) (A)
                 (A) (A) (A) (A) (A) (A) (A) (A) (A) (A) (A) (A)
                 (A) (A) (A) (A) (A) (A) (A) (A) (A) (A) (A) (A)
                 (A) (A) (A) (A) (A) (A) (A) (A) (A) (A) (A) (A)
                 (A) (A) (A) (A) (A) (A) (A) (A) (A) (A) (A) (A)
                 (A) (A) (A) (A) (A) (A) (A) (A) (A) (A) (A) (A)
                 (A) (A) (A) (A) (A) (A) (A) (A) (A) (A) (A) (A)
                 (A) (A) (A) (A) (A) (A) (A) (A) (A) (A) (A) (A)
                 (A) (A) (A) (A) (A) (A) (A) (A) (A) (A) (A) (A)
                 (A) (A) (A) (A) (A) (A) (A) (A) (A) (A) (A) (A)
                 (A) (A) (A) (A) (A) (A) (A) (A) (A) (A) (A) (A)
                 (A) (A) (A) (A) (A) (A) (A) (A) (A) (A) (A) (A)
                 (A) (A) (A) (A) (A) (A) (A) (A) (A) (A) (A) (A)
                 (A) (A) (A) (A) (A) (A) (A) (A) (A) (A) (A) (A)
                 (A) (A) (A) (A) (A) (A) (A) (A) (A) (A) (A) (A)
                 (A) (A) (A) (A) (A) (A) (A) (A) (A) (A) (A) (A)
                 (A) (A) (A) (A) (A) (A) (A) (A) (A) (A) (A) (A)
                 (A) (A) (A) (A) (A) (A) (A) (A) (A) (A) (A) (A)
                 (A) (A) (A) (A) (A) (A) (A) (A) (A) (A) (A) (A)
                 (A) (A) (A) (A) (A) (A) (A) (A) (A) (A) (A) (A)
                 (A) (A) (A) (A) (A) (A) (A) (A) (A) (A) (A) (A)
                 (A) (A) (A) (A) (A) (A) (A) (A) (A) (A) (A) (A)
                 (A) (A) (A) (A) (A) (A) (A) (A) (A) (A) (A) (A)
                 (A) (A) (A) (A) (A) (A) (A) (A) (A) (A) (A) (A)
                 (A) (A) (A) (A) (A) (A) (A) (A) (A) (A) (A) (A)
                 (A) (A) (A) (A) (A) (A) (A) (A) (A) (A) (A) (A)
                 (A) (A) (A) (A) (A) (A) (A) (A) (A) (A) (A) (A)
                 (A) (A) (A) (A) (A) (A) (A) (A) (A) (A) (A) (A)
                 (A) (A) (A) (A) (A) (A) (A) (A) (A) (A) (A) (A)
                 (A) (A) (A) (A) (A) (A) (A) (A) (A) (A) (A) (A)
                 (A) (A) (A) (A) (A) (A) (A) (A) (A) (A) (A) (A)
                 (A) (A) (A) (A) (A) (A) (A) (A) (A) (A) (A) (A)
                 (A) (A) (A) (A) (A) (A) (A) (A) (A) (A) (A) (A)
                 (A) (A) (A) (A) (A) (A) (A) (A) (A) (A) (A) (A)
                 (A) (A) (A) (A) (A) (A) (A) (A) (A) (A) (A) (A)
                 (A) (A) (A) (A) (A) (A) (A) (A) (A) (A) (A) (A)
                 (A) (A) (A) (A) (A) (A) (A) (A) (A) (A) (A) (A)
                 (A) (A) (A) (A) (A) (A) (A) (A) (A) (A) (A) (A)
                 (A) (A) (A) (A) (A) (A) (A) (A) (A) (A) (A) (A)
                 (A) (A) (A) (A) (A) (A) (A) (A) (A) (A) (A) (A)
                 (A) (A) (A) (A) (A) (A) (A) (A) (A) (A) (A) (A)
                 (A) (A) (A) (A) (A) (A) (A) (A) (A) (A) (A) (A)
                 (A) (A) (A) (A) (A) (A) (A) (A) (A) (A) (A) (A)
                 (A) (A) (A) (A) (A) (A) (A) (A) (A) (A) (A) (A)
                 (A) (A) (A) (A) (A) (A) (A) (A) (A) (A) (A) (A)
                 (A) (A) (A) (A) (A) (A) (A) (A) (A) (A) (A) (A)
                 (A) (A) (A) (A) (A) (A) (A) (A) (A) (A) (A) (A)
                 (A) (A) (A) (A) (A) (A) (A) (A) (A) (A) (A) (A)
                 (A) (A) (A) (A) (A) (A) (A) (A) (A) (A) (A) (A)
                 (A) (A) (A) (A) (A) (A) (A) (A) (A) (A) (A) (A)
                 (A) (A) (A) (A) (A) (A) (A) (A) (A) (A) (A) (A)
                 (A) (A) (A) (A) (A) (A) (A) (A) (A) (A) (A) (A)
                 (A) (A) (A) (A) (A) (A) (A) (A) (A) (A) (A) (A)
                 (A) (A) (A) (A) (A) (A) (A) (A) (A) (A) (A) (A)
                 (A) (A) (A) (A) (A) (A) (A) (A) (A) (A) (A) (A)
                 (A) (A) (A) (A) (A) (A) (A) (A) (A) (A) (A) (A)
                 (A) (A) (A) (A) (A) (A) (A) (A) (A) (A) (A) (A)
                 (A) (A) (A) (A) (A) (A) (A) (A) (A) (A) (A) (A)
                 (A) (A) (A) (A) (A) (A) (A) (A) (A) (A) (A) (A)
                 (A) (A) (A) (A) (A) (A) (A) (A) (A) (A) (A) (A)
                 (A) (A) (A) (A) (A) (A) (A) (A) (A) (A) (A) (A)
                 (A) (A) (A) (A) (A) (A) (A) (A) (A) (A) (A) (A)
                 (A) (A) (A) (A) (A) (A) (A) (A) (A) (A) (A) (A)
                 (A) (A) (A) (A) (A) (A) (A) (A) (A) (A) (A) (A)
                 (A) (A) (A) (A) (A) (A) (A) (A) (A) (A) (A) (A)
                 (A) (A) (A) (A) (A) (A) (A) (A) (A) (A) (A) (A)
                 (A) (A) (A) (A) (A) (A) (A) (A) (A) (A) (A) (A)
                 (A) (A) (A) (A) (A) (A) (A) (A) (A) (A) (A) (A)
                 (A) (A) (A) (A) (A) (A) (A) (A) (A) (A) (A) (A)
                 (A) (A) (A) (A) (A) (A) (A) (A) (A) (A) (A) (A)
                 (A) (A) (A) (A) (A) (A) (A) (A) (A) (A) (A) (A)
                 (A) (A) (A) (A) (A) (A) (A) (A) (A) (A) (A) (A)
                 (A) (A) (A) (A) (A) (A) (A) (A) (A) (A) (A) (A)
                 (A) (A) (A) (A) (A) (A) (A) (A) (A) (A) (A) (A)
                 (A) (A) (A) (A) (A) (A) (A) (A) (A) (A) (A) (A)
                 (A) (A) (A) (A) (A) (A) (A) (A) (A) (A) (A) (A)
                 (A) (A) (A) (A) (A) (A) (A) (A) (A) (A) (A) (A)
                 (A) (A) (A) (A) (A) (A) (A) (A) (A) (A) (A) (A)
                 (A) (A) (A) (A) (A) (A) (A) (A) (A) (A) (A) (A)
                 (A) (A) (A) (A) (A) (A) (A) (A) (A) (A) (A) (A)
                 (A) (A) (A) (A) (A) (A) (A) (A) (A) (A) (A) (A)
                 (A) (A) (A) (A) (A) (A) (A) (A) (A) (A) (A) (A)
                 (A) (A) (A) (A) (A) (A) (A) (A) (A) (A) (A) (A)
                 (A) (A) (A) (A) (A) (A) (A) (A) (A) (A) (A) (A)
                 (A) (A) (A) (A) (A) (A) (A) (A) (A) (A) (A) (A)
                 (A) (A) (A) (A) (A) (A) (A) (A) (A) (A) (A) (A)
                 (A) (A) (A) (A) (A) (A) (A) (A) (A) (A) (A) (A)
                 (A) (A) (A) (A) (A) (A) (A) (A) (A) (A) (A) (A)
                 (A) (A) (A) (A) (A) (A) (A) (A) (A) (A) (A) (A)
                 (A) (A) (A) (A) (A) (A) (A) (A) (A) (A) (A) (A)
                 (A) (A) (A) (A) (A) (A) (A) (A) (A) (A) (A) (A)
                 (A) (A) (A) (A) (A) (A) (A) (A) (A) (A) (A) (A)
                 (A) (A) (A) (A) (A) (A) (A) (A) (A) (A) (A) (A)
                 (A) (A) (A) (A) (A) (A) (A) (A) (A) (A) (A) (A)
                 (A) (A) (A) (A) (A) (A) (A) (A) (A) (A) (A) (A)
    20 initial guesses have been made.
 Convergence on wavefunction:    0.001000000000000
 Davidson Disk Diagonalization:  ConvIn= 1.00D-03 SkipCon=T Conv= 1.00D-03.
 Max sub-space:  2000 roots to seek:    20 dimension of matrix:       549360
 Iteration     1 Dimension    20 NMult     0 NNew     20
 CISAX will form    20 AO SS matrices at one time.
 NMat=    20 NSing=    20 JSym2X= 0.
 FoFJK:  IHMeth= 1 ICntrl=       0 DoSepK=T KAlg= 0 I1Cent=           0 FoldK=F
 IRaf=         1 NMat=      40 IRICut=       1 DoRegI=T DoRafI=F ISym2E= 0 IDoP0=3 IntGTp=3.
 FoFCou: FMM=T IPFlag=           0 FMFlag=      100000 FMFlg1=        2001
         NFxFlg=           0 DoJE=F BraDBF=F KetDBF=F FulRan=T
         wScrn=  0.000000 ICntrl=       500 IOpCl=  0 I1Cent=           0 NGrid=           0
         NMat0=   20 NMatS0=     20 NMatT0=    0 NMatD0=   20 NMtDS0=    0 NMtDT0=    0
 Symmetry not used in FoFCou.
 FMM levels:  10  Number of levels for PrismC:   9
 New state      2 was old state      4
 New state      3 was old state      7
 New state      4 was old state      6
 New state      5 was old state      2
 Excitation Energies [eV] at current iteration:
 Root      1 :     2.327394073474049
 Root      2 :     2.545816056064103
 Root      3 :     2.609354323430471
 Root      4 :     2.617166917008442
 Root      5 :     2.659497049979197
 Root      6 :     2.713531924358138
 Root      7 :     3.110326623099581
 Root      8 :     3.343728787350504
 Root      9 :     3.630971836677957
 Root     10 :     3.674109682010720
 Root     11 :     3.741420889453908
 Root     12 :     3.757503438526347
 Root     13 :     4.230045513938832
 Root     14 :     4.272125562484486
 Root     15 :     4.330177410090900
 Root     16 :     4.481226167304936
 Root     17 :     4.572094174322272
 Root     18 :     4.610612942130463
 Root     19 :     4.716036214135887
 Root     20 :     4.838203657710629
 Iteration     2 Dimension    30 NMult    20 NNew     10
 CISAX will form    10 AO SS matrices at one time.
 NMat=    10 NSing=    10 JSym2X= 0.
 New state      1 was old state      5
 Root      1 not converged, maximum delta is    0.266924945182273
 New state      2 was old state      3
 Root      2 not converged, maximum delta is    0.128840618663360
 New state      3 was old state      4
 Root      3 not converged, maximum delta is    0.197174523861710
 New state      4 was old state      1
 Root      4 not converged, maximum delta is    0.003420183628792
 New state      5 was old state      2
 Root      5 not converged, maximum delta is    0.005886021937813
 Excitation Energies [eV] at current iteration:
 Root      1 :     1.786280995143725   Change is   -0.873216054835473
 Root      2 :     2.187527345770969   Change is   -0.421826977659502
 Root      3 :     2.241294185763941   Change is   -0.375872731244501
 Root      4 :     2.326566458313674   Change is   -0.000827615160375
 Root      5 :     2.544810173274160   Change is   -0.001005882789942
 Iteration     3 Dimension    40 NMult    30 NNew     10
 CISAX will form    10 AO SS matrices at one time.
 NMat=    10 NSing=    10 JSym2X= 0.
 Root      1 not converged, maximum delta is    0.056175612662791
 Root      2 not converged, maximum delta is    0.383230082208167
 Root      3 not converged, maximum delta is    0.188010894171050
 No map to state      4
 New state      5 was old state      4
 Root      5 has converged.
 Excitation Energies [eV] at current iteration:
 Root      1 :     1.680520191342952   Change is   -0.105760803800772
 Root      2 :     1.816602798142623   Change is   -0.370924547628346
 Root      3 :     2.195808135850426   Change is   -0.045486049913516
 Root      4 :     2.221954084172005
 Root      5 :     2.326560651108557   Change is   -0.000005807205117
 Iteration     4 Dimension    48 NMult    40 NNew      8
 CISAX will form     8 AO SS matrices at one time.
 NMat=     8 NSing=     8 JSym2X= 0.
 Root      1 not converged, maximum delta is    0.013195500995956
 Root      2 not converged, maximum delta is    0.065963926850588
 Root      3 not converged, maximum delta is    0.317765100965871
 Root      4 not converged, maximum delta is    0.308892724553276
 Root      5 has converged.
 Excitation Energies [eV] at current iteration:
 Root      1 :     1.663791112730367   Change is   -0.016729078612585
 Root      2 :     1.698722960693507   Change is   -0.117879837449115
 Root      3 :     2.183685079583199   Change is   -0.012123056267227
 Root      4 :     2.196486856155218   Change is   -0.025467228016787
 Root      5 :     2.326560619182273   Change is   -0.000000031926284
 Iteration     5 Dimension    56 NMult    48 NNew      8
 CISAX will form     8 AO SS matrices at one time.
 NMat=     8 NSing=     8 JSym2X= 0.
 Root      1 not converged, maximum delta is    0.005470967508657
 Root      2 not converged, maximum delta is    0.008517367576598
 Root      3 not converged, maximum delta is    0.037879178785207
 Root      4 not converged, maximum delta is    0.037857980841253
 Root      5 has converged.
 Excitation Energies [eV] at current iteration:
 Root      1 :     1.662005337499458   Change is   -0.001785775230909
 Root      2 :     1.686330142780294   Change is   -0.012392817913213
 Root      3 :     2.181874798735179   Change is   -0.001810280848020
 Root      4 :     2.194860666742827   Change is   -0.001626189412391
 Root      5 :     2.326560607897328   Change is   -0.000000011284945
 Iteration     6 Dimension    64 NMult    56 NNew      8
 CISAX will form     8 AO SS matrices at one time.
 NMat=     8 NSing=     8 JSym2X= 0.
 Root      1 has converged.
 Root      2 not converged, maximum delta is    0.002988539809510
 Root      3 not converged, maximum delta is    0.003968668526785
 Root      4 not converged, maximum delta is    0.004465831946011
 Root      5 has converged.
 Excitation Energies [eV] at current iteration:
 Root      1 :     1.661750794344384   Change is   -0.000254543155074
 Root      2 :     1.684848436332296   Change is   -0.001481706447998
 Root      3 :     2.181638680883723   Change is   -0.000236117851457
 Root      4 :     2.194633152790271   Change is   -0.000227513952557
 Root      5 :     2.326560604803558   Change is   -0.000000003093770
 Iteration     7 Dimension    70 NMult    64 NNew      6
 CISAX will form     6 AO SS matrices at one time.
 NMat=     6 NSing=     6 JSym2X= 0.
 Root      1 has converged.
 Root      2 not converged, maximum delta is    0.001054486088765
 Root      3 has converged.
 Root      4 has converged.
 Root      5 has converged.
 Excitation Energies [eV] at current iteration:
 Root      1 :     1.661749583664851   Change is   -0.000001210679533
[...]
 Alpha virt. eigenvalues --    1.83663   1.83806   1.83940   1.84137   1.84335
 Alpha virt. eigenvalues --    1.84621   1.84703   1.84715   1.84981   1.85103
 Alpha virt. eigenvalues --    1.85189   1.85332   1.85428   1.85474   1.85766
 Alpha virt. eigenvalues --    1.85783   1.86143   1.86279   1.86463   1.86594
 Alpha virt. eigenvalues --    1.86685   1.86863   1.86913   1.86999   1.87239
 Alpha virt. eigenvalues --    1.87336   1.87542   1.87737   1.87774   1.87942
 Alpha virt. eigenvalues --    1.87997   1.88209   1.88404   1.88434   1.88695
 Alpha virt. eigenvalues --    1.88890   1.89050   1.89183   1.89483   1.89538
 Alpha virt. eigenvalues --    1.89660   1.89886   1.90010   1.90047   1.90455
 Alpha virt. eigenvalues --    1.90634   1.91177   1.91208   1.91346   1.91603
 Alpha virt. eigenvalues --    1.92020   1.92045   1.92455   1.92533   1.92882
 Alpha virt. eigenvalues --    1.92991   1.93264   1.93400   1.93688   1.94193
 Alpha virt. eigenvalues --    1.94492   1.94604   1.94991   1.95410   1.95586
 Alpha virt. eigenvalues --    1.95750   1.95836   1.96077   1.96112   1.96300
 Alpha virt. eigenvalues --    1.96444   1.96491   1.96722   1.96807   1.97210
 Alpha virt. eigenvalues --    1.97343   1.97740   1.97753   1.98034   1.98052
 Alpha virt. eigenvalues --    1.98433   1.98495   1.98622   1.99008   1.99334
 Alpha virt. eigenvalues --    1.99668   2.00260   2.00570   2.00850   2.00970
 Alpha virt. eigenvalues --    2.01271   2.01332   2.01558   2.01596   2.01676
 Alpha virt. eigenvalues --    2.01861   2.02122   2.02656   2.02939   2.03141
 Alpha virt. eigenvalues --    2.03257   2.03314   2.03343   2.03631   2.03755
 Alpha virt. eigenvalues --    2.03915   2.04261   2.04868   2.05162   2.05417
 Alpha virt. eigenvalues --    2.05804   2.05969   2.06474   2.06703   2.07072
 Alpha virt. eigenvalues --    2.07285   2.07561   2.08515   2.08662   2.08861
 Alpha virt. eigenvalues --    2.09257   2.09440   2.09845   2.10727   2.11062
 Alpha virt. eigenvalues --    2.11184   2.11366   2.11613   2.11621   2.11823
 Alpha virt. eigenvalues --    2.12146   2.12328   2.12699   2.12733   2.12771
 Alpha virt. eigenvalues --    2.13044   2.13162   2.13580   2.14066   2.14120
 Alpha virt. eigenvalues --    2.14419   2.15224   2.15603   2.15784   2.16367
 Alpha virt. eigenvalues --    2.16451   2.16636   2.16868   2.17293   2.17384
 Alpha virt. eigenvalues --    2.17602   2.17796   2.17979   2.18146   2.18174
 Alpha virt. eigenvalues --    2.18331   2.18694   2.18943   2.19496   2.19586
 Alpha virt. eigenvalues --    2.19907   2.20078   2.20132   2.20477   2.20751
 Alpha virt. eigenvalues --    2.21107   2.21314   2.21551   2.21595   2.21988
 Alpha virt. eigenvalues --    2.22073   2.22581   2.22986   2.23225   2.23527
 Alpha virt. eigenvalues --    2.24308   2.24588   2.24920   2.25146   2.26132
 Alpha virt. eigenvalues --    2.26674   2.26698   2.26952   2.27232   2.27451
 Alpha virt. eigenvalues --    2.28012   2.28725   2.29171   2.29591   2.29749
 Alpha virt. eigenvalues --    2.30191   2.30299   2.30877   2.30936   2.31033
 Alpha virt. eigenvalues --    2.31140   2.31432   2.32038   2.32413   2.32989
 Alpha virt. eigenvalues --    2.33333   2.33529   2.33687   2.34049   2.34386
 Alpha virt. eigenvalues --    2.35164   2.35538   2.35667   2.36237   2.36303
 Alpha virt. eigenvalues --    2.36511   2.36540   2.36602   2.37594   2.37850
 Alpha virt. eigenvalues --    2.38183   2.38537   2.38689   2.39151   2.39489
 Alpha virt. eigenvalues --    2.39899   2.40093   2.40338   2.40438   2.41097
 Alpha virt. eigenvalues --    2.41156   2.41519   2.41632   2.41851   2.41876
 Alpha virt. eigenvalues --    2.42366   2.42887   2.42963   2.43223   2.43296
 Alpha virt. eigenvalues --    2.44015   2.44206   2.44613   2.44776   2.45019
 Alpha virt. eigenvalues --    2.45268   2.45449   2.45788   2.46210   2.46353
 Alpha virt. eigenvalues --    2.46493   2.46655   2.46685   2.47028   2.47144
 Alpha virt. eigenvalues --    2.47541   2.47612   2.48068   2.49237   2.49524
 Alpha virt. eigenvalues --    2.50012   2.50056   2.50494   2.50636   2.50957
 Alpha virt. eigenvalues --    2.51541   2.51730   2.51794   2.52267   2.52674
 Alpha virt. eigenvalues --    2.52691   2.53500   2.53819   2.54076   2.54178
 Alpha virt. eigenvalues --    2.54393   2.54678   2.54979   2.55418   2.55851
 Alpha virt. eigenvalues --    2.57765   2.58285   2.58548   2.59166   2.60024
 Alpha virt. eigenvalues --    2.60461   2.60574   2.61274   2.61617   2.62039
 Alpha virt. eigenvalues --    2.62392   2.62668   2.62828   2.63350   2.63812
 Alpha virt. eigenvalues --    2.64187   2.64533   2.64587   2.64967   2.65330
 Alpha virt. eigenvalues --    2.65631   2.66191   2.66699   2.66810   2.67000
 Alpha virt. eigenvalues --    2.67374   2.67807   2.68251   2.68710   2.68872
 Alpha virt. eigenvalues --    2.69003   2.69303   2.69309   2.69871   2.69888
 Alpha virt. eigenvalues --    2.70354   2.70847   2.71367   2.71872   2.72091
 Alpha virt. eigenvalues --    2.72474   2.72599   2.72694   2.73040   2.73189
 Alpha virt. eigenvalues --    2.73237   2.73438   2.73676   2.74379   2.74696
 Alpha virt. eigenvalues --    2.74833   2.75269   2.76496   2.76717   2.77079
 Alpha virt. eigenvalues --    2.77256   2.77336   2.77803   2.78092   2.78439
 Alpha virt. eigenvalues --    2.78543   2.78869   2.79006   2.79400   2.80182
 Alpha virt. eigenvalues --    2.80390   2.80399   2.80906   2.80963   2.81315
 Alpha virt. eigenvalues --    2.81792   2.82196   2.82238   2.82539   2.83564
 Alpha virt. eigenvalues --    2.83678   2.83975   2.84094   2.84444   2.84668
 Alpha virt. eigenvalues --    2.84801   2.85024   2.85572   2.85833   2.86820
 Alpha virt. eigenvalues --    2.86830   2.87373   2.87390   2.88059   2.88362
 Alpha virt. eigenvalues --    2.88400   2.88818   2.88822   2.89023   2.90362
 Alpha virt. eigenvalues --    2.90925   2.91118   2.91302   2.93014   2.93572
 Alpha virt. eigenvalues --    2.93993   2.94103   2.94486   2.94697   2.95191
 Alpha virt. eigenvalues --    2.95827   2.95919   2.96094   2.96343   2.96572
 Alpha virt. eigenvalues --    2.96933   2.97102   2.97601   2.98093   2.98149
 Alpha virt. eigenvalues --    2.98264   2.98481   2.98650   2.98779   2.98798
 Alpha virt. eigenvalues --    2.99005   2.99131   2.99558   2.99796   2.99919
 Alpha virt. eigenvalues --    3.00113   3.00238   3.00303   3.00480   3.01308
 Alpha virt. eigenvalues --    3.01896   3.01913   3.02161   3.02411   3.02509
 Alpha virt. eigenvalues --    3.02812   3.02985   3.03241   3.03628   3.04083
 Alpha virt. eigenvalues --    3.04104   3.04339   3.04432   3.04486   3.04651
 Alpha virt. eigenvalues --    3.04907   3.05240   3.05502   3.05999   3.06349
 Alpha virt. eigenvalues --    3.06642   3.07275   3.08079   3.08088   3.09224
 Alpha virt. eigenvalues --    3.09464   3.09559   3.10310   3.10797   3.11087
 Alpha virt. eigenvalues --    3.11266   3.11598   3.11756   3.12011   3.12160
 Alpha virt. eigenvalues --    3.12653   3.13135   3.13571   3.13805   3.13824
 Alpha virt. eigenvalues --    3.13931   3.14690   3.15897   3.16088   3.17137
 Alpha virt. eigenvalues --    3.17682   3.17962   3.18001   3.19037   3.19156
 Alpha virt. eigenvalues --    3.22002   3.22788   3.23820   3.24482   3.24604
 Alpha virt. eigenvalues --    3.25353   3.26387   3.26829   3.27492   3.27582
 Alpha virt. eigenvalues --    3.28767   3.29411   3.31394   3.31554   3.33308
 Alpha virt. eigenvalues --    3.33367   3.40336   3.40458   3.42721   3.42935
 Alpha virt. eigenvalues --    3.48510   3.48858   3.49911   3.50473   3.51039
 Alpha virt. eigenvalues --    3.51362   3.56443   3.57154   3.59008   3.59491
 Alpha virt. eigenvalues --    3.62672   3.62706   3.66094   3.66181   3.66917
 Alpha virt. eigenvalues --    3.67735   3.73067   3.74193   3.75896   3.76843
          Condensed to atoms (all electrons):
 Mulliken charges:
               1
     1  Mg   0.838944
     2  C   -0.004190
     3  C   -0.094048
     4  C   -0.045653
     5  C   -0.063243
     6  N   -0.256835
     7  C   -0.052769
     8  C   -0.014068
     9  C   -0.087044
    10  C    0.046252
    11  C    0.104702
    12  C    0.053602
    13  C   -0.071202
    14  H    0.033119
    15  N   -0.433244
    16  C    0.168777
    17  C   -0.176576
    18  C   -0.003593
    19  C    0.148867
    20  C    0.109934
    21  C    0.012203
    22  O   -0.249684
    23  C    0.062186
    24  N   -0.341152
    25  C    0.041606
    26  C   -0.028273
    27  C   -0.024059
    28  C    0.074755
    29  C    0.076084
    30  C    0.034941
    31  C   -0.004859
    32  N   -0.310272
    33  C    0.079998
    34  C   -0.169746
    35  C    0.007800
    36  C    0.082474
    37  C    0.127422
    38  C    0.045066
    39  O   -0.189242
    40  C   -0.005163
    41  C    0.213976
    42  O   -0.260792
    43  O   -0.303611
    44  C    0.158337
    45  H   -0.017324
    46  H   -0.016564
    47  H   -0.040563
    48  H    0.000849
    49  H   -0.003982
    50  H    0.025523
    51  H    0.016931
    52  H    0.016957
    53  H    0.011700
    54  H    0.041654
    55  H    0.018763
    56  H    0.018701
    57  H    0.005916
    58  H    0.027116
    59  H    0.040849
    60  H    0.037654
    61  H    0.035640
    62  H    0.032466
    63  H    0.016601
    64  H    0.009809
    65  H    0.023441
    66  H    0.012462
    67  H    0.005177
    68  H    0.006670
    69  H    0.005856
    70  H    0.007850
    71  H    0.020170
    72  H    0.028723
    73  H    0.047105
    74  H    0.010309
    75  H    0.046200
    76  H    0.035718
    77  H    0.043833
    78  H    0.046809
    79  H    0.050530
    80  Mg   0.837237
    81  C   -0.016979
    82  C   -0.087346
    83  C   -0.046772
    84  C   -0.065295
    85  N   -0.255209
    86  C   -0.048320
    87  C   -0.015359
    88  C   -0.090602
    89  C    0.046106
    90  C    0.114649
    91  C    0.062349
    92  C   -0.077478
    93  H    0.032694
    94  N   -0.423499
    95  C    0.162953
    96  C   -0.174786
    97  C   -0.008959
    98  C    0.152496
    99  C    0.099719
   100  C    0.014741
   101  O   -0.254397
   102  C    0.061490
   103  N   -0.350282
   104  C    0.037694
   105  C   -0.019736
   106  C   -0.034916
   107  C    0.088960
   108  C    0.073408
   109  C    0.034911
   110  C   -0.007519
   111  N   -0.324043
   112  C    0.078469
   113  C   -0.163826
   114  C    0.001970
   115  C    0.096172
   116  C    0.131640
   117  C    0.041581
   118  O   -0.188924
   119  C    0.001376
   120  C    0.211195
   121  O   -0.251593
   122  O   -0.304964
   123  C    0.152348
   124  H   -0.017265
   125  H   -0.017071
   126  H   -0.041125
   127  H    0.001175
   128  H   -0.005622
   129  H    0.022668
   130  H    0.013997
   131  H    0.029706
   132  H    0.012843
   133  H    0.036374
   134  H    0.023115
   135  H    0.019235
   136  H    0.009589
   137  H    0.024451
   138  H    0.039000
   139  H    0.037312
   140  H    0.035351
   141  H    0.034086
   142  H    0.013683
   143  H    0.013146
   144  H    0.023424
   145  H    0.010238
   146  H    0.007652
   147  H    0.005709
   148  H    0.003503
   149  H    0.010443
   150  H    0.017423
   151  H    0.030425
   152  H    0.045485
   153  H    0.008249
   154  H    0.045610
   155  H    0.036147
   156  H    0.043387
   157  H    0.050222
   158  H    0.052806
 Sum of Mulliken charges =  -0.00000
 Mulliken charges with hydrogens summed into heavy atoms:
               1
     1  Mg   0.838944
     2  C   -0.004190
     3  C   -0.111372
     4  C   -0.062217
     5  C   -0.103806
     6  N   -0.256835
     7  C   -0.052769
     8  C   -0.013219
     9  C   -0.091026
    10  C    0.046252
    11  C    0.164113
    12  C    0.106956
    13  C   -0.000619
    15  N   -0.433244
    16  C    0.168777
    17  C   -0.176576
    18  C   -0.003593
    19  C    0.148867
    20  C    0.183815
    21  C    0.012203
    22  O   -0.249684
    23  C    0.167946
    24  N   -0.341152
    25  C    0.041606
    26  C   -0.011672
    27  C   -0.014250
    28  C    0.074755
    29  C    0.117164
    30  C    0.047467
    31  C    0.051885
    32  N   -0.310272
    33  C    0.079998
    34  C   -0.169746
    35  C    0.007800
    36  C    0.082474
    37  C    0.231035
    38  C    0.045066
    39  O   -0.189242
    40  C    0.030555
    41  C    0.213976
    42  O   -0.260792
    43  O   -0.303611
    44  C    0.299509
    80  Mg   0.837237
    81  C   -0.016979
    82  C   -0.104611
    83  C   -0.063843
    84  C   -0.106420
    85  N   -0.255209
    86  C   -0.048320
    87  C   -0.014184
    88  C   -0.096225
    89  C    0.046106
    90  C    0.181021
    91  C    0.111566
    92  C   -0.002434
    94  N   -0.423499
    95  C    0.162953
    96  C   -0.174786
    97  C   -0.008959
    98  C    0.152496
    99  C    0.172759
   100  C    0.014741
   101  O   -0.254397
   102  C    0.168240
   103  N   -0.350282
   104  C    0.037694
   105  C   -0.006053
   106  C   -0.021770
   107  C    0.088960
   108  C    0.114721
   109  C    0.044122
   110  C    0.050773
   111  N   -0.324043
   112  C    0.078469
   113  C   -0.163826
   114  C    0.001970
   115  C    0.096172
   116  C    0.230983
   117  C    0.041581
   118  O   -0.188924
   119  C    0.037524
   120  C    0.211195
   121  O   -0.251593
   122  O   -0.304964
   123  C    0.298763
 Electronic spatial extent (au):  <R**2>=          97693.4094
 Charge=             -0.0000 electrons
 Dipole moment (field-independent basis, Debye):
    X=             -5.5611    Y=              1.5361    Z=              5.4960  Tot=              7.9681
 Quadrupole moment (field-independent basis, Debye-Ang):
   XX=           -518.3138   YY=           -520.9780   ZZ=           -479.9682
   XY=            -12.3017   XZ=             -0.4596   YZ=            -22.4581
 Traceless Quadrupole moment (field-independent basis, Debye-Ang):
   XX=            -11.8938   YY=            -14.5580   ZZ=             26.4518
   XY=            -12.3017   XZ=             -0.4596   YZ=            -22.4581
 Octapole moment (field-independent basis, Debye-Ang**2):
  XXX=           -390.8382  YYY=            -64.2331  ZZZ=            129.7093  XYY=            209.3852
  XXY=             75.4966  XXZ=            231.8565  XZZ=           -207.2360  YZZ=           -125.0397
  YYZ=             49.3513  XYZ=           -183.0256
 Hexadecapole moment (field-independent basis, Debye-Ang**3):
 XXXX=         -67613.3281 YYYY=         -37245.5953 ZZZZ=         -28267.5706 XXXY=           -109.7677
 XXXZ=           -203.4796 YYYX=          -1559.3914 YYYZ=            -17.8958 ZZZX=            862.4775
 ZZZY=           -891.1793 XXYY=         -16759.0157 XXZZ=         -15798.7027 YYZZ=         -11220.7170
 XXYZ=           -281.8690 YYXZ=          -1417.6430 ZZXY=            265.6340
 N-N= 1.549498523432D+04 E-N=-4.047113595854D+04  KE= 4.028799760656D+03
 Leave Link  601 at Thu Aug 19 22:50:43 2021, MaxMem= 23488102400 cpu:              17.3 elap:               0.9
 (Enter /sw/apps/gaussian-16.0/g16/l9999.exe)
 1\1\GINC-BP1-COMPUTE00067\SP\RCAM-B3LYP TD-FC\def2SVP\C68H72Mg2N8O8\OF
 15641\19-Aug-2021\0\\#p cam-b3lyp/Def2SVP td=(nstates=5)\\TDDFT excite
 d states in gaussian\\0,1\Mg,0,0.,0.,0.\C,0,-0.217,-2.218,2.801\C,0,-1
 .255,2.442,2.026\C,0,-0.245,1.85,-2.564\C,0,0.146,-2.824,-2.037\N,0,-0
 .617,-0.009,2.126\C,0,-0.594,-0.908,3.105\C,0,-0.936,-0.309,4.502\C,0,
 -1.773,0.964,4.032\C,0,-1.155,1.168,2.66\C,0,-3.263,0.685,3.863\C,0,0.
 345,0.11,5.299\C,0,0.124,0.397,6.787\H,0,1.168,0.033,7.733\N,0,-0.185,
 1.961,-0.152\C,0,-0.703,2.8,0.777\C,0,-0.62,4.156,0.193\C,0,-0.187,4.0
 15,-1.225\C,0,-0.214,2.583,-1.38\C,0,-0.887,5.406,0.974\C,0,0.181,5.01
 3,-2.277\O,0,0.303,4.69,-3.508\C,0,0.31,6.414,-1.837\N,0,-0.265,-0.413
 ,-2.029\C,0,-0.279,0.569,-2.937\C,0,-0.196,0.024,-4.332\C,0,0.124,-1.5
 33,-4.18\C,0,0.086,-1.632,-2.635\C,0,-1.451,0.205,-5.197\C,0,1.373,-2.
 07,-4.923\C,0,2.626,-1.49,-4.306\N,0,0.15,-2.144,0.303\C,0,0.173,-3.13
 6,-0.688\C,0,0.173,-4.438,0.004\C,0,0.133,-4.111,1.358\C,0,0.083,-2.69
 5,1.502\C,0,0.149,-5.715,-0.623\C,0,0.096,-4.629,2.716\O,0,0.208,-5.74
 7,3.221\C,0,-0.255,-3.428,3.701\C,0,0.717,-3.482,4.848\O,0,1.931,-3.25
 5,4.669\O,0,0.038,-3.556,6.003\C,0,0.943,-3.583,7.183\H,0,-1.859,3.22,
 2.497\H,0,-0.218,2.453,-3.474\H,0,0.276,-3.747,-2.605\H,0,-1.554,-0.94
 9,5.132\H,0,-1.585,1.831,4.665\H,0,-3.484,-0.377,3.969\H,0,-3.511,1.02
 7,2.858\H,0,-3.852,1.301,4.543\H,0,0.669,1.096,4.966\H,0,1.13,-0.639,5
 .189\H,0,-0.844,0.026,7.125\H,0,0.062,1.477,6.921\H,0,-1.344,5.186,1.9
 38\H,0,-1.651,5.963,0.432\H,0,0.007,6.02,1.084\H,0,-0.635,6.744,-1.405
 \H,0,0.665,6.97,-2.704\H,0,1.048,6.466,-1.036\H,0,0.608,0.501,-4.891\H
 ,0,-0.692,-2.156,-4.547\H,0,-1.267,0.74,-6.129\H,0,-2.204,0.714,-4.596
 \H,0,-1.967,-0.72,-5.453\H,0,1.356,-1.759,-5.967\H,0,1.452,-3.157,-4.9
 02\H,0,2.714,-0.522,-4.798\H,0,3.487,-2.121,-4.529\H,0,2.495,-1.303,-3
 .24\H,0,0.867,-6.333,-0.084\H,0,0.404,-5.642,-1.68\H,0,-0.891,-5.999,-
 0.463\H,0,-1.283,-3.581,4.028\H,0,0.698,-4.478,7.755\H,0,0.833,-2.619,
 7.68\H,0,2.,-3.754,6.976\Mg,0,8.94129,0.80091,0.6858\C,0,9.11084,-2.68
 587,-0.14645\C,0,7.90702,-0.1448,3.79555\C,0,8.34997,3.85522,1.30947\C
 ,0,8.87157,1.47125,-2.73348\N,0,8.59288,-1.18832,1.58793\C,0,8.74968,-
 2.44354,1.19529\C,0,8.58393,-3.49605,2.32415\C,0,7.66569,-2.63584,3.32
 201\C,0,8.10214,-1.23227,2.90704\C,0,6.17851,-2.77574,3.04262\C,0,9.95
 227,-3.87951,2.98945\C,0,9.90747,-5.12136,3.88251\H,0,11.07342,-6.0001
 ,3.91172\N,0,8.70907,1.73578,2.42092\C,0,8.30375,1.19469,3.58892\C,0,8
 .27618,2.30192,4.55715\C,0,8.53947,3.57109,3.82598\C,0,8.52205,3.09527
 ,2.45726\C,0,8.09699,2.08869,6.03222\C,0,8.75663,4.98204,4.28233\O,0,8
 .73122,5.96652,3.46198\C,0,8.90689,5.18691,5.73041\N,0,8.43945,2.41551
 ,-0.52398\C,0,8.28948,3.64721,-0.00597\C,0,8.20342,4.6901,-1.09472\C,0
 ,8.57094,3.92658,-2.45102\C,0,8.72557,2.49207,-1.89996\C,0,6.84793,5.3
 7921,-1.25017\C,0,9.72702,4.5202,-3.30176\C,0,11.03872,4.37202,-2.5649
 7\N,0,9.16713,-0.34877,-1.12949\C,0,9.07654,0.12565,-2.45645\C,0,9.185
 21,-1.04815,-3.34684\C,0,9.30936,-2.13525,-2.4686\C,0,9.25985,-1.67385
 ,-1.12541\C,0,9.11461,-1.02341,-4.76829\C,0,9.46037,-3.56934,-2.37229\
 O,0,9.64585,-4.47943,-3.17917\C,0,9.21155,-4.00349,-0.86365\C,0,10.319
 27,-4.93778,-0.46045\O,0,11.49291,-4.53282,-0.38856\O,0,9.78441,-6.090
 57,-0.01843\C,0,10.84344,-7.04567,0.40353\H,0,7.36082,-0.32347,4.72216
 \H,0,8.25313,4.93192,1.46699\H,0,8.95706,1.60725,-3.8137\H,0,8.06608,-
 4.40081,2.02918\H,0,7.92613,-2.82479,4.3602\H,0,5.9892,-3.33962,2.1413
 3\H,0,5.80158,-1.76621,2.94351\H,0,5.67027,-3.20324,3.91168\H,0,10.212
 17,-3.11945,3.73745\H,0,10.71761,-3.99582,2.24691\H,0,8.99062,-5.70425
 ,3.73228\H,0,9.85146,-4.79753,4.92463\H,0,7.76117,1.06802,6.25324\H,0,
 7.26215,2.72367,6.348\H,0,8.98459,2.35972,6.60788\H,0,8.02031,4.81871,
 6.24115\H,0,9.1424,6.24589,5.85285\H,0,9.74837,4.58072,6.08406\H,0,8.9
 2464,5.48124,-0.93029\H,0,7.72152,3.90503,-3.1495\H,0,6.90496,6.48028,
 -1.15819\H,0,6.17062,4.97054,-0.51208\H,0,6.32731,5.16908,-2.18291\H,0
 ,9.57488,5.59182,-3.45222\H,0,9.81785,4.0669,-4.28323\H,0,11.04231,5.2
 3438,-1.89161\H,0,11.87501,4.41054,-3.26008\H,0,11.04138,3.46878,-1.94
 385\H,0,9.89696,-1.67716,-5.1303\H,0,9.22955,-0.01278,-5.15454\H,0,8.1
 026,-1.40822,-4.92004\H,0,8.2336,-4.48424,-0.81814\H,0,10.68375,-7.969
 58,-0.16088\H,0,10.76697,-7.10887,1.50531\H,0,11.86686,-6.80913,0.1368
 6\\Version=ES64L-G16RevA.03\State=1-A\HF=-4069.8130515\RMSD=7.087e-09\
 PG=C01 [X(C68H72Mg2N8O8)]\\@


 FOR THE NATURE OF THE CHEMICAL BOND
 IS THE PROBLEM AT THE HEART OF ALL CHEMISTRY.

                     -- BRYCE CRAWFORD, JR., 1953
 Job cpu time:       0 days 14 hours 48 minutes 18.8 seconds.
 Elapsed time:       0 days  0 hours 37 minutes 41.6 seconds.
 File lengths (MBytes):  RWF=  13225 Int=      0 D2E=      0 Chk=    574 Scr=      1
 Normal termination of Gaussian 16 at Thu Aug 19 22:50:44 2021.
