 Entering Gaussian System, Link 0=g16
 Initial command:
 /sw/apps/gaussian-16.0/g16/l1.exe "/tmp/Gau-219739.inp" -scrdir="/tmp/"
 Entering Link 1 = /sw/apps/gaussian-16.0/g16/l1.exe PID=    219741.
  
 Copyright (c) 1988,1990,1992,1993,1995,1998,2003,2009,2016,
            Gaussian, Inc.  All Rights Reserved.
  
 This is part of the Gaussian(R) 16 program.  It is based on
 the Gaussian(R) 09 system (copyright 2009, Gaussian, Inc.),
 the Gaussian(R) 03 system (copyright 2003, Gaussian, Inc.),
 the Gaussian(R) 98 system (copyright 1998, Gaussian, Inc.),
 the Gaussian(R) 94 system (copyright 1995, Gaussian, Inc.),
 the Gaussian 92(TM) system (copyright 1992, Gaussian, Inc.),
 the Gaussian 90(TM) system (copyright 1990, Gaussian, Inc.),
 the Gaussian 88(TM) system (copyright 1988, Gaussian, Inc.),
 the Gaussian 86(TM) system (copyright 1986, Carnegie Mellon
 University), and the Gaussian 82(TM) system (copyright 1983,
 Carnegie Mellon University). Gaussian is a federally registered
 trademark of Gaussian, Inc.
  
 This software contains proprietary and confidential information,
 including trade secrets, belonging to Gaussian, Inc.
  
 This software is provided under written license and may be
 used, copied, transmitted, or stored only in accord with that
 written license.
  
 The following legend is applicable only to US Government
 contracts under FAR:
  
                    RESTRICTED RIGHTS LEGEND
  
 Use, reproduction and disclosure by the US Government is
 subject to restrictions as set forth in subparagraphs (a)
 and (c) of the Commercial Computer Software - Restricted
 Rights clause in FAR 52.227-19.
  
 Gaussian, Inc.
 340 Quinnipiac St., Bldg. 40, Wallingford CT 06492
  
  
 ---------------------------------------------------------------
 Warning -- This program may not be used in any manner that
 competes with the business of Gaussian, Inc. or will provide
 assistance to any competitor of Gaussian, Inc.  The licensee
 of this program is prohibited from giving any competitor of
 Gaussian, Inc. access to this program.  By using this program,
 the user acknowledges that Gaussian, Inc. is engaged in the
 business of creating and licensing software in the field of
 computational chemistry and represents and warrants to the
 licensee that it is not a competitor of Gaussian, Inc. and that
 it will not use this program in any manner prohibited above.
 ---------------------------------------------------------------
  

 Cite this work as:
 Gaussian 16, Revision A.03,
 M. J. Frisch, G. W. Trucks, H. B. Schlegel, G. E. Scuseria, 
 M. A. Robb, J. R. Cheeseman, G. Scalmani, V. Barone, 
 G. A. Petersson, H. Nakatsuji, X. Li, M. Caricato, A. V. Marenich, 
 J. Bloino, B. G. Janesko, R. Gomperts, B. Mennucci, H. P. Hratchian, 
 J. V. Ortiz, A. F. Izmaylov, J. L. Sonnenberg, D. Williams-Young, 
 F. Ding, F. Lipparini, F. Egidi, J. Goings, B. Peng, A. Petrone, 
 T. Henderson, D. Ranasinghe, V. G. Zakrzewski, J. Gao, N. Rega, 
 G. Zheng, W. Liang, M. Hada, M. Ehara, K. Toyota, R. Fukuda, 
 J. Hasegawa, M. Ishida, T. Nakajima, Y. Honda, O. Kitao, H. Nakai, 
 T. Vreven, K. Throssell, J. A. Montgomery, Jr., J. E. Peralta, 
 F. Ogliaro, M. J. Bearpark, J. J. Heyd, E. N. Brothers, K. N. Kudin, 
 V. N. Staroverov, T. A. Keith, R. Kobayashi, J. Normand, 
 K. Raghavachari, A. P. Rendell, J. C. Burant, S. S. Iyengar, 
 J. Tomasi, M. Cossi, J. M. Millam, M. Klene, C. Adamo, R. Cammi, 
 J. W. Ochterski, R. L. Martin, K. Morokuma, O. Farkas, 
 J. B. Foresman, and D. J. Fox, Gaussian, Inc., Wallingford CT, 2016.
 
 ******************************************
 Gaussian 16:  ES64L-G16RevA.03 25-Dec-2016
                19-Aug-2021 
 ******************************************
 %nproc=24
 Will use up to   24 processors via shared memory.
 %mem=175gb
 -----------------------------------
 #p cam-b3lyp/Def2SVP td=(nstates=5)
 -----------------------------------
 1/38=1,172=1/1;
 2/12=2,17=6,18=5,40=1/2;
 3/5=43,7=101,11=9,25=1,30=1,74=-40/1,2,3,8;
 4//1;
 5/5=2,38=5/2;
 8/6=1,10=1,108=5/1;
 9/41=5,42=1,70=2/14;
 6/7=2,8=2,9=2,10=2/1;
 99/5=1,9=1/99;
 Leave Link    1 at Thu Aug 19 19:31:45 2021, MaxMem= 23488102400 cpu:               1.0 elap:               0.0
 (Enter /sw/apps/gaussian-16.0/g16/l101.exe)
 --------------------------------
 TDDFT excited states in gaussian
 --------------------------------
 Symbolic Z-matrix:
 Charge =  0 Multiplicity = 1
 Mg                    0.        0.        0. 
 C                    -0.217    -2.218     2.801 
 C                    -1.255     2.442     2.026 
 C                    -0.245     1.85     -2.564 
 C                     0.146    -2.824    -2.037 
 N                    -0.617    -0.009     2.126 
 C                    -0.594    -0.908     3.105 
 C                    -0.936    -0.309     4.502 
 C                    -1.773     0.964     4.032 
 C                    -1.155     1.168     2.66 
 C                    -3.263     0.685     3.863 
 C                     0.345     0.11      5.299 
 C                     0.124     0.397     6.787 
 H                     1.168     0.033     7.733 
 N                    -0.185     1.961    -0.152 
 C                    -0.703     2.8       0.777 
 C                    -0.62      4.156     0.193 
 C                    -0.187     4.015    -1.225 
 C                    -0.214     2.583    -1.38 
 C                    -0.887     5.406     0.974 
 C                     0.181     5.013    -2.277 
 O                     0.303     4.69     -3.508 
 C                     0.31      6.414    -1.837 
 N                    -0.265    -0.413    -2.029 
 C                    -0.279     0.569    -2.937 
 C                    -0.196     0.024    -4.332 
 C                     0.124    -1.533    -4.18 
 C                     0.086    -1.632    -2.635 
 C                    -1.451     0.205    -5.197 
 C                     1.373    -2.07     -4.923 
 C                     2.626    -1.49     -4.306 
 N                     0.15     -2.144     0.303 
 C                     0.173    -3.136    -0.688 
 C                     0.173    -4.438     0.004 
 C                     0.133    -4.111     1.358 
 C                     0.083    -2.695     1.502 
 C                     0.149    -5.715    -0.623 
 C                     0.096    -4.629     2.716 
 O                     0.208    -5.747     3.221 
 C                    -0.255    -3.428     3.701 
 C                     0.717    -3.482     4.848 
 O                     1.931    -3.255     4.669 
 O                     0.038    -3.556     6.003 
 C                     0.943    -3.583     7.183 
 H                    -1.859     3.22      2.497 
 H                    -0.218     2.453    -3.474 
 H                     0.276    -3.747    -2.605 
 H                    -1.554    -0.949     5.132 
 H                    -1.585     1.831     4.665 
 H                    -3.484    -0.377     3.969 
 H                    -3.511     1.027     2.858 
 H                    -3.852     1.301     4.543 
 H                     0.669     1.096     4.966 
 H                     1.13     -0.639     5.189 
 H                    -0.844     0.026     7.125 
 H                     0.062     1.477     6.921 
 H                    -1.344     5.186     1.938 
 H                    -1.651     5.963     0.432 
 H                     0.007     6.02      1.084 
 H                    -0.635     6.744    -1.405 
 H                     0.665     6.97     -2.704 
 H                     1.048     6.466    -1.036 
 H                     0.608     0.501    -4.891 
 H                    -0.692    -2.156    -4.547 
 H                    -1.267     0.74     -6.129 
 H                    -2.204     0.714    -4.596 
 H                    -1.967    -0.72     -5.453 
 H                     1.356    -1.759    -5.967 
 H                     1.452    -3.157    -4.902 
 H                     2.714    -0.522    -4.798 
 H                     3.487    -2.121    -4.529 
 H                     2.495    -1.303    -3.24 
 H                     0.867    -6.333    -0.084 
 H                     0.404    -5.642    -1.68 
 H                    -0.891    -5.999    -0.463 
 H                    -1.283    -3.581     4.028 
 H                     0.698    -4.478     7.755 
 H                     0.833    -2.619     7.68 
 H                     2.       -3.754     6.976 
 Mg                    8.9417    0.80796   0.67209 
 C                     8.39718   4.34693   0.91345 
 C                     8.28693   1.08563  -2.66389 
 C                     8.97075  -2.36037   0.50383 
 C                     8.42672   0.63426   4.11452 
 N                     8.4225    2.54549  -0.59427 
 C                     8.30447   3.85089  -0.40366 
 C                     8.15408   4.68023  -1.70717 
 C                     7.56505   3.52829  -2.65847 
 C                     8.15293   2.30643  -1.95552 
 C                     6.04975   3.42413  -2.61002 
 C                     9.53056   5.21509  -2.23748 
 C                     9.42823   6.28501  -3.32677 
 H                     10.42263   7.35421  -3.34781 
 N                     9.15251  -0.39308  -0.89368 
 C                     8.8596   -0.11136  -2.18058 
 C                     9.17284  -1.33123  -2.94082 
 C                     9.51861  -2.40976  -1.97546 
 C                     9.20022  -1.75434  -0.7228 
 C                     9.20392  -1.36952  -4.44115 
 C                     10.03644  -3.80515  -2.15133 
 O                     10.03999  -4.64868  -1.18631 
 C                     10.45242  -4.18371  -3.5097 
 N                     8.52196  -0.68164   2.06036 
 C                     8.66321  -1.98089   1.74429 
 C                     8.5736   -2.85408   2.97307 
 C                     8.58436  -1.8484    4.21648 
 C                     8.58857  -0.50465   3.45509 
 C                     7.34303  -3.75664   3.05949 
 C                     9.66797  -2.08524   5.30384 
 C                     11.03974  -1.7999    4.73619 
 N                     8.67626   2.22799   2.27867 
 C                     8.44986   1.94043   3.64254 
 C                     8.21725   3.22909   4.3264 
 C                     8.30232   4.18262   3.30071 
 C                     8.54907   3.53226   2.0615 
 C                     7.9209    3.39575   5.70862 
 C                     8.22894   5.59054   2.98279 
 O                     8.12806   6.62548   3.6404 
 C                     8.1614    5.74895   1.40268 
 C                     9.15098   6.8075    0.99928 
 O                     10.37107   6.62485   1.15626 
 O                     8.51304   7.76328   0.29937 
 C                     9.45489   8.83017  -0.13246 
 H                     7.87725   1.02333  -3.67244 
 H                     9.0794   -3.44729   0.5204 
 H                     8.35615   0.67326   5.20364 
 H                     7.45333   5.50402  -1.64315 
 H                     7.95657   3.61194  -3.66895 
 H                     5.62585   4.06565  -1.85179 
 H                     5.83303   2.38653  -2.39213 
 H                     5.62667   3.619    -3.59964 
 H                     10.03041   4.41827  -2.80314 
 H                     10.13488   5.57884  -1.42933 
 H                     8.4159    6.70014  -3.40299 
 H                     9.59693   5.81028  -4.29641 
 H                     8.74531  -0.47287  -4.876 
 H                     8.54776  -2.18903  -4.75376 
 H                     10.20582  -1.54823  -4.83727 
 H                     9.61263  -4.0663   -4.19045 
 H                     10.87574  -5.18576  -3.4171 
 H                     11.22892  -3.48698  -3.84473 
 H                     9.4322   -3.51043   3.04453 
 H                     7.64063  -1.88725   4.78013 
 H                     7.5947   -4.82885   3.16493 
 H                     6.73723  -3.59313   2.17812 
 H                     6.64992  -3.51672   3.864 
 H                     9.67179  -3.13344   5.61272 
 H                     9.52174  -1.48687   6.19691 
 H                     11.29492  -2.73368   4.22626 
 H                     11.7463  -1.58001   5.53398 
 H                     10.99496  -1.01099   3.97641 
 H                     8.51537   4.23024   6.05608 
 H                     8.13605   2.49095   6.27327 
 H                     6.84836   3.60073   5.6548 
 H                     7.13836   6.02525   1.14457 
 H                     9.05549   9.77872   0.2396 
 H                     9.54973   8.71906  -1.229 
 H                     10.44592   8.83144   0.30607 
 
 ITRead=  0  0  0  0  0  0  0  0  0  0  0  0  0  0  0  0  0  0  0  0
 ITRead=  0  0  0  0  0  0  0  0  0  0  0  0  0  0  0  0  0  0  0  0
 ITRead=  0  0  0  0  0  0  0  0  0  0  0  0  0  0  0  0  0  0  0  0
 ITRead=  0  0  0  0  0  0  0  0  0  0  0  0  0  0  0  0  0  0  0  0
 ITRead=  0  0  0  0  0  0  0  0  0  0  0  0  0  0  0  0  0  0  0  0
 ITRead=  0  0  0  0  0  0  0  0  0  0  0  0  0  0  0  0  0  0  0  0
 ITRead=  0  0  0  0  0  0  0  0  0  0  0  0  0  0  0  0  0  0  0  0
 ITRead=  0  0  0  0  0  0  0  0  0  0  0  0  0  0  0  0  0  0
 MicOpt= -1 -1 -1 -1 -1 -1 -1 -1 -1 -1 -1 -1 -1 -1 -1 -1 -1 -1 -1 -1
 MicOpt= -1 -1 -1 -1 -1 -1 -1 -1 -1 -1 -1 -1 -1 -1 -1 -1 -1 -1 -1 -1
 MicOpt= -1 -1 -1 -1 -1 -1 -1 -1 -1 -1 -1 -1 -1 -1 -1 -1 -1 -1 -1 -1
 MicOpt= -1 -1 -1 -1 -1 -1 -1 -1 -1 -1 -1 -1 -1 -1 -1 -1 -1 -1 -1 -1
 MicOpt= -1 -1 -1 -1 -1 -1 -1 -1 -1 -1 -1 -1 -1 -1 -1 -1 -1 -1 -1 -1
 MicOpt= -1 -1 -1 -1 -1 -1 -1 -1 -1 -1 -1 -1 -1 -1 -1 -1 -1 -1 -1 -1
 MicOpt= -1 -1 -1 -1 -1 -1 -1 -1 -1 -1 -1 -1 -1 -1 -1 -1 -1 -1 -1 -1
 MicOpt= -1 -1 -1 -1 -1 -1 -1 -1 -1 -1 -1 -1 -1 -1 -1 -1 -1 -1
 NAtoms=    158 NQM=      158 NQMF=       0 NMMI=      0 NMMIF=      0
                NMic=       0 NMicF=      0.
                    Isotopes and Nuclear Properties:
 (Nuclear quadrupole moments (NQMom) in fm**2, nuclear magnetic moments (NMagM)
  in nuclear magnetons)

  Atom         1           2           3           4           5           6           7           8           9          10
 IAtWgt=          24          12          12          12          12          14          12          12          12          12
 AtmWgt=  23.9850450  12.0000000  12.0000000  12.0000000  12.0000000  14.0030740  12.0000000  12.0000000  12.0000000  12.0000000
 NucSpn=           0           0           0           0           0           2           0           0           0           0
 AtZEff=  -0.0000000  -0.0000000  -0.0000000  -0.0000000  -0.0000000  -0.0000000  -0.0000000  -0.0000000  -0.0000000  -0.0000000
 NQMom=    0.0000000   0.0000000   0.0000000   0.0000000   0.0000000   2.0440000   0.0000000   0.0000000   0.0000000   0.0000000
 NMagM=    0.0000000   0.0000000   0.0000000   0.0000000   0.0000000   0.4037610   0.0000000   0.0000000   0.0000000   0.0000000
 AtZNuc=  12.0000000   6.0000000   6.0000000   6.0000000   6.0000000   7.0000000   6.0000000   6.0000000   6.0000000   6.0000000

  Atom        11          12          13          14          15          16          17          18          19          20
 IAtWgt=          12          12          12           1          14          12          12          12          12          12
 AtmWgt=  12.0000000  12.0000000  12.0000000   1.0078250  14.0030740  12.0000000  12.0000000  12.0000000  12.0000000  12.0000000
 NucSpn=           0           0           0           1           2           0           0           0           0           0
 AtZEff=  -0.0000000  -0.0000000  -0.0000000  -0.0000000  -0.0000000  -0.0000000  -0.0000000  -0.0000000  -0.0000000  -0.0000000
 NQMom=    0.0000000   0.0000000   0.0000000   0.0000000   2.0440000   0.0000000   0.0000000   0.0000000   0.0000000   0.0000000
 NMagM=    0.0000000   0.0000000   0.0000000   2.7928460   0.4037610   0.0000000   0.0000000   0.0000000   0.0000000   0.0000000
 AtZNuc=   6.0000000   6.0000000   6.0000000   1.0000000   7.0000000   6.0000000   6.0000000   6.0000000   6.0000000   6.0000000

  Atom        21          22          23          24          25          26          27          28          29          30
 IAtWgt=          12          16          12          14          12          12          12          12          12          12
 AtmWgt=  12.0000000  15.9949146  12.0000000  14.0030740  12.0000000  12.0000000  12.0000000  12.0000000  12.0000000  12.0000000
 NucSpn=           0           0           0           2           0           0           0           0           0           0
 AtZEff=  -0.0000000  -0.0000000  -0.0000000  -0.0000000  -0.0000000  -0.0000000  -0.0000000  -0.0000000  -0.0000000  -0.0000000
 NQMom=    0.0000000   0.0000000   0.0000000   2.0440000   0.0000000   0.0000000   0.0000000   0.0000000   0.0000000   0.0000000
 NMagM=    0.0000000   0.0000000   0.0000000   0.4037610   0.0000000   0.0000000   0.0000000   0.0000000   0.0000000   0.0000000
 AtZNuc=   6.0000000   8.0000000   6.0000000   7.0000000   6.0000000   6.0000000   6.0000000   6.0000000   6.0000000   6.0000000

  Atom        31          32          33          34          35          36          37          38          39          40
 IAtWgt=          12          14          12          12          12          12          12          12          16          12
 AtmWgt=  12.0000000  14.0030740  12.0000000  12.0000000  12.0000000  12.0000000  12.0000000  12.0000000  15.9949146  12.0000000
 NucSpn=           0           2           0           0           0           0           0           0           0           0
 AtZEff=  -0.0000000  -0.0000000  -0.0000000  -0.0000000  -0.0000000  -0.0000000  -0.0000000  -0.0000000  -0.0000000  -0.0000000
 NQMom=    0.0000000   2.0440000   0.0000000   0.0000000   0.0000000   0.0000000   0.0000000   0.0000000   0.0000000   0.0000000
 NMagM=    0.0000000   0.4037610   0.0000000   0.0000000   0.0000000   0.0000000   0.0000000   0.0000000   0.0000000   0.0000000
 AtZNuc=   6.0000000   7.0000000   6.0000000   6.0000000   6.0000000   6.0000000   6.0000000   6.0000000   8.0000000   6.0000000

  Atom        41          42          43          44          45          46          47          48          49          50
 IAtWgt=          12          16          16          12           1           1           1           1           1           1
 AtmWgt=  12.0000000  15.9949146  15.9949146  12.0000000   1.0078250   1.0078250   1.0078250   1.0078250   1.0078250   1.0078250
 NucSpn=           0           0           0           0           1           1           1           1           1           1
 AtZEff=  -0.0000000  -0.0000000  -0.0000000  -0.0000000  -0.0000000  -0.0000000  -0.0000000  -0.0000000  -0.0000000  -0.0000000
 NQMom=    0.0000000   0.0000000   0.0000000   0.0000000   0.0000000   0.0000000   0.0000000   0.0000000   0.0000000   0.0000000
 NMagM=    0.0000000   0.0000000   0.0000000   0.0000000   2.7928460   2.7928460   2.7928460   2.7928460   2.7928460   2.7928460
 AtZNuc=   6.0000000   8.0000000   8.0000000   6.0000000   1.0000000   1.0000000   1.0000000   1.0000000   1.0000000   1.0000000

  Atom        51          52          53          54          55          56          57          58          59          60
 IAtWgt=           1           1           1           1           1           1           1           1           1           1
 AtmWgt=   1.0078250   1.0078250   1.0078250   1.0078250   1.0078250   1.0078250   1.0078250   1.0078250   1.0078250   1.0078250
 NucSpn=           1           1           1           1           1           1           1           1           1           1
 AtZEff=  -0.0000000  -0.0000000  -0.0000000  -0.0000000  -0.0000000  -0.0000000  -0.0000000  -0.0000000  -0.0000000  -0.0000000
 NQMom=    0.0000000   0.0000000   0.0000000   0.0000000   0.0000000   0.0000000   0.0000000   0.0000000   0.0000000   0.0000000
 NMagM=    2.7928460   2.7928460   2.7928460   2.7928460   2.7928460   2.7928460   2.7928460   2.7928460   2.7928460   2.7928460
 AtZNuc=   1.0000000   1.0000000   1.0000000   1.0000000   1.0000000   1.0000000   1.0000000   1.0000000   1.0000000   1.0000000

  Atom        61          62          63          64          65          66          67          68          69          70
 IAtWgt=           1           1           1           1           1           1           1           1           1           1
 AtmWgt=   1.0078250   1.0078250   1.0078250   1.0078250   1.0078250   1.0078250   1.0078250   1.0078250   1.0078250   1.0078250
 NucSpn=           1           1           1           1           1           1           1           1           1           1
 AtZEff=  -0.0000000  -0.0000000  -0.0000000  -0.0000000  -0.0000000  -0.0000000  -0.0000000  -0.0000000  -0.0000000  -0.0000000
 NQMom=    0.0000000   0.0000000   0.0000000   0.0000000   0.0000000   0.0000000   0.0000000   0.0000000   0.0000000   0.0000000
 NMagM=    2.7928460   2.7928460   2.7928460   2.7928460   2.7928460   2.7928460   2.7928460   2.7928460   2.7928460   2.7928460
 AtZNuc=   1.0000000   1.0000000   1.0000000   1.0000000   1.0000000   1.0000000   1.0000000   1.0000000   1.0000000   1.0000000

  Atom        71          72          73          74          75          76          77          78          79          80
 IAtWgt=           1           1           1           1           1           1           1           1           1          24
 AtmWgt=   1.0078250   1.0078250   1.0078250   1.0078250   1.0078250   1.0078250   1.0078250   1.0078250   1.0078250  23.9850450
 NucSpn=           1           1           1           1           1           1           1           1           1           0
 AtZEff=  -0.0000000  -0.0000000  -0.0000000  -0.0000000  -0.0000000  -0.0000000  -0.0000000  -0.0000000  -0.0000000  -0.0000000
 NQMom=    0.0000000   0.0000000   0.0000000   0.0000000   0.0000000   0.0000000   0.0000000   0.0000000   0.0000000   0.0000000
 NMagM=    2.7928460   2.7928460   2.7928460   2.7928460   2.7928460   2.7928460   2.7928460   2.7928460   2.7928460   0.0000000
 AtZNuc=   1.0000000   1.0000000   1.0000000   1.0000000   1.0000000   1.0000000   1.0000000   1.0000000   1.0000000  12.0000000

  Atom        81          82          83          84          85          86          87          88          89          90
 IAtWgt=          12          12          12          12          14          12          12          12          12          12
 AtmWgt=  12.0000000  12.0000000  12.0000000  12.0000000  14.0030740  12.0000000  12.0000000  12.0000000  12.0000000  12.0000000
 NucSpn=           0           0           0           0           2           0           0           0           0           0
 AtZEff=  -0.0000000  -0.0000000  -0.0000000  -0.0000000  -0.0000000  -0.0000000  -0.0000000  -0.0000000  -0.0000000  -0.0000000
 NQMom=    0.0000000   0.0000000   0.0000000   0.0000000   2.0440000   0.0000000   0.0000000   0.0000000   0.0000000   0.0000000
 NMagM=    0.0000000   0.0000000   0.0000000   0.0000000   0.4037610   0.0000000   0.0000000   0.0000000   0.0000000   0.0000000
 AtZNuc=   6.0000000   6.0000000   6.0000000   6.0000000   7.0000000   6.0000000   6.0000000   6.0000000   6.0000000   6.0000000

  Atom        91          92          93          94          95          96          97          98          99         100
 IAtWgt=          12          12           1          14          12          12          12          12          12          12
 AtmWgt=  12.0000000  12.0000000   1.0078250  14.0030740  12.0000000  12.0000000  12.0000000  12.0000000  12.0000000  12.0000000
 NucSpn=           0           0           1           2           0           0           0           0           0           0
 AtZEff=  -0.0000000  -0.0000000  -0.0000000  -0.0000000  -0.0000000  -0.0000000  -0.0000000  -0.0000000  -0.0000000  -0.0000000
 NQMom=    0.0000000   0.0000000   0.0000000   2.0440000   0.0000000   0.0000000   0.0000000   0.0000000   0.0000000   0.0000000
 NMagM=    0.0000000   0.0000000   2.7928460   0.4037610   0.0000000   0.0000000   0.0000000   0.0000000   0.0000000   0.0000000
 AtZNuc=   6.0000000   6.0000000   1.0000000   7.0000000   6.0000000   6.0000000   6.0000000   6.0000000   6.0000000   6.0000000

  Atom       101         102         103         104         105         106         107         108         109         110
 IAtWgt=          16          12          14          12          12          12          12          12          12          12
 AtmWgt=  15.9949146  12.0000000  14.0030740  12.0000000  12.0000000  12.0000000  12.0000000  12.0000000  12.0000000  12.0000000
 NucSpn=           0           0           2           0           0           0           0           0           0           0
 AtZEff=  -0.0000000  -0.0000000  -0.0000000  -0.0000000  -0.0000000  -0.0000000  -0.0000000  -0.0000000  -0.0000000  -0.0000000
 NQMom=    0.0000000   0.0000000   2.0440000   0.0000000   0.0000000   0.0000000   0.0000000   0.0000000   0.0000000   0.0000000
 NMagM=    0.0000000   0.0000000   0.4037610   0.0000000   0.0000000   0.0000000   0.0000000   0.0000000   0.0000000   0.0000000
 AtZNuc=   8.0000000   6.0000000   7.0000000   6.0000000   6.0000000   6.0000000   6.0000000   6.0000000   6.0000000   6.0000000

  Atom       111         112         113         114         115         116         117         118         119         120
 IAtWgt=          14          12          12          12          12          12          12          16          12          12
 AtmWgt=  14.0030740  12.0000000  12.0000000  12.0000000  12.0000000  12.0000000  12.0000000  15.9949146  12.0000000  12.0000000
 NucSpn=           2           0           0           0           0           0           0           0           0           0
 AtZEff=  -0.0000000  -0.0000000  -0.0000000  -0.0000000  -0.0000000  -0.0000000  -0.0000000  -0.0000000  -0.0000000  -0.0000000
 NQMom=    2.0440000   0.0000000   0.0000000   0.0000000   0.0000000   0.0000000   0.0000000   0.0000000   0.0000000   0.0000000
 NMagM=    0.4037610   0.0000000   0.0000000   0.0000000   0.0000000   0.0000000   0.0000000   0.0000000   0.0000000   0.0000000
 AtZNuc=   7.0000000   6.0000000   6.0000000   6.0000000   6.0000000   6.0000000   6.0000000   8.0000000   6.0000000   6.0000000

  Atom       121         122         123         124         125         126         127         128         129         130
 IAtWgt=          16          16          12           1           1           1           1           1           1           1
 AtmWgt=  15.9949146  15.9949146  12.0000000   1.0078250   1.0078250   1.0078250   1.0078250   1.0078250   1.0078250   1.0078250
 NucSpn=           0           0           0           1           1           1           1           1           1           1
 AtZEff=  -0.0000000  -0.0000000  -0.0000000  -0.0000000  -0.0000000  -0.0000000  -0.0000000  -0.0000000  -0.0000000  -0.0000000
 NQMom=    0.0000000   0.0000000   0.0000000   0.0000000   0.0000000   0.0000000   0.0000000   0.0000000   0.0000000   0.0000000
 NMagM=    0.0000000   0.0000000   0.0000000   2.7928460   2.7928460   2.7928460   2.7928460   2.7928460   2.7928460   2.7928460
 AtZNuc=   8.0000000   8.0000000   6.0000000   1.0000000   1.0000000   1.0000000   1.0000000   1.0000000   1.0000000   1.0000000

  Atom       131         132         133         134         135         136         137         138         139         140
 IAtWgt=           1           1           1           1           1           1           1           1           1           1
 AtmWgt=   1.0078250   1.0078250   1.0078250   1.0078250   1.0078250   1.0078250   1.0078250   1.0078250   1.0078250   1.0078250
 NucSpn=           1           1           1           1           1           1           1           1           1           1
 AtZEff=  -0.0000000  -0.0000000  -0.0000000  -0.0000000  -0.0000000  -0.0000000  -0.0000000  -0.0000000  -0.0000000  -0.0000000
 NQMom=    0.0000000   0.0000000   0.0000000   0.0000000   0.0000000   0.0000000   0.0000000   0.0000000   0.0000000   0.0000000
 NMagM=    2.7928460   2.7928460   2.7928460   2.7928460   2.7928460   2.7928460   2.7928460   2.7928460   2.7928460   2.7928460
 AtZNuc=   1.0000000   1.0000000   1.0000000   1.0000000   1.0000000   1.0000000   1.0000000   1.0000000   1.0000000   1.0000000

  Atom       141         142         143         144         145         146         147         148         149         150
 IAtWgt=           1           1           1           1           1           1           1           1           1           1
 AtmWgt=   1.0078250   1.0078250   1.0078250   1.0078250   1.0078250   1.0078250   1.0078250   1.0078250   1.0078250   1.0078250
 NucSpn=           1           1           1           1           1           1           1           1           1           1
 AtZEff=  -0.0000000  -0.0000000  -0.0000000  -0.0000000  -0.0000000  -0.0000000  -0.0000000  -0.0000000  -0.0000000  -0.0000000
 NQMom=    0.0000000   0.0000000   0.0000000   0.0000000   0.0000000   0.0000000   0.0000000   0.0000000   0.0000000   0.0000000
 NMagM=    2.7928460   2.7928460   2.7928460   2.7928460   2.7928460   2.7928460   2.7928460   2.7928460   2.7928460   2.7928460
 AtZNuc=   1.0000000   1.0000000   1.0000000   1.0000000   1.0000000   1.0000000   1.0000000   1.0000000   1.0000000   1.0000000

  Atom       151         152         153         154         155         156         157         158
 IAtWgt=           1           1           1           1           1           1           1           1
 AtmWgt=   1.0078250   1.0078250   1.0078250   1.0078250   1.0078250   1.0078250   1.0078250   1.0078250
 NucSpn=           1           1           1           1           1           1           1           1
 AtZEff=  -0.0000000  -0.0000000  -0.0000000  -0.0000000  -0.0000000  -0.0000000  -0.0000000  -0.0000000
 NQMom=    0.0000000   0.0000000   0.0000000   0.0000000   0.0000000   0.0000000   0.0000000   0.0000000
 NMagM=    2.7928460   2.7928460   2.7928460   2.7928460   2.7928460   2.7928460   2.7928460   2.7928460
 AtZNuc=   1.0000000   1.0000000   1.0000000   1.0000000   1.0000000   1.0000000   1.0000000   1.0000000
 Leave Link  101 at Thu Aug 19 19:31:45 2021, MaxMem= 23488102400 cpu:               4.0 elap:               0.2
 (Enter /sw/apps/gaussian-16.0/g16/l202.exe)
 Stoichiometry    C68H72Mg2N8O8
 Framework group  C1[X(C68H72Mg2N8O8)]
 Deg. of freedom   468
 Full point group                 C1      NOp   1
 Largest Abelian subgroup         C1      NOp   1
 Largest concise Abelian subgroup C1      NOp   1
                         Standard orientation:                         
 ---------------------------------------------------------------------
 Center     Atomic      Atomic             Coordinates (Angstroms)
 Number     Number       Type             X           Y           Z
 ---------------------------------------------------------------------
      1         12           0        4.203059    1.338431    0.423930
      2          6           0        5.426403   -1.678709   -1.063522
      3          6           0        4.673642    2.844786   -2.601382
      4          6           0        3.560331    4.109402    1.825801
      5          6           0        4.899793   -0.083958    3.528286
      6          7           0        4.958187    0.574135   -1.511601
      7          6           0        5.337677   -0.616227   -1.965689
      8          6           0        5.560031   -0.647165   -3.507434
      9          6           0        5.848156    0.901864   -3.751345
     10          6           0        5.085789    1.479394   -2.571862
     11          6           0        7.320468    1.276496   -3.615513
     12          6           0        4.285027   -1.121728   -4.282600
     13          6           0        4.513089   -1.491592   -5.751117
     14          1           0        3.749204   -2.589905   -6.323425
     15          7           0        3.666359    3.073488   -0.353489
     16          6           0        3.928316    3.514866   -1.607224
     17          6           0        3.320833    4.859797   -1.701076
     18          6           0        2.849379    5.242045   -0.341035
     19          6           0        3.370026    4.154034    0.446708
     20          6           0        3.190799    5.615972   -2.987559
     21          6           0        2.064581    6.408917    0.169487
     22          8           0        1.962929    6.666501    1.417643
     23          6           0        1.483753    7.305093   -0.846658
     24          7           0        4.427102    2.024597    2.382658
     25          6           0        4.015688    3.246982    2.736914
     26          6           0        4.015485    3.412302    4.227756
     27          6           0        4.283042    1.959366    4.833681
     28          6           0        4.482521    1.183931    3.508095
     29          6           0        5.047571    4.398486    4.791892
     30          6           0        3.248739    1.421694    5.854242
     31          6           0        1.927618    1.170864    5.162273
     32          7           0        4.849927   -0.602830    1.147887
     33          6           0        5.098020   -0.966282    2.479437
     34          6           0        5.618061   -2.345878    2.460944
     35          6           0        5.652206   -2.685450    1.109882
     36          6           0        5.208017   -1.578332    0.331885
     37          6           0        6.041487   -3.092155    3.595940
     38          6           0        5.983917   -3.717456    0.140971
     39          8           0        6.318735   -4.900657    0.214624
     40          6           0        5.966520   -3.065165   -1.311627
     41          6           0        5.176383   -3.977260   -2.210000
     42          8           0        3.950476   -4.137624   -2.040287
     43          8           0        5.931278   -4.327774   -3.262528
     44          6           0        5.196692   -5.209358   -4.208756
     45          1           0        4.999107    3.476570   -3.430154
     46          1           0        3.245142    5.008986    2.358569
     47          1           0        5.059062   -0.622646    4.464183
     48          1           0        6.415276   -1.240444   -3.831472
     49          1           0        5.418101    1.253050   -4.689132
     50          1           0        7.912162    0.439144   -3.245837
     51          1           0        7.346075    2.103502   -2.905655
     52          1           0        7.706929    1.675019   -4.553917
     53          1           0        3.605467   -0.278648   -4.406999
     54          1           0        3.810862   -1.959041   -3.769374
     55          1           0        5.574341   -1.608256   -5.972574
     56          1           0        4.198539   -0.649850   -6.368149
     57          1           0        3.774886    5.155648   -3.783480
     58          1           0        3.659165    6.588005   -2.834283
     59          1           0        2.149561    5.751690   -3.280364
     60          1           0        2.282539    7.709286   -1.468846
     61          1           0        0.883436    8.031079   -0.299471
     62          1           0        0.844982    6.720486   -1.509346
     63          1           0        3.050855    3.774512    4.580909
     64          1           0        5.233400    1.906605    5.365385
     65          1           0        4.608505    5.197359    5.389996
     66          1           0        5.618132    4.803668    3.956681
     67          1           0        5.835087    3.942740    5.391500
     68          1           0        3.067012    2.159906    6.634604
     69          1           0        3.562883    0.497219    6.338918
     70          1           0        1.460921    2.155252    5.164453
     71          1           0        1.331362    0.454856    5.728861
     72          1           0        2.072167    0.881086    4.121302
     73          1           0        5.637361   -4.096387    3.468788
     74          1           0        5.689917   -2.638013    4.522091
     75          1           0        7.124033   -3.030889    3.485499
     76          1           0        7.005318   -2.977758   -1.628458
     77          1           0        5.790331   -6.115535   -4.329875
     78          1           0        4.998318   -4.611721   -5.098633
     79          1           0        4.255947   -5.626367   -3.847590
     80         12           0       -4.353437   -1.459983    0.306652
     81          6           0       -5.082825    1.509118   -1.572576
     82          6           0       -4.120784    0.526041    3.070013
     83          6           0       -3.269586   -3.978556    1.903376
     84          6           0       -3.524953   -2.997902   -2.708994
     85          7           0       -4.592619    0.721121    0.585619
     86          6           0       -4.930305    1.740590   -0.189613
     87          6           0       -5.193531    3.067695    0.571349
     88          6           0       -4.315469    2.771122    1.882816
     89          6           0       -4.370350    1.244824    1.873699
     90          6           0       -2.863530    3.197689    1.744091
     91          6           0       -6.709353    3.262316    0.926886
     92          6           0       -7.084870    4.670642    1.393106
     93          1           0       -8.392151    5.202502    1.018136
     94          7           0       -4.253965   -1.796773    2.259919
     95          6           0       -4.188665   -0.873950    3.242470
     96          6           0       -4.110651   -1.631340    4.501216
     97          6           0       -3.969091   -3.075649    4.171618
     98          6           0       -3.800799   -3.002716    2.734099
     99          6           0       -4.251213   -0.985971    5.849238
    100          6           0       -3.970481   -4.316138    5.012676
    101          8           0       -3.593743   -5.447977    4.543818
    102          6           0       -4.336764   -4.149078    6.426693
    103          7           0       -3.317851   -3.163894   -0.282105
    104          6           0       -3.014440   -4.129029    0.603536
    105          6           0       -2.518416   -5.373130   -0.094004
    106          6           0       -2.781734   -5.126079   -1.651954
    107          6           0       -3.326310   -3.682098   -1.590703
    108          6           0       -1.044944   -5.715778    0.124763
    109          6           0       -3.615852   -6.199360   -2.403599
    110          6           0       -5.041811   -6.189584   -1.901659
    111          7           0       -4.476390   -0.943950   -1.787778
    112          6           0       -4.049657   -1.723884   -2.884906
    113          6           0       -4.233546   -0.903759   -4.099812
    114          6           0       -4.736919    0.314431   -3.619056
    115          6           0       -4.839179    0.264698   -2.202523
    116          6           0       -3.901424   -1.296805   -5.426967
    117          6           0       -5.195021    1.634877   -3.986833
    118          8           0       -5.413671    2.213587   -5.050325
    119          6           0       -5.320256    2.512059   -2.667261
    120          6           0       -6.651180    3.212153   -2.699485
    121          8           0       -7.709266    2.561386   -2.639656
    122          8           0       -6.454959    4.537563   -2.576434
    123          6           0       -7.746775    5.274304   -2.591821
    124          1           0       -3.801381    1.081706    3.952118
    125          1           0       -2.983448   -4.911380    2.394741
    126          1           0       -3.382193   -3.440334   -3.697203
    127          1           0       -4.828206    3.957434    0.072669
    128          1           0       -4.794053    3.164547    2.775861
    129          1           0       -2.633326    3.523030    0.740442
    130          1           0       -2.275145    2.327464    2.004033
    131          1           0       -2.621379    3.959257    2.490882
    132          1           0       -6.939062    2.695242    1.838152
    133          1           0       -7.333746    2.975920    0.103034
    134          1           0       -6.296035    5.400925    1.175435
    135          1           0       -7.154318    4.668184    2.483611
    136          1           0       -4.178852    0.106548    5.781676
    137          1           0       -3.375372   -1.280320    6.437565
    138          1           0       -5.153701   -1.303193    6.376056
    139          1           0       -3.653329   -3.445480    6.896075
    140          1           0       -4.367407   -5.158331    6.841841
    141          1           0       -5.335113   -3.700514    6.478838
    142          1           0       -3.078861   -6.243922    0.223356
    143          1           0       -1.842180   -5.083657   -2.222283
    144          1           0       -0.889779   -6.727704    0.544309
    145          1           0       -0.612492   -4.965046    0.772782
    146          1           0       -0.417622   -5.644533   -0.762137
    147          1           0       -3.221457   -7.197619   -2.198473
    148          1           0       -3.617616   -6.068834   -3.480615
    149          1           0       -4.990424   -6.807775   -1.000388
    150          1           0       -5.711186   -6.624641   -2.641056
    151          1           0       -5.343636   -5.181849   -1.593403
    152          1           0       -4.722235   -0.984473   -6.058801
    153          1           0       -3.733370   -2.369700   -5.493579
    154          1           0       -2.980042   -0.727067   -5.574306
    155          1           0       -4.487336    3.216181   -2.661672
    156          1           0       -7.680628    6.018533   -3.391474
    157          1           0       -7.887149    5.652744   -1.561860
    158          1           0       -8.633385    4.725281   -2.886689
 ---------------------------------------------------------------------
 Rotational constants (GHZ):           0.0207468           0.0138542           0.0126853
 Leave Link  202 at Thu Aug 19 19:31:45 2021, MaxMem= 23488102400 cpu:               0.2 elap:               0.0
 (Enter /sw/apps/gaussian-16.0/g16/l301.exe)
 Standard basis: def2SVP (5D, 7F)
 Ernie: Thresh=  0.10000D-02 Tol=  0.10000D-05 Strict=F.
 There are  1658 symmetry adapted cartesian basis functions of A   symmetry.
 There are  1572 symmetry adapted basis functions of A   symmetry.
  1572 basis functions,  2678 primitive gaussians,  1658 cartesian basis functions
   312 alpha electrons      312 beta electrons
       nuclear repulsion energy     15473.5474538196 Hartrees.
 IExCor=20419 DFT=T Ex+Corr=CAM-B3LYP ExCW=0 ScaHFX=  1.000000
 ScaDFX=  1.000000  1.000000  1.000000  0.810000 ScalE2=  1.000000  1.000000
 IRadAn=      5 IRanWt=     -1 IRanGd=            0 ICorTp=0 IEmpDi=  4
 HFx  wShort=  0.000000 wLong=  0.330000 cFull=  0.190000 cShort=  0.000000 cLong=  0.460000
 DFx  wShort=  0.000000 wLong=  0.330000 cFull=  0.190000 cShort=  0.000000 cLong=  0.460000
 NAtoms=  158 NActive=  158 NUniq=  158 SFac= 1.00D+00 NAtFMM=   60 NAOKFM=T Big=T
 Integral buffers will be    131072 words long.
 Raffenetti 1 integral format.
 Two-electron integral symmetry is turned on.
 Leave Link  301 at Thu Aug 19 19:31:45 2021, MaxMem= 23488102400 cpu:               1.6 elap:               0.1
 (Enter /sw/apps/gaussian-16.0/g16/l302.exe)
 NPDir=0 NMtPBC=     1 NCelOv=     1 NCel=       1 NClECP=     1 NCelD=      1
         NCelK=      1 NCelE2=     1 NClLst=     1 CellRange=     0.0.
 One-electron integrals computed using PRISM.
 One-electron integral symmetry used in STVInt
   1 Symmetry operations used in ECPInt.
 ECPInt:  NShTT=  271216 NPrTT=  987664 LenC2=  153642 LenP2D=  320034.
 LDataN:  DoStor=T MaxTD1= 4 Len=   56
 NBasis=  1572 RedAO= T EigKep=  3.36D-04  NBF=  1572
 NBsUse=  1572 1.00D-06 EigRej= -1.00D+00 NBFU=  1572
 Precomputing XC quadrature grid using
 IXCGrd= 4 IRadAn=           5 IRanWt=          -1 IRanGd=           0 AccXCQ= 0.00D+00.
 Generated NRdTot=       0 NPtTot=           0 NUsed=           0 NTot=          32
 NSgBfM=  1188  1173  1177  1187  1188 MxSgAt=   158 MxSgA2=   157.
 Leave Link  302 at Thu Aug 19 19:31:50 2021, MaxMem= 23488102400 cpu:             126.6 elap:               5.3
 (Enter /sw/apps/gaussian-16.0/g16/l303.exe)
 DipDrv:  MaxL=1.
 Leave Link  303 at Thu Aug 19 19:31:51 2021, MaxMem= 23488102400 cpu:               9.8 elap:               0.5
 (Enter /sw/apps/gaussian-16.0/g16/l308.exe)
 Leave Link  308 at Thu Aug 19 19:31:52 2021, MaxMem= 23488102400 cpu:              15.1 elap:               0.7
 (Enter /sw/apps/gaussian-16.0/g16/l401.exe)
 ExpMin= 3.36D-02 ExpMax= 4.95D+03 ExpMxC= 7.45D+02 IAcc=3 IRadAn=         5 AccDes= 0.00D+00
 Harris functional with IExCor=20419 and IRadAn=       5 diagonalized for initial guess.
 HarFok:  IExCor=20419 AccDes= 0.00D+00 IRadAn=         5 IDoV= 1 UseB2=F ITyADJ=14
 ICtDFT=  3500011 ScaDFX=  1.000000  1.000000  1.000000  1.000000
 FoFCou: FMM=F IPFlag=           0 FMFlag=      100000 FMFlg1=        2001
         NFxFlg=           0 DoJE=T BraDBF=F KetDBF=T FulRan=T
         wScrn=  0.000000 ICntrl=       500 IOpCl=  0 I1Cent=   200000004 NGrid=           0
         NMat0=    1 NMatS0=      1 NMatT0=    0 NMatD0=    1 NMtDS0=    0 NMtDT0=    0
 Petite list used in FoFCou.
 Harris En= -3918.65799971766    
 JPrj=0 DoOrth=F DoCkMO=F.
 Leave Link  401 at Thu Aug 19 19:32:00 2021, MaxMem= 23488102400 cpu:             189.3 elap:               7.9
 (Enter /sw/apps/gaussian-16.0/g16/l502.exe)
 Integral symmetry usage will be decided dynamically.
 Closed shell SCF:
 Using DIIS extrapolation, IDIIS=  1040.
 NGot= 23488102400 LenX= 23482547354 LenY= 23479796732
 Requested convergence on RMS density matrix=1.00D-08 within 128 cycles.
 Requested convergence on MAX density matrix=1.00D-06.
 Requested convergence on             energy=1.00D-06.
 No special actions if energy rises.
 Fock matrices will be formed incrementally for  20 cycles.

 Cycle   1  Pass 1  IDiag  1:
 FoFJK:  IHMeth= 1 ICntrl=       0 DoSepK=T KAlg= 0 I1Cent=           0 FoldK=F
 IRaf=         1 NMat=       1 IRICut=       1 DoRegI=T DoRafI=F ISym2E= 0 IDoP0=0 IntGTp=1.
 FoFCou: FMM=T IPFlag=           0 FMFlag=      100000 FMFlg1=        2001
         NFxFlg=           0 DoJE=T BraDBF=F KetDBF=F FulRan=T
         wScrn=  0.000000 ICntrl=       500 IOpCl=  0 I1Cent=           0 NGrid=           0
         NMat0=    1 NMatS0=      1 NMatT0=    0 NMatD0=    1 NMtDS0=    0 NMtDT0=    0
 Symmetry not used in FoFCou.
 FMM levels:  10  Number of levels for PrismC:   9
 E= -4068.94998374081    
 DIIS: error= 2.04D-02 at cycle   1 NSaved=   1.
 NSaved= 1 IEnMin= 1 EnMin= -4068.94998374081     IErMin= 1 ErrMin= 2.04D-02
 ErrMax= 2.04D-02  0.00D+00 EMaxC= 1.00D-01 BMatC= 1.69D+00 BMatP= 1.69D+00
 IDIUse=3 WtCom= 7.96D-01 WtEn= 2.04D-01
 Coeff-Com:  0.100D+01
 Coeff-En:   0.100D+01
 Coeff:      0.100D+01
 Gap=     0.120 Goal=   None    Shift=    0.000
 GapD=    0.120 DampG=1.000 DampE=0.500 DampFc=0.5000 IDamp=-1.
 Damping current iteration by 5.00D-01
 RMSDP=1.57D-03 MaxDP=1.35D-01              OVMax= 2.05D-01

 Cycle   2  Pass 1  IDiag  1:
 RMSU=  7.70D-04    CP:  9.82D-01
 E= -4069.33865977212     Delta-E=       -0.388676031303 Rises=F Damp=T
 DIIS: error= 1.27D-02 at cycle   2 NSaved=   2.
 NSaved= 2 IEnMin= 2 EnMin= -4069.33865977212     IErMin= 2 ErrMin= 1.27D-02
 ErrMax= 1.27D-02  0.00D+00 EMaxC= 1.00D-01 BMatC= 3.07D-01 BMatP= 1.69D+00
 IDIUse=3 WtCom= 8.73D-01 WtEn= 1.27D-01
 Coeff-Com: -0.213D+00 0.121D+01
 Coeff-En:   0.000D+00 0.100D+01
 Coeff:     -0.186D+00 0.119D+01
 Gap=     0.134 Goal=   None    Shift=    0.000
 RMSDP=7.65D-04 MaxDP=9.42D-02 DE=-3.89D-01 OVMax= 1.94D-01

 Cycle   3  Pass 1  IDiag  1:
 RMSU=  7.33D-04    CP:  9.68D-01  1.24D+00
 E= -4069.62809585517     Delta-E=       -0.289436083054 Rises=F Damp=F
 DIIS: error= 1.57D-02 at cycle   3 NSaved=   3.
 NSaved= 3 IEnMin= 3 EnMin= -4069.62809585517     IErMin= 2 ErrMin= 1.27D-02
 ErrMax= 1.57D-02  0.00D+00 EMaxC= 1.00D-01 BMatC= 2.02D-01 BMatP= 3.07D-01
 IDIUse=3 WtCom= 8.43D-01 WtEn= 1.57D-01
 Coeff-Com: -0.267D+00 0.652D+00 0.615D+00
 Coeff-En:   0.000D+00 0.000D+00 0.100D+01
 Coeff:     -0.225D+00 0.549D+00 0.676D+00
 Gap=     0.121 Goal=   None    Shift=    0.000
 RMSDP=5.08D-04 MaxDP=4.97D-02 DE=-2.89D-01 OVMax= 1.48D-01

 Cycle   4  Pass 1  IDiag  1:
 RMSU=  2.65D-04    CP:  9.65D-01  1.55D+00  5.06D-01
 E= -4069.76571573760     Delta-E=       -0.137619882429 Rises=F Damp=F
 DIIS: error= 7.27D-03 at cycle   4 NSaved=   4.
 NSaved= 4 IEnMin= 4 EnMin= -4069.76571573760     IErMin= 4 ErrMin= 7.27D-03
 ErrMax= 7.27D-03  0.00D+00 EMaxC= 1.00D-01 BMatC= 5.03D-02 BMatP= 2.02D-01
 IDIUse=3 WtCom= 9.27D-01 WtEn= 7.27D-02
 Coeff-Com: -0.109D+00 0.226D+00 0.408D+00 0.475D+00
 Coeff-En:   0.000D+00 0.000D+00 0.220D+00 0.780D+00
 Coeff:     -0.101D+00 0.209D+00 0.395D+00 0.497D+00
 Gap=     0.120 Goal=   None    Shift=    0.000
 RMSDP=1.99D-04 MaxDP=2.11D-02 DE=-1.38D-01 OVMax= 6.51D-02

 Cycle   5  Pass 1  IDiag  1:
 RMSU=  7.61D-05    CP:  9.64D-01  1.49D+00  6.88D-01  5.52D-01
 E= -4069.81105678810     Delta-E=       -0.045341050496 Rises=F Damp=F
 DIIS: error= 8.16D-04 at cycle   5 NSaved=   5.
 NSaved= 5 IEnMin= 5 EnMin= -4069.81105678810     IErMin= 5 ErrMin= 8.16D-04
 ErrMax= 8.16D-04  0.00D+00 EMaxC= 1.00D-01 BMatC= 1.17D-03 BMatP= 5.03D-02
 IDIUse=3 WtCom= 9.92D-01 WtEn= 8.16D-03
 Coeff-Com: -0.359D-01 0.705D-01 0.165D+00 0.250D+00 0.550D+00
 Coeff-En:   0.000D+00 0.000D+00 0.000D+00 0.000D+00 0.100D+01
 Coeff:     -0.356D-01 0.699D-01 0.164D+00 0.248D+00 0.554D+00
 Gap=     0.119 Goal=   None    Shift=    0.000
 RMSDP=4.09D-05 MaxDP=4.36D-03 DE=-4.53D-02 OVMax= 1.89D-02

 Cycle   6  Pass 1  IDiag  1:
 RMSU=  3.04D-05    CP:  9.64D-01  1.49D+00  6.81D-01  6.22D-01  7.52D-01
 E= -4069.81206084210     Delta-E=       -0.001004054000 Rises=F Damp=F
 DIIS: error= 2.43D-04 at cycle   6 NSaved=   6.
 NSaved= 6 IEnMin= 6 EnMin= -4069.81206084210     IErMin= 6 ErrMin= 2.43D-04
 ErrMax= 2.43D-04  0.00D+00 EMaxC= 1.00D-01 BMatC= 1.81D-04 BMatP= 1.17D-03
 IDIUse=3 WtCom= 9.98D-01 WtEn= 2.43D-03
 Coeff-Com:  0.218D-02-0.653D-02 0.113D-01 0.403D-01 0.309D+00 0.644D+00
 Coeff-En:   0.000D+00 0.000D+00 0.000D+00 0.000D+00 0.111D+00 0.889D+00
 Coeff:      0.218D-02-0.651D-02 0.113D-01 0.402D-01 0.308D+00 0.645D+00
 Gap=     0.120 Goal=   None    Shift=    0.000
 RMSDP=1.62D-05 MaxDP=1.29D-03 DE=-1.00D-03 OVMax= 8.33D-03

 Cycle   7  Pass 1  IDiag  1:
 RMSU=  1.08D-05    CP:  9.64D-01  1.50D+00  6.86D-01  6.22D-01  8.56D-01
                    CP:  7.42D-01
 E= -4069.81225501202     Delta-E=       -0.000194169927 Rises=F Damp=F
 DIIS: error= 1.04D-04 at cycle   7 NSaved=   7.
 NSaved= 7 IEnMin= 7 EnMin= -4069.81225501202     IErMin= 7 ErrMin= 1.04D-04
 ErrMax= 1.04D-04  0.00D+00 EMaxC= 1.00D-01 BMatC= 2.18D-05 BMatP= 1.81D-04
 IDIUse=3 WtCom= 9.99D-01 WtEn= 1.04D-03
 Coeff-Com:  0.444D-02-0.974D-02-0.881D-02-0.346D-02 0.105D+00 0.333D+00
 Coeff-Com:  0.580D+00
 Coeff-En:   0.000D+00 0.000D+00 0.000D+00 0.000D+00 0.000D+00 0.000D+00
 Coeff-En:   0.100D+01
 Coeff:      0.444D-02-0.973D-02-0.880D-02-0.345D-02 0.105D+00 0.332D+00
 Coeff:      0.580D+00
 Gap=     0.120 Goal=   None    Shift=    0.000
 RMSDP=6.50D-06 MaxDP=1.25D-03 DE=-1.94D-04 OVMax= 3.94D-03

 Cycle   8  Pass 1  IDiag  1:
 RMSU=  4.67D-06    CP:  9.64D-01  1.50D+00  6.87D-01  6.26D-01  8.60D-01
                    CP:  8.66D-01  8.16D-01
 E= -4069.81228180233     Delta-E=       -0.000026790309 Rises=F Damp=F
 DIIS: error= 5.29D-05 at cycle   8 NSaved=   8.
 NSaved= 8 IEnMin= 8 EnMin= -4069.81228180233     IErMin= 8 ErrMin= 5.29D-05
 ErrMax= 5.29D-05  0.00D+00 EMaxC= 1.00D-01 BMatC= 4.65D-06 BMatP= 2.18D-05
 IDIUse=1 WtCom= 1.00D+00 WtEn= 0.00D+00
 Coeff-Com:  0.215D-02-0.427D-02-0.774D-02-0.121D-01-0.115D-01 0.350D-01
 Coeff-Com:  0.333D+00 0.665D+00
 Coeff:      0.215D-02-0.427D-02-0.774D-02-0.121D-01-0.115D-01 0.350D-01
 Coeff:      0.333D+00 0.665D+00
 Gap=     0.120 Goal=   None    Shift=    0.000
 RMSDP=3.36D-06 MaxDP=5.40D-04 DE=-2.68D-05 OVMax= 1.19D-03

 Cycle   9  Pass 1  IDiag  1:
 RMSU=  1.96D-06    CP:  9.64D-01  1.50D+00  6.88D-01  6.28D-01  8.77D-01
                    CP:  8.93D-01  1.02D+00  9.35D-01
 E= -4069.81228927963     Delta-E=       -0.000007477294 Rises=F Damp=F
 DIIS: error= 2.06D-05 at cycle   9 NSaved=   9.
 NSaved= 9 IEnMin= 9 EnMin= -4069.81228927963     IErMin= 9 ErrMin= 2.06D-05
 ErrMax= 2.06D-05  0.00D+00 EMaxC= 1.00D-01 BMatC= 7.25D-07 BMatP= 4.65D-06
 IDIUse=1 WtCom= 1.00D+00 WtEn= 0.00D+00
 Coeff-Com:  0.486D-03-0.813D-03-0.274D-02-0.611D-02-0.218D-01-0.371D-01
 Coeff-Com:  0.100D+00 0.343D+00 0.625D+00
 Coeff:      0.486D-03-0.813D-03-0.274D-02-0.611D-02-0.218D-01-0.371D-01
 Coeff:      0.100D+00 0.343D+00 0.625D+00
 Gap=     0.120 Goal=   None    Shift=    0.000
 RMSDP=1.40D-06 MaxDP=1.72D-04 DE=-7.48D-06 OVMax= 7.71D-04

 Cycle  10  Pass 1  IDiag  1:
 RMSU=  9.44D-07    CP:  9.64D-01  1.50D+00  6.88D-01  6.28D-01  8.80D-01
                    CP:  9.06D-01  1.06D+00  1.10D+00  1.03D+00
 E= -4069.81229087477     Delta-E=       -0.000001595141 Rises=F Damp=F
 DIIS: error= 9.98D-06 at cycle  10 NSaved=  10.
 NSaved=10 IEnMin=10 EnMin= -4069.81229087477     IErMin=10 ErrMin= 9.98D-06
 ErrMax= 9.98D-06  0.00D+00 EMaxC= 1.00D-01 BMatC= 1.54D-07 BMatP= 7.25D-07
 IDIUse=1 WtCom= 1.00D+00 WtEn= 0.00D+00
 Coeff-Com: -0.409D-03 0.861D-03 0.116D-02 0.998D-03-0.433D-02-0.302D-01
 Coeff-Com: -0.465D-01-0.609D-01 0.240D+00 0.899D+00
 Coeff:     -0.409D-03 0.861D-03 0.116D-02 0.998D-03-0.433D-02-0.302D-01
 Coeff:     -0.465D-01-0.609D-01 0.240D+00 0.899D+00
 Gap=     0.120 Goal=   None    Shift=    0.000
 RMSDP=1.23D-06 MaxDP=1.66D-04 DE=-1.60D-06 OVMax= 6.77D-04

 Cycle  11  Pass 1  IDiag  1:
 RMSU=  5.46D-07    CP:  9.64D-01  1.50D+00  6.88D-01  6.29D-01  8.82D-01
                    CP:  9.16D-01  1.11D+00  1.21D+00  1.37D+00  1.33D+00
 E= -4069.81229163322     Delta-E=       -0.000000758453 Rises=F Damp=F
 DIIS: error= 4.51D-06 at cycle  11 NSaved=  11.
 NSaved=11 IEnMin=11 EnMin= -4069.81229163322     IErMin=11 ErrMin= 4.51D-06
 ErrMax= 4.51D-06  0.00D+00 EMaxC= 1.00D-01 BMatC= 6.54D-08 BMatP= 1.54D-07
 IDIUse=1 WtCom= 1.00D+00 WtEn= 0.00D+00
 Coeff-Com: -0.342D-03 0.669D-03 0.136D-02 0.214D-02 0.393D-02-0.928D-02
 Coeff-Com: -0.466D-01-0.127D+00-0.306D-01 0.509D+00 0.696D+00
 Coeff:     -0.342D-03 0.669D-03 0.136D-02 0.214D-02 0.393D-02-0.928D-02
 Coeff:     -0.466D-01-0.127D+00-0.306D-01 0.509D+00 0.696D+00
 Gap=     0.120 Goal=   None    Shift=    0.000
 RMSDP=6.69D-07 MaxDP=5.77D-05 DE=-7.58D-07 OVMax= 3.26D-04

 Cycle  12  Pass 1  IDiag  1:
 RMSU=  2.75D-07    CP:  9.64D-01  1.50D+00  6.88D-01  6.29D-01  8.83D-01
                    CP:  9.18D-01  1.13D+00  1.27D+00  1.52D+00  1.72D+00
                    CP:  1.14D+00
 E= -4069.81229189419     Delta-E=       -0.000000260967 Rises=F Damp=F
 DIIS: error= 3.87D-06 at cycle  12 NSaved=  12.
 NSaved=12 IEnMin=12 EnMin= -4069.81229189419     IErMin=12 ErrMin= 3.87D-06
 ErrMax= 3.87D-06  0.00D+00 EMaxC= 1.00D-01 BMatC= 1.39D-08 BMatP= 6.54D-08
 IDIUse=1 WtCom= 1.00D+00 WtEn= 0.00D+00
 Coeff-Com: -0.304D-04 0.430D-04 0.294D-03 0.693D-03 0.351D-02 0.346D-02
 Coeff-Com: -0.266D-02-0.417D-01-0.787D-01-0.111D-01 0.261D+00 0.865D+00
 Coeff:     -0.304D-04 0.430D-04 0.294D-03 0.693D-03 0.351D-02 0.346D-02
 Coeff:     -0.266D-02-0.417D-01-0.787D-01-0.111D-01 0.261D+00 0.865D+00
 Gap=     0.120 Goal=   None    Shift=    0.000
 RMSDP=4.35D-07 MaxDP=2.95D-05 DE=-2.61D-07 OVMax= 3.07D-04

 Cycle  13  Pass 1  IDiag  1:
 RMSU=  1.77D-07    CP:  9.64D-01  1.50D+00  6.88D-01  6.29D-01  8.84D-01
                    CP:  9.18D-01  1.13D+00  1.30D+00  1.62D+00  1.93D+00
                    CP:  1.54D+00  1.18D+00
 E= -4069.81229198388     Delta-E=       -0.000000089694 Rises=F Damp=F
 DIIS: error= 2.89D-06 at cycle  13 NSaved=  13.
 NSaved=13 IEnMin=13 EnMin= -4069.81229198388     IErMin=13 ErrMin= 2.89D-06
 ErrMax= 2.89D-06  0.00D+00 EMaxC= 1.00D-01 BMatC= 9.98D-09 BMatP= 1.39D-08
 IDIUse=1 WtCom= 1.00D+00 WtEn= 0.00D+00
 Coeff-Com:  0.115D-03-0.236D-03-0.339D-03-0.392D-03 0.809D-03 0.529D-02
 Coeff-Com:  0.184D-01 0.212D-01-0.416D-01-0.221D+00-0.166D+00 0.631D+00
 Coeff-Com:  0.753D+00
 Coeff:      0.115D-03-0.236D-03-0.339D-03-0.392D-03 0.809D-03 0.529D-02
 Coeff:      0.184D-01 0.212D-01-0.416D-01-0.221D+00-0.166D+00 0.631D+00
 Coeff:      0.753D+00
 Gap=     0.120 Goal=   None    Shift=    0.000
 RMSDP=3.34D-07 MaxDP=2.21D-05 DE=-8.97D-08 OVMax= 1.76D-04

 Cycle  14  Pass 1  IDiag  1:
 RMSU=  8.47D-08    CP:  9.64D-01  1.50D+00  6.88D-01  6.29D-01  8.84D-01
                    CP:  9.19D-01  1.14D+00  1.32D+00  1.69D+00  2.12D+00
                    CP:  1.76D+00  1.71D+00  1.07D+00
 E= -4069.81229202487     Delta-E=       -0.000000040989 Rises=F Damp=F
 DIIS: error= 1.15D-06 at cycle  14 NSaved=  14.
 NSaved=14 IEnMin=14 EnMin= -4069.81229202487     IErMin=14 ErrMin= 1.15D-06
 ErrMax= 1.15D-06  0.00D+00 EMaxC= 1.00D-01 BMatC= 1.28D-09 BMatP= 9.98D-09
 IDIUse=1 WtCom= 1.00D+00 WtEn= 0.00D+00
 Coeff-Com:  0.734D-04-0.145D-03-0.267D-03-0.410D-03-0.445D-03 0.170D-02
 Coeff-Com:  0.115D-01 0.213D-01-0.901D-03-0.109D+00-0.170D+00 0.140D+00
 Coeff-Com:  0.362D+00 0.744D+00
 Coeff:      0.734D-04-0.145D-03-0.267D-03-0.410D-03-0.445D-03 0.170D-02
 Coeff:      0.115D-01 0.213D-01-0.901D-03-0.109D+00-0.170D+00 0.140D+00
 Coeff:      0.362D+00 0.744D+00
 Gap=     0.120 Goal=   None    Shift=    0.000
 RMSDP=1.29D-07 MaxDP=8.90D-06 DE=-4.10D-08 OVMax= 8.70D-05

 Cycle  15  Pass 1  IDiag  1:
 RMSU=  4.11D-08    CP:  9.64D-01  1.50D+00  6.88D-01  6.29D-01  8.84D-01
                    CP:  9.19D-01  1.14D+00  1.33D+00  1.71D+00  2.18D+00
                    CP:  1.88D+00  1.89D+00  1.31D+00  1.03D+00
 E= -4069.81229203038     Delta-E=       -0.000000005515 Rises=F Damp=F
 DIIS: error= 4.83D-07 at cycle  15 NSaved=  15.
 NSaved=15 IEnMin=15 EnMin= -4069.81229203038     IErMin=15 ErrMin= 4.83D-07
 ErrMax= 4.83D-07  0.00D+00 EMaxC= 1.00D-01 BMatC= 3.42D-10 BMatP= 1.28D-09
 IDIUse=1 WtCom= 1.00D+00 WtEn= 0.00D+00
 Coeff-Com:  0.135D-04-0.249D-04-0.628D-04-0.128D-03-0.369D-03-0.334D-03
 Coeff-Com:  0.223D-02 0.554D-02 0.828D-02-0.536D-02-0.533D-01-0.399D-01
 Coeff-Com:  0.109D-01 0.381D+00 0.691D+00
 Coeff:      0.135D-04-0.249D-04-0.628D-04-0.128D-03-0.369D-03-0.334D-03
 Coeff:      0.223D-02 0.554D-02 0.828D-02-0.536D-02-0.533D-01-0.399D-01
 Coeff:      0.109D-01 0.381D+00 0.691D+00
 Gap=     0.120 Goal=   None    Shift=    0.000
 RMSDP=3.93D-08 MaxDP=4.05D-06 DE=-5.52D-09 OVMax= 1.94D-05

 Cycle  16  Pass 1  IDiag  1:
 RMSU=  2.03D-08    CP:  9.64D-01  1.50D+00  6.88D-01  6.29D-01  8.84D-01
                    CP:  9.19D-01  1.14D+00  1.33D+00  1.72D+00  2.19D+00
                    CP:  1.90D+00  1.95D+00  1.37D+00  1.25D+00  1.12D+00
 E= -4069.81229203116     Delta-E=       -0.000000000771 Rises=F Damp=F
 DIIS: error= 1.96D-07 at cycle  16 NSaved=  16.
 NSaved=16 IEnMin=16 EnMin= -4069.81229203116     IErMin=16 ErrMin= 1.96D-07
 ErrMax= 1.96D-07  0.00D+00 EMaxC= 1.00D-01 BMatC= 8.71D-11 BMatP= 3.42D-10
 IDIUse=1 WtCom= 1.00D+00 WtEn= 0.00D+00
 Coeff-Com: -0.133D-04 0.271D-04 0.424D-04 0.446D-04-0.604D-04-0.641D-03
 Coeff-Com: -0.188D-02-0.361D-02 0.420D-02 0.257D-01 0.142D-01-0.504D-01
 Coeff-Com: -0.106D+00 0.138D-01 0.327D+00 0.777D+00
 Coeff:     -0.133D-04 0.271D-04 0.424D-04 0.446D-04-0.604D-04-0.641D-03
 Coeff:     -0.188D-02-0.361D-02 0.420D-02 0.257D-01 0.142D-01-0.504D-01
 Coeff:     -0.106D+00 0.138D-01 0.327D+00 0.777D+00
 Gap=     0.120 Goal=   None    Shift=    0.000
 RMSDP=2.81D-08 MaxDP=2.14D-06 DE=-7.71D-10 OVMax= 1.82D-05

 Cycle  17  Pass 1  IDiag  1:
 RMSU=  1.28D-08    CP:  9.64D-01  1.50D+00  6.88D-01  6.29D-01  8.84D-01
                    CP:  9.19D-01  1.14D+00  1.33D+00  1.72D+00  2.20D+00
                    CP:  1.92D+00  1.98D+00  1.42D+00  1.35D+00  1.43D+00
                    CP:  1.17D+00
 E= -4069.81229203160     Delta-E=       -0.000000000447 Rises=F Damp=F
 DIIS: error= 1.02D-07 at cycle  17 NSaved=  17.
 NSaved=17 IEnMin=17 EnMin= -4069.81229203160     IErMin=17 ErrMin= 1.02D-07
 ErrMax= 1.02D-07  0.00D+00 EMaxC= 1.00D-01 BMatC= 2.76D-11 BMatP= 8.71D-11
 IDIUse=1 WtCom= 1.00D+00 WtEn= 0.00D+00
 Coeff-Com: -0.962D-05 0.189D-04 0.365D-04 0.520D-04 0.747D-04-0.224D-03
 Coeff-Com: -0.135D-02-0.332D-02 0.371D-03 0.145D-01 0.193D-01-0.894D-02
 Coeff-Com: -0.595D-01-0.813D-01-0.558D-01 0.386D+00 0.790D+00
 Coeff:     -0.962D-05 0.189D-04 0.365D-04 0.520D-04 0.747D-04-0.224D-03
 Coeff:     -0.135D-02-0.332D-02 0.371D-03 0.145D-01 0.193D-01-0.894D-02
 Coeff:     -0.595D-01-0.813D-01-0.558D-01 0.386D+00 0.790D+00
 Gap=     0.120 Goal=   None    Shift=    0.000
 RMSDP=1.51D-08 MaxDP=9.96D-07 DE=-4.47D-10 OVMax= 8.78D-06

 Cycle  18  Pass 1  IDiag  1:
 RMSU=  5.83D-09    CP:  9.64D-01  1.50D+00  6.88D-01  6.29D-01  8.84D-01
                    CP:  9.19D-01  1.14D+00  1.33D+00  1.72D+00  2.20D+00
                    CP:  1.92D+00  1.99D+00  1.44D+00  1.42D+00  1.60D+00
                    CP:  1.57D+00  1.32D+00
 E= -4069.81229203174     Delta-E=       -0.000000000135 Rises=F Damp=F
 DIIS: error= 8.16D-08 at cycle  18 NSaved=  18.
 NSaved=18 IEnMin=18 EnMin= -4069.81229203174     IErMin=18 ErrMin= 8.16D-08
 ErrMax= 8.16D-08  0.00D+00 EMaxC= 1.00D-01 BMatC= 8.05D-12 BMatP= 2.76D-11
 IDIUse=1 WtCom= 1.00D+00 WtEn= 0.00D+00
 Coeff-Com: -0.110D-06-0.161D-06 0.356D-05 0.973D-05 0.718D-04 0.132D-03
 Coeff-Com:  0.716D-04-0.475D-03-0.131D-02-0.253D-02 0.290D-02 0.174D-01
 Coeff-Com:  0.533D-02-0.364D-01-0.159D+00-0.688D-01 0.353D+00 0.890D+00
 Coeff:     -0.110D-06-0.161D-06 0.356D-05 0.973D-05 0.718D-04 0.132D-03
 Coeff:      0.716D-04-0.475D-03-0.131D-02-0.253D-02 0.290D-02 0.174D-01
 Coeff:      0.533D-02-0.364D-01-0.159D+00-0.688D-01 0.353D+00 0.890D+00
 Gap=     0.120 Goal=   None    Shift=    0.000
 RMSDP=1.12D-08 MaxDP=8.29D-07 DE=-1.35D-10 OVMax= 6.82D-06

 Cycle  19  Pass 1  IDiag  1:
 RMSU=  3.30D-09    CP:  9.64D-01  1.50D+00  6.88D-01  6.29D-01  8.84D-01
                    CP:  9.19D-01  1.14D+00  1.33D+00  1.72D+00  2.20D+00
                    CP:  1.92D+00  2.00D+00  1.45D+00  1.45D+00  1.74D+00
                    CP:  1.82D+00  1.81D+00  1.23D+00
 E= -4069.81229203174     Delta-E=        0.000000000000 Rises=F Damp=F
 DIIS: error= 2.85D-08 at cycle  19 NSaved=  19.
 NSaved=19 IEnMin=18 EnMin= -4069.81229203174     IErMin=19 ErrMin= 2.85D-08
 ErrMax= 2.85D-08  0.00D+00 EMaxC= 1.00D-01 BMatC= 3.16D-12 BMatP= 8.05D-12
 IDIUse=1 WtCom= 1.00D+00 WtEn= 0.00D+00
 Coeff-Com:  0.344D-05-0.698D-05-0.113D-04-0.134D-04 0.211D-04 0.160D-03
 Coeff-Com:  0.559D-03 0.923D-03-0.856D-03-0.700D-02-0.584D-02 0.149D-01
 Coeff-Com:  0.242D-01 0.109D-01-0.845D-01-0.192D+00-0.110D+00 0.543D+00
 Coeff-Com:  0.806D+00
 Coeff:      0.344D-05-0.698D-05-0.113D-04-0.134D-04 0.211D-04 0.160D-03
 Coeff:      0.559D-03 0.923D-03-0.856D-03-0.700D-02-0.584D-02 0.149D-01
 Coeff:      0.242D-01 0.109D-01-0.845D-01-0.192D+00-0.110D+00 0.543D+00
 Coeff:      0.806D+00
 Gap=     0.120 Goal=   None    Shift=    0.000
 RMSDP=7.72D-09 MaxDP=5.21D-07 DE= 0.00D+00 OVMax= 4.53D-06

 SCF Done:  E(RCAM-B3LYP) =  -4069.81229203     A.U. after   19 cycles
            NFock= 19  Conv=0.77D-08     -V/T= 2.0102
 KE= 4.028801356373D+03 PE=-4.042818369142D+04 EE= 1.685602258920D+04
 Leave Link  502 at Thu Aug 19 19:43:00 2021, MaxMem= 23488102400 cpu:           15221.4 elap:             660.6
 (Enter /sw/apps/gaussian-16.0/g16/l801.exe)
 DoSCS=F DFT=T ScalE2(SS,OS)=  1.000000  1.000000
 ExpMin= 3.36D-02 ExpMax= 4.95D+03 ExpMxC= 7.45D+02 IAcc=3 IRadAn=         5 AccDes= 0.00D+00
 HarFok:  IExCor=  205 AccDes= 0.00D+00 IRadAn=         5 IDoV=-2 UseB2=F ITyADJ=14
 ICtDFT= 12500011 ScaDFX=  1.000000  1.000000  1.000000  1.000000
 GSVD:  LWork=       -9588 too small for GESVD, short by       45590 words or       45590 for optimal perf.
 Largest valence mixing into a core orbital is  2.03D-04
 Largest core mixing into a valence orbital is  5.27D-05
 Range of M.O.s used for correlation:    95  1572
 NBasis=  1572 NAE=   312 NBE=   312 NFC=    94 NFV=     0
 NROrb=   1478 NOA=   218 NOB=   218 NVA=  1260 NVB=  1260
 Leave Link  801 at Thu Aug 19 19:43:01 2021, MaxMem= 23488102400 cpu:               8.3 elap:               0.4
 (Enter /sw/apps/gaussian-16.0/g16/l914.exe)
 RHF ground state
 Two-electron integrals replicated using symmetry.
 MDV= 23488102400 DFT=T DoStab=F Mixed=T DoRPA=T DoScal=F NonHer=T
 Making orbital integer symmetry assigments:
 Orbital symmetries:
       Occupied  (A) (A) (A) (A) (A) (A) (A) (A) (A) (A) (A) (A)
                 (A) (A) (A) (A) (A) (A) (A) (A) (A) (A) (A) (A)
                 (A) (A) (A) (A) (A) (A) (A) (A) (A) (A) (A) (A)
                 (A) (A) (A) (A) (A) (A) (A) (A) (A) (A) (A) (A)
                 (A) (A) (A) (A) (A) (A) (A) (A) (A) (A) (A) (A)
                 (A) (A) (A) (A) (A) (A) (A) (A) (A) (A) (A) (A)
                 (A) (A) (A) (A) (A) (A) (A) (A) (A) (A) (A) (A)
                 (A) (A) (A) (A) (A) (A) (A) (A) (A) (A) (A) (A)
                 (A) (A) (A) (A) (A) (A) (A) (A) (A) (A) (A) (A)
                 (A) (A) (A) (A) (A) (A) (A) (A) (A) (A) (A) (A)
                 (A) (A) (A) (A) (A) (A) (A) (A) (A) (A) (A) (A)
                 (A) (A) (A) (A) (A) (A) (A) (A) (A) (A) (A) (A)
                 (A) (A) (A) (A) (A) (A) (A) (A) (A) (A) (A) (A)
                 (A) (A) (A) (A) (A) (A) (A) (A) (A) (A) (A) (A)
                 (A) (A) (A) (A) (A) (A) (A) (A) (A) (A) (A) (A)
                 (A) (A) (A) (A) (A) (A) (A) (A) (A) (A) (A) (A)
                 (A) (A) (A) (A) (A) (A) (A) (A) (A) (A) (A) (A)
                 (A) (A) (A) (A) (A) (A) (A) (A) (A) (A) (A) (A)
                 (A) (A) (A) (A) (A) (A) (A) (A) (A) (A) (A) (A)
                 (A) (A) (A) (A) (A) (A) (A) (A) (A) (A) (A) (A)
                 (A) (A) (A) (A) (A) (A) (A) (A) (A) (A) (A) (A)
                 (A) (A) (A) (A) (A) (A) (A) (A) (A) (A) (A) (A)
                 (A) (A) (A) (A) (A) (A) (A) (A) (A) (A) (A) (A)
                 (A) (A) (A) (A) (A) (A) (A) (A) (A) (A) (A) (A)
                 (A) (A) (A) (A) (A) (A) (A) (A) (A) (A) (A) (A)
                 (A) (A) (A) (A) (A) (A) (A) (A) (A) (A) (A) (A)
       Virtual   (A) (A) (A) (A) (A) (A) (A) (A) (A) (A) (A) (A)
                 (A) (A) (A) (A) (A) (A) (A) (A) (A) (A) (A) (A)
                 (A) (A) (A) (A) (A) (A) (A) (A) (A) (A) (A) (A)
                 (A) (A) (A) (A) (A) (A) (A) (A) (A) (A) (A) (A)
                 (A) (A) (A) (A) (A) (A) (A) (A) (A) (A) (A) (A)
                 (A) (A) (A) (A) (A) (A) (A) (A) (A) (A) (A) (A)
                 (A) (A) (A) (A) (A) (A) (A) (A) (A) (A) (A) (A)
                 (A) (A) (A) (A) (A) (A) (A) (A) (A) (A) (A) (A)
                 (A) (A) (A) (A) (A) (A) (A) (A) (A) (A) (A) (A)
                 (A) (A) (A) (A) (A) (A) (A) (A) (A) (A) (A) (A)
                 (A) (A) (A) (A) (A) (A) (A) (A) (A) (A) (A) (A)
                 (A) (A) (A) (A) (A) (A) (A) (A) (A) (A) (A) (A)
                 (A) (A) (A) (A) (A) (A) (A) (A) (A) (A) (A) (A)
                 (A) (A) (A) (A) (A) (A) (A) (A) (A) (A) (A) (A)
                 (A) (A) (A) (A) (A) (A) (A) (A) (A) (A) (A) (A)
                 (A) (A) (A) (A) (A) (A) (A) (A) (A) (A) (A) (A)
                 (A) (A) (A) (A) (A) (A) (A) (A) (A) (A) (A) (A)
                 (A) (A) (A) (A) (A) (A) (A) (A) (A) (A) (A) (A)
                 (A) (A) (A) (A) (A) (A) (A) (A) (A) (A) (A) (A)
                 (A) (A) (A) (A) (A) (A) (A) (A) (A) (A) (A) (A)
                 (A) (A) (A) (A) (A) (A) (A) (A) (A) (A) (A) (A)
                 (A) (A) (A) (A) (A) (A) (A) (A) (A) (A) (A) (A)
                 (A) (A) (A) (A) (A) (A) (A) (A) (A) (A) (A) (A)
                 (A) (A) (A) (A) (A) (A) (A) (A) (A) (A) (A) (A)
                 (A) (A) (A) (A) (A) (A) (A) (A) (A) (A) (A) (A)
                 (A) (A) (A) (A) (A) (A) (A) (A) (A) (A) (A) (A)
                 (A) (A) (A) (A) (A) (A) (A) (A) (A) (A) (A) (A)
                 (A) (A) (A) (A) (A) (A) (A) (A) (A) (A) (A) (A)
                 (A) (A) (A) (A) (A) (A) (A) (A) (A) (A) (A) (A)
                 (A) (A) (A) (A) (A) (A) (A) (A) (A) (A) (A) (A)
                 (A) (A) (A) (A) (A) (A) (A) (A) (A) (A) (A) (A)
                 (A) (A) (A) (A) (A) (A) (A) (A) (A) (A) (A) (A)
                 (A) (A) (A) (A) (A) (A) (A) (A) (A) (A) (A) (A)
                 (A) (A) (A) (A) (A) (A) (A) (A) (A) (A) (A) (A)
                 (A) (A) (A) (A) (A) (A) (A) (A) (A) (A) (A) (A)
                 (A) (A) (A) (A) (A) (A) (A) (A) (A) (A) (A) (A)
                 (A) (A) (A) (A) (A) (A) (A) (A) (A) (A) (A) (A)
                 (A) (A) (A) (A) (A) (A) (A) (A) (A) (A) (A) (A)
                 (A) (A) (A) (A) (A) (A) (A) (A) (A) (A) (A) (A)
                 (A) (A) (A) (A) (A) (A) (A) (A) (A) (A) (A) (A)
                 (A) (A) (A) (A) (A) (A) (A) (A) (A) (A) (A) (A)
                 (A) (A) (A) (A) (A) (A) (A) (A) (A) (A) (A) (A)
                 (A) (A) (A) (A) (A) (A) (A) (A) (A) (A) (A) (A)
                 (A) (A) (A) (A) (A) (A) (A) (A) (A) (A) (A) (A)
                 (A) (A) (A) (A) (A) (A) (A) (A) (A) (A) (A) (A)
                 (A) (A) (A) (A) (A) (A) (A) (A) (A) (A) (A) (A)
                 (A) (A) (A) (A) (A) (A) (A) (A) (A) (A) (A) (A)
                 (A) (A) (A) (A) (A) (A) (A) (A) (A) (A) (A) (A)
                 (A) (A) (A) (A) (A) (A) (A) (A) (A) (A) (A) (A)
                 (A) (A) (A) (A) (A) (A) (A) (A) (A) (A) (A) (A)
                 (A) (A) (A) (A) (A) (A) (A) (A) (A) (A) (A) (A)
                 (A) (A) (A) (A) (A) (A) (A) (A) (A) (A) (A) (A)
                 (A) (A) (A) (A) (A) (A) (A) (A) (A) (A) (A) (A)
                 (A) (A) (A) (A) (A) (A) (A) (A) (A) (A) (A) (A)
                 (A) (A) (A) (A) (A) (A) (A) (A) (A) (A) (A) (A)
                 (A) (A) (A) (A) (A) (A) (A) (A) (A) (A) (A) (A)
                 (A) (A) (A) (A) (A) (A) (A) (A) (A) (A) (A) (A)
                 (A) (A) (A) (A) (A) (A) (A) (A) (A) (A) (A) (A)
                 (A) (A) (A) (A) (A) (A) (A) (A) (A) (A) (A) (A)
                 (A) (A) (A) (A) (A) (A) (A) (A) (A) (A) (A) (A)
                 (A) (A) (A) (A) (A) (A) (A) (A) (A) (A) (A) (A)
                 (A) (A) (A) (A) (A) (A) (A) (A) (A) (A) (A) (A)
                 (A) (A) (A) (A) (A) (A) (A) (A) (A) (A) (A) (A)
                 (A) (A) (A) (A) (A) (A) (A) (A) (A) (A) (A) (A)
                 (A) (A) (A) (A) (A) (A) (A) (A) (A) (A) (A) (A)
                 (A) (A) (A) (A) (A) (A) (A) (A) (A) (A) (A) (A)
                 (A) (A) (A) (A) (A) (A) (A) (A) (A) (A) (A) (A)
                 (A) (A) (A) (A) (A) (A) (A) (A) (A) (A) (A) (A)
                 (A) (A) (A) (A) (A) (A) (A) (A) (A) (A) (A) (A)
                 (A) (A) (A) (A) (A) (A) (A) (A) (A) (A) (A) (A)
                 (A) (A) (A) (A) (A) (A) (A) (A) (A) (A) (A) (A)
                 (A) (A) (A) (A) (A) (A) (A) (A) (A) (A) (A) (A)
                 (A) (A) (A) (A) (A) (A) (A) (A) (A) (A) (A) (A)
                 (A) (A) (A) (A) (A) (A) (A) (A) (A) (A) (A) (A)
                 (A) (A) (A) (A) (A) (A) (A) (A) (A) (A) (A) (A)
                 (A) (A) (A) (A) (A) (A) (A) (A) (A) (A) (A) (A)
                 (A) (A) (A) (A) (A) (A) (A) (A) (A) (A) (A) (A)
                 (A) (A) (A) (A) (A) (A) (A) (A) (A) (A) (A) (A)
                 (A) (A) (A) (A) (A) (A) (A) (A) (A) (A) (A) (A)
                 (A) (A) (A) (A) (A) (A) (A) (A) (A) (A) (A) (A)
                 (A) (A) (A) (A) (A) (A) (A) (A) (A) (A) (A) (A)
                 (A) (A) (A) (A) (A) (A) (A) (A) (A) (A) (A) (A)
                 (A) (A) (A) (A) (A) (A) (A) (A) (A) (A) (A) (A)
                 (A) (A) (A) (A) (A) (A) (A) (A) (A) (A) (A) (A)
                 (A) (A) (A) (A) (A) (A) (A) (A) (A) (A) (A) (A)
                 (A) (A) (A) (A) (A) (A) (A) (A) (A) (A) (A) (A)
                 (A) (A) (A) (A) (A) (A) (A) (A) (A) (A) (A) (A)
                 (A) (A) (A) (A) (A) (A) (A) (A) (A) (A) (A) (A)
                 (A) (A) (A) (A) (A) (A) (A) (A) (A) (A) (A) (A)
                 (A) (A) (A) (A) (A) (A) (A) (A) (A) (A) (A) (A)
                 (A) (A) (A) (A) (A) (A) (A) (A) (A) (A) (A) (A)
                 (A) (A) (A) (A) (A) (A) (A) (A) (A) (A) (A) (A)
                 (A) (A) (A) (A) (A) (A) (A) (A) (A) (A) (A) (A)
                 (A) (A) (A) (A) (A) (A) (A) (A) (A) (A) (A) (A)
                 (A) (A) (A) (A) (A) (A) (A) (A) (A) (A) (A) (A)
                 (A) (A) (A) (A) (A) (A) (A) (A) (A) (A) (A) (A)
                 (A) (A) (A) (A) (A) (A) (A) (A) (A) (A) (A) (A)
                 (A) (A) (A) (A) (A) (A) (A) (A) (A) (A) (A) (A)
                 (A) (A) (A) (A) (A) (A) (A) (A) (A) (A) (A) (A)
                 (A) (A) (A) (A) (A) (A) (A) (A) (A) (A) (A) (A)
                 (A) (A) (A) (A) (A) (A) (A) (A) (A) (A) (A) (A)
                 (A) (A) (A) (A) (A) (A) (A) (A) (A) (A) (A) (A)
                 (A) (A) (A) (A) (A) (A) (A) (A) (A) (A) (A) (A)
                 (A) (A) (A) (A) (A) (A) (A) (A) (A) (A) (A) (A)
                 (A) (A) (A) (A) (A) (A) (A) (A) (A) (A) (A) (A)
    20 initial guesses have been made.
 Convergence on wavefunction:    0.001000000000000
 Davidson Disk Diagonalization:  ConvIn= 1.00D-03 SkipCon=T Conv= 1.00D-03.
 Max sub-space:  2000 roots to seek:    20 dimension of matrix:       549360
 Iteration     1 Dimension    20 NMult     0 NNew     20
 CISAX will form    20 AO SS matrices at one time.
 NMat=    20 NSing=    20 JSym2X= 0.
 FoFJK:  IHMeth= 1 ICntrl=       0 DoSepK=T KAlg= 0 I1Cent=           0 FoldK=F
 IRaf=         1 NMat=      40 IRICut=       1 DoRegI=T DoRafI=F ISym2E= 0 IDoP0=3 IntGTp=3.
 FoFCou: FMM=T IPFlag=           0 FMFlag=      100000 FMFlg1=        2001
         NFxFlg=           0 DoJE=F BraDBF=F KetDBF=F FulRan=T
         wScrn=  0.000000 ICntrl=       500 IOpCl=  0 I1Cent=           0 NGrid=           0
         NMat0=   20 NMatS0=     20 NMatT0=    0 NMatD0=   20 NMtDS0=    0 NMtDT0=    0
 Symmetry not used in FoFCou.
 FMM levels:  10  Number of levels for PrismC:   9
 New state      2 was old state      4
 New state      3 was old state      6
 New state      4 was old state      7
 New state      5 was old state      2
 Excitation Energies [eV] at current iteration:
 Root      1 :     2.345441617153157
 Root      2 :     2.529982570691651
 Root      3 :     2.606022282230429
 Root      4 :     2.616883098609627
 Root      5 :     2.648408945420317
 Root      6 :     2.723619953792308
 Root      7 :     3.128356131451457
 Root      8 :     3.326688523087070
 Root      9 :     3.637320723998858
 Root     10 :     3.668172339239844
 Root     11 :     3.739961971501597
 Root     12 :     3.758113831588749
 Root     13 :     4.241485692883649
 Root     14 :     4.269950554165615
 Root     15 :     4.341100447268680
 Root     16 :     4.468647309975132
 Root     17 :     4.587642791317583
 Root     18 :     4.626060892528375
 Root     19 :     4.727640202620022
 Root     20 :     4.759753612952620
 Iteration     2 Dimension    30 NMult    20 NNew     10
 CISAX will form    10 AO SS matrices at one time.
 NMat=    10 NSing=    10 JSym2X= 0.
 New state      1 was old state      5
 Root      1 not converged, maximum delta is    0.258616207915662
 New state      2 was old state      3
 Root      2 not converged, maximum delta is    0.240606897475799
 New state      3 was old state      4
 Root      3 not converged, maximum delta is    0.316990808458852
 New state      4 was old state      1
 Root      4 not converged, maximum delta is    0.003807448213008
 New state      5 was old state      2
 Root      5 not converged, maximum delta is    0.006255412329882
 Excitation Energies [eV] at current iteration:
 Root      1 :     1.782229515498848   Change is   -0.866179429921468
 Root      2 :     2.198927927220043   Change is   -0.407094355010386
 Root      3 :     2.240004834828465   Change is   -0.376878263781162
 Root      4 :     2.344610009024726   Change is   -0.000831608128430
 Root      5 :     2.528962394783921   Change is   -0.001020175907730
 Iteration     3 Dimension    40 NMult    30 NNew     10
 CISAX will form    10 AO SS matrices at one time.
 NMat=    10 NSing=    10 JSym2X= 0.
 Root      1 not converged, maximum delta is    0.055888171921110
 Root      2 not converged, maximum delta is    0.421035465543538
 Root      3 not converged, maximum delta is    0.366023480388016
 No map to state      4
 New state      5 was old state      4
 Root      5 not converged, maximum delta is    0.001199979713676
 Excitation Energies [eV] at current iteration:
 Root      1 :     1.676898296242425   Change is   -0.105331219256423
 Root      2 :     1.803655976603366   Change is   -0.395271950616677
 Root      3 :     2.194068900312881   Change is   -0.045935934515584
 Root      4 :     2.210662396866262
 Root      5 :     2.344604993292074   Change is   -0.000005015732652
 Iteration     4 Dimension    50 NMult    40 NNew     10
 CISAX will form    10 AO SS matrices at one time.
 NMat=    10 NSing=    10 JSym2X= 0.
 Root      1 not converged, maximum delta is    0.013584260447875
 Root      2 not converged, maximum delta is    0.042820603947724
 Root      3 not converged, maximum delta is    0.215774539312022
 Root      4 not converged, maximum delta is    0.212013938928241
 Root      5 has converged.
 Excitation Energies [eV] at current iteration:
 Root      1 :     1.660239688757007   Change is   -0.016658607485418
 Root      2 :     1.702341857401601   Change is   -0.101314119201765
 Root      3 :     2.183187063717479   Change is   -0.010881836595402
 Root      4 :     2.195786701836227   Change is   -0.014875695030035
 Root      5 :     2.344604564729873   Change is   -0.000000428562201
 Iteration     5 Dimension    58 NMult    50 NNew      8
 CISAX will form     8 AO SS matrices at one time.
 NMat=     8 NSing=     8 JSym2X= 0.
 Root      1 not converged, maximum delta is    0.002665151169755
 Root      2 not converged, maximum delta is    0.008658991406441
 Root      3 not converged, maximum delta is    0.018301541586478
 Root      4 not converged, maximum delta is    0.018391762553609
 Root      5 has converged.
 Excitation Energies [eV] at current iteration:
 Root      1 :     1.658476897204945   Change is   -0.001762791552063
 Root      2 :     1.690648529000197   Change is   -0.011693328401404
 Root      3 :     2.181860534918144   Change is   -0.001326528799335
 Root      4 :     2.194559955453292   Change is   -0.001226746382935
 Root      5 :     2.344604552419597   Change is   -0.000000012310276
 Iteration     6 Dimension    66 NMult    58 NNew      8
 CISAX will form     8 AO SS matrices at one time.
 NMat=     8 NSing=     8 JSym2X= 0.
 Root      1 not converged, maximum delta is    0.001003756102943
 Root      2 not converged, maximum delta is    0.002183163509625
 Root      3 not converged, maximum delta is    0.001693153213547
 Root      4 not converged, maximum delta is    0.001907434475699
 Root      5 has converged.
 Excitation Energies [eV] at current iteration:
 Root      1 :     1.658227124710458   Change is   -0.000249772494487
 Root      2 :     1.689268559589173   Change is   -0.001379969411024
 Root      3 :     2.181685005272104   Change is   -0.000175529646041
 Root      4 :     2.194386988670979   Change is   -0.000172966782313
 Root      5 :     2.344604549775750   Change is   -0.000000002643847
 Iteration     7 Dimension    74 NMult    66 NNew      8
 CISAX will form     8 AO SS matrices at one time.
 NMat=     8 NSing=     8 JSym2X= 0.
 Root      1 has converged.
 Root      2 has converged.
 Root      3 has converged.
 Root      4 has converged.
 Root      5 has converged.
 Excitation Energies [eV] at current iteration:
[...]
 Alpha virt. eigenvalues --    1.88775   1.89001   1.89135   1.89373   1.89540
 Alpha virt. eigenvalues --    1.89662   1.89838   1.90022   1.90039   1.90362
 Alpha virt. eigenvalues --    1.90654   1.91092   1.91252   1.91339   1.91738
 Alpha virt. eigenvalues --    1.91804   1.92071   1.92336   1.92551   1.92831
 Alpha virt. eigenvalues --    1.92893   1.93222   1.93354   1.93751   1.94150
 Alpha virt. eigenvalues --    1.94532   1.94591   1.95058   1.95335   1.95642
 Alpha virt. eigenvalues --    1.95895   1.95914   1.95980   1.96025   1.96260
 Alpha virt. eigenvalues --    1.96332   1.96491   1.96683   1.96823   1.97126
 Alpha virt. eigenvalues --    1.97339   1.97721   1.97730   1.97958   1.98094
 Alpha virt. eigenvalues --    1.98341   1.98475   1.98591   1.99049   1.99297
 Alpha virt. eigenvalues --    1.99754   2.00091   2.00564   2.00896   2.00948
 Alpha virt. eigenvalues --    2.01254   2.01407   2.01555   2.01629   2.01725
 Alpha virt. eigenvalues --    2.01759   2.01967   2.02692   2.02886   2.03119
 Alpha virt. eigenvalues --    2.03312   2.03399   2.03475   2.03524   2.03667
 Alpha virt. eigenvalues --    2.03947   2.04218   2.04873   2.05157   2.05422
 Alpha virt. eigenvalues --    2.05812   2.05985   2.06437   2.06820   2.07099
 Alpha virt. eigenvalues --    2.07131   2.07515   2.08479   2.08744   2.08904
 Alpha virt. eigenvalues --    2.09148   2.09516   2.09750   2.10633   2.11096
 Alpha virt. eigenvalues --    2.11303   2.11464   2.11559   2.11654   2.11672
 Alpha virt. eigenvalues --    2.12019   2.12379   2.12620   2.12730   2.12749
 Alpha virt. eigenvalues --    2.13002   2.13050   2.13710   2.13797   2.14013
 Alpha virt. eigenvalues --    2.14607   2.15241   2.15581   2.15847   2.16280
 Alpha virt. eigenvalues --    2.16425   2.16685   2.16796   2.17300   2.17317
 Alpha virt. eigenvalues --    2.17605   2.17945   2.17949   2.18130   2.18239
 Alpha virt. eigenvalues --    2.18251   2.18788   2.18800   2.19364   2.19560
 Alpha virt. eigenvalues --    2.19941   2.19980   2.20124   2.20405   2.20588
 Alpha virt. eigenvalues --    2.21012   2.21466   2.21576   2.21664   2.21893
 Alpha virt. eigenvalues --    2.21995   2.22593   2.22882   2.23205   2.23561
 Alpha virt. eigenvalues --    2.24299   2.24612   2.24811   2.25231   2.26219
 Alpha virt. eigenvalues --    2.26580   2.26674   2.27023   2.27180   2.27346
 Alpha virt. eigenvalues --    2.28060   2.28486   2.29182   2.29632   2.29662
 Alpha virt. eigenvalues --    2.30030   2.30378   2.30733   2.30936   2.30987
 Alpha virt. eigenvalues --    2.31088   2.31418   2.32012   2.32464   2.33053
 Alpha virt. eigenvalues --    2.33351   2.33386   2.33667   2.34020   2.34401
 Alpha virt. eigenvalues --    2.35276   2.35410   2.35734   2.36050   2.36225
 Alpha virt. eigenvalues --    2.36475   2.36549   2.36691   2.37540   2.37888
 Alpha virt. eigenvalues --    2.38154   2.38558   2.38796   2.38912   2.39529
 Alpha virt. eigenvalues --    2.39819   2.40056   2.40417   2.40524   2.40961
 Alpha virt. eigenvalues --    2.41193   2.41356   2.41560   2.41872   2.41956
 Alpha virt. eigenvalues --    2.42233   2.42809   2.43059   2.43121   2.43419
 Alpha virt. eigenvalues --    2.44075   2.44143   2.44655   2.44815   2.44959
 Alpha virt. eigenvalues --    2.45166   2.45462   2.45728   2.46217   2.46400
 Alpha virt. eigenvalues --    2.46412   2.46625   2.46723   2.46906   2.47146
 Alpha virt. eigenvalues --    2.47566   2.47618   2.48100   2.49201   2.49642
 Alpha virt. eigenvalues --    2.49927   2.50098   2.50430   2.50608   2.51040
 Alpha virt. eigenvalues --    2.51400   2.51749   2.51804   2.52353   2.52518
 Alpha virt. eigenvalues --    2.52731   2.53321   2.53819   2.54047   2.54161
 Alpha virt. eigenvalues --    2.54483   2.54682   2.54986   2.55419   2.55845
 Alpha virt. eigenvalues --    2.57778   2.58255   2.58542   2.59158   2.60126
 Alpha virt. eigenvalues --    2.60400   2.60541   2.61090   2.61619   2.62023
 Alpha virt. eigenvalues --    2.62452   2.62602   2.62865   2.63301   2.63866
 Alpha virt. eigenvalues --    2.64095   2.64365   2.64763   2.64978   2.65333
 Alpha virt. eigenvalues --    2.65716   2.66004   2.66648   2.66825   2.67011
 Alpha virt. eigenvalues --    2.67254   2.67801   2.68188   2.68756   2.68932
 Alpha virt. eigenvalues --    2.68971   2.69132   2.69267   2.69761   2.69890
 Alpha virt. eigenvalues --    2.70319   2.70871   2.71213   2.71944   2.72010
 Alpha virt. eigenvalues --    2.72568   2.72579   2.72722   2.72845   2.73134
 Alpha virt. eigenvalues --    2.73409   2.73511   2.73531   2.74413   2.74649
 Alpha virt. eigenvalues --    2.74884   2.75187   2.76476   2.76702   2.77148
 Alpha virt. eigenvalues --    2.77178   2.77357   2.77739   2.78073   2.78429
 Alpha virt. eigenvalues --    2.78625   2.78877   2.79033   2.79286   2.80239
 Alpha virt. eigenvalues --    2.80374   2.80499   2.80778   2.81032   2.81257
 Alpha virt. eigenvalues --    2.81854   2.82076   2.82235   2.82515   2.83663
 Alpha virt. eigenvalues --    2.83682   2.83963   2.83980   2.84453   2.84677
 Alpha virt. eigenvalues --    2.84763   2.85117   2.85558   2.85835   2.86778
 Alpha virt. eigenvalues --    2.86870   2.87244   2.87498   2.88060   2.88347
 Alpha virt. eigenvalues --    2.88413   2.88756   2.88832   2.89006   2.90400
 Alpha virt. eigenvalues --    2.90816   2.91061   2.91319   2.93081   2.93460
 Alpha virt. eigenvalues --    2.93937   2.94111   2.94434   2.94772   2.95293
 Alpha virt. eigenvalues --    2.95608   2.95859   2.96082   2.96304   2.96513
 Alpha virt. eigenvalues --    2.96945   2.97067   2.97732   2.98132   2.98188
 Alpha virt. eigenvalues --    2.98268   2.98439   2.98532   2.98704   2.98787
 Alpha virt. eigenvalues --    2.98856   2.99076   2.99451   2.99933   2.99952
 Alpha virt. eigenvalues --    3.00083   3.00139   3.00379   3.00464   3.01144
 Alpha virt. eigenvalues --    3.01839   3.01950   3.02132   3.02237   3.02631
 Alpha virt. eigenvalues --    3.02880   3.02903   3.03234   3.03458   3.03859
 Alpha virt. eigenvalues --    3.04025   3.04221   3.04381   3.04423   3.04611
 Alpha virt. eigenvalues --    3.04812   3.05189   3.05559   3.06022   3.06475
 Alpha virt. eigenvalues --    3.06731   3.07185   3.08044   3.08100   3.09314
 Alpha virt. eigenvalues --    3.09603   3.09630   3.10367   3.10529   3.10888
 Alpha virt. eigenvalues --    3.11191   3.11862   3.11874   3.11988   3.12146
 Alpha virt. eigenvalues --    3.12455   3.13215   3.13514   3.13756   3.13871
 Alpha virt. eigenvalues --    3.13990   3.14496   3.15747   3.16195   3.17176
 Alpha virt. eigenvalues --    3.17620   3.17954   3.18014   3.19024   3.19157
 Alpha virt. eigenvalues --    3.22191   3.22632   3.23864   3.24525   3.24585
 Alpha virt. eigenvalues --    3.25254   3.26418   3.26775   3.27519   3.27532
 Alpha virt. eigenvalues --    3.28981   3.29240   3.31435   3.31494   3.33320
 Alpha virt. eigenvalues --    3.33330   3.40254   3.40512   3.42713   3.42935
 Alpha virt. eigenvalues --    3.48575   3.48783   3.49939   3.50420   3.50964
 Alpha virt. eigenvalues --    3.51386   3.56455   3.57136   3.58997   3.59516
 Alpha virt. eigenvalues --    3.62617   3.62750   3.66061   3.66233   3.67070
 Alpha virt. eigenvalues --    3.67551   3.73165   3.74036   3.75959   3.76700
          Condensed to atoms (all electrons):
 Mulliken charges:
               1
     1  Mg   0.838912
     2  C   -0.003050
     3  C   -0.093173
     4  C   -0.046709
     5  C   -0.063861
     6  N   -0.256771
     7  C   -0.052274
     8  C   -0.014108
     9  C   -0.087150
    10  C    0.046279
    11  C    0.104699
    12  C    0.053328
    13  C   -0.071882
    14  H    0.035402
    15  N   -0.433153
    16  C    0.168379
    17  C   -0.176499
    18  C   -0.004363
    19  C    0.148635
    20  C    0.109840
    21  C    0.011210
    22  O   -0.251034
    23  C    0.062574
    24  N   -0.341027
    25  C    0.041337
    26  C   -0.028047
    27  C   -0.023824
    28  C    0.074421
    29  C    0.076176
    30  C    0.035319
    31  C   -0.004298
    32  N   -0.310546
    33  C    0.080464
    34  C   -0.169251
    35  C    0.008426
    36  C    0.083019
    37  C    0.127293
    38  C    0.046032
    39  O   -0.188209
    40  C   -0.005397
    41  C    0.213309
    42  O   -0.258465
    43  O   -0.304360
    44  C    0.157991
    45  H   -0.016967
    46  H   -0.017629
    47  H   -0.041500
    48  H    0.001044
    49  H   -0.003306
    50  H    0.025476
    51  H    0.016436
    52  H    0.017155
    53  H    0.012017
    54  H    0.043265
    55  H    0.018097
    56  H    0.018945
    57  H    0.006609
    58  H    0.026937
    59  H    0.041030
    60  H    0.038248
    61  H    0.034877
    62  H    0.032052
    63  H    0.014915
    64  H    0.009852
    65  H    0.022720
    66  H    0.013098
    67  H    0.005051
    68  H    0.005625
    69  H    0.005476
    70  H    0.006085
    71  H    0.016873
    72  H    0.030518
    73  H    0.048178
    74  H    0.009142
    75  H    0.046107
    76  H    0.035531
    77  H    0.043367
    78  H    0.046797
    79  H    0.052284
    80  Mg   0.837661
    81  C   -0.017481
    82  C   -0.088440
    83  C   -0.045034
    84  C   -0.063470
    85  N   -0.254832
    86  C   -0.050066
    87  C   -0.015011
    88  C   -0.090395
    89  C    0.045934
    90  C    0.114683
    91  C    0.062567
    92  C   -0.077625
    93  H    0.033905
    94  N   -0.423645
    95  C    0.163477
    96  C   -0.175001
    97  C   -0.007540
    98  C    0.152344
    99  C    0.099642
   100  C    0.015335
   101  O   -0.252268
   102  C    0.061352
   103  N   -0.350154
   104  C    0.039173
   105  C   -0.021103
   106  C   -0.034318
   107  C    0.089291
   108  C    0.070763
   109  C    0.034506
   110  C   -0.007428
   111  N   -0.323879
   112  C    0.078160
   113  C   -0.163669
   114  C    0.001348
   115  C    0.096294
   116  C    0.131827
   117  C    0.041319
   118  O   -0.189912
   119  C    0.001395
   120  C    0.211175
   121  O   -0.250941
   122  O   -0.306050
   123  C    0.152158
   124  H   -0.019726
   125  H   -0.014450
   126  H   -0.040780
   127  H   -0.001579
   128  H   -0.004639
   129  H    0.021146
   130  H    0.014298
   131  H    0.019603
   132  H    0.013835
   133  H    0.037241
   134  H    0.020908
   135  H    0.019697
   136  H    0.008622
   137  H    0.025089
   138  H    0.039448
   139  H    0.037521
   140  H    0.036265
   141  H    0.033600
   142  H    0.013218
   143  H    0.015591
   144  H    0.024391
   145  H    0.014626
   146  H    0.015459
   147  H    0.006779
   148  H    0.002433
   149  H    0.010933
   150  H    0.016764
   151  H    0.029406
   152  H    0.045141
   153  H    0.008590
   154  H    0.045286
   155  H    0.032987
   156  H    0.042977
   157  H    0.049772
   158  H    0.053497
 Sum of Mulliken charges =  -0.00000
 Mulliken charges with hydrogens summed into heavy atoms:
               1
     1  Mg   0.838912
     2  C   -0.003050
     3  C   -0.110140
     4  C   -0.064338
     5  C   -0.105361
     6  N   -0.256771
     7  C   -0.052274
     8  C   -0.013064
     9  C   -0.090456
    10  C    0.046279
    11  C    0.163767
    12  C    0.108611
    13  C    0.000562
    15  N   -0.433153
    16  C    0.168379
    17  C   -0.176499
    18  C   -0.004363
    19  C    0.148635
    20  C    0.184416
    21  C    0.011210
    22  O   -0.251034
    23  C    0.167751
    24  N   -0.341027
    25  C    0.041337
    26  C   -0.013132
    27  C   -0.013972
    28  C    0.074421
    29  C    0.117045
    30  C    0.046420
    31  C    0.049177
    32  N   -0.310546
    33  C    0.080464
    34  C   -0.169251
    35  C    0.008426
    36  C    0.083019
    37  C    0.230720
    38  C    0.046032
    39  O   -0.188209
    40  C    0.030134
    41  C    0.213309
    42  O   -0.258465
    43  O   -0.304360
    44  C    0.300440
    80  Mg   0.837661
    81  C   -0.017481
    82  C   -0.108166
    83  C   -0.059484
    84  C   -0.104250
    85  N   -0.254832
    86  C   -0.050066
    87  C   -0.016590
    88  C   -0.095034
    89  C    0.045934
    90  C    0.169730
    91  C    0.113643
    92  C   -0.003115
    94  N   -0.423645
    95  C    0.163477
    96  C   -0.175001
    97  C   -0.007540
    98  C    0.152344
    99  C    0.172801
   100  C    0.015335
   101  O   -0.252268
   102  C    0.168738
   103  N   -0.350154
   104  C    0.039173
   105  C   -0.007885
   106  C   -0.018727
   107  C    0.089291
   108  C    0.125239
   109  C    0.043719
   110  C    0.049675
   111  N   -0.323879
   112  C    0.078160
   113  C   -0.163669
   114  C    0.001348
   115  C    0.096294
   116  C    0.230844
   117  C    0.041319
   118  O   -0.189912
   119  C    0.034382
   120  C    0.211175
   121  O   -0.250941
   122  O   -0.306050
   123  C    0.298404
 Electronic spatial extent (au):  <R**2>=          98373.1884
 Charge=             -0.0000 electrons
 Dipole moment (field-independent basis, Debye):
    X=              3.0003    Y=              4.5124    Z=              1.0959  Tot=              5.5285
 Quadrupole moment (field-independent basis, Debye-Ang):
   XX=           -524.5050   YY=           -523.9679   ZZ=           -471.6669
   XY=             12.1651   XZ=            -43.5389   YZ=             19.2871
 Traceless Quadrupole moment (field-independent basis, Debye-Ang):
   XX=            -17.7917   YY=            -17.2546   ZZ=             35.0464
   XY=             12.1651   XZ=            -43.5389   YZ=             19.2871
 Octapole moment (field-independent basis, Debye-Ang**2):
  XXX=            148.9762  YYY=            122.1688  ZZZ=            198.3912  XYY=           -191.7312
  XXY=            217.5274  XXZ=            116.8889  XZZ=            225.4367  YZZ=            -65.8985
  YYZ=           -333.1526  XYZ=            -92.6647
 Hexadecapole moment (field-independent basis, Debye-Ang**3):
 XXXX=         -69352.6043 YYYY=         -37573.3610 ZZZZ=         -27866.5581 XXXY=           -232.4630
 XXXZ=          -1453.0560 YYYX=           -818.2404 YYYZ=            173.2750 ZZZX=          -1099.5289
 ZZZY=            586.2042 XXYY=         -17313.6783 XXZZ=         -15487.6328 YYZZ=         -10770.3722
 XXYZ=            187.7455 YYXZ=              6.1451 ZZXY=            130.5874
 N-N= 1.547354745382D+04 E-N=-4.042818368849D+04  KE= 4.028801356373D+03
 Leave Link  601 at Thu Aug 19 20:08:35 2021, MaxMem= 23488102400 cpu:              16.9 elap:               0.8
 (Enter /sw/apps/gaussian-16.0/g16/l9999.exe)
 1\1\GINC-BP1-COMPUTE00115\SP\RCAM-B3LYP TD-FC\def2SVP\C68H72Mg2N8O8\OF
 15641\19-Aug-2021\0\\#p cam-b3lyp/Def2SVP td=(nstates=5)\\TDDFT excite
 d states in gaussian\\0,1\Mg,0,0.,0.,0.\C,0,-0.217,-2.218,2.801\C,0,-1
 .255,2.442,2.026\C,0,-0.245,1.85,-2.564\C,0,0.146,-2.824,-2.037\N,0,-0
 .617,-0.009,2.126\C,0,-0.594,-0.908,3.105\C,0,-0.936,-0.309,4.502\C,0,
 -1.773,0.964,4.032\C,0,-1.155,1.168,2.66\C,0,-3.263,0.685,3.863\C,0,0.
 345,0.11,5.299\C,0,0.124,0.397,6.787\H,0,1.168,0.033,7.733\N,0,-0.185,
 1.961,-0.152\C,0,-0.703,2.8,0.777\C,0,-0.62,4.156,0.193\C,0,-0.187,4.0
 15,-1.225\C,0,-0.214,2.583,-1.38\C,0,-0.887,5.406,0.974\C,0,0.181,5.01
 3,-2.277\O,0,0.303,4.69,-3.508\C,0,0.31,6.414,-1.837\N,0,-0.265,-0.413
 ,-2.029\C,0,-0.279,0.569,-2.937\C,0,-0.196,0.024,-4.332\C,0,0.124,-1.5
 33,-4.18\C,0,0.086,-1.632,-2.635\C,0,-1.451,0.205,-5.197\C,0,1.373,-2.
 07,-4.923\C,0,2.626,-1.49,-4.306\N,0,0.15,-2.144,0.303\C,0,0.173,-3.13
 6,-0.688\C,0,0.173,-4.438,0.004\C,0,0.133,-4.111,1.358\C,0,0.083,-2.69
 5,1.502\C,0,0.149,-5.715,-0.623\C,0,0.096,-4.629,2.716\O,0,0.208,-5.74
 7,3.221\C,0,-0.255,-3.428,3.701\C,0,0.717,-3.482,4.848\O,0,1.931,-3.25
 5,4.669\O,0,0.038,-3.556,6.003\C,0,0.943,-3.583,7.183\H,0,-1.859,3.22,
 2.497\H,0,-0.218,2.453,-3.474\H,0,0.276,-3.747,-2.605\H,0,-1.554,-0.94
 9,5.132\H,0,-1.585,1.831,4.665\H,0,-3.484,-0.377,3.969\H,0,-3.511,1.02
 7,2.858\H,0,-3.852,1.301,4.543\H,0,0.669,1.096,4.966\H,0,1.13,-0.639,5
 .189\H,0,-0.844,0.026,7.125\H,0,0.062,1.477,6.921\H,0,-1.344,5.186,1.9
 38\H,0,-1.651,5.963,0.432\H,0,0.007,6.02,1.084\H,0,-0.635,6.744,-1.405
 \H,0,0.665,6.97,-2.704\H,0,1.048,6.466,-1.036\H,0,0.608,0.501,-4.891\H
 ,0,-0.692,-2.156,-4.547\H,0,-1.267,0.74,-6.129\H,0,-2.204,0.714,-4.596
 \H,0,-1.967,-0.72,-5.453\H,0,1.356,-1.759,-5.967\H,0,1.452,-3.157,-4.9
 02\H,0,2.714,-0.522,-4.798\H,0,3.487,-2.121,-4.529\H,0,2.495,-1.303,-3
 .24\H,0,0.867,-6.333,-0.084\H,0,0.404,-5.642,-1.68\H,0,-0.891,-5.999,-
 0.463\H,0,-1.283,-3.581,4.028\H,0,0.698,-4.478,7.755\H,0,0.833,-2.619,
 7.68\H,0,2.,-3.754,6.976\Mg,0,8.9417,0.80796,0.67209\C,0,8.39718,4.346
 93,0.91345\C,0,8.28693,1.08563,-2.66389\C,0,8.97075,-2.36037,0.50383\C
 ,0,8.42672,0.63426,4.11452\N,0,8.4225,2.54549,-0.59427\C,0,8.30447,3.8
 5089,-0.40366\C,0,8.15408,4.68023,-1.70717\C,0,7.56505,3.52829,-2.6584
 7\C,0,8.15293,2.30643,-1.95552\C,0,6.04975,3.42413,-2.61002\C,0,9.5305
 6,5.21509,-2.23748\C,0,9.42823,6.28501,-3.32677\H,0,10.42263,7.35421,-
 3.34781\N,0,9.15251,-0.39308,-0.89368\C,0,8.8596,-0.11136,-2.18058\C,0
 ,9.17284,-1.33123,-2.94082\C,0,9.51861,-2.40976,-1.97546\C,0,9.20022,-
 1.75434,-0.7228\C,0,9.20392,-1.36952,-4.44115\C,0,10.03644,-3.80515,-2
 .15133\O,0,10.03999,-4.64868,-1.18631\C,0,10.45242,-4.18371,-3.5097\N,
 0,8.52196,-0.68164,2.06036\C,0,8.66321,-1.98089,1.74429\C,0,8.5736,-2.
 85408,2.97307\C,0,8.58436,-1.8484,4.21648\C,0,8.58857,-0.50465,3.45509
 \C,0,7.34303,-3.75664,3.05949\C,0,9.66797,-2.08524,5.30384\C,0,11.0397
 4,-1.7999,4.73619\N,0,8.67626,2.22799,2.27867\C,0,8.44986,1.94043,3.64
 254\C,0,8.21725,3.22909,4.3264\C,0,8.30232,4.18262,3.30071\C,0,8.54907
 ,3.53226,2.0615\C,0,7.9209,3.39575,5.70862\C,0,8.22894,5.59054,2.98279
 \O,0,8.12806,6.62548,3.6404\C,0,8.1614,5.74895,1.40268\C,0,9.15098,6.8
 075,0.99928\O,0,10.37107,6.62485,1.15626\O,0,8.51304,7.76328,0.29937\C
 ,0,9.45489,8.83017,-0.13246\H,0,7.87725,1.02333,-3.67244\H,0,9.0794,-3
 .44729,0.5204\H,0,8.35615,0.67326,5.20364\H,0,7.45333,5.50402,-1.64315
 \H,0,7.95657,3.61194,-3.66895\H,0,5.62585,4.06565,-1.85179\H,0,5.83303
 ,2.38653,-2.39213\H,0,5.62667,3.619,-3.59964\H,0,10.03041,4.41827,-2.8
 0314\H,0,10.13488,5.57884,-1.42933\H,0,8.4159,6.70014,-3.40299\H,0,9.5
 9693,5.81028,-4.29641\H,0,8.74531,-0.47287,-4.876\H,0,8.54776,-2.18903
 ,-4.75376\H,0,10.20582,-1.54823,-4.83727\H,0,9.61263,-4.0663,-4.19045\
 H,0,10.87574,-5.18576,-3.4171\H,0,11.22892,-3.48698,-3.84473\H,0,9.432
 2,-3.51043,3.04453\H,0,7.64063,-1.88725,4.78013\H,0,7.5947,-4.82885,3.
 16493\H,0,6.73723,-3.59313,2.17812\H,0,6.64992,-3.51672,3.864\H,0,9.67
 179,-3.13344,5.61272\H,0,9.52174,-1.48687,6.19691\H,0,11.29492,-2.7336
 8,4.22626\H,0,11.7463,-1.58001,5.53398\H,0,10.99496,-1.01099,3.97641\H
 ,0,8.51537,4.23024,6.05608\H,0,8.13605,2.49095,6.27327\H,0,6.84836,3.6
 0073,5.6548\H,0,7.13836,6.02525,1.14457\H,0,9.05549,9.77872,0.2396\H,0
 ,9.54973,8.71906,-1.229\H,0,10.44592,8.83144,0.30607\\Version=ES64L-G1
 6RevA.03\State=1-A\HF=-4069.812292\RMSD=7.722e-09\PG=C01 [X(C68H72Mg2N
 8O8)]\\@


 THE ENLIGHTENED ONE, BECAUSE HE SAW MANKIND DROWNING  
 IN THE GREAT SEA OF BIRTH, DEATH, AND SORROW, LONGED TO SAVE 
 THEM, FOR THIS HE WAS MOVED TO PITY.                         
 BECAUSE HE SAW MEN OF THE WORLD STRAYING IN FALSE PATHS, AND 
 NONE TO GUIDE THEM, FOR THIS HE WAS MOVED TO PITY.           
                     ..................                       
 BECAUSE HE SAW THE MEN OF THE WORLD PLOUGHING THEIR FIELDS,  
 SOWING THE SEED, TRAFFICKING, HUCKSTERING, BUYING, SELLING,  
 AND AT THE END WINNOWING NOTHING BUT BITTERNESS,             
 FOR THIS HE WAS MOVED TO PITY......                   
                   BUDAH'S PITY - UPSAKA SILA SUTRA           
 Job cpu time:       0 days 14 hours 28 minutes  9.7 seconds.
 Elapsed time:       0 days  0 hours 36 minutes 49.9 seconds.
 File lengths (MBytes):  RWF=  13225 Int=      0 D2E=      0 Chk=    574 Scr=      1
 Normal termination of Gaussian 16 at Thu Aug 19 20:08:36 2021.
