 Entering Gaussian System, Link 0=g16
 Initial command:
 /sw/apps/gaussian-16.0/g16/l1.exe "/tmp/Gau-222800.inp" -scrdir="/tmp/"
 Entering Link 1 = /sw/apps/gaussian-16.0/g16/l1.exe PID=    222801.
  
 Copyright (c) 1988,1990,1992,1993,1995,1998,2003,2009,2016,
            Gaussian, Inc.  All Rights Reserved.
  
 This is part of the Gaussian(R) 16 program.  It is based on
 the Gaussian(R) 09 system (copyright 2009, Gaussian, Inc.),
 the Gaussian(R) 03 system (copyright 2003, Gaussian, Inc.),
 the Gaussian(R) 98 system (copyright 1998, Gaussian, Inc.),
 the Gaussian(R) 94 system (copyright 1995, Gaussian, Inc.),
 the Gaussian 92(TM) system (copyright 1992, Gaussian, Inc.),
 the Gaussian 90(TM) system (copyright 1990, Gaussian, Inc.),
 the Gaussian 88(TM) system (copyright 1988, Gaussian, Inc.),
 the Gaussian 86(TM) system (copyright 1986, Carnegie Mellon
 University), and the Gaussian 82(TM) system (copyright 1983,
 Carnegie Mellon University). Gaussian is a federally registered
 trademark of Gaussian, Inc.
  
 This software contains proprietary and confidential information,
 including trade secrets, belonging to Gaussian, Inc.
  
 This software is provided under written license and may be
 used, copied, transmitted, or stored only in accord with that
 written license.
  
 The following legend is applicable only to US Government
 contracts under FAR:
  
                    RESTRICTED RIGHTS LEGEND
  
 Use, reproduction and disclosure by the US Government is
 subject to restrictions as set forth in subparagraphs (a)
 and (c) of the Commercial Computer Software - Restricted
 Rights clause in FAR 52.227-19.
  
 Gaussian, Inc.
 340 Quinnipiac St., Bldg. 40, Wallingford CT 06492
  
  
 ---------------------------------------------------------------
 Warning -- This program may not be used in any manner that
 competes with the business of Gaussian, Inc. or will provide
 assistance to any competitor of Gaussian, Inc.  The licensee
 of this program is prohibited from giving any competitor of
 Gaussian, Inc. access to this program.  By using this program,
 the user acknowledges that Gaussian, Inc. is engaged in the
 business of creating and licensing software in the field of
 computational chemistry and represents and warrants to the
 licensee that it is not a competitor of Gaussian, Inc. and that
 it will not use this program in any manner prohibited above.
 ---------------------------------------------------------------
  

 Cite this work as:
 Gaussian 16, Revision A.03,
 M. J. Frisch, G. W. Trucks, H. B. Schlegel, G. E. Scuseria, 
 M. A. Robb, J. R. Cheeseman, G. Scalmani, V. Barone, 
 G. A. Petersson, H. Nakatsuji, X. Li, M. Caricato, A. V. Marenich, 
 J. Bloino, B. G. Janesko, R. Gomperts, B. Mennucci, H. P. Hratchian, 
 J. V. Ortiz, A. F. Izmaylov, J. L. Sonnenberg, D. Williams-Young, 
 F. Ding, F. Lipparini, F. Egidi, J. Goings, B. Peng, A. Petrone, 
 T. Henderson, D. Ranasinghe, V. G. Zakrzewski, J. Gao, N. Rega, 
 G. Zheng, W. Liang, M. Hada, M. Ehara, K. Toyota, R. Fukuda, 
 J. Hasegawa, M. Ishida, T. Nakajima, Y. Honda, O. Kitao, H. Nakai, 
 T. Vreven, K. Throssell, J. A. Montgomery, Jr., J. E. Peralta, 
 F. Ogliaro, M. J. Bearpark, J. J. Heyd, E. N. Brothers, K. N. Kudin, 
 V. N. Staroverov, T. A. Keith, R. Kobayashi, J. Normand, 
 K. Raghavachari, A. P. Rendell, J. C. Burant, S. S. Iyengar, 
 J. Tomasi, M. Cossi, J. M. Millam, M. Klene, C. Adamo, R. Cammi, 
 J. W. Ochterski, R. L. Martin, K. Morokuma, O. Farkas, 
 J. B. Foresman, and D. J. Fox, Gaussian, Inc., Wallingford CT, 2016.
 
 ******************************************
 Gaussian 16:  ES64L-G16RevA.03 25-Dec-2016
                19-Aug-2021 
 ******************************************
 %nproc=24
 Will use up to   24 processors via shared memory.
 %mem=175gb
 -----------------------------------
 #p cam-b3lyp/Def2SVP td=(nstates=5)
 -----------------------------------
 1/38=1,172=1/1;
 2/12=2,17=6,18=5,40=1/2;
 3/5=43,7=101,11=9,25=1,30=1,74=-40/1,2,3,8;
 4//1;
 5/5=2,38=5/2;
 8/6=1,10=1,108=5/1;
 9/41=5,42=1,70=2/14;
 6/7=2,8=2,9=2,10=2/1;
 99/5=1,9=1/99;
 Leave Link    1 at Thu Aug 19 17:38:49 2021, MaxMem= 23488102400 cpu:               0.9 elap:               0.0
 (Enter /sw/apps/gaussian-16.0/g16/l101.exe)
 --------------------------------
 TDDFT excited states in gaussian
 --------------------------------
 Symbolic Z-matrix:
 Charge =  0 Multiplicity = 1
 Mg                    0.        0.        0. 
 C                    -0.217    -2.218     2.801 
 C                    -1.255     2.442     2.026 
 C                    -0.245     1.85     -2.564 
 C                     0.146    -2.824    -2.037 
 N                    -0.617    -0.009     2.126 
 C                    -0.594    -0.908     3.105 
 C                    -0.936    -0.309     4.502 
 C                    -1.773     0.964     4.032 
 C                    -1.155     1.168     2.66 
 C                    -3.263     0.685     3.863 
 C                     0.345     0.11      5.299 
 C                     0.124     0.397     6.787 
 H                     1.168     0.033     7.733 
 N                    -0.185     1.961    -0.152 
 C                    -0.703     2.8       0.777 
 C                    -0.62      4.156     0.193 
 C                    -0.187     4.015    -1.225 
 C                    -0.214     2.583    -1.38 
 C                    -0.887     5.406     0.974 
 C                     0.181     5.013    -2.277 
 O                     0.303     4.69     -3.508 
 C                     0.31      6.414    -1.837 
 N                    -0.265    -0.413    -2.029 
 C                    -0.279     0.569    -2.937 
 C                    -0.196     0.024    -4.332 
 C                     0.124    -1.533    -4.18 
 C                     0.086    -1.632    -2.635 
 C                    -1.451     0.205    -5.197 
 C                     1.373    -2.07     -4.923 
 C                     2.626    -1.49     -4.306 
 N                     0.15     -2.144     0.303 
 C                     0.173    -3.136    -0.688 
 C                     0.173    -4.438     0.004 
 C                     0.133    -4.111     1.358 
 C                     0.083    -2.695     1.502 
 C                     0.149    -5.715    -0.623 
 C                     0.096    -4.629     2.716 
 O                     0.208    -5.747     3.221 
 C                    -0.255    -3.428     3.701 
 C                     0.717    -3.482     4.848 
 O                     1.931    -3.255     4.669 
 O                     0.038    -3.556     6.003 
 C                     0.943    -3.583     7.183 
 H                    -1.859     3.22      2.497 
 H                    -0.218     2.453    -3.474 
 H                     0.276    -3.747    -2.605 
 H                    -1.554    -0.949     5.132 
 H                    -1.585     1.831     4.665 
 H                    -3.484    -0.377     3.969 
 H                    -3.511     1.027     2.858 
 H                    -3.852     1.301     4.543 
 H                     0.669     1.096     4.966 
 H                     1.13     -0.639     5.189 
 H                    -0.844     0.026     7.125 
 H                     0.062     1.477     6.921 
 H                    -1.344     5.186     1.938 
 H                    -1.651     5.963     0.432 
 H                     0.007     6.02      1.084 
 H                    -0.635     6.744    -1.405 
 H                     0.665     6.97     -2.704 
 H                     1.048     6.466    -1.036 
 H                     0.608     0.501    -4.891 
 H                    -0.692    -2.156    -4.547 
 H                    -1.267     0.74     -6.129 
 H                    -2.204     0.714    -4.596 
 H                    -1.967    -0.72     -5.453 
 H                     1.356    -1.759    -5.967 
 H                     1.452    -3.157    -4.902 
 H                     2.714    -0.522    -4.798 
 H                     3.487    -2.121    -4.529 
 H                     2.495    -1.303    -3.24 
 H                     0.867    -6.333    -0.084 
 H                     0.404    -5.642    -1.68 
 H                    -0.891    -5.999    -0.463 
 H                    -1.283    -3.581     4.028 
 H                     0.698    -4.478     7.755 
 H                     0.833    -2.619     7.68 
 H                     2.       -3.754     6.976 
 Mg                    8.94228   0.79783   0.6764 
 C                     8.98832   1.0037   -2.90613 
 C                     8.38693  -2.54951   0.32784 
 C                     8.44837   0.65455   3.80737 
 C                     8.35996   4.23352   0.72774 
 N                     8.73493  -0.48948  -1.11024 
 C                     8.83223  -0.31076  -2.41903 
 C                     8.83861  -1.62273  -3.24863 
 C                     8.07961  -2.57368  -2.20054 
 C                     8.4476   -1.85268  -0.90538 
 C                     6.56748  -2.54681  -2.34911 
 C                     10.2916  -2.13678  -3.54292 
 C                     10.38238  -3.23572  -4.60398 
 H                     11.54033  -3.25034  -5.49358 
 N                     8.97203  -0.75531   1.91149 
 C                     8.74696  -2.04854   1.59817 
 C                     8.86388  -2.7946    2.86067 
 C                     9.01337  -1.81591   3.97176 
 C                     8.79133  -0.57321   3.26008 
 C                     8.90812  -4.29397   2.9187 
 C                     9.29522  -1.97331   5.43531 
 O                     9.14617  -1.00183   6.25802 
 C                     9.66075  -3.3224    5.89117 
 N                     8.26321   2.19124   2.0619 
 C                     8.19148   1.88736   3.36974 
 C                     7.94216   3.12141   4.20361 
 C                     8.10283   4.35702   3.20109 
 C                     8.33967   3.58538   1.88432 
 C                     6.57806   3.19663   4.88914 
 C                     9.11771   5.46207   3.60304 
 C                     10.52521   4.91255   3.55442 
 N                     8.8944    2.38926  -0.78411 
 C                     8.6054    3.75183  -0.55175 
 C                     8.58039   4.42218  -1.86797 
 C                     8.83584   3.3905   -2.78387 
 C                     8.9879    2.16014  -2.08918 
 C                     8.2974    5.79853  -2.09531 
 C                     9.00091   3.06063  -4.18124 
 O                     9.06412   3.70865  -5.22519 
 C                     8.98154   1.47852  -4.33271 
 C                     10.13805   1.08159  -5.20874 
 O                     11.30884   1.25799  -4.82827 
 O                     9.67659   0.36496  -6.24983 
 C                     10.7878  -0.06116  -7.14171 
 H                     7.98603  -3.56349   0.33164 
 H                     8.37526   0.68115   4.89706 
 H                     8.28236   5.32114   0.66662 
 H                     8.28321  -1.57545  -4.17765 
 H                     8.49296  -3.57888  -2.20804 
 H                     6.24566  -1.79992  -3.05955 
 H                     6.17901  -2.32411  -1.36394 
 H                     6.19571  -3.54406  -2.60132 
 H                     10.66003  -2.6888   -2.66869 
 H                     10.93703  -1.32263  -3.80976 
 H                     9.4539   -3.33009  -5.18014 
 H                     10.48298  -4.19905  -4.09812 
 H                     8.61018  -4.74248   1.96294 
 H                     8.1295   -4.60988   3.62142 
 H                     9.87176  -4.67385   3.26476 
 H                     8.86113  -4.01638   5.64326 
 H                     9.91099  -3.2158    6.94848 
 H                     10.54631  -3.65131   5.33599 
 H                     8.67916   3.21062   4.99227 
 H                     7.1583    4.90695   3.07753 
 H                     6.64723   3.31408   5.98709 
 H                     6.01947   2.30517   4.63651 
 H                     5.92364   3.98893   4.5297 
 H                     8.94374   5.77907   4.63425 
 H                     9.06075   6.34822   2.97975 
 H                     10.62894   4.41369   4.52265 
 H                     11.24776   5.71897   3.44647 
 H                     10.62182   4.14611   2.77668 
 H                     9.01721   6.14826  -2.82337 
 H                     8.35219   6.37329  -1.17313 
 H                     7.27443   5.72729  -2.47443 
 H                     8.02192   1.20319  -4.77191 
 H                     10.54613   0.2976   -8.14698 
 H                     10.87749  -1.15529  -7.00538 
 H                     11.75944   0.39194  -6.98336 
 
 ITRead=  0  0  0  0  0  0  0  0  0  0  0  0  0  0  0  0  0  0  0  0
 ITRead=  0  0  0  0  0  0  0  0  0  0  0  0  0  0  0  0  0  0  0  0
 ITRead=  0  0  0  0  0  0  0  0  0  0  0  0  0  0  0  0  0  0  0  0
 ITRead=  0  0  0  0  0  0  0  0  0  0  0  0  0  0  0  0  0  0  0  0
 ITRead=  0  0  0  0  0  0  0  0  0  0  0  0  0  0  0  0  0  0  0  0
 ITRead=  0  0  0  0  0  0  0  0  0  0  0  0  0  0  0  0  0  0  0  0
 ITRead=  0  0  0  0  0  0  0  0  0  0  0  0  0  0  0  0  0  0  0  0
 ITRead=  0  0  0  0  0  0  0  0  0  0  0  0  0  0  0  0  0  0
 MicOpt= -1 -1 -1 -1 -1 -1 -1 -1 -1 -1 -1 -1 -1 -1 -1 -1 -1 -1 -1 -1
 MicOpt= -1 -1 -1 -1 -1 -1 -1 -1 -1 -1 -1 -1 -1 -1 -1 -1 -1 -1 -1 -1
 MicOpt= -1 -1 -1 -1 -1 -1 -1 -1 -1 -1 -1 -1 -1 -1 -1 -1 -1 -1 -1 -1
 MicOpt= -1 -1 -1 -1 -1 -1 -1 -1 -1 -1 -1 -1 -1 -1 -1 -1 -1 -1 -1 -1
 MicOpt= -1 -1 -1 -1 -1 -1 -1 -1 -1 -1 -1 -1 -1 -1 -1 -1 -1 -1 -1 -1
 MicOpt= -1 -1 -1 -1 -1 -1 -1 -1 -1 -1 -1 -1 -1 -1 -1 -1 -1 -1 -1 -1
 MicOpt= -1 -1 -1 -1 -1 -1 -1 -1 -1 -1 -1 -1 -1 -1 -1 -1 -1 -1 -1 -1
 MicOpt= -1 -1 -1 -1 -1 -1 -1 -1 -1 -1 -1 -1 -1 -1 -1 -1 -1 -1
 NAtoms=    158 NQM=      158 NQMF=       0 NMMI=      0 NMMIF=      0
                NMic=       0 NMicF=      0.
                    Isotopes and Nuclear Properties:
 (Nuclear quadrupole moments (NQMom) in fm**2, nuclear magnetic moments (NMagM)
  in nuclear magnetons)

  Atom         1           2           3           4           5           6           7           8           9          10
 IAtWgt=          24          12          12          12          12          14          12          12          12          12
 AtmWgt=  23.9850450  12.0000000  12.0000000  12.0000000  12.0000000  14.0030740  12.0000000  12.0000000  12.0000000  12.0000000
 NucSpn=           0           0           0           0           0           2           0           0           0           0
 AtZEff=  -0.0000000  -0.0000000  -0.0000000  -0.0000000  -0.0000000  -0.0000000  -0.0000000  -0.0000000  -0.0000000  -0.0000000
 NQMom=    0.0000000   0.0000000   0.0000000   0.0000000   0.0000000   2.0440000   0.0000000   0.0000000   0.0000000   0.0000000
 NMagM=    0.0000000   0.0000000   0.0000000   0.0000000   0.0000000   0.4037610   0.0000000   0.0000000   0.0000000   0.0000000
 AtZNuc=  12.0000000   6.0000000   6.0000000   6.0000000   6.0000000   7.0000000   6.0000000   6.0000000   6.0000000   6.0000000

  Atom        11          12          13          14          15          16          17          18          19          20
 IAtWgt=          12          12          12           1          14          12          12          12          12          12
 AtmWgt=  12.0000000  12.0000000  12.0000000   1.0078250  14.0030740  12.0000000  12.0000000  12.0000000  12.0000000  12.0000000
 NucSpn=           0           0           0           1           2           0           0           0           0           0
 AtZEff=  -0.0000000  -0.0000000  -0.0000000  -0.0000000  -0.0000000  -0.0000000  -0.0000000  -0.0000000  -0.0000000  -0.0000000
 NQMom=    0.0000000   0.0000000   0.0000000   0.0000000   2.0440000   0.0000000   0.0000000   0.0000000   0.0000000   0.0000000
 NMagM=    0.0000000   0.0000000   0.0000000   2.7928460   0.4037610   0.0000000   0.0000000   0.0000000   0.0000000   0.0000000
 AtZNuc=   6.0000000   6.0000000   6.0000000   1.0000000   7.0000000   6.0000000   6.0000000   6.0000000   6.0000000   6.0000000

  Atom        21          22          23          24          25          26          27          28          29          30
 IAtWgt=          12          16          12          14          12          12          12          12          12          12
 AtmWgt=  12.0000000  15.9949146  12.0000000  14.0030740  12.0000000  12.0000000  12.0000000  12.0000000  12.0000000  12.0000000
 NucSpn=           0           0           0           2           0           0           0           0           0           0
 AtZEff=  -0.0000000  -0.0000000  -0.0000000  -0.0000000  -0.0000000  -0.0000000  -0.0000000  -0.0000000  -0.0000000  -0.0000000
 NQMom=    0.0000000   0.0000000   0.0000000   2.0440000   0.0000000   0.0000000   0.0000000   0.0000000   0.0000000   0.0000000
 NMagM=    0.0000000   0.0000000   0.0000000   0.4037610   0.0000000   0.0000000   0.0000000   0.0000000   0.0000000   0.0000000
 AtZNuc=   6.0000000   8.0000000   6.0000000   7.0000000   6.0000000   6.0000000   6.0000000   6.0000000   6.0000000   6.0000000

  Atom        31          32          33          34          35          36          37          38          39          40
 IAtWgt=          12          14          12          12          12          12          12          12          16          12
 AtmWgt=  12.0000000  14.0030740  12.0000000  12.0000000  12.0000000  12.0000000  12.0000000  12.0000000  15.9949146  12.0000000
 NucSpn=           0           2           0           0           0           0           0           0           0           0
 AtZEff=  -0.0000000  -0.0000000  -0.0000000  -0.0000000  -0.0000000  -0.0000000  -0.0000000  -0.0000000  -0.0000000  -0.0000000
 NQMom=    0.0000000   2.0440000   0.0000000   0.0000000   0.0000000   0.0000000   0.0000000   0.0000000   0.0000000   0.0000000
 NMagM=    0.0000000   0.4037610   0.0000000   0.0000000   0.0000000   0.0000000   0.0000000   0.0000000   0.0000000   0.0000000
 AtZNuc=   6.0000000   7.0000000   6.0000000   6.0000000   6.0000000   6.0000000   6.0000000   6.0000000   8.0000000   6.0000000

  Atom        41          42          43          44          45          46          47          48          49          50
 IAtWgt=          12          16          16          12           1           1           1           1           1           1
 AtmWgt=  12.0000000  15.9949146  15.9949146  12.0000000   1.0078250   1.0078250   1.0078250   1.0078250   1.0078250   1.0078250
 NucSpn=           0           0           0           0           1           1           1           1           1           1
 AtZEff=  -0.0000000  -0.0000000  -0.0000000  -0.0000000  -0.0000000  -0.0000000  -0.0000000  -0.0000000  -0.0000000  -0.0000000
 NQMom=    0.0000000   0.0000000   0.0000000   0.0000000   0.0000000   0.0000000   0.0000000   0.0000000   0.0000000   0.0000000
 NMagM=    0.0000000   0.0000000   0.0000000   0.0000000   2.7928460   2.7928460   2.7928460   2.7928460   2.7928460   2.7928460
 AtZNuc=   6.0000000   8.0000000   8.0000000   6.0000000   1.0000000   1.0000000   1.0000000   1.0000000   1.0000000   1.0000000

  Atom        51          52          53          54          55          56          57          58          59          60
 IAtWgt=           1           1           1           1           1           1           1           1           1           1
 AtmWgt=   1.0078250   1.0078250   1.0078250   1.0078250   1.0078250   1.0078250   1.0078250   1.0078250   1.0078250   1.0078250
 NucSpn=           1           1           1           1           1           1           1           1           1           1
 AtZEff=  -0.0000000  -0.0000000  -0.0000000  -0.0000000  -0.0000000  -0.0000000  -0.0000000  -0.0000000  -0.0000000  -0.0000000
 NQMom=    0.0000000   0.0000000   0.0000000   0.0000000   0.0000000   0.0000000   0.0000000   0.0000000   0.0000000   0.0000000
 NMagM=    2.7928460   2.7928460   2.7928460   2.7928460   2.7928460   2.7928460   2.7928460   2.7928460   2.7928460   2.7928460
 AtZNuc=   1.0000000   1.0000000   1.0000000   1.0000000   1.0000000   1.0000000   1.0000000   1.0000000   1.0000000   1.0000000

  Atom        61          62          63          64          65          66          67          68          69          70
 IAtWgt=           1           1           1           1           1           1           1           1           1           1
 AtmWgt=   1.0078250   1.0078250   1.0078250   1.0078250   1.0078250   1.0078250   1.0078250   1.0078250   1.0078250   1.0078250
 NucSpn=           1           1           1           1           1           1           1           1           1           1
 AtZEff=  -0.0000000  -0.0000000  -0.0000000  -0.0000000  -0.0000000  -0.0000000  -0.0000000  -0.0000000  -0.0000000  -0.0000000
 NQMom=    0.0000000   0.0000000   0.0000000   0.0000000   0.0000000   0.0000000   0.0000000   0.0000000   0.0000000   0.0000000
 NMagM=    2.7928460   2.7928460   2.7928460   2.7928460   2.7928460   2.7928460   2.7928460   2.7928460   2.7928460   2.7928460
 AtZNuc=   1.0000000   1.0000000   1.0000000   1.0000000   1.0000000   1.0000000   1.0000000   1.0000000   1.0000000   1.0000000

  Atom        71          72          73          74          75          76          77          78          79          80
 IAtWgt=           1           1           1           1           1           1           1           1           1          24
 AtmWgt=   1.0078250   1.0078250   1.0078250   1.0078250   1.0078250   1.0078250   1.0078250   1.0078250   1.0078250  23.9850450
 NucSpn=           1           1           1           1           1           1           1           1           1           0
 AtZEff=  -0.0000000  -0.0000000  -0.0000000  -0.0000000  -0.0000000  -0.0000000  -0.0000000  -0.0000000  -0.0000000  -0.0000000
 NQMom=    0.0000000   0.0000000   0.0000000   0.0000000   0.0000000   0.0000000   0.0000000   0.0000000   0.0000000   0.0000000
 NMagM=    2.7928460   2.7928460   2.7928460   2.7928460   2.7928460   2.7928460   2.7928460   2.7928460   2.7928460   0.0000000
 AtZNuc=   1.0000000   1.0000000   1.0000000   1.0000000   1.0000000   1.0000000   1.0000000   1.0000000   1.0000000  12.0000000

  Atom        81          82          83          84          85          86          87          88          89          90
 IAtWgt=          12          12          12          12          14          12          12          12          12          12
 AtmWgt=  12.0000000  12.0000000  12.0000000  12.0000000  14.0030740  12.0000000  12.0000000  12.0000000  12.0000000  12.0000000
 NucSpn=           0           0           0           0           2           0           0           0           0           0
 AtZEff=  -0.0000000  -0.0000000  -0.0000000  -0.0000000  -0.0000000  -0.0000000  -0.0000000  -0.0000000  -0.0000000  -0.0000000
 NQMom=    0.0000000   0.0000000   0.0000000   0.0000000   2.0440000   0.0000000   0.0000000   0.0000000   0.0000000   0.0000000
 NMagM=    0.0000000   0.0000000   0.0000000   0.0000000   0.4037610   0.0000000   0.0000000   0.0000000   0.0000000   0.0000000
 AtZNuc=   6.0000000   6.0000000   6.0000000   6.0000000   7.0000000   6.0000000   6.0000000   6.0000000   6.0000000   6.0000000

  Atom        91          92          93          94          95          96          97          98          99         100
 IAtWgt=          12          12           1          14          12          12          12          12          12          12
 AtmWgt=  12.0000000  12.0000000   1.0078250  14.0030740  12.0000000  12.0000000  12.0000000  12.0000000  12.0000000  12.0000000
 NucSpn=           0           0           1           2           0           0           0           0           0           0
 AtZEff=  -0.0000000  -0.0000000  -0.0000000  -0.0000000  -0.0000000  -0.0000000  -0.0000000  -0.0000000  -0.0000000  -0.0000000
 NQMom=    0.0000000   0.0000000   0.0000000   2.0440000   0.0000000   0.0000000   0.0000000   0.0000000   0.0000000   0.0000000
 NMagM=    0.0000000   0.0000000   2.7928460   0.4037610   0.0000000   0.0000000   0.0000000   0.0000000   0.0000000   0.0000000
 AtZNuc=   6.0000000   6.0000000   1.0000000   7.0000000   6.0000000   6.0000000   6.0000000   6.0000000   6.0000000   6.0000000

  Atom       101         102         103         104         105         106         107         108         109         110
 IAtWgt=          16          12          14          12          12          12          12          12          12          12
 AtmWgt=  15.9949146  12.0000000  14.0030740  12.0000000  12.0000000  12.0000000  12.0000000  12.0000000  12.0000000  12.0000000
 NucSpn=           0           0           2           0           0           0           0           0           0           0
 AtZEff=  -0.0000000  -0.0000000  -0.0000000  -0.0000000  -0.0000000  -0.0000000  -0.0000000  -0.0000000  -0.0000000  -0.0000000
 NQMom=    0.0000000   0.0000000   2.0440000   0.0000000   0.0000000   0.0000000   0.0000000   0.0000000   0.0000000   0.0000000
 NMagM=    0.0000000   0.0000000   0.4037610   0.0000000   0.0000000   0.0000000   0.0000000   0.0000000   0.0000000   0.0000000
 AtZNuc=   8.0000000   6.0000000   7.0000000   6.0000000   6.0000000   6.0000000   6.0000000   6.0000000   6.0000000   6.0000000

  Atom       111         112         113         114         115         116         117         118         119         120
 IAtWgt=          14          12          12          12          12          12          12          16          12          12
 AtmWgt=  14.0030740  12.0000000  12.0000000  12.0000000  12.0000000  12.0000000  12.0000000  15.9949146  12.0000000  12.0000000
 NucSpn=           2           0           0           0           0           0           0           0           0           0
 AtZEff=  -0.0000000  -0.0000000  -0.0000000  -0.0000000  -0.0000000  -0.0000000  -0.0000000  -0.0000000  -0.0000000  -0.0000000
 NQMom=    2.0440000   0.0000000   0.0000000   0.0000000   0.0000000   0.0000000   0.0000000   0.0000000   0.0000000   0.0000000
 NMagM=    0.4037610   0.0000000   0.0000000   0.0000000   0.0000000   0.0000000   0.0000000   0.0000000   0.0000000   0.0000000
 AtZNuc=   7.0000000   6.0000000   6.0000000   6.0000000   6.0000000   6.0000000   6.0000000   8.0000000   6.0000000   6.0000000

  Atom       121         122         123         124         125         126         127         128         129         130
 IAtWgt=          16          16          12           1           1           1           1           1           1           1
 AtmWgt=  15.9949146  15.9949146  12.0000000   1.0078250   1.0078250   1.0078250   1.0078250   1.0078250   1.0078250   1.0078250
 NucSpn=           0           0           0           1           1           1           1           1           1           1
 AtZEff=  -0.0000000  -0.0000000  -0.0000000  -0.0000000  -0.0000000  -0.0000000  -0.0000000  -0.0000000  -0.0000000  -0.0000000
 NQMom=    0.0000000   0.0000000   0.0000000   0.0000000   0.0000000   0.0000000   0.0000000   0.0000000   0.0000000   0.0000000
 NMagM=    0.0000000   0.0000000   0.0000000   2.7928460   2.7928460   2.7928460   2.7928460   2.7928460   2.7928460   2.7928460
 AtZNuc=   8.0000000   8.0000000   6.0000000   1.0000000   1.0000000   1.0000000   1.0000000   1.0000000   1.0000000   1.0000000

  Atom       131         132         133         134         135         136         137         138         139         140
 IAtWgt=           1           1           1           1           1           1           1           1           1           1
 AtmWgt=   1.0078250   1.0078250   1.0078250   1.0078250   1.0078250   1.0078250   1.0078250   1.0078250   1.0078250   1.0078250
 NucSpn=           1           1           1           1           1           1           1           1           1           1
 AtZEff=  -0.0000000  -0.0000000  -0.0000000  -0.0000000  -0.0000000  -0.0000000  -0.0000000  -0.0000000  -0.0000000  -0.0000000
 NQMom=    0.0000000   0.0000000   0.0000000   0.0000000   0.0000000   0.0000000   0.0000000   0.0000000   0.0000000   0.0000000
 NMagM=    2.7928460   2.7928460   2.7928460   2.7928460   2.7928460   2.7928460   2.7928460   2.7928460   2.7928460   2.7928460
 AtZNuc=   1.0000000   1.0000000   1.0000000   1.0000000   1.0000000   1.0000000   1.0000000   1.0000000   1.0000000   1.0000000

  Atom       141         142         143         144         145         146         147         148         149         150
 IAtWgt=           1           1           1           1           1           1           1           1           1           1
 AtmWgt=   1.0078250   1.0078250   1.0078250   1.0078250   1.0078250   1.0078250   1.0078250   1.0078250   1.0078250   1.0078250
 NucSpn=           1           1           1           1           1           1           1           1           1           1
 AtZEff=  -0.0000000  -0.0000000  -0.0000000  -0.0000000  -0.0000000  -0.0000000  -0.0000000  -0.0000000  -0.0000000  -0.0000000
 NQMom=    0.0000000   0.0000000   0.0000000   0.0000000   0.0000000   0.0000000   0.0000000   0.0000000   0.0000000   0.0000000
 NMagM=    2.7928460   2.7928460   2.7928460   2.7928460   2.7928460   2.7928460   2.7928460   2.7928460   2.7928460   2.7928460
 AtZNuc=   1.0000000   1.0000000   1.0000000   1.0000000   1.0000000   1.0000000   1.0000000   1.0000000   1.0000000   1.0000000

  Atom       151         152         153         154         155         156         157         158
 IAtWgt=           1           1           1           1           1           1           1           1
 AtmWgt=   1.0078250   1.0078250   1.0078250   1.0078250   1.0078250   1.0078250   1.0078250   1.0078250
 NucSpn=           1           1           1           1           1           1           1           1
 AtZEff=  -0.0000000  -0.0000000  -0.0000000  -0.0000000  -0.0000000  -0.0000000  -0.0000000  -0.0000000
 NQMom=    0.0000000   0.0000000   0.0000000   0.0000000   0.0000000   0.0000000   0.0000000   0.0000000
 NMagM=    2.7928460   2.7928460   2.7928460   2.7928460   2.7928460   2.7928460   2.7928460   2.7928460
 AtZNuc=   1.0000000   1.0000000   1.0000000   1.0000000   1.0000000   1.0000000   1.0000000   1.0000000
 Leave Link  101 at Thu Aug 19 17:38:49 2021, MaxMem= 23488102400 cpu:               4.9 elap:               0.2
 (Enter /sw/apps/gaussian-16.0/g16/l202.exe)
 Stoichiometry    C68H72Mg2N8O8
 Framework group  C1[X(C68H72Mg2N8O8)]
 Deg. of freedom   468
 Full point group                 C1      NOp   1
 Largest Abelian subgroup         C1      NOp   1
 Largest concise Abelian subgroup C1      NOp   1
                         Standard orientation:                         
 ---------------------------------------------------------------------
 Center     Atomic      Atomic             Coordinates (Angstroms)
 Number     Number       Type             X           Y           Z
 ---------------------------------------------------------------------
      1         12           0        4.098401   -1.660539    0.071418
      2          6           0        5.487589    1.401627   -1.155575
      3          6           0        5.468135   -0.894538    3.101292
      4          6           0        3.274503   -4.560568    1.055109
      5          6           0        3.833344   -2.697391   -3.245258
      6          7           0        5.301840    0.064779    0.761099
      7          6           0        5.714750    1.200781    0.207768
      8          6           0        6.345698    2.192517    1.230380
      9          6           0        6.786320    1.149869    2.353205
     10          6           0        5.769823    0.055204    2.080504
     11          6           0        8.186729    0.583279    2.142655
     12          6           0        5.302364    3.221591    1.781916
     13          6           0        5.897518    4.419371    2.527886
     14          1           0        5.250488    5.716350    2.399253
     15          7           0        3.903852   -2.386536    1.898418
     16          6           0        4.524244   -1.940902    3.017262
     17          6           0        4.051201   -2.807418    4.118198
     18          6           0        3.252624   -3.911572    3.517188
     19          6           0        3.469722   -3.675454    2.112733
     20          6           0        4.323938   -2.524091    5.563567
     21          6           0        2.433695   -5.012097    4.114125
     22          8           0        2.012793   -5.999924    3.420142
     23          6           0        2.208853   -4.948337    5.569605
     24          7           0        3.823953   -3.473701   -0.925956
     25          6           0        3.409563   -4.564791   -0.272666
     26          6           0        3.014245   -5.654183   -1.224973
     27          6           0        3.014782   -4.992626   -2.678278
     28          6           0        3.518053   -3.579349   -2.294043
     29          6           0        3.913965   -6.897762   -1.230008
     30          6           0        1.710124   -5.111368   -3.505433
     31          6           0        0.613974   -4.297802   -2.854539
     32          7           0        4.400285   -0.760036   -1.880249
     33          6           0        4.253398   -1.382973   -3.128066
     34          6           0        4.670854   -0.405968   -4.150446
     35          6           0        5.049762    0.719058   -3.420659
     36          6           0        4.904634    0.452033   -2.029283
     37          6           0        4.721671   -0.638002   -5.553304
     38          6           0        5.566814    2.076070   -3.491589
     39          8           0        5.793724    2.870951   -4.404918
     40          6           0        5.986350    2.529771   -2.023948
     41          6           0        5.414542    3.901740   -1.791467
     42          8           0        4.181125    4.076675   -1.717680
     43          8           0        6.403636    4.744912   -1.457855
     44          6           0        5.900111    6.117527   -1.184827
     45          1           0        6.045909   -0.875441    4.027442
     46          1           0        2.883611   -5.538038    1.345267
     47          1           0        3.697750   -2.920752   -4.305059
     48          1           0        7.217687    2.732576    0.861062
     49          1           0        6.650598    1.551444    3.357217
     50          1           0        8.601566    0.892567    1.183399
     51          1           0        8.070333   -0.500171    2.175537
     52          1           0        8.838197    0.840150    2.978348
     53          1           0        4.736797    2.760968    2.591867
     54          1           0        4.654690    3.580957    0.981478
     55          1           0        6.969449    4.507841    2.348874
     56          1           0        5.816364    4.229769    3.598243
     57          1           0        5.072295   -1.741793    5.684056
     58          1           0        4.793231   -3.415333    5.979693
     59          1           0        3.412315   -2.296524    6.116277
     60          1           0        3.170585   -4.955832    6.082990
     61          1           0        1.529312   -5.766659    5.805030
     62          1           0        1.738916   -3.994955    5.812855
     63          1           0        2.014740   -6.025088   -1.001713
     64          1           0        3.779381   -5.424923   -3.324174
     65          1           0        3.380004   -7.825371   -1.022326
     66          1           0        4.714560   -6.737419   -0.508462
     67          1           0        4.478335   -7.049895   -2.149660
     68          1           0        1.369866   -6.146040   -3.530426
     69          1           0        1.821677   -4.773945   -4.535944
     70          1           0        0.227275   -4.974959   -2.093780
     71          1           0       -0.157808   -4.047595   -3.583209
     72          1           0        1.017680   -3.425748   -2.339728
     73          1           0        4.304928    0.251853   -6.024952
     74          1           0        4.160768   -1.531205   -5.827494
     75          1           0        5.795063   -0.757744   -5.699418
     76          1           0        7.075522    2.529943   -1.995231
     77          1           0        6.445986    6.796001   -1.840517
     78          1           0        5.989351    6.272119   -0.109400
     79          1           0        4.872261    6.322718   -1.486092
     80         12           0       -4.259813    1.669797    0.399357
     81          6           0       -5.383239   -1.614718   -0.511082
     82          6           0       -3.284632    2.072765   -2.844288
     83          6           0       -2.856687    4.381680    1.262131
     84          6           0       -4.264696    0.600820    3.716428
     85          7           0       -4.373153    0.330280   -1.357086
     86          6           0       -4.876508   -0.871098   -1.597217
     87          6           0       -4.907677   -1.267227   -3.097768
     88          6           0       -3.729349   -0.311127   -3.623405
     89          6           0       -3.817136    0.788390   -2.566971
     90          6           0       -2.352733   -0.948779   -3.535882
     91          6           0       -6.277282   -0.918913   -3.779598
     92          6           0       -6.490781   -1.554290   -5.155270
     93          1           0       -7.838898   -1.976213   -5.525418
     94          7           0       -3.670265    3.215941   -0.696294
     95          6           0       -3.335767    3.206394   -2.003692
     96          6           0       -2.953860    4.588769   -2.331362
     97          6           0       -2.932196    5.380602   -1.071508
     98          6           0       -3.136423    4.328918   -0.095627
     99          6           0       -2.730526    5.059290   -3.739257
    100          6           0       -2.744345    6.840726   -0.790540
    101          8           0       -2.524459    7.275451    0.395000
    102          6           0       -2.732377    7.736433   -1.956315
    103          7           0       -3.446132    2.326816    2.196184
    104          6           0       -2.946434    3.569398    2.315449
    105          6           0       -2.672276    3.910692    3.760694
    106          6           0       -3.320763    2.723046    4.613075
    107          6           0       -3.800662    1.815932    3.458845
    108          6           0       -1.199572    4.063906    4.140229
    109          6           0       -4.342258    3.122497    5.712924
    110          6           0       -5.591414    3.687909    5.076284
    111          7           0       -4.904433   -0.096728    1.463258
    112          6           0       -4.789783   -0.347736    2.848162
    113          6           0       -5.261428   -1.728245    3.080918
    114          6           0       -5.598793   -2.196268    1.802000
    115          6           0       -5.335646   -1.186239    0.837585
    116          6           0       -5.288939   -2.397279    4.337000
    117          6           0       -6.107706   -3.318782    1.047231
    118          8           0       -6.579266   -4.417793    1.336302
    119          6           0       -5.871929   -3.036572   -0.499106
    120          6           0       -7.151477   -3.343803   -1.227711
    121          8           0       -8.172469   -2.662786   -1.026683
    122          8           0       -6.902182   -4.245071   -2.195151
    123          6           0       -8.138854   -4.573657   -2.953101
    124          1           0       -2.738111    2.217587   -3.776615
    125          1           0       -2.474060    5.337332    1.627920
    126          1           0       -4.389384    0.227357    4.735081
    127          1           0       -4.663555   -2.303374   -3.299229
    128          1           0       -3.954611    0.088122   -4.608899
    129          1           0       -2.380574   -1.898645   -3.022933
    130          1           0       -1.735995   -0.243963   -2.993728
    131          1           0       -1.911169   -1.030740   -4.533196
    132          1           0       -6.277767    0.142124   -4.060571
    133          1           0       -7.097891   -1.167972   -3.135242
    134          1           0       -5.768753   -2.355129   -5.355955
    135          1           0       -6.278471   -0.803989   -5.920771
    136          1           0       -2.654713    4.216770   -4.437698
    137          1           0       -1.739619    5.525319   -3.767255
    138          1           0       -3.474393    5.790904   -4.061856
    139          1           0       -1.936694    7.436452   -2.634076
    140          1           0       -2.677038    8.747274   -1.547628
    141          1           0       -3.674262    7.612594   -2.502337
    142          1           0       -3.151030    4.842559    4.035522
    143          1           0       -2.558068    2.153428    5.164128
    144          1           0       -0.963593    5.049251    4.584619
    145          1           0       -0.599647    3.891833    3.256472
    146          1           0       -0.819132    3.310602    4.827980
    147          1           0       -3.929739    3.913973    6.343434
    148          1           0       -4.617194    2.300935    6.365949
    149          1           0       -5.323899    4.732959    4.893538
    150          1           0       -6.437000    3.610105    5.756707
    151          1           0       -5.782694    3.221536    4.102861
    152          1           0       -6.237440   -2.914642    4.393479
    153          1           0       -5.166393   -1.698879    5.162219
    154          1           0       -4.424198   -3.056897    4.225631
    155          1           0       -5.050640   -3.674902   -0.827118
    156          1           0       -8.264064   -5.659785   -2.904851
    157          1           0       -8.002518   -4.126371   -3.955647
    158          1           0       -9.082878   -4.233549   -2.543706
 ---------------------------------------------------------------------
 Rotational constants (GHZ):           0.0210687           0.0140516           0.0123523
 Leave Link  202 at Thu Aug 19 17:38:49 2021, MaxMem= 23488102400 cpu:               0.2 elap:               0.0
 (Enter /sw/apps/gaussian-16.0/g16/l301.exe)
 Standard basis: def2SVP (5D, 7F)
 Ernie: Thresh=  0.10000D-02 Tol=  0.10000D-05 Strict=F.
 There are  1658 symmetry adapted cartesian basis functions of A   symmetry.
 There are  1572 symmetry adapted basis functions of A   symmetry.
  1572 basis functions,  2678 primitive gaussians,  1658 cartesian basis functions
   312 alpha electrons      312 beta electrons
       nuclear repulsion energy     15476.0335531122 Hartrees.
 IExCor=20419 DFT=T Ex+Corr=CAM-B3LYP ExCW=0 ScaHFX=  1.000000
 ScaDFX=  1.000000  1.000000  1.000000  0.810000 ScalE2=  1.000000  1.000000
 IRadAn=      5 IRanWt=     -1 IRanGd=            0 ICorTp=0 IEmpDi=  4
 HFx  wShort=  0.000000 wLong=  0.330000 cFull=  0.190000 cShort=  0.000000 cLong=  0.460000
 DFx  wShort=  0.000000 wLong=  0.330000 cFull=  0.190000 cShort=  0.000000 cLong=  0.460000
 NAtoms=  158 NActive=  158 NUniq=  158 SFac= 1.00D+00 NAtFMM=   60 NAOKFM=T Big=T
 Integral buffers will be    131072 words long.
 Raffenetti 1 integral format.
 Two-electron integral symmetry is turned on.
 Leave Link  301 at Thu Aug 19 17:38:49 2021, MaxMem= 23488102400 cpu:               1.5 elap:               0.1
 (Enter /sw/apps/gaussian-16.0/g16/l302.exe)
 NPDir=0 NMtPBC=     1 NCelOv=     1 NCel=       1 NClECP=     1 NCelD=      1
         NCelK=      1 NCelE2=     1 NClLst=     1 CellRange=     0.0.
 One-electron integrals computed using PRISM.
 One-electron integral symmetry used in STVInt
   1 Symmetry operations used in ECPInt.
 ECPInt:  NShTT=  271216 NPrTT=  987664 LenC2=  153683 LenP2D=  320526.
 LDataN:  DoStor=T MaxTD1= 4 Len=   56
 NBasis=  1572 RedAO= T EigKep=  3.36D-04  NBF=  1572
 NBsUse=  1572 1.00D-06 EigRej= -1.00D+00 NBFU=  1572
 Precomputing XC quadrature grid using
 IXCGrd= 4 IRadAn=           5 IRanWt=          -1 IRanGd=           0 AccXCQ= 0.00D+00.
 Generated NRdTot=       0 NPtTot=           0 NUsed=           0 NTot=          32
 NSgBfM=  1172  1160  1166  1169  1172 MxSgAt=   158 MxSgA2=   158.
 Leave Link  302 at Thu Aug 19 17:38:55 2021, MaxMem= 23488102400 cpu:             130.1 elap:               5.4
 (Enter /sw/apps/gaussian-16.0/g16/l303.exe)
 DipDrv:  MaxL=1.
 Leave Link  303 at Thu Aug 19 17:38:55 2021, MaxMem= 23488102400 cpu:               9.7 elap:               0.4
 (Enter /sw/apps/gaussian-16.0/g16/l308.exe)
 Leave Link  308 at Thu Aug 19 17:38:56 2021, MaxMem= 23488102400 cpu:              13.0 elap:               0.6
 (Enter /sw/apps/gaussian-16.0/g16/l401.exe)
 ExpMin= 3.36D-02 ExpMax= 4.95D+03 ExpMxC= 7.45D+02 IAcc=3 IRadAn=         5 AccDes= 0.00D+00
 Harris functional with IExCor=20419 and IRadAn=       5 diagonalized for initial guess.
 HarFok:  IExCor=20419 AccDes= 0.00D+00 IRadAn=         5 IDoV= 1 UseB2=F ITyADJ=14
 ICtDFT=  3500011 ScaDFX=  1.000000  1.000000  1.000000  1.000000
 FoFCou: FMM=F IPFlag=           0 FMFlag=      100000 FMFlg1=        2001
         NFxFlg=           0 DoJE=T BraDBF=F KetDBF=T FulRan=T
         wScrn=  0.000000 ICntrl=       500 IOpCl=  0 I1Cent=   200000004 NGrid=           0
         NMat0=    1 NMatS0=      1 NMatT0=    0 NMatD0=    1 NMtDS0=    0 NMtDT0=    0
 Petite list used in FoFCou.
 Harris En= -3918.65797615650    
 JPrj=0 DoOrth=F DoCkMO=F.
 Leave Link  401 at Thu Aug 19 17:39:04 2021, MaxMem= 23488102400 cpu:             197.0 elap:               8.2
 (Enter /sw/apps/gaussian-16.0/g16/l502.exe)
 Integral symmetry usage will be decided dynamically.
 Closed shell SCF:
 Using DIIS extrapolation, IDIIS=  1040.
 NGot= 23488102400 LenX= 23482547354 LenY= 23479796732
 Requested convergence on RMS density matrix=1.00D-08 within 128 cycles.
 Requested convergence on MAX density matrix=1.00D-06.
 Requested convergence on             energy=1.00D-06.
 No special actions if energy rises.
 Fock matrices will be formed incrementally for  20 cycles.

 Cycle   1  Pass 1  IDiag  1:
 FoFJK:  IHMeth= 1 ICntrl=       0 DoSepK=T KAlg= 0 I1Cent=           0 FoldK=F
 IRaf=         1 NMat=       1 IRICut=       1 DoRegI=T DoRafI=F ISym2E= 0 IDoP0=0 IntGTp=1.
 FoFCou: FMM=T IPFlag=           0 FMFlag=      100000 FMFlg1=        2001
         NFxFlg=           0 DoJE=T BraDBF=F KetDBF=F FulRan=T
         wScrn=  0.000000 ICntrl=       500 IOpCl=  0 I1Cent=           0 NGrid=           0
         NMat0=    1 NMatS0=      1 NMatT0=    0 NMatD0=    1 NMtDS0=    0 NMtDT0=    0
 Symmetry not used in FoFCou.
 FMM levels:  10  Number of levels for PrismC:   9
 E= -4068.95067705961    
 DIIS: error= 2.04D-02 at cycle   1 NSaved=   1.
 NSaved= 1 IEnMin= 1 EnMin= -4068.95067705961     IErMin= 1 ErrMin= 2.04D-02
 ErrMax= 2.04D-02  0.00D+00 EMaxC= 1.00D-01 BMatC= 1.69D+00 BMatP= 1.69D+00
 IDIUse=3 WtCom= 7.96D-01 WtEn= 2.04D-01
 Coeff-Com:  0.100D+01
 Coeff-En:   0.100D+01
 Coeff:      0.100D+01
 Gap=     0.121 Goal=   None    Shift=    0.000
 GapD=    0.121 DampG=1.000 DampE=0.500 DampFc=0.5000 IDamp=-1.
 Damping current iteration by 5.00D-01
 RMSDP=1.57D-03 MaxDP=1.35D-01              OVMax= 1.93D-01

 Cycle   2  Pass 1  IDiag  1:
 RMSU=  7.68D-04    CP:  9.82D-01
 E= -4069.33958337813     Delta-E=       -0.388906318523 Rises=F Damp=T
 DIIS: error= 1.27D-02 at cycle   2 NSaved=   2.
 NSaved= 2 IEnMin= 2 EnMin= -4069.33958337813     IErMin= 2 ErrMin= 1.27D-02
 ErrMax= 1.27D-02  0.00D+00 EMaxC= 1.00D-01 BMatC= 3.06D-01 BMatP= 1.69D+00
 IDIUse=3 WtCom= 8.73D-01 WtEn= 1.27D-01
 Coeff-Com: -0.214D+00 0.121D+01
 Coeff-En:   0.000D+00 0.100D+01
 Coeff:     -0.187D+00 0.119D+01
 Gap=     0.133 Goal=   None    Shift=    0.000
 RMSDP=7.62D-04 MaxDP=9.51D-02 DE=-3.89D-01 OVMax= 1.80D-01

 Cycle   3  Pass 1  IDiag  1:
 RMSU=  7.29D-04    CP:  9.68D-01  1.24D+00
 E= -4069.63125484982     Delta-E=       -0.291671471688 Rises=F Damp=F
 DIIS: error= 1.56D-02 at cycle   3 NSaved=   3.
 NSaved= 3 IEnMin= 3 EnMin= -4069.63125484982     IErMin= 2 ErrMin= 1.27D-02
 ErrMax= 1.56D-02  0.00D+00 EMaxC= 1.00D-01 BMatC= 2.00D-01 BMatP= 3.06D-01
 IDIUse=3 WtCom= 8.44D-01 WtEn= 1.56D-01
 Coeff-Com: -0.267D+00 0.650D+00 0.617D+00
 Coeff-En:   0.000D+00 0.000D+00 0.100D+01
 Coeff:     -0.225D+00 0.549D+00 0.677D+00
 Gap=     0.120 Goal=   None    Shift=    0.000
 RMSDP=5.00D-04 MaxDP=4.64D-02 DE=-2.92D-01 OVMax= 1.29D-01

 Cycle   4  Pass 1  IDiag  1:
 RMSU=  2.61D-04    CP:  9.65D-01  1.55D+00  5.12D-01
 E= -4069.76793682871     Delta-E=       -0.136681978885 Rises=F Damp=F
 DIIS: error= 7.18D-03 at cycle   4 NSaved=   4.
 NSaved= 4 IEnMin= 4 EnMin= -4069.76793682871     IErMin= 4 ErrMin= 7.18D-03
 ErrMax= 7.18D-03  0.00D+00 EMaxC= 1.00D-01 BMatC= 4.86D-02 BMatP= 2.00D-01
 IDIUse=3 WtCom= 9.28D-01 WtEn= 7.18D-02
 Coeff-Com: -0.108D+00 0.223D+00 0.406D+00 0.478D+00
 Coeff-En:   0.000D+00 0.000D+00 0.212D+00 0.788D+00
 Coeff:     -0.999D-01 0.207D+00 0.393D+00 0.500D+00
 Gap=     0.120 Goal=   None    Shift=    0.000
 RMSDP=1.91D-04 MaxDP=2.04D-02 DE=-1.37D-01 OVMax= 5.15D-02

 Cycle   5  Pass 1  IDiag  1:
 RMSU=  7.20D-05    CP:  9.64D-01  1.49D+00  6.90D-01  5.64D-01
 E= -4069.81103681932     Delta-E=       -0.043099990617 Rises=F Damp=F
 DIIS: error= 7.92D-04 at cycle   5 NSaved=   5.
 NSaved= 5 IEnMin= 5 EnMin= -4069.81103681932     IErMin= 5 ErrMin= 7.92D-04
 ErrMax= 7.92D-04  0.00D+00 EMaxC= 1.00D-01 BMatC= 9.83D-04 BMatP= 4.86D-02
 IDIUse=3 WtCom= 9.92D-01 WtEn= 7.92D-03
 Coeff-Com: -0.332D-01 0.648D-01 0.155D+00 0.240D+00 0.573D+00
 Coeff-En:   0.000D+00 0.000D+00 0.000D+00 0.000D+00 0.100D+01
 Coeff:     -0.329D-01 0.643D-01 0.154D+00 0.238D+00 0.577D+00
 Gap=     0.119 Goal=   None    Shift=    0.000
 RMSDP=3.57D-05 MaxDP=3.98D-03 DE=-4.31D-02 OVMax= 1.17D-02

 Cycle   6  Pass 1  IDiag  1:
 RMSU=  2.77D-05    CP:  9.64D-01  1.50D+00  6.84D-01  6.27D-01  8.02D-01
 E= -4069.81183490754     Delta-E=       -0.000798088218 Rises=F Damp=F
 DIIS: error= 2.66D-04 at cycle   6 NSaved=   6.
 NSaved= 6 IEnMin= 6 EnMin= -4069.81183490754     IErMin= 6 ErrMin= 2.66D-04
 ErrMax= 2.66D-04  0.00D+00 EMaxC= 1.00D-01 BMatC= 1.49D-04 BMatP= 9.83D-04
 IDIUse=3 WtCom= 9.97D-01 WtEn= 2.66D-03
 Coeff-Com:  0.280D-02-0.766D-02 0.801D-02 0.357D-01 0.309D+00 0.652D+00
 Coeff-En:   0.000D+00 0.000D+00 0.000D+00 0.000D+00 0.785D-01 0.922D+00
 Coeff:      0.279D-02-0.764D-02 0.799D-02 0.356D-01 0.308D+00 0.653D+00
 Gap=     0.120 Goal=   None    Shift=    0.000
 RMSDP=1.34D-05 MaxDP=1.22D-03 DE=-7.98D-04 OVMax= 5.70D-03

 Cycle   7  Pass 1  IDiag  1:
 RMSU=  9.38D-06    CP:  9.64D-01  1.50D+00  6.89D-01  6.29D-01  8.85D-01
                    CP:  7.74D-01
 E= -4069.81198577841     Delta-E=       -0.000150870874 Rises=F Damp=F
 DIIS: error= 6.82D-05 at cycle   7 NSaved=   7.
 NSaved= 7 IEnMin= 7 EnMin= -4069.81198577841     IErMin= 7 ErrMin= 6.82D-05
 ErrMax= 6.82D-05  0.00D+00 EMaxC= 1.00D-01 BMatC= 1.44D-05 BMatP= 1.49D-04
 IDIUse=1 WtCom= 1.00D+00 WtEn= 0.00D+00
 Coeff-Com:  0.426D-02-0.922D-02-0.946D-02-0.601D-02 0.876D-01 0.303D+00
 Coeff-Com:  0.630D+00
 Coeff:      0.426D-02-0.922D-02-0.946D-02-0.601D-02 0.876D-01 0.303D+00
 Coeff:      0.630D+00
 Gap=     0.120 Goal=   None    Shift=    0.000
 RMSDP=5.86D-06 MaxDP=1.15D-03 DE=-1.51D-04 OVMax= 2.99D-03

 Cycle   8  Pass 1  IDiag  1:
 RMSU=  4.28D-06    CP:  9.64D-01  1.50D+00  6.90D-01  6.33D-01  8.98D-01
                    CP:  9.00D-01  8.88D-01
 E= -4069.81200361245     Delta-E=       -0.000017834038 Rises=F Damp=F
 DIIS: error= 3.53D-05 at cycle   8 NSaved=   8.
 NSaved= 8 IEnMin= 8 EnMin= -4069.81200361245     IErMin= 8 ErrMin= 3.53D-05
 ErrMax= 3.53D-05  0.00D+00 EMaxC= 1.00D-01 BMatC= 3.81D-06 BMatP= 1.44D-05
 IDIUse=1 WtCom= 1.00D+00 WtEn= 0.00D+00
 Coeff-Com:  0.196D-02-0.384D-02-0.733D-02-0.120D-01-0.178D-01 0.291D-01
 Coeff-Com:  0.365D+00 0.644D+00
 Coeff:      0.196D-02-0.384D-02-0.733D-02-0.120D-01-0.178D-01 0.291D-01
 Coeff:      0.365D+00 0.644D+00
 Gap=     0.120 Goal=   None    Shift=    0.000
 RMSDP=2.97D-06 MaxDP=3.02D-04 DE=-1.78D-05 OVMax= 1.37D-03

 Cycle   9  Pass 1  IDiag  1:
 RMSU=  1.83D-06    CP:  9.64D-01  1.50D+00  6.90D-01  6.35D-01  9.13D-01
                    CP:  9.24D-01  1.09D+00  8.90D-01
 E= -4069.81200974208     Delta-E=       -0.000006129623 Rises=F Damp=F
 DIIS: error= 2.11D-05 at cycle   9 NSaved=   9.
 NSaved= 9 IEnMin= 9 EnMin= -4069.81200974208     IErMin= 9 ErrMin= 2.11D-05
 ErrMax= 2.11D-05  0.00D+00 EMaxC= 1.00D-01 BMatC= 6.08D-07 BMatP= 3.81D-06
 IDIUse=1 WtCom= 1.00D+00 WtEn= 0.00D+00
 Coeff-Com:  0.435D-03-0.721D-03-0.253D-02-0.577D-02-0.227D-01-0.335D-01
 Coeff-Com:  0.114D+00 0.338D+00 0.614D+00
 Coeff:      0.435D-03-0.721D-03-0.253D-02-0.577D-02-0.227D-01-0.335D-01
 Coeff:      0.114D+00 0.338D+00 0.614D+00
 Gap=     0.120 Goal=   None    Shift=    0.000
 RMSDP=1.35D-06 MaxDP=1.63D-04 DE=-6.13D-06 OVMax= 8.36D-04

 Cycle  10  Pass 1  IDiag  1:
 RMSU=  9.13D-07    CP:  9.64D-01  1.50D+00  6.90D-01  6.35D-01  9.15D-01
                    CP:  9.40D-01  1.13D+00  1.07D+00  9.82D-01
 E= -4069.81201110457     Delta-E=       -0.000001362496 Rises=F Damp=F
 DIIS: error= 1.15D-05 at cycle  10 NSaved=  10.
 NSaved=10 IEnMin=10 EnMin= -4069.81201110457     IErMin=10 ErrMin= 1.15D-05
 ErrMax= 1.15D-05  0.00D+00 EMaxC= 1.00D-01 BMatC= 1.60D-07 BMatP= 6.08D-07
 IDIUse=1 WtCom= 1.00D+00 WtEn= 0.00D+00
 Coeff-Com: -0.410D-03 0.858D-03 0.118D-02 0.110D-02-0.447D-02-0.297D-01
 Coeff-Com: -0.546D-01-0.604D-01 0.298D+00 0.848D+00
 Coeff:     -0.410D-03 0.858D-03 0.118D-02 0.110D-02-0.447D-02-0.297D-01
 Coeff:     -0.546D-01-0.604D-01 0.298D+00 0.848D+00
 Gap=     0.120 Goal=   None    Shift=    0.000
 RMSDP=1.12D-06 MaxDP=1.32D-04 DE=-1.36D-06 OVMax= 5.44D-04

 Cycle  11  Pass 1  IDiag  1:
 RMSU=  4.86D-07    CP:  9.64D-01  1.50D+00  6.90D-01  6.35D-01  9.18D-01
                    CP:  9.50D-01  1.18D+00  1.17D+00  1.32D+00  1.29D+00
 E= -4069.81201178116     Delta-E=       -0.000000676591 Rises=F Damp=F
 DIIS: error= 3.68D-06 at cycle  11 NSaved=  11.
 NSaved=11 IEnMin=11 EnMin= -4069.81201178116     IErMin=11 ErrMin= 3.68D-06
 ErrMax= 3.68D-06  0.00D+00 EMaxC= 1.00D-01 BMatC= 4.83D-08 BMatP= 1.60D-07
 IDIUse=1 WtCom= 1.00D+00 WtEn= 0.00D+00
 Coeff-Com: -0.314D-03 0.612D-03 0.127D-02 0.207D-02 0.410D-02-0.843D-02
 Coeff-Com: -0.519D-01-0.127D+00 0.124D-01 0.437D+00 0.730D+00
 Coeff:     -0.314D-03 0.612D-03 0.127D-02 0.207D-02 0.410D-02-0.843D-02
 Coeff:     -0.519D-01-0.127D+00 0.124D-01 0.437D+00 0.730D+00
 Gap=     0.120 Goal=   None    Shift=    0.000
 RMSDP=6.19D-07 MaxDP=4.69D-05 DE=-6.77D-07 OVMax= 3.39D-04

 Cycle  12  Pass 1  IDiag  1:
 RMSU=  2.49D-07    CP:  9.64D-01  1.50D+00  6.90D-01  6.35D-01  9.19D-01
                    CP:  9.53D-01  1.20D+00  1.23D+00  1.47D+00  1.65D+00
                    CP:  1.18D+00
 E= -4069.81201199737     Delta-E=       -0.000000216209 Rises=F Damp=F
 DIIS: error= 2.76D-06 at cycle  12 NSaved=  12.
 NSaved=12 IEnMin=12 EnMin= -4069.81201199737     IErMin=12 ErrMin= 2.76D-06
 ErrMax= 2.76D-06  0.00D+00 EMaxC= 1.00D-01 BMatC= 1.11D-08 BMatP= 4.83D-08
 IDIUse=1 WtCom= 1.00D+00 WtEn= 0.00D+00
 Coeff-Com:  0.133D-06-0.156D-04 0.165D-03 0.493D-03 0.305D-02 0.409D-02
 Coeff-Com:  0.105D-02-0.362D-01-0.610D-01-0.778D-01 0.248D+00 0.918D+00
 Coeff:      0.133D-06-0.156D-04 0.165D-03 0.493D-03 0.305D-02 0.409D-02
 Coeff:      0.105D-02-0.362D-01-0.610D-01-0.778D-01 0.248D+00 0.918D+00
 Gap=     0.120 Goal=   None    Shift=    0.000
 RMSDP=4.06D-07 MaxDP=2.46D-05 DE=-2.16D-07 OVMax= 2.57D-04

 Cycle  13  Pass 1  IDiag  1:
 RMSU=  1.62D-07    CP:  9.64D-01  1.50D+00  6.90D-01  6.35D-01  9.19D-01
                    CP:  9.53D-01  1.21D+00  1.26D+00  1.58D+00  1.86D+00
                    CP:  1.59D+00  1.25D+00
 E= -4069.81201207393     Delta-E=       -0.000000076561 Rises=F Damp=F
 DIIS: error= 1.59D-06 at cycle  13 NSaved=  13.
 NSaved=13 IEnMin=13 EnMin= -4069.81201207393     IErMin=13 ErrMin= 1.59D-06
 ErrMax= 1.59D-06  0.00D+00 EMaxC= 1.00D-01 BMatC= 7.76D-09 BMatP= 1.11D-08
 IDIUse=1 WtCom= 1.00D+00 WtEn= 0.00D+00
 Coeff-Com:  0.113D-03-0.232D-03-0.344D-03-0.414D-03 0.581D-03 0.538D-02
 Coeff-Com:  0.209D-01 0.180D-01-0.439D-01-0.232D+00-0.138D+00 0.649D+00
 Coeff-Com:  0.722D+00
 Coeff:      0.113D-03-0.232D-03-0.344D-03-0.414D-03 0.581D-03 0.538D-02
 Coeff:      0.209D-01 0.180D-01-0.439D-01-0.232D+00-0.138D+00 0.649D+00
 Coeff:      0.722D+00
 Gap=     0.120 Goal=   None    Shift=    0.000
 RMSDP=2.95D-07 MaxDP=1.65D-05 DE=-7.66D-08 OVMax= 1.61D-04

 Cycle  14  Pass 1  IDiag  1:
 RMSU=  7.79D-08    CP:  9.64D-01  1.50D+00  6.90D-01  6.35D-01  9.19D-01
                    CP:  9.54D-01  1.22D+00  1.28D+00  1.64D+00  2.02D+00
                    CP:  1.83D+00  1.76D+00  1.02D+00
 E= -4069.81201210464     Delta-E=       -0.000000030712 Rises=F Damp=F
 DIIS: error= 1.16D-06 at cycle  14 NSaved=  14.
 NSaved=14 IEnMin=14 EnMin= -4069.81201210464     IErMin=14 ErrMin= 1.16D-06
 ErrMax= 1.16D-06  0.00D+00 EMaxC= 1.00D-01 BMatC= 1.13D-09 BMatP= 7.76D-09
 IDIUse=1 WtCom= 1.00D+00 WtEn= 0.00D+00
 Coeff-Com:  0.685D-04-0.135D-03-0.251D-03-0.392D-03-0.507D-03 0.173D-02
 Coeff-Com:  0.128D-01 0.188D-01-0.301D-02-0.106D+00-0.149D+00 0.141D+00
 Coeff-Com:  0.376D+00 0.709D+00
 Coeff:      0.685D-04-0.135D-03-0.251D-03-0.392D-03-0.507D-03 0.173D-02
 Coeff:      0.128D-01 0.188D-01-0.301D-02-0.106D+00-0.149D+00 0.141D+00
 Coeff:      0.376D+00 0.709D+00
 Gap=     0.120 Goal=   None    Shift=    0.000
 RMSDP=1.05D-07 MaxDP=6.37D-06 DE=-3.07D-08 OVMax= 7.38D-05

 Cycle  15  Pass 1  IDiag  1:
 RMSU=  3.88D-08    CP:  9.64D-01  1.50D+00  6.90D-01  6.35D-01  9.19D-01
                    CP:  9.53D-01  1.22D+00  1.29D+00  1.66D+00  2.07D+00
                    CP:  1.94D+00  1.92D+00  1.26D+00  9.69D-01
 E= -4069.81201210893     Delta-E=       -0.000000004282 Rises=F Damp=F
 DIIS: error= 4.70D-07 at cycle  15 NSaved=  15.
 NSaved=15 IEnMin=15 EnMin= -4069.81201210893     IErMin=15 ErrMin= 4.70D-07
 ErrMax= 4.70D-07  0.00D+00 EMaxC= 1.00D-01 BMatC= 3.12D-10 BMatP= 1.13D-09
 IDIUse=1 WtCom= 1.00D+00 WtEn= 0.00D+00
 Coeff-Com:  0.121D-04-0.222D-04-0.566D-04-0.119D-03-0.373D-03-0.283D-03
 Coeff-Com:  0.255D-02 0.478D-02 0.877D-02-0.775D-02-0.475D-01-0.498D-01
 Coeff-Com:  0.271D-01 0.378D+00 0.685D+00
 Coeff:      0.121D-04-0.222D-04-0.566D-04-0.119D-03-0.373D-03-0.283D-03
 Coeff:      0.255D-02 0.478D-02 0.877D-02-0.775D-02-0.475D-01-0.498D-01
 Coeff:      0.271D-01 0.378D+00 0.685D+00
 Gap=     0.120 Goal=   None    Shift=    0.000
 RMSDP=3.92D-08 MaxDP=3.27D-06 DE=-4.28D-09 OVMax= 2.26D-05

 Cycle  16  Pass 1  IDiag  1:
 RMSU=  1.87D-08    CP:  9.64D-01  1.50D+00  6.90D-01  6.35D-01  9.19D-01
                    CP:  9.53D-01  1.22D+00  1.29D+00  1.66D+00  2.08D+00
                    CP:  1.97D+00  1.98D+00  1.32D+00  1.20D+00  1.11D+00
 E= -4069.81201210976     Delta-E=       -0.000000000829 Rises=F Damp=F
 DIIS: error= 1.62D-07 at cycle  16 NSaved=  16.
 NSaved=16 IEnMin=16 EnMin= -4069.81201210976     IErMin=16 ErrMin= 1.62D-07
 ErrMax= 1.62D-07  0.00D+00 EMaxC= 1.00D-01 BMatC= 7.58D-11 BMatP= 3.12D-10
 IDIUse=1 WtCom= 1.00D+00 WtEn= 0.00D+00
 Coeff-Com: -0.128D-04 0.261D-04 0.416D-04 0.451D-04-0.512D-04-0.637D-03
 Coeff-Com: -0.209D-02-0.355D-02 0.625D-02 0.235D-01 0.152D-01-0.613D-01
 Coeff-Com: -0.995D-01 0.232D-01 0.332D+00 0.767D+00
 Coeff:     -0.128D-04 0.261D-04 0.416D-04 0.451D-04-0.512D-04-0.637D-03
 Coeff:     -0.209D-02-0.355D-02 0.625D-02 0.235D-01 0.152D-01-0.613D-01
 Coeff:     -0.995D-01 0.232D-01 0.332D+00 0.767D+00
 Gap=     0.120 Goal=   None    Shift=    0.000
 RMSDP=2.51D-08 MaxDP=2.19D-06 DE=-8.29D-10 OVMax= 1.70D-05

 Cycle  17  Pass 1  IDiag  1:
 RMSU=  1.18D-08    CP:  9.64D-01  1.50D+00  6.90D-01  6.35D-01  9.19D-01
                    CP:  9.54D-01  1.22D+00  1.29D+00  1.67D+00  2.09D+00
                    CP:  1.98D+00  2.01D+00  1.37D+00  1.29D+00  1.41D+00
                    CP:  1.18D+00
 E= -4069.81201210989     Delta-E=       -0.000000000138 Rises=F Damp=F
 DIIS: error= 9.44D-08 at cycle  17 NSaved=  17.
 NSaved=17 IEnMin=17 EnMin= -4069.81201210989     IErMin=17 ErrMin= 9.44D-08
 ErrMax= 9.44D-08  0.00D+00 EMaxC= 1.00D-01 BMatC= 2.37D-11 BMatP= 7.58D-11
 IDIUse=1 WtCom= 1.00D+00 WtEn= 0.00D+00
 Coeff-Com: -0.894D-05 0.176D-04 0.343D-04 0.497D-04 0.776D-04-0.225D-03
 Coeff-Com: -0.151D-02-0.321D-02 0.167D-02 0.128D-01 0.198D-01-0.136D-01
 Coeff-Com: -0.582D-01-0.779D-01-0.488D-01 0.381D+00 0.788D+00
 Coeff:     -0.894D-05 0.176D-04 0.343D-04 0.497D-04 0.776D-04-0.225D-03
 Coeff:     -0.151D-02-0.321D-02 0.167D-02 0.128D-01 0.198D-01-0.136D-01
 Coeff:     -0.582D-01-0.779D-01-0.488D-01 0.381D+00 0.788D+00
 Gap=     0.120 Goal=   None    Shift=    0.000
 RMSDP=1.40D-08 MaxDP=8.51D-07 DE=-1.38D-10 OVMax= 8.00D-06

 Cycle  18  Pass 1  IDiag  1:
 RMSU=  5.53D-09    CP:  9.64D-01  1.50D+00  6.90D-01  6.35D-01  9.19D-01
                    CP:  9.54D-01  1.22D+00  1.29D+00  1.67D+00  2.09D+00
                    CP:  1.99D+00  2.02D+00  1.39D+00  1.36D+00  1.57D+00
                    CP:  1.59D+00  1.31D+00
 E= -4069.81201211008     Delta-E=       -0.000000000182 Rises=F Damp=F
 DIIS: error= 7.29D-08 at cycle  18 NSaved=  18.
 NSaved=18 IEnMin=18 EnMin= -4069.81201211008     IErMin=18 ErrMin= 7.29D-08
 ErrMax= 7.29D-08  0.00D+00 EMaxC= 1.00D-01 BMatC= 7.41D-12 BMatP= 2.37D-11
 IDIUse=1 WtCom= 1.00D+00 WtEn= 0.00D+00
 Coeff-Com:  0.716D-07-0.499D-06 0.273D-05 0.847D-05 0.689D-04 0.130D-03
 Coeff-Com:  0.768D-04-0.526D-03-0.110D-02-0.313D-02 0.406D-02 0.174D-01
 Coeff-Com:  0.512D-02-0.397D-01-0.158D+00-0.746D-01 0.360D+00 0.890D+00
 Coeff:      0.716D-07-0.499D-06 0.273D-05 0.847D-05 0.689D-04 0.130D-03
 Coeff:      0.768D-04-0.526D-03-0.110D-02-0.313D-02 0.406D-02 0.174D-01
 Coeff:      0.512D-02-0.397D-01-0.158D+00-0.746D-01 0.360D+00 0.890D+00
 Gap=     0.120 Goal=   None    Shift=    0.000
 RMSDP=1.07D-08 MaxDP=8.73D-07 DE=-1.82D-10 OVMax= 6.53D-06

 Cycle  19  Pass 1  IDiag  1:
 RMSU=  3.19D-09    CP:  9.64D-01  1.50D+00  6.90D-01  6.35D-01  9.19D-01
                    CP:  9.54D-01  1.22D+00  1.29D+00  1.67D+00  2.09D+00
                    CP:  1.99D+00  2.03D+00  1.40D+00  1.39D+00  1.71D+00
                    CP:  1.85D+00  1.81D+00  1.22D+00
 E= -4069.81201211033     Delta-E=       -0.000000000258 Rises=F Damp=F
 DIIS: error= 3.19D-08 at cycle  19 NSaved=  19.
 NSaved=19 IEnMin=19 EnMin= -4069.81201211033     IErMin=19 ErrMin= 3.19D-08
 ErrMax= 3.19D-08  0.00D+00 EMaxC= 1.00D-01 BMatC= 2.86D-12 BMatP= 7.41D-12
 IDIUse=1 WtCom= 1.00D+00 WtEn= 0.00D+00
 Coeff-Com:  0.346D-05-0.701D-05-0.115D-04-0.140D-04 0.182D-04 0.166D-03
 Coeff-Com:  0.655D-03 0.856D-03-0.115D-02-0.720D-02-0.517D-02 0.170D-01
 Coeff-Com:  0.250D-01 0.779D-02-0.885D-01-0.201D+00-0.988D-01 0.555D+00
 Coeff-Com:  0.795D+00
 Coeff:      0.346D-05-0.701D-05-0.115D-04-0.140D-04 0.182D-04 0.166D-03
 Coeff:      0.655D-03 0.856D-03-0.115D-02-0.720D-02-0.517D-02 0.170D-01
 Coeff:      0.250D-01 0.779D-02-0.885D-01-0.201D+00-0.988D-01 0.555D+00
 Coeff:      0.795D+00
 Gap=     0.120 Goal=   None    Shift=    0.000
 RMSDP=7.33D-09 MaxDP=4.03D-07 DE=-2.58D-10 OVMax= 4.12D-06

 SCF Done:  E(RCAM-B3LYP) =  -4069.81201211     A.U. after   19 cycles
            NFock= 19  Conv=0.73D-08     -V/T= 2.0102
 KE= 4.028798992973D+03 PE=-4.043318438583D+04 EE= 1.685853982764D+04
 Leave Link  502 at Thu Aug 19 17:50:24 2021, MaxMem= 23488102400 cpu:           15675.5 elap:             679.6
 (Enter /sw/apps/gaussian-16.0/g16/l801.exe)
 DoSCS=F DFT=T ScalE2(SS,OS)=  1.000000  1.000000
 ExpMin= 3.36D-02 ExpMax= 4.95D+03 ExpMxC= 7.45D+02 IAcc=3 IRadAn=         5 AccDes= 0.00D+00
 HarFok:  IExCor=  205 AccDes= 0.00D+00 IRadAn=         5 IDoV=-2 UseB2=F ITyADJ=14
 ICtDFT= 12500011 ScaDFX=  1.000000  1.000000  1.000000  1.000000
 GSVD:  LWork=       -9588 too small for GESVD, short by       45590 words or       45590 for optimal perf.
 Largest valence mixing into a core orbital is  2.03D-04
 Largest core mixing into a valence orbital is  5.23D-05
 Range of M.O.s used for correlation:    95  1572
 NBasis=  1572 NAE=   312 NBE=   312 NFC=    94 NFV=     0
 NROrb=   1478 NOA=   218 NOB=   218 NVA=  1260 NVB=  1260
 Leave Link  801 at Thu Aug 19 17:50:25 2021, MaxMem= 23488102400 cpu:               9.0 elap:               0.4
 (Enter /sw/apps/gaussian-16.0/g16/l914.exe)
 RHF ground state
 Two-electron integrals replicated using symmetry.
 MDV= 23488102400 DFT=T DoStab=F Mixed=T DoRPA=T DoScal=F NonHer=T
 Making orbital integer symmetry assigments:
 Orbital symmetries:
       Occupied  (A) (A) (A) (A) (A) (A) (A) (A) (A) (A) (A) (A)
                 (A) (A) (A) (A) (A) (A) (A) (A) (A) (A) (A) (A)
                 (A) (A) (A) (A) (A) (A) (A) (A) (A) (A) (A) (A)
                 (A) (A) (A) (A) (A) (A) (A) (A) (A) (A) (A) (A)
                 (A) (A) (A) (A) (A) (A) (A) (A) (A) (A) (A) (A)
                 (A) (A) (A) (A) (A) (A) (A) (A) (A) (A) (A) (A)
                 (A) (A) (A) (A) (A) (A) (A) (A) (A) (A) (A) (A)
                 (A) (A) (A) (A) (A) (A) (A) (A) (A) (A) (A) (A)
                 (A) (A) (A) (A) (A) (A) (A) (A) (A) (A) (A) (A)
                 (A) (A) (A) (A) (A) (A) (A) (A) (A) (A) (A) (A)
                 (A) (A) (A) (A) (A) (A) (A) (A) (A) (A) (A) (A)
                 (A) (A) (A) (A) (A) (A) (A) (A) (A) (A) (A) (A)
                 (A) (A) (A) (A) (A) (A) (A) (A) (A) (A) (A) (A)
                 (A) (A) (A) (A) (A) (A) (A) (A) (A) (A) (A) (A)
                 (A) (A) (A) (A) (A) (A) (A) (A) (A) (A) (A) (A)
                 (A) (A) (A) (A) (A) (A) (A) (A) (A) (A) (A) (A)
                 (A) (A) (A) (A) (A) (A) (A) (A) (A) (A) (A) (A)
                 (A) (A) (A) (A) (A) (A) (A) (A) (A) (A) (A) (A)
                 (A) (A) (A) (A) (A) (A) (A) (A) (A) (A) (A) (A)
                 (A) (A) (A) (A) (A) (A) (A) (A) (A) (A) (A) (A)
                 (A) (A) (A) (A) (A) (A) (A) (A) (A) (A) (A) (A)
                 (A) (A) (A) (A) (A) (A) (A) (A) (A) (A) (A) (A)
                 (A) (A) (A) (A) (A) (A) (A) (A) (A) (A) (A) (A)
                 (A) (A) (A) (A) (A) (A) (A) (A) (A) (A) (A) (A)
                 (A) (A) (A) (A) (A) (A) (A) (A) (A) (A) (A) (A)
                 (A) (A) (A) (A) (A) (A) (A) (A) (A) (A) (A) (A)
       Virtual   (A) (A) (A) (A) (A) (A) (A) (A) (A) (A) (A) (A)
                 (A) (A) (A) (A) (A) (A) (A) (A) (A) (A) (A) (A)
                 (A) (A) (A) (A) (A) (A) (A) (A) (A) (A) (A) (A)
                 (A) (A) (A) (A) (A) (A) (A) (A) (A) (A) (A) (A)
                 (A) (A) (A) (A) (A) (A) (A) (A) (A) (A) (A) (A)
                 (A) (A) (A) (A) (A) (A) (A) (A) (A) (A) (A) (A)
                 (A) (A) (A) (A) (A) (A) (A) (A) (A) (A) (A) (A)
                 (A) (A) (A) (A) (A) (A) (A) (A) (A) (A) (A) (A)
                 (A) (A) (A) (A) (A) (A) (A) (A) (A) (A) (A) (A)
                 (A) (A) (A) (A) (A) (A) (A) (A) (A) (A) (A) (A)
                 (A) (A) (A) (A) (A) (A) (A) (A) (A) (A) (A) (A)
                 (A) (A) (A) (A) (A) (A) (A) (A) (A) (A) (A) (A)
                 (A) (A) (A) (A) (A) (A) (A) (A) (A) (A) (A) (A)
                 (A) (A) (A) (A) (A) (A) (A) (A) (A) (A) (A) (A)
                 (A) (A) (A) (A) (A) (A) (A) (A) (A) (A) (A) (A)
                 (A) (A) (A) (A) (A) (A) (A) (A) (A) (A) (A) (A)
                 (A) (A) (A) (A) (A) (A) (A) (A) (A) (A) (A) (A)
                 (A) (A) (A) (A) (A) (A) (A) (A) (A) (A) (A) (A)
                 (A) (A) (A) (A) (A) (A) (A) (A) (A) (A) (A) (A)
                 (A) (A) (A) (A) (A) (A) (A) (A) (A) (A) (A) (A)
                 (A) (A) (A) (A) (A) (A) (A) (A) (A) (A) (A) (A)
                 (A) (A) (A) (A) (A) (A) (A) (A) (A) (A) (A) (A)
                 (A) (A) (A) (A) (A) (A) (A) (A) (A) (A) (A) (A)
                 (A) (A) (A) (A) (A) (A) (A) (A) (A) (A) (A) (A)
                 (A) (A) (A) (A) (A) (A) (A) (A) (A) (A) (A) (A)
                 (A) (A) (A) (A) (A) (A) (A) (A) (A) (A) (A) (A)
                 (A) (A) (A) (A) (A) (A) (A) (A) (A) (A) (A) (A)
                 (A) (A) (A) (A) (A) (A) (A) (A) (A) (A) (A) (A)
                 (A) (A) (A) (A) (A) (A) (A) (A) (A) (A) (A) (A)
                 (A) (A) (A) (A) (A) (A) (A) (A) (A) (A) (A) (A)
                 (A) (A) (A) (A) (A) (A) (A) (A) (A) (A) (A) (A)
                 (A) (A) (A) (A) (A) (A) (A) (A) (A) (A) (A) (A)
                 (A) (A) (A) (A) (A) (A) (A) (A) (A) (A) (A) (A)
                 (A) (A) (A) (A) (A) (A) (A) (A) (A) (A) (A) (A)
                 (A) (A) (A) (A) (A) (A) (A) (A) (A) (A) (A) (A)
                 (A) (A) (A) (A) (A) (A) (A) (A) (A) (A) (A) (A)
                 (A) (A) (A) (A) (A) (A) (A) (A) (A) (A) (A) (A)
                 (A) (A) (A) (A) (A) (A) (A) (A) (A) (A) (A) (A)
                 (A) (A) (A) (A) (A) (A) (A) (A) (A) (A) (A) (A)
                 (A) (A) (A) (A) (A) (A) (A) (A) (A) (A) (A) (A)
                 (A) (A) (A) (A) (A) (A) (A) (A) (A) (A) (A) (A)
                 (A) (A) (A) (A) (A) (A) (A) (A) (A) (A) (A) (A)
                 (A) (A) (A) (A) (A) (A) (A) (A) (A) (A) (A) (A)
                 (A) (A) (A) (A) (A) (A) (A) (A) (A) (A) (A) (A)
                 (A) (A) (A) (A) (A) (A) (A) (A) (A) (A) (A) (A)
                 (A) (A) (A) (A) (A) (A) (A) (A) (A) (A) (A) (A)
                 (A) (A) (A) (A) (A) (A) (A) (A) (A) (A) (A) (A)
                 (A) (A) (A) (A) (A) (A) (A) (A) (A) (A) (A) (A)
                 (A) (A) (A) (A) (A) (A) (A) (A) (A) (A) (A) (A)
                 (A) (A) (A) (A) (A) (A) (A) (A) (A) (A) (A) (A)
                 (A) (A) (A) (A) (A) (A) (A) (A) (A) (A) (A) (A)
                 (A) (A) (A) (A) (A) (A) (A) (A) (A) (A) (A) (A)
                 (A) (A) (A) (A) (A) (A) (A) (A) (A) (A) (A) (A)
                 (A) (A) (A) (A) (A) (A) (A) (A) (A) (A) (A) (A)
                 (A) (A) (A) (A) (A) (A) (A) (A) (A) (A) (A) (A)
                 (A) (A) (A) (A) (A) (A) (A) (A) (A) (A) (A) (A)
                 (A) (A) (A) (A) (A) (A) (A) (A) (A) (A) (A) (A)
                 (A) (A) (A) (A) (A) (A) (A) (A) (A) (A) (A) (A)
                 (A) (A) (A) (A) (A) (A) (A) (A) (A) (A) (A) (A)
                 (A) (A) (A) (A) (A) (A) (A) (A) (A) (A) (A) (A)
                 (A) (A) (A) (A) (A) (A) (A) (A) (A) (A) (A) (A)
                 (A) (A) (A) (A) (A) (A) (A) (A) (A) (A) (A) (A)
                 (A) (A) (A) (A) (A) (A) (A) (A) (A) (A) (A) (A)
                 (A) (A) (A) (A) (A) (A) (A) (A) (A) (A) (A) (A)
                 (A) (A) (A) (A) (A) (A) (A) (A) (A) (A) (A) (A)
                 (A) (A) (A) (A) (A) (A) (A) (A) (A) (A) (A) (A)
                 (A) (A) (A) (A) (A) (A) (A) (A) (A) (A) (A) (A)
                 (A) (A) (A) (A) (A) (A) (A) (A) (A) (A) (A) (A)
                 (A) (A) (A) (A) (A) (A) (A) (A) (A) (A) (A) (A)
                 (A) (A) (A) (A) (A) (A) (A) (A) (A) (A) (A) (A)
                 (A) (A) (A) (A) (A) (A) (A) (A) (A) (A) (A) (A)
                 (A) (A) (A) (A) (A) (A) (A) (A) (A) (A) (A) (A)
                 (A) (A) (A) (A) (A) (A) (A) (A) (A) (A) (A) (A)
                 (A) (A) (A) (A) (A) (A) (A) (A) (A) (A) (A) (A)
                 (A) (A) (A) (A) (A) (A) (A) (A) (A) (A) (A) (A)
                 (A) (A) (A) (A) (A) (A) (A) (A) (A) (A) (A) (A)
                 (A) (A) (A) (A) (A) (A) (A) (A) (A) (A) (A) (A)
                 (A) (A) (A) (A) (A) (A) (A) (A) (A) (A) (A) (A)
                 (A) (A) (A) (A) (A) (A) (A) (A) (A) (A) (A) (A)
                 (A) (A) (A) (A) (A) (A) (A) (A) (A) (A) (A) (A)
                 (A) (A) (A) (A) (A) (A) (A) (A) (A) (A) (A) (A)
                 (A) (A) (A) (A) (A) (A) (A) (A) (A) (A) (A) (A)
                 (A) (A) (A) (A) (A) (A) (A) (A) (A) (A) (A) (A)
                 (A) (A) (A) (A) (A) (A) (A) (A) (A) (A) (A) (A)
                 (A) (A) (A) (A) (A) (A) (A) (A) (A) (A) (A) (A)
                 (A) (A) (A) (A) (A) (A) (A) (A) (A) (A) (A) (A)
                 (A) (A) (A) (A) (A) (A) (A) (A) (A) (A) (A) (A)
                 (A) (A) (A) (A) (A) (A) (A) (A) (A) (A) (A) (A)
                 (A) (A) (A) (A) (A) (A) (A) (A) (A) (A) (A) (A)
                 (A) (A) (A) (A) (A) (A) (A) (A) (A) (A) (A) (A)
                 (A) (A) (A) (A) (A) (A) (A) (A) (A) (A) (A) (A)
                 (A) (A) (A) (A) (A) (A) (A) (A) (A) (A) (A) (A)
                 (A) (A) (A) (A) (A) (A) (A) (A) (A) (A) (A) (A)
                 (A) (A) (A) (A) (A) (A) (A) (A) (A) (A) (A) (A)
                 (A) (A) (A) (A) (A) (A) (A) (A) (A) (A) (A) (A)
                 (A) (A) (A) (A) (A) (A) (A) (A) (A) (A) (A) (A)
                 (A) (A) (A) (A) (A) (A) (A) (A) (A) (A) (A) (A)
                 (A) (A) (A) (A) (A) (A) (A) (A) (A) (A) (A) (A)
                 (A) (A) (A) (A) (A) (A) (A) (A) (A) (A) (A) (A)
                 (A) (A) (A) (A) (A) (A) (A) (A) (A) (A) (A) (A)
                 (A) (A) (A) (A) (A) (A) (A) (A) (A) (A) (A) (A)
                 (A) (A) (A) (A) (A) (A) (A) (A) (A) (A) (A) (A)
                 (A) (A) (A) (A) (A) (A) (A) (A) (A) (A) (A) (A)
                 (A) (A) (A) (A) (A) (A) (A) (A) (A) (A) (A) (A)
                 (A) (A) (A) (A) (A) (A) (A) (A) (A) (A) (A) (A)
    20 initial guesses have been made.
 Convergence on wavefunction:    0.001000000000000
 Davidson Disk Diagonalization:  ConvIn= 1.00D-03 SkipCon=T Conv= 1.00D-03.
 Max sub-space:  2000 roots to seek:    20 dimension of matrix:       549360
 Iteration     1 Dimension    20 NMult     0 NNew     20
 CISAX will form    20 AO SS matrices at one time.
 NMat=    20 NSing=    20 JSym2X= 0.
 FoFJK:  IHMeth= 1 ICntrl=       0 DoSepK=T KAlg= 0 I1Cent=           0 FoldK=F
 IRaf=         1 NMat=      40 IRICut=       1 DoRegI=T DoRafI=F ISym2E= 0 IDoP0=3 IntGTp=3.
 FoFCou: FMM=T IPFlag=           0 FMFlag=      100000 FMFlg1=        2001
         NFxFlg=           0 DoJE=F BraDBF=F KetDBF=F FulRan=T
         wScrn=  0.000000 ICntrl=       500 IOpCl=  0 I1Cent=           0 NGrid=           0
         NMat0=   20 NMatS0=     20 NMatT0=    0 NMatD0=   20 NMtDS0=    0 NMtDT0=    0
 Symmetry not used in FoFCou.
 FMM levels:  10  Number of levels for PrismC:   9
 New state      2 was old state      4
 New state      3 was old state      7
 New state      4 was old state      6
 New state      5 was old state      2
 Excitation Energies [eV] at current iteration:
 Root      1 :     2.345599170113401
 Root      2 :     2.537206437974564
 Root      3 :     2.601225489961264
 Root      4 :     2.619147133969015
 Root      5 :     2.639511153984965
 Root      6 :     2.744575202114184
 Root      7 :     3.131496059143337
 Root      8 :     3.331253581340007
 Root      9 :     3.635899650321765
 Root     10 :     3.674444526477169
 Root     11 :     3.725093384828872
 Root     12 :     3.756420085481514
 Root     13 :     4.247213644926085
 Root     14 :     4.263589184658834
 Root     15 :     4.351770530786407
 Root     16 :     4.461961650905442
 Root     17 :     4.572766500176423
 Root     18 :     4.604377795844186
 Root     19 :     4.736851515297815
 Root     20 :     4.849444420295146
 Iteration     2 Dimension    30 NMult    20 NNew     10
 CISAX will form    10 AO SS matrices at one time.
 NMat=    10 NSing=    10 JSym2X= 0.
 New state      1 was old state      5
 Root      1 not converged, maximum delta is    0.350428078093458
 New state      2 was old state      4
 Root      2 not converged, maximum delta is    0.213407693110273
 Root      3 not converged, maximum delta is    0.297029896607617
 New state      4 was old state      1
 Root      4 not converged, maximum delta is    0.003317079795836
 New state      5 was old state      2
 Root      5 not converged, maximum delta is    0.006148806442998
 Excitation Energies [eV] at current iteration:
 Root      1 :     1.775050758498837   Change is   -0.864460395486128
 Root      2 :     2.224569827387272   Change is   -0.394577306581742
 Root      3 :     2.242113531467647   Change is   -0.359111958493617
 Root      4 :     2.344810623333347   Change is   -0.000788546780054
 Root      5 :     2.536189204692983   Change is   -0.001017233281581
 Iteration     3 Dimension    40 NMult    30 NNew     10
 CISAX will form    10 AO SS matrices at one time.
 NMat=    10 NSing=    10 JSym2X= 0.
 Root      1 not converged, maximum delta is    0.053125834428037
 Root      2 not converged, maximum delta is    0.478295098454403
 Root      3 not converged, maximum delta is    0.588327787146294
 No map to state      4
 New state      5 was old state      4
 Root      5 not converged, maximum delta is    0.001057860772324
 Excitation Energies [eV] at current iteration:
 Root      1 :     1.670725722875983   Change is   -0.104325035622854
 Root      2 :     1.885520079944929   Change is   -0.339049747442344
 Root      3 :     2.197102784762809   Change is   -0.045010746704838
 Root      4 :     2.208642266976327
 Root      5 :     2.344806945223102   Change is   -0.000003678110245
 Iteration     4 Dimension    50 NMult    40 NNew     10
 CISAX will form    10 AO SS matrices at one time.
 NMat=    10 NSing=    10 JSym2X= 0.
 Root      1 not converged, maximum delta is    0.010300454921485
 Root      2 not converged, maximum delta is    0.062202894752313
 Root      3 not converged, maximum delta is    0.196805935315665
 Root      4 not converged, maximum delta is    0.195145418699207
 Root      5 has converged.
 Excitation Energies [eV] at current iteration:
 Root      1 :     1.654195792331484   Change is   -0.016529930544499
 Root      2 :     1.722603359064580   Change is   -0.162916720880349
 Root      3 :     2.186241454439725   Change is   -0.010861330323084
 Root      4 :     2.196733965395175   Change is   -0.011908301581152
 Root      5 :     2.344805942046225   Change is   -0.000001003176877
 Iteration     5 Dimension    58 NMult    50 NNew      8
 CISAX will form     8 AO SS matrices at one time.
 NMat=     8 NSing=     8 JSym2X= 0.
 Root      1 not converged, maximum delta is    0.001451436291078
 Root      2 not converged, maximum delta is    0.009772838383468
 Root      3 not converged, maximum delta is    0.018798108256152
 Root      4 not converged, maximum delta is    0.018779864936522
 Root      5 has converged.
 Excitation Energies [eV] at current iteration:
 Root      1 :     1.652499437176815   Change is   -0.001696355154669
 Root      2 :     1.702564669256359   Change is   -0.020038689808221
 Root      3 :     2.184864890988619   Change is   -0.001376563451106
 Root      4 :     2.195698394067938   Change is   -0.001035571327237
 Root      5 :     2.344805917210839   Change is   -0.000000024835386
 Iteration     6 Dimension    66 NMult    58 NNew      8
 CISAX will form     8 AO SS matrices at one time.
 NMat=     8 NSing=     8 JSym2X= 0.
 Root      1 has converged.
 Root      2 not converged, maximum delta is    0.003428520660034
 Root      3 not converged, maximum delta is    0.002009039612040
 Root      4 not converged, maximum delta is    0.002031181547758
 Root      5 has converged.
 Excitation Energies [eV] at current iteration:
 Root      1 :     1.652259397726407   Change is   -0.000240039450407
 Root      2 :     1.700388916229065   Change is   -0.002175753027295
 Root      3 :     2.184688902634770   Change is   -0.000175988353848
 Root      4 :     2.195556693230337   Change is   -0.000141700837601
 Root      5 :     2.344805915129923   Change is   -0.000000002080916
 Iteration     7 Dimension    72 NMult    66 NNew      6
 CISAX will form     6 AO SS matrices at one time.
 NMat=     6 NSing=     6 JSym2X= 0.
 Root      1 has converged.
 Root      2 has converged.
 Root      3 has converged.
 Root      4 has converged.
 Root      5 has converged.
 Excitation Energies [eV] at current iteration:
 Root      1 :     1.652258592137638   Change is   -0.000000805588769
 Root      2 :     1.700141169985966   Change is   -0.000247746243098
 Root      3 :     2.184664088018078   Change is   -0.000024814616693
[...]
 Alpha virt. eigenvalues --    1.83619   1.83787   1.83897   1.84198   1.84384
 Alpha virt. eigenvalues --    1.84415   1.84650   1.84751   1.84788   1.85089
 Alpha virt. eigenvalues --    1.85241   1.85290   1.85426   1.85576   1.85653
 Alpha virt. eigenvalues --    1.85970   1.86163   1.86282   1.86503   1.86552
 Alpha virt. eigenvalues --    1.86753   1.86840   1.86946   1.87063   1.87217
 Alpha virt. eigenvalues --    1.87456   1.87612   1.87660   1.87802   1.87911
 Alpha virt. eigenvalues --    1.87973   1.88147   1.88352   1.88478   1.88760
 Alpha virt. eigenvalues --    1.88776   1.89087   1.89156   1.89495   1.89594
 Alpha virt. eigenvalues --    1.89715   1.89978   1.90070   1.90186   1.90511
 Alpha virt. eigenvalues --    1.90718   1.91120   1.91335   1.91475   1.91574
 Alpha virt. eigenvalues --    1.91801   1.92106   1.92388   1.92588   1.92788
 Alpha virt. eigenvalues --    1.92927   1.93258   1.93338   1.93633   1.94235
 Alpha virt. eigenvalues --    1.94445   1.94642   1.94969   1.95411   1.95653
 Alpha virt. eigenvalues --    1.95700   1.95933   1.95946   1.96054   1.96224
 Alpha virt. eigenvalues --    1.96309   1.96559   1.96715   1.96836   1.97164
 Alpha virt. eigenvalues --    1.97390   1.97654   1.97735   1.97948   1.98104
 Alpha virt. eigenvalues --    1.98408   1.98496   1.98636   1.99087   1.99337
 Alpha virt. eigenvalues --    1.99767   2.00202   2.00589   2.00879   2.00997
 Alpha virt. eigenvalues --    2.01305   2.01441   2.01615   2.01647   2.01657
 Alpha virt. eigenvalues --    2.01797   2.02093   2.02727   2.02856   2.03187
 Alpha virt. eigenvalues --    2.03250   2.03346   2.03420   2.03589   2.03720
 Alpha virt. eigenvalues --    2.03988   2.04176   2.04894   2.05147   2.05489
 Alpha virt. eigenvalues --    2.05820   2.06035   2.06455   2.06850   2.07115
 Alpha virt. eigenvalues --    2.07195   2.07492   2.08564   2.08734   2.08922
 Alpha virt. eigenvalues --    2.09175   2.09536   2.09782   2.10707   2.11110
 Alpha virt. eigenvalues --    2.11146   2.11492   2.11571   2.11655   2.11691
 Alpha virt. eigenvalues --    2.12093   2.12404   2.12665   2.12744   2.12789
 Alpha virt. eigenvalues --    2.13013   2.13131   2.13726   2.13849   2.14080
 Alpha virt. eigenvalues --    2.14377   2.15274   2.15568   2.15859   2.16243
 Alpha virt. eigenvalues --    2.16473   2.16664   2.16774   2.17332   2.17405
 Alpha virt. eigenvalues --    2.17650   2.17779   2.17958   2.18117   2.18191
 Alpha virt. eigenvalues --    2.18282   2.18812   2.18842   2.19392   2.19577
 Alpha virt. eigenvalues --    2.19987   2.20008   2.20125   2.20401   2.20622
 Alpha virt. eigenvalues --    2.21213   2.21287   2.21616   2.21663   2.21944
 Alpha virt. eigenvalues --    2.22025   2.22654   2.22874   2.23288   2.23469
 Alpha virt. eigenvalues --    2.24335   2.24547   2.24896   2.25166   2.26235
 Alpha virt. eigenvalues --    2.26598   2.26732   2.27034   2.27158   2.27376
 Alpha virt. eigenvalues --    2.28083   2.28538   2.29205   2.29600   2.29677
 Alpha virt. eigenvalues --    2.30059   2.30399   2.30827   2.30992   2.31061
 Alpha virt. eigenvalues --    2.31125   2.31349   2.32081   2.32405   2.33074
 Alpha virt. eigenvalues --    2.33384   2.33409   2.33603   2.34097   2.34263
 Alpha virt. eigenvalues --    2.35313   2.35425   2.35736   2.36123   2.36378
 Alpha virt. eigenvalues --    2.36522   2.36555   2.36582   2.37654   2.37788
 Alpha virt. eigenvalues --    2.38204   2.38567   2.38813   2.38942   2.39544
 Alpha virt. eigenvalues --    2.39818   2.40216   2.40359   2.40428   2.40982
 Alpha virt. eigenvalues --    2.41244   2.41374   2.41716   2.41827   2.41971
 Alpha virt. eigenvalues --    2.42282   2.42930   2.42947   2.43149   2.43497
 Alpha virt. eigenvalues --    2.44124   2.44163   2.44669   2.44843   2.44977
 Alpha virt. eigenvalues --    2.45181   2.45472   2.45729   2.46237   2.46398
 Alpha virt. eigenvalues --    2.46470   2.46678   2.46731   2.46962   2.47182
 Alpha virt. eigenvalues --    2.47496   2.47654   2.48023   2.49254   2.49537
 Alpha virt. eigenvalues --    2.49984   2.49999   2.50488   2.50636   2.51058
 Alpha virt. eigenvalues --    2.51418   2.51792   2.51844   2.52394   2.52527
 Alpha virt. eigenvalues --    2.52750   2.53396   2.53858   2.54100   2.54134
 Alpha virt. eigenvalues --    2.54445   2.54739   2.54930   2.55454   2.55825
 Alpha virt. eigenvalues --    2.57801   2.58250   2.58574   2.59101   2.60137
 Alpha virt. eigenvalues --    2.60446   2.60564   2.61110   2.61648   2.62005
 Alpha virt. eigenvalues --    2.62473   2.62586   2.62881   2.63259   2.63873
 Alpha virt. eigenvalues --    2.64162   2.64388   2.64488   2.65003   2.65217
 Alpha virt. eigenvalues --    2.65738   2.65990   2.66692   2.66838   2.66939
 Alpha virt. eigenvalues --    2.67245   2.67835   2.68120   2.68787   2.68955
 Alpha virt. eigenvalues --    2.68960   2.69160   2.69292   2.69731   2.69922
 Alpha virt. eigenvalues --    2.70258   2.70904   2.71201   2.71984   2.72020
 Alpha virt. eigenvalues --    2.72574   2.72605   2.72768   2.72867   2.73203
 Alpha virt. eigenvalues --    2.73390   2.73458   2.73563   2.74431   2.74635
 Alpha virt. eigenvalues --    2.74899   2.75188   2.76518   2.76634   2.77144
 Alpha virt. eigenvalues --    2.77203   2.77402   2.77775   2.78155   2.78467
 Alpha virt. eigenvalues --    2.78658   2.78805   2.79069   2.79290   2.80286
 Alpha virt. eigenvalues --    2.80451   2.80521   2.80817   2.81016   2.81298
 Alpha virt. eigenvalues --    2.81857   2.82130   2.82256   2.82453   2.83668
 Alpha virt. eigenvalues --    2.83704   2.84021   2.84026   2.84454   2.84656
 Alpha virt. eigenvalues --    2.84808   2.84983   2.85604   2.85834   2.86753
 Alpha virt. eigenvalues --    2.86920   2.87260   2.87544   2.88103   2.88402
 Alpha virt. eigenvalues --    2.88416   2.88711   2.88857   2.89002   2.90429
 Alpha virt. eigenvalues --    2.90752   2.91117   2.91168   2.93090   2.93461
 Alpha virt. eigenvalues --    2.93893   2.94131   2.94495   2.94686   2.95331
 Alpha virt. eigenvalues --    2.95588   2.95915   2.96141   2.96404   2.96469
 Alpha virt. eigenvalues --    2.96943   2.97127   2.97770   2.98153   2.98189
 Alpha virt. eigenvalues --    2.98254   2.98492   2.98516   2.98739   2.98814
 Alpha virt. eigenvalues --    2.98912   2.99058   2.99565   2.99918   2.99976
 Alpha virt. eigenvalues --    3.00125   3.00163   3.00396   3.00522   3.01156
 Alpha virt. eigenvalues --    3.01884   3.01988   3.01994   3.02259   3.02684
 Alpha virt. eigenvalues --    3.02913   3.02972   3.03278   3.03488   3.03842
 Alpha virt. eigenvalues --    3.04121   3.04272   3.04371   3.04469   3.04575
 Alpha virt. eigenvalues --    3.04852   3.05240   3.05504   3.06064   3.06262
 Alpha virt. eigenvalues --    3.06763   3.07099   3.08073   3.08082   3.09360
 Alpha virt. eigenvalues --    3.09459   3.09658   3.10389   3.10538   3.10887
 Alpha virt. eigenvalues --    3.11282   3.11530   3.11894   3.11927   3.12155
 Alpha virt. eigenvalues --    3.12434   3.13228   3.13557   3.13790   3.13817
 Alpha virt. eigenvalues --    3.14029   3.14559   3.15856   3.16033   3.17172
 Alpha virt. eigenvalues --    3.17650   3.18029   3.18038   3.19060   3.19182
 Alpha virt. eigenvalues --    3.22231   3.22694   3.23861   3.24575   3.24579
 Alpha virt. eigenvalues --    3.25318   3.26417   3.26795   3.27525   3.27545
 Alpha virt. eigenvalues --    3.29025   3.29308   3.31446   3.31520   3.33326
 Alpha virt. eigenvalues --    3.33342   3.40327   3.40566   3.42772   3.42979
 Alpha virt. eigenvalues --    3.48564   3.48831   3.49946   3.50424   3.50982
 Alpha virt. eigenvalues --    3.51406   3.56480   3.57148   3.59023   3.59462
 Alpha virt. eigenvalues --    3.62651   3.62752   3.66163   3.66279   3.67116
 Alpha virt. eigenvalues --    3.67621   3.73185   3.74118   3.75961   3.76786
          Condensed to atoms (all electrons):
 Mulliken charges:
               1
     1  Mg   0.838875
     2  C   -0.002684
     3  C   -0.094145
     4  C   -0.045487
     5  C   -0.064622
     6  N   -0.256834
     7  C   -0.052332
     8  C   -0.014088
     9  C   -0.087045
    10  C    0.046635
    11  C    0.104761
    12  C    0.053453
    13  C   -0.072487
    14  H    0.037929
    15  N   -0.433285
    16  C    0.168794
    17  C   -0.177034
    18  C   -0.003499
    19  C    0.149122
    20  C    0.110164
    21  C    0.012834
    22  O   -0.248267
    23  C    0.062295
    24  N   -0.341085
    25  C    0.041233
    26  C   -0.028646
    27  C   -0.023964
    28  C    0.074585
    29  C    0.075954
    30  C    0.035953
    31  C   -0.008452
    32  N   -0.310141
    33  C    0.079729
    34  C   -0.171399
    35  C    0.007934
    36  C    0.082475
    37  C    0.127703
    38  C    0.045221
    39  O   -0.189361
    40  C   -0.004965
    41  C    0.212530
    42  O   -0.257406
    43  O   -0.304728
    44  C    0.157773
    45  H   -0.017262
    46  H   -0.015993
    47  H   -0.042410
    48  H    0.000995
    49  H   -0.003826
    50  H    0.025540
    51  H    0.016439
    52  H    0.016955
    53  H    0.010959
    54  H    0.044688
    55  H    0.017682
    56  H    0.017801
    57  H    0.005995
    58  H    0.027372
    59  H    0.039420
    60  H    0.037317
    61  H    0.036876
    62  H    0.030981
    63  H    0.017503
    64  H    0.009642
    65  H    0.024094
    66  H    0.012750
    67  H    0.004758
    68  H    0.007253
    69  H    0.003351
    70  H    0.011054
    71  H    0.017039
    72  H    0.029526
    73  H    0.045769
    74  H    0.008229
    75  H    0.046480
    76  H    0.035359
    77  H    0.042719
    78  H    0.047209
    79  H    0.053616
    80  Mg   0.837689
    81  C   -0.016633
    82  C   -0.086306
    83  C   -0.044125
    84  C   -0.065634
    85  N   -0.254471
    86  C   -0.050247
    87  C   -0.014952
    88  C   -0.091391
    89  C    0.045033
    90  C    0.111813
    91  C    0.062748
    92  C   -0.077493
    93  H    0.034262
    94  N   -0.424158
    95  C    0.162755
    96  C   -0.170479
    97  C   -0.006746
    98  C    0.153086
    99  C    0.097762
   100  C    0.016803
   101  O   -0.254087
   102  C    0.060661
   103  N   -0.349961
   104  C    0.037540
   105  C   -0.019797
   106  C   -0.034261
   107  C    0.088539
   108  C    0.073705
   109  C    0.035018
   110  C   -0.007509
   111  N   -0.323925
   112  C    0.077957
   113  C   -0.163621
   114  C    0.002416
   115  C    0.095595
   116  C    0.131249
   117  C    0.042438
   118  O   -0.188562
   119  C    0.000818
   120  C    0.211160
   121  O   -0.251251
   122  O   -0.305735
   123  C    0.152171
   124  H   -0.016900
   125  H   -0.015899
   126  H   -0.041969
   127  H   -0.001631
   128  H   -0.004396
   129  H    0.024318
   130  H    0.017442
   131  H    0.015667
   132  H    0.014007
   133  H    0.037430
   134  H    0.019978
   135  H    0.019677
   136  H    0.009486
   137  H    0.031513
   138  H    0.038733
   139  H    0.040830
   140  H    0.035289
   141  H    0.033199
   142  H    0.013976
   143  H    0.010439
   144  H    0.023954
   145  H    0.013940
   146  H    0.003137
   147  H    0.005127
   148  H    0.002886
   149  H    0.010748
   150  H    0.017412
   151  H    0.030816
   152  H    0.045458
   153  H    0.007183
   154  H    0.047221
   155  H    0.035046
   156  H    0.043470
   157  H    0.049247
   158  H    0.053412
 Sum of Mulliken charges =  -0.00000
 Mulliken charges with hydrogens summed into heavy atoms:
               1
     1  Mg   0.838875
     2  C   -0.002684
     3  C   -0.111407
     4  C   -0.061480
     5  C   -0.107033
     6  N   -0.256834
     7  C   -0.052332
     8  C   -0.013092
     9  C   -0.090872
    10  C    0.046635
    11  C    0.163695
    12  C    0.109100
    13  C    0.000925
    15  N   -0.433285
    16  C    0.168794
    17  C   -0.177034
    18  C   -0.003499
    19  C    0.149122
    20  C    0.182951
    21  C    0.012834
    22  O   -0.248267
    23  C    0.167470
    24  N   -0.341085
    25  C    0.041233
    26  C   -0.011143
    27  C   -0.014322
    28  C    0.074585
    29  C    0.117557
    30  C    0.046558
    31  C    0.049166
    32  N   -0.310141
    33  C    0.079729
    34  C   -0.171399
    35  C    0.007934
    36  C    0.082475
    37  C    0.228181
    38  C    0.045221
    39  O   -0.189361
    40  C    0.030394
    41  C    0.212530
    42  O   -0.257406
    43  O   -0.304728
    44  C    0.301318
    80  Mg   0.837689
    81  C   -0.016633
    82  C   -0.103206
    83  C   -0.060024
    84  C   -0.107603
    85  N   -0.254471
    86  C   -0.050247
    87  C   -0.016583
    88  C   -0.095787
    89  C    0.045033
    90  C    0.169240
    91  C    0.114184
    92  C   -0.003575
    94  N   -0.424158
    95  C    0.162755
    96  C   -0.170479
    97  C   -0.006746
    98  C    0.153086
    99  C    0.177494
   100  C    0.016803
   101  O   -0.254087
   102  C    0.169979
   103  N   -0.349961
   104  C    0.037540
   105  C   -0.005821
   106  C   -0.023822
   107  C    0.088539
   108  C    0.114736
   109  C    0.043031
   110  C    0.051466
   111  N   -0.323925
   112  C    0.077957
   113  C   -0.163621
   114  C    0.002416
   115  C    0.095595
   116  C    0.231111
   117  C    0.042438
   118  O   -0.188562
   119  C    0.035864
   120  C    0.211160
   121  O   -0.251251
   122  O   -0.305735
   123  C    0.298300
 Electronic spatial extent (au):  <R**2>=          98545.6768
 Charge=             -0.0000 electrons
 Dipole moment (field-independent basis, Debye):
    X=              4.7753    Y=              0.6811    Z=              0.6673  Tot=              4.8696
 Quadrupole moment (field-independent basis, Debye-Ang):
   XX=           -527.2352   YY=           -534.8978   ZZ=           -457.8972
   XY=            -18.6280   XZ=             49.9251   YZ=             27.1433
 Traceless Quadrupole moment (field-independent basis, Debye-Ang):
   XX=            -20.5585   YY=            -28.2210   ZZ=             48.7795
   XY=            -18.6280   XZ=             49.9251   YZ=             27.1433
 Octapole moment (field-independent basis, Debye-Ang**2):
  XXX=            405.0463  YYY=            114.6020  ZZZ=            177.1279  XYY=            106.8568
  XXY=            103.7884  XXZ=             60.6716  XZZ=           -137.8771  YZZ=            -74.2647
  YYZ=           -240.2845  XYZ=             28.8289
 Hexadecapole moment (field-independent basis, Debye-Ang**3):
 XXXX=         -70719.3240 YYYY=         -39480.6074 ZZZZ=         -25409.0415 XXXY=            111.6975
 XXXZ=           2241.7434 YYYX=           1090.5162 YYYZ=             81.5655 ZZZX=            617.6589
 ZZZY=             84.0217 XXYY=         -17718.7668 XXZZ=         -15134.4160 YYZZ=         -10466.9495
 XXYZ=           1143.6860 YYXZ=            719.1932 ZZXY=           -531.7609
 N-N= 1.547603355311D+04 E-N=-4.043318438200D+04  KE= 4.028798992973D+03
 Leave Link  601 at Thu Aug 19 18:16:52 2021, MaxMem= 23488102400 cpu:              17.4 elap:               0.9
 (Enter /sw/apps/gaussian-16.0/g16/l9999.exe)
 1\1\GINC-BP1-COMPUTE00066\SP\RCAM-B3LYP TD-FC\def2SVP\C68H72Mg2N8O8\OF
 15641\19-Aug-2021\0\\#p cam-b3lyp/Def2SVP td=(nstates=5)\\TDDFT excite
 d states in gaussian\\0,1\Mg,0,0.,0.,0.\C,0,-0.217,-2.218,2.801\C,0,-1
 .255,2.442,2.026\C,0,-0.245,1.85,-2.564\C,0,0.146,-2.824,-2.037\N,0,-0
 .617,-0.009,2.126\C,0,-0.594,-0.908,3.105\C,0,-0.936,-0.309,4.502\C,0,
 -1.773,0.964,4.032\C,0,-1.155,1.168,2.66\C,0,-3.263,0.685,3.863\C,0,0.
 345,0.11,5.299\C,0,0.124,0.397,6.787\H,0,1.168,0.033,7.733\N,0,-0.185,
 1.961,-0.152\C,0,-0.703,2.8,0.777\C,0,-0.62,4.156,0.193\C,0,-0.187,4.0
 15,-1.225\C,0,-0.214,2.583,-1.38\C,0,-0.887,5.406,0.974\C,0,0.181,5.01
 3,-2.277\O,0,0.303,4.69,-3.508\C,0,0.31,6.414,-1.837\N,0,-0.265,-0.413
 ,-2.029\C,0,-0.279,0.569,-2.937\C,0,-0.196,0.024,-4.332\C,0,0.124,-1.5
 33,-4.18\C,0,0.086,-1.632,-2.635\C,0,-1.451,0.205,-5.197\C,0,1.373,-2.
 07,-4.923\C,0,2.626,-1.49,-4.306\N,0,0.15,-2.144,0.303\C,0,0.173,-3.13
 6,-0.688\C,0,0.173,-4.438,0.004\C,0,0.133,-4.111,1.358\C,0,0.083,-2.69
 5,1.502\C,0,0.149,-5.715,-0.623\C,0,0.096,-4.629,2.716\O,0,0.208,-5.74
 7,3.221\C,0,-0.255,-3.428,3.701\C,0,0.717,-3.482,4.848\O,0,1.931,-3.25
 5,4.669\O,0,0.038,-3.556,6.003\C,0,0.943,-3.583,7.183\H,0,-1.859,3.22,
 2.497\H,0,-0.218,2.453,-3.474\H,0,0.276,-3.747,-2.605\H,0,-1.554,-0.94
 9,5.132\H,0,-1.585,1.831,4.665\H,0,-3.484,-0.377,3.969\H,0,-3.511,1.02
 7,2.858\H,0,-3.852,1.301,4.543\H,0,0.669,1.096,4.966\H,0,1.13,-0.639,5
 .189\H,0,-0.844,0.026,7.125\H,0,0.062,1.477,6.921\H,0,-1.344,5.186,1.9
 38\H,0,-1.651,5.963,0.432\H,0,0.007,6.02,1.084\H,0,-0.635,6.744,-1.405
 \H,0,0.665,6.97,-2.704\H,0,1.048,6.466,-1.036\H,0,0.608,0.501,-4.891\H
 ,0,-0.692,-2.156,-4.547\H,0,-1.267,0.74,-6.129\H,0,-2.204,0.714,-4.596
 \H,0,-1.967,-0.72,-5.453\H,0,1.356,-1.759,-5.967\H,0,1.452,-3.157,-4.9
 02\H,0,2.714,-0.522,-4.798\H,0,3.487,-2.121,-4.529\H,0,2.495,-1.303,-3
 .24\H,0,0.867,-6.333,-0.084\H,0,0.404,-5.642,-1.68\H,0,-0.891,-5.999,-
 0.463\H,0,-1.283,-3.581,4.028\H,0,0.698,-4.478,7.755\H,0,0.833,-2.619,
 7.68\H,0,2.,-3.754,6.976\Mg,0,8.94228,0.79783,0.6764\C,0,8.98832,1.003
 7,-2.90613\C,0,8.38693,-2.54951,0.32784\C,0,8.44837,0.65455,3.80737\C,
 0,8.35996,4.23352,0.72774\N,0,8.73493,-0.48948,-1.11024\C,0,8.83223,-0
 .31076,-2.41903\C,0,8.83861,-1.62273,-3.24863\C,0,8.07961,-2.57368,-2.
 20054\C,0,8.4476,-1.85268,-0.90538\C,0,6.56748,-2.54681,-2.34911\C,0,1
 0.2916,-2.13678,-3.54292\C,0,10.38238,-3.23572,-4.60398\H,0,11.54033,-
 3.25034,-5.49358\N,0,8.97203,-0.75531,1.91149\C,0,8.74696,-2.04854,1.5
 9817\C,0,8.86388,-2.7946,2.86067\C,0,9.01337,-1.81591,3.97176\C,0,8.79
 133,-0.57321,3.26008\C,0,8.90812,-4.29397,2.9187\C,0,9.29522,-1.97331,
 5.43531\O,0,9.14617,-1.00183,6.25802\C,0,9.66075,-3.3224,5.89117\N,0,8
 .26321,2.19124,2.0619\C,0,8.19148,1.88736,3.36974\C,0,7.94216,3.12141,
 4.20361\C,0,8.10283,4.35702,3.20109\C,0,8.33967,3.58538,1.88432\C,0,6.
 57806,3.19663,4.88914\C,0,9.11771,5.46207,3.60304\C,0,10.52521,4.91255
 ,3.55442\N,0,8.8944,2.38926,-0.78411\C,0,8.6054,3.75183,-0.55175\C,0,8
 .58039,4.42218,-1.86797\C,0,8.83584,3.3905,-2.78387\C,0,8.9879,2.16014
 ,-2.08918\C,0,8.2974,5.79853,-2.09531\C,0,9.00091,3.06063,-4.18124\O,0
 ,9.06412,3.70865,-5.22519\C,0,8.98154,1.47852,-4.33271\C,0,10.13805,1.
 08159,-5.20874\O,0,11.30884,1.25799,-4.82827\O,0,9.67659,0.36496,-6.24
 983\C,0,10.7878,-0.06116,-7.14171\H,0,7.98603,-3.56349,0.33164\H,0,8.3
 7526,0.68115,4.89706\H,0,8.28236,5.32114,0.66662\H,0,8.28321,-1.57545,
 -4.17765\H,0,8.49296,-3.57888,-2.20804\H,0,6.24566,-1.79992,-3.05955\H
 ,0,6.17901,-2.32411,-1.36394\H,0,6.19571,-3.54406,-2.60132\H,0,10.6600
 3,-2.6888,-2.66869\H,0,10.93703,-1.32263,-3.80976\H,0,9.4539,-3.33009,
 -5.18014\H,0,10.48298,-4.19905,-4.09812\H,0,8.61018,-4.74248,1.96294\H
 ,0,8.1295,-4.60988,3.62142\H,0,9.87176,-4.67385,3.26476\H,0,8.86113,-4
 .01638,5.64326\H,0,9.91099,-3.2158,6.94848\H,0,10.54631,-3.65131,5.335
 99\H,0,8.67916,3.21062,4.99227\H,0,7.1583,4.90695,3.07753\H,0,6.64723,
 3.31408,5.98709\H,0,6.01947,2.30517,4.63651\H,0,5.92364,3.98893,4.5297
 \H,0,8.94374,5.77907,4.63425\H,0,9.06075,6.34822,2.97975\H,0,10.62894,
 4.41369,4.52265\H,0,11.24776,5.71897,3.44647\H,0,10.62182,4.14611,2.77
 668\H,0,9.01721,6.14826,-2.82337\H,0,8.35219,6.37329,-1.17313\H,0,7.27
 443,5.72729,-2.47443\H,0,8.02192,1.20319,-4.77191\H,0,10.54613,0.2976,
 -8.14698\H,0,10.87749,-1.15529,-7.00538\H,0,11.75944,0.39194,-6.98336\
 \Version=ES64L-G16RevA.03\State=1-A\HF=-4069.8120121\RMSD=7.333e-09\PG
 =C01 [X(C68H72Mg2N8O8)]\\@


 We find comfort among those who agree with us -- growth among those who don't.
 -- Frank A. Clark
 Job cpu time:       0 days 14 hours 55 minutes 57.0 seconds.
 Elapsed time:       0 days  0 hours 38 minutes  0.6 seconds.
 File lengths (MBytes):  RWF=  13225 Int=      0 D2E=      0 Chk=    574 Scr=      1
 Normal termination of Gaussian 16 at Thu Aug 19 18:16:53 2021.
