 Entering Gaussian System, Link 0=g16
 Initial command:
 /sw/apps/gaussian-16.0/g16/l1.exe "/tmp/Gau-204492.inp" -scrdir="/tmp/"
 Entering Link 1 = /sw/apps/gaussian-16.0/g16/l1.exe PID=    204493.
  
 Copyright (c) 1988,1990,1992,1993,1995,1998,2003,2009,2016,
            Gaussian, Inc.  All Rights Reserved.
  
 This is part of the Gaussian(R) 16 program.  It is based on
 the Gaussian(R) 09 system (copyright 2009, Gaussian, Inc.),
 the Gaussian(R) 03 system (copyright 2003, Gaussian, Inc.),
 the Gaussian(R) 98 system (copyright 1998, Gaussian, Inc.),
 the Gaussian(R) 94 system (copyright 1995, Gaussian, Inc.),
 the Gaussian 92(TM) system (copyright 1992, Gaussian, Inc.),
 the Gaussian 90(TM) system (copyright 1990, Gaussian, Inc.),
 the Gaussian 88(TM) system (copyright 1988, Gaussian, Inc.),
 the Gaussian 86(TM) system (copyright 1986, Carnegie Mellon
 University), and the Gaussian 82(TM) system (copyright 1983,
 Carnegie Mellon University). Gaussian is a federally registered
 trademark of Gaussian, Inc.
  
 This software contains proprietary and confidential information,
 including trade secrets, belonging to Gaussian, Inc.
  
 This software is provided under written license and may be
 used, copied, transmitted, or stored only in accord with that
 written license.
  
 The following legend is applicable only to US Government
 contracts under FAR:
  
                    RESTRICTED RIGHTS LEGEND
  
 Use, reproduction and disclosure by the US Government is
 subject to restrictions as set forth in subparagraphs (a)
 and (c) of the Commercial Computer Software - Restricted
 Rights clause in FAR 52.227-19.
  
 Gaussian, Inc.
 340 Quinnipiac St., Bldg. 40, Wallingford CT 06492
  
  
 ---------------------------------------------------------------
 Warning -- This program may not be used in any manner that
 competes with the business of Gaussian, Inc. or will provide
 assistance to any competitor of Gaussian, Inc.  The licensee
 of this program is prohibited from giving any competitor of
 Gaussian, Inc. access to this program.  By using this program,
 the user acknowledges that Gaussian, Inc. is engaged in the
 business of creating and licensing software in the field of
 computational chemistry and represents and warrants to the
 licensee that it is not a competitor of Gaussian, Inc. and that
 it will not use this program in any manner prohibited above.
 ---------------------------------------------------------------
  

 Cite this work as:
 Gaussian 16, Revision A.03,
 M. J. Frisch, G. W. Trucks, H. B. Schlegel, G. E. Scuseria, 
 M. A. Robb, J. R. Cheeseman, G. Scalmani, V. Barone, 
 G. A. Petersson, H. Nakatsuji, X. Li, M. Caricato, A. V. Marenich, 
 J. Bloino, B. G. Janesko, R. Gomperts, B. Mennucci, H. P. Hratchian, 
 J. V. Ortiz, A. F. Izmaylov, J. L. Sonnenberg, D. Williams-Young, 
 F. Ding, F. Lipparini, F. Egidi, J. Goings, B. Peng, A. Petrone, 
 T. Henderson, D. Ranasinghe, V. G. Zakrzewski, J. Gao, N. Rega, 
 G. Zheng, W. Liang, M. Hada, M. Ehara, K. Toyota, R. Fukuda, 
 J. Hasegawa, M. Ishida, T. Nakajima, Y. Honda, O. Kitao, H. Nakai, 
 T. Vreven, K. Throssell, J. A. Montgomery, Jr., J. E. Peralta, 
 F. Ogliaro, M. J. Bearpark, J. J. Heyd, E. N. Brothers, K. N. Kudin, 
 V. N. Staroverov, T. A. Keith, R. Kobayashi, J. Normand, 
 K. Raghavachari, A. P. Rendell, J. C. Burant, S. S. Iyengar, 
 J. Tomasi, M. Cossi, J. M. Millam, M. Klene, C. Adamo, R. Cammi, 
 J. W. Ochterski, R. L. Martin, K. Morokuma, O. Farkas, 
 J. B. Foresman, and D. J. Fox, Gaussian, Inc., Wallingford CT, 2016.
 
 ******************************************
 Gaussian 16:  ES64L-G16RevA.03 25-Dec-2016
                19-Aug-2021 
 ******************************************
 %nproc=24
 Will use up to   24 processors via shared memory.
 %mem=175gb
 -----------------------------------
 #p cam-b3lyp/Def2SVP td=(nstates=5)
 -----------------------------------
 1/38=1,172=1/1;
 2/12=2,17=6,18=5,40=1/2;
 3/5=43,7=101,11=9,25=1,30=1,74=-40/1,2,3,8;
 4//1;
 5/5=2,38=5/2;
 8/6=1,10=1,108=5/1;
 9/41=5,42=1,70=2/14;
 6/7=2,8=2,9=2,10=2/1;
 99/5=1,9=1/99;
 Leave Link    1 at Thu Aug 19 20:51:45 2021, MaxMem= 23488102400 cpu:               1.0 elap:               0.0
 (Enter /sw/apps/gaussian-16.0/g16/l101.exe)
 --------------------------------
 TDDFT excited states in gaussian
 --------------------------------
 Symbolic Z-matrix:
 Charge =  0 Multiplicity = 1
 Mg                    0.        0.        0. 
 C                    -0.217    -2.218     2.801 
 C                    -1.255     2.442     2.026 
 C                    -0.245     1.85     -2.564 
 C                     0.146    -2.824    -2.037 
 N                    -0.617    -0.009     2.126 
 C                    -0.594    -0.908     3.105 
 C                    -0.936    -0.309     4.502 
 C                    -1.773     0.964     4.032 
 C                    -1.155     1.168     2.66 
 C                    -3.263     0.685     3.863 
 C                     0.345     0.11      5.299 
 C                     0.124     0.397     6.787 
 H                     1.168     0.033     7.733 
 N                    -0.185     1.961    -0.152 
 C                    -0.703     2.8       0.777 
 C                    -0.62      4.156     0.193 
 C                    -0.187     4.015    -1.225 
 C                    -0.214     2.583    -1.38 
 C                    -0.887     5.406     0.974 
 C                     0.181     5.013    -2.277 
 O                     0.303     4.69     -3.508 
 C                     0.31      6.414    -1.837 
 N                    -0.265    -0.413    -2.029 
 C                    -0.279     0.569    -2.937 
 C                    -0.196     0.024    -4.332 
 C                     0.124    -1.533    -4.18 
 C                     0.086    -1.632    -2.635 
 C                    -1.451     0.205    -5.197 
 C                     1.373    -2.07     -4.923 
 C                     2.626    -1.49     -4.306 
 N                     0.15     -2.144     0.303 
 C                     0.173    -3.136    -0.688 
 C                     0.173    -4.438     0.004 
 C                     0.133    -4.111     1.358 
 C                     0.083    -2.695     1.502 
 C                     0.149    -5.715    -0.623 
 C                     0.096    -4.629     2.716 
 O                     0.208    -5.747     3.221 
 C                    -0.255    -3.428     3.701 
 C                     0.717    -3.482     4.848 
 O                     1.931    -3.255     4.669 
 O                     0.038    -3.556     6.003 
 C                     0.943    -3.583     7.183 
 H                    -1.859     3.22      2.497 
 H                    -0.218     2.453    -3.474 
 H                     0.276    -3.747    -2.605 
 H                    -1.554    -0.949     5.132 
 H                    -1.585     1.831     4.665 
 H                    -3.484    -0.377     3.969 
 H                    -3.511     1.027     2.858 
 H                    -3.852     1.301     4.543 
 H                     0.669     1.096     4.966 
 H                     1.13     -0.639     5.189 
 H                    -0.844     0.026     7.125 
 H                     0.062     1.477     6.921 
 H                    -1.344     5.186     1.938 
 H                    -1.651     5.963     0.432 
 H                     0.007     6.02      1.084 
 H                    -0.635     6.744    -1.405 
 H                     0.665     6.97     -2.704 
 H                     1.048     6.466    -1.036 
 H                     0.608     0.501    -4.891 
 H                    -0.692    -2.156    -4.547 
 H                    -1.267     0.74     -6.129 
 H                    -2.204     0.714    -4.596 
 H                    -1.967    -0.72     -5.453 
 H                     1.356    -1.759    -5.967 
 H                     1.452    -3.157    -4.902 
 H                     2.714    -0.522    -4.798 
 H                     3.487    -2.121    -4.529 
 H                     2.495    -1.303    -3.24 
 H                     0.867    -6.333    -0.084 
 H                     0.404    -5.642    -1.68 
 H                    -0.891    -5.999    -0.463 
 H                    -1.283    -3.581     4.028 
 H                     0.698    -4.478     7.755 
 H                     0.833    -2.619     7.68 
 H                     2.       -3.754     6.976 
 Mg                    8.94062   0.81249   0.68088 
 C                     8.43521   1.13527   4.21916 
 C                     7.79273   4.01      0.37614 
 C                     8.94702   0.40931  -2.46632 
 C                     8.94787  -2.64254   1.13745 
 N                     8.23579   2.28051   2.17766 
 C                     8.14648   2.31303   3.49876 
 C                     7.80154   3.70794   4.08596 
 C                     7.07758   4.33842   2.79862 
 C                     7.76535   3.5214    1.70679 
 C                     5.58677   4.04876   2.74441 
 C                     9.08244   4.52333   4.4815 
 C                     8.81692   5.76038   5.34229 
 H                     9.79594   6.12041   6.36424 
 N                     8.91535   2.1498   -0.78525 
 C                     8.4325    3.4088   -0.73002 
 C                     8.62931   3.97448  -2.07368 
 C                     9.11693   2.89234  -2.97141 
 C                     8.98939   1.7453   -2.09499 
 C                     8.43507   5.4312   -2.37974 
 C                     9.60381   2.88832  -4.38884 
 O                     9.75281   1.79833  -5.04654 
 C                     9.81173   4.20248  -5.01434 
 N                     8.73519  -0.86805  -0.52575 
 C                     8.82864  -0.77402  -1.86379 
 C                     8.92512  -2.1396   -2.50117 
 C                     9.1213   -3.16592  -1.29048 
 C                     9.01005  -2.18265  -0.10465 
 C                     7.72226  -2.56805  -3.34137 
 C                     10.35594  -4.10602  -1.35783 
 C                     11.62681  -3.29999  -1.21426 
 N                     8.91781  -0.5331    2.37112 
 C                     8.89877  -1.94469   2.33744 
 C                     8.77016  -2.41179   3.73304 
 C                     8.69958  -1.22989   4.48579 
 C                     8.75829  -0.10558   3.61862 
 C                     8.68429  -3.76968   4.15123 
 C                     8.57805  -0.67777   5.81586 
 O                     8.57598  -1.14563   6.95377 
 C                     8.27417   0.87742   5.69163 
 C                     9.19109   1.60666   6.63502 
 O                     10.42108   1.60124   6.45148 
 O                     8.45452   2.36537   7.467 
 C                     9.31998   3.11671   8.41478 
 H                     7.23649   4.91905   0.1457 
 H                     9.05793   0.21331  -3.53532 
 H                     9.0414   -3.70506   1.3719 
 H                     7.11756   3.69069   4.92599 
 H                     7.31305   5.39398   2.69045 
 H                     5.28079   3.36445   3.52174 
 H                     5.40613   3.61784   1.76834 
 H                     5.01989   4.9838    2.77065 
 H                     9.49254   5.0036    3.58378 
 H                     9.80079   3.89223   4.96763 
 H                     7.80423   5.75983   5.76349 
 H                     8.83875   6.64266   4.69799 
 H                     7.91562   5.94798  -1.56335 
 H                     7.74021   5.49059  -3.22444 
 H                     9.36641   5.93215  -2.65236 
 H                     8.87924   4.76165  -4.99832 
 H                     10.24507   3.99432  -5.99452 
 H                     10.52856   4.76855  -4.40908 
 H                     9.78533  -2.20061  -3.15647 
 H                     8.2728   -3.86042  -1.2035 
 H                     7.98787  -2.8267   -4.38379 
 H                     6.99098  -1.77094  -3.3219 
 H                     7.15741  -3.40952  -2.94377 
 H                     10.407   -4.59477  -2.33388 
 H                     10.34474  -4.88824  -0.60617 
 H                     11.80349  -2.93473  -2.23036 
 H                     12.44481  -3.93184  -0.87415 
 H                     11.46787  -2.42553  -0.57261 
 H                     9.32338  -3.86936   5.01849 
 H                     8.98252  -4.45011   3.35634 
 H                     7.61562  -3.83878   4.37129 
 H                     7.22374   1.02715   5.94411 
 H                     8.98002   2.86689   9.42459 
 H                     9.24941   4.17704   8.10744 
 H                     10.36556   2.83683   8.46834 
 
 ITRead=  0  0  0  0  0  0  0  0  0  0  0  0  0  0  0  0  0  0  0  0
 ITRead=  0  0  0  0  0  0  0  0  0  0  0  0  0  0  0  0  0  0  0  0
 ITRead=  0  0  0  0  0  0  0  0  0  0  0  0  0  0  0  0  0  0  0  0
 ITRead=  0  0  0  0  0  0  0  0  0  0  0  0  0  0  0  0  0  0  0  0
 ITRead=  0  0  0  0  0  0  0  0  0  0  0  0  0  0  0  0  0  0  0  0
 ITRead=  0  0  0  0  0  0  0  0  0  0  0  0  0  0  0  0  0  0  0  0
 ITRead=  0  0  0  0  0  0  0  0  0  0  0  0  0  0  0  0  0  0  0  0
 ITRead=  0  0  0  0  0  0  0  0  0  0  0  0  0  0  0  0  0  0
 MicOpt= -1 -1 -1 -1 -1 -1 -1 -1 -1 -1 -1 -1 -1 -1 -1 -1 -1 -1 -1 -1
 MicOpt= -1 -1 -1 -1 -1 -1 -1 -1 -1 -1 -1 -1 -1 -1 -1 -1 -1 -1 -1 -1
 MicOpt= -1 -1 -1 -1 -1 -1 -1 -1 -1 -1 -1 -1 -1 -1 -1 -1 -1 -1 -1 -1
 MicOpt= -1 -1 -1 -1 -1 -1 -1 -1 -1 -1 -1 -1 -1 -1 -1 -1 -1 -1 -1 -1
 MicOpt= -1 -1 -1 -1 -1 -1 -1 -1 -1 -1 -1 -1 -1 -1 -1 -1 -1 -1 -1 -1
 MicOpt= -1 -1 -1 -1 -1 -1 -1 -1 -1 -1 -1 -1 -1 -1 -1 -1 -1 -1 -1 -1
 MicOpt= -1 -1 -1 -1 -1 -1 -1 -1 -1 -1 -1 -1 -1 -1 -1 -1 -1 -1 -1 -1
 MicOpt= -1 -1 -1 -1 -1 -1 -1 -1 -1 -1 -1 -1 -1 -1 -1 -1 -1 -1
 NAtoms=    158 NQM=      158 NQMF=       0 NMMI=      0 NMMIF=      0
                NMic=       0 NMicF=      0.
                    Isotopes and Nuclear Properties:
 (Nuclear quadrupole moments (NQMom) in fm**2, nuclear magnetic moments (NMagM)
  in nuclear magnetons)

  Atom         1           2           3           4           5           6           7           8           9          10
 IAtWgt=          24          12          12          12          12          14          12          12          12          12
 AtmWgt=  23.9850450  12.0000000  12.0000000  12.0000000  12.0000000  14.0030740  12.0000000  12.0000000  12.0000000  12.0000000
 NucSpn=           0           0           0           0           0           2           0           0           0           0
 AtZEff=  -0.0000000  -0.0000000  -0.0000000  -0.0000000  -0.0000000  -0.0000000  -0.0000000  -0.0000000  -0.0000000  -0.0000000
 NQMom=    0.0000000   0.0000000   0.0000000   0.0000000   0.0000000   2.0440000   0.0000000   0.0000000   0.0000000   0.0000000
 NMagM=    0.0000000   0.0000000   0.0000000   0.0000000   0.0000000   0.4037610   0.0000000   0.0000000   0.0000000   0.0000000
 AtZNuc=  12.0000000   6.0000000   6.0000000   6.0000000   6.0000000   7.0000000   6.0000000   6.0000000   6.0000000   6.0000000

  Atom        11          12          13          14          15          16          17          18          19          20
 IAtWgt=          12          12          12           1          14          12          12          12          12          12
 AtmWgt=  12.0000000  12.0000000  12.0000000   1.0078250  14.0030740  12.0000000  12.0000000  12.0000000  12.0000000  12.0000000
 NucSpn=           0           0           0           1           2           0           0           0           0           0
 AtZEff=  -0.0000000  -0.0000000  -0.0000000  -0.0000000  -0.0000000  -0.0000000  -0.0000000  -0.0000000  -0.0000000  -0.0000000
 NQMom=    0.0000000   0.0000000   0.0000000   0.0000000   2.0440000   0.0000000   0.0000000   0.0000000   0.0000000   0.0000000
 NMagM=    0.0000000   0.0000000   0.0000000   2.7928460   0.4037610   0.0000000   0.0000000   0.0000000   0.0000000   0.0000000
 AtZNuc=   6.0000000   6.0000000   6.0000000   1.0000000   7.0000000   6.0000000   6.0000000   6.0000000   6.0000000   6.0000000

  Atom        21          22          23          24          25          26          27          28          29          30
 IAtWgt=          12          16          12          14          12          12          12          12          12          12
 AtmWgt=  12.0000000  15.9949146  12.0000000  14.0030740  12.0000000  12.0000000  12.0000000  12.0000000  12.0000000  12.0000000
 NucSpn=           0           0           0           2           0           0           0           0           0           0
 AtZEff=  -0.0000000  -0.0000000  -0.0000000  -0.0000000  -0.0000000  -0.0000000  -0.0000000  -0.0000000  -0.0000000  -0.0000000
 NQMom=    0.0000000   0.0000000   0.0000000   2.0440000   0.0000000   0.0000000   0.0000000   0.0000000   0.0000000   0.0000000
 NMagM=    0.0000000   0.0000000   0.0000000   0.4037610   0.0000000   0.0000000   0.0000000   0.0000000   0.0000000   0.0000000
 AtZNuc=   6.0000000   8.0000000   6.0000000   7.0000000   6.0000000   6.0000000   6.0000000   6.0000000   6.0000000   6.0000000

  Atom        31          32          33          34          35          36          37          38          39          40
 IAtWgt=          12          14          12          12          12          12          12          12          16          12
 AtmWgt=  12.0000000  14.0030740  12.0000000  12.0000000  12.0000000  12.0000000  12.0000000  12.0000000  15.9949146  12.0000000
 NucSpn=           0           2           0           0           0           0           0           0           0           0
 AtZEff=  -0.0000000  -0.0000000  -0.0000000  -0.0000000  -0.0000000  -0.0000000  -0.0000000  -0.0000000  -0.0000000  -0.0000000
 NQMom=    0.0000000   2.0440000   0.0000000   0.0000000   0.0000000   0.0000000   0.0000000   0.0000000   0.0000000   0.0000000
 NMagM=    0.0000000   0.4037610   0.0000000   0.0000000   0.0000000   0.0000000   0.0000000   0.0000000   0.0000000   0.0000000
 AtZNuc=   6.0000000   7.0000000   6.0000000   6.0000000   6.0000000   6.0000000   6.0000000   6.0000000   8.0000000   6.0000000

  Atom        41          42          43          44          45          46          47          48          49          50
 IAtWgt=          12          16          16          12           1           1           1           1           1           1
 AtmWgt=  12.0000000  15.9949146  15.9949146  12.0000000   1.0078250   1.0078250   1.0078250   1.0078250   1.0078250   1.0078250
 NucSpn=           0           0           0           0           1           1           1           1           1           1
 AtZEff=  -0.0000000  -0.0000000  -0.0000000  -0.0000000  -0.0000000  -0.0000000  -0.0000000  -0.0000000  -0.0000000  -0.0000000
 NQMom=    0.0000000   0.0000000   0.0000000   0.0000000   0.0000000   0.0000000   0.0000000   0.0000000   0.0000000   0.0000000
 NMagM=    0.0000000   0.0000000   0.0000000   0.0000000   2.7928460   2.7928460   2.7928460   2.7928460   2.7928460   2.7928460
 AtZNuc=   6.0000000   8.0000000   8.0000000   6.0000000   1.0000000   1.0000000   1.0000000   1.0000000   1.0000000   1.0000000

  Atom        51          52          53          54          55          56          57          58          59          60
 IAtWgt=           1           1           1           1           1           1           1           1           1           1
 AtmWgt=   1.0078250   1.0078250   1.0078250   1.0078250   1.0078250   1.0078250   1.0078250   1.0078250   1.0078250   1.0078250
 NucSpn=           1           1           1           1           1           1           1           1           1           1
 AtZEff=  -0.0000000  -0.0000000  -0.0000000  -0.0000000  -0.0000000  -0.0000000  -0.0000000  -0.0000000  -0.0000000  -0.0000000
 NQMom=    0.0000000   0.0000000   0.0000000   0.0000000   0.0000000   0.0000000   0.0000000   0.0000000   0.0000000   0.0000000
 NMagM=    2.7928460   2.7928460   2.7928460   2.7928460   2.7928460   2.7928460   2.7928460   2.7928460   2.7928460   2.7928460
 AtZNuc=   1.0000000   1.0000000   1.0000000   1.0000000   1.0000000   1.0000000   1.0000000   1.0000000   1.0000000   1.0000000

  Atom        61          62          63          64          65          66          67          68          69          70
 IAtWgt=           1           1           1           1           1           1           1           1           1           1
 AtmWgt=   1.0078250   1.0078250   1.0078250   1.0078250   1.0078250   1.0078250   1.0078250   1.0078250   1.0078250   1.0078250
 NucSpn=           1           1           1           1           1           1           1           1           1           1
 AtZEff=  -0.0000000  -0.0000000  -0.0000000  -0.0000000  -0.0000000  -0.0000000  -0.0000000  -0.0000000  -0.0000000  -0.0000000
 NQMom=    0.0000000   0.0000000   0.0000000   0.0000000   0.0000000   0.0000000   0.0000000   0.0000000   0.0000000   0.0000000
 NMagM=    2.7928460   2.7928460   2.7928460   2.7928460   2.7928460   2.7928460   2.7928460   2.7928460   2.7928460   2.7928460
 AtZNuc=   1.0000000   1.0000000   1.0000000   1.0000000   1.0000000   1.0000000   1.0000000   1.0000000   1.0000000   1.0000000

  Atom        71          72          73          74          75          76          77          78          79          80
 IAtWgt=           1           1           1           1           1           1           1           1           1          24
 AtmWgt=   1.0078250   1.0078250   1.0078250   1.0078250   1.0078250   1.0078250   1.0078250   1.0078250   1.0078250  23.9850450
 NucSpn=           1           1           1           1           1           1           1           1           1           0
 AtZEff=  -0.0000000  -0.0000000  -0.0000000  -0.0000000  -0.0000000  -0.0000000  -0.0000000  -0.0000000  -0.0000000  -0.0000000
 NQMom=    0.0000000   0.0000000   0.0000000   0.0000000   0.0000000   0.0000000   0.0000000   0.0000000   0.0000000   0.0000000
 NMagM=    2.7928460   2.7928460   2.7928460   2.7928460   2.7928460   2.7928460   2.7928460   2.7928460   2.7928460   0.0000000
 AtZNuc=   1.0000000   1.0000000   1.0000000   1.0000000   1.0000000   1.0000000   1.0000000   1.0000000   1.0000000  12.0000000

  Atom        81          82          83          84          85          86          87          88          89          90
 IAtWgt=          12          12          12          12          14          12          12          12          12          12
 AtmWgt=  12.0000000  12.0000000  12.0000000  12.0000000  14.0030740  12.0000000  12.0000000  12.0000000  12.0000000  12.0000000
 NucSpn=           0           0           0           0           2           0           0           0           0           0
 AtZEff=  -0.0000000  -0.0000000  -0.0000000  -0.0000000  -0.0000000  -0.0000000  -0.0000000  -0.0000000  -0.0000000  -0.0000000
 NQMom=    0.0000000   0.0000000   0.0000000   0.0000000   2.0440000   0.0000000   0.0000000   0.0000000   0.0000000   0.0000000
 NMagM=    0.0000000   0.0000000   0.0000000   0.0000000   0.4037610   0.0000000   0.0000000   0.0000000   0.0000000   0.0000000
 AtZNuc=   6.0000000   6.0000000   6.0000000   6.0000000   7.0000000   6.0000000   6.0000000   6.0000000   6.0000000   6.0000000

  Atom        91          92          93          94          95          96          97          98          99         100
 IAtWgt=          12          12           1          14          12          12          12          12          12          12
 AtmWgt=  12.0000000  12.0000000   1.0078250  14.0030740  12.0000000  12.0000000  12.0000000  12.0000000  12.0000000  12.0000000
 NucSpn=           0           0           1           2           0           0           0           0           0           0
 AtZEff=  -0.0000000  -0.0000000  -0.0000000  -0.0000000  -0.0000000  -0.0000000  -0.0000000  -0.0000000  -0.0000000  -0.0000000
 NQMom=    0.0000000   0.0000000   0.0000000   2.0440000   0.0000000   0.0000000   0.0000000   0.0000000   0.0000000   0.0000000
 NMagM=    0.0000000   0.0000000   2.7928460   0.4037610   0.0000000   0.0000000   0.0000000   0.0000000   0.0000000   0.0000000
 AtZNuc=   6.0000000   6.0000000   1.0000000   7.0000000   6.0000000   6.0000000   6.0000000   6.0000000   6.0000000   6.0000000

  Atom       101         102         103         104         105         106         107         108         109         110
 IAtWgt=          16          12          14          12          12          12          12          12          12          12
 AtmWgt=  15.9949146  12.0000000  14.0030740  12.0000000  12.0000000  12.0000000  12.0000000  12.0000000  12.0000000  12.0000000
 NucSpn=           0           0           2           0           0           0           0           0           0           0
 AtZEff=  -0.0000000  -0.0000000  -0.0000000  -0.0000000  -0.0000000  -0.0000000  -0.0000000  -0.0000000  -0.0000000  -0.0000000
 NQMom=    0.0000000   0.0000000   2.0440000   0.0000000   0.0000000   0.0000000   0.0000000   0.0000000   0.0000000   0.0000000
 NMagM=    0.0000000   0.0000000   0.4037610   0.0000000   0.0000000   0.0000000   0.0000000   0.0000000   0.0000000   0.0000000
 AtZNuc=   8.0000000   6.0000000   7.0000000   6.0000000   6.0000000   6.0000000   6.0000000   6.0000000   6.0000000   6.0000000

  Atom       111         112         113         114         115         116         117         118         119         120
 IAtWgt=          14          12          12          12          12          12          12          16          12          12
 AtmWgt=  14.0030740  12.0000000  12.0000000  12.0000000  12.0000000  12.0000000  12.0000000  15.9949146  12.0000000  12.0000000
 NucSpn=           2           0           0           0           0           0           0           0           0           0
 AtZEff=  -0.0000000  -0.0000000  -0.0000000  -0.0000000  -0.0000000  -0.0000000  -0.0000000  -0.0000000  -0.0000000  -0.0000000
 NQMom=    2.0440000   0.0000000   0.0000000   0.0000000   0.0000000   0.0000000   0.0000000   0.0000000   0.0000000   0.0000000
 NMagM=    0.4037610   0.0000000   0.0000000   0.0000000   0.0000000   0.0000000   0.0000000   0.0000000   0.0000000   0.0000000
 AtZNuc=   7.0000000   6.0000000   6.0000000   6.0000000   6.0000000   6.0000000   6.0000000   8.0000000   6.0000000   6.0000000

  Atom       121         122         123         124         125         126         127         128         129         130
 IAtWgt=          16          16          12           1           1           1           1           1           1           1
 AtmWgt=  15.9949146  15.9949146  12.0000000   1.0078250   1.0078250   1.0078250   1.0078250   1.0078250   1.0078250   1.0078250
 NucSpn=           0           0           0           1           1           1           1           1           1           1
 AtZEff=  -0.0000000  -0.0000000  -0.0000000  -0.0000000  -0.0000000  -0.0000000  -0.0000000  -0.0000000  -0.0000000  -0.0000000
 NQMom=    0.0000000   0.0000000   0.0000000   0.0000000   0.0000000   0.0000000   0.0000000   0.0000000   0.0000000   0.0000000
 NMagM=    0.0000000   0.0000000   0.0000000   2.7928460   2.7928460   2.7928460   2.7928460   2.7928460   2.7928460   2.7928460
 AtZNuc=   8.0000000   8.0000000   6.0000000   1.0000000   1.0000000   1.0000000   1.0000000   1.0000000   1.0000000   1.0000000

  Atom       131         132         133         134         135         136         137         138         139         140
 IAtWgt=           1           1           1           1           1           1           1           1           1           1
 AtmWgt=   1.0078250   1.0078250   1.0078250   1.0078250   1.0078250   1.0078250   1.0078250   1.0078250   1.0078250   1.0078250
 NucSpn=           1           1           1           1           1           1           1           1           1           1
 AtZEff=  -0.0000000  -0.0000000  -0.0000000  -0.0000000  -0.0000000  -0.0000000  -0.0000000  -0.0000000  -0.0000000  -0.0000000
 NQMom=    0.0000000   0.0000000   0.0000000   0.0000000   0.0000000   0.0000000   0.0000000   0.0000000   0.0000000   0.0000000
 NMagM=    2.7928460   2.7928460   2.7928460   2.7928460   2.7928460   2.7928460   2.7928460   2.7928460   2.7928460   2.7928460
 AtZNuc=   1.0000000   1.0000000   1.0000000   1.0000000   1.0000000   1.0000000   1.0000000   1.0000000   1.0000000   1.0000000

  Atom       141         142         143         144         145         146         147         148         149         150
 IAtWgt=           1           1           1           1           1           1           1           1           1           1
 AtmWgt=   1.0078250   1.0078250   1.0078250   1.0078250   1.0078250   1.0078250   1.0078250   1.0078250   1.0078250   1.0078250
 NucSpn=           1           1           1           1           1           1           1           1           1           1
 AtZEff=  -0.0000000  -0.0000000  -0.0000000  -0.0000000  -0.0000000  -0.0000000  -0.0000000  -0.0000000  -0.0000000  -0.0000000
 NQMom=    0.0000000   0.0000000   0.0000000   0.0000000   0.0000000   0.0000000   0.0000000   0.0000000   0.0000000   0.0000000
 NMagM=    2.7928460   2.7928460   2.7928460   2.7928460   2.7928460   2.7928460   2.7928460   2.7928460   2.7928460   2.7928460
 AtZNuc=   1.0000000   1.0000000   1.0000000   1.0000000   1.0000000   1.0000000   1.0000000   1.0000000   1.0000000   1.0000000

  Atom       151         152         153         154         155         156         157         158
 IAtWgt=           1           1           1           1           1           1           1           1
 AtmWgt=   1.0078250   1.0078250   1.0078250   1.0078250   1.0078250   1.0078250   1.0078250   1.0078250
 NucSpn=           1           1           1           1           1           1           1           1
 AtZEff=  -0.0000000  -0.0000000  -0.0000000  -0.0000000  -0.0000000  -0.0000000  -0.0000000  -0.0000000
 NQMom=    0.0000000   0.0000000   0.0000000   0.0000000   0.0000000   0.0000000   0.0000000   0.0000000
 NMagM=    2.7928460   2.7928460   2.7928460   2.7928460   2.7928460   2.7928460   2.7928460   2.7928460
 AtZNuc=   1.0000000   1.0000000   1.0000000   1.0000000   1.0000000   1.0000000   1.0000000   1.0000000
 Leave Link  101 at Thu Aug 19 20:51:45 2021, MaxMem= 23488102400 cpu:               5.8 elap:               0.2
 (Enter /sw/apps/gaussian-16.0/g16/l202.exe)
 Stoichiometry    C68H72Mg2N8O8
 Framework group  C1[X(C68H72Mg2N8O8)]
 Deg. of freedom   468
 Full point group                 C1      NOp   1
 Largest Abelian subgroup         C1      NOp   1
 Largest concise Abelian subgroup C1      NOp   1
                         Standard orientation:                         
 ---------------------------------------------------------------------
 Center     Atomic      Atomic             Coordinates (Angstroms)
 Number     Number       Type             X           Y           Z
 ---------------------------------------------------------------------
      1         12           0        4.418999   -0.641281    0.302165
      2          6           0        4.690785    2.603356   -1.184670
      3          6           0        5.011360    0.852142    3.312457
      4          6           0        4.635011   -3.538202    1.574095
      5          6           0        4.978216   -1.978289   -2.867275
      6          7           0        4.787005    1.468104    0.864049
      7          6           0        4.805977    2.623613    0.207079
      8          6           0        4.884059    3.865866    1.144140
      9          6           0        5.542580    3.176292    2.421965
     10          6           0        5.056498    1.753691    2.207828
     11          6           0        7.067691    3.182830    2.399726
     12          6           0        3.469884    4.451476    1.474143
     13          6           0        3.471683    5.845262    2.108739
     14          1           0        2.404488    6.772698    1.764785
     15          7           0        4.287799   -1.227188    2.184278
     16          6           0        4.550294   -0.481842    3.284660
     17          6           0        4.306555   -1.366805    4.444019
     18          6           0        4.064763   -2.741403    3.924295
     19          6           0        4.349084   -2.560136    2.523694
     20          6           0        4.270733   -0.877649    5.859361
     21          6           0        3.654372   -4.018453    4.586755
     22          8           0        3.726835   -5.147466    3.991227
     23          6           0        3.243478   -3.923264    5.999252
     24          7           0        4.974880   -2.496420   -0.476996
     25          6           0        4.925209   -3.602779    0.272995
     26          6           0        5.091504   -4.837049   -0.562985
     27          6           0        5.022621   -4.353808   -2.083343
     28          6           0        4.903648   -2.828870   -1.841108
     29          6           0        6.387036   -5.628679   -0.337309
     30          6           0        3.972632   -5.040340   -2.992528
     31          6           0        2.578972   -4.664499   -2.541359
     32          7           0        4.598328    0.135812   -1.716502
     33          6           0        4.853282   -0.599156   -2.883333
     34          6           0        4.994578    0.372265   -3.983535
     35          6           0        4.827372    1.613878   -3.373385
     36          6           0        4.622385    1.431114   -1.975934
     37          6           0        5.302722    0.059545   -5.336934
     38          6           0        4.798717    3.053750   -3.572893
     39          8           0        4.820328    3.793323   -4.557808
     40          6           0        4.830579    3.758166   -2.145094
     41          6           0        3.759347    4.814423   -2.135390
     42          8           0        2.552218    4.501815   -2.185211
     43          8           0        4.307610    6.000840   -1.831474
     44          6           0        3.293774    7.087685   -1.776194
     45          1           0        5.419564    1.173180    4.272793
     46          1           0        4.609069   -4.562149    1.952641
     47          1           0        5.069465   -2.326257   -3.897831
     48          1           0        5.526375    4.668758    0.781900
     49          1           0        5.142009    3.577551    3.352693
     50          1           0        7.450675    3.546034    1.446140
     51          1           0        7.365559    2.146409    2.559725
     52          1           0        7.465037    3.742940    3.246586
     53          1           0        3.024177    3.878121    2.286960
     54          1           0        2.839152    4.461198    0.584532
     55          1           0        4.444276    6.327790    2.008052
     56          1           0        3.336007    5.731025    3.184259
     57          1           0        4.647453    0.141184    5.940634
     58          1           0        4.986079   -1.477424    6.421730
     59          1           0        3.279687   -0.976071    6.302614
     60          1           0        4.065280   -3.512579    6.586217
     61          1           0        2.899370   -4.918057    6.280011
     62          1           0        2.422329   -3.210518    6.080840
     63          1           0        4.286452   -5.546768   -0.376933
     64          1           0        5.967531   -4.508298   -2.604833
     65          1           0        6.221208   -6.669519   -0.058279
     66          1           0        6.971818   -5.108898    0.421077
     67          1           0        7.076431   -5.627300   -1.181199
     68          1           0        4.053823   -6.123952   -2.914180
     69          1           0        4.075496   -4.775275   -4.044864
     70          1           0        2.385218   -5.371182   -1.735201
     71          1           0        1.866623   -4.797040   -3.356346
     72          1           0        2.556625   -3.663659   -2.109729
     73          1           0        4.643011    0.673737   -5.949729
     74          1           0        5.158940   -1.001282   -5.540837
     75          1           0        6.351130    0.354425   -5.378653
     76          1           0        5.826549    4.184098   -2.027848
     77          1           0        3.620086    7.866399   -2.465658
     78          1           0        3.183990    7.355879   -0.725278
     79          1           0        2.310400    6.850758   -2.183847
     80         12           0       -4.550303   -0.805457   -0.461436
     81          6           0       -4.505297    2.590186    0.699010
     82          6           0       -3.929041   -1.755651    2.755045
     83          6           0       -4.136808   -3.767438   -1.521224
     84          6           0       -4.028121    0.432772   -3.677001
     85          7           0       -4.273991    0.359398    1.398399
     86          6           0       -4.339757    1.640414    1.728568
     87          6           0       -4.301906    1.913676    3.256133
     88          6           0       -3.554746    0.570768    3.722198
     89          6           0       -3.968997   -0.349779    2.576061
     90          6           0       -2.039891    0.691223    3.714410
     91          6           0       -5.737659    2.018391    3.880364
     92          6           0       -5.781681    2.587861    5.300054
     93          1           0       -6.915346    3.426910    5.678582
     94          7           0       -4.586188   -2.534502    0.512057
     95          6           0       -4.330929   -2.736381    1.821776
     96          6           0       -4.468410   -4.184718    2.039880
     97          6           0       -4.663807   -4.841557    0.718857
     98          6           0       -4.444254   -3.717742   -0.169352
     99          6           0       -4.488621   -4.803354    3.407475
    100          6           0       -4.981443   -6.250990    0.320380
    101          8           0       -4.870719   -6.648912   -0.892981
    102          6           0       -5.335862   -7.175506    1.407190
    103          7           0       -3.931842   -1.574836   -2.291172
    104          6           0       -3.889493   -2.901731   -2.504440
    105          6           0       -3.683311   -3.212721   -3.967704
    106          6           0       -3.838485   -1.815391   -4.729925
    107          6           0       -4.027332   -0.883034   -3.513193
    108          6           0       -2.339248   -3.843655   -4.330742
    109          6           0       -4.882276   -1.752349   -5.878483
    110          6           0       -6.278449   -1.889300   -5.315142
    111          7           0       -4.491006    1.146426   -1.385927
    112          6           0       -4.231481    1.440166   -2.742558
    113          6           0       -4.183166    2.911344   -2.867953
    114          6           0       -4.396767    3.374752   -1.560999
    115          6           0       -4.546124    2.270059   -0.679608
    116          6           0       -3.917751    3.636027   -4.063993
    117          6           0       -4.519259    4.547116   -0.724787
    118          8           0       -4.565928    5.759352   -0.929832
    119          6           0       -4.468966    4.090093    0.796723
    120          6           0       -5.595039    4.772306    1.524090
    121          8           0       -6.778281    4.507675    1.247502
    122          8           0       -5.094131    5.457577    2.568054
    123          6           0       -6.174006    6.142633    3.327257
    124          1           0       -3.511166   -2.148950    3.682177
    125          1           0       -4.092937   -4.767684   -1.958330
    126          1           0       -3.967477    0.898317   -4.663030
    127          1           0       -3.723066    2.781700    3.548119
    128          1           0       -3.950578    0.205909    4.666417
    129          1           0       -1.712211    1.625042    3.282259
    130          1           0       -1.681403   -0.143935    3.127015
    131          1           0       -1.644672    0.541807    4.723280
    132          1           0       -6.119577    1.007293    4.071573
    133          1           0       -6.389598    2.584265    3.243655
    134          1           0       -4.836849    3.069014    5.580654
    135          1           0       -5.879191    1.757831    6.004014
    136          1           0       -4.157985   -4.092991    4.175229
    137          1           0       -3.723548   -5.587241    3.415179
    138          1           0       -5.454450   -5.249741    3.653605
    139          1           0       -4.518276   -7.222199    2.122619
    140          1           0       -5.615679   -8.109755    0.916530
    141          1           0       -6.200731   -6.769598    1.943716
    142          1           0       -4.442273   -3.896014   -4.328520
    143          1           0       -2.900515   -1.510507   -5.216860
    144          1           0       -2.439344   -4.814715   -4.851426
    145          1           0       -1.759086   -3.956149   -3.424491
    146          1           0       -1.689151   -3.223705   -4.945761
    147          1           0       -4.741009   -2.590700   -6.565045
    148          1           0       -4.823994   -0.841927   -6.465612
    149          1           0       -6.399189   -2.972149   -5.215389
    150          1           0       -7.011528   -1.472077   -6.002566
    151          1           0       -6.341439   -1.456612   -4.309920
    152          1           0       -4.623958    4.455066   -4.094969
    153          1           0       -4.006635    2.999999   -4.942254
    154          1           0       -2.884078    3.941753   -3.881488
    155          1           0       -3.493542    4.375588    1.192460
    156          1           0       -5.912033    7.204442    3.367635
    157          1           0       -6.248617    5.605215    4.291286
    158          1           0       -7.157052    6.184469    2.873043
 ---------------------------------------------------------------------
 Rotational constants (GHZ):           0.0202682           0.0145211           0.0126412
 Leave Link  202 at Thu Aug 19 20:51:45 2021, MaxMem= 23488102400 cpu:               0.2 elap:               0.0
 (Enter /sw/apps/gaussian-16.0/g16/l301.exe)
 Standard basis: def2SVP (5D, 7F)
 Ernie: Thresh=  0.10000D-02 Tol=  0.10000D-05 Strict=F.
 There are  1658 symmetry adapted cartesian basis functions of A   symmetry.
 There are  1572 symmetry adapted basis functions of A   symmetry.
  1572 basis functions,  2678 primitive gaussians,  1658 cartesian basis functions
   312 alpha electrons      312 beta electrons
       nuclear repulsion energy     15492.2252468755 Hartrees.
 IExCor=20419 DFT=T Ex+Corr=CAM-B3LYP ExCW=0 ScaHFX=  1.000000
 ScaDFX=  1.000000  1.000000  1.000000  0.810000 ScalE2=  1.000000  1.000000
 IRadAn=      5 IRanWt=     -1 IRanGd=            0 ICorTp=0 IEmpDi=  4
 HFx  wShort=  0.000000 wLong=  0.330000 cFull=  0.190000 cShort=  0.000000 cLong=  0.460000
 DFx  wShort=  0.000000 wLong=  0.330000 cFull=  0.190000 cShort=  0.000000 cLong=  0.460000
 NAtoms=  158 NActive=  158 NUniq=  158 SFac= 1.00D+00 NAtFMM=   60 NAOKFM=T Big=T
 Integral buffers will be    131072 words long.
 Raffenetti 1 integral format.
 Two-electron integral symmetry is turned on.
 Leave Link  301 at Thu Aug 19 20:51:45 2021, MaxMem= 23488102400 cpu:               1.3 elap:               0.1
 (Enter /sw/apps/gaussian-16.0/g16/l302.exe)
 NPDir=0 NMtPBC=     1 NCelOv=     1 NCel=       1 NClECP=     1 NCelD=      1
         NCelK=      1 NCelE2=     1 NClLst=     1 CellRange=     0.0.
 One-electron integrals computed using PRISM.
 One-electron integral symmetry used in STVInt
   1 Symmetry operations used in ECPInt.
 ECPInt:  NShTT=  271216 NPrTT=  987664 LenC2=  154074 LenP2D=  320762.
 LDataN:  DoStor=T MaxTD1= 4 Len=   56
 NBasis=  1572 RedAO= T EigKep=  3.36D-04  NBF=  1572
 NBsUse=  1572 1.00D-06 EigRej= -1.00D+00 NBFU=  1572
 Precomputing XC quadrature grid using
 IXCGrd= 4 IRadAn=           5 IRanWt=          -1 IRanGd=           0 AccXCQ= 0.00D+00.
 Generated NRdTot=       0 NPtTot=           0 NUsed=           0 NTot=          32
 NSgBfM=  1186  1156  1172  1185  1186 MxSgAt=   158 MxSgA2=   158.
 Leave Link  302 at Thu Aug 19 20:51:50 2021, MaxMem= 23488102400 cpu:             129.6 elap:               5.4
 (Enter /sw/apps/gaussian-16.0/g16/l303.exe)
 DipDrv:  MaxL=1.
 Leave Link  303 at Thu Aug 19 20:51:51 2021, MaxMem= 23488102400 cpu:               9.6 elap:               0.4
 (Enter /sw/apps/gaussian-16.0/g16/l308.exe)
 Leave Link  308 at Thu Aug 19 20:51:52 2021, MaxMem= 23488102400 cpu:              14.8 elap:               0.7
 (Enter /sw/apps/gaussian-16.0/g16/l401.exe)
 ExpMin= 3.36D-02 ExpMax= 4.95D+03 ExpMxC= 7.45D+02 IAcc=3 IRadAn=         5 AccDes= 0.00D+00
 Harris functional with IExCor=20419 and IRadAn=       5 diagonalized for initial guess.
 HarFok:  IExCor=20419 AccDes= 0.00D+00 IRadAn=         5 IDoV= 1 UseB2=F ITyADJ=14
 ICtDFT=  3500011 ScaDFX=  1.000000  1.000000  1.000000  1.000000
 FoFCou: FMM=F IPFlag=           0 FMFlag=      100000 FMFlg1=        2001
         NFxFlg=           0 DoJE=T BraDBF=F KetDBF=T FulRan=T
         wScrn=  0.000000 ICntrl=       500 IOpCl=  0 I1Cent=   200000004 NGrid=           0
         NMat0=    1 NMatS0=      1 NMatT0=    0 NMatD0=    1 NMtDS0=    0 NMtDT0=    0
 Petite list used in FoFCou.
 Harris En= -3918.65797688671    
 JPrj=0 DoOrth=F DoCkMO=F.
 Leave Link  401 at Thu Aug 19 20:52:00 2021, MaxMem= 23488102400 cpu:             200.7 elap:               8.4
 (Enter /sw/apps/gaussian-16.0/g16/l502.exe)
 Integral symmetry usage will be decided dynamically.
 Closed shell SCF:
 Using DIIS extrapolation, IDIIS=  1040.
 NGot= 23488102400 LenX= 23482547354 LenY= 23479796732
 Requested convergence on RMS density matrix=1.00D-08 within 128 cycles.
 Requested convergence on MAX density matrix=1.00D-06.
 Requested convergence on             energy=1.00D-06.
 No special actions if energy rises.
 Fock matrices will be formed incrementally for  20 cycles.

 Cycle   1  Pass 1  IDiag  1:
 FoFJK:  IHMeth= 1 ICntrl=       0 DoSepK=T KAlg= 0 I1Cent=           0 FoldK=F
 IRaf=         1 NMat=       1 IRICut=       1 DoRegI=T DoRafI=F ISym2E= 0 IDoP0=0 IntGTp=1.
 FoFCou: FMM=T IPFlag=           0 FMFlag=      100000 FMFlg1=        2001
         NFxFlg=           0 DoJE=T BraDBF=F KetDBF=F FulRan=T
         wScrn=  0.000000 ICntrl=       500 IOpCl=  0 I1Cent=           0 NGrid=           0
         NMat0=    1 NMatS0=      1 NMatT0=    0 NMatD0=    1 NMtDS0=    0 NMtDT0=    0
 Symmetry not used in FoFCou.
 FMM levels:  10  Number of levels for PrismC:   9
 E= -4068.94798334250    
 DIIS: error= 2.04D-02 at cycle   1 NSaved=   1.
 NSaved= 1 IEnMin= 1 EnMin= -4068.94798334250     IErMin= 1 ErrMin= 2.04D-02
 ErrMax= 2.04D-02  0.00D+00 EMaxC= 1.00D-01 BMatC= 1.69D+00 BMatP= 1.69D+00
 IDIUse=3 WtCom= 7.96D-01 WtEn= 2.04D-01
 Coeff-Com:  0.100D+01
 Coeff-En:   0.100D+01
 Coeff:      0.100D+01
 Gap=     0.120 Goal=   None    Shift=    0.000
 GapD=    0.120 DampG=1.000 DampE=0.500 DampFc=0.5000 IDamp=-1.
 Damping current iteration by 5.00D-01
 RMSDP=1.57D-03 MaxDP=1.36D-01              OVMax= 2.11D-01

 Cycle   2  Pass 1  IDiag  1:
 RMSU=  7.71D-04    CP:  9.82D-01
 E= -4069.33595078058     Delta-E=       -0.387967438084 Rises=F Damp=T
 DIIS: error= 1.27D-02 at cycle   2 NSaved=   2.
 NSaved= 2 IEnMin= 2 EnMin= -4069.33595078058     IErMin= 2 ErrMin= 1.27D-02
 ErrMax= 1.27D-02  0.00D+00 EMaxC= 1.00D-01 BMatC= 3.07D-01 BMatP= 1.69D+00
 IDIUse=3 WtCom= 8.73D-01 WtEn= 1.27D-01
 Coeff-Com: -0.211D+00 0.121D+01
 Coeff-En:   0.000D+00 0.100D+01
 Coeff:     -0.184D+00 0.118D+01
 Gap=     0.135 Goal=   None    Shift=    0.000
 RMSDP=7.71D-04 MaxDP=9.42D-02 DE=-3.88D-01 OVMax= 2.01D-01

 Cycle   3  Pass 1  IDiag  1:
 RMSU=  7.41D-04    CP:  9.68D-01  1.23D+00
 E= -4069.62068148903     Delta-E=       -0.284730708452 Rises=F Damp=F
 DIIS: error= 1.58D-02 at cycle   3 NSaved=   3.
 NSaved= 3 IEnMin= 3 EnMin= -4069.62068148903     IErMin= 2 ErrMin= 1.27D-02
 ErrMax= 1.58D-02  0.00D+00 EMaxC= 1.00D-01 BMatC= 2.07D-01 BMatP= 3.07D-01
 IDIUse=3 WtCom= 8.42D-01 WtEn= 1.58D-01
 Coeff-Com: -0.268D+00 0.655D+00 0.613D+00
 Coeff-En:   0.000D+00 0.000D+00 0.100D+01
 Coeff:     -0.225D+00 0.551D+00 0.674D+00
 Gap=     0.121 Goal=   None    Shift=    0.000
 RMSDP=5.25D-04 MaxDP=5.05D-02 DE=-2.85D-01 OVMax= 1.61D-01

 Cycle   4  Pass 1  IDiag  1:
 RMSU=  2.73D-04    CP:  9.65D-01  1.54D+00  4.93D-01
 E= -4069.76061866208     Delta-E=       -0.139937173048 Rises=F Damp=F
 DIIS: error= 7.32D-03 at cycle   4 NSaved=   4.
 NSaved= 4 IEnMin= 4 EnMin= -4069.76061866208     IErMin= 4 ErrMin= 7.32D-03
 ErrMax= 7.32D-03  0.00D+00 EMaxC= 1.00D-01 BMatC= 5.34D-02 BMatP= 2.07D-01
 IDIUse=3 WtCom= 9.27D-01 WtEn= 7.32D-02
 Coeff-Com: -0.110D+00 0.229D+00 0.411D+00 0.470D+00
 Coeff-En:   0.000D+00 0.000D+00 0.232D+00 0.768D+00
 Coeff:     -0.102D+00 0.212D+00 0.398D+00 0.492D+00
 Gap=     0.120 Goal=   None    Shift=    0.000
 RMSDP=2.13D-04 MaxDP=2.07D-02 DE=-1.40D-01 OVMax= 7.53D-02

 Cycle   5  Pass 1  IDiag  1:
 RMSU=  8.17D-05    CP:  9.64D-01  1.48D+00  6.86D-01  5.35D-01
 E= -4069.81006284963     Delta-E=       -0.049444187553 Rises=F Damp=F
 DIIS: error= 7.08D-04 at cycle   5 NSaved=   5.
 NSaved= 5 IEnMin= 5 EnMin= -4069.81006284963     IErMin= 5 ErrMin= 7.08D-04
 ErrMax= 7.08D-04  0.00D+00 EMaxC= 1.00D-01 BMatC= 1.45D-03 BMatP= 5.34D-02
 IDIUse=3 WtCom= 9.93D-01 WtEn= 7.08D-03
 Coeff-Com: -0.391D-01 0.771D-01 0.177D+00 0.260D+00 0.525D+00
 Coeff-En:   0.000D+00 0.000D+00 0.000D+00 0.000D+00 0.100D+01
 Coeff:     -0.388D-01 0.765D-01 0.176D+00 0.258D+00 0.528D+00
 Gap=     0.119 Goal=   None    Shift=    0.000
 RMSDP=4.75D-05 MaxDP=4.19D-03 DE=-4.94D-02 OVMax= 2.25D-02

 Cycle   6  Pass 1  IDiag  1:
 RMSU=  3.36D-05    CP:  9.64D-01  1.49D+00  6.76D-01  6.14D-01  7.06D-01
 E= -4069.81141974298     Delta-E=       -0.001356893343 Rises=F Damp=F
 DIIS: error= 2.27D-04 at cycle   6 NSaved=   6.
 NSaved= 6 IEnMin= 6 EnMin= -4069.81141974298     IErMin= 6 ErrMin= 2.27D-04
 ErrMax= 2.27D-04  0.00D+00 EMaxC= 1.00D-01 BMatC= 2.18D-04 BMatP= 1.45D-03
 IDIUse=3 WtCom= 9.98D-01 WtEn= 2.27D-03
 Coeff-Com:  0.175D-02-0.578D-02 0.141D-01 0.439D-01 0.303D+00 0.643D+00
 Coeff-En:   0.000D+00 0.000D+00 0.000D+00 0.000D+00 0.121D+00 0.879D+00
 Coeff:      0.175D-02-0.577D-02 0.141D-01 0.438D-01 0.302D+00 0.644D+00
 Gap=     0.120 Goal=   None    Shift=    0.000
 RMSDP=1.83D-05 MaxDP=1.42D-03 DE=-1.36D-03 OVMax= 8.91D-03

 Cycle   7  Pass 1  IDiag  1:
 RMSU=  1.18D-05    CP:  9.64D-01  1.49D+00  6.82D-01  6.12D-01  8.25D-01
                    CP:  7.36D-01
 E= -4069.81166773878     Delta-E=       -0.000247995806 Rises=F Damp=F
 DIIS: error= 1.08D-04 at cycle   7 NSaved=   7.
 NSaved= 7 IEnMin= 7 EnMin= -4069.81166773878     IErMin= 7 ErrMin= 1.08D-04
 ErrMax= 1.08D-04  0.00D+00 EMaxC= 1.00D-01 BMatC= 2.87D-05 BMatP= 2.18D-04
 IDIUse=3 WtCom= 9.99D-01 WtEn= 1.08D-03
 Coeff-Com:  0.469D-02-0.103D-01-0.887D-02-0.280D-02 0.109D+00 0.344D+00
 Coeff-Com:  0.564D+00
 Coeff-En:   0.000D+00 0.000D+00 0.000D+00 0.000D+00 0.000D+00 0.000D+00
 Coeff-En:   0.100D+01
 Coeff:      0.468D-02-0.103D-01-0.886D-02-0.279D-02 0.109D+00 0.344D+00
 Coeff:      0.564D+00
 Gap=     0.120 Goal=   None    Shift=    0.000
 RMSDP=6.93D-06 MaxDP=1.11D-03 DE=-2.48D-04 OVMax= 3.70D-03

 Cycle   8  Pass 1  IDiag  1:
 RMSU=  4.97D-06    CP:  9.64D-01  1.49D+00  6.83D-01  6.17D-01  8.24D-01
                    CP:  8.53D-01  8.10D-01
 E= -4069.81170255001     Delta-E=       -0.000034811223 Rises=F Damp=F
 DIIS: error= 5.87D-05 at cycle   8 NSaved=   8.
 NSaved= 8 IEnMin= 8 EnMin= -4069.81170255001     IErMin= 8 ErrMin= 5.87D-05
 ErrMax= 5.87D-05  0.00D+00 EMaxC= 1.00D-01 BMatC= 5.07D-06 BMatP= 2.87D-05
 IDIUse=1 WtCom= 1.00D+00 WtEn= 0.00D+00
 Coeff-Com:  0.224D-02-0.446D-02-0.789D-02-0.120D-01-0.699D-02 0.327D-01
 Coeff-Com:  0.307D+00 0.689D+00
 Coeff:      0.224D-02-0.446D-02-0.789D-02-0.120D-01-0.699D-02 0.327D-01
 Coeff:      0.307D+00 0.689D+00
 Gap=     0.120 Goal=   None    Shift=    0.000
 RMSDP=3.48D-06 MaxDP=4.49D-04 DE=-3.48D-05 OVMax= 1.25D-03

 Cycle   9  Pass 1  IDiag  1:
 RMSU=  2.03D-06    CP:  9.64D-01  1.49D+00  6.83D-01  6.18D-01  8.41D-01
                    CP:  8.82D-01  9.96D-01  9.84D-01
 E= -4069.81171082585     Delta-E=       -0.000008275845 Rises=F Damp=F
 DIIS: error= 2.03D-05 at cycle   9 NSaved=   9.
 NSaved= 9 IEnMin= 9 EnMin= -4069.81171082585     IErMin= 9 ErrMin= 2.03D-05
 ErrMax= 2.03D-05  0.00D+00 EMaxC= 1.00D-01 BMatC= 8.43D-07 BMatP= 5.07D-06
 IDIUse=1 WtCom= 1.00D+00 WtEn= 0.00D+00
 Coeff-Com:  0.487D-03-0.808D-03-0.277D-02-0.612D-02-0.193D-01-0.419D-01
 Coeff-Com:  0.877D-01 0.348D+00 0.634D+00
 Coeff:      0.487D-03-0.808D-03-0.277D-02-0.612D-02-0.193D-01-0.419D-01
 Coeff:      0.877D-01 0.348D+00 0.634D+00
 Gap=     0.120 Goal=   None    Shift=    0.000
 RMSDP=1.53D-06 MaxDP=1.63D-04 DE=-8.28D-06 OVMax= 7.85D-04

 Cycle  10  Pass 1  IDiag  1:
 RMSU=  1.00D-06    CP:  9.64D-01  1.49D+00  6.83D-01  6.19D-01  8.44D-01
                    CP:  8.93D-01  1.04D+00  1.15D+00  1.06D+00
 E= -4069.81171270314     Delta-E=       -0.000001877292 Rises=F Damp=F
 DIIS: error= 1.02D-05 at cycle  10 NSaved=  10.
 NSaved=10 IEnMin=10 EnMin= -4069.81171270314     IErMin=10 ErrMin= 1.02D-05
 ErrMax= 1.02D-05  0.00D+00 EMaxC= 1.00D-01 BMatC= 1.90D-07 BMatP= 8.43D-07
 IDIUse=1 WtCom= 1.00D+00 WtEn= 0.00D+00
 Coeff-Com: -0.428D-03 0.903D-03 0.120D-02 0.969D-03-0.369D-02-0.320D-01
 Coeff-Com: -0.426D-01-0.662D-01 0.231D+00 0.911D+00
 Coeff:     -0.428D-03 0.903D-03 0.120D-02 0.969D-03-0.369D-02-0.320D-01
 Coeff:     -0.426D-01-0.662D-01 0.231D+00 0.911D+00
 Gap=     0.120 Goal=   None    Shift=    0.000
 RMSDP=1.30D-06 MaxDP=1.26D-04 DE=-1.88D-06 OVMax= 6.75D-04

 Cycle  11  Pass 1  IDiag  1:
 RMSU=  5.80D-07    CP:  9.64D-01  1.49D+00  6.83D-01  6.19D-01  8.47D-01
                    CP:  9.02D-01  1.09D+00  1.27D+00  1.40D+00  1.35D+00
 E= -4069.81171359935     Delta-E=       -0.000000896212 Rises=F Damp=F
 DIIS: error= 4.52D-06 at cycle  11 NSaved=  11.
 NSaved=11 IEnMin=11 EnMin= -4069.81171359935     IErMin=11 ErrMin= 4.52D-06
 ErrMax= 4.52D-06  0.00D+00 EMaxC= 1.00D-01 BMatC= 8.24D-08 BMatP= 1.90D-07
 IDIUse=1 WtCom= 1.00D+00 WtEn= 0.00D+00
 Coeff-Com: -0.355D-03 0.692D-03 0.141D-02 0.214D-02 0.418D-02-0.931D-02
 Coeff-Com: -0.410D-01-0.133D+00-0.421D-01 0.513D+00 0.705D+00
 Coeff:     -0.355D-03 0.692D-03 0.141D-02 0.214D-02 0.418D-02-0.931D-02
 Coeff:     -0.410D-01-0.133D+00-0.421D-01 0.513D+00 0.705D+00
 Gap=     0.120 Goal=   None    Shift=    0.000
 RMSDP=7.56D-07 MaxDP=7.38D-05 DE=-8.96D-07 OVMax= 4.40D-04

 Cycle  12  Pass 1  IDiag  1:
 RMSU=  2.93D-07    CP:  9.64D-01  1.49D+00  6.83D-01  6.19D-01  8.48D-01
                    CP:  9.05D-01  1.11D+00  1.34D+00  1.56D+00  1.76D+00
                    CP:  1.16D+00
 E= -4069.81171391751     Delta-E=       -0.000000318159 Rises=F Damp=F
 DIIS: error= 2.93D-06 at cycle  12 NSaved=  12.
 NSaved=12 IEnMin=12 EnMin= -4069.81171391751     IErMin=12 ErrMin= 2.93D-06
 ErrMax= 2.93D-06  0.00D+00 EMaxC= 1.00D-01 BMatC= 2.03D-08 BMatP= 8.24D-08
 IDIUse=1 WtCom= 1.00D+00 WtEn= 0.00D+00
 Coeff-Com: -0.325D-04 0.457D-04 0.316D-03 0.705D-03 0.377D-02 0.336D-02
 Coeff-Com: -0.897D-03-0.441D-01-0.805D-01-0.159D-01 0.282D+00 0.851D+00
 Coeff:     -0.325D-04 0.457D-04 0.316D-03 0.705D-03 0.377D-02 0.336D-02
 Coeff:     -0.897D-03-0.441D-01-0.805D-01-0.159D-01 0.282D+00 0.851D+00
 Gap=     0.120 Goal=   None    Shift=    0.000
 RMSDP=4.59D-07 MaxDP=3.44D-05 DE=-3.18D-07 OVMax= 2.67D-04

 Cycle  13  Pass 1  IDiag  1:
 RMSU=  1.79D-07    CP:  9.64D-01  1.49D+00  6.83D-01  6.19D-01  8.48D-01
                    CP:  9.05D-01  1.12D+00  1.36D+00  1.67D+00  1.97D+00
                    CP:  1.55D+00  1.20D+00
 E= -4069.81171402640     Delta-E=       -0.000000108888 Rises=F Damp=F
 DIIS: error= 1.58D-06 at cycle  13 NSaved=  13.
 NSaved=13 IEnMin=13 EnMin= -4069.81171402640     IErMin=13 ErrMin= 1.58D-06
 ErrMax= 1.58D-06  0.00D+00 EMaxC= 1.00D-01 BMatC= 1.01D-08 BMatP= 2.03D-08
 IDIUse=1 WtCom= 1.00D+00 WtEn= 0.00D+00
 Coeff-Com:  0.121D-03-0.248D-03-0.359D-03-0.424D-03 0.895D-03 0.502D-02
 Coeff-Com:  0.179D-01 0.233D-01-0.342D-01-0.235D+00-0.157D+00 0.549D+00
 Coeff-Com:  0.830D+00
 Coeff:      0.121D-03-0.248D-03-0.359D-03-0.424D-03 0.895D-03 0.502D-02
 Coeff:      0.179D-01 0.233D-01-0.342D-01-0.235D+00-0.157D+00 0.549D+00
 Coeff:      0.830D+00
 Gap=     0.120 Goal=   None    Shift=    0.000
 RMSDP=3.89D-07 MaxDP=2.79D-05 DE=-1.09D-07 OVMax= 2.52D-04

 Cycle  14  Pass 1  IDiag  1:
 RMSU=  8.56D-08    CP:  9.64D-01  1.49D+00  6.83D-01  6.19D-01  8.48D-01
                    CP:  9.05D-01  1.12D+00  1.39D+00  1.76D+00  2.18D+00
                    CP:  1.82D+00  1.73D+00  1.14D+00
 E= -4069.81171407393     Delta-E=       -0.000000047523 Rises=F Damp=F
 DIIS: error= 8.61D-07 at cycle  14 NSaved=  14.
 NSaved=14 IEnMin=14 EnMin= -4069.81171407393     IErMin=14 ErrMin= 8.61D-07
 ErrMax= 8.61D-07  0.00D+00 EMaxC= 1.00D-01 BMatC= 1.67D-09 BMatP= 1.01D-08
 IDIUse=1 WtCom= 1.00D+00 WtEn= 0.00D+00
 Coeff-Com:  0.729D-04-0.144D-03-0.266D-03-0.406D-03-0.375D-03 0.136D-02
 Coeff-Com:  0.103D-01 0.213D-01 0.457D-02-0.110D+00-0.148D+00 0.710D-01
 Coeff-Com:  0.431D+00 0.720D+00
 Coeff:      0.729D-04-0.144D-03-0.266D-03-0.406D-03-0.375D-03 0.136D-02
 Coeff:      0.103D-01 0.213D-01 0.457D-02-0.110D+00-0.148D+00 0.710D-01
 Coeff:      0.431D+00 0.720D+00
 Gap=     0.120 Goal=   None    Shift=    0.000
 RMSDP=1.26D-07 MaxDP=8.72D-06 DE=-4.75D-08 OVMax= 7.02D-05

 Cycle  15  Pass 1  IDiag  1:
 RMSU=  4.23D-08    CP:  9.64D-01  1.49D+00  6.83D-01  6.19D-01  8.48D-01
                    CP:  9.05D-01  1.12D+00  1.40D+00  1.78D+00  2.23D+00
                    CP:  1.93D+00  1.88D+00  1.39D+00  1.03D+00
 E= -4069.81171407951     Delta-E=       -0.000000005584 Rises=F Damp=F
 DIIS: error= 4.03D-07 at cycle  15 NSaved=  15.
 NSaved=15 IEnMin=15 EnMin= -4069.81171407951     IErMin=15 ErrMin= 4.03D-07
 ErrMax= 4.03D-07  0.00D+00 EMaxC= 1.00D-01 BMatC= 2.68D-10 BMatP= 1.67D-09
 IDIUse=1 WtCom= 1.00D+00 WtEn= 0.00D+00
 Coeff-Com:  0.975D-05-0.175D-04-0.491D-04-0.106D-03-0.303D-03-0.483D-03
 Coeff-Com:  0.149D-02 0.402D-02 0.916D-02-0.429D-02-0.334D-01-0.719D-01
 Coeff-Com:  0.528D-01 0.305D+00 0.738D+00
 Coeff:      0.975D-05-0.175D-04-0.491D-04-0.106D-03-0.303D-03-0.483D-03
 Coeff:      0.149D-02 0.402D-02 0.916D-02-0.429D-02-0.334D-01-0.719D-01
 Coeff:      0.528D-01 0.305D+00 0.738D+00
 Gap=     0.120 Goal=   None    Shift=    0.000
 RMSDP=3.91D-08 MaxDP=3.09D-06 DE=-5.58D-09 OVMax= 3.17D-05

 Cycle  16  Pass 1  IDiag  1:
 RMSU=  2.17D-08    CP:  9.64D-01  1.49D+00  6.83D-01  6.19D-01  8.48D-01
                    CP:  9.05D-01  1.12D+00  1.40D+00  1.78D+00  2.24D+00
                    CP:  1.95D+00  1.93D+00  1.46D+00  1.23D+00  1.10D+00
 E= -4069.81171408015     Delta-E=       -0.000000000644 Rises=F Damp=F
 DIIS: error= 2.43D-07 at cycle  16 NSaved=  16.
 NSaved=16 IEnMin=16 EnMin= -4069.81171408015     IErMin=16 ErrMin= 2.43D-07
 ErrMax= 2.43D-07  0.00D+00 EMaxC= 1.00D-01 BMatC= 1.19D-10 BMatP= 2.68D-10
 IDIUse=1 WtCom= 1.00D+00 WtEn= 0.00D+00
 Coeff-Com: -0.134D-04 0.273D-04 0.420D-04 0.423D-04-0.657D-04-0.655D-03
 Coeff-Com: -0.166D-02-0.384D-02 0.439D-02 0.240D-01 0.195D-01-0.639D-01
 Coeff-Com: -0.732D-01-0.316D-01 0.423D+00 0.704D+00
 Coeff:     -0.134D-04 0.273D-04 0.420D-04 0.423D-04-0.657D-04-0.655D-03
 Coeff:     -0.166D-02-0.384D-02 0.439D-02 0.240D-01 0.195D-01-0.639D-01
 Coeff:     -0.732D-01-0.316D-01 0.423D+00 0.704D+00
 Gap=     0.120 Goal=   None    Shift=    0.000
 RMSDP=2.61D-08 MaxDP=1.87D-06 DE=-6.44D-10 OVMax= 1.49D-05

 Cycle  17  Pass 1  IDiag  1:
 RMSU=  1.22D-08    CP:  9.64D-01  1.49D+00  6.83D-01  6.19D-01  8.48D-01
                    CP:  9.05D-01  1.12D+00  1.40D+00  1.78D+00  2.25D+00
                    CP:  1.97D+00  1.95D+00  1.51D+00  1.31D+00  1.40D+00
                    CP:  1.12D+00
 E= -4069.81171408071     Delta-E=       -0.000000000557 Rises=F Damp=F
 DIIS: error= 8.70D-08 at cycle  17 NSaved=  17.
 NSaved=17 IEnMin=17 EnMin= -4069.81171408071     IErMin=17 ErrMin= 8.70D-08
 ErrMax= 8.70D-08  0.00D+00 EMaxC= 1.00D-01 BMatC= 2.42D-11 BMatP= 1.19D-10
 IDIUse=1 WtCom= 1.00D+00 WtEn= 0.00D+00
 Coeff-Com: -0.899D-05 0.177D-04 0.338D-04 0.470D-04 0.660D-04-0.201D-03
 Coeff-Com: -0.105D-02-0.322D-02 0.256D-03 0.124D-01 0.197D-01-0.135D-01
 Coeff-Com: -0.419D-01-0.104D+00 0.211D-01 0.305D+00 0.805D+00
 Coeff:     -0.899D-05 0.177D-04 0.338D-04 0.470D-04 0.660D-04-0.201D-03
 Coeff:     -0.105D-02-0.322D-02 0.256D-03 0.124D-01 0.197D-01-0.135D-01
 Coeff:     -0.419D-01-0.104D+00 0.211D-01 0.305D+00 0.805D+00
 Gap=     0.120 Goal=   None    Shift=    0.000
 RMSDP=1.45D-08 MaxDP=1.14D-06 DE=-5.57D-10 OVMax= 1.08D-05

 Cycle  18  Pass 1  IDiag  1:
 RMSU=  6.22D-09    CP:  9.64D-01  1.49D+00  6.83D-01  6.19D-01  8.48D-01
                    CP:  9.05D-01  1.12D+00  1.40D+00  1.78D+00  2.25D+00
                    CP:  1.97D+00  1.96D+00  1.53D+00  1.38D+00  1.55D+00
                    CP:  1.50D+00  1.28D+00
 E= -4069.81171408090     Delta-E=       -0.000000000193 Rises=F Damp=F
 DIIS: error= 8.29D-08 at cycle  18 NSaved=  18.
 NSaved=18 IEnMin=18 EnMin= -4069.81171408090     IErMin=18 ErrMin= 8.29D-08
 ErrMax= 8.29D-08  0.00D+00 EMaxC= 1.00D-01 BMatC= 1.12D-11 BMatP= 2.42D-11
 IDIUse=1 WtCom= 1.00D+00 WtEn= 0.00D+00
 Coeff-Com: -0.459D-06 0.535D-06 0.479D-05 0.112D-04 0.721D-04 0.118D-03
 Coeff-Com:  0.675D-04-0.576D-03-0.115D-02-0.223D-02 0.441D-02 0.132D-01
 Coeff-Com:  0.664D-02-0.510D-01-0.130D+00-0.109D+00 0.458D+00 0.811D+00
 Coeff:     -0.459D-06 0.535D-06 0.479D-05 0.112D-04 0.721D-04 0.118D-03
 Coeff:      0.675D-04-0.576D-03-0.115D-02-0.223D-02 0.441D-02 0.132D-01
 Coeff:      0.664D-02-0.510D-01-0.130D+00-0.109D+00 0.458D+00 0.811D+00
 Gap=     0.120 Goal=   None    Shift=    0.000
 RMSDP=1.08D-08 MaxDP=7.87D-07 DE=-1.93D-10 OVMax= 6.09D-06

 Cycle  19  Pass 1  IDiag  1:
 RMSU=  3.23D-09    CP:  9.64D-01  1.49D+00  6.83D-01  6.19D-01  8.48D-01
                    CP:  9.05D-01  1.12D+00  1.40D+00  1.78D+00  2.25D+00
                    CP:  1.97D+00  1.96D+00  1.54D+00  1.41D+00  1.67D+00
                    CP:  1.72D+00  1.77D+00  1.16D+00
 E= -4069.81171408069     Delta-E=        0.000000000211 Rises=F Damp=F
 DIIS: error= 3.49D-08 at cycle  19 NSaved=  19.
 NSaved=19 IEnMin=18 EnMin= -4069.81171408090     IErMin=19 ErrMin= 3.49D-08
 ErrMax= 3.49D-08  0.00D+00 EMaxC= 1.00D-01 BMatC= 3.02D-12 BMatP= 1.12D-11
 IDIUse=1 WtCom= 1.00D+00 WtEn= 0.00D+00
 Coeff-Com:  0.324D-05-0.659D-05-0.104D-04-0.118D-04 0.257D-04 0.151D-03
 Coeff-Com:  0.487D-03 0.875D-03-0.732D-03-0.671D-02-0.503D-02 0.132D-01
 Coeff-Com:  0.231D-01 0.861D-02-0.884D-01-0.210D+00-0.228D-01 0.472D+00
 Coeff-Com:  0.816D+00
 Coeff:      0.324D-05-0.659D-05-0.104D-04-0.118D-04 0.257D-04 0.151D-03
 Coeff:      0.487D-03 0.875D-03-0.732D-03-0.671D-02-0.503D-02 0.132D-01
 Coeff:      0.231D-01 0.861D-02-0.884D-01-0.210D+00-0.228D-01 0.472D+00
 Coeff:      0.816D+00
 Gap=     0.120 Goal=   None    Shift=    0.000
 RMSDP=7.46D-09 MaxDP=5.49D-07 DE= 2.11D-10 OVMax= 4.89D-06

 SCF Done:  E(RCAM-B3LYP) =  -4069.81171408     A.U. after   19 cycles
            NFock= 19  Conv=0.75D-08     -V/T= 2.0102
 KE= 4.028800424809D+03 PE=-4.046559974767D+04 EE= 1.687476236191D+04
 Leave Link  502 at Thu Aug 19 21:03:05 2021, MaxMem= 23488102400 cpu:           15361.2 elap:             665.2
 (Enter /sw/apps/gaussian-16.0/g16/l801.exe)
 DoSCS=F DFT=T ScalE2(SS,OS)=  1.000000  1.000000
 ExpMin= 3.36D-02 ExpMax= 4.95D+03 ExpMxC= 7.45D+02 IAcc=3 IRadAn=         5 AccDes= 0.00D+00
 HarFok:  IExCor=  205 AccDes= 0.00D+00 IRadAn=         5 IDoV=-2 UseB2=F ITyADJ=14
 ICtDFT= 12500011 ScaDFX=  1.000000  1.000000  1.000000  1.000000
 GSVD:  LWork=       -9588 too small for GESVD, short by       45590 words or       45590 for optimal perf.
 Largest valence mixing into a core orbital is  2.03D-04
 Largest core mixing into a valence orbital is  5.23D-05
 Range of M.O.s used for correlation:    95  1572
 NBasis=  1572 NAE=   312 NBE=   312 NFC=    94 NFV=     0
 NROrb=   1478 NOA=   218 NOB=   218 NVA=  1260 NVB=  1260
 Leave Link  801 at Thu Aug 19 21:03:06 2021, MaxMem= 23488102400 cpu:               9.7 elap:               0.4
 (Enter /sw/apps/gaussian-16.0/g16/l914.exe)
 RHF ground state
 Two-electron integrals replicated using symmetry.
 MDV= 23488102400 DFT=T DoStab=F Mixed=T DoRPA=T DoScal=F NonHer=T
 Making orbital integer symmetry assigments:
 Orbital symmetries:
       Occupied  (A) (A) (A) (A) (A) (A) (A) (A) (A) (A) (A) (A)
                 (A) (A) (A) (A) (A) (A) (A) (A) (A) (A) (A) (A)
                 (A) (A) (A) (A) (A) (A) (A) (A) (A) (A) (A) (A)
                 (A) (A) (A) (A) (A) (A) (A) (A) (A) (A) (A) (A)
                 (A) (A) (A) (A) (A) (A) (A) (A) (A) (A) (A) (A)
                 (A) (A) (A) (A) (A) (A) (A) (A) (A) (A) (A) (A)
                 (A) (A) (A) (A) (A) (A) (A) (A) (A) (A) (A) (A)
                 (A) (A) (A) (A) (A) (A) (A) (A) (A) (A) (A) (A)
                 (A) (A) (A) (A) (A) (A) (A) (A) (A) (A) (A) (A)
                 (A) (A) (A) (A) (A) (A) (A) (A) (A) (A) (A) (A)
                 (A) (A) (A) (A) (A) (A) (A) (A) (A) (A) (A) (A)
                 (A) (A) (A) (A) (A) (A) (A) (A) (A) (A) (A) (A)
                 (A) (A) (A) (A) (A) (A) (A) (A) (A) (A) (A) (A)
                 (A) (A) (A) (A) (A) (A) (A) (A) (A) (A) (A) (A)
                 (A) (A) (A) (A) (A) (A) (A) (A) (A) (A) (A) (A)
                 (A) (A) (A) (A) (A) (A) (A) (A) (A) (A) (A) (A)
                 (A) (A) (A) (A) (A) (A) (A) (A) (A) (A) (A) (A)
                 (A) (A) (A) (A) (A) (A) (A) (A) (A) (A) (A) (A)
                 (A) (A) (A) (A) (A) (A) (A) (A) (A) (A) (A) (A)
                 (A) (A) (A) (A) (A) (A) (A) (A) (A) (A) (A) (A)
                 (A) (A) (A) (A) (A) (A) (A) (A) (A) (A) (A) (A)
                 (A) (A) (A) (A) (A) (A) (A) (A) (A) (A) (A) (A)
                 (A) (A) (A) (A) (A) (A) (A) (A) (A) (A) (A) (A)
                 (A) (A) (A) (A) (A) (A) (A) (A) (A) (A) (A) (A)
                 (A) (A) (A) (A) (A) (A) (A) (A) (A) (A) (A) (A)
                 (A) (A) (A) (A) (A) (A) (A) (A) (A) (A) (A) (A)
       Virtual   (A) (A) (A) (A) (A) (A) (A) (A) (A) (A) (A) (A)
                 (A) (A) (A) (A) (A) (A) (A) (A) (A) (A) (A) (A)
                 (A) (A) (A) (A) (A) (A) (A) (A) (A) (A) (A) (A)
                 (A) (A) (A) (A) (A) (A) (A) (A) (A) (A) (A) (A)
                 (A) (A) (A) (A) (A) (A) (A) (A) (A) (A) (A) (A)
                 (A) (A) (A) (A) (A) (A) (A) (A) (A) (A) (A) (A)
                 (A) (A) (A) (A) (A) (A) (A) (A) (A) (A) (A) (A)
                 (A) (A) (A) (A) (A) (A) (A) (A) (A) (A) (A) (A)
                 (A) (A) (A) (A) (A) (A) (A) (A) (A) (A) (A) (A)
                 (A) (A) (A) (A) (A) (A) (A) (A) (A) (A) (A) (A)
                 (A) (A) (A) (A) (A) (A) (A) (A) (A) (A) (A) (A)
                 (A) (A) (A) (A) (A) (A) (A) (A) (A) (A) (A) (A)
                 (A) (A) (A) (A) (A) (A) (A) (A) (A) (A) (A) (A)
                 (A) (A) (A) (A) (A) (A) (A) (A) (A) (A) (A) (A)
                 (A) (A) (A) (A) (A) (A) (A) (A) (A) (A) (A) (A)
                 (A) (A) (A) (A) (A) (A) (A) (A) (A) (A) (A) (A)
                 (A) (A) (A) (A) (A) (A) (A) (A) (A) (A) (A) (A)
                 (A) (A) (A) (A) (A) (A) (A) (A) (A) (A) (A) (A)
                 (A) (A) (A) (A) (A) (A) (A) (A) (A) (A) (A) (A)
                 (A) (A) (A) (A) (A) (A) (A) (A) (A) (A) (A) (A)
                 (A) (A) (A) (A) (A) (A) (A) (A) (A) (A) (A) (A)
                 (A) (A) (A) (A) (A) (A) (A) (A) (A) (A) (A) (A)
                 (A) (A) (A) (A) (A) (A) (A) (A) (A) (A) (A) (A)
                 (A) (A) (A) (A) (A) (A) (A) (A) (A) (A) (A) (A)
                 (A) (A) (A) (A) (A) (A) (A) (A) (A) (A) (A) (A)
                 (A) (A) (A) (A) (A) (A) (A) (A) (A) (A) (A) (A)
                 (A) (A) (A) (A) (A) (A) (A) (A) (A) (A) (A) (A)
                 (A) (A) (A) (A) (A) (A) (A) (A) (A) (A) (A) (A)
                 (A) (A) (A) (A) (A) (A) (A) (A) (A) (A) (A) (A)
                 (A) (A) (A) (A) (A) (A) (A) (A) (A) (A) (A) (A)
                 (A) (A) (A) (A) (A) (A) (A) (A) (A) (A) (A) (A)
                 (A) (A) (A) (A) (A) (A) (A) (A) (A) (A) (A) (A)
                 (A) (A) (A) (A) (A) (A) (A) (A) (A) (A) (A) (A)
                 (A) (A) (A) (A) (A) (A) (A) (A) (A) (A) (A) (A)
                 (A) (A) (A) (A) (A) (A) (A) (A) (A) (A) (A) (A)
                 (A) (A) (A) (A) (A) (A) (A) (A) (A) (A) (A) (A)
                 (A) (A) (A) (A) (A) (A) (A) (A) (A) (A) (A) (A)
                 (A) (A) (A) (A) (A) (A) (A) (A) (A) (A) (A) (A)
                 (A) (A) (A) (A) (A) (A) (A) (A) (A) (A) (A) (A)
                 (A) (A) (A) (A) (A) (A) (A) (A) (A) (A) (A) (A)
                 (A) (A) (A) (A) (A) (A) (A) (A) (A) (A) (A) (A)
                 (A) (A) (A) (A) (A) (A) (A) (A) (A) (A) (A) (A)
                 (A) (A) (A) (A) (A) (A) (A) (A) (A) (A) (A) (A)
                 (A) (A) (A) (A) (A) (A) (A) (A) (A) (A) (A) (A)
                 (A) (A) (A) (A) (A) (A) (A) (A) (A) (A) (A) (A)
                 (A) (A) (A) (A) (A) (A) (A) (A) (A) (A) (A) (A)
                 (A) (A) (A) (A) (A) (A) (A) (A) (A) (A) (A) (A)
                 (A) (A) (A) (A) (A) (A) (A) (A) (A) (A) (A) (A)
                 (A) (A) (A) (A) (A) (A) (A) (A) (A) (A) (A) (A)
                 (A) (A) (A) (A) (A) (A) (A) (A) (A) (A) (A) (A)
                 (A) (A) (A) (A) (A) (A) (A) (A) (A) (A) (A) (A)
                 (A) (A) (A) (A) (A) (A) (A) (A) (A) (A) (A) (A)
                 (A) (A) (A) (A) (A) (A) (A) (A) (A) (A) (A) (A)
                 (A) (A) (A) (A) (A) (A) (A) (A) (A) (A) (A) (A)
                 (A) (A) (A) (A) (A) (A) (A) (A) (A) (A) (A) (A)
                 (A) (A) (A) (A) (A) (A) (A) (A) (A) (A) (A) (A)
                 (A) (A) (A) (A) (A) (A) (A) (A) (A) (A) (A) (A)
                 (A) (A) (A) (A) (A) (A) (A) (A) (A) (A) (A) (A)
                 (A) (A) (A) (A) (A) (A) (A) (A) (A) (A) (A) (A)
                 (A) (A) (A) (A) (A) (A) (A) (A) (A) (A) (A) (A)
                 (A) (A) (A) (A) (A) (A) (A) (A) (A) (A) (A) (A)
                 (A) (A) (A) (A) (A) (A) (A) (A) (A) (A) (A) (A)
                 (A) (A) (A) (A) (A) (A) (A) (A) (A) (A) (A) (A)
                 (A) (A) (A) (A) (A) (A) (A) (A) (A) (A) (A) (A)
                 (A) (A) (A) (A) (A) (A) (A) (A) (A) (A) (A) (A)
                 (A) (A) (A) (A) (A) (A) (A) (A) (A) (A) (A) (A)
                 (A) (A) (A) (A) (A) (A) (A) (A) (A) (A) (A) (A)
                 (A) (A) (A) (A) (A) (A) (A) (A) (A) (A) (A) (A)
                 (A) (A) (A) (A) (A) (A) (A) (A) (A) (A) (A) (A)
                 (A) (A) (A) (A) (A) (A) (A) (A) (A) (A) (A) (A)
                 (A) (A) (A) (A) (A) (A) (A) (A) (A) (A) (A) (A)
                 (A) (A) (A) (A) (A) (A) (A) (A) (A) (A) (A) (A)
                 (A) (A) (A) (A) (A) (A) (A) (A) (A) (A) (A) (A)
                 (A) (A) (A) (A) (A) (A) (A) (A) (A) (A) (A) (A)
                 (A) (A) (A) (A) (A) (A) (A) (A) (A) (A) (A) (A)
                 (A) (A) (A) (A) (A) (A) (A) (A) (A) (A) (A) (A)
                 (A) (A) (A) (A) (A) (A) (A) (A) (A) (A) (A) (A)
                 (A) (A) (A) (A) (A) (A) (A) (A) (A) (A) (A) (A)
                 (A) (A) (A) (A) (A) (A) (A) (A) (A) (A) (A) (A)
                 (A) (A) (A) (A) (A) (A) (A) (A) (A) (A) (A) (A)
                 (A) (A) (A) (A) (A) (A) (A) (A) (A) (A) (A) (A)
                 (A) (A) (A) (A) (A) (A) (A) (A) (A) (A) (A) (A)
                 (A) (A) (A) (A) (A) (A) (A) (A) (A) (A) (A) (A)
                 (A) (A) (A) (A) (A) (A) (A) (A) (A) (A) (A) (A)
                 (A) (A) (A) (A) (A) (A) (A) (A) (A) (A) (A) (A)
                 (A) (A) (A) (A) (A) (A) (A) (A) (A) (A) (A) (A)
                 (A) (A) (A) (A) (A) (A) (A) (A) (A) (A) (A) (A)
                 (A) (A) (A) (A) (A) (A) (A) (A) (A) (A) (A) (A)
                 (A) (A) (A) (A) (A) (A) (A) (A) (A) (A) (A) (A)
                 (A) (A) (A) (A) (A) (A) (A) (A) (A) (A) (A) (A)
                 (A) (A) (A) (A) (A) (A) (A) (A) (A) (A) (A) (A)
                 (A) (A) (A) (A) (A) (A) (A) (A) (A) (A) (A) (A)
                 (A) (A) (A) (A) (A) (A) (A) (A) (A) (A) (A) (A)
                 (A) (A) (A) (A) (A) (A) (A) (A) (A) (A) (A) (A)
                 (A) (A) (A) (A) (A) (A) (A) (A) (A) (A) (A) (A)
                 (A) (A) (A) (A) (A) (A) (A) (A) (A) (A) (A) (A)
                 (A) (A) (A) (A) (A) (A) (A) (A) (A) (A) (A) (A)
                 (A) (A) (A) (A) (A) (A) (A) (A) (A) (A) (A) (A)
                 (A) (A) (A) (A) (A) (A) (A) (A) (A) (A) (A) (A)
                 (A) (A) (A) (A) (A) (A) (A) (A) (A) (A) (A) (A)
                 (A) (A) (A) (A) (A) (A) (A) (A) (A) (A) (A) (A)
                 (A) (A) (A) (A) (A) (A) (A) (A) (A) (A) (A) (A)
                 (A) (A) (A) (A) (A) (A) (A) (A) (A) (A) (A) (A)
                 (A) (A) (A) (A) (A) (A) (A) (A) (A) (A) (A) (A)
                 (A) (A) (A) (A) (A) (A) (A) (A) (A) (A) (A) (A)
    20 initial guesses have been made.
 Convergence on wavefunction:    0.001000000000000
 Davidson Disk Diagonalization:  ConvIn= 1.00D-03 SkipCon=T Conv= 1.00D-03.
 Max sub-space:  2000 roots to seek:    20 dimension of matrix:       549360
 Iteration     1 Dimension    20 NMult     0 NNew     20
 CISAX will form    20 AO SS matrices at one time.
 NMat=    20 NSing=    20 JSym2X= 0.
 FoFJK:  IHMeth= 1 ICntrl=       0 DoSepK=T KAlg= 0 I1Cent=           0 FoldK=F
 IRaf=         1 NMat=      40 IRICut=       1 DoRegI=T DoRafI=F ISym2E= 0 IDoP0=3 IntGTp=3.
 FoFCou: FMM=T IPFlag=           0 FMFlag=      100000 FMFlg1=        2001
         NFxFlg=           0 DoJE=F BraDBF=F KetDBF=F FulRan=T
         wScrn=  0.000000 ICntrl=       500 IOpCl=  0 I1Cent=           0 NGrid=           0
         NMat0=   20 NMatS0=     20 NMatT0=    0 NMatD0=   20 NMtDS0=    0 NMtDT0=    0
 Symmetry not used in FoFCou.
 FMM levels:  10  Number of levels for PrismC:   9
 New state      2 was old state      4
 New state      3 was old state      7
 New state      4 was old state      6
 New state      5 was old state      2
 Excitation Energies [eV] at current iteration:
 Root      1 :     2.349774306172172
 Root      2 :     2.529367141209553
 Root      3 :     2.601231679487526
 Root      4 :     2.615295142150420
 Root      5 :     2.645226826651706
 Root      6 :     2.736275488363735
 Root      7 :     3.134732953869451
 Root      8 :     3.321699955061277
 Root      9 :     3.618543520145976
 Root     10 :     3.665458061977074
 Root     11 :     3.740067551872211
 Root     12 :     3.764710965495885
 Root     13 :     4.252524332290899
 Root     14 :     4.266092553968066
 Root     15 :     4.341690036768527
 Root     16 :     4.454971615223442
 Root     17 :     4.570807120334896
 Root     18 :     4.615796611923484
 Root     19 :     4.726735419348629
 Root     20 :     4.759914669612594
 Iteration     2 Dimension    30 NMult    20 NNew     10
 CISAX will form    10 AO SS matrices at one time.
 NMat=    10 NSing=    10 JSym2X= 0.
 New state      1 was old state      5
 Root      1 not converged, maximum delta is    0.333742259166936
 New state      2 was old state      4
 Root      2 not converged, maximum delta is    0.181001278394692
 Root      3 not converged, maximum delta is    0.278185578382749
 New state      4 was old state      1
 Root      4 not converged, maximum delta is    0.003348660925995
 New state      5 was old state      2
 Root      5 not converged, maximum delta is    0.005901675134336
 Excitation Energies [eV] at current iteration:
 Root      1 :     1.776598570398840   Change is   -0.868628256252866
 Root      2 :     2.218004492878677   Change is   -0.397290649271744
 Root      3 :     2.240191628576194   Change is   -0.361040050911332
 Root      4 :     2.348951847345558   Change is   -0.000822458826614
 Root      5 :     2.528379044157720   Change is   -0.000988097051833
 Iteration     3 Dimension    40 NMult    30 NNew     10
 CISAX will form    10 AO SS matrices at one time.
 NMat=    10 NSing=    10 JSym2X= 0.
 Root      1 not converged, maximum delta is    0.052478436143158
 Root      2 not converged, maximum delta is    0.399040408457986
 Root      3 not converged, maximum delta is    0.228822916612273
 No map to state      4
 New state      5 was old state      4
 Root      5 has converged.
 Excitation Energies [eV] at current iteration:
 Root      1 :     1.672002864830908   Change is   -0.104595705567932
 Root      2 :     1.948661575813853   Change is   -0.269342917064824
 Root      3 :     2.198445945095519   Change is   -0.041745683480675
 Root      4 :     2.225651325595135
 Root      5 :     2.348946367736561   Change is   -0.000005479608997
 Iteration     4 Dimension    48 NMult    40 NNew      8
 CISAX will form     8 AO SS matrices at one time.
 NMat=     8 NSing=     8 JSym2X= 0.
 Root      1 not converged, maximum delta is    0.010282130119961
 Root      2 not converged, maximum delta is    0.153333284922147
 New state      3 was old state      4
 Root      3 not converged, maximum delta is    0.392958482941587
 New state      4 was old state      3
 Root      4 not converged, maximum delta is    0.383705085500073
 Root      5 has converged.
 Excitation Energies [eV] at current iteration:
 Root      1 :     1.655453163515529   Change is   -0.016549701315379
 Root      2 :     1.713760002633035   Change is   -0.234901573180818
 Root      3 :     2.185308945751887   Change is   -0.040342379843248
 Root      4 :     2.193849111034583   Change is   -0.004596834060935
 Root      5 :     2.348945929908892   Change is   -0.000000437827669
 Iteration     5 Dimension    56 NMult    48 NNew      8
 CISAX will form     8 AO SS matrices at one time.
 NMat=     8 NSing=     8 JSym2X= 0.
 Root      1 not converged, maximum delta is    0.002299458916686
 Root      2 not converged, maximum delta is    0.012204134612140
 Root      3 not converged, maximum delta is    0.026145635134527
 Root      4 not converged, maximum delta is    0.026198450494894
 Root      5 has converged.
 Excitation Energies [eV] at current iteration:
 Root      1 :     1.653747229316601   Change is   -0.001705934198928
 Root      2 :     1.698997194847814   Change is   -0.014762807785221
 Root      3 :     2.183840469926860   Change is   -0.001468475825027
 Root      4 :     2.192743333096073   Change is   -0.001105777938510
 Root      5 :     2.348945900057708   Change is   -0.000000029851185
 Iteration     6 Dimension    64 NMult    56 NNew      8
 CISAX will form     8 AO SS matrices at one time.
 NMat=     8 NSing=     8 JSym2X= 0.
 Root      1 has converged.
 Root      2 not converged, maximum delta is    0.005760267137155
 Root      3 not converged, maximum delta is    0.004787187295956
 Root      4 not converged, maximum delta is    0.004860979816357
 Root      5 has converged.
 Excitation Energies [eV] at current iteration:
 Root      1 :     1.653504568078044   Change is   -0.000242661238557
 Root      2 :     1.696028038508122   Change is   -0.002969156339692
 Root      3 :     2.183567281519111   Change is   -0.000273188407749
 Root      4 :     2.192577531488717   Change is   -0.000165801607356
 Root      5 :     2.348945886418785   Change is   -0.000000013638922
 Iteration     7 Dimension    70 NMult    64 NNew      6
 CISAX will form     6 AO SS matrices at one time.
 NMat=     6 NSing=     6 JSym2X= 0.
 Root      1 has converged.
 Root      2 has converged.
 Root      3 has converged.
 Root      4 has converged.
 Root      5 has converged.
 Excitation Energies [eV] at current iteration:
 Root      1 :     1.653503866324511   Change is   -0.000000701753534
[...]
 Alpha virt. eigenvalues --    1.85829   1.86048   1.86295   1.86457   1.86566
 Alpha virt. eigenvalues --    1.86768   1.86785   1.86974   1.87069   1.87175
 Alpha virt. eigenvalues --    1.87420   1.87613   1.87669   1.87825   1.87880
 Alpha virt. eigenvalues --    1.87999   1.88168   1.88310   1.88475   1.88691
 Alpha virt. eigenvalues --    1.88784   1.89029   1.89120   1.89199   1.89540
 Alpha virt. eigenvalues --    1.89662   1.89793   1.90023   1.90089   1.90326
 Alpha virt. eigenvalues --    1.90728   1.91023   1.91325   1.91424   1.91539
 Alpha virt. eigenvalues --    1.91679   1.92116   1.92307   1.92616   1.92757
 Alpha virt. eigenvalues --    1.92934   1.93272   1.93328   1.93672   1.94265
 Alpha virt. eigenvalues --    1.94439   1.94627   1.94968   1.95459   1.95704
 Alpha virt. eigenvalues --    1.95732   1.95917   1.95977   1.96116   1.96184
 Alpha virt. eigenvalues --    1.96288   1.96562   1.96627   1.96849   1.97063
 Alpha virt. eigenvalues --    1.97423   1.97653   1.97812   1.97927   1.98135
 Alpha virt. eigenvalues --    1.98287   1.98455   1.98710   1.99123   1.99214
 Alpha virt. eigenvalues --    1.99792   2.00038   2.00612   2.00869   2.00983
 Alpha virt. eigenvalues --    2.01222   2.01465   2.01616   2.01657   2.01706
 Alpha virt. eigenvalues --    2.01761   2.01933   2.02749   2.02846   2.03190
 Alpha virt. eigenvalues --    2.03335   2.03435   2.03460   2.03517   2.03661
 Alpha virt. eigenvalues --    2.04016   2.04191   2.04889   2.05130   2.05463
 Alpha virt. eigenvalues --    2.05776   2.06014   2.06432   2.06901   2.07139
 Alpha virt. eigenvalues --    2.07160   2.07525   2.08488   2.08697   2.08925
 Alpha virt. eigenvalues --    2.09136   2.09551   2.09748   2.10751   2.11136
 Alpha virt. eigenvalues --    2.11188   2.11520   2.11555   2.11622   2.11661
 Alpha virt. eigenvalues --    2.11993   2.12434   2.12573   2.12737   2.12793
 Alpha virt. eigenvalues --    2.12965   2.13018   2.13710   2.13751   2.14099
 Alpha virt. eigenvalues --    2.14458   2.15290   2.15546   2.15897   2.16217
 Alpha virt. eigenvalues --    2.16475   2.16694   2.16747   2.17354   2.17404
 Alpha virt. eigenvalues --    2.17660   2.17818   2.18031   2.18056   2.18219
 Alpha virt. eigenvalues --    2.18307   2.18781   2.18858   2.19334   2.19606
 Alpha virt. eigenvalues --    2.19946   2.19995   2.20181   2.20405   2.20555
 Alpha virt. eigenvalues --    2.21143   2.21329   2.21616   2.21719   2.21925
 Alpha virt. eigenvalues --    2.22018   2.22640   2.22831   2.23290   2.23567
 Alpha virt. eigenvalues --    2.24330   2.24583   2.24921   2.25202   2.26271
 Alpha virt. eigenvalues --    2.26563   2.26749   2.27074   2.27132   2.27340
 Alpha virt. eigenvalues --    2.28099   2.28408   2.29214   2.29569   2.29690
 Alpha virt. eigenvalues --    2.30013   2.30428   2.30706   2.30880   2.31053
 Alpha virt. eigenvalues --    2.31210   2.31373   2.32069   2.32386   2.33090
 Alpha virt. eigenvalues --    2.33346   2.33430   2.33608   2.34124   2.34272
 Alpha virt. eigenvalues --    2.35382   2.35399   2.35742   2.36021   2.36317
 Alpha virt. eigenvalues --    2.36480   2.36554   2.36599   2.37644   2.37845
 Alpha virt. eigenvalues --    2.38169   2.38525   2.38824   2.38853   2.39552
 Alpha virt. eigenvalues --    2.39802   2.40193   2.40402   2.40448   2.40909
 Alpha virt. eigenvalues --    2.41271   2.41296   2.41695   2.41841   2.42026
 Alpha virt. eigenvalues --    2.42257   2.42922   2.42958   2.43091   2.43612
 Alpha virt. eigenvalues --    2.44082   2.44158   2.44675   2.44865   2.44936
 Alpha virt. eigenvalues --    2.45120   2.45496   2.45733   2.46195   2.46413
 Alpha virt. eigenvalues --    2.46425   2.46671   2.46747   2.46944   2.47232
 Alpha virt. eigenvalues --    2.47542   2.47675   2.48025   2.49240   2.49527
 Alpha virt. eigenvalues --    2.50021   2.50034   2.50507   2.50583   2.51089
 Alpha virt. eigenvalues --    2.51379   2.51737   2.51840   2.52421   2.52454
 Alpha virt. eigenvalues --    2.52767   2.53262   2.53859   2.54036   2.54093
 Alpha virt. eigenvalues --    2.54416   2.54748   2.54970   2.55443   2.55806
 Alpha virt. eigenvalues --    2.57784   2.58214   2.58595   2.59036   2.60176
 Alpha virt. eigenvalues --    2.60394   2.60576   2.61003   2.61638   2.61943
 Alpha virt. eigenvalues --    2.62488   2.62551   2.62911   2.63264   2.63877
 Alpha virt. eigenvalues --    2.64211   2.64313   2.64585   2.65039   2.65227
 Alpha virt. eigenvalues --    2.65742   2.65935   2.66734   2.66852   2.66945
 Alpha virt. eigenvalues --    2.67160   2.67860   2.68098   2.68800   2.68927
 Alpha virt. eigenvalues --    2.69000   2.69117   2.69352   2.69699   2.69960
 Alpha virt. eigenvalues --    2.70280   2.70953   2.71146   2.71985   2.72025
 Alpha virt. eigenvalues --    2.72587   2.72612   2.72821   2.72886   2.73238
 Alpha virt. eigenvalues --    2.73418   2.73528   2.73566   2.74470   2.74641
 Alpha virt. eigenvalues --    2.74932   2.75186   2.76556   2.76648   2.77185
 Alpha virt. eigenvalues --    2.77206   2.77379   2.77711   2.78082   2.78412
 Alpha virt. eigenvalues --    2.78701   2.78808   2.79084   2.79242   2.80257
 Alpha virt. eigenvalues --    2.80374   2.80571   2.80767   2.81061   2.81288
 Alpha virt. eigenvalues --    2.81879   2.82091   2.82289   2.82462   2.83650
 Alpha virt. eigenvalues --    2.83731   2.83979   2.84011   2.84482   2.84683
 Alpha virt. eigenvalues --    2.84834   2.85018   2.85581   2.85799   2.86749
 Alpha virt. eigenvalues --    2.86970   2.87231   2.87646   2.88047   2.88355
 Alpha virt. eigenvalues --    2.88468   2.88763   2.88882   2.89021   2.90471
 Alpha virt. eigenvalues --    2.90735   2.91134   2.91199   2.93109   2.93411
 Alpha virt. eigenvalues --    2.93877   2.94149   2.94481   2.94695   2.95350
 Alpha virt. eigenvalues --    2.95499   2.95857   2.96242   2.96437   2.96474
 Alpha virt. eigenvalues --    2.96910   2.97207   2.97809   2.98122   2.98137
 Alpha virt. eigenvalues --    2.98324   2.98398   2.98551   2.98664   2.98811
 Alpha virt. eigenvalues --    2.98957   2.99145   2.99543   2.99906   3.00002
 Alpha virt. eigenvalues --    3.00073   3.00216   3.00428   3.00450   3.01053
 Alpha virt. eigenvalues --    3.01945   3.01963   3.01991   3.02161   3.02744
 Alpha virt. eigenvalues --    3.02874   3.02975   3.03249   3.03389   3.03758
 Alpha virt. eigenvalues --    3.04105   3.04206   3.04401   3.04515   3.04546
 Alpha virt. eigenvalues --    3.04953   3.05234   3.05500   3.06073   3.06279
 Alpha virt. eigenvalues --    3.06787   3.07029   3.08021   3.08054   3.09356
 Alpha virt. eigenvalues --    3.09468   3.09662   3.10404   3.10438   3.10812
 Alpha virt. eigenvalues --    3.11287   3.11565   3.11925   3.12011   3.12199
 Alpha virt. eigenvalues --    3.12344   3.13242   3.13575   3.13721   3.13828
 Alpha virt. eigenvalues --    3.14127   3.14512   3.15903   3.16101   3.17207
 Alpha virt. eigenvalues --    3.17665   3.17977   3.17999   3.19044   3.19165
 Alpha virt. eigenvalues --    3.22332   3.22658   3.23886   3.24568   3.24643
 Alpha virt. eigenvalues --    3.25311   3.26445   3.26793   3.27516   3.27570
 Alpha virt. eigenvalues --    3.29136   3.29272   3.31468   3.31503   3.33314
 Alpha virt. eigenvalues --    3.33355   3.40277   3.40699   3.42715   3.42935
 Alpha virt. eigenvalues --    3.48610   3.48831   3.49963   3.50407   3.50954
 Alpha virt. eigenvalues --    3.51410   3.56481   3.57136   3.59042   3.59473
 Alpha virt. eigenvalues --    3.62646   3.62785   3.66068   3.66230   3.67231
 Alpha virt. eigenvalues --    3.67580   3.73290   3.74093   3.76056   3.76770
          Condensed to atoms (all electrons):
 Mulliken charges:
               1
     1  Mg   0.838754
     2  C   -0.002705
     3  C   -0.094719
     4  C   -0.045734
     5  C   -0.064180
     6  N   -0.256795
     7  C   -0.052252
     8  C   -0.013877
     9  C   -0.086868
    10  C    0.046190
    11  C    0.104810
    12  C    0.053620
    13  C   -0.072830
    14  H    0.039103
    15  N   -0.433042
    16  C    0.168058
    17  C   -0.177981
    18  C   -0.004640
    19  C    0.148709
    20  C    0.110322
    21  C    0.011451
    22  O   -0.249416
    23  C    0.063113
    24  N   -0.341266
    25  C    0.041353
    26  C   -0.028273
    27  C   -0.024063
    28  C    0.075340
    29  C    0.076097
    30  C    0.034901
    31  C   -0.005561
    32  N   -0.310577
    33  C    0.080807
    34  C   -0.170026
    35  C    0.008509
    36  C    0.083219
    37  C    0.127351
    38  C    0.046099
    39  O   -0.187817
    40  C   -0.005219
    41  C    0.212835
    42  O   -0.256780
    43  O   -0.305115
    44  C    0.157022
    45  H   -0.017705
    46  H   -0.016821
    47  H   -0.041435
    48  H    0.001421
    49  H   -0.004291
    50  H    0.025690
    51  H    0.016320
    52  H    0.016755
    53  H    0.009678
    54  H    0.044944
    55  H    0.017984
    56  H    0.017098
    57  H    0.006035
    58  H    0.027025
    59  H    0.037289
    60  H    0.037961
    61  H    0.034995
    62  H    0.028944
    63  H    0.016973
    64  H    0.009607
    65  H    0.023410
    66  H    0.012419
    67  H    0.004896
    68  H    0.007038
    69  H    0.004215
    70  H    0.010278
    71  H    0.018975
    72  H    0.028625
    73  H    0.047317
    74  H    0.009005
    75  H    0.046451
    76  H    0.035358
    77  H    0.043246
    78  H    0.046757
    79  H    0.055589
    80  Mg   0.838031
    81  C   -0.016560
    82  C   -0.088006
    83  C   -0.045211
    84  C   -0.062529
    85  N   -0.254427
    86  C   -0.049642
    87  C   -0.014994
    88  C   -0.090649
    89  C    0.045624
    90  C    0.114737
    91  C    0.062718
    92  C   -0.077379
    93  H    0.034478
    94  N   -0.423436
    95  C    0.162489
    96  C   -0.174479
    97  C   -0.007908
    98  C    0.151773
    99  C    0.099301
   100  C    0.015530
   101  O   -0.253890
   102  C    0.061185
   103  N   -0.349769
   104  C    0.037078
   105  C   -0.019894
   106  C   -0.035284
   107  C    0.088934
   108  C    0.072859
   109  C    0.034716
   110  C   -0.007564
   111  N   -0.324683
   112  C    0.078795
   113  C   -0.159899
   114  C    0.003352
   115  C    0.096543
   116  C    0.130052
   117  C    0.043971
   118  O   -0.188313
   119  C    0.000383
   120  C    0.210905
   121  O   -0.251154
   122  O   -0.305926
   123  C    0.152205
   124  H   -0.021056
   125  H   -0.016142
   126  H   -0.039165
   127  H   -0.001642
   128  H   -0.005432
   129  H    0.022876
   130  H    0.015493
   131  H    0.012725
   132  H    0.014020
   133  H    0.037822
   134  H    0.019684
   135  H    0.019105
   136  H    0.007571
   137  H    0.026953
   138  H    0.038969
   139  H    0.038768
   140  H    0.035795
   141  H    0.033409
   142  H    0.013910
   143  H    0.013929
   144  H    0.023774
   145  H    0.012748
   146  H    0.005579
   147  H    0.005638
   148  H    0.004279
   149  H    0.010504
   150  H    0.017655
   151  H    0.030166
   152  H    0.044600
   153  H    0.008098
   154  H    0.054212
   155  H    0.035427
   156  H    0.043198
   157  H    0.048919
   158  H    0.053578
 Sum of Mulliken charges =  -0.00000
 Mulliken charges with hydrogens summed into heavy atoms:
               1
     1  Mg   0.838754
     2  C   -0.002705
     3  C   -0.112424
     4  C   -0.062555
     5  C   -0.105615
     6  N   -0.256795
     7  C   -0.052252
     8  C   -0.012456
     9  C   -0.091159
    10  C    0.046190
    11  C    0.163575
    12  C    0.108242
    13  C    0.001355
    15  N   -0.433042
    16  C    0.168058
    17  C   -0.177981
    18  C   -0.004640
    19  C    0.148709
    20  C    0.180670
    21  C    0.011451
    22  O   -0.249416
    23  C    0.165013
    24  N   -0.341266
    25  C    0.041353
    26  C   -0.011300
    27  C   -0.014456
    28  C    0.075340
    29  C    0.116822
    30  C    0.046153
    31  C    0.052316
    32  N   -0.310577
    33  C    0.080807
    34  C   -0.170026
    35  C    0.008509
    36  C    0.083219
    37  C    0.230124
    38  C    0.046099
    39  O   -0.187817
    40  C    0.030139
    41  C    0.212835
    42  O   -0.256780
    43  O   -0.305115
    44  C    0.302614
    80  Mg   0.838031
    81  C   -0.016560
    82  C   -0.109062
    83  C   -0.061354
    84  C   -0.101694
    85  N   -0.254427
    86  C   -0.049642
    87  C   -0.016636
    88  C   -0.096081
    89  C    0.045624
    90  C    0.165831
    91  C    0.114559
    92  C   -0.004111
    94  N   -0.423436
    95  C    0.162489
    96  C   -0.174479
    97  C   -0.007908
    98  C    0.151773
    99  C    0.172795
   100  C    0.015530
   101  O   -0.253890
   102  C    0.169157
   103  N   -0.349769
   104  C    0.037078
   105  C   -0.005984
   106  C   -0.021354
   107  C    0.088934
   108  C    0.114960
   109  C    0.044633
   110  C    0.050762
   111  N   -0.324683
   112  C    0.078795
   113  C   -0.159899
   114  C    0.003352
   115  C    0.096543
   116  C    0.236962
   117  C    0.043971
   118  O   -0.188313
   119  C    0.035810
   120  C    0.210905
   121  O   -0.251154
   122  O   -0.305926
   123  C    0.297900
 Electronic spatial extent (au):  <R**2>=          97495.5302
 Charge=             -0.0000 electrons
 Dipole moment (field-independent basis, Debye):
    X=              3.5284    Y=             -1.8469    Z=              7.0273  Tot=              8.0773
 Quadrupole moment (field-independent basis, Debye-Ang):
   XX=           -519.1029   YY=           -536.6099   ZZ=           -462.6736
   XY=             14.9011   XZ=             -0.8364   YZ=             34.6730
 Traceless Quadrupole moment (field-independent basis, Debye-Ang):
   XX=            -12.9741   YY=            -30.4811   ZZ=             43.4552
   XY=             14.9011   XZ=             -0.8364   YZ=             34.6730
 Octapole moment (field-independent basis, Debye-Ang**2):
  XXX=            222.0777  YYY=            264.7365  ZZZ=            130.8387  XYY=            128.4059
  XXY=            -67.0418  XXZ=            165.2369  XZZ=           -142.9970  YZZ=            -61.2873
  YYZ=            133.1786  XYZ=            164.4596
 Hexadecapole moment (field-independent basis, Debye-Ang**3):
 XXXX=         -66677.3122 YYYY=         -39987.9730 ZZZZ=         -26222.8956 XXXY=            493.8625
 XXXZ=           -356.3188 YYYX=            226.2288 YYYZ=            393.4396 ZZZX=            874.9753
 ZZZY=            416.2340 XXYY=         -17974.1401 XXZZ=         -14573.2776 YYZZ=         -11150.4650
 XXYZ=            920.7766 YYXZ=          -1273.0354 ZZXY=           -506.6688
 N-N= 1.549222524688D+04 E-N=-4.046559973974D+04  KE= 4.028800424809D+03
 Leave Link  601 at Thu Aug 19 21:28:48 2021, MaxMem= 23488102400 cpu:              19.2 elap:               0.9
 (Enter /sw/apps/gaussian-16.0/g16/l9999.exe)
 1\1\GINC-BP1-COMPUTE00116\SP\RCAM-B3LYP TD-FC\def2SVP\C68H72Mg2N8O8\OF
 15641\19-Aug-2021\0\\#p cam-b3lyp/Def2SVP td=(nstates=5)\\TDDFT excite
 d states in gaussian\\0,1\Mg,0,0.,0.,0.\C,0,-0.217,-2.218,2.801\C,0,-1
 .255,2.442,2.026\C,0,-0.245,1.85,-2.564\C,0,0.146,-2.824,-2.037\N,0,-0
 .617,-0.009,2.126\C,0,-0.594,-0.908,3.105\C,0,-0.936,-0.309,4.502\C,0,
 -1.773,0.964,4.032\C,0,-1.155,1.168,2.66\C,0,-3.263,0.685,3.863\C,0,0.
 345,0.11,5.299\C,0,0.124,0.397,6.787\H,0,1.168,0.033,7.733\N,0,-0.185,
 1.961,-0.152\C,0,-0.703,2.8,0.777\C,0,-0.62,4.156,0.193\C,0,-0.187,4.0
 15,-1.225\C,0,-0.214,2.583,-1.38\C,0,-0.887,5.406,0.974\C,0,0.181,5.01
 3,-2.277\O,0,0.303,4.69,-3.508\C,0,0.31,6.414,-1.837\N,0,-0.265,-0.413
 ,-2.029\C,0,-0.279,0.569,-2.937\C,0,-0.196,0.024,-4.332\C,0,0.124,-1.5
 33,-4.18\C,0,0.086,-1.632,-2.635\C,0,-1.451,0.205,-5.197\C,0,1.373,-2.
 07,-4.923\C,0,2.626,-1.49,-4.306\N,0,0.15,-2.144,0.303\C,0,0.173,-3.13
 6,-0.688\C,0,0.173,-4.438,0.004\C,0,0.133,-4.111,1.358\C,0,0.083,-2.69
 5,1.502\C,0,0.149,-5.715,-0.623\C,0,0.096,-4.629,2.716\O,0,0.208,-5.74
 7,3.221\C,0,-0.255,-3.428,3.701\C,0,0.717,-3.482,4.848\O,0,1.931,-3.25
 5,4.669\O,0,0.038,-3.556,6.003\C,0,0.943,-3.583,7.183\H,0,-1.859,3.22,
 2.497\H,0,-0.218,2.453,-3.474\H,0,0.276,-3.747,-2.605\H,0,-1.554,-0.94
 9,5.132\H,0,-1.585,1.831,4.665\H,0,-3.484,-0.377,3.969\H,0,-3.511,1.02
 7,2.858\H,0,-3.852,1.301,4.543\H,0,0.669,1.096,4.966\H,0,1.13,-0.639,5
 .189\H,0,-0.844,0.026,7.125\H,0,0.062,1.477,6.921\H,0,-1.344,5.186,1.9
 38\H,0,-1.651,5.963,0.432\H,0,0.007,6.02,1.084\H,0,-0.635,6.744,-1.405
 \H,0,0.665,6.97,-2.704\H,0,1.048,6.466,-1.036\H,0,0.608,0.501,-4.891\H
 ,0,-0.692,-2.156,-4.547\H,0,-1.267,0.74,-6.129\H,0,-2.204,0.714,-4.596
 \H,0,-1.967,-0.72,-5.453\H,0,1.356,-1.759,-5.967\H,0,1.452,-3.157,-4.9
 02\H,0,2.714,-0.522,-4.798\H,0,3.487,-2.121,-4.529\H,0,2.495,-1.303,-3
 .24\H,0,0.867,-6.333,-0.084\H,0,0.404,-5.642,-1.68\H,0,-0.891,-5.999,-
 0.463\H,0,-1.283,-3.581,4.028\H,0,0.698,-4.478,7.755\H,0,0.833,-2.619,
 7.68\H,0,2.,-3.754,6.976\Mg,0,8.94062,0.81249,0.68088\C,0,8.43521,1.13
 527,4.21916\C,0,7.79273,4.01,0.37614\C,0,8.94702,0.40931,-2.46632\C,0,
 8.94787,-2.64254,1.13745\N,0,8.23579,2.28051,2.17766\C,0,8.14648,2.313
 03,3.49876\C,0,7.80154,3.70794,4.08596\C,0,7.07758,4.33842,2.79862\C,0
 ,7.76535,3.5214,1.70679\C,0,5.58677,4.04876,2.74441\C,0,9.08244,4.5233
 3,4.4815\C,0,8.81692,5.76038,5.34229\H,0,9.79594,6.12041,6.36424\N,0,8
 .91535,2.1498,-0.78525\C,0,8.4325,3.4088,-0.73002\C,0,8.62931,3.97448,
 -2.07368\C,0,9.11693,2.89234,-2.97141\C,0,8.98939,1.7453,-2.09499\C,0,
 8.43507,5.4312,-2.37974\C,0,9.60381,2.88832,-4.38884\O,0,9.75281,1.798
 33,-5.04654\C,0,9.81173,4.20248,-5.01434\N,0,8.73519,-0.86805,-0.52575
 \C,0,8.82864,-0.77402,-1.86379\C,0,8.92512,-2.1396,-2.50117\C,0,9.1213
 ,-3.16592,-1.29048\C,0,9.01005,-2.18265,-0.10465\C,0,7.72226,-2.56805,
 -3.34137\C,0,10.35594,-4.10602,-1.35783\C,0,11.62681,-3.29999,-1.21426
 \N,0,8.91781,-0.5331,2.37112\C,0,8.89877,-1.94469,2.33744\C,0,8.77016,
 -2.41179,3.73304\C,0,8.69958,-1.22989,4.48579\C,0,8.75829,-0.10558,3.6
 1862\C,0,8.68429,-3.76968,4.15123\C,0,8.57805,-0.67777,5.81586\O,0,8.5
 7598,-1.14563,6.95377\C,0,8.27417,0.87742,5.69163\C,0,9.19109,1.60666,
 6.63502\O,0,10.42108,1.60124,6.45148\O,0,8.45452,2.36537,7.467\C,0,9.3
 1998,3.11671,8.41478\H,0,7.23649,4.91905,0.1457\H,0,9.05793,0.21331,-3
 .53532\H,0,9.0414,-3.70506,1.3719\H,0,7.11756,3.69069,4.92599\H,0,7.31
 305,5.39398,2.69045\H,0,5.28079,3.36445,3.52174\H,0,5.40613,3.61784,1.
 76834\H,0,5.01989,4.9838,2.77065\H,0,9.49254,5.0036,3.58378\H,0,9.8007
 9,3.89223,4.96763\H,0,7.80423,5.75983,5.76349\H,0,8.83875,6.64266,4.69
 799\H,0,7.91562,5.94798,-1.56335\H,0,7.74021,5.49059,-3.22444\H,0,9.36
 641,5.93215,-2.65236\H,0,8.87924,4.76165,-4.99832\H,0,10.24507,3.99432
 ,-5.99452\H,0,10.52856,4.76855,-4.40908\H,0,9.78533,-2.20061,-3.15647\
 H,0,8.2728,-3.86042,-1.2035\H,0,7.98787,-2.8267,-4.38379\H,0,6.99098,-
 1.77094,-3.3219\H,0,7.15741,-3.40952,-2.94377\H,0,10.407,-4.59477,-2.3
 3388\H,0,10.34474,-4.88824,-0.60617\H,0,11.80349,-2.93473,-2.23036\H,0
 ,12.44481,-3.93184,-0.87415\H,0,11.46787,-2.42553,-0.57261\H,0,9.32338
 ,-3.86936,5.01849\H,0,8.98252,-4.45011,3.35634\H,0,7.61562,-3.83878,4.
 37129\H,0,7.22374,1.02715,5.94411\H,0,8.98002,2.86689,9.42459\H,0,9.24
 941,4.17704,8.10744\H,0,10.36556,2.83683,8.46834\\Version=ES64L-G16Rev
 A.03\State=1-A\HF=-4069.8117141\RMSD=7.459e-09\PG=C01 [X(C68H72Mg2N8O8
 )]\\@


 WE MIGHT AS WELL ATTEMPT TO INTRODUCE A NEW PLANET 
 INTO THE SOLAR SYSTEM, OR TO ANNIHILATE ONE ALREADYIN EXISTENCE, 
 AS TO CREATE OR DESTROY A PARTICLE OF HYDROGEN.
 ALL THE CHANGES WE CAN PRODUCE CONSIST IN SEPARATING PARTICLES
 THAT ARE IN A STATE OF ... COMBINATION, AND JOINING 
 THOSE THAT WERE PREVIOUSLY AT A DISTANCE.

                                    -- JOHN DALTON, 1810
 Job cpu time:       0 days 14 hours 33 minutes 12.9 seconds.
 Elapsed time:       0 days  0 hours 37 minutes  0.8 seconds.
 File lengths (MBytes):  RWF=  13225 Int=      0 D2E=      0 Chk=    574 Scr=      1
 Normal termination of Gaussian 16 at Thu Aug 19 21:28:49 2021.
