 Entering Gaussian System, Link 0=g16
 Initial command:
 /sw/apps/gaussian-16.0/g16/l1.exe "/tmp/Gau-146012.inp" -scrdir="/tmp/"
 Entering Link 1 = /sw/apps/gaussian-16.0/g16/l1.exe PID=    146013.
  
 Copyright (c) 1988,1990,1992,1993,1995,1998,2003,2009,2016,
            Gaussian, Inc.  All Rights Reserved.
  
 This is part of the Gaussian(R) 16 program.  It is based on
 the Gaussian(R) 09 system (copyright 2009, Gaussian, Inc.),
 the Gaussian(R) 03 system (copyright 2003, Gaussian, Inc.),
 the Gaussian(R) 98 system (copyright 1998, Gaussian, Inc.),
 the Gaussian(R) 94 system (copyright 1995, Gaussian, Inc.),
 the Gaussian 92(TM) system (copyright 1992, Gaussian, Inc.),
 the Gaussian 90(TM) system (copyright 1990, Gaussian, Inc.),
 the Gaussian 88(TM) system (copyright 1988, Gaussian, Inc.),
 the Gaussian 86(TM) system (copyright 1986, Carnegie Mellon
 University), and the Gaussian 82(TM) system (copyright 1983,
 Carnegie Mellon University). Gaussian is a federally registered
 trademark of Gaussian, Inc.
  
 This software contains proprietary and confidential information,
 including trade secrets, belonging to Gaussian, Inc.
  
 This software is provided under written license and may be
 used, copied, transmitted, or stored only in accord with that
 written license.
  
 The following legend is applicable only to US Government
 contracts under FAR:
  
                    RESTRICTED RIGHTS LEGEND
  
 Use, reproduction and disclosure by the US Government is
 subject to restrictions as set forth in subparagraphs (a)
 and (c) of the Commercial Computer Software - Restricted
 Rights clause in FAR 52.227-19.
  
 Gaussian, Inc.
 340 Quinnipiac St., Bldg. 40, Wallingford CT 06492
  
  
 ---------------------------------------------------------------
 Warning -- This program may not be used in any manner that
 competes with the business of Gaussian, Inc. or will provide
 assistance to any competitor of Gaussian, Inc.  The licensee
 of this program is prohibited from giving any competitor of
 Gaussian, Inc. access to this program.  By using this program,
 the user acknowledges that Gaussian, Inc. is engaged in the
 business of creating and licensing software in the field of
 computational chemistry and represents and warrants to the
 licensee that it is not a competitor of Gaussian, Inc. and that
 it will not use this program in any manner prohibited above.
 ---------------------------------------------------------------
  

 Cite this work as:
 Gaussian 16, Revision A.03,
 M. J. Frisch, G. W. Trucks, H. B. Schlegel, G. E. Scuseria, 
 M. A. Robb, J. R. Cheeseman, G. Scalmani, V. Barone, 
 G. A. Petersson, H. Nakatsuji, X. Li, M. Caricato, A. V. Marenich, 
 J. Bloino, B. G. Janesko, R. Gomperts, B. Mennucci, H. P. Hratchian, 
 J. V. Ortiz, A. F. Izmaylov, J. L. Sonnenberg, D. Williams-Young, 
 F. Ding, F. Lipparini, F. Egidi, J. Goings, B. Peng, A. Petrone, 
 T. Henderson, D. Ranasinghe, V. G. Zakrzewski, J. Gao, N. Rega, 
 G. Zheng, W. Liang, M. Hada, M. Ehara, K. Toyota, R. Fukuda, 
 J. Hasegawa, M. Ishida, T. Nakajima, Y. Honda, O. Kitao, H. Nakai, 
 T. Vreven, K. Throssell, J. A. Montgomery, Jr., J. E. Peralta, 
 F. Ogliaro, M. J. Bearpark, J. J. Heyd, E. N. Brothers, K. N. Kudin, 
 V. N. Staroverov, T. A. Keith, R. Kobayashi, J. Normand, 
 K. Raghavachari, A. P. Rendell, J. C. Burant, S. S. Iyengar, 
 J. Tomasi, M. Cossi, J. M. Millam, M. Klene, C. Adamo, R. Cammi, 
 J. W. Ochterski, R. L. Martin, K. Morokuma, O. Farkas, 
 J. B. Foresman, and D. J. Fox, Gaussian, Inc., Wallingford CT, 2016.
 
 ******************************************
 Gaussian 16:  ES64L-G16RevA.03 25-Dec-2016
                19-Aug-2021 
 ******************************************
 %nproc=24
 Will use up to   24 processors via shared memory.
 %mem=175gb
 -----------------------------------
 #p cam-b3lyp/Def2SVP td=(nstates=5)
 -----------------------------------
 1/38=1,172=1/1;
 2/12=2,17=6,18=5,40=1/2;
 3/5=43,7=101,11=9,25=1,30=1,74=-40/1,2,3,8;
 4//1;
 5/5=2,38=5/2;
 8/6=1,10=1,108=5/1;
 9/41=5,42=1,70=2/14;
 6/7=2,8=2,9=2,10=2/1;
 99/5=1,9=1/99;
 Leave Link    1 at Thu Aug 19 22:44:59 2021, MaxMem= 23488102400 cpu:               0.9 elap:               0.0
 (Enter /sw/apps/gaussian-16.0/g16/l101.exe)
 --------------------------------
 TDDFT excited states in gaussian
 --------------------------------
 Symbolic Z-matrix:
 Charge =  0 Multiplicity = 1
 Mg                    0.        0.        0. 
 C                    -0.217    -2.218     2.801 
 C                    -1.255     2.442     2.026 
 C                    -0.245     1.85     -2.564 
 C                     0.146    -2.824    -2.037 
 N                    -0.617    -0.009     2.126 
 C                    -0.594    -0.908     3.105 
 C                    -0.936    -0.309     4.502 
 C                    -1.773     0.964     4.032 
 C                    -1.155     1.168     2.66 
 C                    -3.263     0.685     3.863 
 C                     0.345     0.11      5.299 
 C                     0.124     0.397     6.787 
 H                     1.168     0.033     7.733 
 N                    -0.185     1.961    -0.152 
 C                    -0.703     2.8       0.777 
 C                    -0.62      4.156     0.193 
 C                    -0.187     4.015    -1.225 
 C                    -0.214     2.583    -1.38 
 C                    -0.887     5.406     0.974 
 C                     0.181     5.013    -2.277 
 O                     0.303     4.69     -3.508 
 C                     0.31      6.414    -1.837 
 N                    -0.265    -0.413    -2.029 
 C                    -0.279     0.569    -2.937 
 C                    -0.196     0.024    -4.332 
 C                     0.124    -1.533    -4.18 
 C                     0.086    -1.632    -2.635 
 C                    -1.451     0.205    -5.197 
 C                     1.373    -2.07     -4.923 
 C                     2.626    -1.49     -4.306 
 N                     0.15     -2.144     0.303 
 C                     0.173    -3.136    -0.688 
 C                     0.173    -4.438     0.004 
 C                     0.133    -4.111     1.358 
 C                     0.083    -2.695     1.502 
 C                     0.149    -5.715    -0.623 
 C                     0.096    -4.629     2.716 
 O                     0.208    -5.747     3.221 
 C                    -0.255    -3.428     3.701 
 C                     0.717    -3.482     4.848 
 O                     1.931    -3.255     4.669 
 O                     0.038    -3.556     6.003 
 C                     0.943    -3.583     7.183 
 H                    -1.859     3.22      2.497 
 H                    -0.218     2.453    -3.474 
 H                     0.276    -3.747    -2.605 
 H                    -1.554    -0.949     5.132 
 H                    -1.585     1.831     4.665 
 H                    -3.484    -0.377     3.969 
 H                    -3.511     1.027     2.858 
 H                    -3.852     1.301     4.543 
 H                     0.669     1.096     4.966 
 H                     1.13     -0.639     5.189 
 H                    -0.844     0.026     7.125 
 H                     0.062     1.477     6.921 
 H                    -1.344     5.186     1.938 
 H                    -1.651     5.963     0.432 
 H                     0.007     6.02      1.084 
 H                    -0.635     6.744    -1.405 
 H                     0.665     6.97     -2.704 
 H                     1.048     6.466    -1.036 
 H                     0.608     0.501    -4.891 
 H                    -0.692    -2.156    -4.547 
 H                    -1.267     0.74     -6.129 
 H                    -2.204     0.714    -4.596 
 H                    -1.967    -0.72     -5.453 
 H                     1.356    -1.759    -5.967 
 H                     1.452    -3.157    -4.902 
 H                     2.714    -0.522    -4.798 
 H                     3.487    -2.121    -4.529 
 H                     2.495    -1.303    -3.24 
 H                     0.867    -6.333    -0.084 
 H                     0.404    -5.642    -1.68 
 H                    -0.891    -5.999    -0.463 
 H                    -1.283    -3.581     4.028 
 H                     0.698    -4.478     7.755 
 H                     0.833    -2.619     7.68 
 H                     2.       -3.754     6.976 
 Mg                    8.94158   0.79907   0.68422 
 C                     9.1513   -2.25264  -1.19252 
 C                     8.02448  -1.09137   3.37118 
 C                     8.31203   3.4925    2.23874 
 C                     8.75091   2.49271  -2.35568 
 N                     8.65995  -1.38063   0.93286 
 C                     8.82821  -2.44776   0.16652 
 C                     8.7184   -3.80221   0.91682 
 C                     7.81593  -3.31919   2.1542 
 C                     8.21212  -1.84448   2.18471 
 C                     6.3236   -3.40728   1.8812 
 C                     10.11418  -4.33435   1.39708 
 C                     10.1214  -5.7924    1.86163 
 H                     11.30427  -6.60404   1.58862 
 N                     8.74655   1.14403   2.62883 
 C                     8.3888    0.25684   3.58078 
 C                     8.37073   1.00874   4.84509 
 C                     8.58645   2.44875   4.53759 
 C                     8.53484   2.4197    3.08963 
 C                     8.2424    0.34444   6.18512 
 C                     8.79094   3.65462   5.40376 
 O                     8.72079   4.84357   4.93016 
 C                     8.98301   3.40529   6.83988 
 N                     8.37095   2.69415   0.04751 
 C                     8.21394   3.7003    0.92554 
 C                     8.07356   5.02616   0.21645 
 C                     8.4125    4.73058  -1.31826 
 C                     8.61188   3.20087  -1.24332 
 C                     6.70091   5.69134   0.31524 
 C                     9.52953   5.59049  -1.97054 
 C                     10.86649   5.25827  -1.34799 
 N                     9.1318    0.27459  -1.40308 
 C                     8.99022   1.13374  -2.51479 
 C                     9.09307   0.29674  -3.72775 
 C                     9.26569  -1.0049   -3.23336 
 C                     9.2499   -0.98354  -1.81252 
 C                     8.97707   0.7583   -5.06925 
 C                     9.44705  -2.39355  -3.59037 
 O                     9.62426  -3.00361  -4.64401 
 C                     9.25442  -3.28017  -2.2853 
 C                     10.39199  -4.26201  -2.21872 
 O                     11.55938  -3.86653  -2.05312 
 O                     9.89351  -5.50949  -2.14335 
 C                     10.98342  -6.51828  -2.06422 
 H                     7.51138  -1.5633    4.20956 
 H                     8.19967   4.4644    2.7248 
 H                     8.79956   2.95875  -3.34214 
 H                     8.20885  -4.58534   0.36833 
 H                     8.11264  -3.81287   3.07594 
 H                     6.11667  -3.66953   0.85429 
 H                     5.92449  -2.42762   2.1093 
 H                     5.85137  -4.09684   2.58677 
 H                     10.38305  -3.83621   2.33746 
 H                     10.85772  -4.19364   0.63684 
 H                     9.21155  -6.32556   1.56019 
 H                     10.09221  -5.80876   2.95383 
 H                     7.93331  -0.70349   6.08664 
 H                     7.406     0.82687   6.70238 
 H                     9.14243   0.44868   6.79483 
 H                     8.12023   2.87242   7.23246 
 H                     9.202     4.3805    7.27907 
 H                     9.84669   2.7432    6.96758 
 H                     8.78438   5.74739   0.60072 
 H                     7.54198   4.90256  -1.96823 
 H                     6.73978   6.711     0.74286 
 H                     6.05523   5.05549   0.90628 
 H                     6.15515   5.76578  -0.6238 
 H                     9.35226   6.65135  -1.7774 
 H                     9.59792   5.466    -3.0461 
 H                     10.8749   5.86957  -0.44061 
 H                     11.67948   5.53345  -2.01684 
 H                     10.90606   4.20757  -1.03797 
 H                     9.75992   0.27087  -5.635 
 H                     9.0604    1.84165  -5.12557 
 H                     7.96831   0.41121  -5.30839 
 H                     8.28777  -3.77855  -2.36757 
 H                     10.82363  -7.22618  -2.88338 
 H                     10.94307  -6.92155  -1.0349 
 H                     11.99318  -6.18228  -2.26899 
 
 ITRead=  0  0  0  0  0  0  0  0  0  0  0  0  0  0  0  0  0  0  0  0
 ITRead=  0  0  0  0  0  0  0  0  0  0  0  0  0  0  0  0  0  0  0  0
 ITRead=  0  0  0  0  0  0  0  0  0  0  0  0  0  0  0  0  0  0  0  0
 ITRead=  0  0  0  0  0  0  0  0  0  0  0  0  0  0  0  0  0  0  0  0
 ITRead=  0  0  0  0  0  0  0  0  0  0  0  0  0  0  0  0  0  0  0  0
 ITRead=  0  0  0  0  0  0  0  0  0  0  0  0  0  0  0  0  0  0  0  0
 ITRead=  0  0  0  0  0  0  0  0  0  0  0  0  0  0  0  0  0  0  0  0
 ITRead=  0  0  0  0  0  0  0  0  0  0  0  0  0  0  0  0  0  0
 MicOpt= -1 -1 -1 -1 -1 -1 -1 -1 -1 -1 -1 -1 -1 -1 -1 -1 -1 -1 -1 -1
 MicOpt= -1 -1 -1 -1 -1 -1 -1 -1 -1 -1 -1 -1 -1 -1 -1 -1 -1 -1 -1 -1
 MicOpt= -1 -1 -1 -1 -1 -1 -1 -1 -1 -1 -1 -1 -1 -1 -1 -1 -1 -1 -1 -1
 MicOpt= -1 -1 -1 -1 -1 -1 -1 -1 -1 -1 -1 -1 -1 -1 -1 -1 -1 -1 -1 -1
 MicOpt= -1 -1 -1 -1 -1 -1 -1 -1 -1 -1 -1 -1 -1 -1 -1 -1 -1 -1 -1 -1
 MicOpt= -1 -1 -1 -1 -1 -1 -1 -1 -1 -1 -1 -1 -1 -1 -1 -1 -1 -1 -1 -1
 MicOpt= -1 -1 -1 -1 -1 -1 -1 -1 -1 -1 -1 -1 -1 -1 -1 -1 -1 -1 -1 -1
 MicOpt= -1 -1 -1 -1 -1 -1 -1 -1 -1 -1 -1 -1 -1 -1 -1 -1 -1 -1
 NAtoms=    158 NQM=      158 NQMF=       0 NMMI=      0 NMMIF=      0
                NMic=       0 NMicF=      0.
                    Isotopes and Nuclear Properties:
 (Nuclear quadrupole moments (NQMom) in fm**2, nuclear magnetic moments (NMagM)
  in nuclear magnetons)

  Atom         1           2           3           4           5           6           7           8           9          10
 IAtWgt=          24          12          12          12          12          14          12          12          12          12
 AtmWgt=  23.9850450  12.0000000  12.0000000  12.0000000  12.0000000  14.0030740  12.0000000  12.0000000  12.0000000  12.0000000
 NucSpn=           0           0           0           0           0           2           0           0           0           0
 AtZEff=  -0.0000000  -0.0000000  -0.0000000  -0.0000000  -0.0000000  -0.0000000  -0.0000000  -0.0000000  -0.0000000  -0.0000000
 NQMom=    0.0000000   0.0000000   0.0000000   0.0000000   0.0000000   2.0440000   0.0000000   0.0000000   0.0000000   0.0000000
 NMagM=    0.0000000   0.0000000   0.0000000   0.0000000   0.0000000   0.4037610   0.0000000   0.0000000   0.0000000   0.0000000
 AtZNuc=  12.0000000   6.0000000   6.0000000   6.0000000   6.0000000   7.0000000   6.0000000   6.0000000   6.0000000   6.0000000

  Atom        11          12          13          14          15          16          17          18          19          20
 IAtWgt=          12          12          12           1          14          12          12          12          12          12
 AtmWgt=  12.0000000  12.0000000  12.0000000   1.0078250  14.0030740  12.0000000  12.0000000  12.0000000  12.0000000  12.0000000
 NucSpn=           0           0           0           1           2           0           0           0           0           0
 AtZEff=  -0.0000000  -0.0000000  -0.0000000  -0.0000000  -0.0000000  -0.0000000  -0.0000000  -0.0000000  -0.0000000  -0.0000000
 NQMom=    0.0000000   0.0000000   0.0000000   0.0000000   2.0440000   0.0000000   0.0000000   0.0000000   0.0000000   0.0000000
 NMagM=    0.0000000   0.0000000   0.0000000   2.7928460   0.4037610   0.0000000   0.0000000   0.0000000   0.0000000   0.0000000
 AtZNuc=   6.0000000   6.0000000   6.0000000   1.0000000   7.0000000   6.0000000   6.0000000   6.0000000   6.0000000   6.0000000

  Atom        21          22          23          24          25          26          27          28          29          30
 IAtWgt=          12          16          12          14          12          12          12          12          12          12
 AtmWgt=  12.0000000  15.9949146  12.0000000  14.0030740  12.0000000  12.0000000  12.0000000  12.0000000  12.0000000  12.0000000
 NucSpn=           0           0           0           2           0           0           0           0           0           0
 AtZEff=  -0.0000000  -0.0000000  -0.0000000  -0.0000000  -0.0000000  -0.0000000  -0.0000000  -0.0000000  -0.0000000  -0.0000000
 NQMom=    0.0000000   0.0000000   0.0000000   2.0440000   0.0000000   0.0000000   0.0000000   0.0000000   0.0000000   0.0000000
 NMagM=    0.0000000   0.0000000   0.0000000   0.4037610   0.0000000   0.0000000   0.0000000   0.0000000   0.0000000   0.0000000
 AtZNuc=   6.0000000   8.0000000   6.0000000   7.0000000   6.0000000   6.0000000   6.0000000   6.0000000   6.0000000   6.0000000

  Atom        31          32          33          34          35          36          37          38          39          40
 IAtWgt=          12          14          12          12          12          12          12          12          16          12
 AtmWgt=  12.0000000  14.0030740  12.0000000  12.0000000  12.0000000  12.0000000  12.0000000  12.0000000  15.9949146  12.0000000
 NucSpn=           0           2           0           0           0           0           0           0           0           0
 AtZEff=  -0.0000000  -0.0000000  -0.0000000  -0.0000000  -0.0000000  -0.0000000  -0.0000000  -0.0000000  -0.0000000  -0.0000000
 NQMom=    0.0000000   2.0440000   0.0000000   0.0000000   0.0000000   0.0000000   0.0000000   0.0000000   0.0000000   0.0000000
 NMagM=    0.0000000   0.4037610   0.0000000   0.0000000   0.0000000   0.0000000   0.0000000   0.0000000   0.0000000   0.0000000
 AtZNuc=   6.0000000   7.0000000   6.0000000   6.0000000   6.0000000   6.0000000   6.0000000   6.0000000   8.0000000   6.0000000

  Atom        41          42          43          44          45          46          47          48          49          50
 IAtWgt=          12          16          16          12           1           1           1           1           1           1
 AtmWgt=  12.0000000  15.9949146  15.9949146  12.0000000   1.0078250   1.0078250   1.0078250   1.0078250   1.0078250   1.0078250
 NucSpn=           0           0           0           0           1           1           1           1           1           1
 AtZEff=  -0.0000000  -0.0000000  -0.0000000  -0.0000000  -0.0000000  -0.0000000  -0.0000000  -0.0000000  -0.0000000  -0.0000000
 NQMom=    0.0000000   0.0000000   0.0000000   0.0000000   0.0000000   0.0000000   0.0000000   0.0000000   0.0000000   0.0000000
 NMagM=    0.0000000   0.0000000   0.0000000   0.0000000   2.7928460   2.7928460   2.7928460   2.7928460   2.7928460   2.7928460
 AtZNuc=   6.0000000   8.0000000   8.0000000   6.0000000   1.0000000   1.0000000   1.0000000   1.0000000   1.0000000   1.0000000

  Atom        51          52          53          54          55          56          57          58          59          60
 IAtWgt=           1           1           1           1           1           1           1           1           1           1
 AtmWgt=   1.0078250   1.0078250   1.0078250   1.0078250   1.0078250   1.0078250   1.0078250   1.0078250   1.0078250   1.0078250
 NucSpn=           1           1           1           1           1           1           1           1           1           1
 AtZEff=  -0.0000000  -0.0000000  -0.0000000  -0.0000000  -0.0000000  -0.0000000  -0.0000000  -0.0000000  -0.0000000  -0.0000000
 NQMom=    0.0000000   0.0000000   0.0000000   0.0000000   0.0000000   0.0000000   0.0000000   0.0000000   0.0000000   0.0000000
 NMagM=    2.7928460   2.7928460   2.7928460   2.7928460   2.7928460   2.7928460   2.7928460   2.7928460   2.7928460   2.7928460
 AtZNuc=   1.0000000   1.0000000   1.0000000   1.0000000   1.0000000   1.0000000   1.0000000   1.0000000   1.0000000   1.0000000

  Atom        61          62          63          64          65          66          67          68          69          70
 IAtWgt=           1           1           1           1           1           1           1           1           1           1
 AtmWgt=   1.0078250   1.0078250   1.0078250   1.0078250   1.0078250   1.0078250   1.0078250   1.0078250   1.0078250   1.0078250
 NucSpn=           1           1           1           1           1           1           1           1           1           1
 AtZEff=  -0.0000000  -0.0000000  -0.0000000  -0.0000000  -0.0000000  -0.0000000  -0.0000000  -0.0000000  -0.0000000  -0.0000000
 NQMom=    0.0000000   0.0000000   0.0000000   0.0000000   0.0000000   0.0000000   0.0000000   0.0000000   0.0000000   0.0000000
 NMagM=    2.7928460   2.7928460   2.7928460   2.7928460   2.7928460   2.7928460   2.7928460   2.7928460   2.7928460   2.7928460
 AtZNuc=   1.0000000   1.0000000   1.0000000   1.0000000   1.0000000   1.0000000   1.0000000   1.0000000   1.0000000   1.0000000

  Atom        71          72          73          74          75          76          77          78          79          80
 IAtWgt=           1           1           1           1           1           1           1           1           1          24
 AtmWgt=   1.0078250   1.0078250   1.0078250   1.0078250   1.0078250   1.0078250   1.0078250   1.0078250   1.0078250  23.9850450
 NucSpn=           1           1           1           1           1           1           1           1           1           0
 AtZEff=  -0.0000000  -0.0000000  -0.0000000  -0.0000000  -0.0000000  -0.0000000  -0.0000000  -0.0000000  -0.0000000  -0.0000000
 NQMom=    0.0000000   0.0000000   0.0000000   0.0000000   0.0000000   0.0000000   0.0000000   0.0000000   0.0000000   0.0000000
 NMagM=    2.7928460   2.7928460   2.7928460   2.7928460   2.7928460   2.7928460   2.7928460   2.7928460   2.7928460   0.0000000
 AtZNuc=   1.0000000   1.0000000   1.0000000   1.0000000   1.0000000   1.0000000   1.0000000   1.0000000   1.0000000  12.0000000

  Atom        81          82          83          84          85          86          87          88          89          90
 IAtWgt=          12          12          12          12          14          12          12          12          12          12
 AtmWgt=  12.0000000  12.0000000  12.0000000  12.0000000  14.0030740  12.0000000  12.0000000  12.0000000  12.0000000  12.0000000
 NucSpn=           0           0           0           0           2           0           0           0           0           0
 AtZEff=  -0.0000000  -0.0000000  -0.0000000  -0.0000000  -0.0000000  -0.0000000  -0.0000000  -0.0000000  -0.0000000  -0.0000000
 NQMom=    0.0000000   0.0000000   0.0000000   0.0000000   2.0440000   0.0000000   0.0000000   0.0000000   0.0000000   0.0000000
 NMagM=    0.0000000   0.0000000   0.0000000   0.0000000   0.4037610   0.0000000   0.0000000   0.0000000   0.0000000   0.0000000
 AtZNuc=   6.0000000   6.0000000   6.0000000   6.0000000   7.0000000   6.0000000   6.0000000   6.0000000   6.0000000   6.0000000

  Atom        91          92          93          94          95          96          97          98          99         100
 IAtWgt=          12          12           1          14          12          12          12          12          12          12
 AtmWgt=  12.0000000  12.0000000   1.0078250  14.0030740  12.0000000  12.0000000  12.0000000  12.0000000  12.0000000  12.0000000
 NucSpn=           0           0           1           2           0           0           0           0           0           0
 AtZEff=  -0.0000000  -0.0000000  -0.0000000  -0.0000000  -0.0000000  -0.0000000  -0.0000000  -0.0000000  -0.0000000  -0.0000000
 NQMom=    0.0000000   0.0000000   0.0000000   2.0440000   0.0000000   0.0000000   0.0000000   0.0000000   0.0000000   0.0000000
 NMagM=    0.0000000   0.0000000   2.7928460   0.4037610   0.0000000   0.0000000   0.0000000   0.0000000   0.0000000   0.0000000
 AtZNuc=   6.0000000   6.0000000   1.0000000   7.0000000   6.0000000   6.0000000   6.0000000   6.0000000   6.0000000   6.0000000

  Atom       101         102         103         104         105         106         107         108         109         110
 IAtWgt=          16          12          14          12          12          12          12          12          12          12
 AtmWgt=  15.9949146  12.0000000  14.0030740  12.0000000  12.0000000  12.0000000  12.0000000  12.0000000  12.0000000  12.0000000
 NucSpn=           0           0           2           0           0           0           0           0           0           0
 AtZEff=  -0.0000000  -0.0000000  -0.0000000  -0.0000000  -0.0000000  -0.0000000  -0.0000000  -0.0000000  -0.0000000  -0.0000000
 NQMom=    0.0000000   0.0000000   2.0440000   0.0000000   0.0000000   0.0000000   0.0000000   0.0000000   0.0000000   0.0000000
 NMagM=    0.0000000   0.0000000   0.4037610   0.0000000   0.0000000   0.0000000   0.0000000   0.0000000   0.0000000   0.0000000
 AtZNuc=   8.0000000   6.0000000   7.0000000   6.0000000   6.0000000   6.0000000   6.0000000   6.0000000   6.0000000   6.0000000

  Atom       111         112         113         114         115         116         117         118         119         120
 IAtWgt=          14          12          12          12          12          12          12          16          12          12
 AtmWgt=  14.0030740  12.0000000  12.0000000  12.0000000  12.0000000  12.0000000  12.0000000  15.9949146  12.0000000  12.0000000
 NucSpn=           2           0           0           0           0           0           0           0           0           0
 AtZEff=  -0.0000000  -0.0000000  -0.0000000  -0.0000000  -0.0000000  -0.0000000  -0.0000000  -0.0000000  -0.0000000  -0.0000000
 NQMom=    2.0440000   0.0000000   0.0000000   0.0000000   0.0000000   0.0000000   0.0000000   0.0000000   0.0000000   0.0000000
 NMagM=    0.4037610   0.0000000   0.0000000   0.0000000   0.0000000   0.0000000   0.0000000   0.0000000   0.0000000   0.0000000
 AtZNuc=   7.0000000   6.0000000   6.0000000   6.0000000   6.0000000   6.0000000   6.0000000   8.0000000   6.0000000   6.0000000

  Atom       121         122         123         124         125         126         127         128         129         130
 IAtWgt=          16          16          12           1           1           1           1           1           1           1
 AtmWgt=  15.9949146  15.9949146  12.0000000   1.0078250   1.0078250   1.0078250   1.0078250   1.0078250   1.0078250   1.0078250
 NucSpn=           0           0           0           1           1           1           1           1           1           1
 AtZEff=  -0.0000000  -0.0000000  -0.0000000  -0.0000000  -0.0000000  -0.0000000  -0.0000000  -0.0000000  -0.0000000  -0.0000000
 NQMom=    0.0000000   0.0000000   0.0000000   0.0000000   0.0000000   0.0000000   0.0000000   0.0000000   0.0000000   0.0000000
 NMagM=    0.0000000   0.0000000   0.0000000   2.7928460   2.7928460   2.7928460   2.7928460   2.7928460   2.7928460   2.7928460
 AtZNuc=   8.0000000   8.0000000   6.0000000   1.0000000   1.0000000   1.0000000   1.0000000   1.0000000   1.0000000   1.0000000

  Atom       131         132         133         134         135         136         137         138         139         140
 IAtWgt=           1           1           1           1           1           1           1           1           1           1
 AtmWgt=   1.0078250   1.0078250   1.0078250   1.0078250   1.0078250   1.0078250   1.0078250   1.0078250   1.0078250   1.0078250
 NucSpn=           1           1           1           1           1           1           1           1           1           1
 AtZEff=  -0.0000000  -0.0000000  -0.0000000  -0.0000000  -0.0000000  -0.0000000  -0.0000000  -0.0000000  -0.0000000  -0.0000000
 NQMom=    0.0000000   0.0000000   0.0000000   0.0000000   0.0000000   0.0000000   0.0000000   0.0000000   0.0000000   0.0000000
 NMagM=    2.7928460   2.7928460   2.7928460   2.7928460   2.7928460   2.7928460   2.7928460   2.7928460   2.7928460   2.7928460
 AtZNuc=   1.0000000   1.0000000   1.0000000   1.0000000   1.0000000   1.0000000   1.0000000   1.0000000   1.0000000   1.0000000

  Atom       141         142         143         144         145         146         147         148         149         150
 IAtWgt=           1           1           1           1           1           1           1           1           1           1
 AtmWgt=   1.0078250   1.0078250   1.0078250   1.0078250   1.0078250   1.0078250   1.0078250   1.0078250   1.0078250   1.0078250
 NucSpn=           1           1           1           1           1           1           1           1           1           1
 AtZEff=  -0.0000000  -0.0000000  -0.0000000  -0.0000000  -0.0000000  -0.0000000  -0.0000000  -0.0000000  -0.0000000  -0.0000000
 NQMom=    0.0000000   0.0000000   0.0000000   0.0000000   0.0000000   0.0000000   0.0000000   0.0000000   0.0000000   0.0000000
 NMagM=    2.7928460   2.7928460   2.7928460   2.7928460   2.7928460   2.7928460   2.7928460   2.7928460   2.7928460   2.7928460
 AtZNuc=   1.0000000   1.0000000   1.0000000   1.0000000   1.0000000   1.0000000   1.0000000   1.0000000   1.0000000   1.0000000

  Atom       151         152         153         154         155         156         157         158
 IAtWgt=           1           1           1           1           1           1           1           1
 AtmWgt=   1.0078250   1.0078250   1.0078250   1.0078250   1.0078250   1.0078250   1.0078250   1.0078250
 NucSpn=           1           1           1           1           1           1           1           1
 AtZEff=  -0.0000000  -0.0000000  -0.0000000  -0.0000000  -0.0000000  -0.0000000  -0.0000000  -0.0000000
 NQMom=    0.0000000   0.0000000   0.0000000   0.0000000   0.0000000   0.0000000   0.0000000   0.0000000
 NMagM=    2.7928460   2.7928460   2.7928460   2.7928460   2.7928460   2.7928460   2.7928460   2.7928460
 AtZNuc=   1.0000000   1.0000000   1.0000000   1.0000000   1.0000000   1.0000000   1.0000000   1.0000000
 Leave Link  101 at Thu Aug 19 22:44:59 2021, MaxMem= 23488102400 cpu:               3.7 elap:               0.2
 (Enter /sw/apps/gaussian-16.0/g16/l202.exe)
 Stoichiometry    C68H72Mg2N8O8
 Framework group  C1[X(C68H72Mg2N8O8)]
 Deg. of freedom   468
 Full point group                 C1      NOp   1
 Largest Abelian subgroup         C1      NOp   1
 Largest concise Abelian subgroup C1      NOp   1
                         Standard orientation:                         
 ---------------------------------------------------------------------
 Center     Atomic      Atomic             Coordinates (Angstroms)
 Number     Number       Type             X           Y           Z
 ---------------------------------------------------------------------
      1         12           0       -4.309050    0.480371   -1.024515
      2          6           0       -4.887523   -2.508353    0.858333
      3          6           0       -5.846928    2.189006    1.497104
      4          6           0       -4.217617    3.061688   -2.864368
      5          6           0       -3.865354   -1.545901   -3.825053
      6          7           0       -5.209297   -0.186486    0.884805
      7          6           0       -5.312591   -1.351868    1.515984
      8          6           0       -5.846037   -1.219744    2.973843
      9          6           0       -6.621291    0.166366    2.833566
     10          6           0       -5.824098    0.776313    1.694106
     11          6           0       -8.072247    0.010730    2.389712
     12          6           0       -4.688616   -1.125070    4.024150
     13          6           0       -5.112122   -1.321852    5.482668
     14          1           0       -4.203627   -2.007462    6.389268
     15          7           0       -4.486998    2.392141   -0.559416
     16          6           0       -5.133049    2.907752    0.513921
     17          6           0       -4.982024    4.375381    0.414230
     18          6           0       -4.359154    4.680220   -0.903799
     19          6           0       -4.353626    3.375267   -1.514081
     20          6           0       -5.362505    5.318298    1.514181
     21          6           0       -3.859351    5.948434   -1.520211
     22          8           0       -3.568585    6.032445   -2.762375
     23          6           0       -3.802338    7.129051   -0.639339
     24          7           0       -4.292472    0.748858   -3.094605
     25          6           0       -4.190564    1.969745   -3.631293
     26          6           0       -3.914400    1.897547   -5.103863
     27          6           0       -3.605869    0.363291   -5.421069
     28          6           0       -3.852811   -0.223820   -4.009478
     29          6           0       -5.041510    2.391680   -6.021177
     30          6           0       -2.263283    0.047331   -6.126796
     31          6           0       -1.110386    0.353079   -5.197039
     32          7           0       -4.184875   -1.651714   -1.411606
     33          6           0       -4.019585   -2.274248   -2.657321
     34          6           0       -4.103490   -3.728373   -2.428087
     35          6           0       -4.329775   -3.850978   -1.058558
     36          6           0       -4.409965   -2.554840   -0.473849
     37          6           0       -4.032026   -4.735551   -3.430543
     38          6           0       -4.547023   -4.774879    0.042836
     39          8           0       -4.495984   -5.999023    0.170738
     40          6           0       -5.038075   -3.940613    1.307231
     41          6           0       -4.230664   -4.394510    2.492716
     42          8           0       -3.005413   -4.166585    2.557339
     43          8           0       -5.059801   -4.809677    3.462618
     44          6           0       -4.323463   -5.246139    4.678949
     45          1           0       -6.515427    2.796683    2.110113
     46          1           0       -4.071855    3.922946   -3.519674
     47          1           0       -3.652116   -2.242485   -4.637921
     48          1           0       -6.538932   -2.004800    3.277170
     49          1           0       -6.527892    0.777522    3.731056
     50          1           0       -8.297293   -1.020477    2.117891
     51          1           0       -8.183964    0.665372    1.525157
     52          1           0       -8.753035    0.397573    3.148433
     53          1           0       -4.330071   -0.096868    4.072179
     54          1           0       -3.890115   -1.827506    3.782682
     55          1           0       -6.114157   -1.745985    5.552990
     56          1           0       -5.200212   -0.340141    5.948161
     57          1           0       -5.944598    4.817992    2.287101
     58          1           0       -6.050049    6.047015    1.085270
     59          1           0       -4.496594    5.831691    1.932460
     60          1           0       -4.799852    7.337565   -0.251994
     61          1           0       -3.337111    7.920082   -1.226437
     62          1           0       -3.180531    6.894837    0.225212
     63          1           0       -3.045617    2.498779   -5.368742
     64          1           0       -4.359493   -0.079164   -6.072958
     65          1           0       -4.736688    3.189886   -6.698418
     66          1           0       -5.873192    2.708516   -5.392518
     67          1           0       -5.510659    1.616852   -6.626946
     68          1           0       -2.140607    0.676691   -7.007592
     69          1           0       -2.179371   -0.991264   -6.446997
     70          1           0       -0.963882    1.423769   -5.334844
     71          1           0       -0.222152   -0.204239   -5.496453
     72          1           0       -1.386570    0.193495   -4.154570
     73          1           0       -3.389168   -5.519374   -3.030136
     74          1           0       -3.636255   -4.337249   -4.364525
     75          1           0       -5.081869   -5.017697   -3.508514
     76          1           0       -6.099761   -4.152668    1.429612
     77          1           0       -4.636953   -6.267619    4.894677
     78          1           0       -4.507555   -4.488736    5.441088
     79          1           0       -3.246829   -5.380280    4.568477
     80         12           0        4.449934    0.691504    1.047718
     81          6           0        4.936747   -1.603972   -1.667585
     82          6           0        3.190828   -1.925081    2.837332
     83          6           0        3.593817    2.766326    3.290397
     84          6           0        4.661120    3.275230   -1.281558
     85          7           0        4.154172   -1.441222    0.541522
     86          6           0        4.433408   -2.212121   -0.498717
     87          6           0        4.233200   -3.730561   -0.246134
     88          6           0        3.167117   -3.636665    0.951164
     89          6           0        3.543932   -2.264881    1.506938
     90          6           0        1.726500   -3.578189    0.471017
     91          6           0        5.554838   -4.439019    0.215804
     92          6           0        5.510232   -5.968289    0.182463
     93          1           0        6.725550   -6.692332   -0.179808
     94          7           0        3.989619    0.402414    2.956403
     95          6           0        3.512708   -0.729236    3.516066
     96          6           0        3.317020   -0.421695    4.941297
     97          6           0        3.561276    1.032070    5.145317
     98          6           0        3.707249    1.470157    3.771685
     99          6           0        3.012882   -1.475001    5.966719
    100          6           0        3.636657    1.888738    6.372765
    101          8           0        3.622254    3.168463    6.302654
    102          6           0        3.633622    1.185796    7.664028
    103          7           0        3.956369    2.710167    0.986547
    104          6           0        3.673568    3.387162    2.113324
    105          6           0        3.620538    4.874467    1.857336
    106          6           0        4.167303    5.073783    0.367737
    107          6           0        4.366601    3.594439   -0.028750
    108          6           0        2.242042    5.522582    1.984176
    109          6           0        5.355887    6.055944    0.179862
    110          6           0        6.598342    5.493315    0.831901
    111          7           0        4.926289    0.856526   -1.053220
    112          6           0        4.930464    2.031011   -1.837217
    113          6           0        5.203827    1.623374   -3.230603
    114          6           0        5.317799    0.226577   -3.163866
    115          6           0        5.108801   -0.207646   -1.826981
    116          6           0        5.267697    2.494143   -4.354790
    117          6           0        5.556873   -0.980248   -3.922229
    118          8           0        5.880465   -1.226790   -5.083366
    119          6           0        5.195526   -2.230468   -3.009657
    120          6           0        6.321124   -3.222727   -3.114340
    121          8           0        7.452027   -2.943970   -2.678472
    122          8           0        5.826799   -4.409584   -3.511053
    123          6           0        6.903686   -5.429636   -3.618907
    124          1           0        2.572208   -2.621596    3.403942
    125          1           0        3.408813    3.534797    4.044515
    126          1           0        4.839798    4.030534   -2.049838
    127          1           0        3.809101   -4.277658   -1.079560
    128          1           0        3.339598   -4.410006    1.695177
    129          1           0        1.663176   -3.490031   -0.603394
    130          1           0        1.292432   -2.709302    0.948165
    131          1           0        1.168130   -4.439679    0.848351
    132          1           0        5.689445   -4.278425    1.293227
    133          1           0        6.393717   -4.089477   -0.354036
    134          1           0        4.654016   -6.343271   -0.391328
    135          1           0        5.332938   -6.332484    1.197327
    136          1           0        2.728259   -2.424192    5.496168
    137          1           0        2.110171   -1.153458    6.497364
    138          1           0        3.820809   -1.604413    6.690025
    139          1           0        2.729671    0.587114    7.747168
    140          1           0        3.783228    1.960323    8.418749
    141          1           0        4.477071    0.486639    7.683739
    142          1           0        4.266845    5.408216    2.543266
    143          1           0        3.391923    5.476490   -0.300437
    144          1           0        2.214432    6.349463    2.718738
    145          1           0        1.526990    4.754941    2.248682
    146          1           0        1.828464    5.913682    1.056175
    147          1           0        5.145710    7.004802    0.679508
    148          1           0        5.570855    6.280048   -0.859643
    149          1           0        6.478518    5.781099    1.880671
    150          1           0        7.492546    5.938350    0.400183
    151          1           0        6.603610    4.397963    0.789186
    152          1           0        6.123989    2.185349   -4.939534
    153          1           0        5.349434    3.534673   -4.047578
    154          1           0        4.303567    2.278958   -4.823196
    155          1           0        4.252968   -2.640642   -3.374217
    156          1           0        6.862301   -5.831595   -4.635959
    157          1           0        6.726912   -6.139548   -2.789130
    158          1           0        7.929251   -5.082825   -3.570121
 ---------------------------------------------------------------------
 Rotational constants (GHZ):           0.0205792           0.0135756           0.0131692
 Leave Link  202 at Thu Aug 19 22:44:59 2021, MaxMem= 23488102400 cpu:               0.2 elap:               0.0
 (Enter /sw/apps/gaussian-16.0/g16/l301.exe)
 Standard basis: def2SVP (5D, 7F)
 Ernie: Thresh=  0.10000D-02 Tol=  0.10000D-05 Strict=F.
 There are  1658 symmetry adapted cartesian basis functions of A   symmetry.
 There are  1572 symmetry adapted basis functions of A   symmetry.
  1572 basis functions,  2678 primitive gaussians,  1658 cartesian basis functions
   312 alpha electrons      312 beta electrons
       nuclear repulsion energy     15487.3764940824 Hartrees.
 IExCor=20419 DFT=T Ex+Corr=CAM-B3LYP ExCW=0 ScaHFX=  1.000000
 ScaDFX=  1.000000  1.000000  1.000000  0.810000 ScalE2=  1.000000  1.000000
 IRadAn=      5 IRanWt=     -1 IRanGd=            0 ICorTp=0 IEmpDi=  4
 HFx  wShort=  0.000000 wLong=  0.330000 cFull=  0.190000 cShort=  0.000000 cLong=  0.460000
 DFx  wShort=  0.000000 wLong=  0.330000 cFull=  0.190000 cShort=  0.000000 cLong=  0.460000
 NAtoms=  158 NActive=  158 NUniq=  158 SFac= 1.00D+00 NAtFMM=   60 NAOKFM=T Big=T
 Integral buffers will be    131072 words long.
 Raffenetti 1 integral format.
 Two-electron integral symmetry is turned on.
 Leave Link  301 at Thu Aug 19 22:44:59 2021, MaxMem= 23488102400 cpu:               1.4 elap:               0.1
 (Enter /sw/apps/gaussian-16.0/g16/l302.exe)
 NPDir=0 NMtPBC=     1 NCelOv=     1 NCel=       1 NClECP=     1 NCelD=      1
         NCelK=      1 NCelE2=     1 NClLst=     1 CellRange=     0.0.
 One-electron integrals computed using PRISM.
 One-electron integral symmetry used in STVInt
   1 Symmetry operations used in ECPInt.
 ECPInt:  NShTT=  271216 NPrTT=  987664 LenC2=  153952 LenP2D=  320400.
 LDataN:  DoStor=T MaxTD1= 4 Len=   56
 NBasis=  1572 RedAO= T EigKep=  3.36D-04  NBF=  1572
 NBsUse=  1572 1.00D-06 EigRej= -1.00D+00 NBFU=  1572
 Precomputing XC quadrature grid using
 IXCGrd= 4 IRadAn=           5 IRanWt=          -1 IRanGd=           0 AccXCQ= 0.00D+00.
 Generated NRdTot=       0 NPtTot=           0 NUsed=           0 NTot=          32
 NSgBfM=  1251  1232  1244  1250  1251 MxSgAt=   158 MxSgA2=   158.
 Leave Link  302 at Thu Aug 19 22:45:05 2021, MaxMem= 23488102400 cpu:             129.9 elap:               5.4
 (Enter /sw/apps/gaussian-16.0/g16/l303.exe)
 DipDrv:  MaxL=1.
 Leave Link  303 at Thu Aug 19 22:45:05 2021, MaxMem= 23488102400 cpu:               9.4 elap:               0.4
 (Enter /sw/apps/gaussian-16.0/g16/l308.exe)
 Leave Link  308 at Thu Aug 19 22:45:06 2021, MaxMem= 23488102400 cpu:              15.0 elap:               0.7
 (Enter /sw/apps/gaussian-16.0/g16/l401.exe)
 ExpMin= 3.36D-02 ExpMax= 4.95D+03 ExpMxC= 7.45D+02 IAcc=3 IRadAn=         5 AccDes= 0.00D+00
 Harris functional with IExCor=20419 and IRadAn=       5 diagonalized for initial guess.
 HarFok:  IExCor=20419 AccDes= 0.00D+00 IRadAn=         5 IDoV= 1 UseB2=F ITyADJ=14
 ICtDFT=  3500011 ScaDFX=  1.000000  1.000000  1.000000  1.000000
 FoFCou: FMM=F IPFlag=           0 FMFlag=      100000 FMFlg1=        2001
         NFxFlg=           0 DoJE=T BraDBF=F KetDBF=T FulRan=T
         wScrn=  0.000000 ICntrl=       500 IOpCl=  0 I1Cent=   200000004 NGrid=           0
         NMat0=    1 NMatS0=      1 NMatT0=    0 NMatD0=    1 NMtDS0=    0 NMtDT0=    0
 Petite list used in FoFCou.
 Harris En= -3918.65805630126    
 JPrj=0 DoOrth=F DoCkMO=F.
 Leave Link  401 at Thu Aug 19 22:45:14 2021, MaxMem= 23488102400 cpu:             188.1 elap:               7.9
 (Enter /sw/apps/gaussian-16.0/g16/l502.exe)
 Integral symmetry usage will be decided dynamically.
 Closed shell SCF:
 Using DIIS extrapolation, IDIIS=  1040.
 NGot= 23488102400 LenX= 23482547354 LenY= 23479796732
 Requested convergence on RMS density matrix=1.00D-08 within 128 cycles.
 Requested convergence on MAX density matrix=1.00D-06.
 Requested convergence on             energy=1.00D-06.
 No special actions if energy rises.
 Fock matrices will be formed incrementally for  20 cycles.

 Cycle   1  Pass 1  IDiag  1:
 FoFJK:  IHMeth= 1 ICntrl=       0 DoSepK=T KAlg= 0 I1Cent=           0 FoldK=F
 IRaf=         1 NMat=       1 IRICut=       1 DoRegI=T DoRafI=F ISym2E= 0 IDoP0=0 IntGTp=1.
 FoFCou: FMM=T IPFlag=           0 FMFlag=      100000 FMFlg1=        2001
         NFxFlg=           0 DoJE=T BraDBF=F KetDBF=F FulRan=T
         wScrn=  0.000000 ICntrl=       500 IOpCl=  0 I1Cent=           0 NGrid=           0
         NMat0=    1 NMatS0=      1 NMatT0=    0 NMatD0=    1 NMtDS0=    0 NMtDT0=    0
 Symmetry not used in FoFCou.
 FMM levels:  10  Number of levels for PrismC:   9
 E= -4068.95148651957    
 DIIS: error= 2.04D-02 at cycle   1 NSaved=   1.
 NSaved= 1 IEnMin= 1 EnMin= -4068.95148651957     IErMin= 1 ErrMin= 2.04D-02
 ErrMax= 2.04D-02  0.00D+00 EMaxC= 1.00D-01 BMatC= 1.69D+00 BMatP= 1.69D+00
 IDIUse=3 WtCom= 7.96D-01 WtEn= 2.04D-01
 Coeff-Com:  0.100D+01
 Coeff-En:   0.100D+01
 Coeff:      0.100D+01
 Gap=     0.120 Goal=   None    Shift=    0.000
 GapD=    0.120 DampG=1.000 DampE=0.500 DampFc=0.5000 IDamp=-1.
 Damping current iteration by 5.00D-01
 RMSDP=1.57D-03 MaxDP=1.36D-01              OVMax= 1.97D-01

 Cycle   2  Pass 1  IDiag  1:
 RMSU=  7.69D-04    CP:  9.82D-01
 E= -4069.34031590922     Delta-E=       -0.388829389645 Rises=F Damp=T
 DIIS: error= 1.27D-02 at cycle   2 NSaved=   2.
 NSaved= 2 IEnMin= 2 EnMin= -4069.34031590922     IErMin= 2 ErrMin= 1.27D-02
 ErrMax= 1.27D-02  0.00D+00 EMaxC= 1.00D-01 BMatC= 3.06D-01 BMatP= 1.69D+00
 IDIUse=3 WtCom= 8.73D-01 WtEn= 1.27D-01
 Coeff-Com: -0.214D+00 0.121D+01
 Coeff-En:   0.000D+00 0.100D+01
 Coeff:     -0.187D+00 0.119D+01
 Gap=     0.133 Goal=   None    Shift=    0.000
 RMSDP=7.64D-04 MaxDP=9.45D-02 DE=-3.89D-01 OVMax= 1.87D-01

 Cycle   3  Pass 1  IDiag  1:
 RMSU=  7.31D-04    CP:  9.68D-01  1.24D+00
 E= -4069.63112025310     Delta-E=       -0.290804343884 Rises=F Damp=F
 DIIS: error= 1.54D-02 at cycle   3 NSaved=   3.
 NSaved= 3 IEnMin= 3 EnMin= -4069.63112025310     IErMin= 2 ErrMin= 1.27D-02
 ErrMax= 1.54D-02  0.00D+00 EMaxC= 1.00D-01 BMatC= 2.00D-01 BMatP= 3.06D-01
 IDIUse=3 WtCom= 8.46D-01 WtEn= 1.54D-01
 Coeff-Com: -0.267D+00 0.650D+00 0.617D+00
 Coeff-En:   0.000D+00 0.000D+00 0.100D+01
 Coeff:     -0.226D+00 0.550D+00 0.676D+00
 Gap=     0.119 Goal=   None    Shift=    0.000
 RMSDP=5.04D-04 MaxDP=4.60D-02 DE=-2.91D-01 OVMax= 1.34D-01

 Cycle   4  Pass 1  IDiag  1:
 RMSU=  2.63D-04    CP:  9.65D-01  1.55D+00  5.09D-01
 E= -4069.76807727727     Delta-E=       -0.136957024166 Rises=F Damp=F
 DIIS: error= 6.93D-03 at cycle   4 NSaved=   4.
 NSaved= 4 IEnMin= 4 EnMin= -4069.76807727727     IErMin= 4 ErrMin= 6.93D-03
 ErrMax= 6.93D-03  0.00D+00 EMaxC= 1.00D-01 BMatC= 4.83D-02 BMatP= 2.00D-01
 IDIUse=3 WtCom= 9.31D-01 WtEn= 6.93D-02
 Coeff-Com: -0.109D+00 0.225D+00 0.407D+00 0.477D+00
 Coeff-En:   0.000D+00 0.000D+00 0.214D+00 0.786D+00
 Coeff:     -0.101D+00 0.210D+00 0.393D+00 0.498D+00
 Gap=     0.119 Goal=   None    Shift=    0.000
 RMSDP=1.96D-04 MaxDP=1.92D-02 DE=-1.37D-01 OVMax= 5.64D-02

 Cycle   5  Pass 1  IDiag  1:
 RMSU=  7.45D-05    CP:  9.64D-01  1.49D+00  6.89D-01  5.56D-01
 E= -4069.81172323182     Delta-E=       -0.043645954553 Rises=F Damp=F
 DIIS: error= 7.50D-04 at cycle   5 NSaved=   5.
 NSaved= 5 IEnMin= 5 EnMin= -4069.81172323182     IErMin= 5 ErrMin= 7.50D-04
 ErrMax= 7.50D-04  0.00D+00 EMaxC= 1.00D-01 BMatC= 1.09D-03 BMatP= 4.83D-02
 IDIUse=3 WtCom= 9.93D-01 WtEn= 7.50D-03
 Coeff-Com: -0.358D-01 0.702D-01 0.163D+00 0.248D+00 0.554D+00
 Coeff-En:   0.000D+00 0.000D+00 0.000D+00 0.000D+00 0.100D+01
 Coeff:     -0.355D-01 0.697D-01 0.162D+00 0.246D+00 0.558D+00
 Gap=     0.119 Goal=   None    Shift=    0.000
 RMSDP=4.06D-05 MaxDP=4.46D-03 DE=-4.36D-02 OVMax= 1.63D-02

 Cycle   6  Pass 1  IDiag  1:
 RMSU=  3.05D-05    CP:  9.64D-01  1.49D+00  6.81D-01  6.26D-01  7.57D-01
 E= -4069.81266065610     Delta-E=       -0.000937424284 Rises=F Damp=F
 DIIS: error= 2.07D-04 at cycle   6 NSaved=   6.
 NSaved= 6 IEnMin= 6 EnMin= -4069.81266065610     IErMin= 6 ErrMin= 2.07D-04
 ErrMax= 2.07D-04  0.00D+00 EMaxC= 1.00D-01 BMatC= 1.81D-04 BMatP= 1.09D-03
 IDIUse=3 WtCom= 9.98D-01 WtEn= 2.07D-03
 Coeff-Com:  0.195D-02-0.605D-02 0.119D-01 0.410D-01 0.315D+00 0.636D+00
 Coeff-En:   0.000D+00 0.000D+00 0.000D+00 0.000D+00 0.124D+00 0.876D+00
 Coeff:      0.195D-02-0.604D-02 0.118D-01 0.409D-01 0.315D+00 0.637D+00
 Gap=     0.119 Goal=   None    Shift=    0.000
 RMSDP=1.64D-05 MaxDP=1.25D-03 DE=-9.37D-04 OVMax= 7.10D-03

 Cycle   7  Pass 1  IDiag  1:
 RMSU=  1.08D-05    CP:  9.64D-01  1.50D+00  6.87D-01  6.25D-01  8.63D-01
                    CP:  7.29D-01
 E= -4069.81285633460     Delta-E=       -0.000195678494 Rises=F Damp=F
 DIIS: error= 9.52D-05 at cycle   7 NSaved=   7.
 NSaved= 7 IEnMin= 7 EnMin= -4069.81285633460     IErMin= 7 ErrMin= 9.52D-05
 ErrMax= 9.52D-05  0.00D+00 EMaxC= 1.00D-01 BMatC= 2.25D-05 BMatP= 1.81D-04
 IDIUse=1 WtCom= 1.00D+00 WtEn= 0.00D+00
 Coeff-Com:  0.441D-02-0.969D-02-0.864D-02-0.320D-02 0.109D+00 0.334D+00
 Coeff-Com:  0.574D+00
 Coeff:      0.441D-02-0.969D-02-0.864D-02-0.320D-02 0.109D+00 0.334D+00
 Coeff:      0.574D+00
 Gap=     0.119 Goal=   None    Shift=    0.000
 RMSDP=6.64D-06 MaxDP=1.24D-03 DE=-1.96D-04 OVMax= 3.57D-03

 Cycle   8  Pass 1  IDiag  1:
 RMSU=  4.67D-06    CP:  9.64D-01  1.50D+00  6.88D-01  6.30D-01  8.65D-01
                    CP:  8.57D-01  8.06D-01
 E= -4069.81288405623     Delta-E=       -0.000027721628 Rises=F Damp=F
 DIIS: error= 4.92D-05 at cycle   8 NSaved=   8.
 NSaved= 8 IEnMin= 8 EnMin= -4069.81288405623     IErMin= 8 ErrMin= 4.92D-05
 ErrMax= 4.92D-05  0.00D+00 EMaxC= 1.00D-01 BMatC= 4.73D-06 BMatP= 2.25D-05
 IDIUse=1 WtCom= 1.00D+00 WtEn= 0.00D+00
 Coeff-Com:  0.220D-02-0.436D-02-0.782D-02-0.123D-01-0.113D-01 0.358D-01
 Coeff-Com:  0.332D+00 0.665D+00
 Coeff:      0.220D-02-0.436D-02-0.782D-02-0.123D-01-0.113D-01 0.358D-01
 Coeff:      0.332D+00 0.665D+00
 Gap=     0.119 Goal=   None    Shift=    0.000
 RMSDP=3.29D-06 MaxDP=4.06D-04 DE=-2.77D-05 OVMax= 1.19D-03

 Cycle   9  Pass 1  IDiag  1:
 RMSU=  1.90D-06    CP:  9.64D-01  1.50D+00  6.88D-01  6.31D-01  8.83D-01
                    CP:  8.84D-01  1.00D+00  9.44D-01
 E= -4069.81289158590     Delta-E=       -0.000007529674 Rises=F Damp=F
 DIIS: error= 2.15D-05 at cycle   9 NSaved=   9.
 NSaved= 9 IEnMin= 9 EnMin= -4069.81289158590     IErMin= 9 ErrMin= 2.15D-05
 ErrMax= 2.15D-05  0.00D+00 EMaxC= 1.00D-01 BMatC= 6.97D-07 BMatP= 4.73D-06
 IDIUse=1 WtCom= 1.00D+00 WtEn= 0.00D+00
 Coeff-Com:  0.502D-03-0.847D-03-0.277D-02-0.616D-02-0.220D-01-0.370D-01
 Coeff-Com:  0.101D+00 0.336D+00 0.631D+00
 Coeff:      0.502D-03-0.847D-03-0.277D-02-0.616D-02-0.220D-01-0.370D-01
 Coeff:      0.101D+00 0.336D+00 0.631D+00
 Gap=     0.119 Goal=   None    Shift=    0.000
 RMSDP=1.37D-06 MaxDP=1.53D-04 DE=-7.53D-06 OVMax= 7.45D-04

 Cycle  10  Pass 1  IDiag  1:
 RMSU=  9.21D-07    CP:  9.64D-01  1.50D+00  6.88D-01  6.32D-01  8.86D-01
                    CP:  8.96D-01  1.05D+00  1.10D+00  1.04D+00
 E= -4069.81289311307     Delta-E=       -0.000001527169 Rises=F Damp=F
 DIIS: error= 1.04D-05 at cycle  10 NSaved=  10.
 NSaved=10 IEnMin=10 EnMin= -4069.81289311307     IErMin=10 ErrMin= 1.04D-05
 ErrMax= 1.04D-05  0.00D+00 EMaxC= 1.00D-01 BMatC= 1.56D-07 BMatP= 6.97D-07
 IDIUse=1 WtCom= 1.00D+00 WtEn= 0.00D+00
 Coeff-Com: -0.412D-03 0.864D-03 0.117D-02 0.105D-02-0.408D-02-0.300D-01
 Coeff-Com: -0.442D-01-0.697D-01 0.240D+00 0.905D+00
 Coeff:     -0.412D-03 0.864D-03 0.117D-02 0.105D-02-0.408D-02-0.300D-01
 Coeff:     -0.442D-01-0.697D-01 0.240D+00 0.905D+00
 Gap=     0.119 Goal=   None    Shift=    0.000
 RMSDP=1.18D-06 MaxDP=1.21D-04 DE=-1.53D-06 OVMax= 5.88D-04

 Cycle  11  Pass 1  IDiag  1:
 RMSU=  4.98D-07    CP:  9.64D-01  1.50D+00  6.89D-01  6.32D-01  8.88D-01
                    CP:  9.06D-01  1.09D+00  1.21D+00  1.37D+00  1.36D+00
 E= -4069.81289383634     Delta-E=       -0.000000723270 Rises=F Damp=F
 DIIS: error= 4.06D-06 at cycle  11 NSaved=  11.
 NSaved=11 IEnMin=11 EnMin= -4069.81289383634     IErMin=11 ErrMin= 4.06D-06
 ErrMax= 4.06D-06  0.00D+00 EMaxC= 1.00D-01 BMatC= 5.64D-08 BMatP= 1.56D-07
 IDIUse=1 WtCom= 1.00D+00 WtEn= 0.00D+00
 Coeff-Com: -0.323D-03 0.629D-03 0.129D-02 0.208D-02 0.434D-02-0.823D-02
 Coeff-Com: -0.410D-01-0.127D+00-0.314D-01 0.462D+00 0.738D+00
 Coeff:     -0.323D-03 0.629D-03 0.129D-02 0.208D-02 0.434D-02-0.823D-02
 Coeff:     -0.410D-01-0.127D+00-0.314D-01 0.462D+00 0.738D+00
 Gap=     0.120 Goal=   None    Shift=    0.000
 RMSDP=6.53D-07 MaxDP=5.77D-05 DE=-7.23D-07 OVMax= 3.45D-04

 Cycle  12  Pass 1  IDiag  1:
 RMSU=  2.52D-07    CP:  9.64D-01  1.50D+00  6.88D-01  6.32D-01  8.89D-01
                    CP:  9.09D-01  1.11D+00  1.27D+00  1.53D+00  1.74D+00
                    CP:  1.21D+00
 E= -4069.81289407551     Delta-E=       -0.000000239172 Rises=F Damp=F
 DIIS: error= 2.44D-06 at cycle  12 NSaved=  12.
 NSaved=12 IEnMin=12 EnMin= -4069.81289407551     IErMin=12 ErrMin= 2.44D-06
 ErrMax= 2.44D-06  0.00D+00 EMaxC= 1.00D-01 BMatC= 1.34D-08 BMatP= 5.64D-08
 IDIUse=1 WtCom= 1.00D+00 WtEn= 0.00D+00
 Coeff-Com: -0.248D-05-0.107D-04 0.175D-03 0.496D-03 0.324D-02 0.358D-02
 Coeff-Com:  0.299D-02-0.323D-01-0.663D-01-0.733D-01 0.241D+00 0.921D+00
 Coeff:     -0.248D-05-0.107D-04 0.175D-03 0.496D-03 0.324D-02 0.358D-02
 Coeff:      0.299D-02-0.323D-01-0.663D-01-0.733D-01 0.241D+00 0.921D+00
 Gap=     0.120 Goal=   None    Shift=    0.000
 RMSDP=4.12D-07 MaxDP=2.72D-05 DE=-2.39D-07 OVMax= 2.37D-04

 Cycle  13  Pass 1  IDiag  1:
 RMSU=  1.59D-07    CP:  9.64D-01  1.50D+00  6.88D-01  6.32D-01  8.90D-01
                    CP:  9.09D-01  1.12D+00  1.30D+00  1.63D+00  1.96D+00
                    CP:  1.62D+00  1.28D+00
 E= -4069.81289415837     Delta-E=       -0.000000082862 Rises=F Damp=F
 DIIS: error= 1.29D-06 at cycle  13 NSaved=  13.
 NSaved=13 IEnMin=13 EnMin= -4069.81289415837     IErMin=13 ErrMin= 1.29D-06
 ErrMax= 1.29D-06  0.00D+00 EMaxC= 1.00D-01 BMatC= 7.57D-09 BMatP= 1.34D-08
 IDIUse=1 WtCom= 1.00D+00 WtEn= 0.00D+00
 Coeff-Com:  0.117D-03-0.239D-03-0.361D-03-0.452D-03 0.570D-03 0.469D-02
 Coeff-Com:  0.189D-01 0.228D-01-0.309D-01-0.237D+00-0.163D+00 0.602D+00
 Coeff-Com:  0.782D+00
 Coeff:      0.117D-03-0.239D-03-0.361D-03-0.452D-03 0.570D-03 0.469D-02
 Coeff:      0.189D-01 0.228D-01-0.309D-01-0.237D+00-0.163D+00 0.602D+00
 Coeff:      0.782D+00
 Gap=     0.120 Goal=   None    Shift=    0.000
 RMSDP=3.20D-07 MaxDP=1.98D-05 DE=-8.29D-08 OVMax= 1.79D-04

 Cycle  14  Pass 1  IDiag  1:
 RMSU=  7.31D-08    CP:  9.64D-01  1.50D+00  6.88D-01  6.32D-01  8.90D-01
                    CP:  9.09D-01  1.12D+00  1.32D+00  1.70D+00  2.14D+00
                    CP:  1.88D+00  1.80D+00  1.09D+00
 E= -4069.81289419066     Delta-E=       -0.000000032283 Rises=F Damp=F
 DIIS: error= 6.60D-07 at cycle  14 NSaved=  14.
 NSaved=14 IEnMin=14 EnMin= -4069.81289419066     IErMin=14 ErrMin= 6.60D-07
 ErrMax= 6.60D-07  0.00D+00 EMaxC= 1.00D-01 BMatC= 1.18D-09 BMatP= 7.57D-09
 IDIUse=1 WtCom= 1.00D+00 WtEn= 0.00D+00
 Coeff-Com:  0.660D-04-0.130D-03-0.243D-03-0.383D-03-0.477D-03 0.118D-02
 Coeff-Com:  0.104D-01 0.190D-01 0.436D-02-0.979D-01-0.145D+00 0.966D-01
 Coeff-Com:  0.403D+00 0.709D+00
 Coeff:      0.660D-04-0.130D-03-0.243D-03-0.383D-03-0.477D-03 0.118D-02
 Coeff:      0.104D-01 0.190D-01 0.436D-02-0.979D-01-0.145D+00 0.966D-01
 Coeff:      0.403D+00 0.709D+00
 Gap=     0.120 Goal=   None    Shift=    0.000
 RMSDP=9.73D-08 MaxDP=6.66D-06 DE=-3.23D-08 OVMax= 5.34D-05

 Cycle  15  Pass 1  IDiag  1:
 RMSU=  3.74D-08    CP:  9.64D-01  1.50D+00  6.88D-01  6.32D-01  8.90D-01
                    CP:  9.09D-01  1.13D+00  1.32D+00  1.71D+00  2.18D+00
                    CP:  1.98D+00  1.94D+00  1.33D+00  1.02D+00
 E= -4069.81289419460     Delta-E=       -0.000000003947 Rises=F Damp=F
 DIIS: error= 2.81D-07 at cycle  15 NSaved=  15.
 NSaved=15 IEnMin=15 EnMin= -4069.81289419460     IErMin=15 ErrMin= 2.81D-07
 ErrMax= 2.81D-07  0.00D+00 EMaxC= 1.00D-01 BMatC= 2.23D-10 BMatP= 1.18D-09
 IDIUse=1 WtCom= 1.00D+00 WtEn= 0.00D+00
 Coeff-Com:  0.596D-05-0.102D-04-0.338D-04-0.823D-04-0.295D-03-0.490D-03
 Coeff-Com:  0.119D-02 0.264D-02 0.824D-02 0.138D-02-0.323D-01-0.720D-01
 Coeff-Com:  0.274D-01 0.304D+00 0.760D+00
 Coeff:      0.596D-05-0.102D-04-0.338D-04-0.823D-04-0.295D-03-0.490D-03
 Coeff:      0.119D-02 0.264D-02 0.824D-02 0.138D-02-0.323D-01-0.720D-01
 Coeff:      0.274D-01 0.304D+00 0.760D+00
 Gap=     0.120 Goal=   None    Shift=    0.000
 RMSDP=4.07D-08 MaxDP=2.42D-06 DE=-3.95D-09 OVMax= 2.58D-05

 Cycle  16  Pass 1  IDiag  1:
 RMSU=  1.81D-08    CP:  9.64D-01  1.50D+00  6.88D-01  6.32D-01  8.90D-01
                    CP:  9.09D-01  1.13D+00  1.33D+00  1.72D+00  2.20D+00
                    CP:  2.01D+00  2.00D+00  1.40D+00  1.24D+00  1.13D+00
 E= -4069.81289419535     Delta-E=       -0.000000000749 Rises=F Damp=F
 DIIS: error= 1.69D-07 at cycle  16 NSaved=  16.
 NSaved=16 IEnMin=16 EnMin= -4069.81289419535     IErMin=16 ErrMin= 1.69D-07
 ErrMax= 1.69D-07  0.00D+00 EMaxC= 1.00D-01 BMatC= 7.81D-11 BMatP= 2.23D-10
 IDIUse=1 WtCom= 1.00D+00 WtEn= 0.00D+00
 Coeff-Com: -0.136D-04 0.275D-04 0.447D-04 0.510D-04-0.275D-04-0.610D-03
 Coeff-Com: -0.180D-02-0.407D-02 0.407D-02 0.251D-01 0.199D-01-0.641D-01
 Coeff-Com: -0.834D-01-0.268D-01 0.402D+00 0.730D+00
 Coeff:     -0.136D-04 0.275D-04 0.447D-04 0.510D-04-0.275D-04-0.610D-03
 Coeff:     -0.180D-02-0.407D-02 0.407D-02 0.251D-01 0.199D-01-0.641D-01
 Coeff:     -0.834D-01-0.268D-01 0.402D+00 0.730D+00
 Gap=     0.120 Goal=   None    Shift=    0.000
 RMSDP=2.15D-08 MaxDP=1.44D-06 DE=-7.49D-10 OVMax= 1.31D-05

 Cycle  17  Pass 1  IDiag  1:
 RMSU=  1.03D-08    CP:  9.64D-01  1.50D+00  6.88D-01  6.32D-01  8.90D-01
                    CP:  9.09D-01  1.13D+00  1.33D+00  1.72D+00  2.20D+00
                    CP:  2.02D+00  2.03D+00  1.45D+00  1.33D+00  1.42D+00
                    CP:  1.22D+00
 E= -4069.81289419583     Delta-E=       -0.000000000473 Rises=F Damp=F
 DIIS: error= 1.09D-07 at cycle  17 NSaved=  17.
 NSaved=17 IEnMin=17 EnMin= -4069.81289419583     IErMin=17 ErrMin= 1.09D-07
 ErrMax= 1.09D-07  0.00D+00 EMaxC= 1.00D-01 BMatC= 1.85D-11 BMatP= 7.81D-11
 IDIUse=1 WtCom= 1.00D+00 WtEn= 0.00D+00
 Coeff-Com: -0.752D-05 0.147D-04 0.293D-04 0.431D-04 0.817D-04-0.144D-03
 Coeff-Com: -0.954D-03-0.286D-02 0.130D-03 0.100D-01 0.178D-01-0.947D-02
 Coeff-Com: -0.402D-01-0.989D-01-0.178D-01 0.315D+00 0.827D+00
 Coeff:     -0.752D-05 0.147D-04 0.293D-04 0.431D-04 0.817D-04-0.144D-03
 Coeff:     -0.954D-03-0.286D-02 0.130D-03 0.100D-01 0.178D-01-0.947D-02
 Coeff:     -0.402D-01-0.989D-01-0.178D-01 0.315D+00 0.827D+00
 Gap=     0.120 Goal=   None    Shift=    0.000
 RMSDP=1.33D-08 MaxDP=8.91D-07 DE=-4.73D-10 OVMax= 7.77D-06

 Cycle  18  Pass 1  IDiag  1:
 RMSU=  5.09D-09    CP:  9.64D-01  1.50D+00  6.88D-01  6.32D-01  8.90D-01
                    CP:  9.09D-01  1.13D+00  1.33D+00  1.72D+00  2.21D+00
                    CP:  2.02D+00  2.04D+00  1.47D+00  1.40D+00  1.58D+00
                    CP:  1.63D+00  1.34D+00
 E= -4069.81289419597     Delta-E=       -0.000000000142 Rises=F Damp=F
 DIIS: error= 5.80D-08 at cycle  18 NSaved=  18.
 NSaved=18 IEnMin=18 EnMin= -4069.81289419597     IErMin=18 ErrMin= 5.80D-08
 ErrMax= 5.80D-08  0.00D+00 EMaxC= 1.00D-01 BMatC= 7.42D-12 BMatP= 1.85D-11
 IDIUse=1 WtCom= 1.00D+00 WtEn= 0.00D+00
 Coeff-Com:  0.875D-06-0.208D-05-0.331D-06 0.378D-05 0.644D-04 0.138D-03
 Coeff-Com:  0.238D-03-0.170D-03-0.107D-02-0.431D-02 0.213D-02 0.180D-01
 Coeff-Com:  0.124D-01-0.433D-01-0.153D+00-0.130D+00 0.405D+00 0.893D+00
 Coeff:      0.875D-06-0.208D-05-0.331D-06 0.378D-05 0.644D-04 0.138D-03
 Coeff:      0.238D-03-0.170D-03-0.107D-02-0.431D-02 0.213D-02 0.180D-01
 Coeff:      0.124D-01-0.433D-01-0.153D+00-0.130D+00 0.405D+00 0.893D+00
 Gap=     0.120 Goal=   None    Shift=    0.000
 RMSDP=1.04D-08 MaxDP=6.63D-07 DE=-1.42D-10 OVMax= 6.80D-06

 Cycle  19  Pass 1  IDiag  1:
 RMSU=  3.14D-09    CP:  9.64D-01  1.50D+00  6.88D-01  6.32D-01  8.90D-01
                    CP:  9.09D-01  1.13D+00  1.33D+00  1.72D+00  2.21D+00
                    CP:  2.03D+00  2.04D+00  1.48D+00  1.44D+00  1.72D+00
                    CP:  1.91D+00  1.85D+00  1.21D+00
 E= -4069.81289419589     Delta-E=        0.000000000080 Rises=F Damp=F
 DIIS: error= 3.82D-08 at cycle  19 NSaved=  19.
 NSaved=19 IEnMin=18 EnMin= -4069.81289419597     IErMin=19 ErrMin= 3.82D-08
 ErrMax= 3.82D-08  0.00D+00 EMaxC= 1.00D-01 BMatC= 2.47D-12 BMatP= 7.42D-12
 IDIUse=1 WtCom= 1.00D+00 WtEn= 0.00D+00
 Coeff-Com:  0.322D-05-0.652D-05-0.106D-04-0.130D-04 0.178D-04 0.139D-03
 Coeff-Com:  0.519D-03 0.850D-03-0.682D-03-0.681D-02-0.513D-02 0.151D-01
 Coeff-Com:  0.234D-01 0.682D-02-0.932D-01-0.205D+00-0.191D-01 0.568D+00
 Coeff-Com:  0.716D+00
 Coeff:      0.322D-05-0.652D-05-0.106D-04-0.130D-04 0.178D-04 0.139D-03
 Coeff:      0.519D-03 0.850D-03-0.682D-03-0.681D-02-0.513D-02 0.151D-01
 Coeff:      0.234D-01 0.682D-02-0.932D-01-0.205D+00-0.191D-01 0.568D+00
 Coeff:      0.716D+00
 Gap=     0.120 Goal=   None    Shift=    0.000
 RMSDP=5.95D-09 MaxDP=3.91D-07 DE= 8.00D-11 OVMax= 3.62D-06

 SCF Done:  E(RCAM-B3LYP) =  -4069.81289420     A.U. after   19 cycles
            NFock= 19  Conv=0.59D-08     -V/T= 2.0102
 KE= 4.028801458643D+03 PE=-4.045586045344D+04 EE= 1.686986960652D+04
 Leave Link  502 at Thu Aug 19 22:56:24 2021, MaxMem= 23488102400 cpu:           15457.9 elap:             670.0
 (Enter /sw/apps/gaussian-16.0/g16/l801.exe)
 DoSCS=F DFT=T ScalE2(SS,OS)=  1.000000  1.000000
 ExpMin= 3.36D-02 ExpMax= 4.95D+03 ExpMxC= 7.45D+02 IAcc=3 IRadAn=         5 AccDes= 0.00D+00
 HarFok:  IExCor=  205 AccDes= 0.00D+00 IRadAn=         5 IDoV=-2 UseB2=F ITyADJ=14
 ICtDFT= 12500011 ScaDFX=  1.000000  1.000000  1.000000  1.000000
 GSVD:  LWork=       -9588 too small for GESVD, short by       45590 words or       45590 for optimal perf.
 Largest valence mixing into a core orbital is  2.03D-04
 Largest core mixing into a valence orbital is  5.23D-05
 Range of M.O.s used for correlation:    95  1572
 NBasis=  1572 NAE=   312 NBE=   312 NFC=    94 NFV=     0
 NROrb=   1478 NOA=   218 NOB=   218 NVA=  1260 NVB=  1260
 Leave Link  801 at Thu Aug 19 22:56:24 2021, MaxMem= 23488102400 cpu:               9.0 elap:               0.4
 (Enter /sw/apps/gaussian-16.0/g16/l914.exe)
 RHF ground state
 Two-electron integrals replicated using symmetry.
 MDV= 23488102400 DFT=T DoStab=F Mixed=T DoRPA=T DoScal=F NonHer=T
 Making orbital integer symmetry assigments:
 Orbital symmetries:
       Occupied  (A) (A) (A) (A) (A) (A) (A) (A) (A) (A) (A) (A)
                 (A) (A) (A) (A) (A) (A) (A) (A) (A) (A) (A) (A)
                 (A) (A) (A) (A) (A) (A) (A) (A) (A) (A) (A) (A)
                 (A) (A) (A) (A) (A) (A) (A) (A) (A) (A) (A) (A)
                 (A) (A) (A) (A) (A) (A) (A) (A) (A) (A) (A) (A)
                 (A) (A) (A) (A) (A) (A) (A) (A) (A) (A) (A) (A)
                 (A) (A) (A) (A) (A) (A) (A) (A) (A) (A) (A) (A)
                 (A) (A) (A) (A) (A) (A) (A) (A) (A) (A) (A) (A)
                 (A) (A) (A) (A) (A) (A) (A) (A) (A) (A) (A) (A)
                 (A) (A) (A) (A) (A) (A) (A) (A) (A) (A) (A) (A)
                 (A) (A) (A) (A) (A) (A) (A) (A) (A) (A) (A) (A)
                 (A) (A) (A) (A) (A) (A) (A) (A) (A) (A) (A) (A)
                 (A) (A) (A) (A) (A) (A) (A) (A) (A) (A) (A) (A)
                 (A) (A) (A) (A) (A) (A) (A) (A) (A) (A) (A) (A)
                 (A) (A) (A) (A) (A) (A) (A) (A) (A) (A) (A) (A)
                 (A) (A) (A) (A) (A) (A) (A) (A) (A) (A) (A) (A)
                 (A) (A) (A) (A) (A) (A) (A) (A) (A) (A) (A) (A)
                 (A) (A) (A) (A) (A) (A) (A) (A) (A) (A) (A) (A)
                 (A) (A) (A) (A) (A) (A) (A) (A) (A) (A) (A) (A)
                 (A) (A) (A) (A) (A) (A) (A) (A) (A) (A) (A) (A)
                 (A) (A) (A) (A) (A) (A) (A) (A) (A) (A) (A) (A)
                 (A) (A) (A) (A) (A) (A) (A) (A) (A) (A) (A) (A)
                 (A) (A) (A) (A) (A) (A) (A) (A) (A) (A) (A) (A)
                 (A) (A) (A) (A) (A) (A) (A) (A) (A) (A) (A) (A)
                 (A) (A) (A) (A) (A) (A) (A) (A) (A) (A) (A) (A)
                 (A) (A) (A) (A) (A) (A) (A) (A) (A) (A) (A) (A)
       Virtual   (A) (A) (A) (A) (A) (A) (A) (A) (A) (A) (A) (A)
                 (A) (A) (A) (A) (A) (A) (A) (A) (A) (A) (A) (A)
                 (A) (A) (A) (A) (A) (A) (A) (A) (A) (A) (A) (A)
                 (A) (A) (A) (A) (A) (A) (A) (A) (A) (A) (A) (A)
                 (A) (A) (A) (A) (A) (A) (A) (A) (A) (A) (A) (A)
                 (A) (A) (A) (A) (A) (A) (A) (A) (A) (A) (A) (A)
                 (A) (A) (A) (A) (A) (A) (A) (A) (A) (A) (A) (A)
                 (A) (A) (A) (A) (A) (A) (A) (A) (A) (A) (A) (A)
                 (A) (A) (A) (A) (A) (A) (A) (A) (A) (A) (A) (A)
                 (A) (A) (A) (A) (A) (A) (A) (A) (A) (A) (A) (A)
                 (A) (A) (A) (A) (A) (A) (A) (A) (A) (A) (A) (A)
                 (A) (A) (A) (A) (A) (A) (A) (A) (A) (A) (A) (A)
                 (A) (A) (A) (A) (A) (A) (A) (A) (A) (A) (A) (A)
                 (A) (A) (A) (A) (A) (A) (A) (A) (A) (A) (A) (A)
                 (A) (A) (A) (A) (A) (A) (A) (A) (A) (A) (A) (A)
                 (A) (A) (A) (A) (A) (A) (A) (A) (A) (A) (A) (A)
                 (A) (A) (A) (A) (A) (A) (A) (A) (A) (A) (A) (A)
                 (A) (A) (A) (A) (A) (A) (A) (A) (A) (A) (A) (A)
                 (A) (A) (A) (A) (A) (A) (A) (A) (A) (A) (A) (A)
                 (A) (A) (A) (A) (A) (A) (A) (A) (A) (A) (A) (A)
                 (A) (A) (A) (A) (A) (A) (A) (A) (A) (A) (A) (A)
                 (A) (A) (A) (A) (A) (A) (A) (A) (A) (A) (A) (A)
                 (A) (A) (A) (A) (A) (A) (A) (A) (A) (A) (A) (A)
                 (A) (A) (A) (A) (A) (A) (A) (A) (A) (A) (A) (A)
                 (A) (A) (A) (A) (A) (A) (A) (A) (A) (A) (A) (A)
                 (A) (A) (A) (A) (A) (A) (A) (A) (A) (A) (A) (A)
                 (A) (A) (A) (A) (A) (A) (A) (A) (A) (A) (A) (A)
                 (A) (A) (A) (A) (A) (A) (A) (A) (A) (A) (A) (A)
                 (A) (A) (A) (A) (A) (A) (A) (A) (A) (A) (A) (A)
                 (A) (A) (A) (A) (A) (A) (A) (A) (A) (A) (A) (A)
                 (A) (A) (A) (A) (A) (A) (A) (A) (A) (A) (A) (A)
                 (A) (A) (A) (A) (A) (A) (A) (A) (A) (A) (A) (A)
                 (A) (A) (A) (A) (A) (A) (A) (A) (A) (A) (A) (A)
                 (A) (A) (A) (A) (A) (A) (A) (A) (A) (A) (A) (A)
                 (A) (A) (A) (A) (A) (A) (A) (A) (A) (A) (A) (A)
                 (A) (A) (A) (A) (A) (A) (A) (A) (A) (A) (A) (A)
                 (A) (A) (A) (A) (A) (A) (A) (A) (A) (A) (A) (A)
                 (A) (A) (A) (A) (A) (A) (A) (A) (A) (A) (A) (A)
                 (A) (A) (A) (A) (A) (A) (A) (A) (A) (A) (A) (A)
                 (A) (A) (A) (A) (A) (A) (A) (A) (A) (A) (A) (A)
                 (A) (A) (A) (A) (A) (A) (A) (A) (A) (A) (A) (A)
                 (A) (A) (A) (A) (A) (A) (A) (A) (A) (A) (A) (A)
                 (A) (A) (A) (A) (A) (A) (A) (A) (A) (A) (A) (A)
                 (A) (A) (A) (A) (A) (A) (A) (A) (A) (A) (A) (A)
                 (A) (A) (A) (A) (A) (A) (A) (A) (A) (A) (A) (A)
                 (A) (A) (A) (A) (A) (A) (A) (A) (A) (A) (A) (A)
                 (A) (A) (A) (A) (A) (A) (A) (A) (A) (A) (A) (A)
                 (A) (A) (A) (A) (A) (A) (A) (A) (A) (A) (A) (A)
                 (A) (A) (A) (A) (A) (A) (A) (A) (A) (A) (A) (A)
                 (A) (A) (A) (A) (A) (A) (A) (A) (A) (A) (A) (A)
                 (A) (A) (A) (A) (A) (A) (A) (A) (A) (A) (A) (A)
                 (A) (A) (A) (A) (A) (A) (A) (A) (A) (A) (A) (A)
                 (A) (A) (A) (A) (A) (A) (A) (A) (A) (A) (A) (A)
                 (A) (A) (A) (A) (A) (A) (A) (A) (A) (A) (A) (A)
                 (A) (A) (A) (A) (A) (A) (A) (A) (A) (A) (A) (A)
                 (A) (A) (A) (A) (A) (A) (A) (A) (A) (A) (A) (A)
                 (A) (A) (A) (A) (A) (A) (A) (A) (A) (A) (A) (A)
                 (A) (A) (A) (A) (A) (A) (A) (A) (A) (A) (A) (A)
                 (A) (A) (A) (A) (A) (A) (A) (A) (A) (A) (A) (A)
                 (A) (A) (A) (A) (A) (A) (A) (A) (A) (A) (A) (A)
                 (A) (A) (A) (A) (A) (A) (A) (A) (A) (A) (A) (A)
                 (A) (A) (A) (A) (A) (A) (A) (A) (A) (A) (A) (A)
                 (A) (A) (A) (A) (A) (A) (A) (A) (A) (A) (A) (A)
                 (A) (A) (A) (A) (A) (A) (A) (A) (A) (A) (A) (A)
                 (A) (A) (A) (A) (A) (A) (A) (A) (A) (A) (A) (A)
                 (A) (A) (A) (A) (A) (A) (A) (A) (A) (A) (A) (A)
                 (A) (A) (A) (A) (A) (A) (A) (A) (A) (A) (A) (A)
                 (A) (A) (A) (A) (A) (A) (A) (A) (A) (A) (A) (A)
                 (A) (A) (A) (A) (A) (A) (A) (A) (A) (A) (A) (A)
                 (A) (A) (A) (A) (A) (A) (A) (A) (A) (A) (A) (A)
                 (A) (A) (A) (A) (A) (A) (A) (A) (A) (A) (A) (A)
                 (A) (A) (A) (A) (A) (A) (A) (A) (A) (A) (A) (A)
                 (A) (A) (A) (A) (A) (A) (A) (A) (A) (A) (A) (A)
                 (A) (A) (A) (A) (A) (A) (A) (A) (A) (A) (A) (A)
                 (A) (A) (A) (A) (A) (A) (A) (A) (A) (A) (A) (A)
                 (A) (A) (A) (A) (A) (A) (A) (A) (A) (A) (A) (A)
                 (A) (A) (A) (A) (A) (A) (A) (A) (A) (A) (A) (A)
                 (A) (A) (A) (A) (A) (A) (A) (A) (A) (A) (A) (A)
                 (A) (A) (A) (A) (A) (A) (A) (A) (A) (A) (A) (A)
                 (A) (A) (A) (A) (A) (A) (A) (A) (A) (A) (A) (A)
                 (A) (A) (A) (A) (A) (A) (A) (A) (A) (A) (A) (A)
                 (A) (A) (A) (A) (A) (A) (A) (A) (A) (A) (A) (A)
                 (A) (A) (A) (A) (A) (A) (A) (A) (A) (A) (A) (A)
                 (A) (A) (A) (A) (A) (A) (A) (A) (A) (A) (A) (A)
                 (A) (A) (A) (A) (A) (A) (A) (A) (A) (A) (A) (A)
                 (A) (A) (A) (A) (A) (A) (A) (A) (A) (A) (A) (A)
                 (A) (A) (A) (A) (A) (A) (A) (A) (A) (A) (A) (A)
                 (A) (A) (A) (A) (A) (A) (A) (A) (A) (A) (A) (A)
                 (A) (A) (A) (A) (A) (A) (A) (A) (A) (A) (A) (A)
                 (A) (A) (A) (A) (A) (A) (A) (A) (A) (A) (A) (A)
                 (A) (A) (A) (A) (A) (A) (A) (A) (A) (A) (A) (A)
                 (A) (A) (A) (A) (A) (A) (A) (A) (A) (A) (A) (A)
                 (A) (A) (A) (A) (A) (A) (A) (A) (A) (A) (A) (A)
                 (A) (A) (A) (A) (A) (A) (A) (A) (A) (A) (A) (A)
                 (A) (A) (A) (A) (A) (A) (A) (A) (A) (A) (A) (A)
                 (A) (A) (A) (A) (A) (A) (A) (A) (A) (A) (A) (A)
                 (A) (A) (A) (A) (A) (A) (A) (A) (A) (A) (A) (A)
                 (A) (A) (A) (A) (A) (A) (A) (A) (A) (A) (A) (A)
                 (A) (A) (A) (A) (A) (A) (A) (A) (A) (A) (A) (A)
                 (A) (A) (A) (A) (A) (A) (A) (A) (A) (A) (A) (A)
                 (A) (A) (A) (A) (A) (A) (A) (A) (A) (A) (A) (A)
                 (A) (A) (A) (A) (A) (A) (A) (A) (A) (A) (A) (A)
                 (A) (A) (A) (A) (A) (A) (A) (A) (A) (A) (A) (A)
                 (A) (A) (A) (A) (A) (A) (A) (A) (A) (A) (A) (A)
                 (A) (A) (A) (A) (A) (A) (A) (A) (A) (A) (A) (A)
    20 initial guesses have been made.
 Convergence on wavefunction:    0.001000000000000
 Davidson Disk Diagonalization:  ConvIn= 1.00D-03 SkipCon=T Conv= 1.00D-03.
 Max sub-space:  2000 roots to seek:    20 dimension of matrix:       549360
 Iteration     1 Dimension    20 NMult     0 NNew     20
 CISAX will form    20 AO SS matrices at one time.
 NMat=    20 NSing=    20 JSym2X= 0.
 FoFJK:  IHMeth= 1 ICntrl=       0 DoSepK=T KAlg= 0 I1Cent=           0 FoldK=F
 IRaf=         1 NMat=      40 IRICut=       1 DoRegI=T DoRafI=F ISym2E= 0 IDoP0=3 IntGTp=3.
 FoFCou: FMM=T IPFlag=           0 FMFlag=      100000 FMFlg1=        2001
         NFxFlg=           0 DoJE=F BraDBF=F KetDBF=F FulRan=T
         wScrn=  0.000000 ICntrl=       500 IOpCl=  0 I1Cent=           0 NGrid=           0
         NMat0=   20 NMatS0=     20 NMatT0=    0 NMatD0=   20 NMtDS0=    0 NMtDT0=    0
 Symmetry not used in FoFCou.
 FMM levels:  10  Number of levels for PrismC:   9
 New state      2 was old state      4
 New state      3 was old state      7
 New state      4 was old state      6
 New state      5 was old state      2
 Excitation Energies [eV] at current iteration:
 Root      1 :     2.332293494944295
 Root      2 :     2.542528113051320
 Root      3 :     2.608365751461414
 Root      4 :     2.618589319710567
 Root      5 :     2.677411301188019
 Root      6 :     2.694883823387480
 Root      7 :     3.115204814413962
 Root      8 :     3.338909678730929
 Root      9 :     3.633028215034722
 Root     10 :     3.675629788146286
 Root     11 :     3.738303295244571
 Root     12 :     3.758638087723515
 Root     13 :     4.236075640525618
 Root     14 :     4.289006896830288
 Root     15 :     4.315062279351264
 Root     16 :     4.475031437641224
 Root     17 :     4.575743581156480
 Root     18 :     4.612636784811144
 Root     19 :     4.720188840597888
 Root     20 :     4.850496346354108
 Iteration     2 Dimension    30 NMult    20 NNew     10
 CISAX will form    10 AO SS matrices at one time.
 NMat=    10 NSing=    10 JSym2X= 0.
 New state      1 was old state      5
 Root      1 not converged, maximum delta is    0.166204459563189
 New state      2 was old state      3
 Root      2 not converged, maximum delta is    0.243148205355802
 New state      3 was old state      4
 Root      3 not converged, maximum delta is    0.287018940363905
 New state      4 was old state      1
 Root      4 not converged, maximum delta is    0.003475769319886
 New state      5 was old state      2
 Root      5 not converged, maximum delta is    0.006092440697659
 Excitation Energies [eV] at current iteration:
 Root      1 :     1.795421698366395   Change is   -0.881989602821624
 Root      2 :     2.148866147684330   Change is   -0.459499603777084
 Root      3 :     2.239969779589320   Change is   -0.378619540121247
 Root      4 :     2.331452773171389   Change is   -0.000840721772906
 Root      5 :     2.541518353540957   Change is   -0.001009759510363
 Iteration     3 Dimension    40 NMult    30 NNew     10
 CISAX will form    10 AO SS matrices at one time.
 NMat=    10 NSing=    10 JSym2X= 0.
 Root      1 not converged, maximum delta is    0.063982697754395
 Root      2 not converged, maximum delta is    0.297223051697098
 Root      3 not converged, maximum delta is    0.066499600654007
 No map to state      4
 New state      5 was old state      4
 Root      5 has converged.
 Excitation Energies [eV] at current iteration:
 Root      1 :     1.688897786975343   Change is   -0.106523911391052
 Root      2 :     1.794828611520948   Change is   -0.354037536163382
 Root      3 :     2.197455924072426   Change is   -0.042513855516894
 Root      4 :     2.240097436320490
 Root      5 :     2.331447028304335   Change is   -0.000005744867054
 Iteration     4 Dimension    48 NMult    40 NNew      8
 CISAX will form     8 AO SS matrices at one time.
 NMat=     8 NSing=     8 JSym2X= 0.
 Root      1 not converged, maximum delta is    0.014269228332627
 Root      2 not converged, maximum delta is    0.067066747707808
 Root      3 not converged, maximum delta is    0.394158033924744
 Root      4 not converged, maximum delta is    0.379468938325159
 Root      5 has converged.
 Excitation Energies [eV] at current iteration:
 Root      1 :     1.672051843705225   Change is   -0.016845943270119
 Root      2 :     1.688803541685046   Change is   -0.106025069835901
 Root      3 :     2.186059834370084   Change is   -0.011396089702342
 Root      4 :     2.195259639024866   Change is   -0.044837797295625
 Root      5 :     2.331446899926595   Change is   -0.000000128377740
 Iteration     5 Dimension    56 NMult    48 NNew      8
 CISAX will form     8 AO SS matrices at one time.
 NMat=     8 NSing=     8 JSym2X= 0.
 Root      1 not converged, maximum delta is    0.025745377953478
 Root      2 not converged, maximum delta is    0.025580481581957
 Root      3 not converged, maximum delta is    0.077678863219455
 Root      4 not converged, maximum delta is    0.077771177233958
 Root      5 has converged.
 Excitation Energies [eV] at current iteration:
 Root      1 :     1.670207090280389   Change is   -0.001844753424836
 Root      2 :     1.678228550999908   Change is   -0.010574990685138
 Root      3 :     2.183859616040998   Change is   -0.002200218329086
 Root      4 :     2.193381072706968   Change is   -0.001878566317898
 Root      5 :     2.331446884226418   Change is   -0.000000015700177
 Iteration     6 Dimension    64 NMult    56 NNew      8
 CISAX will form     8 AO SS matrices at one time.
 NMat=     8 NSing=     8 JSym2X= 0.
 Root      1 not converged, maximum delta is    0.007791067254635
 Root      2 not converged, maximum delta is    0.007913313225471
 Root      3 not converged, maximum delta is    0.013285675355656
 Root      4 not converged, maximum delta is    0.013950847752433
 Root      5 has converged.
 Excitation Energies [eV] at current iteration:
 Root      1 :     1.669942401589216   Change is   -0.000264688691173
 Root      2 :     1.676791535566333   Change is   -0.001437015433575
 Root      3 :     2.183474994764707   Change is   -0.000384621276291
 Root      4 :     2.193075048285391   Change is   -0.000306024421577
 Root      5 :     2.331446880085801   Change is   -0.000000004140617
 Iteration     7 Dimension    72 NMult    64 NNew      8
 CISAX will form     8 AO SS matrices at one time.
 NMat=     8 NSing=     8 JSym2X= 0.
 Root      1 not converged, maximum delta is    0.001653158583191
 Root      2 not converged, maximum delta is    0.001654778797555
 Root      3 not converged, maximum delta is    0.001549878014820
 Root      4 not converged, maximum delta is    0.001478338057921
 Root      5 has converged.
 Excitation Energies [eV] at current iteration:
[...]
 Alpha virt. eigenvalues --    1.87969   1.88175   1.88386   1.88446   1.88712
 Alpha virt. eigenvalues --    1.88841   1.89071   1.89147   1.89401   1.89540
 Alpha virt. eigenvalues --    1.89657   1.89864   1.90014   1.90038   1.90421
 Alpha virt. eigenvalues --    1.90633   1.91123   1.91227   1.91364   1.91550
 Alpha virt. eigenvalues --    1.91959   1.92055   1.92473   1.92495   1.92894
 Alpha virt. eigenvalues --    1.92927   1.93275   1.93364   1.93655   1.94217
 Alpha virt. eigenvalues --    1.94461   1.94612   1.94961   1.95430   1.95607
 Alpha virt. eigenvalues --    1.95709   1.95860   1.96058   1.96098   1.96260
 Alpha virt. eigenvalues --    1.96402   1.96509   1.96690   1.96817   1.97179
 Alpha virt. eigenvalues --    1.97362   1.97712   1.97760   1.98010   1.98052
 Alpha virt. eigenvalues --    1.98423   1.98478   1.98576   1.99022   1.99293
 Alpha virt. eigenvalues --    1.99686   2.00231   2.00578   2.00862   2.00939
 Alpha virt. eigenvalues --    2.01295   2.01316   2.01564   2.01607   2.01648
 Alpha virt. eigenvalues --    2.01830   2.02078   2.02675   2.02906   2.03163
 Alpha virt. eigenvalues --    2.03262   2.03296   2.03334   2.03600   2.03726
 Alpha virt. eigenvalues --    2.03925   2.04230   2.04874   2.05149   2.05424
 Alpha virt. eigenvalues --    2.05788   2.05970   2.06451   2.06720   2.07074
 Alpha virt. eigenvalues --    2.07242   2.07537   2.08510   2.08654   2.08869
 Alpha virt. eigenvalues --    2.09234   2.09454   2.09823   2.10744   2.11070
 Alpha virt. eigenvalues --    2.11155   2.11401   2.11596   2.11626   2.11782
 Alpha virt. eigenvalues --    2.12123   2.12345   2.12709   2.12723   2.12742
 Alpha virt. eigenvalues --    2.13016   2.13113   2.13622   2.14028   2.14079
 Alpha virt. eigenvalues --    2.14368   2.15233   2.15579   2.15799   2.16332
 Alpha virt. eigenvalues --    2.16448   2.16629   2.16828   2.17313   2.17358
 Alpha virt. eigenvalues --    2.17613   2.17759   2.17987   2.18118   2.18164
 Alpha virt. eigenvalues --    2.18290   2.18718   2.18892   2.19503   2.19527
 Alpha virt. eigenvalues --    2.19921   2.20078   2.20095   2.20445   2.20710
 Alpha virt. eigenvalues --    2.21119   2.21281   2.21557   2.21596   2.21963
 Alpha virt. eigenvalues --    2.22045   2.22593   2.22957   2.23230   2.23497
 Alpha virt. eigenvalues --    2.24308   2.24562   2.24936   2.25129   2.26147
 Alpha virt. eigenvalues --    2.26662   2.26687   2.26961   2.27199   2.27418
 Alpha virt. eigenvalues --    2.28030   2.28643   2.29179   2.29607   2.29690
 Alpha virt. eigenvalues --    2.30134   2.30321   2.30876   2.30912   2.31036
 Alpha virt. eigenvalues --    2.31086   2.31393   2.32045   2.32389   2.33002
 Alpha virt. eigenvalues --    2.33351   2.33493   2.33646   2.34071   2.34334
 Alpha virt. eigenvalues --    2.35186   2.35489   2.35680   2.36201   2.36309
 Alpha virt. eigenvalues --    2.36513   2.36526   2.36576   2.37601   2.37824
 Alpha virt. eigenvalues --    2.38182   2.38523   2.38717   2.39101   2.39497
 Alpha virt. eigenvalues --    2.39869   2.40108   2.40356   2.40398   2.41112
 Alpha virt. eigenvalues --    2.41132   2.41484   2.41628   2.41848   2.41866
 Alpha virt. eigenvalues --    2.42327   2.42900   2.42933   2.43233   2.43258
 Alpha virt. eigenvalues --    2.44029   2.44173   2.44619   2.44791   2.44995
 Alpha virt. eigenvalues --    2.45222   2.45445   2.45766   2.46199   2.46355
 Alpha virt. eigenvalues --    2.46477   2.46658   2.46665   2.47001   2.47145
 Alpha virt. eigenvalues --    2.47514   2.47615   2.48039   2.49243   2.49505
 Alpha virt. eigenvalues --    2.50023   2.50030   2.50505   2.50627   2.50976
 Alpha virt. eigenvalues --    2.51493   2.51752   2.51786   2.52293   2.52640
 Alpha virt. eigenvalues --    2.52695   2.53456   2.53828   2.54064   2.54152
 Alpha virt. eigenvalues --    2.54376   2.54685   2.54948   2.55416   2.55822
 Alpha virt. eigenvalues --    2.57766   2.58261   2.58562   2.59119   2.60041
 Alpha virt. eigenvalues --    2.60488   2.60530   2.61222   2.61622   2.62009
 Alpha virt. eigenvalues --    2.62414   2.62636   2.62839   2.63314   2.63826
 Alpha virt. eigenvalues --    2.64208   2.64483   2.64544   2.64984   2.65290
 Alpha virt. eigenvalues --    2.65654   2.66138   2.66714   2.66825   2.66975
 Alpha virt. eigenvalues --    2.67330   2.67820   2.68203   2.68728   2.68884
 Alpha virt. eigenvalues --    2.68982   2.69249   2.69329   2.69828   2.69903
 Alpha virt. eigenvalues --    2.70320   2.70864   2.71315   2.71886   2.72058
 Alpha virt. eigenvalues --    2.72483   2.72617   2.72652   2.72987   2.73219
 Alpha virt. eigenvalues --    2.73259   2.73408   2.73626   2.74387   2.74669
 Alpha virt. eigenvalues --    2.74842   2.75241   2.76506   2.76684   2.77082
 Alpha virt. eigenvalues --    2.77228   2.77343   2.77783   2.78088   2.78424
 Alpha virt. eigenvalues --    2.78567   2.78835   2.79018   2.79362   2.80195
 Alpha virt. eigenvalues --    2.80390   2.80412   2.80871   2.80957   2.81295
 Alpha virt. eigenvalues --    2.81800   2.82164   2.82247   2.82505   2.83571
 Alpha virt. eigenvalues --    2.83671   2.83974   2.84055   2.84441   2.84654
 Alpha virt. eigenvalues --    2.84807   2.84991   2.85575   2.85816   2.86783
 Alpha virt. eigenvalues --    2.86847   2.87338   2.87396   2.88051   2.88357
 Alpha virt. eigenvalues --    2.88405   2.88787   2.88824   2.89004   2.90389
 Alpha virt. eigenvalues --    2.90876   2.91130   2.91247   2.93030   2.93539
 Alpha virt. eigenvalues --    2.93962   2.94110   2.94490   2.94676   2.95229
 Alpha virt. eigenvalues --    2.95771   2.95953   2.96024   2.96365   2.96529
 Alpha virt. eigenvalues --    2.96966   2.97040   2.97635   2.98095   2.98144
 Alpha virt. eigenvalues --    2.98265   2.98469   2.98602   2.98776   2.98786
 Alpha virt. eigenvalues --    2.98984   2.99097   2.99547   2.99822   2.99906
 Alpha virt. eigenvalues --    3.00114   3.00191   3.00321   3.00477   3.01255
 Alpha virt. eigenvalues --    3.01905   3.01937   3.02105   3.02373   3.02506
 Alpha virt. eigenvalues --    3.02842   3.02956   3.03241   3.03573   3.04019
 Alpha virt. eigenvalues --    3.04117   3.04325   3.04351   3.04498   3.04611
 Alpha virt. eigenvalues --    3.04878   3.05248   3.05476   3.06019   3.06292
 Alpha virt. eigenvalues --    3.06674   3.07205   3.08061   3.08087   3.09262
 Alpha virt. eigenvalues --    3.09433   3.09582   3.10333   3.10741   3.11025
 Alpha virt. eigenvalues --    3.11281   3.11542   3.11784   3.11978   3.12183
 Alpha virt. eigenvalues --    3.12585   3.13152   3.13578   3.13790   3.13843
 Alpha virt. eigenvalues --    3.13887   3.14631   3.15915   3.16062   3.17133
 Alpha virt. eigenvalues --    3.17661   3.17957   3.17997   3.19034   3.19148
 Alpha virt. eigenvalues --    3.22025   3.22740   3.23819   3.24482   3.24583
 Alpha virt. eigenvalues --    3.25323   3.26386   3.26812   3.27497   3.27556
 Alpha virt. eigenvalues --    3.28800   3.29358   3.31395   3.31534   3.33311
 Alpha virt. eigenvalues --    3.33348   3.40313   3.40394   3.42716   3.42929
 Alpha virt. eigenvalues --    3.48506   3.48833   3.49917   3.50457   3.51017
 Alpha virt. eigenvalues --    3.51367   3.56443   3.57139   3.59013   3.59471
 Alpha virt. eigenvalues --    3.62651   3.62697   3.66084   3.66179   3.66892
 Alpha virt. eigenvalues --    3.67678   3.72997   3.74146   3.75815   3.76800
          Condensed to atoms (all electrons):
 Mulliken charges:
               1
     1  Mg   0.838992
     2  C   -0.003985
     3  C   -0.093803
     4  C   -0.045612
     5  C   -0.063546
     6  N   -0.256895
     7  C   -0.052567
     8  C   -0.014131
     9  C   -0.087130
    10  C    0.046458
    11  C    0.104703
    12  C    0.053441
    13  C   -0.071333
    14  H    0.033654
    15  N   -0.433245
    16  C    0.168857
    17  C   -0.176685
    18  C   -0.003763
    19  C    0.148975
    20  C    0.109994
    21  C    0.012093
    22  O   -0.249380
    23  C    0.062334
    24  N   -0.341249
    25  C    0.041665
    26  C   -0.028298
    27  C   -0.024071
    28  C    0.074926
    29  C    0.076080
    30  C    0.034966
    31  C   -0.005065
    32  N   -0.310161
    33  C    0.079858
    34  C   -0.170407
    35  C    0.007703
    36  C    0.082312
    37  C    0.127543
    38  C    0.044667
    39  O   -0.189659
    40  C   -0.004929
    41  C    0.213363
    42  O   -0.260687
    43  O   -0.303772
    44  C    0.158395
    45  H   -0.017236
    46  H   -0.016442
    47  H   -0.040868
    48  H    0.000777
    49  H   -0.003667
    50  H    0.025462
    51  H    0.016800
    52  H    0.017023
    53  H    0.012279
    54  H    0.042046
    55  H    0.018388
    56  H    0.019045
    57  H    0.006240
    58  H    0.027121
    59  H    0.040453
    60  H    0.037829
    61  H    0.035560
    62  H    0.031581
    63  H    0.016929
    64  H    0.009701
    65  H    0.023614
    66  H    0.012351
    67  H    0.005146
    68  H    0.007205
    69  H    0.005338
    70  H    0.008393
    71  H    0.021128
    72  H    0.027884
    73  H    0.046239
    74  H    0.009979
    75  H    0.046338
    76  H    0.035652
    77  H    0.043496
    78  H    0.046987
    79  H    0.050711
    80  Mg   0.837326
    81  C   -0.016970
    82  C   -0.086758
    83  C   -0.046550
    84  C   -0.064994
    85  N   -0.255044
    86  C   -0.048923
    87  C   -0.015333
    88  C   -0.090201
    89  C    0.044965
    90  C    0.113405
    91  C    0.062380
    92  C   -0.077532
    93  H    0.032987
    94  N   -0.423603
    95  C    0.162559
    96  C   -0.173741
    97  C   -0.008948
    98  C    0.152668
    99  C    0.099414
   100  C    0.014914
   101  O   -0.254503
   102  C    0.061465
   103  N   -0.350204
   104  C    0.037586
   105  C   -0.019598
   106  C   -0.035062
   107  C    0.088792
   108  C    0.073898
   109  C    0.034947
   110  C   -0.007534
   111  N   -0.323972
   112  C    0.078155
   113  C   -0.163568
   114  C    0.001857
   115  C    0.096129
   116  C    0.131616
   117  C    0.041492
   118  O   -0.189201
   119  C    0.001415
   120  C    0.211284
   121  O   -0.251307
   122  O   -0.305443
   123  C    0.152237
   124  H   -0.014381
   125  H   -0.017106
   126  H   -0.040864
   127  H   -0.000302
   128  H   -0.004212
   129  H    0.019939
   130  H    0.017654
   131  H    0.027692
   132  H    0.013322
   133  H    0.036479
   134  H    0.022179
   135  H    0.019985
   136  H    0.010761
   137  H    0.025309
   138  H    0.038847
   139  H    0.037692
   140  H    0.035298
   141  H    0.034093
   142  H    0.013792
   143  H    0.013037
   144  H    0.023334
   145  H    0.010607
   146  H    0.005472
   147  H    0.005339
   148  H    0.003767
   149  H    0.010390
   150  H    0.017527
   151  H    0.030562
   152  H    0.045341
   153  H    0.008373
   154  H    0.046235
   155  H    0.034775
   156  H    0.043186
   157  H    0.050199
   158  H    0.053093
 Sum of Mulliken charges =  -0.00000
 Mulliken charges with hydrogens summed into heavy atoms:
               1
     1  Mg   0.838992
     2  C   -0.003985
     3  C   -0.111039
     4  C   -0.062054
     5  C   -0.104415
     6  N   -0.256895
     7  C   -0.052567
     8  C   -0.013354
     9  C   -0.090797
    10  C    0.046458
    11  C    0.163988
    12  C    0.107766
    13  C   -0.000246
    15  N   -0.433245
    16  C    0.168857
    17  C   -0.176685
    18  C   -0.003763
    19  C    0.148975
    20  C    0.183808
    21  C    0.012093
    22  O   -0.249380
    23  C    0.167303
    24  N   -0.341249
    25  C    0.041665
    26  C   -0.011369
    27  C   -0.014371
    28  C    0.074926
    29  C    0.117191
    30  C    0.047509
    31  C    0.052340
    32  N   -0.310161
    33  C    0.079858
    34  C   -0.170407
    35  C    0.007703
    36  C    0.082312
    37  C    0.230100
    38  C    0.044667
    39  O   -0.189659
    40  C    0.030724
    41  C    0.213363
    42  O   -0.260687
    43  O   -0.303772
    44  C    0.299589
    80  Mg   0.837326
    81  C   -0.016970
    82  C   -0.101139
    83  C   -0.063656
    84  C   -0.105858
    85  N   -0.255044
    86  C   -0.048923
    87  C   -0.015636
    88  C   -0.094413
    89  C    0.044965
    90  C    0.178690
    91  C    0.112181
    92  C   -0.002381
    94  N   -0.423603
    95  C    0.162559
    96  C   -0.173741
    97  C   -0.008948
    98  C    0.152668
    99  C    0.174331
   100  C    0.014914
   101  O   -0.254503
   102  C    0.168547
   103  N   -0.350204
   104  C    0.037586
   105  C   -0.005806
   106  C   -0.022025
   107  C    0.088792
   108  C    0.113312
   109  C    0.044053
   110  C    0.050946
   111  N   -0.323972
   112  C    0.078155
   113  C   -0.163568
   114  C    0.001857
   115  C    0.096129
   116  C    0.231565
   117  C    0.041492
   118  O   -0.189201
   119  C    0.036190
   120  C    0.211284
   121  O   -0.251307
   122  O   -0.305443
   123  C    0.298715
 Electronic spatial extent (au):  <R**2>=          97901.5524
 Charge=             -0.0000 electrons
 Dipole moment (field-independent basis, Debye):
    X=             -5.5676    Y=              1.1473    Z=              4.6370  Tot=              7.3360
 Quadrupole moment (field-independent basis, Debye-Ang):
   XX=           -518.9157   YY=           -505.5127   ZZ=           -495.1757
   XY=            -20.7023   XZ=              0.7808   YZ=             -8.9213
 Traceless Quadrupole moment (field-independent basis, Debye-Ang):
   XX=            -12.3810   YY=              1.0220   ZZ=             11.3590
   XY=            -20.7023   XZ=              0.7808   YZ=             -8.9213
 Octapole moment (field-independent basis, Debye-Ang**2):
  XXX=           -421.0945  YYY=             69.7655  ZZZ=             94.0784  XYY=            249.2272
  XXY=             80.0646  XXZ=            241.0299  XZZ=           -233.7898  YZZ=           -252.8833
  YYZ=             35.1532  XYZ=           -135.9687
 Hexadecapole moment (field-independent basis, Debye-Ang**3):
 XXXX=         -68229.5123 YYYY=         -34453.0668 ZZZZ=         -31004.6956 XXXY=           -484.2730
 XXXZ=           -170.9587 YYYX=          -1313.4853 YYYZ=            544.2588 ZZZX=            546.4856
 ZZZY=          -1138.0446 XXYY=         -16075.5390 XXZZ=         -16537.5075 YYZZ=         -11074.4612
 XXYZ=             86.1082 YYXZ=          -1318.1493 ZZXY=            -11.6913
 N-N= 1.548737649408D+04 E-N=-4.045586044033D+04  KE= 4.028801458643D+03
 Leave Link  601 at Thu Aug 19 23:25:25 2021, MaxMem= 23488102400 cpu:              20.4 elap:               1.0
 (Enter /sw/apps/gaussian-16.0/g16/l9999.exe)
 1\1\GINC-BP1-COMPUTE00090\SP\RCAM-B3LYP TD-FC\def2SVP\C68H72Mg2N8O8\OF
 15641\19-Aug-2021\0\\#p cam-b3lyp/Def2SVP td=(nstates=5)\\TDDFT excite
 d states in gaussian\\0,1\Mg,0,0.,0.,0.\C,0,-0.217,-2.218,2.801\C,0,-1
 .255,2.442,2.026\C,0,-0.245,1.85,-2.564\C,0,0.146,-2.824,-2.037\N,0,-0
 .617,-0.009,2.126\C,0,-0.594,-0.908,3.105\C,0,-0.936,-0.309,4.502\C,0,
 -1.773,0.964,4.032\C,0,-1.155,1.168,2.66\C,0,-3.263,0.685,3.863\C,0,0.
 345,0.11,5.299\C,0,0.124,0.397,6.787\H,0,1.168,0.033,7.733\N,0,-0.185,
 1.961,-0.152\C,0,-0.703,2.8,0.777\C,0,-0.62,4.156,0.193\C,0,-0.187,4.0
 15,-1.225\C,0,-0.214,2.583,-1.38\C,0,-0.887,5.406,0.974\C,0,0.181,5.01
 3,-2.277\O,0,0.303,4.69,-3.508\C,0,0.31,6.414,-1.837\N,0,-0.265,-0.413
 ,-2.029\C,0,-0.279,0.569,-2.937\C,0,-0.196,0.024,-4.332\C,0,0.124,-1.5
 33,-4.18\C,0,0.086,-1.632,-2.635\C,0,-1.451,0.205,-5.197\C,0,1.373,-2.
 07,-4.923\C,0,2.626,-1.49,-4.306\N,0,0.15,-2.144,0.303\C,0,0.173,-3.13
 6,-0.688\C,0,0.173,-4.438,0.004\C,0,0.133,-4.111,1.358\C,0,0.083,-2.69
 5,1.502\C,0,0.149,-5.715,-0.623\C,0,0.096,-4.629,2.716\O,0,0.208,-5.74
 7,3.221\C,0,-0.255,-3.428,3.701\C,0,0.717,-3.482,4.848\O,0,1.931,-3.25
 5,4.669\O,0,0.038,-3.556,6.003\C,0,0.943,-3.583,7.183\H,0,-1.859,3.22,
 2.497\H,0,-0.218,2.453,-3.474\H,0,0.276,-3.747,-2.605\H,0,-1.554,-0.94
 9,5.132\H,0,-1.585,1.831,4.665\H,0,-3.484,-0.377,3.969\H,0,-3.511,1.02
 7,2.858\H,0,-3.852,1.301,4.543\H,0,0.669,1.096,4.966\H,0,1.13,-0.639,5
 .189\H,0,-0.844,0.026,7.125\H,0,0.062,1.477,6.921\H,0,-1.344,5.186,1.9
 38\H,0,-1.651,5.963,0.432\H,0,0.007,6.02,1.084\H,0,-0.635,6.744,-1.405
 \H,0,0.665,6.97,-2.704\H,0,1.048,6.466,-1.036\H,0,0.608,0.501,-4.891\H
 ,0,-0.692,-2.156,-4.547\H,0,-1.267,0.74,-6.129\H,0,-2.204,0.714,-4.596
 \H,0,-1.967,-0.72,-5.453\H,0,1.356,-1.759,-5.967\H,0,1.452,-3.157,-4.9
 02\H,0,2.714,-0.522,-4.798\H,0,3.487,-2.121,-4.529\H,0,2.495,-1.303,-3
 .24\H,0,0.867,-6.333,-0.084\H,0,0.404,-5.642,-1.68\H,0,-0.891,-5.999,-
 0.463\H,0,-1.283,-3.581,4.028\H,0,0.698,-4.478,7.755\H,0,0.833,-2.619,
 7.68\H,0,2.,-3.754,6.976\Mg,0,8.94158,0.79907,0.68422\C,0,9.1513,-2.25
 264,-1.19252\C,0,8.02448,-1.09137,3.37118\C,0,8.31203,3.4925,2.23874\C
 ,0,8.75091,2.49271,-2.35568\N,0,8.65995,-1.38063,0.93286\C,0,8.82821,-
 2.44776,0.16652\C,0,8.7184,-3.80221,0.91682\C,0,7.81593,-3.31919,2.154
 2\C,0,8.21212,-1.84448,2.18471\C,0,6.3236,-3.40728,1.8812\C,0,10.11418
 ,-4.33435,1.39708\C,0,10.1214,-5.7924,1.86163\H,0,11.30427,-6.60404,1.
 58862\N,0,8.74655,1.14403,2.62883\C,0,8.3888,0.25684,3.58078\C,0,8.370
 73,1.00874,4.84509\C,0,8.58645,2.44875,4.53759\C,0,8.53484,2.4197,3.08
 963\C,0,8.2424,0.34444,6.18512\C,0,8.79094,3.65462,5.40376\O,0,8.72079
 ,4.84357,4.93016\C,0,8.98301,3.40529,6.83988\N,0,8.37095,2.69415,0.047
 51\C,0,8.21394,3.7003,0.92554\C,0,8.07356,5.02616,0.21645\C,0,8.4125,4
 .73058,-1.31826\C,0,8.61188,3.20087,-1.24332\C,0,6.70091,5.69134,0.315
 24\C,0,9.52953,5.59049,-1.97054\C,0,10.86649,5.25827,-1.34799\N,0,9.13
 18,0.27459,-1.40308\C,0,8.99022,1.13374,-2.51479\C,0,9.09307,0.29674,-
 3.72775\C,0,9.26569,-1.0049,-3.23336\C,0,9.2499,-0.98354,-1.81252\C,0,
 8.97707,0.7583,-5.06925\C,0,9.44705,-2.39355,-3.59037\O,0,9.62426,-3.0
 0361,-4.64401\C,0,9.25442,-3.28017,-2.2853\C,0,10.39199,-4.26201,-2.21
 872\O,0,11.55938,-3.86653,-2.05312\O,0,9.89351,-5.50949,-2.14335\C,0,1
 0.98342,-6.51828,-2.06422\H,0,7.51138,-1.5633,4.20956\H,0,8.19967,4.46
 44,2.7248\H,0,8.79956,2.95875,-3.34214\H,0,8.20885,-4.58534,0.36833\H,
 0,8.11264,-3.81287,3.07594\H,0,6.11667,-3.66953,0.85429\H,0,5.92449,-2
 .42762,2.1093\H,0,5.85137,-4.09684,2.58677\H,0,10.38305,-3.83621,2.337
 46\H,0,10.85772,-4.19364,0.63684\H,0,9.21155,-6.32556,1.56019\H,0,10.0
 9221,-5.80876,2.95383\H,0,7.93331,-0.70349,6.08664\H,0,7.406,0.82687,6
 .70238\H,0,9.14243,0.44868,6.79483\H,0,8.12023,2.87242,7.23246\H,0,9.2
 02,4.3805,7.27907\H,0,9.84669,2.7432,6.96758\H,0,8.78438,5.74739,0.600
 72\H,0,7.54198,4.90256,-1.96823\H,0,6.73978,6.711,0.74286\H,0,6.05523,
 5.05549,0.90628\H,0,6.15515,5.76578,-0.6238\H,0,9.35226,6.65135,-1.777
 4\H,0,9.59792,5.466,-3.0461\H,0,10.8749,5.86957,-0.44061\H,0,11.67948,
 5.53345,-2.01684\H,0,10.90606,4.20757,-1.03797\H,0,9.75992,0.27087,-5.
 635\H,0,9.0604,1.84165,-5.12557\H,0,7.96831,0.41121,-5.30839\H,0,8.287
 77,-3.77855,-2.36757\H,0,10.82363,-7.22618,-2.88338\H,0,10.94307,-6.92
 155,-1.0349\H,0,11.99318,-6.18228,-2.26899\\Version=ES64L-G16RevA.03\S
 tate=1-A\HF=-4069.8128942\RMSD=5.945e-09\PG=C01 [X(C68H72Mg2N8O8)]\\@


 FROM WHENCE IT HAPPENS, THAT THEY WHICH TRUST TO BOOKS, DO AS THEY THAT CAST UP MANY LITTLE SUMMS INTO GREATER,
 WITHOUT CONSIDERING WETHER THOSE LITTLE SUMMES WERE RIGHTLY CAST UP OR NOT...
 AND AT LAST FINDING THE ERROUR VISIBLE, AND NOT MISTRUSTING THEIR FIRST GROUNDS,
 KNOW NOT WHICH WAY TO CLEERE THEMSELVES...
 BUT SPEND TIME IN FLUTTERING OVER THEIR BOOKES....
 AS BIRDS THAT ENTERING BY THE CHIMNEY, AND FINDING THEMSELVES INCLOSED IN A CHAMBER,
 FLUTTER AT THE FALSE LIGHT OF A GLASSE WINDOW,
 FOR WANT OF WIT TO CONSIDER WHICH WAY THEY CAME IN....
           LEVIATHAN
 Job cpu time:       0 days 15 hours 53 minutes 46.9 seconds.
 Elapsed time:       0 days  0 hours 40 minutes 25.3 seconds.
 File lengths (MBytes):  RWF=  13225 Int=      0 D2E=      0 Chk=    574 Scr=      1
 Normal termination of Gaussian 16 at Thu Aug 19 23:25:26 2021.
